FOO
138240
    1MOL0     O    1   2.357   5.236   6.551  0.5433 -0.2274 -0.2258
    1MOL0     C    2   2.362   5.145   6.637 -0.1007 -0.5266 -0.6569
    1MOL0     O    3   2.468   5.122   6.728  0.2559  0.1237  0.0056
    1MOL0     C    4   2.575   5.212   6.738 -0.4387 -0.1158  0.0388
    1MOL0     C    5   2.669   5.243   6.637 -0.2317 -0.2247  0.3502
    1MOL0     C    6   2.790   5.305   6.666  0.3364  0.1730 -0.1421
    1MOL0     C    7   2.810   5.355   6.796  0.7491  0.0895 -0.0290
    1MOL0     O    8   2.925   5.420   6.830  0.1279  0.2912 -0.7349
    1MOL0     C    9   2.928   5.558   6.777 -0.3822  0.7331 -0.3553
    1MOL0     C   10   2.977   5.660   6.883 -0.4648  0.5012 -0.5460
    1MOL0     C   11   3.131   5.645   6.922 -0.6221 -0.4259  0.3032
    1MOL0     C   12   3.227   5.698   6.813  0.0761  0.3247 -0.3054
    1MOL0     C   13   3.368   5.637   6.827  0.0874  0.2115  0.1719
    1MOL0     C   14   3.442   5.636   6.695 -0.8869 -0.7236  0.1435
    1MOL0     C   15   3.582   5.562   6.709 -0.1652 -0.0332  0.6480
    1MOL0     C   16   3.655   5.539   6.579  0.0060  0.3485 -0.1295
    1MOL0     N   17   3.725   5.662   6.541 -0.5112 -0.4772 -0.1425
    1MOL0     C   18   3.852   5.686   6.587  0.6524  0.1647  0.0518
    1MOL0     C   19   3.891   5.802   6.517  0.8779  0.2891  0.1402
    1MOL0     C   20   4.026   5.866   6.534 -0.4478 -0.4669 -0.6301
    1MOL0     C   21   4.118   5.842   6.412  0.2113 -0.4949 -0.2696
    1MOL0     C   22   4.190   5.711   6.428 -0.0734 -1.3458  0.3764
    1MOL0     C   23   4.314   5.697   6.337  1.7273  0.2595 -0.3040
    1MOL0     O   24   4.400   5.812   6.347 -0.4651 -0.6591 -1.1328
    1MOL0     C   25   4.534   5.806   6.334 -0.4202 -0.5670  0.1975
    1MOL0     C   26   4.604   5.923   6.359 -0.1220 -0.1894 -0.2309
    1MOL0     C   27   4.741   5.930   6.351  0.3168 -0.1503  0.0445
    1MOL0     C   28   4.816   5.817   6.321 -0.3207  0.3498 -0.3215
    1MOL0     C   29   4.961   5.827   6.285 -0.1183  0.3826 -0.0227
    1MOL0     O   30   5.030   5.703   6.281 -0.3952  0.5361  0.3154
    1MOL0     C   31   5.164   5.721   6.271 -0.5409  0.0945 -1.2512
    1MOL0     C   32   5.228   5.715   6.158  0.3925  0.3931 -0.4562
    1MOL0     C   33   5.366   5.721   6.144 -0.0181  0.9332  0.0199
    1MOL0     C   34   5.444   5.751   6.252 -0.8056 -0.2029 -0.4580
    1MOL0     O   35   5.574   5.778   6.229  0.2339  0.4953 -0.2275
    1MOL0     C   36   5.669   5.764   6.334 -0.1593 -0.6109 -0.3756
    1MOL0     C   37   5.811   5.768   6.284 -0.5137  0.4989 -0.2932
    1MOL0     C   38   5.917   5.739   6.401  0.4895  0.1161 -0.7286
    1MOL0     C   39   6.053   5.710   6.343  0.1633  0.3553  0.3484
    1MOL0     C   40   6.160   5.654   6.434  0.2292  0.2665  0.2421
    1MOL0     C   41   6.289   5.622   6.363 -0.6331 -0.1772 -0.1490
    1MOL0     C   42   6.381   5.550   6.463  0.0209  0.0542 -0.7697
    1MOL0     C   43   6.489   5.473   6.393  0.6564  0.1323  0.0251
    1MOL0    Cl   44   6.626   5.586   6.352  0.4950 -0.3236 -0.3419
    1MOL0     C   45   5.382   5.744   6.378  0.0532 -0.2590  0.1026
    1MOL0     C   46   5.243   5.737   6.388 -0.2946  0.1750  0.5109
    1MOL0     O   47   5.003   5.943   6.273  0.0627 -0.2826  0.0347
    1MOL0     C   48   4.751   5.696   6.313 -0.2241 -0.5953  1.1748
    1MOL0     C   49   4.609   5.688   6.307 -0.2252  0.3349 -0.0116
    1MOL0     N   50   3.795   5.840   6.432 -0.0704 -0.1650 -0.9688
    1MOL0     N   51   3.692   5.762   6.450  0.6378 -0.1448 -0.0769
    1MOL0     C   52   2.710   5.345   6.894  0.6042 -0.5589 -0.1182
    1MOL0     C   53   2.596   5.268   6.866 -0.2345  0.2286  0.1816
    1MOL0     C   54   2.243   5.060   6.637  0.1220  0.6969 -0.7097
    1MOL0     C   55   2.268   4.924   6.620 -0.6325 -0.2518  0.2058
    1MOL0     C   56   2.161   4.839   6.605 -0.2791 -0.7333 -1.2299
    1MOL0     C   57   2.033   4.885   6.591  0.7350  0.6316  1.1969
    1MOL0     O   58   1.930   4.795   6.558  0.3073 -0.3312 -0.3121
    1MOL0     C   59   1.962   4.654   6.553  0.1128  0.1120 -0.2696
    1MOL0     C   60   1.841   4.572   6.506 -0.4156  0.4604  0.6829
    1MOL0     C   61   1.717   4.612   6.590 -0.6310 -0.3228 -0.7395
    1MOL0     C   62   1.598   4.518   6.567  0.3712 -1.0013  0.5084
    1MOL0     C   63   1.562   4.529   6.427 -0.4564  0.0894  0.0782
    1MOL0     C   64   1.538   4.539   6.311  0.6310  0.0105  0.3579
    1MOL0     C   65   2.006   5.025   6.591 -0.2987 -0.6528 -0.0185
    1MOL0     C   66   2.110   5.114   6.618 -0.7886  1.1347 -0.1816
    1MOL0     C   67   2.074   5.261   6.653  0.2316 -0.0077  0.4176
    1MOL0     H   68   2.657   5.220   6.531  1.7474  0.4438 -0.0617
    1MOL0     H   69   2.863   5.315   6.587  0.1269 -1.4566 -0.5636
    1MOL0     H   70   2.987   5.551   6.686 -1.2436 -1.2934 -0.8068
    1MOL0     H   71   2.829   5.594   6.746  0.2355  3.4229  0.5072
    1MOL0     H   72   2.912   5.632   6.966 -1.6091 -1.5196 -2.0328
    1MOL0     H   73   2.970   5.761   6.842  2.2115  0.8929 -0.2260
    1MOL0     H   74   3.140   5.546   6.967 -1.2090  0.2366  1.9529
    1MOL0     H   75   3.150   5.711   7.007  0.7979  0.8978 -0.9722
    1MOL0     H   76   3.185   5.665   6.717 -0.6593 -0.2243  0.1974
    1MOL0     H   77   3.230   5.807   6.810 -0.5485  0.3775  0.7624
    1MOL0     H   78   3.418   5.692   6.907 -1.4311  0.9796  0.6486
    1MOL0     H   79   3.357   5.537   6.869  0.0171  0.2494  0.2461
    1MOL0     H   80   3.379   5.585   6.622 -0.2720  0.2463 -1.1044
    1MOL0     H   81   3.466   5.739   6.669 -1.1091 -1.0394 -1.3842
    1MOL0     H   82   3.572   5.464   6.757  2.2398 -0.9584 -0.5404
    1MOL0     H   83   3.646   5.615   6.780 -0.7442 -1.1571  2.0625
    1MOL0     H   84   3.718   5.450   6.591 -1.3552 -0.6250  0.1290
    1MOL0     H   85   3.579   5.522   6.502 -1.7731  1.9017  1.1973
    1MOL0     H   86   3.910   5.620   6.651  0.9847  0.8972  0.5095
    1MOL0     H   87   4.010   5.971   6.558 -0.5060 -0.7810  0.8067
    1MOL0     H   88   4.072   5.824   6.624 -3.0988  1.4089  1.7544
    1MOL0     H   89   4.070   5.847   6.313 -0.7092  3.4906  0.2131
    1MOL0     H   90   4.190   5.924   6.402  1.2848 -1.5242 -1.3602
    1MOL0     H   91   4.116   5.631   6.425 -1.1913 -0.3180 -1.2072
    1MOL0     H   92   4.228   5.717   6.530  0.9349  2.3158 -0.0555
    1MOL0     H   93   4.284   5.667   6.236  1.6970 -2.5027  0.4469
    1MOL0     H   94   4.368   5.608   6.373  0.4063 -0.8800 -1.0350
    1MOL0     H   95   4.550   6.015   6.381 -1.7936 -0.2916 -3.3721
    1MOL0     H   96   4.788   6.028   6.352 -1.0901  0.5526 -0.0855
    1MOL0     H   97   5.166   5.716   6.069 -1.2700 -0.0348  0.6543
    1MOL0     H   98   5.413   5.715   6.047  2.8919  2.2008  1.2240
    1MOL0     H   99   5.664   5.851   6.401  0.9864  0.6864 -1.8841
    1MOL0     H  100   5.655   5.670   6.388  0.2644 -1.2349 -1.3226
    1MOL0     H  101   5.820   5.706   6.194 -2.3491  2.8068 -2.2054
    1MOL0     H  102   5.835   5.869   6.248  2.7447  0.1601  0.6534
    1MOL0     H  103   5.922   5.817   6.477  0.1296 -0.5504 -0.0056
    1MOL0     H  104   5.875   5.644   6.436 -0.2145  0.2054 -1.2956
    1MOL0     H  105   6.098   5.793   6.288 -1.7321  0.6964 -0.7660
    1MOL0     H  106   6.041   5.636   6.263 -1.5270 -0.8106  1.6090
    1MOL0     H  107   6.117   5.568   6.485 -0.0344 -0.2481 -0.8233
    1MOL0     H  108   6.183   5.725   6.514  0.0869 -0.7806  1.2272
    1MOL0     H  109   6.266   5.553   6.281 -1.2219  1.2787 -1.2483
    1MOL0     H  110   6.334   5.716   6.330 -0.4640  0.0464  0.6905
    1MOL0     H  111   6.325   5.476   6.520  0.5314  0.9697  1.0241
    1MOL0     H  112   6.419   5.627   6.531 -0.6763 -0.0239 -0.2823
    1MOL0     H  113   6.521   5.386   6.451  0.7258  0.3638  0.3403
    1MOL0     H  114   6.450   5.442   6.296  1.4068 -3.0412  0.6079
    1MOL0     H  115   5.451   5.734   6.461 -0.4161 -1.6914  0.3471
    1MOL0     H  116   5.203   5.746   6.488  0.0359  2.9816  0.4715
    1MOL0     H  117   4.803   5.605   6.285  1.6630  0.0723  2.2921
    1MOL0     H  118   4.554   5.597   6.284  1.0987 -0.4588 -0.1475
    1MOL0     H  119   2.741   5.384   6.990 -0.1198  0.1616 -0.1693
    1MOL0     H  120   2.520   5.239   6.938 -2.5651 -0.0549 -2.2293
    1MOL0     H  121   2.372   4.894   6.622 -0.9072 -1.4378 -1.2253
    1MOL0     H  122   2.187   4.734   6.598  2.7584 -0.3176  1.3853
    1MOL0     H  123   1.996   4.619   6.652 -0.1073 -1.7291 -0.8024
    1MOL0     H  124   2.044   4.637   6.483  1.9019  2.4059  1.1136
    1MOL0     H  125   1.873   4.468   6.498 -0.6051  0.3062  1.8549
    1MOL0     H  126   1.829   4.598   6.400  0.8670 -0.4257  0.3025
    1MOL0     H  127   1.683   4.714   6.571 -1.1366 -0.2291  0.5387
    1MOL0     H  128   1.749   4.598   6.694  1.5156 -0.5331 -1.3876
    1MOL0     H  129   1.609   4.410   6.582 -0.1685 -0.7825  2.8633
    1MOL0     H  130   1.515   4.549   6.631 -0.0196  2.2587 -1.3904
    1MOL0     H  131   1.512   4.533   6.207 -1.0865 -1.5966  0.8213
    1MOL0     H  132   1.907   5.066   6.574 -0.0028 -0.0720 -0.3512
    1MOL0     H  133   2.105   5.328   6.572 -0.3276 -0.0498  0.1695
    1MOL0     H  134   1.966   5.273   6.657  0.3509  3.7080 -2.3848
    1MOL0     H  135   2.134   5.286   6.742 -0.4960 -2.3025  1.6276
    2MOL0     O  136   6.179   8.083  10.915 -0.2219 -0.2440  0.2833
    2MOL0     C  137   6.099   8.000  10.885 -0.1396  0.8008  0.0851
    2MOL0     O  138   6.135   7.866  10.877  0.1805 -0.3411 -0.7249
    2MOL0     C  139   6.255   7.834  10.944  0.0336  0.7577  0.4310
    2MOL0     C  140   6.386   7.837  10.882  0.1255 -0.3221 -0.3359
    2MOL0     C  141   6.494   7.800  10.959  0.2735  0.5507  0.0680
    2MOL0     C  142   6.483   7.753  11.091  0.1244 -0.2554  0.3271
    2MOL0     O  143   6.587   7.721  11.168 -0.2935  0.6508  0.6321
    2MOL0     C  144   6.699   7.650  11.108  0.1536 -0.2038  0.1510
    2MOL0     C  145   6.809   7.751  11.063 -0.0613  0.5645  0.6234
    2MOL0     C  146   6.948   7.684  11.045 -0.2111 -0.1961 -0.1975
    2MOL0     C  147   7.037   7.763  10.957 -0.2089 -0.0326 -0.4074
    2MOL0     C  148   7.183   7.704  10.940  0.0580 -0.0114  0.4719
    2MOL0     C  149   7.269   7.705  11.065  0.5675  0.1289 -0.2720
    2MOL0     C  150   7.406   7.658  11.018  0.0046 -0.2374  0.7459
    2MOL0     C  151   7.527   7.708  11.105  0.3579 -0.6414 -0.1894
    2MOL0     N  152   7.633   7.610  11.105 -0.3416 -0.5252  0.5570
    2MOL0     C  153   7.730   7.575  11.017 -0.6514 -0.1394  0.4604
    2MOL0     C  154   7.810   7.487  11.077  0.9586 -0.3297  0.1462
    2MOL0     C  155   7.914   7.407  11.014 -0.1794  1.2982  0.4195
    2MOL0     C  156   8.051   7.450  11.063 -0.2947  0.1367  0.1722
    2MOL0     C  157   8.157   7.351  11.005 -1.0340  0.7162 -0.4310
    2MOL0     C  158   8.194   7.367  10.860  0.8188 -0.8308  0.1708
    2MOL0     O  159   8.256   7.502  10.828  0.8358  0.1583 -0.2863
    2MOL0     C  160   8.390   7.533  10.860  0.4375 -0.9695  0.0400
    2MOL0     C  161   8.428   7.663  10.838 -0.0004 -0.4271 -0.1688
    2MOL0     C  162   8.553   7.719  10.862  0.5963 -0.2403  0.0953
    2MOL0     C  163   8.654   7.635  10.908 -0.0294  0.4640  0.6076
    2MOL0     C  164   8.786   7.682  10.935  0.0058 -0.5649 -0.6783
    2MOL0     O  165   8.808   7.819  10.917  0.0186 -0.0278  0.8600
    2MOL0     C  166   8.928   7.881  10.938 -0.3253  0.5631 -0.7133
    2MOL0     C  167   8.942   8.010  10.876 -0.5232  0.5985  0.2507
    2MOL0     C  168   9.069   8.077  10.894 -0.5148 -0.1862  0.4217
    2MOL0     C  169   9.148   8.048  11.004  0.7892  0.1428 -0.4088
    2MOL0     O  170   9.256   8.124  11.033  0.4955  0.0503  0.0835
    2MOL0     C  171   9.392   8.075  10.998  0.5904 -0.1253  0.1604
    2MOL0     C  172   9.462   8.195  10.937  0.7987 -0.4480  0.9614
    2MOL0     C  173   9.587   8.177  10.852  0.0842  0.1379 -0.6130
    2MOL0     C  174   9.714   8.124  10.919 -0.0075 -0.4898  0.1930
    2MOL0     C  175   9.838   8.145  10.830 -0.1010  0.4748 -0.7914
    2MOL0     C  176   9.826   8.077  10.696  0.3223 -0.3006  0.0090
    2MOL0     C  177   9.950   8.114  10.604  0.7802  0.1432 -0.0075
    2MOL0     C  178  10.080   8.030  10.640  0.2861  0.7541  0.6863
    2MOL0    Cl  179  10.178   8.093  10.766  0.4423 -0.2779  0.3239
    2MOL0     C  180   9.118   7.931  11.081 -0.5862 -0.1756  0.2311
    2MOL0     C  181   9.014   7.847  11.041 -0.3287 -0.3426 -0.1086
    2MOL0     O  182   8.877   7.597  10.960  0.4296  0.5791 -0.0689
    2MOL0     C  183   8.617   7.498  10.929 -1.3354 -0.6903  0.3376
    2MOL0     C  184   8.493   7.448  10.907 -0.4966 -0.2455 -0.0107
    2MOL0     N  185   7.763   7.468  11.212  0.0579  0.2894  0.5205
    2MOL0     N  186   7.655   7.540  11.219 -0.3534  0.3535 -0.4727
    2MOL0     C  187   6.358   7.755  11.145  1.2620 -0.3643 -0.4208
    2MOL0     C  188   6.236   7.784  11.072  0.0044 -0.0650 -0.2321
    2MOL0     C  189   5.965   8.037  10.840  0.7302 -0.6529  0.6343
    2MOL0     C  190   5.952   8.158  10.773  0.0821 -0.6186 -0.2773
    2MOL0     C  191   5.827   8.215  10.770 -0.1039 -0.3960  0.5382
    2MOL0     C  192   5.716   8.154  10.822  0.0071  0.3149  0.0314
    2MOL0     O  193   5.588   8.194  10.832 -0.1481  0.0615 -0.6791
    2MOL0     C  194   5.556   8.328  10.791 -0.1377  0.1138 -0.0763
    2MOL0     C  195   5.409   8.358  10.846  0.4225  0.5914 -0.4395
    2MOL0     C  196   5.408   8.440  10.979  1.2744  1.0440 -0.3012
    2MOL0     C  197   5.277   8.525  10.998  0.3355  0.5840  0.3138
    2MOL0     C  198   5.158   8.445  10.999  0.4764 -0.3396  0.2472
    2MOL0     C  199   5.064   8.379  10.986 -0.5557  0.0178 -0.3643
    2MOL0     C  200   5.730   8.027  10.875  0.2770 -0.7763 -0.8974
    2MOL0     C  201   5.850   7.962  10.882  0.6037  0.4240 -0.0648
    2MOL0     C  202   5.861   7.824  10.935  0.2891  0.8789 -0.7590
    2MOL0     H  203   6.397   7.866  10.778  1.9070  1.8825  0.3829
    2MOL0     H  204   6.592   7.793  10.913  1.4860  0.8207  2.4627
    2MOL0     H  205   6.736   7.593  11.194 -2.4661  0.8200  2.0987
    2MOL0     H  206   6.663   7.583  11.030 -0.9028 -1.1434  1.4110
    2MOL0     H  207   6.801   7.831  11.138 -0.1411 -2.1718  3.7568
    2MOL0     H  208   6.775   7.786  10.965 -2.1614 -1.3314  0.6139
    2MOL0     H  209   6.929   7.589  10.992  0.9925 -0.6824  0.2181
    2MOL0     H  210   6.993   7.659  11.142 -0.0394 -2.1682 -0.7344
    2MOL0     H  211   6.985   7.762  10.861  0.1904 -0.8773 -0.6204
    2MOL0     H  212   7.037   7.864  10.999  0.1035 -0.8800  1.7643
    2MOL0     H  213   7.168   7.607  10.892  2.7179  0.0572 -0.6628
    2MOL0     H  214   7.223   7.768  10.861 -1.9710 -0.9673 -1.4592
    2MOL0     H  215   7.258   7.804  11.112 -1.7220 -0.2348  0.0695
    2MOL0     H  216   7.222   7.636  11.135  1.3729 -0.1992 -0.0428
    2MOL0     H  217   7.429   7.693  10.917  0.8627 -0.4972  0.8463
    2MOL0     H  218   7.401   7.549  11.013  0.6278 -0.2143 -0.8023
    2MOL0     H  219   7.558   7.808  11.075  2.1216 -1.2777 -0.6230
    2MOL0     H  220   7.500   7.713  11.211 -0.1903  1.5184 -0.3992
    2MOL0     H  221   7.741   7.614  10.916 -1.4970 -0.9189  0.0506
    2MOL0     H  222   7.912   7.303  11.048  0.2553 -0.4634 -4.1288
    2MOL0     H  223   7.904   7.410  10.905  0.6320  3.5424  0.3581
    2MOL0     H  224   8.088   7.550  11.037 -0.6182  0.0388 -0.6988
    2MOL0     H  225   8.057   7.431  11.170 -1.0336 -3.2889 -0.2653
    2MOL0     H  226   8.119   7.249  11.012 -0.2174  0.1684 -3.0082
    2MOL0     H  227   8.248   7.347  11.066 -0.6917  0.0952 -0.9744
    2MOL0     H  228   8.101   7.359  10.804  0.2209 -0.9509  1.1523
    2MOL0     H  229   8.252   7.281  10.827 -1.0558 -2.0388 -0.1459
    2MOL0     H  230   8.362   7.729  10.783 -0.7451 -1.7283 -0.8851
    2MOL0     H  231   8.565   7.824  10.837 -0.4360  0.1776  1.2491
    2MOL0     H  232   8.860   8.047  10.815 -0.0445  1.9625  0.4014
    2MOL0     H  233   9.088   8.161  10.828 -2.2732  1.9095  2.4311
    2MOL0     H  234   9.449   8.039  11.084 -0.8226  0.5644  1.4348
    2MOL0     H  235   9.379   7.992  10.927  2.1842  1.3175 -1.9417
    2MOL0     H  236   9.386   8.247  10.877 -0.5213  0.0895  2.9959
    2MOL0     H  237   9.486   8.266  11.017 -0.1885  0.1201  0.7643
    2MOL0     H  238   9.555   8.112  10.770 -1.1351 -0.9573  0.6911
    2MOL0     H  239   9.610   8.279  10.819 -0.5044  0.5511  0.2224
    2MOL0     H  240   9.703   8.017  10.938 -0.3966 -0.7009 -1.1051
    2MOL0     H  241   9.739   8.171  11.015  2.4510 -0.2087 -0.4961
    2MOL0     H  242   9.930   8.112  10.880 -1.4930 -2.0047  0.3412
    2MOL0     H  243   9.852   8.251  10.808 -1.1082  0.0984 -3.8639
    2MOL0     H  244   9.823   7.968  10.701  1.7062 -0.4182 -1.2096
    2MOL0     H  245   9.734   8.113  10.648 -0.5052 -1.5801  0.5719
    2MOL0     H  246   9.968   8.222  10.604 -0.2504  0.3703 -2.5253
    2MOL0     H  247   9.919   8.087  10.503 -2.2382  0.2589  0.7756
    2MOL0     H  248  10.051   7.931  10.677 -2.0657  0.9954 -0.3079
    2MOL0     H  249  10.135   8.015  10.548 -0.1630  2.6058  0.0684
    2MOL0     H  250   9.192   7.914  11.158 -0.0782 -1.0349 -0.4289
    2MOL0     H  251   8.985   7.760  11.099 -0.5363 -0.0608  0.2124
    2MOL0     H  252   8.689   7.426  10.966  1.1381  0.3474 -2.0912
    2MOL0     H  253   8.465   7.344  10.917 -2.6372 -0.0761 -2.7910
    2MOL0     H  254   6.351   7.708  11.243  1.9272  1.5750  0.6199
    2MOL0     H  255   6.137   7.773  11.115  0.1121  1.2854  0.4094
    2MOL0     H  256   6.029   8.224  10.732 -2.5245  3.3072  0.5878
    2MOL0     H  257   5.838   8.312  10.721 -0.5414 -1.5201 -1.9746
    2MOL0     H  258   5.559   8.333  10.682 -3.0497  2.8836 -0.1814
    2MOL0     H  259   5.626   8.402  10.834  0.0314  2.0805 -3.4032
    2MOL0     H  260   5.362   8.261  10.860 -0.8723  1.0227 -1.5695
    2MOL0     H  261   5.351   8.408  10.768 -0.2230  2.9695  1.4481
    2MOL0     H  262   5.481   8.519  10.964 -1.2643  3.6963  0.3687
    2MOL0     H  263   5.422   8.388  11.075  0.3253  0.8308 -0.2687
    2MOL0     H  264   5.287   8.585  11.089  1.3589  4.3628 -2.0595
    2MOL0     H  265   5.267   8.586  10.907 -1.2321  0.0980  0.1284
    2MOL0     H  266   4.988   8.308  10.959  1.3679 -1.4674 -2.1881
    2MOL0     H  267   5.640   7.984  10.917 -0.3367  2.2781  1.2169
    2MOL0     H  268   5.891   7.815  11.039 -0.9163  0.9557 -0.3919
    2MOL0     H  269   5.758   7.788  10.935  0.2112  1.0408 -1.9417
    2MOL0     H  270   5.915   7.756  10.868  0.3482 -0.6049  0.7249
    3MOL0     O  271   8.223   6.169   2.557 -0.0454  0.3676  0.1578
    3MOL0     C  272   8.234   6.282   2.518 -0.4814  0.6728 -0.0890
    3MOL0     O  273   8.351   6.349   2.486 -1.1534 -0.0655  0.4102
    3MOL0     C  274   8.469   6.278   2.505 -0.2596  0.2427 -0.7392
    3MOL0     C  275   8.479   6.167   2.420 -0.1067 -0.2894  0.2417
    3MOL0     C  276   8.589   6.086   2.431 -0.4324 -0.0158  0.0679
    3MOL0     C  277   8.696   6.114   2.518 -0.7837 -0.3565  0.1340
    3MOL0     O  278   8.812   6.037   2.508 -0.5142 -0.3918 -0.2748
    3MOL0     C  279   8.927   6.077   2.575  0.5715  0.7000  0.4858
    3MOL0     C  280   9.058   6.012   2.523  0.2342  0.1105  0.0345
    3MOL0     C  281   9.182   6.078   2.590  0.8655  0.2825  0.4157
    3MOL0     C  282   9.300   6.026   2.518 -0.3648  0.6212  0.1084
    3MOL0     C  283   9.426   6.075   2.584  0.1634 -0.0890 -0.6504
    3MOL0     C  284   9.552   6.054   2.504  0.1416  0.5066 -0.0076
    3MOL0     C  285   9.666   6.033   2.601 -0.0173  0.1900  0.3725
    3MOL0     C  286   9.696   6.176   2.658  0.6267 -0.3906 -0.2612
    3MOL0     N  287   9.766   6.243   2.552 -0.0582 -0.1705 -0.0891
    3MOL0     C  288   9.897   6.216   2.514 -0.7629 -0.5414  0.3521
    3MOL0     C  289   9.922   6.287   2.403 -0.5131  0.3703 -0.1764
    3MOL0     C  290  10.049   6.283   2.328  0.0268 -0.2101  0.3508
    3MOL0     C  291  10.065   6.169   2.229  0.7457 -0.6149 -1.0771
    3MOL0     C  292   9.935   6.118   2.162 -0.4918  0.5278  0.1897
    3MOL0     C  293   9.967   5.986   2.096 -0.2788  0.0791  0.1855
    3MOL0     O  294  10.037   5.890   2.178 -0.7408 -0.5292 -0.8997
    3MOL0     C  295  10.099   5.794   2.103 -0.3024  0.9253  0.3757
    3MOL0     C  296  10.042   5.717   2.000 -0.1819 -0.6029 -0.2203
    3MOL0     C  297  10.114   5.626   1.933 -0.4820 -0.1986 -0.5915
    3MOL0     C  298  10.254   5.610   1.969  0.2828  0.2754 -0.4550
    3MOL0     C  299  10.327   5.513   1.901  0.8655  0.0432  0.4143
    3MOL0     O  300  10.263   5.428   1.817 -0.2930 -0.1144  0.4253
    3MOL0     C  301  10.327   5.325   1.745 -0.3478  0.5860  0.0197
    3MOL0     C  302  10.301   5.304   1.612 -0.2887  0.2860 -0.6405
    3MOL0     C  303  10.362   5.207   1.539 -0.0220  0.7249  0.7999
    3MOL0     C  304  10.472   5.129   1.587 -0.4206 -0.5965 -0.7618
    3MOL0     O  305  10.549   5.052   1.512  0.7543  1.0248  0.1537
    3MOL0     C  306  10.522   5.015   1.372  0.0354  1.1695  0.2242
    3MOL0     C  307  10.561   4.864   1.352 -0.0293 -0.1956 -0.6090
    3MOL0     C  308  10.702   4.828   1.384 -0.7765  0.1281 -0.1677
    3MOL0     C  309  10.731   4.679   1.411 -0.0651 -0.4929 -0.2359
    3MOL0     C  310  10.877   4.641   1.407 -0.4054  0.0594  0.8059
    3MOL0     C  311  10.970   4.708   1.494  0.1432  1.0502 -0.3867
    3MOL0     C  312  10.925   4.739   1.644 -0.4190  0.2430  0.8947
    3MOL0     C  313  11.044   4.776   1.731  0.3831 -0.5396  0.4497
    3MOL0    Cl  314  11.171   4.656   1.748 -0.1777 -0.0597  0.0479
    3MOL0     C  315  10.499   5.144   1.722 -0.2492 -0.1418 -0.0468
    3MOL0     C  316  10.427   5.240   1.800  0.5927  0.3201 -0.1973
    3MOL0     O  317  10.450   5.503   1.923  0.0441 -0.0459  0.0818
    3MOL0     C  318  10.306   5.676   2.079 -0.5944  0.1984  0.8920
    3MOL0     C  319  10.228   5.761   2.147 -0.1192 -0.4132  0.1770
    3MOL0     N  320   9.797   6.340   2.366 -0.8523 -0.0193 -0.3957
    3MOL0     N  321   9.707   6.324   2.460  0.0936 -0.0786 -0.0850
    3MOL0     C  322   8.685   6.228   2.602  0.1257  0.5074  0.3687
    3MOL0     C  323   8.569   6.307   2.598 -0.0001 -0.2514 -0.4456
    3MOL0     C  324   8.101   6.349   2.496 -0.5548 -0.4574  0.1079
    3MOL0     C  325   7.985   6.279   2.516  0.9758  0.2727 -0.5372
    3MOL0     C  326   7.862   6.332   2.501  0.2074 -0.7879 -0.6322
    3MOL0     C  327   7.843   6.461   2.454 -0.8322 -0.0476  0.4572
    3MOL0     O  328   7.723   6.520   2.437  0.0083 -0.4090 -0.4978
    3MOL0     C  329   7.602   6.465   2.499 -0.3112  0.0816 -0.9387
    3MOL0     C  330   7.472   6.552   2.467  0.0250 -0.5325 -0.6053
    3MOL0     C  331   7.375   6.538   2.584  0.3364 -0.1345 -0.2417
    3MOL0     C  332   7.249   6.626   2.574  0.3284  0.1000  0.1168
    3MOL0     C  333   7.141   6.553   2.645 -0.6124  0.6251  0.0523
    3MOL0     C  334   7.073   6.497   2.729  0.2864 -0.2994 -0.3819
    3MOL0     C  335   7.959   6.532   2.412  0.7810  0.0937 -0.3305
    3MOL0     C  336   8.092   6.485   2.445  0.1285  0.4752 -1.1872
    3MOL0     C  337   8.208   6.580   2.416  0.7183  0.1863  0.7858
    3MOL0     H  338   8.397   6.134   2.356 -0.6688 -0.6583  1.1392
    3MOL0     H  339   8.605   6.008   2.358  1.4092  0.2674  0.1245
    3MOL0     H  340   8.939   6.185   2.566  2.9366  0.5990  1.6700
    3MOL0     H  341   8.909   6.049   2.679  0.1744  0.1009  0.2598
    3MOL0     H  342   9.049   6.024   2.415 -1.5846 -1.9443 -0.0958
    3MOL0     H  343   9.060   5.904   2.534 -0.1861  0.0008 -0.8853
    3MOL0     H  344   9.180   6.036   2.691  2.0294 -0.9003 -0.0386
    3MOL0     H  345   9.163   6.185   2.577 -0.2876 -0.1011 -1.5175
    3MOL0     H  346   9.317   5.918   2.527  3.1772  1.1210  0.9683
    3MOL0     H  347   9.287   6.055   2.414 -0.4541  1.2669  0.2913
    3MOL0     H  348   9.421   6.184   2.593  2.0780  0.1469 -1.8315
    3MOL0     H  349   9.436   6.046   2.689  1.4233  0.9268 -0.4696
    3MOL0     H  350   9.546   5.956   2.456  1.9445  0.5298 -0.3391
    3MOL0     H  351   9.565   6.127   2.423 -0.7776  0.9447  0.2235
    3MOL0     H  352   9.757   5.989   2.561  0.2223  0.6300  0.4281
    3MOL0     H  353   9.644   5.958   2.678  0.8262 -0.3255  0.1228
    3MOL0     H  354   9.607   6.228   2.695  0.8519 -1.9509  2.7172
    3MOL0     H  355   9.765   6.172   2.743  1.8984 -2.8690 -1.3298
    3MOL0     H  356   9.967   6.144   2.555 -0.2778 -0.4473 -0.3042
    3MOL0     H  357  10.053   6.376   2.269 -0.3693 -1.0767 -1.0880
    3MOL0     H  358  10.135   6.301   2.394 -0.0111 -0.3785  0.4454
    3MOL0     H  359  10.144   6.195   2.158  1.1304 -1.6477 -1.0393
    3MOL0     H  360  10.116   6.090   2.285  2.9751  0.1225 -1.9270
    3MOL0     H  361   9.896   6.201   2.101 -3.5106  0.6777  2.1147
    3MOL0     H  362   9.849   6.102   2.228 -1.0481  0.2441 -0.5886
    3MOL0     H  363  10.027   6.004   2.007 -0.9261 -0.6085 -0.4012
    3MOL0     H  364   9.876   5.931   2.071 -0.0348 -0.7425  1.0367
    3MOL0     H  365   9.940   5.727   1.965  0.6373 -0.4892 -2.8180
    3MOL0     H  366  10.061   5.573   1.854 -0.7151  1.1132 -1.3326
    3MOL0     H  367  10.218   5.352   1.560  1.3558  3.2884 -0.7288
    3MOL0     H  368  10.336   5.212   1.434  1.7750  0.2496  0.2984
    3MOL0     H  369  10.417   5.025   1.345 -0.0508  1.4180  0.6402
    3MOL0     H  370  10.580   5.086   1.312 -1.1052  1.8066 -0.1447
    3MOL0     H  371  10.503   4.813   1.429  0.6127  0.7179  0.5078
    3MOL0     H  372  10.520   4.830   1.256 -2.4279  2.8377 -0.8178
    3MOL0     H  373  10.767   4.846   1.298 -1.4365 -1.6484 -1.0798
    3MOL0     H  374  10.738   4.877   1.475  1.3073 -0.1749 -0.7704
    3MOL0     H  375  10.663   4.627   1.343 -3.2806  2.0186  0.8446
    3MOL0     H  376  10.687   4.660   1.509  0.4464  2.4635  0.6727
    3MOL0     H  377  10.916   4.650   1.305 -1.1035  2.2380  0.6677
    3MOL0     H  378  10.886   4.535   1.432 -3.3605 -0.8142 -1.3651
    3MOL0     H  379  11.054   4.639   1.501 -1.5345 -1.0530  0.1369
    3MOL0     H  380  11.003   4.802   1.449 -0.8919  2.2357  1.2091
    3MOL0     H  381  10.872   4.655   1.690 -2.2606  0.9230  0.1278
    3MOL0     H  382  10.862   4.828   1.652  1.3979  1.3866  3.8695
    3MOL0     H  383  11.086   4.868   1.688 -1.3413  0.1230  0.0739
    3MOL0     H  384  11.000   4.798   1.829 -1.9836 -1.2709 -0.3737
    3MOL0     H  385  10.559   5.081   1.787  2.2155  3.1121  1.0951
    3MOL0     H  386  10.446   5.249   1.906  2.0522  2.0800 -0.5556
    3MOL0     H  387  10.408   5.664   2.112 -0.4426  2.3010  1.3120
    3MOL0     H  388  10.279   5.821   2.222  0.9753 -1.0123 -0.0683
    3MOL0     H  389   8.760   6.242   2.679 -0.2114 -3.1619  1.5498
    3MOL0     H  390   8.563   6.384   2.674 -0.3490  1.9320 -2.5928
    3MOL0     H  391   7.989   6.174   2.544  1.3597  0.4610  0.1347
    3MOL0     H  392   7.773   6.270   2.500 -0.6002  0.3336 -2.0159
    3MOL0     H  393   7.615   6.461   2.607 -0.3680  0.7401 -0.9073
    3MOL0     H  394   7.587   6.359   2.475  0.9482  0.1895 -2.3946
    3MOL0     H  395   7.422   6.529   2.373 -1.2457  0.2486 -0.1385
    3MOL0     H  396   7.497   6.658   2.459 -2.4930  0.0240 -1.9851
    3MOL0     H  397   7.425   6.575   2.674 -0.5056  1.5111 -0.4298
    3MOL0     H  398   7.348   6.435   2.613 -1.0800  0.3866  0.4034
    3MOL0     H  399   7.262   6.719   2.631 -1.5147  3.1579 -3.9325
    3MOL0     H  400   7.224   6.658   2.472  0.8443 -2.4572 -0.8744
    3MOL0     H  401   7.009   6.441   2.793 -1.5194 -1.1126 -2.7342
    3MOL0     H  402   7.947   6.638   2.388 -1.1672  0.6129  2.3467
    3MOL0     H  403   8.170   6.682   2.401 -3.2676 -1.1991  0.3998
    3MOL0     H  404   8.281   6.588   2.497  2.1961 -0.5107 -0.4180
    3MOL0     H  405   8.265   6.550   2.328  1.2422  0.5693  0.9850
    4MOL0     O  406   2.961   9.505  10.251  0.5332  0.7277  0.0707
    4MOL0     C  407   2.925   9.403  10.312 -0.3444 -1.1895  0.0358
    4MOL0     O  408   3.004   9.296  10.339 -0.6343  0.1825  0.5213
    4MOL0     C  409   3.139   9.296  10.295  0.8610  0.5476  0.3000
    4MOL0     C  410   3.177   9.322  10.164  0.3441  0.7422  0.4538
    4MOL0     C  411   3.310   9.337  10.124 -0.2068  0.0821 -0.1024
    4MOL0     C  412   3.413   9.327  10.213  0.1423  0.2612 -0.4877
    4MOL0     O  413   3.541   9.360  10.166  0.4333  0.2143  0.8221
    4MOL0     C  414   3.634   9.432  10.245  0.5587  0.9426 -0.0663
    4MOL0     C  415   3.688   9.548  10.173  0.5121 -0.0766 -0.5323
    4MOL0     C  416   3.612   9.687  10.189 -0.4378  0.2490  0.2987
    4MOL0     C  417   3.472   9.672  10.116 -0.1286 -1.0438  0.1690
    4MOL0     C  418   3.416   9.808  10.069  0.2123  0.2272  0.3258
    4MOL0     C  419   3.369   9.899  10.180 -0.5756  0.1186  0.0150
    4MOL0     C  420   3.252   9.845  10.264 -0.6536  0.4547 -0.1296
    4MOL0     C  421   3.187   9.957  10.350  0.0077  0.1721 -0.1898
    4MOL0     N  422   3.288  10.012  10.443  0.4213  0.0054 -0.0672
    4MOL0     C  423   3.353   9.954  10.543 -1.0889  0.2161  0.3307
    4MOL0     C  424   3.428  10.044  10.610  1.2784  0.3108  1.1916
    4MOL0     C  425   3.479  10.035  10.750 -0.1418 -0.2963  0.6330
    4MOL0     C  426   3.631  10.035  10.747 -0.4724 -0.4171  0.0176
    4MOL0     C  427   3.694  10.009  10.882  0.1585  0.5826  0.2703
    4MOL0     C  428   3.840  10.039  10.892  0.0218 -0.3146  0.3904
    4MOL0     O  429   3.910   9.999  10.769 -0.7203  0.3699  0.1658
    4MOL0     C  430   4.051  10.026  10.773 -0.5316 -0.6727  1.2610
    4MOL0     C  431   4.129   9.942  10.696  0.2324  0.0207 -0.3879
    4MOL0     C  432   4.271   9.946  10.707 -0.3484  0.2706  0.2834
    4MOL0     C  433   4.327  10.025  10.802  0.1356 -0.4949 -1.0458
    4MOL0     C  434   4.469  10.043  10.817 -0.1865 -0.4628 -0.0083
    4MOL0     O  435   4.546   9.944  10.773  0.2588 -0.3329  0.0883
    4MOL0     C  436   4.673   9.944  10.824 -0.3497  0.8377  0.4373
    4MOL0     C  437   4.783  10.020  10.780  0.6671 -0.8376  0.4059
    4MOL0     C  438   4.905  10.012  10.839  0.0646  0.0318 -0.2762
    4MOL0     C  439   4.932   9.919  10.938 -0.4041  0.7796  0.7097
    4MOL0     O  440   5.057   9.910  10.993 -0.7339 -1.2333  0.0539
    4MOL0     C  441   5.079   9.930  11.139  0.2820  0.2924  0.8688
    4MOL0     C  442   5.237   9.943  11.168 -0.3097  0.3083  0.1038
    4MOL0     C  443   5.295  10.078  11.123 -0.3218  0.3706 -0.1322
    4MOL0     C  444   5.444  10.081  11.156  0.3105  0.3419 -0.0091
    4MOL0     C  445   5.489  10.225  11.195 -0.7399 -0.6463 -0.1874
    4MOL0     C  446   5.641  10.246  11.209  0.1469 -0.2562 -0.3096
    4MOL0     C  447   5.686  10.215  11.357 -0.0018 -0.5495  0.2516
    4MOL0     C  448   5.830  10.255  11.378  0.1173 -0.3570  0.2425
    4MOL0    Cl  449   5.830  10.442  11.371  0.0967  0.0681 -0.0292
    4MOL0     C  450   4.821   9.841  10.994 -0.7091  0.4059 -0.0864
    4MOL0     C  451   4.692   9.851  10.931  0.1623 -0.3539 -0.2934
    4MOL0     O  452   4.513  10.142  10.873  0.8774 -0.7064 -0.4998
    4MOL0     C  453   4.246  10.112  10.881  0.6083 -0.1672  0.5909
    4MOL0     C  454   4.109  10.110  10.864  0.5874 -0.0894 -0.6013
    4MOL0     N  455   3.409  10.158  10.542 -0.7514 -0.7123  0.3446
    4MOL0     N  456   3.316  10.139  10.451 -0.8024 -0.7019  0.0088
    4MOL0     C  457   3.378   9.299  10.348  1.2987 -0.4445  0.2775
    4MOL0     C  458   3.241   9.282  10.386  0.2207  1.1862  0.8396
    4MOL0     C  459   2.785   9.389  10.360 -0.0963 -0.4829  0.3824
    4MOL0     C  460   2.763   9.330  10.480  0.6853  0.3420  0.0765
    4MOL0     C  461   2.635   9.323  10.532 -0.0164 -0.1541  0.3047
    4MOL0     C  462   2.522   9.371  10.465 -0.1148 -0.0628  0.3800
    4MOL0     O  463   2.397   9.361  10.525 -0.0988 -0.6214  0.4342
    4MOL0     C  464   2.280   9.414  10.462 -0.0340 -1.4927 -0.7094
    4MOL0     C  465   2.178   9.423  10.571 -0.1374 -0.2379 -0.0003
    4MOL0     C  466   2.043   9.475  10.525 -0.3496 -0.1304  0.3058
    4MOL0     C  467   1.954   9.521  10.641 -0.8637 -0.3506  0.0573
    4MOL0     C  468   1.812   9.505  10.607  0.2179  0.1620 -0.8450
    4MOL0     C  469   1.693   9.505  10.602  0.3196 -0.2522 -0.1340
    4MOL0     C  470   2.548   9.435  10.341 -0.0037 -0.1345 -0.5747
    4MOL0     C  471   2.677   9.447  10.295 -0.4371  0.7680  0.1710
    4MOL0     C  472   2.696   9.517  10.168  0.2233 -0.5973  0.3555
    4MOL0     H  473   3.097   9.321  10.092  1.4606 -2.1682 -0.9062
    4MOL0     H  474   3.344   9.373  10.028 -0.2723 -0.0426 -0.1732
    4MOL0     H  475   3.577   9.471  10.330  0.8914 -0.7037  0.9666
    4MOL0     H  476   3.711   9.362  10.278 -0.4842  0.0657  0.6178
    4MOL0     H  477   3.683   9.517  10.069 -2.6578 -1.3939 -0.1074
    4MOL0     H  478   3.790   9.581  10.199 -0.5300  3.6388 -0.5640
    4MOL0     H  479   3.658   9.768  10.131 -1.7519  1.2213  0.5642
    4MOL0     H  480   3.586   9.715  10.291 -1.0527 -0.6305  0.3879
    4MOL0     H  481   3.491   9.617  10.023  2.2607 -0.5713  0.3111
    4MOL0     H  482   3.405   9.617  10.181  0.4145 -1.1722  0.6232
    4MOL0     H  483   3.495   9.858  10.013 -0.7437  0.8997 -0.4646
    4MOL0     H  484   3.331   9.787  10.004  0.2701  0.0899  0.2945
    4MOL0     H  485   3.453   9.912  10.248 -1.4938 -1.2505  1.4953
    4MOL0     H  486   3.344   9.997  10.139  0.3015  0.4136  0.1726
    4MOL0     H  487   3.292   9.761  10.321  2.0230  0.7053 -1.4575
    4MOL0     H  488   3.184   9.802  10.190  0.9783  0.7181 -1.8604
    4MOL0     H  489   3.147  10.043  10.296  0.4323 -0.1940 -1.0937
    4MOL0     H  490   3.106   9.907  10.403 -0.1088 -2.3599 -2.5298
    4MOL0     H  491   3.327   9.856  10.580  1.7942 -0.5303  0.6150
    4MOL0     H  492   3.442  10.119  10.811 -2.0833  1.6762 -2.9170
    4MOL0     H  493   3.448   9.939  10.792  0.5615 -1.9410 -2.3300
    4MOL0     H  494   3.673   9.964  10.675  3.1340  0.3248  1.1692
    4MOL0     H  495   3.665  10.137  10.728 -1.0830 -0.4029 -1.1272
    4MOL0     H  496   3.675   9.902  10.896 -0.9184  0.8121  0.6773
    4MOL0     H  497   3.644  10.074  10.955 -0.2752 -0.8182  1.2684
    4MOL0     H  498   3.884   9.985  10.976 -0.2476 -1.5519 -0.2341
    4MOL0     H  499   3.863  10.145  10.906 -0.6697 -0.1322  0.2006
    4MOL0     H  500   4.076   9.871  10.632  0.3319 -1.6445  1.2762
    4MOL0     H  501   4.327   9.881  10.640  0.0654  0.1859  0.7083
    4MOL0     H  502   4.764  10.083  10.693  0.9125 -0.2160  0.7969
    4MOL0     H  503   4.992  10.074  10.818  1.4847 -1.7967 -0.0492
    4MOL0     H  504   5.022  10.015  11.177 -1.2559 -0.5452  0.5455
    4MOL0     H  505   5.049   9.835  11.184  1.8216  0.5951  2.6346
    4MOL0     H  506   5.239   9.940  11.278 -0.6490 -2.3583  0.0982
    4MOL0     H  507   5.292   9.858  11.127  0.7597  0.6134  0.8582
    4MOL0     H  508   5.270  10.087  11.017 -0.5247 -1.5428 -0.2675
    4MOL0     H  509   5.247  10.157  11.182  2.5047  1.0260  1.4197
    4MOL0     H  510   5.499  10.041  11.070 -0.6496 -2.5554  0.6164
    4MOL0     H  511   5.464  10.017  11.242  1.6754  0.7792  0.0121
    4MOL0     H  512   5.434  10.266  11.280  0.3289  3.0393 -1.0944
    4MOL0     H  513   5.458  10.289  11.113 -0.0188 -0.8432 -0.6286
    4MOL0     H  514   5.701  10.194  11.134  1.9345  0.9330  0.2229
    4MOL0     H  515   5.657  10.353  11.192 -3.2076  0.3313 -0.4011
    4MOL0     H  516   5.667  10.108  11.368 -1.7742 -0.1050  2.1048
    4MOL0     H  517   5.641  10.277  11.435  2.9849  1.3763  0.5958
    4MOL0     H  518   5.866  10.224  11.476  0.0395  1.6623  0.9589
    4MOL0     H  519   5.887  10.207  11.298 -2.0042 -1.2557 -0.8038
    4MOL0     H  520   4.848   9.773  11.074  0.9181  1.3467  0.1980
    4MOL0     H  521   4.607   9.786  10.945 -0.0396  0.3419  2.2262
    4MOL0     H  522   4.293  10.182  10.949  0.6745 -0.9111  1.3229
    4MOL0     H  523   4.045  10.181  10.916  0.5006 -1.5847  1.4554
    4MOL0     H  524   3.451   9.304  10.428  1.8745  0.9736 -0.2978
    4MOL0     H  525   3.207   9.270  10.488 -0.5684  0.1223  0.4747
    4MOL0     H  526   2.844   9.283  10.534 -0.8632  0.2481  2.4995
    4MOL0     H  527   2.616   9.273  10.626  2.4440  0.2658  1.0820
    4MOL0     H  528   2.241   9.348  10.384 -2.1175 -2.3769  0.9782
    4MOL0     H  529   2.298   9.514  10.420  0.5502 -0.8099  1.0912
    4MOL0     H  530   2.218   9.488  10.649  1.2854 -0.5241 -0.4625
    4MOL0     H  531   2.164   9.319  10.605 -0.3866 -0.5270 -0.9623
    4MOL0     H  532   1.979   9.393  10.489 -0.7449  0.1043  0.4676
    4MOL0     H  533   2.057   9.552  10.449 -1.0754 -0.4540 -0.1787
    4MOL0     H  534   1.980   9.454  10.723 -2.1971 -1.4822 -0.4067
    4MOL0     H  535   1.981   9.624  10.665 -0.1682 -0.6743  0.7248
    4MOL0     H  536   1.588   9.483  10.603  0.1555  0.3824 -1.4376
    4MOL0     H  537   2.465   9.473  10.282  0.9305  2.6141 -0.2997
    4MOL0     H  538   2.767   9.469  10.101  0.0314  2.6324 -2.4676
    4MOL0     H  539   2.599   9.523  10.118  0.4110  0.2141  0.0739
    4MOL0     H  540   2.743   9.616  10.176  1.4329 -1.2524  1.7584
    5MOL0     O  541   8.279  10.222   4.397 -0.0789  0.2309  0.0225
    5MOL0     C  542   8.261  10.171   4.284 -0.0034  0.4293 -0.2016
    5MOL0     O  543   8.339  10.201   4.172 -0.2700 -0.0748  0.2479
    5MOL0     C  544   8.432  10.304   4.170 -0.2661 -0.3550 -0.6610
    5MOL0     C  545   8.445  10.391   4.065 -0.4239  0.0898  0.4799
    5MOL0     C  546   8.533  10.499   4.055 -0.3264  0.8649  0.1433
    5MOL0     C  547   8.638  10.513   4.150 -0.1547  0.9755 -0.2419
    5MOL0     O  548   8.738  10.612   4.139 -0.4003  0.2494 -0.4706
    5MOL0     C  549   8.874  10.570   4.165 -0.9249 -0.1217 -0.3425
    5MOL0     C  550   8.981  10.651   4.085 -0.2217 -0.4129  0.3298
    5MOL0     C  551   8.958  10.643   3.933 -0.0128  0.1747  0.7179
    5MOL0     C  552   9.064  10.706   3.845  0.1106  1.1107 -0.0803
    5MOL0     C  553   9.075  10.635   3.711 -0.0718 -0.0690  0.9930
    5MOL0     C  554   9.200  10.685   3.641 -0.2557 -0.1257  0.4416
    5MOL0     C  555   9.208  10.653   3.488 -0.4256  0.8083 -0.3160
    5MOL0     C  556   9.345  10.715   3.429  0.6039  0.2715 -0.1044
    5MOL0     N  557   9.353  10.676   3.292 -0.0249 -0.4770 -0.8022
    5MOL0     C  558   9.422  10.570   3.245 -0.4398  0.5996  0.5670
    5MOL0     C  559   9.397  10.564   3.112 -0.6378  0.2266  0.5386
    5MOL0     C  560   9.461  10.480   2.993  0.7149  0.1280 -0.6824
    5MOL0     C  561   9.606  10.522   2.979 -1.1886  0.5889 -0.6269
    5MOL0     C  562   9.676  10.456   2.861 -0.0317  0.3984  0.2196
    5MOL0     C  563   9.814  10.500   2.840 -0.6992  0.6775  0.0308
    5MOL0     O  564   9.894  10.459   2.950 -0.2200  0.1678 -0.7164
    5MOL0     C  565  10.029  10.453   2.935  0.5504 -0.9101  0.6267
    5MOL0     C  566  10.102  10.463   2.808 -1.0008 -0.4347 -0.1179
    5MOL0     C  567  10.242  10.445   2.816 -0.1734  0.2319  0.0461
    5MOL0     C  568  10.314  10.423   2.933  0.8182 -0.1920  1.1393
    5MOL0     C  569  10.452  10.378   2.923 -1.2531 -0.1855 -0.0406
    5MOL0     O  570  10.527  10.345   3.035  0.1311 -0.5161 -0.0492
    5MOL0     C  571  10.661  10.340   3.015 -0.5036 -0.0510  0.3544
    5MOL0     C  572  10.743  10.442   3.054  0.4454  0.5513  0.2412
    5MOL0     C  573  10.884  10.430   3.025  0.4975 -0.2251 -0.0967
    5MOL0     C  574  10.936  10.319   2.968  0.4019 -0.3693 -0.0047
    5MOL0     O  575  11.072  10.318   2.959 -0.2290  0.1713 -0.3123
    5MOL0     C  576  11.129  10.233   2.865 -0.4774 -0.9243 -0.8488
    5MOL0     C  577  11.270  10.269   2.852  0.3866 -0.4997 -0.2501
    5MOL0     C  578  11.325  10.219   2.715 -0.5679 -0.1950  0.1336
    5MOL0     C  579  11.478  10.237   2.710 -0.2369  0.5584 -0.1591
    5MOL0     C  580  11.544  10.196   2.576  0.4173  0.8447 -0.1535
    5MOL0     C  581  11.695  10.212   2.561  0.0149  0.5791  0.4355
    5MOL0     C  582  11.772  10.168   2.686  0.5858 -0.2799 -0.4535
    5MOL0     C  583  11.920  10.182   2.654  0.6832 -0.1137 -0.0434
    5MOL0    Cl  584  12.025  10.116   2.785 -0.0181 -0.1853  0.1316
    5MOL0     C  585  10.849  10.223   2.918 -0.0069 -0.2939 -0.3303
    5MOL0     C  586  10.711  10.231   2.950 -0.3669  0.0322  0.1067
    5MOL0     O  587  10.496  10.364   2.807 -0.0912  0.1377 -0.4799
    5MOL0     C  588  10.240  10.422   3.052  0.5553  0.7781 -0.5033
    5MOL0     C  589  10.098  10.433   3.052  0.0084 -0.3338  0.6331
    5MOL0     N  590   9.326  10.679   3.072 -0.4975  0.1078  0.7689
    5MOL0     N  591   9.300  10.737   3.182  0.5755  0.5508  0.4247
    5MOL0     C  592   8.634  10.427   4.261 -0.4610  0.2674  0.0977
    5MOL0     C  593   8.531  10.327   4.275 -0.2975  0.3630  0.1775
    5MOL0     C  594   8.161  10.059   4.261  0.4550  0.1020 -0.9664
    5MOL0     C  595   8.181   9.984   4.145 -0.0853 -0.2340  0.3222
    5MOL0     C  596   8.088   9.881   4.115  0.1460 -0.5388 -0.6706
    5MOL0     C  597   7.976   9.872   4.193  0.0246  0.8937 -0.7290
    5MOL0     O  598   7.880   9.771   4.179 -0.5283 -0.7403  0.2267
    5MOL0     C  599   7.885   9.680   4.064 -0.3765 -0.5842 -0.4252
    5MOL0     C  600   7.787   9.558   4.078 -0.9201 -0.2523  0.0270
    5MOL0     C  601   7.642   9.607   4.077  0.4253 -0.4543 -0.2020
    5MOL0     C  602   7.534   9.495   4.080 -0.0851 -0.8765 -0.7979
    5MOL0     C  603   7.531   9.443   3.949 -0.1666  0.4300 -0.1429
    5MOL0     C  604   7.524   9.385   3.843  0.4545 -0.1798 -0.2791
    5MOL0     C  605   7.962   9.944   4.311 -0.2205  0.0948  0.0547
    5MOL0     C  606   8.055  10.037   4.355 -0.1038  0.1878 -0.2138
    5MOL0     C  607   8.038  10.108   4.486  0.1090 -0.0662 -0.2448
    5MOL0     H  608   8.369  10.375   3.990 -1.2171  0.9211  1.0859
    5MOL0     H  609   8.524  10.566   3.970 -3.4231  1.1736  0.5959
    5MOL0     H  610   8.910  10.576   4.268  1.2491 -0.6820 -1.0185
    5MOL0     H  611   8.892  10.467   4.134  0.2751  0.1174 -0.4967
    5MOL0     H  612   9.086  10.621   4.100 -0.2475 -0.4567  0.4284
    5MOL0     H  613   8.972  10.753   4.124 -1.6121  0.0825 -1.2016
    5MOL0     H  614   8.856  10.676   3.911 -0.7654 -2.6950 -0.6448
    5MOL0     H  615   8.957  10.537   3.905  2.0461  0.4161 -0.5215
    5MOL0     H  616   9.036  10.811   3.833 -2.3033  0.2878 -2.8490
    5MOL0     H  617   9.163  10.705   3.893  0.1182  0.5627 -0.0975
    5MOL0     H  618   9.099  10.529   3.726 -0.1578 -0.3457 -0.6441
    5MOL0     H  619   8.990  10.646   3.643  2.0905  7.5995 -1.4971
    5MOL0     H  620   9.206  10.794   3.653  3.1627 -0.4732  3.8754
    5MOL0     H  621   9.280  10.637   3.699 -1.9056 -0.4759  2.5445
    5MOL0     H  622   9.124  10.705   3.440 -1.4273  0.7714  1.3220
    5MOL0     H  623   9.209  10.545   3.470  1.2751  0.3409  2.0673
    5MOL0     H  624   9.349  10.825   3.431  0.9368  0.3013 -1.4324
    5MOL0     H  625   9.423  10.670   3.491 -1.4579 -1.4719  1.3364
    5MOL0     H  626   9.494  10.504   3.292  0.1130  1.5348  1.0583
    5MOL0     H  627   9.446  10.379   3.033 -1.5097  0.9179  0.6695
    5MOL0     H  628   9.407  10.489   2.898  1.3059 -0.7687 -1.1164
    5MOL0     H  629   9.613  10.630   2.961  1.8596  0.4194 -0.8175
    5MOL0     H  630   9.662  10.488   3.066 -1.9825 -0.2405 -0.4202
    5MOL0     H  631   9.618  10.484   2.772 -1.3945  0.2966  1.0441
    5MOL0     H  632   9.668  10.347   2.874 -1.5602  0.1157 -2.3379
    5MOL0     H  633   9.815  10.609   2.833  0.4445  0.6945  0.1581
    5MOL0     H  634   9.847  10.463   2.743 -1.7956 -0.9273  0.2379
    5MOL0     H  635  10.052  10.484   2.713 -0.6251  1.0142 -0.0214
    5MOL0     H  636  10.291  10.447   2.719 -0.7335 -1.2688 -0.3061
    5MOL0     H  637  10.707  10.530   3.106  1.8988  1.8874 -0.8841
    5MOL0     H  638  10.946  10.515   3.056  0.5517  0.7319 -2.5731
    5MOL0     H  639  11.121  10.126   2.889 -2.8021 -0.7646 -0.6584
    5MOL0     H  640  11.089  10.251   2.765 -0.1817 -0.5756 -0.9035
    5MOL0     H  641  11.277  10.378   2.861 -0.0778 -0.4236 -0.7538
    5MOL0     H  642  11.326  10.229   2.937  0.0843 -2.8227 -1.0714
    5MOL0     H  643  11.300  10.112   2.718 -1.4921  0.0287  2.2664
    5MOL0     H  644  11.281  10.275   2.632 -0.3549  0.0077  0.1561
    5MOL0     H  645  11.515  10.173   2.791  1.9971 -1.5447 -2.6443
    5MOL0     H  646  11.511  10.339   2.727  1.7312 -0.4268  2.6885
    5MOL0     H  647  11.504  10.240   2.484 -0.4520  1.4895  0.5213
    5MOL0     H  648  11.521  10.093   2.549 -0.9079  1.6869 -2.6562
    5MOL0     H  649  11.713  10.150   2.473 -0.0146 -1.4551  1.7912
    5MOL0     H  650  11.723  10.314   2.535 -0.5312  0.5479 -0.2952
    5MOL0     H  651  11.765  10.064   2.720 -1.2099 -0.2345 -0.5436
    5MOL0     H  652  11.744  10.220   2.778 -2.5110 -1.5171 -0.5522
    5MOL0     H  653  11.942  10.131   2.560  0.6369 -1.0901  0.4617
    5MOL0     H  654  11.945  10.287   2.635  0.9201 -0.2611 -0.5480
    5MOL0     H  655  10.886  10.134   2.868  0.4354 -0.1867 -0.1999
    5MOL0     H  656  10.638  10.165   2.904 -1.9885  0.0519  2.5037
    5MOL0     H  657  10.288  10.397   3.146  0.3079 -2.1510 -1.0506
    5MOL0     H  658  10.039  10.418   3.142  0.9482 -1.0631  1.1475
    5MOL0     H  659   8.710  10.430   4.338 -1.0933  1.4077  0.7091
    5MOL0     H  660   8.524  10.277   4.371 -1.9050  0.4236  0.1172
    5MOL0     H  661   8.261   9.995   4.072 -0.0394  0.9133  0.5293
    5MOL0     H  662   8.099   9.821   4.025 -2.7265  1.4727 -2.5484
    5MOL0     H  663   7.987   9.643   4.051 -0.0643  0.0897  0.1117
    5MOL0     H  664   7.871   9.743   3.975  1.8058  3.8717  2.0722
    5MOL0     H  665   7.812   9.516   4.176 -2.5806 -1.7886 -0.1422
    5MOL0     H  666   7.807   9.492   3.994 -4.6349  1.5622 -2.5955
    5MOL0     H  667   7.623   9.668   3.988  1.4745  1.4567  0.7951
    5MOL0     H  668   7.617   9.673   4.161  0.2287  1.6572 -1.8401
    5MOL0     H  669   7.562   9.410   4.142  1.2082 -0.2089 -0.4322
    5MOL0     H  670   7.436   9.536   4.106  0.9068  2.2841 -1.5541
    5MOL0     H  671   7.518   9.341   3.745 -1.5726 -2.7771  0.8907
    5MOL0     H  672   7.877   9.924   4.377 -0.0179  0.7440  0.5214
    5MOL0     H  673   8.013  10.209   4.452 -1.1563 -0.8209 -1.7300
    5MOL0     H  674   7.957  10.072   4.550  1.3743 -1.4311  0.6361
    5MOL0     H  675   8.136  10.103   4.533  2.0648  0.1100 -3.8868
    6MOL0     O  676   1.623   8.635   9.445  0.3885 -0.5077  0.0272
    6MOL0     C  677   1.625   8.709   9.341 -0.5957 -0.5039 -0.7200
    6MOL0     O  678   1.724   8.694   9.246 -0.2730  0.5077  0.6996
    6MOL0     C  679   1.831   8.615   9.274 -0.3005 -0.2833  0.0146
    6MOL0     C  680   1.913   8.626   9.387  0.7848 -0.0401  0.0316
    6MOL0     C  681   2.026   8.543   9.404 -0.6128 -0.0235 -0.4277
    6MOL0     C  682   2.059   8.454   9.296 -0.6125 -0.3716 -0.2181
    6MOL0     O  683   2.178   8.384   9.306 -0.4027  0.4797  0.4496
    6MOL0     C  684   2.236   8.314   9.194  0.2995 -0.0409 -0.4578
    6MOL0     C  685   2.376   8.265   9.240  0.6270  0.0450 -0.0501
    6MOL0     C  686   2.438   8.181   9.133  0.2720 -0.6646 -0.5652
    6MOL0     C  687   2.576   8.127   9.172  0.0256 -0.3238 -0.6522
    6MOL0     C  688   2.665   8.099   9.053  0.1323  0.3829 -0.2104
    6MOL0     C  689   2.782   8.027   9.108 -0.3682  0.1465 -0.2036
    6MOL0     C  690   2.870   7.985   8.992 -0.6391 -0.1186 -0.5550
    6MOL0     C  691   2.999   7.951   9.063  0.1410  0.0202 -0.4609
    6MOL0     N  692   3.087   7.873   8.966  0.7679 -0.1247 -1.0092
    6MOL0     C  693   3.225   7.865   8.988  0.1324  0.0738  0.2327
    6MOL0     C  694   3.263   7.747   8.931 -0.4342  0.4155  0.3898
    6MOL0     C  695   3.413   7.705   8.922  0.7428 -0.2748  0.4753
    6MOL0     C  696   3.496   7.769   8.812  0.6091  0.4309 -0.4723
    6MOL0     C  697   3.627   7.694   8.796  0.0740 -0.2783  0.2567
    6MOL0     C  698   3.746   7.776   8.744 -0.0813  0.3192  0.0967
    6MOL0     O  699   3.857   7.682   8.759 -0.2207  0.1404  0.2083
    6MOL0     C  700   3.986   7.736   8.771  0.4893 -0.3082  0.7440
    6MOL0     C  701   4.026   7.847   8.695 -0.3415 -0.8868 -0.2674
    6MOL0     C  702   4.159   7.897   8.695 -0.1200  0.4471 -0.7512
    6MOL0     C  703   4.249   7.835   8.777 -0.1158  1.1920  0.2747
    6MOL0     C  704   4.391   7.868   8.763 -0.1373  0.6280 -0.1260
    6MOL0     O  705   4.475   7.819   8.860 -0.3247  0.0437  0.0216
    6MOL0     C  706   4.606   7.859   8.868 -0.4164  0.3401  0.0146
    6MOL0     C  707   4.719   7.774   8.854 -0.1277  0.2567  0.5412
    6MOL0     C  708   4.844   7.829   8.873 -0.3395 -0.1689 -0.4123
    6MOL0     C  709   4.867   7.962   8.895  0.2022 -0.3362  1.2016
    6MOL0     O  710   4.996   8.012   8.907 -0.1673 -0.2052  0.0241
    6MOL0     C  711   5.016   8.115   9.004 -0.8119 -0.1861  0.5615
    6MOL0     C  712   5.167   8.140   9.018  0.5474 -0.0958 -0.2130
    6MOL0     C  713   5.195   8.217   9.138  0.5177  0.3975 -0.8592
    6MOL0     C  714   5.334   8.270   9.150 -0.1338 -0.0743  0.8632
    6MOL0     C  715   5.356   8.342   9.280  0.5756 -0.0788 -0.5409
    6MOL0     C  716   5.499   8.378   9.296 -0.4703  0.0945 -0.1036
    6MOL0     C  717   5.580   8.266   9.371 -0.2488  0.0042  0.3116
    6MOL0     C  718   5.699   8.330   9.436  0.0677  0.1057 -0.6907
    6MOL0    Cl  719   5.823   8.398   9.329 -0.1027  0.3282  0.5203
    6MOL0     C  720   4.758   8.045   8.901  0.6581  0.4260 -0.0038
    6MOL0     C  721   4.631   7.996   8.896  0.0184 -0.9523 -0.4449
    6MOL0     O  722   4.423   7.935   8.669  0.3766 -0.1514 -0.1744
    6MOL0     C  723   4.202   7.725   8.853 -0.7741 -0.2833 -0.4585
    6MOL0     C  724   4.082   7.666   8.851  0.3283 -0.0032 -0.5821
    6MOL0     N  725   3.150   7.675   8.891 -0.3436  0.2968 -0.0547
    6MOL0     N  726   3.051   7.753   8.906 -0.6660  0.0712  0.1095
    6MOL0     C  727   1.981   8.452   9.180  0.4276  1.0927  0.4922
    6MOL0     C  728   1.867   8.531   9.170  0.6369 -0.0879 -0.5004
    6MOL0     C  729   1.532   8.822   9.339 -0.0643  0.0144  0.2587
    6MOL0     C  730   1.429   8.832   9.425  0.3650  0.3396  0.6722
    6MOL0     C  731   1.317   8.916   9.407  0.5966  0.6384  0.3916
    6MOL0     C  732   1.304   9.003   9.300 -1.6381 -0.3075  0.6181
    6MOL0     O  733   1.194   9.089   9.291 -0.4138  0.4997  0.3230
    6MOL0     C  734   1.158   9.166   9.174  0.6531 -0.8568  0.7243
    6MOL0     C  735   1.013   9.216   9.189  0.8614 -0.3132  0.0637
    6MOL0     C  736   0.991   9.284   9.321 -0.0348  0.0008 -0.0181
    6MOL0     C  737   0.903   9.407   9.314 -0.2043 -0.1155 -0.1619
    6MOL0     C  738   0.936   9.475   9.443 -0.0873 -0.3855 -0.5143
    6MOL0     C  739   0.979   9.538   9.535  0.0722  0.1049 -0.3483
    6MOL0     C  740   1.427   9.009   9.216  0.5542  0.0974  0.2659
    6MOL0     C  741   1.532   8.920   9.232  0.4675  0.0721 -0.6537
    6MOL0     C  742   1.635   8.929   9.122 -0.2590  0.5105  0.4678
    6MOL0     H  743   1.886   8.696   9.466  1.8045  1.4166 -0.8818
    6MOL0     H  744   2.094   8.543   9.488 -0.3839  0.7186 -0.6060
    6MOL0     H  745   2.177   8.227   9.161  1.1530 -1.8045  2.2691
    6MOL0     H  746   2.238   8.382   9.108 -1.0345 -1.0566 -1.3354
    6MOL0     H  747   2.365   8.201   9.328 -1.7165  1.0506  0.4633
    6MOL0     H  748   2.439   8.350   9.267  1.6806 -0.4595 -0.8580
    6MOL0     H  749   2.440   8.242   9.042 -0.5287 -0.7762 -0.6728
    6MOL0     H  750   2.367   8.100   9.111 -0.5398 -1.0825  2.9540
    6MOL0     H  751   2.622   8.192   9.247  0.8928  1.2505 -2.4755
    6MOL0     H  752   2.559   8.031   9.221  0.9395  1.6247  4.0364
    6MOL0     H  753   2.621   8.022   8.989  1.0844 -1.9905  1.7915
    6MOL0     H  754   2.697   8.193   9.007  1.0734  0.9971  1.6028
    6MOL0     H  755   2.842   8.097   9.167 -0.8493  0.6811 -0.3317
    6MOL0     H  756   2.748   7.940   9.166  1.5765 -1.1329 -0.8858
    6MOL0     H  757   2.886   8.062   8.917  3.7594  0.3453  0.5786
    6MOL0     H  758   2.831   7.904   8.931  0.7681  0.2308 -1.9905
    6MOL0     H  759   3.050   8.046   9.085 -1.0076  0.7374 -0.8413
    6MOL0     H  760   2.979   7.891   9.152 -0.4786  0.6110 -0.1935
    6MOL0     H  761   3.290   7.942   9.028  0.1783  0.0158  0.2704
    6MOL0     H  762   3.461   7.727   9.018  2.3409 -0.2904 -0.2869
    6MOL0     H  763   3.418   7.596   8.914 -0.5599 -0.5110  2.3529
    6MOL0     H  764   3.436   7.759   8.721  1.2631 -1.3968 -0.7573
    6MOL0     H  765   3.501   7.874   8.840 -2.7183  0.8762 -1.1383
    6MOL0     H  766   3.616   7.609   8.728  1.5778 -1.0484  0.9391
    6MOL0     H  767   3.659   7.646   8.889 -0.8883  0.5262  1.0172
    6MOL0     H  768   3.768   7.868   8.798  2.2534 -0.6520  0.9279
    6MOL0     H  769   3.724   7.796   8.638  0.7788  0.0124 -0.1488
    6MOL0     H  770   3.949   7.891   8.633 -1.2239  1.0606  2.0420
    6MOL0     H  771   4.180   7.974   8.621 -0.9002  1.2931 -0.1158
    6MOL0     H  772   4.710   7.666   8.846  2.1403 -0.0742  1.5293
    6MOL0     H  773   4.931   7.765   8.874 -0.5145 -0.4430 -1.5226
    6MOL0     H  774   4.975   8.208   8.963  0.2437  1.4239  2.9159
    6MOL0     H  775   4.963   8.080   9.094 -2.2113 -1.6817 -0.7799
    6MOL0     H  776   5.213   8.041   9.018 -1.4244 -1.0915 -2.1623
    6MOL0     H  777   5.208   8.196   8.934  0.2860 -0.3565 -0.5208
    6MOL0     H  778   5.137   8.310   9.131 -0.4876 -0.1624 -0.1893
    6MOL0     H  779   5.170   8.167   9.232  1.2646 -0.4597 -1.1042
    6MOL0     H  780   5.359   8.337   9.067  0.4893 -0.7381  0.4985
    6MOL0     H  781   5.405   8.187   9.136 -1.1182 -0.5222 -2.2739
    6MOL0     H  782   5.320   8.281   9.364 -0.3688  1.3021  0.0842
    6MOL0     H  783   5.301   8.436   9.283  0.7806  0.0302 -0.2090
    6MOL0     H  784   5.537   8.400   9.196 -1.5625 -2.7086 -1.2610
    6MOL0     H  785   5.501   8.466   9.360 -1.7773  0.1080 -0.0519
    6MOL0     H  786   5.602   8.183   9.304  0.3046 -1.7815  2.5732
    6MOL0     H  787   5.520   8.223   9.452  1.2541 -2.9599 -0.0290
    6MOL0     H  788   5.668   8.416   9.496  0.6368  0.9514 -1.5865
    6MOL0     H  789   5.741   8.260   9.509 -0.1175  1.0660  0.3819
    6MOL0     H  790   4.763   8.152   8.884  0.3782  0.9353  2.6065
    6MOL0     H  791   4.548   8.066   8.900 -0.6824 -1.7433 -0.9043
    6MOL0     H  792   4.268   7.669   8.918 -3.9179 -2.1434  1.4149
    6MOL0     H  793   4.065   7.571   8.898 -0.2305 -0.0140 -0.8001
    6MOL0     H  794   2.003   8.387   9.095  1.5669  1.4370  0.5096
    6MOL0     H  795   1.803   8.532   9.083 -1.5785  1.2004  1.0138
    6MOL0     H  796   1.416   8.760   9.505 -2.1745  0.6283  0.6269
    6MOL0     H  797   1.242   8.915   9.485  1.1954  0.8510  0.9823
    6MOL0     H  798   1.165   9.101   9.086  0.4743 -0.5168  0.4549
    6MOL0     H  799   1.224   9.252   9.159 -1.4568  1.0472  1.7105
    6MOL0     H  800   0.938   9.137   9.177 -3.4133  3.3874 -0.4114
    6MOL0     H  801   0.998   9.288   9.108 -0.7654 -1.0844 -0.3763
    6MOL0     H  802   1.089   9.311   9.362  0.2762 -2.6621  1.2556
    6MOL0     H  803   0.938   9.214   9.387  1.4114 -0.4746  0.6971
    6MOL0     H  804   0.930   9.472   9.231  1.0578 -0.5689 -0.1332
    6MOL0     H  805   0.799   9.373   9.314  0.4808 -2.5043  1.0699
    6MOL0     H  806   1.000   9.585   9.629  1.3805 -1.6206  0.2693
    6MOL0     H  807   1.429   9.072   9.127 -2.0641 -0.0622 -0.0027
    6MOL0     H  808   1.629   9.026   9.072 -5.2104 -0.2994 -1.0542
    6MOL0     H  809   1.739   8.916   9.153 -0.3114 -0.0616  0.4250
    6MOL0     H  810   1.609   8.858   9.043  0.6029  0.9242 -0.2073
    7MOL0     O  811   3.322   4.576   3.916 -0.8276 -0.1948 -0.7206
    7MOL0     C  812   3.301   4.506   4.011  1.0538  0.0874 -0.4278
    7MOL0     O  813   3.366   4.391   4.033 -0.0132 -0.0498 -1.1661
    7MOL0     C  814   3.475   4.356   3.953 -0.7894 -0.0307 -1.3317
    7MOL0     C  815   3.496   4.220   3.940  0.5138  0.1733  0.0841
    7MOL0     C  816   3.605   4.164   3.869  0.3839 -0.2016 -0.6571
    7MOL0     C  817   3.705   4.257   3.818  0.1000  0.4772 -0.3186
    7MOL0     O  818   3.815   4.216   3.748  0.0116  0.2731  0.9307
    7MOL0     C  819   3.862   4.078   3.766 -0.2006 -0.5995 -0.1453
    7MOL0     C  820   4.019   4.083   3.745  0.1869  0.4544 -0.5559
    7MOL0     C  821   4.108   4.159   3.836  0.8310 -0.0011  0.7640
    7MOL0     C  822   4.246   4.091   3.855  0.1109 -0.3431  1.0514
    7MOL0     C  823   4.356   4.199   3.876 -0.4563  0.7609  0.7770
    7MOL0     C  824   4.487   4.140   3.854 -0.7266  0.7446 -0.3367
    7MOL0     C  825   4.592   4.256   3.868  0.3869 -0.1519 -0.2875
    7MOL0     C  826   4.731   4.190   3.848  0.6267  0.6521 -0.0641
    7MOL0     N  827   4.852   4.275   3.866  0.2961  0.2832  0.8359
    7MOL0     C  828   4.849   4.410   3.872  0.4346  0.3068  0.2176
    7MOL0     C  829   4.981   4.440   3.867 -0.6584 -0.7071  0.1909
    7MOL0     C  830   5.038   4.577   3.872  0.1958  0.4625  0.5382
    7MOL0     C  831   5.178   4.582   3.928  0.9380 -0.7123 -0.0151
    7MOL0     C  832   5.283   4.527   3.831 -0.5426 -0.1066  0.1920
    7MOL0     C  833   5.430   4.565   3.873  0.7376 -0.2341 -0.5314
    7MOL0     O  834   5.447   4.701   3.838  0.2852  0.0361  0.0347
    7MOL0     C  835   5.579   4.747   3.845  1.1499  0.4700 -0.4712
    7MOL0     C  836   5.595   4.880   3.811 -0.4368 -0.0130  0.0330
    7MOL0     C  837   5.725   4.938   3.835  0.1983  0.1866 -0.9628
    7MOL0     C  838   5.840   4.863   3.867  0.7982 -0.8811 -1.5932
    7MOL0     C  839   5.968   4.930   3.876 -0.3163  0.0785  0.5121
    7MOL0     O  840   5.983   5.063   3.821 -0.1309 -0.1605 -0.7464
    7MOL0     C  841   6.111   5.113   3.810 -0.0688  0.5206 -0.1055
    7MOL0     C  842   6.196   5.151   3.917  1.1759  1.5566  0.3616
    7MOL0     C  843   6.320   5.202   3.890  1.0235  0.3668 -0.2513
    7MOL0     C  844   6.367   5.211   3.758  0.6734  0.2744  0.1161
    7MOL0     O  845   6.483   5.261   3.716  0.2357  0.3703 -0.2465
    7MOL0     C  846   6.578   5.267   3.820 -0.5354 -0.0121  0.4738
    7MOL0     C  847   6.713   5.285   3.761  0.2742 -0.2338  1.1825
    7MOL0     C  848   6.818   5.296   3.868 -0.3060  0.7323 -0.1088
    7MOL0     C  849   6.886   5.159   3.893 -0.0791 -0.9041  0.2449
    7MOL0     C  850   7.018   5.167   3.973  0.8799  0.1514 -0.2369
    7MOL0     C  851   7.105   5.054   3.948 -0.4611  0.3787 -0.0101
    7MOL0     C  852   7.227   5.031   4.039  0.0464  0.4881  0.7629
    7MOL0     C  853   7.310   5.157   4.050  0.9178 -0.3624 -0.0887
    7MOL0    Cl  854   7.389   5.186   3.892  0.2581  0.0209 -0.3324
    7MOL0     C  855   6.275   5.181   3.656  0.1664  0.2817  0.7197
    7MOL0     C  856   6.153   5.122   3.683  0.2298 -0.0987  0.3518
    7MOL0     O  857   6.063   4.868   3.919  0.4961  0.1256  0.4251
    7MOL0     C  858   5.818   4.731   3.894  0.0231  0.5592  0.0726
    7MOL0     C  859   5.695   4.673   3.894  0.3505 -0.3607  0.2624
    7MOL0     N  860   5.056   4.322   3.875 -0.5822 -0.3010 -0.2152
    7MOL0     N  861   4.976   4.222   3.875 -0.0029 -0.9845  0.5406
    7MOL0     C  862   3.692   4.392   3.841 -0.3536 -0.6268 -0.0366
    7MOL0     C  863   3.573   4.438   3.904 -0.2493 -0.0335 -0.4711
    7MOL0     C  864   3.194   4.544   4.116 -0.6609  0.5610 -0.7700
    7MOL0     C  865   3.216   4.520   4.255  0.2400  0.8671  0.1223
    7MOL0     C  866   3.120   4.562   4.348  0.3885  0.8754  0.4457
    7MOL0     C  867   2.996   4.611   4.318 -0.1864 -0.2948 -0.0330
    7MOL0     O  868   2.919   4.656   4.423 -0.2640  0.3285 -0.2992
    7MOL0     C  869   2.776   4.666   4.413  0.0843 -0.0522 -0.4568
    7MOL0     C  870   2.711   4.736   4.533 -0.4349  0.8487 -0.6340
    7MOL0     C  871   2.794   4.850   4.585 -0.0587 -0.8653 -0.1566
    7MOL0     C  872   2.721   4.922   4.707  0.6957 -0.0706  0.0828
    7MOL0     C  873   2.623   5.011   4.657  0.4314 -0.1761  0.1871
    7MOL0     C  874   2.532   5.088   4.635 -0.1000 -0.3058  0.4093
    7MOL0     C  875   2.974   4.638   4.178 -0.3971  0.5048  0.3628
    7MOL0     C  876   3.073   4.615   4.082  0.2241  0.4085  0.1580
    7MOL0     C  877   3.049   4.660   3.938  0.0849 -0.3955  0.5028
    7MOL0     H  878   3.417   4.155   3.977 -0.9764  1.1796 -1.2182
    7MOL0     H  879   3.597   4.060   3.837 -0.1238 -0.6496  0.8521
    7MOL0     H  880   3.840   4.061   3.871  1.0442  0.8291  0.3961
    7MOL0     H  881   3.811   4.009   3.699 -0.9210  0.4348 -0.6977
    7MOL0     H  882   4.027   4.130   3.646  0.9937 -0.8578 -1.1399
    7MOL0     H  883   4.054   3.979   3.749 -0.5959  0.2140  0.1757
    7MOL0     H  884   4.066   4.156   3.937  0.3904  0.3274  0.5913
    7MOL0     H  885   4.114   4.265   3.810  0.3316 -0.6841 -2.6009
    7MOL0     H  886   4.258   4.019   3.936 -0.2950 -0.8821  0.6387
    7MOL0     H  887   4.267   4.045   3.758 -1.5078  1.4001 -0.2053
    7MOL0     H  888   4.347   4.285   3.809 -2.2584 -0.4056 -0.5908
    7MOL0     H  889   4.348   4.229   3.981 -0.2640 -2.5335  1.8540
    7MOL0     H  890   4.515   4.070   3.933 -0.8821 -0.6517 -1.4765
    7MOL0     H  891   4.493   4.091   3.756 -2.2169  0.1294 -0.1602
    7MOL0     H  892   4.576   4.302   3.966 -0.4213  0.1266 -0.5432
    7MOL0     H  893   4.574   4.338   3.798  1.8427 -1.7058 -2.6056
    7MOL0     H  894   4.739   4.107   3.920  3.4412  0.0287 -0.9447
    7MOL0     H  895   4.732   4.147   3.748  3.0529  0.1781  0.0994
    7MOL0     H  896   4.759   4.468   3.856 -0.5258 -1.4376 -0.9118
    7MOL0     H  897   5.035   4.617   3.770 -2.0026 -2.3508 -0.6649
    7MOL0     H  898   4.968   4.642   3.924 -2.5599 -2.4294  0.7696
    7MOL0     H  899   5.198   4.687   3.954 -3.2451  0.6255 -1.3404
    7MOL0     H  900   5.173   4.533   4.026 -1.7471  0.5716  0.5947
    7MOL0     H  901   5.268   4.562   3.729  0.2710  1.0397  0.4393
    7MOL0     H  902   5.282   4.418   3.836  2.6125 -0.1992  1.1475
    7MOL0     H  903   5.497   4.493   3.824 -1.4146 -4.2120  1.8061
    7MOL0     H  904   5.435   4.559   3.982  0.4753  0.4809 -0.4760
    7MOL0     H  905   5.509   4.933   3.772 -0.3135 -1.0160 -1.7135
    7MOL0     H  906   5.738   5.045   3.828  1.3073  0.1430  0.0191
    7MOL0     H  907   6.148   5.150   4.014 -3.4034 -2.4456 -1.5239
    7MOL0     H  908   6.371   5.237   3.979  0.1663  1.0626 -0.0178
    7MOL0     H  909   6.569   5.361   3.876 -0.5383 -0.3523  1.0582
    7MOL0     H  910   6.573   5.183   3.890  0.3432  0.0563  0.6250
    7MOL0     H  911   6.735   5.209   3.685 -2.6479 -0.4071  0.3493
    7MOL0     H  912   6.704   5.379   3.704 -0.3799  0.0331  1.7053
    7MOL0     H  913   6.893   5.358   3.819 -0.9869  0.2661 -1.8048
    7MOL0     H  914   6.793   5.343   3.963  2.1209 -0.8099  1.4219
    7MOL0     H  915   6.919   5.123   3.795  0.9874 -0.7884  0.5540
    7MOL0     H  916   6.824   5.077   3.931  1.0480 -2.7699 -1.7551
    7MOL0     H  917   6.987   5.172   4.077  2.9585 -0.2792  0.4449
    7MOL0     H  918   7.072   5.257   3.940 -0.3068  0.4821 -1.3731
    7MOL0     H  919   7.046   4.963   3.962  0.9613 -0.6557 -0.5853
    7MOL0     H  920   7.141   5.069   3.846  1.6883 -0.4319  0.5862
    7MOL0     H  921   7.287   4.947   4.005 -1.1480 -0.0882  0.0301
    7MOL0     H  922   7.180   4.999   4.133 -0.3341 -0.6123  0.2058
    7MOL0     H  923   7.240   5.239   4.070  0.3721 -1.7886  5.4505
    7MOL0     H  924   7.379   5.144   4.134  0.4725  1.4685  0.6019
    7MOL0     H  925   6.308   5.212   3.557 -0.6920 -1.1743 -0.0704
    7MOL0     H  926   6.086   5.100   3.600  0.8757  5.3825 -2.0058
    7MOL0     H  927   5.908   4.674   3.917 -0.6007 -0.2591  0.5096
    7MOL0     H  928   5.693   4.572   3.932  0.7633  0.3527  2.2918
    7MOL0     H  929   3.777   4.456   3.820 -0.2275 -0.6205  0.4965
    7MOL0     H  930   3.554   4.545   3.916 -1.1982 -0.1403 -0.8649
    7MOL0     H  931   3.309   4.479   4.291 -1.3995 -2.4143  0.9927
    7MOL0     H  932   3.158   4.555   4.449  2.1575  1.5152 -0.1248
    7MOL0     H  933   2.729   4.568   4.403 -1.1531  0.7388 -3.6999
    7MOL0     H  934   2.757   4.731   4.327  0.0746  1.3477  0.5784
    7MOL0     H  935   2.694   4.670   4.618  0.1765  0.7058 -0.6193
    7MOL0     H  936   2.610   4.767   4.505 -2.2601 -2.6094  1.5015
    7MOL0     H  937   2.811   4.931   4.513  0.9168 -0.1737  0.8044
    7MOL0     H  938   2.893   4.818   4.620  0.2787  1.3602  1.1608
    7MOL0     H  939   2.667   4.855   4.775 -0.4385  0.5033 -0.2364
    7MOL0     H  940   2.798   4.976   4.763  2.8562 -2.8874  0.0986
    7MOL0     H  941   2.456   5.163   4.624 -0.1217  0.1875  3.1300
    7MOL0     H  942   2.885   4.693   4.152 -0.1169 -0.3108 -2.6629
    7MOL0     H  943   3.054   4.585   3.859 -2.9387  1.0323 -1.2073
    7MOL0     H  944   2.949   4.702   3.926 -0.3740 -1.8910 -1.3316
    7MOL0     H  945   3.121   4.740   3.919  0.2896 -0.4931  0.8647
    8MOL0     O  946  10.090   6.916   0.806 -0.2663 -0.2199  0.1263
    8MOL0     C  947  10.062   6.920   0.924 -0.1608  1.1142 -0.4805
    8MOL0     O  948  10.152   6.922   1.023  0.0352 -0.9910  0.8085
    8MOL0     C  949  10.284   6.890   0.984 -0.8389  0.0513 -0.8486
    8MOL0     C  950  10.316   6.761   0.940  0.2080  0.4791 -0.0959
    8MOL0     C  951  10.449   6.733   0.903  0.3056 -1.4706  0.5856
    8MOL0     C  952  10.558   6.831   0.930  0.7118  0.8290  0.0628
    8MOL0     O  953  10.691   6.799   0.905 -0.1177 -0.0944  0.1954
    8MOL0     C  954  10.805   6.886   0.952  0.0154  0.0499  0.0325
    8MOL0     C  955  10.936   6.820   0.924  0.2656  0.6322  0.2721
    8MOL0     C  956  10.956   6.805   0.774  0.1674  1.0914 -0.0806
    8MOL0     C  957  11.097   6.841   0.731  0.8212 -0.6081  0.1721
    8MOL0     C  958  11.202   6.738   0.783  0.8188  0.0477 -0.6008
    8MOL0     C  959  11.340   6.779   0.725  0.2190  0.6561 -0.0987
    8MOL0     C  960  11.434   6.669   0.777  0.2616  0.4074 -0.8686
    8MOL0     C  961  11.576   6.704   0.745  0.1243  0.3878 -0.2335
    8MOL0     N  962  11.653   6.581   0.775 -0.5649 -0.2833 -0.3473
    8MOL0     C  963  11.739   6.570   0.882  0.0536  0.1373  0.1661
    8MOL0     C  964  11.818   6.459   0.859  0.7382 -0.0178  0.2921
    8MOL0     C  965  11.934   6.408   0.938 -0.1929  0.4979  0.3928
    8MOL0     C  966  11.898   6.287   1.030  0.1863  0.3443  0.2329
    8MOL0     C  967  12.016   6.220   1.108 -0.5851 -0.3272  0.2534
    8MOL0     C  968  11.961   6.121   1.198 -0.0771 -0.7156 -0.2549
    8MOL0     O  969  11.922   6.189   1.313  0.1291  0.6640 -0.2942
    8MOL0     C  970  11.790   6.198   1.359 -0.3058  0.6683 -0.7829
    8MOL0     C  971  11.677   6.141   1.300  0.2378 -1.2456  0.4788
    8MOL0     C  972  11.560   6.148   1.373  0.7994  0.3871  0.1795
    8MOL0     C  973  11.539   6.214   1.493  1.0311  0.6333 -0.2514
    8MOL0     C  974  11.414   6.213   1.573  0.2591  0.4927 -0.0059
    8MOL0     O  975  11.414   6.280   1.690 -0.6040  0.0906 -0.3495
    8MOL0     C  976  11.301   6.311   1.767 -0.0226 -0.2268 -0.9456
    8MOL0     C  977  11.318   6.419   1.858 -0.3354 -0.4149 -0.4578
    8MOL0     C  978  11.207   6.462   1.929 -0.4616 -0.3019  0.5294
    8MOL0     C  979  11.091   6.399   1.927  0.4088  0.4978  0.0693
    8MOL0     O  980  10.983   6.445   1.988  0.4078 -0.3316 -0.9190
    8MOL0     C  981  10.956   6.591   1.996 -0.0022  0.1070 -0.1543
    8MOL0     C  982  10.875   6.641   2.114  0.6981  1.3361 -0.1563
    8MOL0     C  983  10.825   6.780   2.093 -0.2533  0.0114 -0.0632
    8MOL0     C  984  10.737   6.821   2.210 -0.5669 -0.1784  0.2015
    8MOL0     C  985  10.698   6.968   2.195 -0.3990  0.6219  0.1272
    8MOL0     C  986  10.598   7.007   2.308  0.5683  0.3309  0.2600
    8MOL0     C  987  10.669   7.065   2.432  0.4933  0.2146  0.9703
    8MOL0     C  988  10.561   7.079   2.541  0.1102 -0.1205  0.1517
    8MOL0    Cl  989  10.644   7.115   2.693  0.4010 -0.2066 -0.0464
    8MOL0     C  990  11.080   6.271   1.860  0.3714 -1.3945 -0.0159
    8MOL0     C  991  11.184   6.232   1.779  0.1780  0.2149  0.3426
    8MOL0     O  992  11.313   6.153   1.529 -0.1942 -0.3445  0.2452
    8MOL0     C  993  11.651   6.282   1.534  0.3674 -0.0671 -0.5121
    8MOL0     C  994  11.770   6.271   1.476 -0.2885  0.1805  0.2145
    8MOL0     N  995  11.780   6.406   0.738 -0.2292 -0.2702 -0.4161
    8MOL0     N  996  11.693   6.487   0.685  0.3453 -0.1764 -1.1201
    8MOL0     C  997  10.518   6.947   1.000 -0.0562  0.0046  0.6103
    8MOL0     C  998  10.387   6.975   1.028 -0.1091  0.1731  1.1124
    8MOL0     C  999   9.934   6.983   0.968 -0.2486 -0.3105 -0.7833
    8MOL0     C 1000   9.933   7.076   1.072  0.1220  0.2638 -0.8778
    8MOL0     C 1001   9.816   7.148   1.101  0.5193  0.3169 -0.0559
    8MOL0     C 1002   9.694   7.126   1.030  0.2612  0.3325 -0.2296
    8MOL0     O 1003   9.586   7.210   1.061 -0.3112 -0.4927  0.0067
    8MOL0     C 1004   9.473   7.157   1.116  0.6808  0.3839 -0.0708
    8MOL0     C 1005   9.512   7.078   1.246 -0.2288 -0.5556 -0.6743
    8MOL0     C 1006   9.409   6.974   1.275 -0.4000 -0.0360 -0.0344
    8MOL0     C 1007   9.276   7.044   1.321 -0.6091  0.3492 -0.1951
    8MOL0     C 1008   9.207   6.965   1.428 -0.7838 -0.1738  0.3968
    8MOL0     C 1009   9.159   6.887   1.510 -0.3067  0.1281 -0.2912
    8MOL0     C 1010   9.695   7.035   0.929  0.7364 -0.3138  0.1267
    8MOL0     C 1011   9.806   6.952   0.908 -0.4910 -0.7790  0.0955
    8MOL0     C 1012   9.793   6.842   0.803  0.5653  1.5511  0.3278
    8MOL0     H 1013  10.243   6.684   0.917  0.3684  0.8838 -2.1314
    8MOL0     H 1014  10.465   6.645   0.842  0.2040 -1.1668  0.1081
    8MOL0     H 1015  10.806   6.980   0.897 -0.1060 -0.4178 -0.7910
    8MOL0     H 1016  10.806   6.909   1.059  0.8143 -2.4181  0.6304
    8MOL0     H 1017  10.927   6.720   0.968  1.3617  1.0900  1.6198
    8MOL0     H 1018  11.008   6.885   0.975 -1.9940  1.7639  2.1679
    8MOL0     H 1019  10.896   6.879   0.722  0.8748  1.8475  0.1501
    8MOL0     H 1020  10.933   6.703   0.742 -1.2035  1.3209  0.1208
    8MOL0     H 1021  11.108   6.849   0.622  0.9370  1.9598  0.3321
    8MOL0     H 1022  11.111   6.945   0.761 -1.5185  0.9141 -3.3118
    8MOL0     H 1023  11.196   6.742   0.892  1.6147 -2.1001 -0.4301
    8MOL0     H 1024  11.176   6.639   0.745 -0.6769 -0.0602  0.5858
    8MOL0     H 1025  11.342   6.772   0.616  0.2780 -0.8970 -0.0101
    8MOL0     H 1026  11.381   6.877   0.755  2.0574 -0.1230  0.0851
    8MOL0     H 1027  11.408   6.577   0.725  0.7369 -0.9543  1.1575
    8MOL0     H 1028  11.422   6.650   0.885  0.8474  0.1014 -0.8540
    8MOL0     H 1029  11.587   6.733   0.640  1.4460  1.1353  0.0831
    8MOL0     H 1030  11.611   6.784   0.811  0.7440 -0.8556  0.9720
    8MOL0     H 1031  11.742   6.644   0.962  1.2828  0.7418 -0.4215
    8MOL0     H 1032  12.010   6.379   0.865 -1.6853  0.6489 -1.3045
    8MOL0     H 1033  11.969   6.492   0.998  0.5403  1.0896 -0.8294
    8MOL0     H 1034  11.818   6.311   1.101  0.0158 -1.7802  0.8436
    8MOL0     H 1035  11.850   6.215   0.963 -0.9809  3.1832 -2.2071
    8MOL0     H 1036  12.074   6.294   1.164 -1.2306 -0.6918  1.4315
    8MOL0     H 1037  12.081   6.173   1.034  0.7629 -0.3670  1.4213
    8MOL0     H 1038  12.042   6.051   1.217  0.1883 -0.4417 -0.3742
    8MOL0     H 1039  11.887   6.062   1.144 -0.6428 -3.2732  2.9917
    8MOL0     H 1040  11.685   6.080   1.211  0.2349 -0.8942  0.2389
    8MOL0     H 1041  11.478   6.095   1.325  0.4553  1.1301 -0.0540
    8MOL0     H 1042  11.405   6.484   1.859  1.4499 -2.6702 -1.3257
    8MOL0     H 1043  11.219   6.555   1.984  2.3694  1.0230 -2.0827
    8MOL0     H 1044  11.047   6.650   1.995 -1.4229  2.4478 -2.3435
    8MOL0     H 1045  10.907   6.607   1.900  0.8744 -0.6867 -0.7568
    8MOL0     H 1046  10.789   6.576   2.131  1.2706  0.5895 -0.0647
    8MOL0     H 1047  10.930   6.634   2.208 -0.0381 -2.2234  0.1494
    8MOL0     H 1048  10.914   6.842   2.080 -0.4104  0.4746  0.9992
    8MOL0     H 1049  10.774   6.797   1.998  0.3328 -1.7674 -0.7375
    8MOL0     H 1050  10.809   6.811   2.292 -0.4828 -1.5408 -0.0169
    8MOL0     H 1051  10.656   6.748   2.214  0.4995 -1.3933  0.4377
    8MOL0     H 1052  10.639   6.967   2.103 -1.5023  0.5541  0.8261
    8MOL0     H 1053  10.783   7.038   2.190  0.8113 -0.4057  3.6109
    8MOL0     H 1054  10.518   7.076   2.279  1.1922  1.2080  0.6009
    8MOL0     H 1055  10.545   6.916   2.339 -1.6267  1.6314  0.5350
    8MOL0     H 1056  10.710   7.164   2.411  0.4314  0.2434  0.9852
    8MOL0     H 1057  10.750   6.996   2.456  0.1946  0.2273  2.0511
    8MOL0     H 1058  10.479   7.149   2.520  0.2672  0.5769  1.6803
    8MOL0     H 1059  10.514   6.980   2.545  2.0955 -1.0885  0.2745
    8MOL0     H 1060  10.980   6.231   1.866 -0.7963  1.3436  0.1124
    8MOL0     H 1061  11.168   6.145   1.716  2.4201 -1.3469  1.7504
    8MOL0     H 1062  11.645   6.334   1.629  0.0518 -2.6607  1.0140
    8MOL0     H 1063  11.855   6.316   1.527  1.2139  0.6302 -2.4842
    8MOL0     H 1064  10.592   7.010   1.048 -0.7188  1.2925 -0.0336
    8MOL0     H 1065  10.363   7.071   1.072 -2.5276  0.7799 -1.2415
    8MOL0     H 1066  10.025   7.110   1.118  0.9703 -2.0812 -0.7230
    8MOL0     H 1067   9.827   7.222   1.179 -0.9936  0.4485  0.0590
    8MOL0     H 1068   9.430   7.082   1.049  1.2893  0.3228 -0.4011
    8MOL0     H 1069   9.403   7.239   1.137  0.3716 -0.2505  1.5310
    8MOL0     H 1070   9.530   7.145   1.330 -0.4118 -1.8114  0.3789
    8MOL0     H 1071   9.603   7.018   1.239  0.9662  1.3333 -2.9130
    8MOL0     H 1072   9.449   6.922   1.362  2.6138  1.6721 -0.2673
    8MOL0     H 1073   9.388   6.906   1.192 -1.6123  1.6602 -1.2149
    8MOL0     H 1074   9.300   7.139   1.371  1.9861 -1.3228  2.0213
    8MOL0     H 1075   9.208   7.054   1.236 -0.6579 -1.7437 -0.4534
    8MOL0     H 1076   9.115   6.806   1.566  0.9425  0.0104  0.5678
    8MOL0     H 1077   9.605   7.018   0.870  1.5058 -0.5954 -0.9975
    8MOL0     H 1078   9.829   6.742   0.828  0.8884  1.4068 -0.6576
    8MOL0     H 1079   9.685   6.825   0.794  0.5742 -2.7901  4.5614
    8MOL0     H 1080   9.835   6.869   0.705 -1.9279  0.4704 -1.1331
    9MOL0     O 1081  10.082   6.043  10.273 -0.1024  0.5484  0.3848
    9MOL0     C 1082  10.081   5.918  10.265 -1.0560  0.3886  0.0591
    9MOL0     O 1083  10.170   5.834  10.333  0.4649  0.9433 -0.2128
    9MOL0     C 1084  10.247   5.888  10.427 -0.1441  0.3318  0.0372
    9MOL0     C 1085  10.190   5.924  10.549  0.2448  0.1290 -0.8726
    9MOL0     C 1086  10.274   5.952  10.666 -0.7012  0.7419  1.1921
    9MOL0     C 1087  10.415   5.965  10.648 -0.9186 -0.3071 -0.1540
    9MOL0     O 1088  10.492   5.983  10.762 -0.6704  0.6657 -0.0595
    9MOL0     C 1089  10.635   5.948  10.757 -0.7766 -0.5180  0.0517
    9MOL0     C 1090  10.695   5.997  10.887  0.4604 -0.0432  0.2474
    9MOL0     C 1091  10.845   5.969  10.881  0.3064 -0.3542 -0.2426
    9MOL0     C 1092  10.908   6.052  10.996 -0.2428  1.2509  0.0966
    9MOL0     C 1093  11.059   6.017  11.006  0.1224 -0.3695  0.2193
    9MOL0     C 1094  11.112   6.084  11.138  0.7012  0.5189  0.3624
    9MOL0     C 1095  11.259   6.125  11.114  0.2856  0.0856 -0.1464
    9MOL0     C 1096  11.353   6.010  11.157 -0.4168  0.2583 -0.7432
    9MOL0     N 1097  11.496   6.045  11.150 -0.2019 -0.2501 -0.6766
    9MOL0     C 1098  11.590   5.993  11.234 -0.2280  0.2217  0.1617
    9MOL0     C 1099  11.708   6.049  11.191  0.3920  0.7954  0.0353
    9MOL0     C 1100  11.845   6.017  11.245 -0.2635  0.4761 -0.3516
    9MOL0     C 1101  11.947   5.980  11.135  0.2882  0.0490 -0.0476
    9MOL0     C 1102  12.061   5.888  11.189  1.0161 -0.1348  0.1710
    9MOL0     C 1103  12.149   5.941  11.303 -0.6000  0.1796 -0.0177
    9MOL0     O 1104  12.253   5.851  11.334  1.0430 -0.3716 -0.2939
    9MOL0     C 1105  12.370   5.829  11.267  0.5094 -0.3436 -0.2468
    9MOL0     C 1106  12.420   5.921  11.176  0.2769 -0.5905 -0.0069
    9MOL0     C 1107  12.539   5.898  11.112  0.0549  0.9498  0.5565
    9MOL0     C 1108  12.615   5.775  11.123 -0.1670 -0.2600  0.4291
    9MOL0     C 1109  12.740   5.761  11.065  0.1115 -0.2084  0.2467
    9MOL0     O 1110  12.801   5.649  11.102  0.1614  0.3571 -0.1751
    9MOL0     C 1111  12.929   5.629  11.061 -0.6321  0.5795  0.4252
    9MOL0     C 1112  12.952   5.490  11.057 -0.0530  0.3782  0.2166
    9MOL0     C 1113  13.085   5.452  11.036  0.2705  0.1674 -1.0171
    9MOL0     C 1114  13.194   5.537  11.020  0.2439  0.1271  0.7992
    9MOL0     O 1115  13.323   5.484  11.007  0.8642  0.6100 -0.6256
    9MOL0     C 1116  13.422   5.552  10.932 -0.1463 -0.6941 -0.4907
    9MOL0     C 1117  13.554   5.481  10.916 -0.5146 -0.1559  0.9195
    9MOL0     C 1118  13.637   5.558  10.807 -0.6003  0.3657  0.0664
    9MOL0     C 1119  13.757   5.458  10.770  0.0408 -0.0919  0.4946
    9MOL0     C 1120  13.804   5.475  10.617 -0.1827 -0.4515  0.3474
    9MOL0     C 1121  13.925   5.397  10.588  0.3639  0.3764 -0.3425
    9MOL0     C 1122  13.974   5.426  10.449  0.0874  0.2817 -0.3152
    9MOL0     C 1123  14.112   5.360  10.430 -0.4118  1.0378  0.0950
    9MOL0    Cl 1124  14.223   5.489  10.497  0.4003  0.7301 -0.0002
    9MOL0     C 1125  13.165   5.670  11.029 -0.6232 -0.2690  0.3246
    9MOL0     C 1126  13.037   5.714  11.045  1.1619  0.1024 -0.8459
    9MOL0     O 1127  12.777   5.839  10.977 -0.1268  0.3773 -0.2046
    9MOL0     C 1128  12.555   5.687  11.217  0.4511 -0.1055  0.2435
    9MOL0     C 1129  12.435   5.707  11.280 -1.5423  0.0386  0.1512
    9MOL0     N 1130  11.678   6.138  11.089 -0.7109 -0.0733  0.2457
    9MOL0     N 1131  11.558   6.124  11.057 -0.2701 -0.2059  0.2677
    9MOL0     C 1132  10.466   5.953  10.518  1.0000 -0.2448  0.9514
    9MOL0     C 1133  10.385   5.919  10.409 -0.5730  0.5490 -0.5274
    9MOL0     C 1134   9.974   5.849  10.182 -0.8654 -0.2677 -0.4977
    9MOL0     C 1135   9.958   5.711  10.194  0.4048  0.7343 -0.8782
    9MOL0     C 1136   9.851   5.639  10.134  0.0613 -0.3260 -0.8414
    9MOL0     C 1137   9.767   5.708  10.042 -0.2896 -0.4740 -0.2839
    9MOL0     O 1138   9.653   5.650   9.989  0.2721 -0.5166  1.0106
    9MOL0     C 1139   9.589   5.535  10.039  0.0552  0.3587 -0.4331
    9MOL0     C 1140   9.439   5.526  10.013 -0.0101  0.1992 -0.7860
    9MOL0     C 1141   9.346   5.601  10.120  0.6946 -0.3312  0.0077
    9MOL0     C 1142   9.328   5.743  10.073 -0.3293  0.5565  0.4302
    9MOL0     C 1143   9.221   5.806  10.147  0.5078 -0.1793  0.1773
    9MOL0     C 1144   9.120   5.839  10.203  0.6803  0.6137 -0.0936
    9MOL0     C 1145   9.784   5.847  10.022 -1.4594  0.4936  0.2647
    9MOL0     C 1146   9.887   5.915  10.089  0.5658 -0.2744  0.1129
    9MOL0     C 1147   9.888   6.067  10.064 -0.4429  0.3061  0.9043
    9MOL0     H 1148  10.084   5.928  10.572  0.7121  0.4214  1.5582
    9MOL0     H 1149  10.229   5.965  10.764  1.1344  2.9637  1.8287
    9MOL0     H 1150  10.639   5.839  10.744  2.5958 -0.4397 -0.4151
    9MOL0     H 1151  10.684   6.006  10.679 -1.1801 -0.5096 -0.2006
    9MOL0     H 1152  10.643   5.940  10.964 -4.7471  1.5563 -1.6852
    9MOL0     H 1153  10.676   6.105  10.894  1.0493 -0.0162  2.1675
    9MOL0     H 1154  10.909   5.998  10.797 -0.0482  1.7291  0.1474
    9MOL0     H 1155  10.863   5.865  10.908  0.2987  0.1119  1.7632
    9MOL0     H 1156  10.889   6.159  10.986 -1.3409  0.9852 -0.8415
    9MOL0     H 1157  10.864   6.011  11.087  0.3553 -1.7319 -0.8600
    9MOL0     H 1158  11.063   5.907  11.002 -2.5461 -0.4890 -2.2729
    9MOL0     H 1159  11.115   6.051  10.919 -1.1218  1.0461 -0.0636
    9MOL0     H 1160  11.064   6.177  11.169  1.3612  0.7989  0.5658
    9MOL0     H 1161  11.103   6.010  11.219  1.1345 -0.0140 -0.0721
    9MOL0     H 1162  11.288   6.217  11.166  0.8784  0.5631 -1.2785
    9MOL0     H 1163  11.264   6.156  11.009 -1.3060 -2.6576 -1.1404
    9MOL0     H 1164  11.331   5.989  11.263 -1.3739 -1.4936 -1.2380
    9MOL0     H 1165  11.330   5.926  11.091 -0.1564  0.7800 -1.5031
    9MOL0     H 1166  11.572   5.927  11.317  0.5270 -1.7932 -1.2069
    9MOL0     H 1167  11.881   6.102  11.303 -1.5104  1.5830 -1.1456
    9MOL0     H 1168  11.841   5.942  11.324  1.2789 -0.3359 -1.0067
    9MOL0     H 1169  11.897   5.938  11.047  2.0718 -0.3674 -0.9242
    9MOL0     H 1170  12.006   6.066  11.103  0.1649  0.6375  1.2811
    9MOL0     H 1171  12.132   5.861  11.110 -0.0492  0.1734 -0.9256
    9MOL0     H 1172  12.009   5.800  11.228  1.4570 -0.0868  0.8703
    9MOL0     H 1173  12.089   5.950  11.394 -0.4730 -0.8243  0.1686
    9MOL0     H 1174  12.191   6.040  11.279 -0.3035 -0.2593 -1.4062
    9MOL0     H 1175  12.387   6.024  11.164 -0.0040 -0.6790 -0.0031
    9MOL0     H 1176  12.580   5.979  11.052  0.8981  0.9699  1.1611
    9MOL0     H 1177  12.860   5.432  11.062  0.2550 -0.0456  1.1733
    9MOL0     H 1178  13.092   5.344  11.032 -2.8896 -0.1476 -0.4410
    9MOL0     H 1179  13.379   5.578  10.835 -2.3461 -0.2116  0.5541
    9MOL0     H 1180  13.433   5.651  10.977  1.1799 -1.8592  1.9498
    9MOL0     H 1181  13.601   5.473  11.015  0.0441 -0.8176  0.6074
    9MOL0     H 1182  13.541   5.378  10.882  0.6115 -0.0163  0.0082
    9MOL0     H 1183  13.583   5.584  10.716  3.3471  1.4421 -2.2361
    9MOL0     H 1184  13.677   5.652  10.847  0.5904 -0.4963  1.0052
    9MOL0     H 1185  13.724   5.356  10.789 -0.6306  0.0268  0.0206
    9MOL0     H 1186  13.843   5.494  10.828 -0.2717 -1.5998  1.9906
    9MOL0     H 1187  13.828   5.581  10.601 -0.4253  0.1884  3.4995
    9MOL0     H 1188  13.719   5.436  10.561  0.9466 -2.4611 -0.0728
    9MOL0     H 1189  14.003   5.427  10.658  1.1736  1.1915 -1.5532
    9MOL0     H 1190  13.894   5.293  10.604  0.2025  0.5163  0.2849
    9MOL0     H 1191  13.986   5.531  10.424  1.1250  0.0596 -0.7952
    9MOL0     H 1192  13.912   5.381  10.370 -0.4797 -1.3276  0.9814
    9MOL0     H 1193  14.117   5.266  10.487 -1.1856  2.0026  1.8213
    9MOL0     H 1194  14.131   5.346  10.323  2.2793  0.4171  0.5890
    9MOL0     H 1195  13.245   5.743  11.033  0.3558 -1.3453  2.3049
    9MOL0     H 1196  13.030   5.822  11.050  1.0209  0.0457  1.0482
    9MOL0     H 1197  12.615   5.603  11.250 -1.3699 -0.6715  2.2827
    9MOL0     H 1198  12.398   5.628  11.345 -0.8113  0.6183  1.3039
    9MOL0     H 1199  10.569   5.965  10.488  0.1699 -1.8599 -3.1678
    9MOL0     H 1200  10.423   5.912  10.307 -0.2099  2.8624 -0.5947
    9MOL0     H 1201  10.018   5.651  10.262 -2.7871 -1.0403  0.5969
    9MOL0     H 1202   9.829   5.535  10.155 -2.4782  0.9062  4.1879
    9MOL0     H 1203   9.601   5.526  10.147 -3.0200  0.5252 -0.0051
    9MOL0     H 1204   9.634   5.442  10.001 -1.6139 -1.4748  1.8173
    9MOL0     H 1205   9.418   5.419  10.017 -2.9597  0.7321  1.4946
    9MOL0     H 1206   9.405   5.559   9.915 -0.3586  0.4530 -0.5816
    9MOL0     H 1207   9.393   5.595  10.218 -0.6969 -3.9005  0.6018
    9MOL0     H 1208   9.248   5.552  10.128  0.1163  0.9877  1.6845
    9MOL0     H 1209   9.424   5.793  10.089  0.6123 -0.7994 -0.8041
    9MOL0     H 1210   9.287   5.751   9.972 -3.8741 -0.4470  1.6489
    9MOL0     H 1211   9.037   5.894  10.244  2.3413  2.3609  1.1436
    9MOL0     H 1212   9.706   5.898   9.966 -2.2012  0.5818  1.3442
    9MOL0     H 1213   9.838   6.092   9.969 -0.7747  0.4898  1.1241
    9MOL0     H 1214   9.837   6.121  10.144 -0.9744 -0.6991  1.2640
    9MOL0     H 1215   9.990   6.090  10.033 -1.0621  0.3342 -1.3773
   10MOL0     O 1216  11.185   9.927   4.865  1.1439 -0.5637  0.7371
   10MOL0     C 1217  11.235   9.968   4.974  0.1197 -0.3272  0.3175
   10MOL0     O 1218  11.165  10.033   5.074 -0.6894 -0.2690  0.1651
   10MOL0     C 1219  11.027  10.039   5.056  0.3379  0.3374 -0.4805
   10MOL0     C 1220  10.966  10.096   4.942 -0.0537 -0.0949 -0.9131
   10MOL0     C 1221  10.826  10.102   4.934  0.0071 -0.6451  0.3117
   10MOL0     C 1222  10.749  10.078   5.043 -0.0684  0.6984 -0.8440
   10MOL0     O 1223  10.616  10.108   5.037  0.4518  0.9462 -0.1962
   10MOL0     C 1224  10.527  10.097   5.152  0.2310  0.1078  0.0605
   10MOL0     C 1225  10.382  10.129   5.115 -0.0992  0.1202 -0.2388
   10MOL0     C 1226  10.361  10.257   5.035 -0.3930  0.2397 -0.2949
   10MOL0     C 1227  10.416  10.390   5.083 -0.7777  0.0894 -1.0373
   10MOL0     C 1228  10.483  10.478   4.974  0.0506 -0.1010 -0.7165
   10MOL0     C 1229  10.622  10.426   4.943 -0.4461  0.5115  0.0243
   10MOL0     C 1230  10.726  10.542   4.937  0.1779 -0.4251 -1.0447
   10MOL0     C 1231  10.697  10.630   4.819  0.3778 -0.1349  0.6970
   10MOL0     N 1232  10.798  10.737   4.809  0.3333  1.2750  0.6684
   10MOL0     C 1233  10.938  10.716   4.805  0.2392  0.7949 -0.8295
   10MOL0     C 1234  10.985  10.844   4.795 -0.6199  0.0140  0.1964
   10MOL0     C 1235  11.131  10.878   4.787 -0.4310  0.1621 -0.1994
   10MOL0     C 1236  11.203  10.847   4.914  0.2599  0.0663  0.9304
   10MOL0     C 1237  11.355  10.871   4.885  0.0493 -0.6501  0.0954
   10MOL0     C 1238  11.440  10.777   4.958 -0.3816 -0.1420  0.6019
   10MOL0     O 1239  11.572  10.805   4.910 -0.2882  0.1403  0.2130
   10MOL0     C 1240  11.682  10.730   4.952  0.3957  0.0292  0.1543
   10MOL0     C 1241  11.673  10.628   5.044 -0.0767 -0.6832 -0.5834
   10MOL0     C 1242  11.776  10.556   5.091  0.0216  0.1784  0.9454
   10MOL0     C 1243  11.903  10.578   5.035 -0.3551 -0.6663 -0.0428
   10MOL0     C 1244  12.022  10.510   5.101 -1.0235  0.0335  0.1375
   10MOL0     O 1245  11.995  10.427   5.215  0.7052  0.5770  0.6204
   10MOL0     C 1246  12.097  10.367   5.281 -1.1686  0.0038 -1.0060
   10MOL0     C 1247  12.193  10.447   5.344 -0.5380  0.4878 -0.7944
   10MOL0     C 1248  12.301  10.387   5.414 -0.0497 -0.1219 -0.5572
   10MOL0     C 1249  12.297  10.252   5.439 -0.5867  0.4053  0.4671
   10MOL0     O 1250  12.361  10.187   5.540 -0.7298  0.2367  0.3575
   10MOL0     C 1251  12.467  10.254   5.614  0.4528  0.3684  0.1274
   10MOL0     C 1252  12.517  10.142   5.714 -0.3324  0.5448  0.2605
   10MOL0     C 1253  12.614  10.052   5.640 -0.5163  0.4105 -0.6508
   10MOL0     C 1254  12.657   9.928   5.729  0.0140 -0.0191 -0.4423
   10MOL0     C 1255  12.751   9.834   5.645  0.8267  0.1231 -0.0207
   10MOL0     C 1256  12.755   9.693   5.709  0.8903  0.0946  0.2072
   10MOL0     C 1257  12.845   9.602   5.627 -0.0761  0.0987  0.2006
   10MOL0     C 1258  12.992   9.583   5.684  0.6530 -0.1644 -0.3346
   10MOL0    Cl 1259  13.085   9.724   5.701  0.5528 -0.0844  0.1081
   10MOL0     C 1260  12.205  10.174   5.373  0.1230 -0.4584 -0.3432
   10MOL0     C 1261  12.104  10.232   5.304 -0.2354  0.2135  1.1183
   10MOL0     O 1262  12.137  10.535   5.059  0.4287  0.0937 -0.4774
   10MOL0     C 1263  11.919  10.680   4.934  1.0169  0.2006  0.0333
   10MOL0     C 1264  11.808  10.757   4.892  0.5260 -0.5005 -0.0765
   10MOL0     N 1265  10.879  10.935   4.792 -0.2327 -1.0912  0.5286
   10MOL0     N 1266  10.776  10.871   4.794  0.0758 -0.6823  0.1933
   10MOL0     C 1267  10.811  10.015   5.152 -0.2756 -0.3717 -0.1348
   10MOL0     C 1268  10.945   9.993   5.163 -0.5010 -0.7635  0.8250
   10MOL0     C 1269  11.366   9.896   5.010 -1.3222  0.2586 -0.3074
   10MOL0     C 1270  11.436   9.825   4.910 -0.0514  0.1003 -0.1231
   10MOL0     C 1271  11.560   9.770   4.932  0.6763  0.1224  0.3324
   10MOL0     C 1272  11.622   9.776   5.053 -0.2221 -0.0242 -0.7151
   10MOL0     O 1273  11.746   9.727   5.076  0.2459  0.0269 -0.4185
   10MOL0     C 1274  11.793   9.614   4.997  0.0983 -0.5920  0.9275
   10MOL0     C 1275  11.930   9.588   5.036 -0.0844  0.0999 -0.1421
   10MOL0     C 1276  11.962   9.563   5.186  0.3397 -0.2655  0.4734
   10MOL0     C 1277  12.107   9.533   5.202  0.1468 -0.6886 -0.1411
   10MOL0     C 1278  12.136   9.396   5.165 -0.4217  0.8454  0.1495
   10MOL0     C 1279  12.130   9.283   5.129 -0.2131  0.2062  0.0510
   10MOL0     C 1280  11.556   9.836   5.161  0.9108 -0.1003  0.1155
   10MOL0     C 1281  11.426   9.888   5.140 -0.6030 -0.0976  0.1384
   10MOL0     C 1282  11.353   9.932   5.264  0.0561  0.5877 -0.2133
   10MOL0     H 1283  11.028  10.142   4.866  1.8868  0.7148  1.0692
   10MOL0     H 1284  10.775  10.142   4.847  1.2287  0.2239 -0.0244
   10MOL0     H 1285  10.527   9.995   5.190  3.3881 -0.4073 -1.0083
   10MOL0     H 1286  10.557  10.163   5.234 -0.4073  0.4413  0.0373
   10MOL0     H 1287  10.314  10.139   5.200 -0.9455  1.2999 -1.0272
   10MOL0     H 1288  10.343  10.041   5.061  3.0683 -0.2603 -2.1697
   10MOL0     H 1289  10.252  10.265   5.029 -0.5580 -2.2142 -2.1534
   10MOL0     H 1290  10.403  10.233   4.937  0.6366 -1.5593  0.5369
   10MOL0     H 1291  10.332  10.452   5.115  0.5607  0.0796  3.0952
   10MOL0     H 1292  10.476  10.374   5.173 -1.8742 -3.8600 -0.7943
   10MOL0     H 1293  10.423  10.480   4.883 -1.7217 -2.7809  0.2717
   10MOL0     H 1294  10.499  10.576   5.020  1.1727 -2.2576  4.1285
   10MOL0     H 1295  10.664  10.356   5.015 -0.9372 -0.0337 -0.2163
   10MOL0     H 1296  10.624  10.376   4.846 -1.9554 -0.2304  0.3427
   10MOL0     H 1297  10.828  10.506   4.923  0.1500 -0.5239 -0.9933
   10MOL0     H 1298  10.733  10.605   5.026  1.5101 -0.9815 -0.7261
   10MOL0     H 1299  10.667  10.576   4.730 -3.4294 -1.4681  2.5555
   10MOL0     H 1300  10.599  10.675   4.841  0.1792 -1.0964  1.8967
   10MOL0     H 1301  10.997  10.625   4.810 -1.4982 -0.4107 -1.1603
   10MOL0     H 1302  11.181  10.820   4.709  1.2203  2.1711 -0.7418
   10MOL0     H 1303  11.145  10.985   4.770  0.3207 -0.1086 -1.3636
   10MOL0     H 1304  11.176  10.905   5.003 -1.5069  1.4388 -0.4107
   10MOL0     H 1305  11.187  10.742   4.938 -3.3184  0.7525  2.2283
   10MOL0     H 1306  11.383  10.975   4.903 -1.4543 -0.4219  1.3469
   10MOL0     H 1307  11.372  10.853   4.778 -0.9739 -1.6589  0.0823
   10MOL0     H 1308  11.423  10.670   4.939  4.3052 -1.0637  0.2043
   10MOL0     H 1309  11.436  10.798   5.065  0.3230  2.0142  0.2456
   10MOL0     H 1310  11.574  10.599   5.080 -0.1842 -1.2357 -1.2939
   10MOL0     H 1311  11.761  10.470   5.155 -0.2516 -0.4559  0.0557
   10MOL0     H 1312  12.179  10.555   5.345  2.8439  1.1915  3.3562
   10MOL0     H 1313  12.363  10.463   5.461 -0.5267 -0.1911  0.1911
   10MOL0     H 1314  12.551  10.293   5.556 -0.2248  0.8761 -0.5433
   10MOL0     H 1315  12.423  10.338   5.670 -0.5355 -0.6313  0.8959
   10MOL0     H 1316  12.565  10.186   5.802  1.8085  0.9742 -1.0368
   10MOL0     H 1317  12.431  10.089   5.756 -0.2875  0.7783  0.6517
   10MOL0     H 1318  12.569  10.027   5.543 -1.3141  1.3338 -0.5371
   10MOL0     H 1319  12.709  10.105   5.632 -1.1766  1.9697  1.0769
   10MOL0     H 1320  12.565   9.873   5.750 -0.8676  0.7226 -2.1132
   10MOL0     H 1321  12.699   9.959   5.825  2.7193  2.3514 -2.2435
   10MOL0     H 1322  12.855   9.865   5.630  1.4255 -1.8734 -0.3114
   10MOL0     H 1323  12.708   9.827   5.545  2.9308 -2.6780 -0.8554
   10MOL0     H 1324  12.801   9.717   5.806  0.8059 -0.5783  0.4175
   10MOL0     H 1325  12.653   9.664   5.735  0.6869 -0.4537 -1.1356
   10MOL0     H 1326  12.863   9.632   5.523  0.3455 -0.4579  0.1083
   10MOL0     H 1327  12.795   9.505   5.620 -1.0601  0.3598  2.7442
   10MOL0     H 1328  12.981   9.536   5.782 -0.2333  0.5252 -0.0843
   10MOL0     H 1329  13.060   9.511   5.637  0.1391 -1.4351  0.8040
   10MOL0     H 1330  12.196  10.067   5.387  0.2479 -0.2528  1.6791
   10MOL0     H 1331  12.024  10.170   5.265  0.5804 -0.6105  0.7201
   10MOL0     H 1332  12.012  10.698   4.881  1.1675  3.5067  1.1947
   10MOL0     H 1333  11.807  10.832   4.814 -1.6646 -1.8749 -1.4603
   10MOL0     H 1334  10.749   9.985   5.236 -0.1129 -0.6692 -0.1209
   10MOL0     H 1335  10.995   9.931   5.237 -0.4708  0.5372  1.9253
   10MOL0     H 1336  11.406   9.815   4.806 -0.0013  3.0401 -0.4913
   10MOL0     H 1337  11.600   9.714   4.848  2.2632 -0.8286  1.6450
   10MOL0     H 1338  11.777   9.645   4.893 -1.3452  1.4534  1.6979
   10MOL0     H 1339  11.736   9.523   5.016  0.2411 -1.3477 -1.8224
   10MOL0     H 1340  11.998   9.669   5.008  1.0247 -0.1981  1.5362
   10MOL0     H 1341  11.973   9.505   4.979 -2.1387  1.2003 -3.5905
   10MOL0     H 1342  11.904   9.479   5.224 -2.9184  0.4223 -2.4084
   10MOL0     H 1343  11.929   9.654   5.237  4.0780  0.9543  1.0622
   10MOL0     H 1344  12.171   9.607   5.153  2.2045 -1.6263  0.9984
   10MOL0     H 1345  12.146   9.544   5.303  1.6407 -0.1111 -0.7431
   10MOL0     H 1346  12.120   9.183   5.092 -0.9441 -0.1567  1.2013
   10MOL0     H 1347  11.603   9.845   5.259  2.0868  1.7205 -0.5629
   10MOL0     H 1348  11.344  10.041   5.262 -1.3755  0.4922 -1.7891
   10MOL0     H 1349  11.247   9.907   5.251 -0.4651  2.4102  0.2363
   10MOL0     H 1350  11.395   9.888   5.354  0.1635 -0.0524 -0.5747
   11MOL0     O 1351  10.375   0.290   3.439  0.5333  0.3707  0.0621
   11MOL0     C 1352  10.398   0.382   3.506 -1.0098 -0.9039  0.4866
   11MOL0     O 1353  10.515   0.405   3.576 -0.4641 -0.4123  0.0802
   11MOL0     C 1354  10.620   0.329   3.523  0.2638 -0.1330 -0.5147
   11MOL0     C 1355  10.642   0.200   3.575  0.4391  0.6029 -0.3826
   11MOL0     C 1356  10.751   0.119   3.536 -0.0853  0.1269  0.3878
   11MOL0     C 1357  10.832   0.177   3.443 -0.2713  0.4614  0.4604
   11MOL0     O 1358  10.949   0.103   3.411  0.4751  0.2179 -0.4202
   11MOL0     C 1359  11.029   0.150   3.300 -0.9697  0.1161  0.3937
   11MOL0     C 1360  11.108   0.031   3.266 -0.1024  0.2989 -0.7315
   11MOL0     C 1361  11.205   0.066   3.158 -0.0863 -0.0331 -0.3951
   11MOL0     C 1362  11.291  -0.052   3.113  0.0225  0.8965 -0.3544
   11MOL0     C 1363  11.416  -0.006   3.026  0.0456 -0.4015 -0.6027
   11MOL0     C 1364  11.481  -0.118   2.954  1.0649  0.2876 -0.3446
   11MOL0     C 1365  11.608  -0.071   2.880  0.5119 -0.4100  0.2548
   11MOL0     C 1366  11.658  -0.181   2.782  0.1376 -0.3670  0.3404
   11MOL0     N 1367  11.684  -0.309   2.845  0.7427  0.0788 -0.7241
   11MOL0     C 1368  11.676  -0.434   2.785  0.4124 -0.2613 -0.7084
   11MOL0     C 1369  11.750  -0.516   2.861  0.0686 -0.0661 -0.5573
   11MOL0     C 1370  11.764  -0.661   2.844  0.2341  0.9688 -0.9496
   11MOL0     C 1371  11.907  -0.715   2.862 -0.2993 -0.8473 -0.6719
   11MOL0     C 1372  12.016  -0.636   2.778  1.0212 -0.4698 -0.7903
   11MOL0     C 1373  12.160  -0.655   2.813 -0.4600  0.2515  0.2597
   11MOL0     O 1374  12.191  -0.798   2.833  0.3972  0.0120  0.0321
   11MOL0     C 1375  12.322  -0.829   2.851 -0.4341 -0.5748 -0.5966
   11MOL0     C 1376  12.424  -0.746   2.891  0.0455 -0.3443  0.4673
   11MOL0     C 1377  12.552  -0.802   2.913  0.2158  0.1727  0.5404
   11MOL0     C 1378  12.582  -0.935   2.899  0.0851  0.1183 -0.6004
   11MOL0     C 1379  12.714  -0.983   2.941 -1.0839  0.4157  0.1324
   11MOL0     O 1380  12.825  -0.898   2.940 -0.5414 -0.0288 -0.5948
   11MOL0     C 1381  12.947  -0.934   2.984 -0.8608  0.3470  0.7431
   11MOL0     C 1382  13.041  -0.834   2.964 -0.2203 -0.8720  0.2924
   11MOL0     C 1383  13.176  -0.845   3.012  0.2631  0.0394  1.0914
   11MOL0     C 1384  13.212  -0.951   3.094 -0.2362  1.0021  0.5813
   11MOL0     O 1385  13.330  -0.975   3.157 -0.1261 -0.2076 -0.1018
   11MOL0     C 1386  13.402  -0.852   3.199  0.8768  0.3365 -0.1631
   11MOL0     C 1387  13.532  -0.823   3.118  0.1862 -0.7285  0.5677
   11MOL0     C 1388  13.525  -0.770   2.973 -0.5104 -0.0131 -0.1877
   11MOL0     C 1389  13.665  -0.725   2.910  0.7691 -0.2484 -0.6655
   11MOL0     C 1390  13.658  -0.681   2.764  0.0635 -0.7125 -0.4523
   11MOL0     C 1391  13.549  -0.578   2.724 -0.9237  0.1016 -0.2594
   11MOL0     C 1392  13.609  -0.485   2.619 -0.8274  0.7206 -0.0051
   11MOL0     C 1393  13.508  -0.384   2.580 -0.6516  0.4214  0.6961
   11MOL0    Cl 1394  13.554  -0.310   2.423 -0.0485 -0.1976  0.3069
   11MOL0     C 1395  13.116  -1.054   3.107 -0.5083  0.0945  0.1838
   11MOL0     C 1396  12.990  -1.052   3.037 -0.0119 -0.1047 -0.5450
   11MOL0     O 1397  12.711  -1.101   2.971 -0.2397  0.5342  0.3497
   11MOL0     C 1398  12.476  -1.017   2.861 -0.2269 -0.9396 -0.2407
   11MOL0     C 1399  12.348  -0.965   2.830  0.2603 -1.3838  0.1613
   11MOL0     N 1400  11.795  -0.446   2.968 -0.1122  0.9880 -0.3864
   11MOL0     N 1401  11.763  -0.324   2.956  0.0636 -0.3249  0.2182
   11MOL0     C 1402  10.810   0.303   3.388  0.6979  0.4078 -0.2837
   11MOL0     C 1403  10.705   0.375   3.428  0.2112  0.0746 -0.5865
   11MOL0     C 1404  10.294   0.489   3.506 -0.6864 -0.3266  0.7777
   11MOL0     C 1405  10.327   0.612   3.555  0.3118  0.3971  0.3440
   11MOL0     C 1406  10.231   0.711   3.569  0.5733  0.6091  0.2410
   11MOL0     C 1407  10.101   0.692   3.508 -0.2575  0.1912 -0.5102
   11MOL0     O 1408  10.009   0.795   3.510  0.4571 -0.2898 -0.4050
   11MOL0     C 1409  10.050   0.929   3.462 -0.1442  1.0402 -0.1661
   11MOL0     C 1410   9.933   1.018   3.449  1.5628 -0.5862  0.3404
   11MOL0     C 1411   9.819   0.963   3.358 -0.5164  0.1668 -0.3893
   11MOL0     C 1412   9.694   1.039   3.368  0.2613 -0.5050 -0.5849
   11MOL0     C 1413   9.586   0.964   3.301  0.1995 -0.4517 -0.4770
   11MOL0     C 1414   9.497   0.916   3.228  0.3259  0.2290  0.5370
   11MOL0     C 1415  10.072   0.572   3.454 -0.5814  0.9668 -0.4818
   11MOL0     C 1416  10.158   0.466   3.459 -0.1987  0.1470  0.3980
   11MOL0     C 1417  10.107   0.331   3.399 -0.1122  0.2901  0.0509
   11MOL0     H 1418  10.564   0.160   3.640  0.6336 -2.0514 -1.6652
   11MOL0     H 1419  10.766   0.018   3.572 -0.1142 -0.1974 -0.4874
   11MOL0     H 1420  10.964   0.162   3.213  1.2785  0.2171 -1.3584
   11MOL0     H 1421  11.092   0.236   3.321 -2.3539  1.0863  0.7410
   11MOL0     H 1422  11.036  -0.042   3.229  0.3513  0.4997 -2.0371
   11MOL0     H 1423  11.164  -0.006   3.353  0.7439  2.0958 -0.4612
   11MOL0     H 1424  11.277   0.136   3.201  0.5446  0.0563 -1.5456
   11MOL0     H 1425  11.155   0.121   3.078 -3.0336 -1.1016  0.5823
   11MOL0     H 1426  11.334  -0.101   3.201  0.1057  2.2037  0.3469
   11MOL0     H 1427  11.229  -0.118   3.051  3.6954  0.2580 -3.7626
   11MOL0     H 1428  11.377   0.058   2.947  1.8015  0.1381 -1.0946
   11MOL0     H 1429  11.485   0.053   3.088 -3.5138  2.9059  0.5843
   11MOL0     H 1430  11.498  -0.202   3.021 -2.6317  0.2204  0.7653
   11MOL0     H 1431  11.412  -0.153   2.876  0.5383  0.2164  0.1502
   11MOL0     H 1432  11.693  -0.046   2.944  0.4281  3.2715 -0.8721
   11MOL0     H 1433  11.576   0.013   2.819  0.8587  1.0616  2.0125
   11MOL0     H 1434  11.582  -0.196   2.705  3.0626 -0.1738 -2.8112
   11MOL0     H 1435  11.753  -0.155   2.734  0.9752  0.1845  2.1676
   11MOL0     H 1436  11.609  -0.454   2.702 -0.3331  0.4294 -0.2889
   11MOL0     H 1437  11.698  -0.718   2.910  0.3977  1.3083 -0.4879
   11MOL0     H 1438  11.733  -0.686   2.742 -0.7771 -1.5520 -0.0977
   11MOL0     H 1439  11.945  -0.708   2.964  2.1543 -0.5334 -1.5293
   11MOL0     H 1440  11.914  -0.818   2.825  3.0668 -0.7190 -0.7331
   11MOL0     H 1441  12.000  -0.529   2.796 -1.7357 -1.1726  1.5457
   11MOL0     H 1442  11.983  -0.648   2.675 -2.7559  0.9207  0.1047
   11MOL0     H 1443  12.181  -0.598   2.903 -1.0932 -0.2186  0.7147
   11MOL0     H 1444  12.215  -0.622   2.724 -0.8692  1.6318  0.5027
   11MOL0     H 1445  12.400  -0.643   2.915 -0.5867 -0.0042 -1.4205
   11MOL0     H 1446  12.627  -0.726   2.936  0.0440  0.8116 -0.8777
   11MOL0     H 1447  13.021  -0.743   2.908 -1.4520 -2.5368 -2.1976
   11MOL0     H 1448  13.234  -0.756   2.990 -0.1901  0.3715  1.2173
   11MOL0     H 1449  13.337  -0.764   3.203  0.0211 -0.1406 -2.2853
   11MOL0     H 1450  13.429  -0.870   3.303  0.5727 -3.3781 -0.5960
   11MOL0     H 1451  13.590  -0.746   3.170 -0.9529  0.7127 -0.2047
   11MOL0     H 1452  13.591  -0.915   3.118  1.5662  0.1143  1.8404
   11MOL0     H 1453  13.480  -0.847   2.909 -1.3135 -0.4325  0.8627
   11MOL0     H 1454  13.460  -0.683   2.976 -1.6003 -0.8247  0.3136
   11MOL0     H 1455  13.733  -0.810   2.920  1.8206  0.8380  2.8104
   11MOL0     H 1456  13.702  -0.644   2.973 -0.7826 -0.5704  0.7309
   11MOL0     H 1457  13.664  -0.768   2.699  2.1402 -0.4022 -0.7289
   11MOL0     H 1458  13.758  -0.640   2.747  1.1598 -3.3808 -0.7892
   11MOL0     H 1459  13.458  -0.632   2.698 -0.2157 -2.4611  2.0625
   11MOL0     H 1460  13.536  -0.514   2.812  2.3307  0.6952 -0.0964
   11MOL0     H 1461  13.643  -0.541   2.531  0.2929  0.8287  0.3430
   11MOL0     H 1462  13.700  -0.434   2.651 -0.2075 -0.2982 -0.1120
   11MOL0     H 1463  13.412  -0.437   2.579  0.7030 -2.2225  1.5709
   11MOL0     H 1464  13.503  -0.300   2.650 -0.4658  0.7812  0.2832
   11MOL0     H 1465  13.140  -1.147   3.159 -2.7573  0.5742  2.1880
   11MOL0     H 1466  12.936  -1.146   3.039  2.9308 -1.9379  0.5373
   11MOL0     H 1467  12.481  -1.123   2.841  1.5304 -1.0808  0.7367
   11MOL0     H 1468  12.268  -1.028   2.794 -1.5314  0.3577  0.9331
   11MOL0     H 1469  10.889   0.359   3.338 -0.1044  0.5513 -1.4143
   11MOL0     H 1470  10.685   0.470   3.380 -3.3784  1.6839  3.4408
   11MOL0     H 1471  10.426   0.638   3.591  0.9570 -1.6266  0.1241
   11MOL0     H 1472  10.265   0.803   3.614  0.7315  0.0939  1.1967
   11MOL0     H 1473  10.105   0.919   3.368 -1.1784  1.9496 -0.8932
   11MOL0     H 1474  10.100   0.971   3.550 -1.6763  2.7077 -0.0159
   11MOL0     H 1475   9.974   1.105   3.397  2.2658 -1.6063 -0.8669
   11MOL0     H 1476   9.889   1.036   3.548 -2.8900  0.1071 -1.5239
   11MOL0     H 1477   9.803   0.859   3.389  2.6634  0.3177  2.2862
   11MOL0     H 1478   9.855   0.976   3.256 -1.7649 -2.6369 -1.2829
   11MOL0     H 1479   9.671   1.049   3.475  0.3056  0.8600 -0.6913
   11MOL0     H 1480   9.714   1.141   3.334 -0.1878  0.0660  0.7695
   11MOL0     H 1481   9.430   0.885   3.151 -0.3428 -0.5047  1.3941
   11MOL0     H 1482   9.970   0.564   3.417 -1.6100 -0.0969  2.3394
   11MOL0     H 1483  10.161   0.290   3.314  1.6144  0.5154  0.9813
   11MOL0     H 1484  10.111   0.248   3.470  0.5604  0.0298 -0.2847
   11MOL0     H 1485  10.002   0.330   3.369  0.6385 -1.7019 -2.8799
   12MOL0     O 1486   4.513   8.107   4.014 -0.5353 -0.0389 -0.1417
   12MOL0     C 1487   4.405   8.170   4.029  0.8980  0.7560 -0.2344
   12MOL0     O 1488   4.385   8.273   4.110  0.1181 -0.1588  0.0961
   12MOL0     C 1489   4.504   8.328   4.160  0.3714  0.2773 -0.6102
   12MOL0     C 1490   4.584   8.410   4.075 -0.4968  0.7442  0.4179
   12MOL0     C 1491   4.705   8.462   4.119  0.3570 -0.1027  0.2065
   12MOL0     C 1492   4.761   8.427   4.239 -0.1643  0.2186  0.3437
   12MOL0     O 1493   4.889   8.465   4.264 -0.1610 -0.1022 -0.7599
   12MOL0     C 1494   4.957   8.431   4.381  0.4790  0.3144  1.2612
   12MOL0     C 1495   5.088   8.506   4.385  0.1215  0.3421  0.0528
   12MOL0     C 1496   5.157   8.507   4.519 -0.3622  0.3477  0.0712
   12MOL0     C 1497   5.296   8.571   4.516  0.6537 -0.6711  0.3011
   12MOL0     C 1498   5.366   8.540   4.647  0.9854  0.6467  0.0147
   12MOL0     C 1499   5.512   8.590   4.648  0.0512 -0.2529 -0.0519
   12MOL0     C 1500   5.580   8.588   4.787 -0.4098 -0.1105  0.2733
   12MOL0     C 1501   5.512   8.688   4.881 -0.2531 -0.4366 -0.9210
   12MOL0     N 1502   5.565   8.672   5.016  0.1828 -0.5560 -0.2864
   12MOL0     C 1503   5.682   8.736   5.061  0.2106  0.3619 -0.2380
   12MOL0     C 1504   5.690   8.691   5.187  0.2167 -0.8257 -0.5067
   12MOL0     C 1505   5.789   8.771   5.281 -0.3966  0.0265 -0.5833
   12MOL0     C 1506   5.761   8.744   5.427 -0.6794 -0.4769  0.0431
   12MOL0     C 1507   5.854   8.835   5.525 -0.0184  0.5549  0.2771
   12MOL0     C 1508   6.004   8.822   5.506 -0.2962 -1.2547 -0.1199
   12MOL0     O 1509   6.043   8.904   5.382 -0.0522  0.0530  0.2461
   12MOL0     C 1510   6.178   8.938   5.401 -0.2538  0.1116  0.3053
   12MOL0     C 1511   6.214   9.049   5.478  0.4862 -0.0147 -0.5122
   12MOL0     C 1512   6.350   9.097   5.484  0.1485 -0.2855  0.3301
   12MOL0     C 1513   6.452   9.025   5.416  0.2839 -0.0741 -1.0253
   12MOL0     C 1514   6.595   9.070   5.407 -0.0959 -0.3248 -0.8985
   12MOL0     O 1515   6.624   9.192   5.458  0.3206 -0.2103 -0.0701
   12MOL0     C 1516   6.755   9.234   5.459 -0.0126  0.2689 -0.8069
   12MOL0     C 1517   6.849   9.159   5.518 -0.4029 -0.0888 -0.5669
   12MOL0     C 1518   6.982   9.206   5.547  0.0069 -0.6243  0.4809
   12MOL0     C 1519   7.014   9.337   5.505 -1.1199  0.3705 -0.0375
   12MOL0     O 1520   7.136   9.393   5.528 -0.1655  0.5542  0.0934
   12MOL0     C 1521   7.216   9.353   5.644  0.7353  1.0283  0.9431
   12MOL0     C 1522   7.338   9.443   5.653  0.4478 -0.2572 -0.1694
   12MOL0     C 1523   7.305   9.595   5.658  0.0494 -0.4821  0.5763
   12MOL0     C 1524   7.441   9.671   5.671  0.4455 -1.2322  0.0130
   12MOL0     C 1525   7.412   9.823   5.662 -0.2645  0.5274 -0.1878
   12MOL0     C 1526   7.357   9.883   5.790  0.0746  0.2130  0.1617
   12MOL0     C 1527   7.381  10.035   5.790  0.3547 -0.9046 -0.0851
   12MOL0     C 1528   7.351  10.088   5.938 -0.1547 -0.0913  0.6003
   12MOL0    Cl 1529   7.177  10.095   5.966  0.2224  0.2852 -0.2411
   12MOL0     C 1530   6.916   9.413   5.437 -0.4388 -0.6461  0.5664
   12MOL0     C 1531   6.786   9.358   5.410  0.1971  0.0521 -0.1274
   12MOL0     O 1532   6.678   8.990   5.368 -0.1038  0.6756  0.7836
   12MOL0     C 1533   6.411   8.908   5.348 -0.3825  0.0970  0.5713
   12MOL0     C 1534   6.279   8.875   5.336 -0.0864 -0.5836 -0.4401
   12MOL0     N 1535   5.591   8.606   5.219  0.6165 -0.1704  0.1555
   12MOL0     N 1536   5.518   8.592   5.115 -0.3349 -0.4382 -0.5850
   12MOL0     C 1537   4.680   8.340   4.328  0.7631  0.3622 -1.0874
   12MOL0     C 1538   4.548   8.304   4.288 -0.5777  0.9150  0.8414
   12MOL0     C 1539   4.291   8.126   3.940 -0.2365 -0.7039 -1.0547
   12MOL0     C 1540   4.174   8.213   3.936 -0.4419  0.2091  0.0893
   12MOL0     C 1541   4.058   8.176   3.868 -0.3647 -0.2834 -0.0236
   12MOL0     C 1542   4.061   8.058   3.791  0.6747 -0.3818 -0.3610
   12MOL0     O 1543   3.955   8.003   3.719 -0.0979  0.5521 -0.7782
   12MOL0     C 1544   3.824   8.039   3.760 -0.0043 -0.0119  1.0579
   12MOL0     C 1545   3.726   7.934   3.706 -0.0356 -0.1027  0.4552
   12MOL0     C 1546   3.707   7.811   3.796  0.4189  0.0190  0.1600
   12MOL0     C 1547   3.652   7.694   3.727 -0.3182 -0.4912  0.5648
   12MOL0     C 1548   3.538   7.735   3.631  0.5193  0.1720  0.1493
   12MOL0     C 1549   3.435   7.774   3.577  0.5439 -0.7083  0.5384
   12MOL0     C 1550   4.167   7.975   3.805  0.3604 -0.3863  0.7012
   12MOL0     C 1551   4.284   8.006   3.867  0.2225 -0.2511 -0.1601
   12MOL0     C 1552   4.396   7.905   3.858 -0.5726  0.0855  0.2327
   12MOL0     H 1553   4.532   8.442   3.986 -0.7408 -1.9425 -0.4921
   12MOL0     H 1554   4.757   8.520   4.043 -1.3269 -0.0509 -0.9693
   12MOL0     H 1555   4.894   8.444   4.469 -1.2973 -1.3146  0.3175
   12MOL0     H 1556   4.978   8.324   4.377  1.0993  0.4028  1.9223
   12MOL0     H 1557   5.054   8.605   4.354 -3.5060 -1.0130 -0.7505
   12MOL0     H 1558   5.154   8.458   4.311  0.6944 -0.1220  0.8457
   12MOL0     H 1559   5.165   8.404   4.554  0.8294 -0.4119 -2.2227
   12MOL0     H 1560   5.098   8.565   4.590 -1.8514 -0.8053 -0.1757
   12MOL0     H 1561   5.359   8.528   4.438 -0.3788 -2.6312  0.4585
   12MOL0     H 1562   5.283   8.679   4.510  2.1714 -0.4777  0.1617
   12MOL0     H 1563   5.302   8.574   4.729 -1.4861 -1.1622 -1.0665
   12MOL0     H 1564   5.371   8.431   4.659  1.0367  0.6867  0.3973
   12MOL0     H 1565   5.574   8.529   4.582  0.1480  0.9908 -1.1774
   12MOL0     H 1566   5.519   8.693   4.610  4.3321  1.0791  3.5049
   12MOL0     H 1567   5.687   8.604   4.775 -0.4160 -0.8850 -0.9912
   12MOL0     H 1568   5.562   8.490   4.830 -0.8822 -0.1013  0.1102
   12MOL0     H 1569   5.529   8.791   4.847 -0.8163 -0.5669 -1.6150
   12MOL0     H 1570   5.404   8.675   4.887 -0.2324  0.1851  2.5724
   12MOL0     H 1571   5.736   8.816   5.011 -1.1611  0.9195 -0.8914
   12MOL0     H 1572   5.891   8.737   5.262 -0.3615 -0.4043  0.3400
   12MOL0     H 1573   5.779   8.879   5.265 -3.4354 -0.3905 -2.2927
   12MOL0     H 1574   5.659   8.775   5.452 -0.6953 -1.2186  0.9701
   12MOL0     H 1575   5.784   8.641   5.455  1.9157  0.2813  0.9768
   12MOL0     H 1576   5.831   8.809   5.629  2.5879  1.6713  1.2122
   12MOL0     H 1577   5.829   8.941   5.512 -0.6335  0.1223 -2.7218
   12MOL0     H 1578   6.050   8.724   5.499  1.3949 -0.6872  1.9506
   12MOL0     H 1579   6.045   8.861   5.600 -0.8362  1.8522 -1.0300
   12MOL0     H 1580   6.136   9.103   5.532  1.5324  0.4311  0.5950
   12MOL0     H 1581   6.376   9.185   5.542  1.4226 -0.5897  0.2482
   12MOL0     H 1582   6.832   9.058   5.555  2.8802 -0.5768 -0.0732
   12MOL0     H 1583   7.062   9.138   5.577 -2.1615 -3.4432  0.2992
   12MOL0     H 1584   7.146   9.370   5.726 -1.6784 -1.2393 -0.4905
   12MOL0     H 1585   7.241   9.247   5.639 -1.3303  0.4699  1.6113
   12MOL0     H 1586   7.388   9.412   5.745 -3.2046 -1.4521  1.5581
   12MOL0     H 1587   7.399   9.423   5.564  1.2504  0.0664  0.2951
   12MOL0     H 1588   7.241   9.629   5.576 -0.4481  2.3026  1.9874
   12MOL0     H 1589   7.248   9.618   5.749 -0.6838  0.9405 -0.1967
   12MOL0     H 1590   7.511   9.632   5.597 -0.1015 -0.7969 -0.7484
   12MOL0     H 1591   7.486   9.648   5.768  1.8834 -0.4726 -0.4537
   12MOL0     H 1592   7.335   9.840   5.586  0.3876 -0.8020 -1.1688
   12MOL0     H 1593   7.501   9.875   5.623 -0.1580 -1.1638 -2.4039
   12MOL0     H 1594   7.255   9.849   5.809  0.8478 -3.1266 -0.8652
   12MOL0     H 1595   7.416   9.829   5.865  1.4494  0.9863 -0.3317
   12MOL0     H 1596   7.315  10.096   5.728  0.5885  2.4346  2.6735
   12MOL0     H 1597   7.484  10.056   5.759  0.3777  1.5448  1.4160
   12MOL0     H 1598   7.395  10.019   6.010 -1.1121 -1.5703 -0.1692
   12MOL0     H 1599   7.395  10.187   5.955  0.1339  0.1658 -1.3728
   12MOL0     H 1600   6.942   9.511   5.396 -0.4005 -1.4461 -1.4533
   12MOL0     H 1601   6.718   9.420   5.352  2.0572  1.1576 -1.1980
   12MOL0     H 1602   6.475   8.847   5.284 -2.9358 -2.4624  0.2250
   12MOL0     H 1603   6.252   8.794   5.268  1.3645  0.5229 -2.4401
   12MOL0     H 1604   4.719   8.303   4.423 -0.4097  0.0670 -0.7098
   12MOL0     H 1605   4.486   8.253   4.360 -1.3833  0.4430 -0.1580
   12MOL0     H 1606   4.165   8.297   4.003 -1.8886 -0.9993  1.4939
   12MOL0     H 1607   3.975   8.245   3.872  1.4283  1.9345  0.9824
   12MOL0     H 1608   3.792   8.136   3.720  1.2025 -0.0035  0.0362
   12MOL0     H 1609   3.817   8.036   3.869 -2.4792 -0.6044  0.9338
   12MOL0     H 1610   3.758   7.921   3.603  0.6282  3.1848  0.1418
   12MOL0     H 1611   3.628   7.983   3.695  0.8469  1.1980 -2.6120
   12MOL0     H 1612   3.638   7.838   3.876  1.7255  0.3844  1.1979
   12MOL0     H 1613   3.799   7.775   3.842  1.0868  0.0057 -1.1349
   12MOL0     H 1614   3.729   7.645   3.666  1.3674  1.9147  0.6014
   12MOL0     H 1615   3.622   7.617   3.798 -0.4432  0.2922  1.3698
   12MOL0     H 1616   3.349   7.808   3.523  0.7010  0.0012  0.7272
   12MOL0     H 1617   4.157   7.881   3.753  0.1442  1.1008 -2.1010
   12MOL0     H 1618   4.436   7.874   3.955 -2.1286 -1.3499  0.4662
   12MOL0     H 1619   4.380   7.811   3.804  2.8262  0.2051 -1.2393
   12MOL0     H 1620   4.478   7.952   3.804 -1.4004  1.1487 -0.1379
   13MOL0     O 1621   7.952   1.848   1.594  0.3630  0.4233  0.0712
   13MOL0     C 1622   7.924   1.748   1.663  0.6898 -0.4397  0.2878
   13MOL0     O 1623   8.013   1.675   1.738 -0.1095  0.4528 -0.2323
   13MOL0     C 1624   8.134   1.719   1.779 -0.6099  0.7593 -0.5927
   13MOL0     C 1625   8.208   1.826   1.730 -0.0493  0.6186 -0.1756
   13MOL0     C 1626   8.338   1.852   1.777 -0.8481  0.3132 -0.6021
   13MOL0     C 1627   8.393   1.776   1.882 -0.6797  0.3539  0.2424
   13MOL0     O 1628   8.514   1.811   1.932 -0.3772  1.0212 -0.2923
   13MOL0     C 1629   8.614   1.709   1.929 -0.7272 -0.6183  0.1868
   13MOL0     C 1630   8.767   1.760   1.947  0.5311  0.7204 -0.4557
   13MOL0     C 1631   8.794   1.803   2.092 -0.3955 -0.8809 -0.0295
   13MOL0     C 1632   8.945   1.831   2.108  0.5864  0.0047  0.2984
   13MOL0     C 1633   8.988   1.880   2.246 -0.5078 -0.3887  0.4079
   13MOL0     C 1634   9.141   1.873   2.255 -0.8115  0.3266 -0.0346
   13MOL0     C 1635   9.201   1.978   2.156  0.2707 -0.8854  0.0209
   13MOL0     C 1636   9.351   1.969   2.168  0.4188 -0.2973 -0.4415
   13MOL0     N 1637   9.409   2.004   2.300 -0.4730 -0.6567  0.5609
   13MOL0     C 1638   9.479   1.917   2.380  0.2345 -0.0449 -0.0203
   13MOL0     C 1639   9.529   1.995   2.480  0.2745 -0.1616 -0.3868
   13MOL0     C 1640   9.611   1.949   2.594  1.1468  0.4364  0.1147
   13MOL0     C 1641   9.760   1.990   2.580 -0.8919 -0.5254 -0.2938
   13MOL0     C 1642   9.775   2.136   2.616 -0.2763  0.9103  0.2429
   13MOL0     C 1643   9.812   2.217   2.487 -0.1447 -0.0405  0.1745
   13MOL0     O 1644   9.949   2.185   2.437 -0.2933  0.6154 -0.4096
   13MOL0     C 1645  10.059   2.239   2.496 -0.3937 -0.4672 -0.4903
   13MOL0     C 1646  10.059   2.346   2.589  0.4141  0.7026 -0.1676
   13MOL0     C 1647  10.175   2.391   2.653 -0.1120  0.0876 -0.2144
   13MOL0     C 1648  10.302   2.345   2.599  0.4228 -0.6254  0.3461
   13MOL0     C 1649  10.426   2.404   2.648  0.1807 -0.2110 -0.3527
   13MOL0     O 1650  10.421   2.497   2.755 -0.1223  0.0879  0.5125
   13MOL0     C 1651  10.547   2.548   2.793  0.0208  1.0268  0.5181
   13MOL0     C 1652  10.591   2.678   2.774 -0.4383 -0.4064  0.3393
   13MOL0     C 1653  10.716   2.725   2.828 -0.3992 -0.4915 -0.3517
   13MOL0     C 1654  10.799   2.638   2.901 -0.2871 -0.4594 -0.1605
   13MOL0     O 1655  10.924   2.679   2.928 -0.0787  0.0578 -0.4734
   13MOL0     C 1656  11.028   2.589   2.896 -0.3227 -0.2304 -0.4859
   13MOL0     C 1657  11.154   2.622   2.979  0.4495 -0.1847 -0.0496
   13MOL0     C 1658  11.250   2.711   2.899 -0.3173  0.0306  0.5296
   13MOL0     C 1659  11.388   2.728   2.967  0.5660  0.9799  0.5080
   13MOL0     C 1660  11.497   2.788   2.878 -0.0367  0.5151  0.1642
   13MOL0     C 1661  11.639   2.793   2.935 -0.6346  0.8971 -0.3888
   13MOL0     C 1662  11.645   2.813   3.088 -0.2678 -0.0633  0.1177
   13MOL0     C 1663  11.776   2.833   3.153 -1.3388  0.1838 -0.7343
   13MOL0    Cl 1664  11.892   2.709   3.126  0.0897 -0.2153  0.5099
   13MOL0     C 1665  10.752   2.507   2.932  0.4451  0.1616 -0.2106
   13MOL0     C 1666  10.628   2.472   2.881  0.4954  0.8599 -0.1760
   13MOL0     O 1667  10.536   2.366   2.599  0.3314 -0.6195 -0.2554
   13MOL0     C 1668  10.301   2.248   2.497 -0.1285  0.3244  0.2752
   13MOL0     C 1669  10.183   2.196   2.448  0.1318  0.0394 -0.4513
   13MOL0     N 1670   9.474   2.119   2.452 -0.1194  0.0332 -0.3461
   13MOL0     N 1671   9.401   2.128   2.347 -0.8237  0.3755  0.2056
   13MOL0     C 1672   8.318   1.668   1.934 -0.5029 -0.2808 -0.0633
   13MOL0     C 1673   8.185   1.645   1.890 -0.0310  0.5024  0.2007
   13MOL0     C 1674   7.794   1.685   1.639  0.1773 -0.1483  0.0436
   13MOL0     C 1675   7.697   1.775   1.582  0.4576 -0.4976  0.8570
   13MOL0     C 1676   7.569   1.726   1.553 -0.0545  0.2379  0.3791
   13MOL0     C 1677   7.528   1.594   1.580  0.0757 -0.8846 -0.7741
   13MOL0     O 1678   7.414   1.529   1.545  0.9256  0.5998 -0.7879
   13MOL0     C 1679   7.310   1.609   1.499 -0.0051 -0.3528  0.4258
   13MOL0     C 1680   7.177   1.534   1.500  0.1957 -0.7165 -0.3429
   13MOL0     C 1681   7.098   1.581   1.374  0.0390 -0.3995 -0.0646
   13MOL0     C 1682   6.958   1.520   1.354  0.4811  0.3031  0.7204
   13MOL0     C 1683   6.873   1.541   1.472 -0.2581  0.6263  0.1605
   13MOL0     C 1684   6.800   1.583   1.556 -0.3788 -0.0657  0.1694
   13MOL0     C 1685   7.631   1.508   1.626  0.3426  0.2354  0.3681
   13MOL0     C 1686   7.759   1.551   1.658  0.2914 -0.2205 -0.0249
   13MOL0     C 1687   7.854   1.438   1.681 -0.6775 -0.8729 -0.5999
   13MOL0     H 1688   8.170   1.884   1.647 -1.7409 -0.4909 -0.2210
   13MOL0     H 1689   8.401   1.932   1.739  0.8247 -0.4707  0.3772
   13MOL0     H 1690   8.589   1.637   2.007  1.2702  0.6438  2.1203
   13MOL0     H 1691   8.614   1.663   1.830 -2.2862 -1.1850  0.4263
   13MOL0     H 1692   8.786   1.839   1.874 -0.7070  2.2505  0.7795
   13MOL0     H 1693   8.832   1.674   1.930  0.7235  1.1839 -2.2301
   13MOL0     H 1694   8.762   1.721   2.158 -0.8826  0.3658  1.3405
   13MOL0     H 1695   8.726   1.888   2.106 -1.5863 -1.6525 -0.9539
   13MOL0     H 1696   9.013   1.749   2.082  1.5849  0.2597  1.9635
   13MOL0     H 1697   8.964   1.914   2.040  0.3443 -1.4373 -1.6104
   13MOL0     H 1698   8.946   1.979   2.265 -3.4307 -1.2643 -0.9747
   13MOL0     H 1699   8.958   1.814   2.328  0.5260  0.8275  1.8338
   13MOL0     H 1700   9.173   1.902   2.355  0.0969 -0.8724  0.0521
   13MOL0     H 1701   9.186   1.775   2.234 -1.1893  0.2291 -0.4251
   13MOL0     H 1702   9.163   2.076   2.187 -0.3627 -0.5160 -1.7795
   13MOL0     H 1703   9.167   1.960   2.054 -1.0194  2.0564 -0.1864
   13MOL0     H 1704   9.388   1.871   2.134 -1.8277 -1.5582  0.5399
   13MOL0     H 1705   9.406   2.037   2.101  0.1680 -0.5604 -0.9253
   13MOL0     H 1706   9.485   1.808   2.377  3.8095  0.0320 -0.2204
   13MOL0     H 1707   9.569   1.990   2.686 -0.2638 -2.4236  0.8479
   13MOL0     H 1708   9.606   1.840   2.597 -1.2398  0.4915 -0.0720
   13MOL0     H 1709   9.817   1.933   2.654  1.3733 -2.6520 -3.4423
   13MOL0     H 1710   9.805   1.971   2.483  3.5764 -2.6600  1.9000
   13MOL0     H 1711   9.857   2.161   2.684 -0.3907 -0.3140  0.8413
   13MOL0     H 1712   9.688   2.176   2.669  0.5432  2.3996  0.5099
   13MOL0     H 1713   9.804   2.325   2.500 -1.5457 -0.2393  1.1084
   13MOL0     H 1714   9.739   2.183   2.413  0.1445 -2.9043  1.0617
   13MOL0     H 1715   9.968   2.390   2.628  0.3238  1.7393 -1.4812
   13MOL0     H 1716  10.179   2.475   2.722 -2.2777  2.3426 -2.5656
   13MOL0     H 1717  10.527   2.741   2.712  0.9985 -1.4827 -2.4067
   13MOL0     H 1718  10.753   2.823   2.798  1.6316 -1.4098 -1.0739
   13MOL0     H 1719  11.000   2.486   2.920 -0.3283 -0.3669 -1.0718
   13MOL0     H 1720  11.057   2.581   2.791  1.3114  1.9293 -0.2693
   13MOL0     H 1721  11.135   2.674   3.073  1.5583 -1.5436  0.9692
   13MOL0     H 1722  11.185   2.519   2.996  1.8606  0.1033 -0.7282
   13MOL0     H 1723  11.267   2.669   2.799 -0.6582 -2.2494  1.3583
   13MOL0     H 1724  11.205   2.808   2.876 -0.6428 -0.0881  0.6583
   13MOL0     H 1725  11.429   2.629   2.988 -2.9952 -1.1582 -1.4636
   13MOL0     H 1726  11.391   2.778   3.064  0.9716  0.7081  0.6347
   13MOL0     H 1727  11.473   2.888   2.839 -0.5581 -0.4033 -2.0026
   13MOL0     H 1728  11.487   2.716   2.797  1.2056 -2.6103  2.5794
   13MOL0     H 1729  11.683   2.698   2.905  0.8454  0.9835  1.2914
   13MOL0     H 1730  11.701   2.871   2.890  0.6736  0.1456  0.0461
   13MOL0     H 1731  11.598   2.726   3.136 -2.2974 -0.3952 -2.2705
   13MOL0     H 1732  11.580   2.892   3.127  1.0294  1.8710 -1.4616
   13MOL0     H 1733  11.813   2.932   3.127  0.0742  0.6792  2.5951
   13MOL0     H 1734  11.771   2.832   3.262 -0.5773  0.1011 -0.6910
   13MOL0     H 1735  10.811   2.439   2.992  3.4142  0.8391 -2.1292
   13MOL0     H 1736  10.589   2.371   2.894  2.6743 -0.0851 -0.4395
   13MOL0     H 1737  10.395   2.221   2.451 -0.4215 -1.6594  0.7371
   13MOL0     H 1738  10.191   2.134   2.360 -2.5379  1.4171 -1.7823
   13MOL0     H 1739   8.357   1.616   2.022 -0.7934  0.1879  0.3505
   13MOL0     H 1740   8.118   1.567   1.923 -2.1095  1.8412 -0.6126
   13MOL0     H 1741   7.724   1.878   1.563  1.7595 -0.6786  1.6398
   13MOL0     H 1742   7.495   1.803   1.533 -0.3042  0.1215  0.8634
   13MOL0     H 1743   7.333   1.645   1.399  0.8672  1.2756  1.1841
   13MOL0     H 1744   7.301   1.702   1.555 -2.2203 -0.0019 -0.4041
   13MOL0     H 1745   7.125   1.549   1.595  1.4461 -0.2776  0.2869
   13MOL0     H 1746   7.208   1.431   1.480  1.0103 -0.5026 -0.2077
   13MOL0     H 1747   7.160   1.554   1.288  2.4970  5.1854 -0.5206
   13MOL0     H 1748   7.084   1.690   1.376  2.8415  0.0337  0.6424
   13MOL0     H 1749   6.900   1.550   1.267 -0.2381 -2.8213 -0.0138
   13MOL0     H 1750   6.973   1.413   1.337  1.6266  0.9760 -3.5266
   13MOL0     H 1751   6.734   1.613   1.635  0.3831  0.9093  0.4523
   13MOL0     H 1752   7.603   1.403   1.629 -0.7410  0.5283  0.9378
   13MOL0     H 1753   7.925   1.429   1.598  2.2820  1.5771  1.4603
   13MOL0     H 1754   7.908   1.469   1.771 -1.6569 -1.4918  0.2252
   13MOL0     H 1755   7.810   1.341   1.707 -0.9846 -0.3824  0.7894
   14MOL0     O 1756   4.538   7.230   2.801  0.0382  0.8330  0.0477
   14MOL0     C 1757   4.481   7.335   2.790  1.1306  0.9952 -0.1741
   14MOL0     O 1758   4.533   7.441   2.718  1.1950 -0.2762 -0.2561
   14MOL0     C 1759   4.640   7.407   2.635  0.8634  0.1960 -0.6422
   14MOL0     C 1760   4.618   7.416   2.499 -0.0497 -0.0871 -0.2509
   14MOL0     C 1761   4.718   7.373   2.415 -0.3067 -0.4323  0.4854
   14MOL0     C 1762   4.833   7.310   2.466 -1.1283  0.7902  0.4089
   14MOL0     O 1763   4.912   7.250   2.374 -0.8654 -0.1903  0.0323
   14MOL0     C 1764   4.913   7.102   2.396 -0.7143  0.0251 -0.8252
   14MOL0     C 1765   5.034   7.031   2.343  0.3995 -0.0233 -0.3971
   14MOL0     C 1766   5.153   7.105   2.386  1.0104 -0.7022 -0.3695
   14MOL0     C 1767   5.274   7.026   2.364  0.4757 -0.0260 -0.3521
   14MOL0     C 1768   5.397   7.087   2.437 -0.5611 -0.3321 -0.0671
   14MOL0     C 1769   5.531   7.013   2.399 -0.4867 -0.9181 -0.0654
   14MOL0     C 1770   5.648   7.092   2.454  0.0119  0.0007 -0.1575
   14MOL0     C 1771   5.776   7.012   2.442  1.1666 -0.7034 -0.0658
   14MOL0     N 1772   5.865   7.067   2.550  0.2912  0.1784 -0.6679
   14MOL0     C 1773   5.971   7.156   2.524  0.2404  0.1418  0.6672
   14MOL0     C 1774   6.043   7.145   2.644 -0.0754  0.4919  0.1139
   14MOL0     C 1775   6.171   7.231   2.664 -0.0455  0.2406 -0.3733
   14MOL0     C 1776   6.306   7.153   2.663  1.3762  0.9848  0.5340
   14MOL0     C 1777   6.411   7.205   2.764 -0.3548  0.9733 -0.3333
   14MOL0     C 1778   6.493   7.323   2.707 -0.5310  0.1652  0.3909
   14MOL0     O 1779   6.590   7.368   2.802  0.6368 -0.0645  0.7148
   14MOL0     C 1780   6.694   7.446   2.761  0.3141 -0.4759  0.4843
   14MOL0     C 1781   6.784   7.492   2.865  0.1020  1.0585  1.3157
   14MOL0     C 1782   6.890   7.579   2.831 -0.2360  0.1257  0.2783
   14MOL0     C 1783   6.918   7.628   2.700  0.0088  0.5361  1.4164
   14MOL0     C 1784   7.036   7.698   2.669 -0.4954  0.4590 -0.6942
   14MOL0     O 1785   7.077   7.791   2.760 -0.7539 -0.2534  0.6654
   14MOL0     C 1786   7.169   7.894   2.729 -0.0453  0.3040  0.5325
   14MOL0     C 1787   7.161   7.972   2.614  0.7643  0.3806 -0.6936
   14MOL0     C 1788   7.257   8.078   2.598  0.0490 -0.6264  0.2386
   14MOL0     C 1789   7.344   8.115   2.699 -0.0395 -0.0268  0.6455
   14MOL0     O 1790   7.436   8.219   2.671  0.3891 -0.1266  0.0982
   14MOL0     C 1791   7.501   8.272   2.790  0.5566  0.5305 -0.0929
   14MOL0     C 1792   7.576   8.404   2.756 -0.0198  0.6441  0.2140
   14MOL0     C 1793   7.721   8.391   2.719  0.4789 -0.1406  0.9570
   14MOL0     C 1794   7.776   8.538   2.714 -0.2454  0.1154 -0.1242
   14MOL0     C 1795   7.928   8.545   2.681  0.2172 -0.1417 -0.1923
   14MOL0     C 1796   7.980   8.688   2.700 -0.2784  0.4849 -0.4160
   14MOL0     C 1797   7.949   8.769   2.575  0.2252  0.2241  1.1025
   14MOL0     C 1798   7.846   8.884   2.609  0.4135  0.5044  0.3203
   14MOL0    Cl 1799   7.911   9.006   2.719  0.2390 -0.1193 -0.0825
   14MOL0     C 1800   7.339   8.036   2.817 -0.5210 -0.1331  0.0975
   14MOL0     C 1801   7.263   7.925   2.827  0.5048  0.0182 -0.0016
   14MOL0     O 1802   7.085   7.678   2.561 -0.2091  1.1459  0.0761
   14MOL0     C 1803   6.832   7.574   2.598 -0.0029 -0.6681 -0.2939
   14MOL0     C 1804   6.720   7.491   2.627  0.1867 -0.2888 -0.7075
   14MOL0     N 1805   5.993   7.048   2.720  0.0782  0.3434 -1.0322
   14MOL0     N 1806   5.879   7.005   2.671 -0.0087  0.1437  0.3374
   14MOL0     C 1807   4.856   7.308   2.602  0.3101 -0.1233 -0.4014
   14MOL0     C 1808   4.760   7.358   2.681  0.6040 -0.7149 -0.8972
   14MOL0     C 1809   4.340   7.360   2.841 -0.4255 -0.1462  0.1550
   14MOL0     C 1810   4.301   7.273   2.942  0.1716  0.1068  0.0239
   14MOL0     C 1811   4.175   7.284   3.002 -0.2796  0.1368 -0.0327
   14MOL0     C 1812   4.083   7.372   2.965 -0.3377 -0.2853 -0.6732
   14MOL0     O 1813   3.960   7.375   3.030 -0.1514  0.4138  0.5408
   14MOL0     C 1814   3.873   7.486   3.019 -0.3788  0.7865 -0.5848
   14MOL0     C 1815   3.740   7.456   3.083 -0.7963 -0.3666  0.8104
   14MOL0     C 1816   3.631   7.411   2.980  0.1973  0.8430 -0.6977
   14MOL0     C 1817   3.500   7.462   3.037  0.6977  0.3408 -0.3590
   14MOL0     C 1818   3.389   7.414   2.948  0.3088 -0.8379  1.1067
   14MOL0     C 1819   3.294   7.396   2.871 -0.5387  0.0730  0.0286
   14MOL0     C 1820   4.121   7.465   2.865  0.1145  0.1697 -0.1886
   14MOL0     C 1821   4.243   7.449   2.796  0.1726  0.8233 -0.4502
   14MOL0     C 1822   4.273   7.530   2.679 -0.4493 -0.1462  0.2630
   14MOL0     H 1823   4.526   7.450   2.452 -1.0564 -2.1566  0.0633
   14MOL0     H 1824   4.698   7.377   2.308  2.7224  1.7851 -0.1375
   14MOL0     H 1825   4.904   7.063   2.498  2.9727  0.2891 -0.2632
   14MOL0     H 1826   4.822   7.070   2.343  0.2923  0.1122 -2.6836
   14MOL0     H 1827   5.031   7.038   2.234  2.3591  0.6404 -0.4447
   14MOL0     H 1828   5.041   6.927   2.375  0.6385 -0.1668 -0.9117
   14MOL0     H 1829   5.144   7.123   2.494 -1.0189 -0.2443 -0.5697
   14MOL0     H 1830   5.166   7.201   2.335  0.8118  0.8281  2.2594
   14MOL0     H 1831   5.270   6.927   2.409  2.0126 -0.6400 -1.5051
   14MOL0     H 1832   5.279   7.011   2.256 -0.8346  2.5593 -0.8696
   14MOL0     H 1833   5.411   7.195   2.424  0.4587 -0.0231  2.8774
   14MOL0     H 1834   5.385   7.077   2.545 -0.7556  1.5860  0.1301
   14MOL0     H 1835   5.523   6.907   2.427  0.3852 -1.1645 -0.6830
   14MOL0     H 1836   5.546   7.016   2.290  0.4524  0.0385  0.0806
   14MOL0     H 1837   5.626   7.103   2.560 -0.3379 -1.2759 -0.0790
   14MOL0     H 1838   5.657   7.192   2.412 -0.4600  0.6881  1.3243
   14MOL0     H 1839   5.754   6.905   2.452 -1.5892 -0.1811  0.0116
   14MOL0     H 1840   5.824   7.018   2.344  0.6835 -1.7318 -0.3851
   14MOL0     H 1841   5.995   7.216   2.437 -2.3087 -0.5128 -0.5796
   14MOL0     H 1842   6.168   7.309   2.588 -0.5691 -0.0787 -0.6855
   14MOL0     H 1843   6.151   7.274   2.762 -0.9571  1.1595 -0.9481
   14MOL0     H 1844   6.287   7.046   2.678 -3.1745  1.0254 -2.8923
   14MOL0     H 1845   6.347   7.156   2.562  0.2784 -1.1308 -0.0297
   14MOL0     H 1846   6.473   7.118   2.786 -0.4099  0.8549 -0.6441
   14MOL0     H 1847   6.376   7.243   2.861  1.8467 -0.7264  1.2069
   14MOL0     H 1848   6.419   7.400   2.684  0.7446  0.4841 -3.3774
   14MOL0     H 1849   6.539   7.303   2.610  0.5655  1.9353  0.4883
   14MOL0     H 1850   6.778   7.460   2.969  0.6055  0.5955  1.2076
   14MOL0     H 1851   6.956   7.617   2.908  0.5434  3.0522 -1.6430
   14MOL0     H 1852   7.088   7.937   2.542 -0.6999  1.7304  0.0889
   14MOL0     H 1853   7.258   8.132   2.503  2.1506 -1.2376 -0.1478
   14MOL0     H 1854   7.431   8.299   2.870  0.1940 -3.5883  1.2299
   14MOL0     H 1855   7.565   8.191   2.827 -2.8515 -1.8288  1.1371
   14MOL0     H 1856   7.513   8.458   2.685  0.6429  0.1781 -0.7452
   14MOL0     H 1857   7.569   8.473   2.841 -1.1096 -0.7879  1.3232
   14MOL0     H 1858   7.778   8.332   2.791  0.9376  2.0143  2.4560
   14MOL0     H 1859   7.740   8.344   2.622  1.9032 -0.9239  1.5880
   14MOL0     H 1860   7.763   8.565   2.819 -2.7085  1.0843 -0.6135
   14MOL0     H 1861   7.726   8.599   2.639  0.8205  2.7248  1.1369
   14MOL0     H 1862   7.952   8.498   2.585 -1.4304 -0.5038 -0.4648
   14MOL0     H 1863   7.966   8.473   2.754 -3.3296 -0.7910  1.2143
   14MOL0     H 1864   7.938   8.733   2.791 -1.2998 -0.5162 -0.3688
   14MOL0     H 1865   8.089   8.683   2.700 -0.2798 -1.0288  1.3772
   14MOL0     H 1866   7.903   8.711   2.495 -2.8511  1.2408  1.9973
   14MOL0     H 1867   8.045   8.810   2.544  0.8226 -1.8656  0.0338
   14MOL0     H 1868   7.812   8.931   2.516  1.4352  0.1373 -0.2452
   14MOL0     H 1869   7.760   8.834   2.656  2.1377 -2.6971  0.2878
   14MOL0     H 1870   7.412   8.048   2.896 -0.0204 -1.6042 -0.1066
   14MOL0     H 1871   7.262   7.866   2.919  2.1593 -0.4363 -0.2391
   14MOL0     H 1872   6.851   7.602   2.495  0.8981 -0.8159 -0.1742
   14MOL0     H 1873   6.650   7.465   2.549 -1.5608 -0.7422  0.9177
   14MOL0     H 1874   4.947   7.269   2.646  0.5699 -0.0698 -0.8851
   14MOL0     H 1875   4.770   7.354   2.789 -1.6869 -0.0672 -0.6215
   14MOL0     H 1876   4.375   7.210   2.989  2.8128  2.4309 -0.7684
   14MOL0     H 1877   4.150   7.219   3.085 -0.4060  0.3092  0.0645
   14MOL0     H 1878   3.861   7.502   2.911 -0.2645  1.8510 -0.4499
   14MOL0     H 1879   3.931   7.565   3.069  2.1344 -1.3662  0.1070
   14MOL0     H 1880   3.706   7.545   3.138 -3.6364 -0.9436  0.1724
   14MOL0     H 1881   3.750   7.370   3.149 -1.4388 -0.4535  0.8002
   14MOL0     H 1882   3.622   7.302   2.979 -0.8595  0.9211 -0.7239
   14MOL0     H 1883   3.653   7.441   2.877  0.9542  2.4214 -0.1043
   14MOL0     H 1884   3.486   7.418   3.136  0.9116  2.4366  0.6592
   14MOL0     H 1885   3.494   7.571   3.041 -0.3264  0.2764 -0.0092
   14MOL0     H 1886   3.221   7.379   2.795 -0.7800  0.5517  0.1535
   14MOL0     H 1887   4.054   7.540   2.825  0.0529  0.6501  0.7997
   14MOL0     H 1888   4.348   7.605   2.704  0.5261 -0.4234 -1.6465
   14MOL0     H 1889   4.304   7.471   2.592 -2.3729  0.6466 -0.9976
   14MOL0     H 1890   4.182   7.583   2.653 -0.1449  0.9808  1.3951
   15MOL0     O 1891   2.487   0.249   6.539 -0.1131 -0.3906  0.7510
   15MOL0     C 1892   2.383   0.192   6.536 -0.3986 -0.0050 -0.5756
   15MOL0     O 1893   2.366   0.076   6.599 -0.0027  0.4802 -0.2116
   15MOL0     C 1894   2.472  -0.002   6.629  0.1760  0.3094 -0.1214
   15MOL0     C 1895   2.450  -0.091   6.737 -0.2823  0.0015 -0.8129
   15MOL0     C 1896   2.539  -0.192   6.764  0.7475  1.2817 -0.7881
   15MOL0     C 1897   2.666  -0.206   6.702  0.2741 -0.1704 -0.0722
   15MOL0     O 1898   2.736  -0.306   6.742 -1.0217  0.5175  0.6531
   15MOL0     C 1899   2.865  -0.313   6.691 -0.2167 -0.4861  0.3596
   15MOL0     C 1900   2.950  -0.389   6.784 -0.0290 -1.4825 -0.7625
   15MOL0     C 1901   2.915  -0.535   6.788  0.1177 -0.9899  0.4970
   15MOL0     C 1902   3.021  -0.631   6.824 -0.1380 -0.3730 -0.5858
   15MOL0     C 1903   3.005  -0.716   6.946 -0.7360  0.4408 -0.6567
   15MOL0     C 1904   3.140  -0.760   7.011  0.0617  0.3824 -0.4401
   15MOL0     C 1905   3.124  -0.870   7.124 -0.4482  0.1853  0.4272
   15MOL0     C 1906   3.088  -0.808   7.254  0.1230  0.1497  0.0739
   15MOL0     N 1907   3.205  -0.771   7.329 -0.1860 -0.5517 -0.0885
   15MOL0     C 1908   3.285  -0.852   7.400 -0.6891 -0.2843  0.2930
   15MOL0     C 1909   3.382  -0.766   7.437 -0.5712 -0.1447 -0.1663
   15MOL0     C 1910   3.497  -0.816   7.525  0.5710  0.3367  0.5058
   15MOL0     C 1911   3.578  -0.930   7.458 -0.0496 -0.4058 -0.0501
   15MOL0     C 1912   3.690  -0.968   7.566 -0.2249 -0.6506  0.1288
   15MOL0     C 1913   3.767  -1.083   7.523  0.4900 -1.0512 -0.7959
   15MOL0     O 1914   3.849  -1.124   7.633 -0.2844  0.0424  0.3943
   15MOL0     C 1915   3.988  -1.093   7.639 -0.0337  0.8795 -0.1104
   15MOL0     C 1916   4.070  -1.125   7.530 -0.5115  0.0911 -0.2348
   15MOL0     C 1917   4.214  -1.100   7.540  0.6200  0.5876  0.0172
   15MOL0     C 1918   4.274  -1.052   7.659 -1.1606 -0.4370 -0.3632
   15MOL0     C 1919   4.425  -1.038   7.683  0.3002  0.2361  0.4825
   15MOL0     O 1920   4.464  -1.010   7.807  0.3142  0.1718 -0.5549
   15MOL0     C 1921   4.598  -1.001   7.827  0.5323 -0.1067  0.0699
   15MOL0     C 1922   4.658  -1.091   7.908 -0.5815  0.1620  0.8643
   15MOL0     C 1923   4.798  -1.099   7.923  0.3741  0.6991  0.6314
   15MOL0     C 1924   4.876  -0.997   7.859  0.2705 -0.5155  0.6267
   15MOL0     O 1925   5.014  -1.000   7.866  0.6246  0.0274  0.2421
   15MOL0     C 1926   5.068  -1.054   7.988 -0.0665  0.1323 -0.4773
   15MOL0     C 1927   5.216  -1.006   8.000 -0.0932  0.3152  0.4550
   15MOL0     C 1928   5.230  -0.852   8.027  0.0018  0.4938  0.3565
   15MOL0     C 1929   5.384  -0.820   8.030  0.8586  0.2748  0.1263
   15MOL0     C 1930   5.423  -0.686   8.097  0.2787 -0.4434  0.2295
   15MOL0     C 1931   5.408  -0.701   8.247 -0.1425  0.8831  0.2115
   15MOL0     C 1932   5.445  -0.558   8.301 -0.3872  0.4773 -0.6519
   15MOL0     C 1933   5.434  -0.563   8.450  0.5845 -0.3409 -0.0782
   15MOL0    Cl 1934   5.460  -0.412   8.533  0.1856 -0.1803 -0.0823
   15MOL0     C 1935   4.810  -0.909   7.763  0.3929 -0.1995 -0.9680
   15MOL0     C 1936   4.673  -0.911   7.748 -0.3543 -0.3104 -0.3639
   15MOL0     O 1937   4.495  -1.065   7.589 -0.1041 -0.9650 -0.2788
   15MOL0     C 1938   4.180  -1.019   7.764  0.0995 -0.0124  0.2725
   15MOL0     C 1939   4.041  -1.039   7.751 -0.7878  0.9289 -0.3078
   15MOL0     N 1940   3.354  -0.634   7.410  0.3431  0.5387 -0.0026
   15MOL0     N 1941   3.253  -0.638   7.331  0.1522  0.0956 -0.8177
   15MOL0     C 1942   2.694  -0.114   6.591 -0.2316  0.6465 -0.1981
   15MOL0     C 1943   2.595  -0.020   6.556  0.7524  0.0571 -0.4690
   15MOL0     C 1944   2.263   0.255   6.473 -0.6838  0.7024  0.2067
   15MOL0     C 1945   2.143   0.231   6.533  0.2911 -0.1955  0.5119
   15MOL0     C 1946   2.030   0.291   6.479  0.1858 -0.9180 -0.0138
   15MOL0     C 1947   2.026   0.371   6.368  0.0797  0.5844  0.2446
   15MOL0     O 1948   1.911   0.425   6.321  0.6376 -0.3265 -0.2506
   15MOL0     C 1949   1.785   0.391   6.375  0.1198  0.3497  0.0202
   15MOL0     C 1950   1.666   0.448   6.289  0.0082  0.1284 -0.3881
   15MOL0     C 1951   1.659   0.600   6.298  0.9177 -0.3343  0.2537
   15MOL0     C 1952   1.569   0.660   6.184 -0.2645 -0.0023 -0.3761
   15MOL0     C 1953   1.445   0.593   6.167 -0.0038  0.0409  0.3840
   15MOL0     C 1954   1.342   0.527   6.161 -0.0304 -0.6261  0.6912
   15MOL0     C 1955   2.143   0.391   6.301  0.0978 -0.2925 -0.4891
   15MOL0     C 1956   2.262   0.333   6.353 -0.0382 -0.3302  0.5640
   15MOL0     C 1957   2.399   0.379   6.299  0.4372  0.5184  0.1233
   15MOL0     H 1958   2.358  -0.087   6.794  1.1624  1.9666  1.5911
   15MOL0     H 1959   2.521  -0.256   6.850 -0.2889  0.7417 -1.3950
   15MOL0     H 1960   2.863  -0.355   6.590 -1.4265  1.0532 -0.2963
   15MOL0     H 1961   2.921  -0.221   6.676  0.3070 -1.1769 -2.3614
   15MOL0     H 1962   2.955  -0.353   6.887 -0.9151 -1.1008 -0.8491
   15MOL0     H 1963   3.049  -0.371   6.740 -1.3260  1.8403 -2.6739
   15MOL0     H 1964   2.878  -0.552   6.687 -0.8128 -0.4992  0.7432
   15MOL0     H 1965   2.830  -0.552   6.856  0.2678 -0.9668  0.6928
   15MOL0     H 1966   3.032  -0.706   6.745 -3.6443 -1.9146  0.1757
   15MOL0     H 1967   3.113  -0.574   6.840  0.6571 -1.6119 -0.6729
   15MOL0     H 1968   2.942  -0.664   7.019 -1.4878  0.5992 -1.3992
   15MOL0     H 1969   2.954  -0.807   6.912  2.5527 -0.6348 -3.2177
   15MOL0     H 1970   3.210  -0.792   6.933 -0.7879 -1.0493 -0.6507
   15MOL0     H 1971   3.186  -0.672   7.056 -2.4080 -0.1599  3.5781
   15MOL0     H 1972   3.213  -0.933   7.135 -0.6245  0.0134  0.8726
   15MOL0     H 1973   3.052  -0.944   7.088 -0.7029  1.1945 -1.2655
   15MOL0     H 1974   3.031  -0.721   7.222  1.0609  0.6634 -0.2350
   15MOL0     H 1975   3.022  -0.862   7.323 -0.0382  1.4699  0.9931
   15MOL0     H 1976   3.267  -0.959   7.413 -0.1031 -0.3272  0.8115
   15MOL0     H 1977   3.572  -0.739   7.546  0.4696  0.3096  0.9922
   15MOL0     H 1978   3.457  -0.851   7.621 -0.7865 -2.1541 -0.8611
   15MOL0     H 1979   3.517  -1.019   7.441 -0.1382 -0.9668  2.6760
   15MOL0     H 1980   3.631  -0.896   7.368  1.9670 -3.6599 -0.2628
   15MOL0     H 1981   3.654  -0.982   7.668  3.7931  0.2935  1.8820
   15MOL0     H 1982   3.754  -0.881   7.584 -2.6739  0.9600  1.5415
   15MOL0     H 1983   3.826  -1.059   7.433 -0.8449  2.2409 -0.9138
   15MOL0     H 1984   3.692  -1.159   7.499 -1.8698  0.7989  0.3465
   15MOL0     H 1985   4.031  -1.174   7.441 -0.0630 -0.3469 -0.1952
   15MOL0     H 1986   4.278  -1.119   7.454 -1.8131  1.2963 -2.0503
   15MOL0     H 1987   4.598  -1.165   7.960 -3.2733  0.4744 -1.5588
   15MOL0     H 1988   4.827  -1.162   8.006 -0.6934  2.4614  2.4264
   15MOL0     H 1989   5.002  -1.029   8.072 -0.3899 -0.3879 -0.5718
   15MOL0     H 1990   5.073  -1.163   7.979  0.9747  0.2297 -1.2790
   15MOL0     H 1991   5.255  -1.063   8.084 -1.8408  0.3432  1.3392
   15MOL0     H 1992   5.261  -1.022   7.901 -0.3778  1.0237  0.2011
   15MOL0     H 1993   5.174  -0.797   7.951 -1.5659 -2.4006 -0.7763
   15MOL0     H 1994   5.189  -0.835   8.128 -2.3865 -0.2417 -0.4147
   15MOL0     H 1995   5.417  -0.808   7.926  1.6658 -2.2523  0.0226
   15MOL0     H 1996   5.444  -0.896   8.081  1.2497  0.4864 -0.0158
   15MOL0     H 1997   5.353  -0.606   8.073  0.2025 -0.2655  1.0416
   15MOL0     H 1998   5.524  -0.654   8.069 -1.3154  4.5435 -0.8426
   15MOL0     H 1999   5.306  -0.729   8.273 -0.2458 -2.0731 -2.6880
   15MOL0     H 2000   5.477  -0.772   8.293 -0.5754  0.7377  0.6431
   15MOL0     H 2001   5.383  -0.476   8.262 -1.5018  0.9607  1.8933
   15MOL0     H 2002   5.551  -0.534   8.287  0.9499 -2.9554  2.1260
   15MOL0     H 2003   5.337  -0.608   8.474 -1.9905  2.6790 -3.6715
   15MOL0     H 2004   5.505  -0.635   8.491 -1.7830 -2.1228  1.2015
   15MOL0     H 2005   4.868  -0.834   7.710  0.0129  0.6242 -0.2448
   15MOL0     H 2006   4.615  -0.856   7.674  2.7618 -0.8933 -3.4972
   15MOL0     H 2007   4.209  -0.964   7.853  0.6720 -0.7488  0.5441
   15MOL0     H 2008   3.973  -1.016   7.832  1.2489  0.5905  1.5888
   15MOL0     H 2009   2.782  -0.130   6.530 -0.0670 -1.9961  0.5961
   15MOL0     H 2010   2.631   0.031   6.467  2.0807  2.3795  1.2811
   15MOL0     H 2011   2.132   0.175   6.625 -4.6428  0.3849  0.5377
   15MOL0     H 2012   1.946   0.281   6.547  1.0296  0.3492  1.2776
   15MOL0     H 2013   1.779   0.421   6.480  2.6040 -1.0964  0.6801
   15MOL0     H 2014   1.768   0.283   6.378 -1.5498  0.5864 -0.0380
   15MOL0     H 2015   1.575   0.405   6.332 -0.2511  0.7423 -0.3191
   15MOL0     H 2016   1.687   0.418   6.186  0.1287  0.8247 -0.5709
   15MOL0     H 2017   1.758   0.642   6.285  2.5565 -4.1978 -1.4261
   15MOL0     H 2018   1.614   0.636   6.391 -1.0958 -1.6231 -0.1527
   15MOL0     H 2019   1.559   0.767   6.204 -1.1181 -0.2653  0.7722
   15MOL0     H 2020   1.631   0.644   6.096  1.3508  0.4869  0.6395
   15MOL0     H 2021   1.254   0.467   6.146 -0.1154 -0.2191 -0.5992
   15MOL0     H 2022   2.137   0.457   6.216  1.2050  3.0517  1.8080
   15MOL0     H 2023   2.458   0.289   6.282  1.5679  0.6755  2.7105
   15MOL0     H 2024   2.392   0.425   6.200  0.6215 -3.1160 -1.7499
   15MOL0     H 2025   2.437   0.439   6.383  0.3136 -1.0766  1.3611
   16MOL0     O 2026   8.241   2.621   6.436 -0.8427  0.5068 -0.0917
   16MOL0     C 2027   8.170   2.524   6.404 -0.0467  0.0202 -0.5342
   16MOL0     O 2028   8.218   2.419   6.336  0.9031  0.0669 -0.4545
   16MOL0     C 2029   8.352   2.398   6.344  0.8025  0.4847 -0.3598
   16MOL0     C 2030   8.442   2.439   6.254  0.6495  0.0824  0.0888
   16MOL0     C 2031   8.582   2.398   6.262  0.7836 -0.6232 -0.0347
   16MOL0     C 2032   8.628   2.334   6.375 -0.6488 -0.4575  0.5646
   16MOL0     O 2033   8.766   2.298   6.394 -0.2530  0.1427  0.2360
   16MOL0     C 2034   8.788   2.161   6.370  0.9353 -0.1733  0.0931
   16MOL0     C 2035   8.910   2.106   6.445 -0.3407 -0.2982  0.3038
   16MOL0     C 2036   9.029   2.178   6.383 -0.1208 -0.6620 -0.2226
   16MOL0     C 2037   9.144   2.154   6.481  0.5282  0.4931 -0.0893
   16MOL0     C 2038   9.273   2.236   6.424  0.1292  0.1812  0.2360
   16MOL0     C 2039   9.393   2.215   6.514  0.2362 -0.2942  0.7373
   16MOL0     C 2040   9.509   2.296   6.453  0.5743  0.3817  0.1894
   16MOL0     C 2041   9.627   2.308   6.548 -0.2783 -0.3310  0.9703
   16MOL0     N 2042   9.739   2.378   6.485  0.2372 -0.8905 -0.2679
   16MOL0     C 2043   9.836   2.333   6.401 -0.2855 -0.7712  0.1637
   16MOL0     C 2044   9.920   2.439   6.377 -0.2591  0.7119 -0.0713
   16MOL0     C 2045  10.054   2.434   6.307 -0.1749 -0.8163  0.7626
   16MOL0     C 2046  10.113   2.295   6.301 -0.0875  0.0875  0.9186
   16MOL0     C 2047  10.182   2.241   6.421  0.2818 -1.0868 -0.5460
   16MOL0     C 2048  10.240   2.106   6.400 -0.6597 -0.0580 -0.9095
   16MOL0     O 2049  10.355   2.108   6.308  0.6334  0.0581 -0.0464
   16MOL0     C 2050  10.474   2.148   6.356  0.8986 -0.8550  0.0593
   16MOL0     C 2051  10.576   2.126   6.268 -0.3397  0.0834 -0.5667
   16MOL0     C 2052  10.705   2.162   6.297 -0.6783 -0.9822  0.2941
   16MOL0     C 2053  10.741   2.227   6.418 -0.3003 -0.2108  0.2526
   16MOL0     C 2054  10.876   2.285   6.430  0.0990 -0.1184 -0.0017
   16MOL0     O 2055  10.977   2.250   6.348 -0.3578 -0.3480  0.4508
   16MOL0     C 2056  11.115   2.272   6.379 -0.1052  0.0967 -0.3529
   16MOL0     C 2057  11.170   2.401   6.359 -0.0622 -0.2054 -0.3197
   16MOL0     C 2058  11.309   2.418   6.385  0.0375  0.3013  0.4295
   16MOL0     C 2059  11.376   2.316   6.441 -0.0709 -0.1768  0.1329
   16MOL0     O 2060  11.506   2.325   6.487  0.2838 -0.3387 -0.0107
   16MOL0     C 2061  11.583   2.440   6.455 -0.0572 -0.2060 -0.2625
   16MOL0     C 2062  11.734   2.424   6.492 -0.7517 -0.4709 -0.1880
   16MOL0     C 2063  11.825   2.529   6.429 -0.6578 -0.4536  0.4021
   16MOL0     C 2064  11.969   2.494   6.419 -0.7866  0.3744 -0.3850
   16MOL0     C 2065  12.053   2.620   6.394 -0.9526  0.2031  1.0642
   16MOL0     C 2066  12.206   2.580   6.361 -0.1815 -0.0624 -0.1974
   16MOL0     C 2067  12.285   2.703   6.340  0.5596 -0.3602 -0.5033
   16MOL0     C 2068  12.423   2.679   6.290 -0.1717 -0.3790 -0.4251
   16MOL0    Cl 2069  12.530   2.644   6.424 -0.1344  0.0054 -0.4335
   16MOL0     C 2070  11.313   2.195   6.475  0.2223 -0.1128 -0.1757
   16MOL0     C 2071  11.179   2.168   6.452 -0.3895 -0.5359  0.8404
   16MOL0     O 2072  10.888   2.358   6.528  0.6571 -0.2703  0.6325
   16MOL0     C 2073  10.639   2.247   6.508  0.5007 -0.6187 -0.2262
   16MOL0     C 2074  10.510   2.212   6.475 -0.0736  0.5352  0.6722
   16MOL0     N 2075   9.848   2.549   6.423 -0.3354 -0.6411  0.5471
   16MOL0     N 2076   9.744   2.509   6.497  0.0279 -0.2948  0.3371
   16MOL0     C 2077   8.536   2.298   6.473 -0.3370  0.0066 -0.3004
   16MOL0     C 2078   8.403   2.330   6.459 -0.2059 -0.2492  0.2315
   16MOL0     C 2079   8.027   2.523   6.433 -0.0117 -0.0828 -0.2021
   16MOL0     C 2080   7.952   2.452   6.345 -0.4527 -0.1974  0.3138
   16MOL0     C 2081   7.818   2.432   6.365  0.1491 -0.5683  0.2820
   16MOL0     C 2082   7.752   2.505   6.455 -0.6401 -0.2016 -0.2864
   16MOL0     O 2083   7.621   2.473   6.467 -0.0679 -0.4624  0.0964
   16MOL0     C 2084   7.584   2.363   6.535  0.3184 -0.1068  0.8354
   16MOL0     C 2085   7.438   2.339   6.495 -1.3773 -0.4781 -0.5441
   16MOL0     C 2086   7.379   2.204   6.553  0.8842  0.3912  0.1944
   16MOL0     C 2087   7.322   2.224   6.695 -0.9766  0.3964  0.8923
   16MOL0     C 2088   7.253   2.106   6.733 -0.4897  0.9522  0.7740
   16MOL0     C 2089   7.198   2.005   6.766 -0.3942  0.1197 -0.4648
   16MOL0     C 2090   7.823   2.591   6.539 -0.0411 -0.4468 -0.0167
   16MOL0     C 2091   7.964   2.603   6.533  0.0496 -0.5278 -0.0817
   16MOL0     C 2092   8.026   2.706   6.631  0.2270 -0.6134  0.5154
   16MOL0     H 2093   8.412   2.499   6.169 -2.1994  0.3183  1.1681
   16MOL0     H 2094   8.656   2.429   6.189 -0.0334  2.0217  0.1629
   16MOL0     H 2095   8.709   2.098   6.412  0.0309 -0.3350 -1.7680
   16MOL0     H 2096   8.786   2.144   6.262 -1.1697  1.9195 -0.2798
   16MOL0     H 2097   8.927   2.000   6.424  2.9348  0.3379 -0.8012
   16MOL0     H 2098   8.906   2.112   6.554 -2.5974 -0.2480  0.2703
   16MOL0     H 2099   9.015   2.286   6.391  2.4471 -0.3743  1.7284
   16MOL0     H 2100   9.052   2.152   6.279 -0.0733 -1.6528  0.0243
   16MOL0     H 2101   9.115   2.191   6.580 -0.5520  3.8601 -1.5322
   16MOL0     H 2102   9.162   2.046   6.490 -2.3585  0.0121  0.9053
   16MOL0     H 2103   9.291   2.212   6.318  2.3096  1.5864  0.2041
   16MOL0     H 2104   9.251   2.343   6.421  0.6339  0.2993  0.5268
   16MOL0     H 2105   9.367   2.269   6.606  0.7533  1.1185  0.0964
   16MOL0     H 2106   9.413   2.109   6.527  0.8132 -0.1833  0.8001
   16MOL0     H 2107   9.459   2.391   6.430 -0.8885  0.6975  3.9396
   16MOL0     H 2108   9.546   2.242   6.366  2.0630  0.8314  0.5220
   16MOL0     H 2109   9.608   2.366   6.639  0.2688 -2.6012  2.6223
   16MOL0     H 2110   9.656   2.210   6.586  0.1525 -0.2455  0.8583
   16MOL0     H 2111   9.856   2.228   6.382 -1.9796 -0.7815 -2.0048
   16MOL0     H 2112  10.039   2.477   6.208 -0.6352 -2.8902 -0.1280
   16MOL0     H 2113  10.122   2.505   6.355 -3.7540  2.5031  1.4251
   16MOL0     H 2114  10.042   2.219   6.267  0.1993  0.3663 -0.3496
   16MOL0     H 2115  10.187   2.293   6.220 -2.2194 -5.1344 -1.3969
   16MOL0     H 2116  10.112   2.244   6.505 -0.0586  0.3916 -0.8512
   16MOL0     H 2117  10.269   2.302   6.445  0.1617 -0.9078 -0.5676
   16MOL0     H 2118  10.164   2.044   6.353 -2.6027  2.0385 -0.7133
   16MOL0     H 2119  10.268   2.055   6.493  1.4186 -1.0475 -1.9908
   16MOL0     H 2120  10.558   2.077   6.173  0.9848 -0.9269 -0.3214
   16MOL0     H 2121  10.783   2.139   6.226 -2.8649  0.0904 -2.6230
   16MOL0     H 2122  11.109   2.461   6.291 -1.9025 -3.2027 -1.4975
   16MOL0     H 2123  11.362   2.512   6.372 -0.6071  0.9740  2.2661
   16MOL0     H 2124  11.582   2.459   6.347  1.4738  1.5017 -0.0288
   16MOL0     H 2125  11.556   2.530   6.510 -1.8447 -0.9067  0.0736
   16MOL0     H 2126  11.747   2.446   6.598 -1.2829  1.3457 -0.4572
   16MOL0     H 2127  11.756   2.323   6.457 -3.2721 -1.7735  1.6320
   16MOL0     H 2128  11.792   2.539   6.325 -0.7722  0.6508  0.5300
   16MOL0     H 2129  11.808   2.621   6.486 -0.2932 -0.0633 -0.1205
   16MOL0     H 2130  11.991   2.420   6.341  1.5257  1.7179 -1.0944
   16MOL0     H 2131  12.015   2.460   6.512 -1.3836  1.6035  0.3736
   16MOL0     H 2132  12.057   2.681   6.484 -1.2605  1.5687  0.1797
   16MOL0     H 2133  12.012   2.677   6.310  0.4640 -1.7123 -1.0623
   16MOL0     H 2134  12.239   2.511   6.439 -0.3279 -1.4257 -1.3060
   16MOL0     H 2135  12.227   2.523   6.270 -1.1544 -1.4092  0.3944
   16MOL0     H 2136  12.291   2.746   6.441 -0.5522 -2.6245  0.5998
   16MOL0     H 2137  12.230   2.772   6.276 -0.3292 -0.3903  0.2036
   16MOL0     H 2138  12.427   2.596   6.218  0.8461  0.3143 -1.2106
   16MOL0     H 2139  12.456   2.770   6.239 -0.9960  0.5162  0.6179
   16MOL0     H 2140  11.374   2.118   6.521  0.3011 -2.1025 -3.3219
   16MOL0     H 2141  11.127   2.074   6.467 -1.9445  0.3451  1.2247
   16MOL0     H 2142  10.650   2.322   6.586 -0.9772 -1.3009  0.6698
   16MOL0     H 2143  10.442   2.247   6.552  1.2804  2.6259  1.0047
   16MOL0     H 2144   8.569   2.241   6.559 -1.6411 -0.3352 -0.0089
   16MOL0     H 2145   8.337   2.288   6.534 -0.2585 -3.2229 -1.3326
   16MOL0     H 2146   8.009   2.410   6.263 -0.0941  1.9709 -0.6195
   16MOL0     H 2147   7.767   2.358   6.303  0.8828 -1.0006  0.1785
   16MOL0     H 2148   7.602   2.363   6.643 -0.2959  3.0728  1.0121
   16MOL0     H 2149   7.641   2.275   6.501 -0.0439  0.8060 -2.4039
   16MOL0     H 2150   7.423   2.342   6.387 -1.5652 -0.1695 -0.5121
   16MOL0     H 2151   7.382   2.418   6.546  2.7936  0.4392  3.2794
   16MOL0     H 2152   7.451   2.122   6.555 -1.1858 -1.5416  2.7352
   16MOL0     H 2153   7.293   2.178   6.490  0.0252 -1.6949  2.0772
   16MOL0     H 2154   7.398   2.260   6.765  0.2206 -0.8755  0.2891
   16MOL0     H 2155   7.247   2.304   6.686 -0.1715  0.8987 -3.5520
   16MOL0     H 2156   7.147   1.915   6.794  0.5135 -0.7948 -1.6569
   16MOL0     H 2157   7.767   2.651   6.610 -0.5790 -1.9748  0.8990
   16MOL0     H 2158   7.975   2.692   6.727 -1.7843 -1.8572 -0.6555
   16MOL0     H 2159   8.134   2.703   6.642  0.6465  1.2831 -2.1190
   16MOL0     H 2160   8.006   2.809   6.598  2.8624 -0.1327  0.2259
   17MOL0     O 2161   2.039   1.365   8.446 -0.2741 -0.2073  0.4133
   17MOL0     C 2162   2.020   1.287   8.544  0.5078  0.0829  0.5808
   17MOL0     O 2163   2.118   1.216   8.605 -0.0298 -0.2273  0.3548
   17MOL0     C 2164   2.252   1.230   8.582  0.7983 -0.3582  0.0755
   17MOL0     C 2165   2.319   1.349   8.563  0.4661  1.1717  0.1892
   17MOL0     C 2166   2.452   1.356   8.528  0.6242 -0.5324  0.4312
   17MOL0     C 2167   2.530   1.243   8.510  0.1300  1.0841  0.2749
   17MOL0     O 2168   2.665   1.254   8.477  0.3437  0.1734  0.6120
   17MOL0     C 2169   2.733   1.139   8.435 -0.2762  0.4651 -0.2002
   17MOL0     C 2170   2.875   1.181   8.423 -0.2970 -0.6076  0.5897
   17MOL0     C 2171   2.984   1.077   8.373  0.7245 -0.1319 -0.6653
   17MOL0     C 2172   2.984   0.948   8.457 -0.4523  0.1022  0.6720
   17MOL0     C 2173   3.051   0.831   8.389  0.4150  0.1642 -0.2784
   17MOL0     C 2174   3.205   0.861   8.371 -0.7989  0.3541  0.1741
   17MOL0     C 2175   3.296   0.872   8.491  0.3421 -0.7631 -1.0245
   17MOL0     C 2176   3.372   1.004   8.513 -0.0498 -0.0561 -0.5943
   17MOL0     N 2177   3.466   1.022   8.616 -0.5263  0.0945  0.2067
   17MOL0     C 2178   3.497   0.936   8.723 -0.0061 -0.3528 -0.4118
   17MOL0     C 2179   3.623   0.971   8.771  0.1657 -0.1709  0.6977
   17MOL0     C 2180   3.697   0.900   8.885 -0.3496 -0.5037  0.6840
   17MOL0     C 2181   3.824   0.842   8.824 -1.2258 -0.6317  0.5018
   17MOL0     C 2182   3.934   0.946   8.807  1.3499  0.0286 -0.0309
   17MOL0     C 2183   4.057   0.889   8.749 -0.3074  0.3650  0.4582
   17MOL0     O 2184   4.112   0.791   8.836 -0.1077  0.3311 -0.9283
   17MOL0     C 2185   4.246   0.763   8.817 -0.8541  0.8267  0.2303
   17MOL0     C 2186   4.336   0.794   8.921 -0.6145 -0.8512 -0.5962
   17MOL0     C 2187   4.471   0.770   8.921  0.4735 -0.4799 -0.5217
   17MOL0     C 2188   4.524   0.702   8.811 -0.3689  0.0612  0.1437
   17MOL0     C 2189   4.671   0.671   8.805  0.7241 -0.9676  0.0369
   17MOL0     O 2190   4.746   0.734   8.897  0.1287  0.2280  0.4535
   17MOL0     C 2191   4.881   0.734   8.888  0.1400  0.3122  0.0211
   17MOL0     C 2192   4.950   0.752   8.764 -0.4259  0.4831 -0.2152
   17MOL0     C 2193   5.091   0.737   8.761  0.7243  0.2020  0.0874
   17MOL0     C 2194   5.169   0.728   8.879  0.0293 -0.1064  0.6630
   17MOL0     O 2195   5.304   0.724   8.874 -0.1135 -0.3170  0.6453
   17MOL0     C 2196   5.362   0.627   8.779  0.5953  0.6378 -0.4248
   17MOL0     C 2197   5.518   0.629   8.786 -0.0553 -0.1946  0.5879
   17MOL0     C 2198   5.569   0.751   8.709  0.3899  0.1673  0.1249
   17MOL0     C 2199   5.706   0.791   8.751 -0.1727  0.0566 -0.9870
   17MOL0     C 2200   5.766   0.885   8.650  0.2487  0.3413  0.0404
   17MOL0     C 2201   5.904   0.930   8.695 -0.1274  0.1537  0.3008
   17MOL0     C 2202   5.987   0.974   8.576 -0.8959 -0.5795 -0.4540
   17MOL0     C 2203   6.134   1.005   8.615 -0.1670  0.3339 -0.3049
   17MOL0    Cl 2204   6.132   1.173   8.681  0.0797 -0.0526  0.0642
   17MOL0     C 2205   5.102   0.735   9.001  0.0763 -0.2908  0.0913
   17MOL0     C 2206   4.959   0.733   9.006 -0.1436  0.0039 -0.2276
   17MOL0     O 2207   4.707   0.614   8.703 -0.2107 -0.6732  0.5815
   17MOL0     C 2208   4.439   0.675   8.699  0.6621 -0.7792 -0.4223
   17MOL0     C 2209   4.304   0.707   8.699  0.8773 -1.2230 -0.6620
   17MOL0     N 2210   3.663   1.081   8.697  0.2373  0.5340 -0.4248
   17MOL0     N 2211   3.572   1.099   8.599 -0.4031  0.0702 -0.4986
   17MOL0     C 2212   2.468   1.120   8.537 -0.1230  0.1353 -0.6315
   17MOL0     C 2213   2.336   1.115   8.570  0.8911  0.3451  0.3378
   17MOL0     C 2214   1.884   1.275   8.603  0.3234  0.5402  0.0925
   17MOL0     C 2215   1.871   1.197   8.717 -0.0280 -0.3973 -0.7176
   17MOL0     C 2216   1.744   1.185   8.774  0.0542 -0.0238  0.5536
   17MOL0     C 2217   1.628   1.249   8.721 -0.1811  0.2492  1.2856
   17MOL0     O 2218   1.504   1.244   8.770  0.7502 -0.4649  1.1803
   17MOL0     C 2219   1.475   1.158   8.871  0.2277 -0.1867 -0.7704
   17MOL0     C 2220   1.316   1.158   8.869 -0.6762 -1.1923 -0.6109
   17MOL0     C 2221   1.248   1.119   8.999  0.5567  0.9585  0.1879
   17MOL0     C 2222   1.089   1.104   8.983 -0.7811 -1.1847 -0.1625
   17MOL0     C 2223   1.023   1.017   9.081 -0.0029  0.2840 -0.7694
   17MOL0     C 2224   0.968   0.934   9.155 -0.9198  0.2250  0.1465
   17MOL0     C 2225   1.641   1.314   8.601  0.3464 -0.0012 -0.4501
   17MOL0     C 2226   1.769   1.333   8.542 -0.0797  0.6911 -0.2076
   17MOL0     C 2227   1.769   1.408   8.410 -0.5670 -0.0344  0.1646
   17MOL0     H 2228   2.259   1.439   8.556 -0.8941  0.1624 -2.5052
   17MOL0     H 2229   2.481   1.452   8.488  0.3348 -1.0183 -1.0105
   17MOL0     H 2230   2.719   1.057   8.505 -2.7939 -0.2104 -1.3880
   17MOL0     H 2231   2.699   1.107   8.336  0.4577 -0.7285 -0.0761
   17MOL0     H 2232   2.906   1.217   8.521 -2.2952  0.3745  0.9176
   17MOL0     H 2233   2.880   1.266   8.354  0.4855  1.0599  2.6008
   17MOL0     H 2234   3.083   1.124   8.371  0.4717  0.4302 -0.2151
   17MOL0     H 2235   2.954   1.048   8.272 -0.3413  1.0798 -0.7118
   17MOL0     H 2236   3.040   0.974   8.547  1.2237  1.4603 -0.7209
   17MOL0     H 2237   2.886   0.921   8.498 -0.3851 -0.3021  0.5769
   17MOL0     H 2238   3.048   0.745   8.457  3.3378 -1.1951 -1.6830
   17MOL0     H 2239   2.999   0.814   8.295 -0.8326  1.6379  0.1021
   17MOL0     H 2240   3.248   0.773   8.323  1.3637  0.3876  1.8910
   17MOL0     H 2241   3.228   0.940   8.299 -0.0706  0.1004  0.1112
   17MOL0     H 2242   3.371   0.794   8.474 -1.3765 -2.8641  0.3374
   17MOL0     H 2243   3.238   0.844   8.580  0.2770  1.7525 -0.2138
   17MOL0     H 2244   3.414   1.031   8.416  3.4050 -0.1729  0.7213
   17MOL0     H 2245   3.295   1.080   8.530  1.0226  1.3678 -1.7530
   17MOL0     H 2246   3.435   0.849   8.742  3.2270 -3.0648 -1.3903
   17MOL0     H 2247   3.721   0.973   8.963  0.0922 -0.1881  0.2617
   17MOL0     H 2248   3.641   0.817   8.928  1.9164 -2.6033 -0.1927
   17MOL0     H 2249   3.856   0.760   8.889  1.0719  0.7379  1.2415
   17MOL0     H 2250   3.794   0.806   8.726 -0.8013 -2.3823  0.9910
   17MOL0     H 2251   3.951   1.000   8.901  3.1887 -1.7504  0.7312
   17MOL0     H 2252   3.906   1.016   8.727  0.6786 -0.9969 -0.7201
   17MOL0     H 2253   4.134   0.966   8.740  0.6610 -0.6497 -0.2455
   17MOL0     H 2254   4.045   0.857   8.645 -2.7033 -0.6841  0.9872
   17MOL0     H 2255   4.300   0.845   9.010 -0.8403 -0.0628 -1.1265
   17MOL0     H 2256   4.535   0.788   9.006  0.3425 -1.8408 -0.1078
   17MOL0     H 2257   4.898   0.761   8.669 -1.3861 -0.2777  0.2161
   17MOL0     H 2258   5.124   0.736   8.658  2.6347 -1.7426  0.6497
   17MOL0     H 2259   5.319   0.527   8.792  0.3915  0.9660  1.9165
   17MOL0     H 2260   5.333   0.659   8.679  0.9715 -0.9812 -1.0730
   17MOL0     H 2261   5.557   0.648   8.887  4.1257  1.4810 -1.1392
   17MOL0     H 2262   5.557   0.534   8.749 -0.3665 -0.5979  1.2706
   17MOL0     H 2263   5.568   0.724   8.603 -1.5437 -0.4209  0.2440
   17MOL0     H 2264   5.503   0.837   8.725 -0.9394 -0.7823 -0.0467
   17MOL0     H 2265   5.766   0.702   8.770  0.6718  1.1942  2.3662
   17MOL0     H 2266   5.686   0.841   8.846 -0.0292 -1.0228 -0.3785
   17MOL0     H 2267   5.707   0.976   8.640 -3.0098 -1.6643 -0.6524
   17MOL0     H 2268   5.758   0.829   8.556 -2.7225 -1.4935  1.2417
   17MOL0     H 2269   5.913   1.005   8.775  4.1513 -0.9661  1.1476
   17MOL0     H 2270   5.951   0.842   8.739  1.3683  0.6438 -0.2447
   17MOL0     H 2271   5.936   1.063   8.537 -0.6249  0.3645  1.2229
   17MOL0     H 2272   5.994   0.894   8.502  2.2548 -0.1796 -0.7001
   17MOL0     H 2273   6.171   0.941   8.695  0.7760  1.3063  0.0595
   17MOL0     H 2274   6.188   1.015   8.520 -0.5117 -0.8969 -0.6454
   17MOL0     H 2275   5.149   0.751   9.098 -1.4965  2.1699  0.5504
   17MOL0     H 2276   4.901   0.741   9.098 -0.9625 -0.7263 -0.6649
   17MOL0     H 2277   4.489   0.632   8.614  0.5725  4.6316 -3.6694
   17MOL0     H 2278   4.236   0.683   8.618  1.4238  1.8510 -2.1803
   17MOL0     H 2279   2.526   1.028   8.528 -2.6392 -1.6782  0.4906
   17MOL0     H 2280   2.308   1.013   8.593  3.4734 -0.7053 -0.7180
   17MOL0     H 2281   1.959   1.153   8.761  0.8201  0.0021 -1.9566
   17MOL0     H 2282   1.738   1.131   8.868 -1.4975 -1.7705 -0.4600
   17MOL0     H 2283   1.509   1.188   8.970  1.4879 -0.7397 -1.0208
   17MOL0     H 2284   1.510   1.056   8.854  3.9200  0.5944  1.2211
   17MOL0     H 2285   1.287   1.100   8.782 -0.0876 -0.1192 -1.5481
   17MOL0     H 2286   1.286   1.261   8.847  1.3294 -0.9369 -2.5259
   17MOL0     H 2287   1.261   1.191   9.081  2.3324 -1.9931  2.7244
   17MOL0     H 2288   1.281   1.018   9.024 -0.4498  0.7681  0.7843
   17MOL0     H 2289   1.065   1.211   8.991 -1.5637 -1.4005  0.5253
   17MOL0     H 2290   1.052   1.072   8.885  0.0633  2.4874 -1.8647
   17MOL0     H 2291   0.908   0.872   9.219 -0.9241 -0.4478 -0.4908
   17MOL0     H 2292   1.550   1.359   8.564 -0.5719  1.8282  3.4900
   17MOL0     H 2293   1.673   1.438   8.368  0.6527  0.0032 -2.8596
   17MOL0     H 2294   1.834   1.495   8.419  0.8999 -0.7213 -2.7281
   17MOL0     H 2295   1.803   1.342   8.330 -2.3283 -0.8395  0.0302
   18MOL0     O 2296   6.797   5.023   4.200 -0.0334 -0.5031 -0.4348
   18MOL0     C 2297   6.844   4.964   4.300 -0.2694  0.1217  0.1052
   18MOL0     O 2298   6.925   5.015   4.402  0.2215  0.6359 -0.0728
   18MOL0     C 2299   6.971   5.140   4.373  0.9047  0.3664 -0.6617
   18MOL0     C 2300   6.881   5.248   4.359  0.7440  0.1458 -0.0733
   18MOL0     C 2301   6.935   5.367   4.314  0.5499 -0.1335  0.0891
   18MOL0     C 2302   7.074   5.382   4.303 -0.4784  0.1028 -0.0823
   18MOL0     O 2303   7.137   5.495   4.261  0.2759 -0.0665 -0.2800
   18MOL0     C 2304   7.058   5.593   4.189  0.0370 -0.0605  0.3359
   18MOL0     C 2305   7.149   5.717   4.133  0.1576  0.8514  0.2606
   18MOL0     C 2306   7.235   5.666   4.013 -0.3881  0.4363  0.1269
   18MOL0     C 2307   7.316   5.774   3.934 -0.5092 -0.2883 -0.3212
   18MOL0     C 2308   7.390   5.722   3.810  0.1104 -0.0319  0.1859
   18MOL0     C 2309   7.511   5.636   3.846  0.5752 -0.2440 -0.3149
   18MOL0     C 2310   7.585   5.595   3.715 -0.5103 -0.0031  0.0406
   18MOL0     C 2311   7.723   5.522   3.730 -0.0226  0.2564  0.4761
   18MOL0     N 2312   7.835   5.610   3.763  0.1681  0.3025  1.0130
   18MOL0     C 2313   7.859   5.678   3.878 -0.2035  0.0466 -0.0625
   18MOL0     C 2314   7.994   5.691   3.881 -0.0025  1.1378  0.4268
   18MOL0     C 2315   8.073   5.767   3.983 -0.4237 -0.3638  0.2362
   18MOL0     C 2316   8.222   5.725   3.983  0.0935  0.3160  0.2169
   18MOL0     C 2317   8.239   5.583   4.039  0.0092  0.5199  0.7873
   18MOL0     C 2318   8.385   5.539   4.012 -0.4319  0.2425  0.7577
   18MOL0     O 2319   8.475   5.634   4.074  0.5617  0.4626  0.3712
   18MOL0     C 2320   8.607   5.602   4.098 -0.5960  0.1828  0.1097
   18MOL0     C 2321   8.678   5.705   4.169 -1.0672 -0.3361 -0.2369
   18MOL0     C 2322   8.820   5.692   4.189  0.6031 -0.1090 -1.1197
   18MOL0     C 2323   8.888   5.575   4.143 -0.3486  0.2096  0.1830
   18MOL0     C 2324   9.036   5.561   4.178 -0.4267 -0.5088 -0.6550
   18MOL0     O 2325   9.094   5.625   4.281 -0.1646 -0.8645 -0.0685
   18MOL0     C 2326   9.225   5.602   4.318  0.5057 -0.9787 -0.3695
   18MOL0     C 2327   9.304   5.710   4.371 -0.5215  0.0033 -0.9173
   18MOL0     C 2328   9.434   5.697   4.424 -0.4854 -0.0288  0.5921
   18MOL0     C 2329   9.495   5.570   4.429 -0.2207  0.1584  0.3914
   18MOL0     O 2330   9.617   5.563   4.487 -0.3688  0.1291 -0.3066
   18MOL0     C 2331   9.663   5.432   4.523 -0.1195  0.9565  0.1306
   18MOL0     C 2332   9.799   5.437   4.587  0.0233  0.4027  0.4553
   18MOL0     C 2333   9.889   5.530   4.511 -0.2871 -0.5467  0.2068
   18MOL0     C 2334  10.035   5.510   4.559 -0.1118  0.3153 -0.5139
   18MOL0     C 2335  10.128   5.598   4.474  0.4502  0.2930 -0.0548
   18MOL0     C 2336  10.262   5.591   4.529 -0.4442 -0.7364 -0.0391
   18MOL0     C 2337  10.368   5.618   4.427 -0.2986 -0.1566  1.0558
   18MOL0     C 2338  10.359   5.755   4.355 -0.2829 -0.1543 -0.0124
   18MOL0    Cl 2339  10.514   5.765   4.264  0.1589  0.0823 -0.4124
   18MOL0     C 2340   9.419   5.460   4.379 -0.3322 -0.0342  0.5239
   18MOL0     C 2341   9.290   5.479   4.332 -0.2039  0.4067 -0.8981
   18MOL0     O 2342   9.096   5.484   4.106 -0.3599 -0.0293  0.3426
   18MOL0     C 2343   8.818   5.475   4.071  0.6059 -0.8914  0.3407
   18MOL0     C 2344   8.675   5.487   4.051  0.2484 -0.0816  0.5953
   18MOL0     N 2345   8.047   5.626   3.782 -0.3226 -0.2844 -0.0769
   18MOL0     N 2346   7.956   5.579   3.703  0.3548 -0.1335 -0.3522
   18MOL0     C 2347   7.158   5.275   4.339  0.7519 -0.1410  0.2861
   18MOL0     C 2348   7.103   5.155   4.376 -0.2632 -0.5855 -0.5102
   18MOL0     C 2349   6.803   4.824   4.322 -0.1743 -0.1266  0.6007
   18MOL0     C 2350   6.819   4.764   4.448 -0.3771  0.2355  0.3748
   18MOL0     C 2351   6.798   4.626   4.469 -0.0566  0.3491 -0.3756
   18MOL0     C 2352   6.761   4.543   4.370  0.8163  0.7048 -0.3288
   18MOL0     O 2353   6.738   4.411   4.407 -0.0179  0.8237  0.3587
   18MOL0     C 2354   6.702   4.307   4.322  0.8843 -0.2727 -0.2469
   18MOL0     C 2355   6.751   4.169   4.359 -0.4106 -0.7008 -0.1524
   18MOL0     C 2356   6.667   4.062   4.276  0.3351 -0.1597  0.4532
   18MOL0     C 2357   6.699   3.911   4.308 -0.1493 -0.6833  0.1887
   18MOL0     C 2358   6.845   3.877   4.300  0.6613 -0.1230  0.1308
   18MOL0     C 2359   6.962   3.861   4.291 -0.0346 -0.6836 -0.0023
   18MOL0     C 2360   6.746   4.597   4.242 -0.8813  0.8876  0.1685
   18MOL0     C 2361   6.762   4.737   4.217 -0.3898  0.6542 -0.2114
   18MOL0     C 2362   6.744   4.771   4.070  0.3059 -0.3397 -1.2370
   18MOL0     H 2363   6.773   5.241   4.370  0.9200 -1.6080  0.8337
   18MOL0     H 2364   6.866   5.447   4.287  1.2592  1.1861  1.9649
   18MOL0     H 2365   7.001   5.551   4.106  0.5490  0.3982 -0.2602
   18MOL0     H 2366   6.986   5.623   4.266 -0.8527 -0.9799 -0.1103
   18MOL0     H 2367   7.221   5.751   4.209  3.2047  0.2416 -2.1558
   18MOL0     H 2368   7.082   5.799   4.107 -0.4327  0.2401 -0.1539
   18MOL0     H 2369   7.170   5.608   3.946  0.2081 -0.3505  0.2216
   18MOL0     H 2370   7.312   5.602   4.055  1.3746  0.2924 -2.9997
   18MOL0     H 2371   7.241   5.846   3.898 -1.2281 -1.0167 -0.2985
   18MOL0     H 2372   7.385   5.832   3.996  0.2485 -1.2746 -0.2179
   18MOL0     H 2373   7.308   5.666   3.763 -0.5174  0.2271  0.9330
   18MOL0     H 2374   7.421   5.807   3.749  0.7324  0.1391  0.7322
   18MOL0     H 2375   7.573   5.704   3.906 -3.6518  0.2858  4.0447
   18MOL0     H 2376   7.486   5.546   3.901  0.1254 -1.4702 -2.4188
   18MOL0     H 2377   7.613   5.679   3.651  2.0446 -1.6753 -1.1883
   18MOL0     H 2378   7.523   5.526   3.656 -2.4649  1.1721  0.5999
   18MOL0     H 2379   7.708   5.443   3.803  0.3063 -0.3039 -0.0503
   18MOL0     H 2380   7.740   5.474   3.633  1.3600 -1.6694  1.6168
   18MOL0     H 2381   7.796   5.727   3.952  0.0293  0.2484  0.0041
   18MOL0     H 2382   8.069   5.874   3.962 -0.4434 -0.3426  0.3469
   18MOL0     H 2383   8.029   5.759   4.083 -1.6000  0.2093 -0.2204
   18MOL0     H 2384   8.272   5.727   3.886  0.3508 -4.3447  0.0379
   18MOL0     H 2385   8.285   5.795   4.039  2.4724 -1.4190 -0.1535
   18MOL0     H 2386   8.170   5.516   3.986 -1.1320  1.7538  0.6326
   18MOL0     H 2387   8.211   5.578   4.145  0.1845 -0.0524  0.8062
   18MOL0     H 2388   8.401   5.535   3.904  2.0673  0.6505  1.0585
   18MOL0     H 2389   8.405   5.443   4.062  0.2210 -0.6267 -1.0836
   18MOL0     H 2390   8.629   5.792   4.210  0.5589  0.2306  0.6106
   18MOL0     H 2391   8.877   5.773   4.234 -1.2683  1.5874 -1.6804
   18MOL0     H 2392   9.253   5.806   4.365 -3.3783 -0.9492  3.6331
   18MOL0     H 2393   9.497   5.784   4.440  1.1837 -1.3583  1.4772
   18MOL0     H 2394   9.601   5.367   4.587 -0.7690 -0.1681 -1.5808
   18MOL0     H 2395   9.666   5.370   4.433  0.7669  1.4202 -0.1717
   18MOL0     H 2396   9.789   5.477   4.688 -2.7980  2.0562 -0.3731
   18MOL0     H 2397   9.852   5.341   4.588 -1.7008 -0.6351 -1.2063
   18MOL0     H 2398   9.881   5.518   4.402 -2.2726  3.1997 -0.2084
   18MOL0     H 2399   9.858   5.632   4.532  1.3003  0.1643 -0.6767
   18MOL0     H 2400  10.062   5.404   4.552 -1.0856 -0.0846  1.0882
   18MOL0     H 2401  10.044   5.528   4.667  0.1196 -1.7241 -0.1558
   18MOL0     H 2402  10.086   5.699   4.472 -0.7633 -0.1312  1.3466
   18MOL0     H 2403  10.127   5.556   4.373 -1.9148 -0.7505  0.3245
   18MOL0     H 2404  10.264   5.664   4.610  0.7035  0.1281 -0.8198
   18MOL0     H 2405  10.275   5.492   4.574 -0.4904  0.5910  3.1010
   18MOL0     H 2406  10.360   5.539   4.352  1.5404  1.0398 -0.5150
   18MOL0     H 2407  10.470   5.610   4.467  1.1651  1.9173 -1.9001
   18MOL0     H 2408  10.271   5.756   4.290  1.0052 -0.3303 -1.8188
   18MOL0     H 2409  10.356   5.837   4.427 -0.3353  0.1528 -0.3676
   18MOL0     H 2410   9.453   5.358   4.392 -0.6370 -0.1268  0.6094
   18MOL0     H 2411   9.236   5.388   4.308  0.5826 -0.1824 -0.4881
   18MOL0     H 2412   8.875   5.396   4.024  0.4626 -0.4039 -0.6875
   18MOL0     H 2413   8.608   5.428   3.989 -2.2702  1.7624  1.3772
   18MOL0     H 2414   7.265   5.282   4.324  0.7577  0.8238  0.6969
   18MOL0     H 2415   7.169   5.072   4.401 -0.0136  0.5207  3.0371
   18MOL0     H 2416   6.840   4.825   4.535  0.4188 -0.7196  0.8756
   18MOL0     H 2417   6.817   4.595   4.571  0.7518 -0.6389 -0.8150
   18MOL0     H 2418   6.720   4.315   4.214  0.6318  0.2335 -0.2534
   18MOL0     H 2419   6.594   4.316   4.336  0.7061 -1.6139 -0.6781
   18MOL0     H 2420   6.745   4.140   4.464  0.8596 -2.4616 -0.5218
   18MOL0     H 2421   6.854   4.163   4.323 -0.4307 -0.5287 -0.2396
   18MOL0     H 2422   6.686   4.073   4.168 -2.0876  2.1069  0.1653
   18MOL0     H 2423   6.564   4.077   4.308  1.1173  0.6073  2.7835
   18MOL0     H 2424   6.663   3.898   4.410 -1.7968  0.3175 -0.2192
   18MOL0     H 2425   6.639   3.842   4.247  1.0588 -1.1038 -0.5596
   18MOL0     H 2426   7.066   3.852   4.264 -0.5651  0.7420 -3.0138
   18MOL0     H 2427   6.718   4.537   4.156 -0.1164 -1.1619  1.2768
   18MOL0     H 2428   6.835   4.821   4.036  0.1160  2.7103  2.0788
   18MOL0     H 2429   6.726   4.685   4.006  2.9475 -2.1317  0.2424
   18MOL0     H 2430   6.656   4.836   4.072  1.8610  1.9163 -1.7613
   19MOL0     O 2431   1.174   5.558   7.329 -0.1276 -0.0971  0.2830
   19MOL0     C 2432   1.064   5.543   7.386  0.6013  0.4095  0.6830
   19MOL0     O 2433   1.044   5.543   7.520  0.5215  0.8775 -0.8577
   19MOL0     C 2434   1.152   5.575   7.597 -0.3718 -0.1788 -0.2042
   19MOL0     C 2435   1.157   5.697   7.655  0.4388 -0.2528 -0.5622
   19MOL0     C 2436   1.261   5.727   7.748  0.1472  0.9677 -0.0709
   19MOL0     C 2437   1.355   5.635   7.789 -0.9403  0.3322  0.5165
   19MOL0     O 2438   1.442   5.678   7.888 -0.1050  0.0530  0.1600
   19MOL0     C 2439   1.581   5.644   7.877  0.2851  0.2102 -0.1631
   19MOL0     C 2440   1.630   5.788   7.884 -0.5601 -0.6966 -0.1722
   19MOL0     C 2441   1.770   5.790   7.838 -0.8151  0.4991  0.5178
   19MOL0     C 2442   1.866   5.716   7.936 -0.6512 -0.7172 -0.4401
   19MOL0     C 2443   2.016   5.713   7.887 -0.7520  0.9475  0.1361
   19MOL0     C 2444   2.080   5.843   7.892 -0.5952 -0.6564 -0.1116
   19MOL0     C 2445   2.227   5.842   7.901 -0.9351 -0.1528  0.0272
   19MOL0     C 2446   2.286   5.806   8.040  0.6507 -0.1245  0.2821
   19MOL0     N 2447   2.258   5.907   8.141  0.0625  0.3209 -0.4815
   19MOL0     C 2448   2.339   6.000   8.183 -0.3867 -0.9570  0.0817
   19MOL0     C 2449   2.267   6.074   8.277  0.4713 -1.5529  0.5131
   19MOL0     C 2450   2.309   6.187   8.375  0.2520 -0.2866 -0.5617
   19MOL0     C 2451   2.454   6.159   8.423 -0.1898  0.4262 -0.3509
   19MOL0     C 2452   2.461   6.031   8.509 -0.9592 -0.0430 -0.1631
   19MOL0     C 2453   2.596   6.000   8.544 -0.5859  0.1150 -0.4551
   19MOL0     O 2454   2.653   6.107   8.620  0.1710 -0.0226  0.1931
   19MOL0     C 2455   2.785   6.118   8.614 -0.6156 -0.6783 -0.1756
   19MOL0     C 2456   2.834   6.245   8.624 -0.1205 -0.1485  0.2721
   19MOL0     C 2457   2.968   6.274   8.603 -0.4373  0.5693  1.1615
   19MOL0     C 2458   3.060   6.164   8.599 -0.1266 -0.1876 -0.3180
   19MOL0     C 2459   3.211   6.183   8.594  0.3443  0.3635  0.1231
   19MOL0     O 2460   3.282   6.071   8.576 -0.1669 -0.9275  0.0472
   19MOL0     C 2461   3.417   6.077   8.566  0.2031  0.0322 -0.6332
   19MOL0     C 2462   3.494   6.188   8.509  0.8505 -0.2080  0.1601
   19MOL0     C 2463   3.631   6.181   8.506  0.1629  0.3359  0.3772
   19MOL0     C 2464   3.703   6.077   8.574  0.2373 -0.1561 -0.1225
   19MOL0     O 2465   3.840   6.072   8.583  0.0872 -0.5265  0.5378
   19MOL0     C 2466   3.909   6.099   8.459 -0.3416  0.7239 -0.5702
   19MOL0     C 2467   4.058   6.078   8.495 -0.3244 -0.4322  0.5333
   19MOL0     C 2468   4.150   6.036   8.382  0.1336 -0.3211 -0.0131
   19MOL0     C 2469   4.276   5.982   8.437 -0.9984  0.8625  0.6484
   19MOL0     C 2470   4.363   5.889   8.344  0.4363 -0.5914 -0.0158
   19MOL0     C 2471   4.417   5.969   8.221 -0.3394 -0.1497 -0.2156
   19MOL0     C 2472   4.537   6.049   8.258  0.4309  0.0344 -0.4075
   19MOL0     C 2473   4.540   6.183   8.188  0.0627 -0.3731 -0.1604
   19MOL0    Cl 2474   4.387   6.271   8.239  0.4682  0.1684 -0.1452
   19MOL0     C 2475   3.629   5.968   8.619  0.6913  0.6139 -0.6134
   19MOL0     C 2476   3.491   5.970   8.615  0.3040  0.1991  0.5698
   19MOL0     O 2477   3.253   6.295   8.605  0.4968  0.3908  0.0052
   19MOL0     C 2478   3.018   6.035   8.624 -0.5496 -0.1370  0.0204
   19MOL0     C 2479   2.876   6.008   8.619  0.7060  0.0732 -0.2283
   19MOL0     N 2480   2.140   6.022   8.274 -0.6821 -0.6142 -0.1779
   19MOL0     N 2481   2.144   5.920   8.198  0.7940 -1.2939 -0.4056
   19MOL0     C 2482   1.336   5.505   7.738 -0.3370  0.7893  0.0946
   19MOL0     C 2483   1.237   5.475   7.649 -0.1306  0.6475  0.1257
   19MOL0     C 2484   0.944   5.544   7.294  0.0996  0.0497 -0.1585
   19MOL0     C 2485   0.837   5.608   7.343 -0.3742 -0.5460  0.5518
   19MOL0     C 2486   0.717   5.626   7.263 -0.5681  0.0990 -0.4792
   19MOL0     C 2487   0.708   5.583   7.141  0.6645  0.6737 -0.1103
   19MOL0     O 2488   0.597   5.594   7.076  0.2451 -0.0030  0.2062
   19MOL0     C 2489   0.598   5.662   6.950 -0.8140  0.2426  0.3669
   19MOL0     C 2490   0.456   5.692   6.902  0.2668 -0.5217  0.3219
   19MOL0     C 2491   0.385   5.805   6.976 -0.8420  0.0421 -0.2009
   19MOL0     C 2492   0.252   5.856   6.921  0.2231  0.0513  0.7608
   19MOL0     C 2493   0.223   5.810   6.782 -0.0027  0.2672 -0.9265
   19MOL0     C 2494   0.180   5.774   6.674 -0.0056  0.0396  0.5157
   19MOL0     C 2495   0.819   5.516   7.084 -0.1325 -0.2415  0.3021
   19MOL0     C 2496   0.935   5.494   7.154 -0.5459 -0.2244  0.4187
   19MOL0     C 2497   1.066   5.439   7.088  0.1491  0.3521  0.0806
   19MOL0     H 2498   1.083   5.767   7.617 -0.1338 -0.0406  0.8939
   19MOL0     H 2499   1.274   5.824   7.796 -1.8322 -0.8426  4.6592
   19MOL0     H 2500   1.616   5.596   7.969 -0.7838  0.7904  0.5636
   19MOL0     H 2501   1.614   5.588   7.789  0.3936 -0.3085  0.2036
   19MOL0     H 2502   1.626   5.827   7.986 -1.5617  0.8245 -0.7491
   19MOL0     H 2503   1.575   5.856   7.818  0.4858 -0.1627 -0.5153
   19MOL0     H 2504   1.807   5.888   7.806 -1.4706  0.0469 -1.8523
   19MOL0     H 2505   1.770   5.730   7.746 -3.9081  1.9929 -0.5873
   19MOL0     H 2506   1.856   5.771   8.031 -0.6399 -2.0607  0.3672
   19MOL0     H 2507   1.827   5.617   7.959 -1.2352 -0.2545  0.6733
   19MOL0     H 2508   2.069   5.639   7.948 -2.5732  0.6699  1.4658
   19MOL0     H 2509   2.017   5.656   7.794  1.3324 -0.0026  0.6765
   19MOL0     H 2510   2.051   5.895   7.800  1.2156  2.8602  1.1116
   19MOL0     H 2511   2.039   5.902   7.975  2.5962 -0.1816  1.2671
   19MOL0     H 2512   2.263   5.944   7.886  0.0919 -0.7155 -1.5984
   19MOL0     H 2513   2.266   5.787   7.815  0.2612  2.8680 -1.5217
   19MOL0     H 2514   2.250   5.711   8.081  2.4483 -0.7927  0.3660
   19MOL0     H 2515   2.393   5.786   8.031  0.5795 -0.4075  0.0468
   19MOL0     H 2516   2.438   6.033   8.154 -0.8852  0.5401  0.0090
   19MOL0     H 2517   2.301   6.282   8.322 -3.3436 -1.2451 -2.0087
   19MOL0     H 2518   2.246   6.187   8.464 -0.8357 -3.2892 -1.2241
   19MOL0     H 2519   2.527   6.146   8.343  2.3786  3.0333  1.3574
   19MOL0     H 2520   2.492   6.238   8.488  0.8145  0.5004 -1.0144
   19MOL0     H 2521   2.416   5.955   8.444  1.1997  1.2679 -3.4182
   19MOL0     H 2522   2.402   6.048   8.600 -0.2001 -4.2186  1.3168
   19MOL0     H 2523   2.666   5.978   8.463  0.6873 -3.3081  1.3976
   19MOL0     H 2524   2.592   5.907   8.601 -4.4337  0.5487  0.2813
   19MOL0     H 2525   2.759   6.323   8.628 -1.1487 -1.0778 -0.3640
   19MOL0     H 2526   3.013   6.372   8.607 -1.0625  0.8466  1.6017
   19MOL0     H 2527   3.445   6.270   8.457  1.0919  0.3961  0.8802
   19MOL0     H 2528   3.684   6.262   8.456  3.3693 -3.0814 -2.3265
   19MOL0     H 2529   3.870   6.028   8.386  0.0830 -0.9397  0.7633
   19MOL0     H 2530   3.899   6.202   8.422  0.2559  0.7398 -0.7033
   19MOL0     H 2531   4.095   6.168   8.544 -0.9376 -0.8423  1.8043
   19MOL0     H 2532   4.056   5.990   8.561 -0.5013 -0.4063  0.5634
   19MOL0     H 2533   4.098   5.953   8.333  0.8630 -0.4259 -0.6400
   19MOL0     H 2534   4.174   6.115   8.311 -0.4415  0.0766  0.2311
   19MOL0     H 2535   4.258   5.917   8.523  1.6052 -2.3682 -1.0437
   19MOL0     H 2536   4.328   6.072   8.472 -0.8377  0.2854  1.9686
   19MOL0     H 2537   4.294   5.807   8.321 -0.8143 -0.3257  2.4714
   19MOL0     H 2538   4.440   5.850   8.412 -1.6164 -1.6920  1.8363
   19MOL0     H 2539   4.461   5.905   8.144 -0.1230 -0.6301  0.3002
   19MOL0     H 2540   4.342   6.033   8.174 -1.7074  0.8632  3.0550
   19MOL0     H 2541   4.627   5.994   8.229 -0.1000 -0.7190 -0.6446
   19MOL0     H 2542   4.538   6.064   8.366 -3.9127 -0.2479 -0.1799
   19MOL0     H 2543   4.625   6.242   8.222 -0.9863  0.6026  0.8717
   19MOL0     H 2544   4.549   6.178   8.079  0.7503 -1.0194 -0.0806
   19MOL0     H 2545   3.682   5.888   8.671  0.7675  0.3893 -1.0310
   19MOL0     H 2546   3.440   5.886   8.661  1.9545 -0.6631  0.9210
   19MOL0     H 2547   3.087   5.951   8.626 -0.8348 -0.4519 -1.6217
   19MOL0     H 2548   2.843   5.905   8.623  0.2344  0.1340 -1.8324
   19MOL0     H 2549   1.387   5.417   7.776  0.7510  1.3670  0.0055
   19MOL0     H 2550   1.213   5.381   7.601  1.5584  2.3279 -4.6782
   19MOL0     H 2551   0.843   5.650   7.443  0.1788  1.9034 -0.4368
   19MOL0     H 2552   0.632   5.676   7.308 -1.6695  0.7393 -3.0961
   19MOL0     H 2553   0.652   5.599   6.879  0.1107 -0.0811  1.3370
   19MOL0     H 2554   0.659   5.752   6.962  2.5012 -1.8921  0.8712
   19MOL0     H 2555   0.400   5.598   6.898  0.3630 -0.5819  0.3894
   19MOL0     H 2556   0.461   5.721   6.797 -0.5704  0.8042  0.6353
   19MOL0     H 2557   0.466   5.877   6.994  1.1307 -0.8982 -4.1925
   19MOL0     H 2558   0.358   5.754   7.069  2.4441 -1.1429  0.2333
   19MOL0     H 2559   0.175   5.812   6.985  0.1688 -1.6602 -0.4028
   19MOL0     H 2560   0.246   5.966   6.921 -0.4687  0.1674 -2.9045
   19MOL0     H 2561   0.141   5.767   6.575 -0.9003  0.0773  0.8586
   19MOL0     H 2562   0.818   5.473   6.984  1.7732  0.9049 -0.2572
   19MOL0     H 2563   1.119   5.358   7.139  3.6761  2.3962 -0.0237
   19MOL0     H 2564   1.040   5.412   6.985 -0.8530  2.5918 -0.3192
   19MOL0     H 2565   1.147   5.511   7.075 -0.4020  0.4650 -3.9357
   20MOL0     O 2566   7.644   4.319   4.051  0.0239  0.1728  0.2175
   20MOL0     C 2567   7.653   4.324   3.928  0.6987 -0.3546  0.4481
   20MOL0     O 2568   7.750   4.383   3.851  0.0407 -0.0333 -0.6048
   20MOL0     C 2569   7.861   4.436   3.910 -0.1063  0.5135 -0.8952
   20MOL0     C 2570   7.972   4.355   3.936 -0.0646  0.3166  0.8593
   20MOL0     C 2571   8.091   4.404   3.985  0.0462  0.5951  0.1903
   20MOL0     C 2572   8.111   4.541   4.003  0.0004 -0.9716 -0.5322
   20MOL0     O 2573   8.226   4.588   4.055  0.0177 -0.2767  0.0962
   20MOL0     C 2574   8.310   4.646   3.954 -0.5713 -0.3555 -0.3524
   20MOL0     C 2575   8.456   4.677   3.997  0.5881  0.1887 -0.2838
   20MOL0     C 2576   8.511   4.586   4.097  0.9488 -0.3434 -0.7699
   20MOL0     C 2577   8.541   4.446   4.051  0.9351  0.3915  0.0718
   20MOL0     C 2578   8.575   4.355   4.169  0.2607 -0.2226 -0.3458
   20MOL0     C 2579   8.690   4.262   4.144  0.0025 -0.8635 -0.7002
   20MOL0     C 2580   8.827   4.318   4.153  0.2470  0.3054  0.0776
   20MOL0     C 2581   8.929   4.196   4.141 -0.4852 -0.8061  0.0804
   20MOL0     N 2582   9.068   4.244   4.147  0.0016  0.1449 -0.3707
   20MOL0     C 2583   9.131   4.284   4.262 -0.2190 -0.1248 -0.2211
   20MOL0     C 2584   9.265   4.292   4.226 -0.1531  1.2046  0.2957
   20MOL0     C 2585   9.384   4.333   4.310 -0.0879  0.1142  0.6403
   20MOL0     C 2586   9.371   4.477   4.372  1.2447  0.1583 -0.6259
   20MOL0     C 2587   9.488   4.517   4.458 -0.7697  0.7632 -1.0295
   20MOL0     C 2588   9.623   4.538   4.386  0.4718 -0.4755  0.0789
   20MOL0     O 2589   9.728   4.484   4.471 -0.2114  0.2757  0.2926
   20MOL0     C 2590   9.861   4.518   4.456 -1.2301 -0.7832  0.5941
   20MOL0     C 2591   9.956   4.438   4.526  0.2062  0.3240 -0.7090
   20MOL0     C 2592  10.092   4.457   4.533  0.2955 -0.3777  0.2563
   20MOL0     C 2593  10.149   4.562   4.451  0.9156 -1.1444  0.1226
   20MOL0     C 2594  10.296   4.583   4.443 -0.6982  1.1061 -0.0252
   20MOL0     O 2595  10.341   4.700   4.390  0.5886 -0.3920 -0.3599
   20MOL0     C 2596  10.476   4.708   4.362 -0.4750 -0.5797 -0.1615
   20MOL0     C 2597  10.528   4.642   4.251  0.5440  0.0203  0.4352
   20MOL0     C 2598  10.667   4.635   4.227  0.1937  0.1856 -0.5080
   20MOL0     C 2599  10.757   4.702   4.310  0.0686  0.1316 -0.3759
   20MOL0     O 2600  10.895   4.713   4.294  0.4620  0.9687 -0.1766
   20MOL0     C 2601  10.946   4.595   4.230  0.4340 -0.2987 -0.8197
   20MOL0     C 2602  11.100   4.612   4.210 -0.0605  0.8615  1.2777
   20MOL0     C 2603  11.162   4.467   4.194  0.3515 -0.1252 -0.3156
   20MOL0     C 2604  11.319   4.469   4.169  0.4511 -0.2879 -0.0470
   20MOL0     C 2605  11.369   4.326   4.132  0.3747  0.1161 -0.3933
   20MOL0     C 2606  11.509   4.341   4.066  0.0350  0.5982  0.4353
   20MOL0     C 2607  11.612   4.412   4.165  0.3072  0.5987 -0.4384
   20MOL0     C 2608  11.765   4.396   4.117 -0.2883  0.0729 -0.1075
   20MOL0    Cl 2609  11.883   4.462   4.232  0.2547 -0.0541  0.1120
   20MOL0     C 2610  10.705   4.784   4.406  0.0041 -0.5227 -0.1703
   20MOL0     C 2611  10.574   4.772   4.446  0.0780 -0.4549  0.6841
   20MOL0     O 2612  10.372   4.493   4.474  0.5263  0.4046  0.8816
   20MOL0     C 2613  10.056   4.650   4.378  0.1694  0.5395 -0.3863
   20MOL0     C 2614   9.921   4.619   4.376  0.5968 -0.3203 -0.4013
   20MOL0     N 2615   9.270   4.263   4.093 -0.4994  0.1177 -0.8793
   20MOL0     N 2616   9.157   4.239   4.044 -0.6437  1.1962  0.3971
   20MOL0     C 2617   8.003   4.632   3.970  0.2580  0.5282  0.0161
   20MOL0     C 2618   7.881   4.576   3.923 -0.0073 -0.0485 -1.0351
   20MOL0     C 2619   7.534   4.286   3.855  0.4625 -0.6427 -0.3752
   20MOL0     C 2620   7.508   4.364   3.737  0.4680 -0.0143 -0.2284
   20MOL0     C 2621   7.404   4.338   3.656  0.3971  0.0347 -0.9605
   20MOL0     C 2622   7.318   4.227   3.691  0.2988 -0.1455  0.4322
   20MOL0     O 2623   7.213   4.222   3.611  0.1960 -0.1219 -0.2284
   20MOL0     C 2624   7.098   4.138   3.642  0.1388 -0.6912  0.8539
   20MOL0     C 2625   7.102   3.993   3.585  0.0502  0.1959  0.3295
   20MOL0     C 2626   7.069   3.966   3.438  0.2838  0.7314 -0.4324
   20MOL0     C 2627   7.178   4.044   3.356  0.9041  0.2700  0.0371
   20MOL0     C 2628   7.217   3.964   3.237 -0.6690 -0.7110 -0.2098
   20MOL0     C 2629   7.240   3.883   3.155  0.4237 -0.3181  1.1212
   20MOL0     C 2630   7.338   4.151   3.808  0.0634  0.4121 -0.3772
   20MOL0     C 2631   7.455   4.182   3.887 -1.0420  0.4707  0.6728
   20MOL0     C 2632   7.479   4.094   4.013 -0.1875 -0.1000  0.2003
   20MOL0     H 2633   7.965   4.248   3.922  3.0887  0.3369 -2.5842
   20MOL0     H 2634   8.176   4.342   4.014 -0.7174  0.0261  1.2555
   20MOL0     H 2635   8.316   4.582   3.865 -0.3849 -1.5661  0.4963
   20MOL0     H 2636   8.267   4.739   3.915  3.7180  1.0796 -2.2245
   20MOL0     H 2637   8.445   4.775   4.043 -1.2799  0.1900 -0.6696
   20MOL0     H 2638   8.515   4.700   3.907 -1.5814  0.6922 -1.6713
   20MOL0     H 2639   8.449   4.583   4.187  1.7721 -1.3901 -0.2048
   20MOL0     H 2640   8.603   4.630   4.138 -1.6362  2.4330  2.6230
   20MOL0     H 2641   8.453   4.413   3.995  2.3108  0.4361 -2.2556
   20MOL0     H 2642   8.627   4.454   3.984  0.7219  0.4811 -0.1932
   20MOL0     H 2643   8.591   4.421   4.255  0.2095  3.2727 -2.8139
   20MOL0     H 2644   8.488   4.295   4.194  1.0088 -0.2250  2.7568
   20MOL0     H 2645   8.678   4.186   4.223  1.4458 -1.4431 -1.0191
   20MOL0     H 2646   8.662   4.210   4.052  0.3817 -0.2280 -1.1799
   20MOL0     H 2647   8.839   4.370   4.248  1.3872 -0.3189  0.3062
   20MOL0     H 2648   8.844   4.391   4.074 -2.0250  3.0805  1.9560
   20MOL0     H 2649   8.900   4.115   4.208  0.9025  0.1398  1.8967
   20MOL0     H 2650   8.915   4.154   4.040 -1.5415  1.7580 -0.9422
   20MOL0     H 2651   9.081   4.303   4.356  0.4922 -0.5478  0.2514
   20MOL0     H 2652   9.395   4.260   4.391  1.6774 -0.5235 -0.1090
   20MOL0     H 2653   9.473   4.326   4.247 -0.3937 -0.3778  0.2480
   20MOL0     H 2654   9.351   4.552   4.295 -2.3615  1.0316  0.9739
   20MOL0     H 2655   9.278   4.465   4.428 -0.9573 -1.8447 -4.2922
   20MOL0     H 2656   9.507   4.442   4.536  1.1845 -1.5597 -3.5140
   20MOL0     H 2657   9.470   4.610   4.512  4.3562  0.2936  2.1737
   20MOL0     H 2658   9.634   4.647   4.375  0.5791 -0.1030  3.0785
   20MOL0     H 2659   9.622   4.479   4.295  0.0068 -2.1984  1.1578
   20MOL0     H 2660   9.920   4.356   4.587 -0.0414  0.5827 -0.5103
   20MOL0     H 2661  10.165   4.403   4.592  0.4595 -1.0547 -0.5529
   20MOL0     H 2662  10.458   4.595   4.183 -1.3279  3.0300  0.0782
   20MOL0     H 2663  10.688   4.571   4.142 -0.6974  0.4443 -0.9377
   20MOL0     H 2664  10.925   4.511   4.297 -2.4573 -1.3321 -2.8309
   20MOL0     H 2665  10.899   4.583   4.132 -4.7147  1.9184  1.0311
   20MOL0     H 2666  11.118   4.664   4.115  1.0839  1.0830  1.5996
   20MOL0     H 2667  11.145   4.663   4.295  0.5630  0.2728  1.3146
   20MOL0     H 2668  11.129   4.409   4.280  2.4715 -0.0527  0.6054
   20MOL0     H 2669  11.119   4.402   4.117 -1.4019 -0.6042  1.0162
   20MOL0     H 2670  11.360   4.510   4.261  2.1852  0.9520 -1.3039
   20MOL0     H 2671  11.332   4.536   4.083  1.9200  2.7229  2.3558
   20MOL0     H 2672  11.308   4.278   4.055 -0.5372  0.8386 -0.1429
   20MOL0     H 2673  11.367   4.273   4.228  2.6808  3.3605  1.6367
   20MOL0     H 2674  11.552   4.244   4.039 -0.1489  1.1119 -1.9045
   20MOL0     H 2675  11.512   4.401   3.974 -0.7814 -0.8953 -0.6152
   20MOL0     H 2676  11.607   4.358   4.261  1.3201  0.3739 -0.5034
   20MOL0     H 2677  11.585   4.516   4.183  1.0352  0.5378  1.1939
   20MOL0     H 2678  11.781   4.290   4.096 -0.7087 -0.0164  0.0149
   20MOL0     H 2679  11.782   4.447   4.022 -0.3058 -0.4415 -0.3917
   20MOL0     H 2680  10.767   4.861   4.450  1.0933 -0.3599 -1.8820
   20MOL0     H 2681  10.546   4.832   4.532  1.9897  0.4626  0.7268
   20MOL0     H 2682  10.095   4.737   4.326  0.0057  1.9038  1.6274
   20MOL0     H 2683   9.851   4.670   4.310 -0.1541  1.6597  1.7905
   20MOL0     H 2684   8.025   4.738   3.975  1.5871  0.2498  0.5253
   20MOL0     H 2685   7.809   4.647   3.883  0.9384  2.4490  1.3780
   20MOL0     H 2686   7.568   4.452   3.713 -1.3843  1.5065  0.4372
   20MOL0     H 2687   7.372   4.387   3.564 -1.6707  0.9346  0.1478
   20MOL0     H 2688   7.013   4.185   3.590  1.9387  0.6918 -0.9967
   20MOL0     H 2689   7.073   4.151   3.748  0.0947  0.1229  0.7545
   20MOL0     H 2690   7.026   3.933   3.637 -0.3705 -2.8821 -3.3949
   20MOL0     H 2691   7.202   3.959   3.611  0.6107  1.4706 -0.0847
   20MOL0     H 2692   6.966   3.991   3.409 -1.0155 -0.5916  2.5650
   20MOL0     H 2693   7.069   3.858   3.420 -3.8646  0.7583 -1.6480
   20MOL0     H 2694   7.129   4.139   3.334 -0.3899 -0.2174  0.7001
   20MOL0     H 2695   7.268   4.060   3.415  0.7477  0.5840  0.1935
   20MOL0     H 2696   7.264   3.815   3.075  1.2208  0.4724  0.6705
   20MOL0     H 2697   7.272   4.068   3.832  3.3638 -2.4977 -0.6640
   20MOL0     H 2698   7.392   4.029   4.023 -0.2304 -0.4447 -2.0294
   20MOL0     H 2699   7.571   4.038   3.996  0.6062  0.9814  0.7652
   20MOL0     H 2700   7.496   4.146   4.108 -2.5119 -3.2399  2.5483
   21MOL0     O 2701   2.211   1.874  10.729 -0.4235  0.4544 -0.8538
   21MOL0     C 2702   2.146   1.888  10.623 -0.4073 -0.6240  0.7422
   21MOL0     O 2703   2.013   1.904  10.615  0.2508  0.1547  0.1469
   21MOL0     C 2704   1.931   1.941  10.721 -0.2683  0.3381 -1.0493
   21MOL0     C 2705   1.952   1.891  10.852  0.0879 -0.0170 -0.6336
   21MOL0     C 2706   1.859   1.931  10.949  0.5243  0.4897 -0.1916
   21MOL0     C 2707   1.744   2.004  10.924 -0.8394  1.2582 -0.2050
   21MOL0     O 2708   1.656   2.022  11.028 -0.1131 -0.3235  0.0234
   21MOL0     C 2709   1.542   2.115  11.019 -0.1445  0.5009  0.4415
   21MOL0     C 2710   1.495   2.150  11.160  0.0005  0.3765  0.1691
   21MOL0     C 2711   1.432   2.027  11.227 -0.1022  0.3451 -0.2069
   21MOL0     C 2712   1.390   2.052  11.367 -0.1693  0.3371  0.0971
   21MOL0     C 2713   1.316   1.931  11.423  0.4288  0.1653  0.0066
   21MOL0     C 2714   1.252   1.959  11.557 -0.7759 -1.1059  0.5955
   21MOL0     C 2715   1.134   1.865  11.596  0.1221 -0.7565 -0.0403
   21MOL0     C 2716   1.076   1.903  11.732 -0.0998 -0.3684  0.0664
   21MOL0     N 2717   1.182   1.901  11.831 -0.2922 -0.1934  0.1417
   21MOL0     C 2718   1.254   2.011  11.872 -0.2146  0.0905 -0.3771
   21MOL0     C 2719   1.352   1.970  11.957  0.3302 -0.1407 -0.3847
   21MOL0     C 2720   1.453   2.046  12.033  0.1146 -0.1638  0.7894
   21MOL0     C 2721   1.528   2.142  11.931 -0.2976 -0.0050  0.2348
   21MOL0     C 2722   1.649   2.221  11.992 -0.1633  0.0845  0.3727
   21MOL0     C 2723   1.759   2.138  12.051  0.2362 -0.1950  0.6157
   21MOL0     O 2724   1.811   2.065  11.940  0.0693 -0.2699  0.2314
   21MOL0     C 2725   1.941   2.058  11.952  0.0721  0.3984 -0.2090
   21MOL0     C 2726   2.017   2.142  11.874 -0.7873  0.4722  0.5441
   21MOL0     C 2727   2.155   2.130  11.872 -0.0470  0.4056 -0.5536
   21MOL0     C 2728   2.222   2.041  11.954 -0.5599  0.9020 -0.4019
   21MOL0     C 2729   2.373   2.040  11.962 -0.2072  0.0572  0.4289
   21MOL0     O 2730   2.430   1.944  12.050  0.4698 -0.1381 -0.1630
   21MOL0     C 2731   2.562   1.931  12.049 -0.0159 -0.5242  0.5352
   21MOL0     C 2732   2.616   1.821  11.973  0.1296  0.2949 -0.5123
   21MOL0     C 2733   2.756   1.801  11.981 -0.2237  0.2579  0.6924
   21MOL0     C 2734   2.841   1.884  12.048 -1.2633 -0.0321 -0.2005
   21MOL0     O 2735   2.978   1.852  12.044  0.1042 -0.1754  0.5124
   21MOL0     C 2736   3.078   1.957  12.066  0.7396  0.2505 -0.5587
   21MOL0     C 2737   3.205   1.892  12.013  0.5239  0.0602 -0.5442
   21MOL0     C 2738   3.310   1.980  11.958 -0.1835 -0.0011 -0.1018
   21MOL0     C 2739   3.442   1.917  11.940  0.0239  0.6265 -0.2767
   21MOL0     C 2740   3.556   2.023  11.931 -0.5946  0.9410  0.0170
   21MOL0     C 2741   3.688   1.964  11.900  0.7902  1.0723  0.4833
   21MOL0     C 2742   3.740   1.847  11.986 -0.4290  0.5908  0.3861
   21MOL0     C 2743   3.751   1.863  12.130  0.0302 -0.0921  0.1562
   21MOL0    Cl 2744   3.838   1.719  12.181  0.7480  0.0429  0.3871
   21MOL0     C 2745   2.792   1.994  12.111 -0.6975  0.4304 -0.5163
   21MOL0     C 2746   2.656   2.015  12.112 -0.1212 -0.0866  0.5656
   21MOL0     O 2747   2.438   2.121  11.898  0.1335  0.3475 -0.5262
   21MOL0     C 2748   2.149   1.962  12.035  0.3005  0.2229 -0.1144
   21MOL0     C 2749   2.005   1.968  12.038 -0.2415 -0.5566 -1.1155
   21MOL0     N 2750   1.327   1.832  11.972  0.3611  0.0579  0.1926
   21MOL0     N 2751   1.223   1.789  11.900 -0.4909  0.1057 -0.4692
   21MOL0     C 2752   1.719   2.034  10.789 -0.2795  0.6019  0.2086
   21MOL0     C 2753   1.818   2.012  10.692  0.2086  0.1452  0.7377
   21MOL0     C 2754   2.214   1.884  10.489  0.3312  0.5744 -0.3726
   21MOL0     C 2755   2.140   1.880  10.362 -0.2679  0.8311  0.3959
   21MOL0     C 2756   2.195   1.860  10.233 -0.0787 -0.3884 -0.1661
   21MOL0     C 2757   2.331   1.864  10.222 -0.1327 -0.3456  0.2464
   21MOL0     O 2758   2.397   1.862  10.094 -0.1045  0.7179  0.3873
   21MOL0     C 2759   2.317   1.831   9.980 -0.0468  0.5735 -0.7189
   21MOL0     C 2760   2.412   1.778   9.883 -0.2088  0.7487  0.2936
   21MOL0     C 2761   2.472   1.643   9.911  0.4936 -0.4898 -0.9106
   21MOL0     C 2762   2.453   1.530   9.807 -0.1769  0.3000  0.2762
   21MOL0     C 2763   2.534   1.582   9.692  0.1753 -0.4375 -0.4874
   21MOL0     C 2764   2.610   1.619   9.603 -0.2961  0.7607  0.1513
   21MOL0     C 2765   2.412   1.885  10.339 -0.3083 -0.2213  0.5501
   21MOL0     C 2766   2.358   1.883  10.472 -0.2094 -0.3192  0.3762
   21MOL0     C 2767   2.453   1.921  10.587 -0.1294  0.1109 -0.3726
   21MOL0     H 2768   2.035   1.828  10.882  0.7767  0.2833 -1.8112
   21MOL0     H 2769   1.861   1.907  11.054  0.2540  1.8922  0.1631
   21MOL0     H 2770   1.576   2.207  10.970  1.3892 -0.1904  0.1565
   21MOL0     H 2771   1.449   2.088  10.967 -1.3189  3.5945  0.7104
   21MOL0     H 2772   1.437   2.242  11.149 -0.4256  0.2696  1.3607
   21MOL0     H 2773   1.587   2.171  11.215  0.8670 -2.1838 -0.1810
   21MOL0     H 2774   1.493   1.936  11.231 -1.3172 -0.5262 -0.6209
   21MOL0     H 2775   1.346   2.008  11.162  0.1086  0.9862 -0.6807
   21MOL0     H 2776   1.474   2.067  11.436 -1.0077  2.4779  0.7316
   21MOL0     H 2777   1.332   2.145  11.373 -2.6219 -0.9071 -2.2668
   21MOL0     H 2778   1.239   1.897  11.352 -1.4230  3.0446  0.4846
   21MOL0     H 2779   1.381   1.846  11.446  0.6444 -0.1044 -1.4976
   21MOL0     H 2780   1.329   1.958  11.635 -0.9344 -0.6738  0.7580
   21MOL0     H 2781   1.209   2.060  11.559 -0.2327 -0.8784  1.1147
   21MOL0     H 2782   1.171   1.763  11.611  2.3594  0.2118  1.6590
   21MOL0     H 2783   1.057   1.866  11.519  0.0034  0.2803  0.0799
   21MOL0     H 2784   1.030   2.003  11.732 -1.6920 -1.0549 -1.8480
   21MOL0     H 2785   1.001   1.826  11.753 -1.4126  0.6326 -0.7617
   21MOL0     H 2786   1.239   2.111  11.833 -1.1881 -0.8022 -2.4164
   21MOL0     H 2787   1.409   2.116  12.105  0.2455 -0.1230  0.8282
   21MOL0     H 2788   1.522   1.978  12.084 -1.8343 -0.6364  2.9852
   21MOL0     H 2789   1.567   2.069  11.860 -2.3385 -0.4185 -0.5277
   21MOL0     H 2790   1.445   2.201  11.891  0.7435  1.7526  0.5404
   21MOL0     H 2791   1.609   2.286  12.070 -0.5289  0.1704  0.1120
   21MOL0     H 2792   1.692   2.282  11.911 -1.1543 -2.3358 -2.1495
   21MOL0     H 2793   1.716   2.072  12.127  1.2521 -0.0237  1.3558
   21MOL0     H 2794   1.831   2.199  12.105 -0.0059  1.6165 -0.9837
   21MOL0     H 2795   1.965   2.217  11.815 -1.2020  0.6601  1.1427
   21MOL0     H 2796   2.217   2.193  11.809  0.8946  2.2287  2.0369
   21MOL0     H 2797   2.540   1.761  11.925 -0.9642  2.4572 -1.6527
   21MOL0     H 2798   2.800   1.707  11.948 -1.7571  0.2344 -1.4555
   21MOL0     H 2799   3.064   2.054  12.017 -3.7964 -0.2877 -0.7586
   21MOL0     H 2800   3.091   1.980  12.172  1.6403 -1.1875 -0.3284
   21MOL0     H 2801   3.237   1.832  12.099  0.3421 -2.3520 -2.0534
   21MOL0     H 2802   3.168   1.820  11.939 -0.9060 -1.3140  1.4120
   21MOL0     H 2803   3.276   2.020  11.862  0.5136  1.3488  0.1995
   21MOL0     H 2804   3.326   2.068  12.021  2.5367 -0.7363  0.3733
   21MOL0     H 2805   3.448   1.860  11.847  0.4184  1.3965 -0.7235
   21MOL0     H 2806   3.468   1.850  12.023 -2.0835  0.0557 -0.0216
   21MOL0     H 2807   3.562   2.087  12.019 -0.8001 -1.5545  1.9496
   21MOL0     H 2808   3.541   2.098  11.853  1.8465  1.2438 -0.2462
   21MOL0     H 2809   3.666   1.925  11.800 -2.2064 -0.1631  1.5158
   21MOL0     H 2810   3.768   2.039  11.896  2.1288 -0.3571 -0.6155
   21MOL0     H 2811   3.832   1.802  11.947 -0.9649 -0.0558 -0.1632
   21MOL0     H 2812   3.668   1.767  11.965  0.0138  0.9740 -3.3438
   21MOL0     H 2813   3.804   1.953  12.162 -2.2078  2.0394 -1.6916
   21MOL0     H 2814   3.656   1.859  12.185  1.0871  1.4586  2.2554
   21MOL0     H 2815   2.856   2.057  12.172 -1.5875 -0.1171  1.0447
   21MOL0     H 2816   2.616   2.093  12.176  1.2827  2.1515 -1.1154
   21MOL0     H 2817   2.205   1.893  12.098 -0.6647  0.0650  0.5958
   21MOL0     H 2818   1.948   1.905  12.106 -2.0669  1.0546 -1.0727
   21MOL0     H 2819   1.626   2.074  10.749  1.0355  2.3228 -1.3181
   21MOL0     H 2820   1.807   2.043  10.589  2.2309  0.2645  0.5220
   21MOL0     H 2821   2.032   1.890  10.372 -0.2533 -0.0958  1.8631
   21MOL0     H 2822   2.124   1.862  10.151 -0.1357  1.1764 -0.1216
   21MOL0     H 2823   2.261   1.915   9.939 -1.2982  0.0174 -0.2380
   21MOL0     H 2824   2.241   1.753   9.996  1.5264 -0.9042 -0.1276
   21MOL0     H 2825   2.501   1.839   9.866  1.6057 -1.9716 -0.6584
   21MOL0     H 2826   2.347   1.769   9.795 -0.5394 -0.9667  0.6706
   21MOL0     H 2827   2.429   1.609  10.006 -1.5177 -1.1009 -1.9859
   21MOL0     H 2828   2.579   1.655   9.932  0.2996  1.3735 -0.7950
   21MOL0     H 2829   2.509   1.446   9.847  0.2467  1.0938  1.4019
   21MOL0     H 2830   2.348   1.499   9.796 -0.0834 -0.6021  1.7164
   21MOL0     H 2831   2.681   1.650   9.529  0.3945  0.2210  0.5701
   21MOL0     H 2832   2.519   1.894  10.322 -0.1142 -2.8362  0.0639
   21MOL0     H 2833   2.415   2.012  10.635 -0.4611 -1.5936  2.9010
   21MOL0     H 2834   2.475   1.853  10.670  4.6341  2.1722  0.3620
   21MOL0     H 2835   2.549   1.950  10.545  1.0344  0.6275  2.4003
   22MOL0     O 2836   4.926   8.908   7.506 -0.1734  0.1508 -0.0579
   22MOL0     C 2837   4.880   8.865   7.401 -0.7313  1.0576  0.1060
   22MOL0     O 2838   4.937   8.890   7.272 -0.1495 -0.1582 -1.1161
   22MOL0     C 2839   5.065   8.932   7.266 -0.4935 -0.7196 -0.9515
   22MOL0     C 2840   5.088   9.058   7.211  0.3583 -0.8255  0.8645
   22MOL0     C 2841   5.220   9.100   7.200  0.5068  0.4033  0.1736
   22MOL0     C 2842   5.327   9.021   7.241  0.1788  0.6485 -0.9270
   22MOL0     O 2843   5.451   9.076   7.247 -0.2579 -0.1888  0.1666
   22MOL0     C 2844   5.471   9.203   7.175  0.6858  0.0415 -0.6677
   22MOL0     C 2845   5.614   9.244   7.204 -0.2029 -0.1768 -0.1561
   22MOL0     C 2846   5.637   9.387   7.176 -0.2310 -0.0685  0.1694
   22MOL0     C 2847   5.768   9.410   7.247  0.4603  0.5990 -0.2205
   22MOL0     C 2848   5.822   9.550   7.209 -0.4134  0.4484 -0.6641
   22MOL0     C 2849   5.959   9.575   7.277  0.1064  0.3747 -0.2019
   22MOL0     C 2850   6.012   9.704   7.217  0.8181 -0.1784  0.7940
   22MOL0     C 2851   6.124   9.765   7.297  0.1653  0.2138 -0.0290
   22MOL0     N 2852   6.253   9.697   7.269  0.0039  1.0856 -0.1246
   22MOL0     C 2853   6.346   9.738   7.180  0.0387  0.9803  0.6021
   22MOL0     C 2854   6.450   9.649   7.192 -0.6685 -0.0755 -0.1081
   22MOL0     C 2855   6.573   9.652   7.107  0.1437 -0.0719  0.8145
   22MOL0     C 2856   6.694   9.723   7.167  0.2237 -0.7805 -0.5384
   22MOL0     C 2857   6.825   9.664   7.128 -0.7236 -0.5087  0.1419
   22MOL0     C 2858   6.857   9.537   7.204  0.3869  0.1615  0.7151
   22MOL0     O 2859   6.992   9.500   7.172 -0.6522 -0.4423  0.1100
   22MOL0     C 2860   7.102   9.566   7.222 -0.3991  0.8670 -0.4462
   22MOL0     C 2861   7.224   9.521   7.181 -0.1602  0.3345 -0.1509
   22MOL0     C 2862   7.342   9.555   7.248 -0.8939  0.5569  0.5032
   22MOL0     C 2863   7.332   9.637   7.365 -0.7212 -0.1601  0.3434
   22MOL0     C 2864   7.455   9.662   7.433 -1.4206  0.3551 -0.8292
   22MOL0     O 2865   7.565   9.583   7.405  0.2659  0.3753 -0.2613
   22MOL0     C 2866   7.688   9.599   7.473 -0.3069  0.8002  0.2593
   22MOL0     C 2867   7.802   9.614   7.389  0.1244  0.8143  0.2230
   22MOL0     C 2868   7.932   9.616   7.451  0.2681 -0.0027  0.3515
   22MOL0     C 2869   7.944   9.627   7.589 -0.3386 -0.0363 -0.3860
   22MOL0     O 2870   8.075   9.635   7.637  0.7014  0.3169 -0.3876
   22MOL0     C 2871   8.093   9.669   7.773  0.1067  0.0354 -0.4424
   22MOL0     C 2872   8.246   9.650   7.811 -0.0977 -0.2335  0.7299
   22MOL0     C 2873   8.340   9.755   7.747  0.0138  0.4469  0.6048
   22MOL0     C 2874   8.482   9.728   7.784 -0.1178 -0.2063 -0.0697
   22MOL0     C 2875   8.589   9.838   7.759  0.3790  0.0832 -0.5109
   22MOL0     C 2876   8.732   9.802   7.796  0.0993  0.8679  0.4372
   22MOL0     C 2877   8.823   9.889   7.715  0.1794  0.2694 -0.0158
   22MOL0     C 2878   8.821  10.029   7.788 -0.0400 -0.4885  0.5384
   22MOL0    Cl 2879   8.935  10.138   7.703 -0.1452 -0.4835 -0.0235
   22MOL0     C 2880   7.830   9.617   7.668  0.2156  1.2691  0.1110
   22MOL0     C 2881   7.706   9.597   7.611  0.2940 -0.2252  0.9657
   22MOL0     O 2882   7.453   9.755   7.515 -0.4538  0.4964  0.2078
   22MOL0     C 2883   7.211   9.683   7.415 -0.7059 -0.0568  0.7708
   22MOL0     C 2884   7.097   9.644   7.344  0.1913 -0.1005  0.2670
   22MOL0     N 2885   6.420   9.559   7.297 -0.6028 -0.2255 -0.1062
   22MOL0     N 2886   6.306   9.593   7.348 -0.6124 -0.1329  0.8169
   22MOL0     C 2887   5.306   8.892   7.304  0.6981 -0.8351 -0.3935
   22MOL0     C 2888   5.174   8.848   7.308 -0.5950  0.1773  0.0685
   22MOL0     C 2889   4.764   8.777   7.402  0.5426  0.2770  0.0997
   22MOL0     C 2890   4.721   8.720   7.283  0.5605  0.4655 -0.9742
   22MOL0     C 2891   4.617   8.624   7.279  0.2018  0.4898  0.0784
   22MOL0     C 2892   4.546   8.598   7.398 -0.1298 -1.0357  0.5031
   22MOL0     O 2893   4.442   8.510   7.399  0.6621  0.2227  0.0682
   22MOL0     C 2894   4.312   8.551   7.345 -0.2987  0.8102 -0.7722
   22MOL0     C 2895   4.231   8.422   7.323  0.3581  0.0356  0.1310
   22MOL0     C 2896   4.283   8.326   7.205  0.8516  0.3083  0.1108
   22MOL0     C 2897   4.311   8.380   7.070  0.2619  0.3664  0.5804
   22MOL0     C 2898   4.196   8.461   7.020 -0.2702  0.3616 -0.5467
   22MOL0     C 2899   4.096   8.524   6.992  0.0722 -0.2506  0.1449
   22MOL0     C 2900   4.580   8.655   7.518 -0.3690 -0.5275 -0.3850
   22MOL0     C 2901   4.690   8.744   7.525  0.2669 -0.3771 -0.3392
   22MOL0     C 2902   4.706   8.791   7.670  0.1621 -0.0607 -0.0277
   22MOL0     H 2903   5.009   9.114   7.162  0.0942 -2.7906 -1.1437
   22MOL0     H 2904   5.227   9.193   7.144  1.4213  0.7916  0.9035
   22MOL0     H 2905   5.463   9.186   7.067 -0.2673 -0.5645 -0.5222
   22MOL0     H 2906   5.411   9.288   7.208  1.1170  0.0739  0.0479
   22MOL0     H 2907   5.690   9.176   7.164  1.5324  0.3932  1.9833
   22MOL0     H 2908   5.628   9.237   7.312  0.3048  0.9763 -0.1275
   22MOL0     H 2909   5.553   9.451   7.205 -0.8571 -1.0685  0.6521
   22MOL0     H 2910   5.642   9.396   7.067 -1.9071 -1.5190 -0.0797
   22MOL0     H 2911   5.757   9.399   7.355 -0.3997 -1.3255 -0.4652
   22MOL0     H 2912   5.839   9.341   7.201 -0.0167  1.1243 -1.8243
   22MOL0     H 2913   5.825   9.560   7.100  0.4054  1.1797 -0.5795
   22MOL0     H 2914   5.758   9.626   7.255  1.7366  1.1434  1.3378
   22MOL0     H 2915   5.945   9.582   7.385 -2.2014  0.9876 -0.4919
   22MOL0     H 2916   6.025   9.490   7.259 -0.1087  0.1095  0.2493
   22MOL0     H 2917   5.943   9.786   7.237  0.6578  0.2236 -1.2198
   22MOL0     H 2918   6.023   9.709   7.109  0.0870  3.2711  0.7499
   22MOL0     H 2919   6.142   9.872   7.288  1.3997  0.1803  1.4835
   22MOL0     H 2920   6.101   9.761   7.404  1.2733  1.7305  0.2901
   22MOL0     H 2921   6.334   9.829   7.123  0.5873  1.3109  1.0054
   22MOL0     H 2922   6.597   9.547   7.085 -1.2066 -0.4358  0.9301
   22MOL0     H 2923   6.546   9.703   7.014 -2.1349 -0.3588  1.2485
   22MOL0     H 2924   6.689   9.830   7.144  2.2958 -0.0621  1.8098
   22MOL0     H 2925   6.690   9.729   7.277 -0.5266  0.7940 -0.6232
   22MOL0     H 2926   6.903   9.739   7.140 -0.9223 -0.0222 -1.4194
   22MOL0     H 2927   6.818   9.653   7.020 -2.8623  2.2624 -0.0956
   22MOL0     H 2928   6.793   9.454   7.175  2.0741 -1.5916  1.7526
   22MOL0     H 2929   6.842   9.545   7.312 -1.2843  0.8805  0.4633
   22MOL0     H 2930   7.235   9.453   7.097  0.2697  0.0518  0.1292
   22MOL0     H 2931   7.439   9.523   7.209 -0.9021  2.6084 -1.3783
   22MOL0     H 2932   7.795   9.612   7.281  0.8585  1.3531  0.1568
   22MOL0     H 2933   8.025   9.621   7.396 -0.4688  0.4005 -0.9208
   22MOL0     H 2934   8.056   9.769   7.797  1.3248  0.3762  0.0830
   22MOL0     H 2935   8.041   9.596   7.835  1.7329  0.8645  2.0451
   22MOL0     H 2936   8.248   9.660   7.920 -2.8996  2.0662  0.6806
   22MOL0     H 2937   8.276   9.549   7.781 -3.3169 -0.3994 -2.6664
   22MOL0     H 2938   8.330   9.753   7.638  1.1494 -1.6404  0.4911
   22MOL0     H 2939   8.296   9.853   7.768  0.4094  0.8840 -0.5399
   22MOL0     H 2940   8.516   9.634   7.740  2.0210  0.0325  0.9250
   22MOL0     H 2941   8.492   9.711   7.892  0.2713  1.0473  0.1078
   22MOL0     H 2942   8.565   9.930   7.813 -0.0132 -0.4009  0.1597
   22MOL0     H 2943   8.584   9.872   7.656 -0.4528  1.3819 -0.0740
   22MOL0     H 2944   8.753   9.822   7.901  0.3896  0.7091  0.4107
   22MOL0     H 2945   8.758   9.700   7.766  3.3742  2.4896 -3.1389
   22MOL0     H 2946   8.799   9.899   7.609  0.9446 -1.4381 -0.3773
   22MOL0     H 2947   8.920   9.840   7.710 -1.4154 -3.2081  0.0488
   22MOL0     H 2948   8.720  10.068   7.778  0.3681  1.8684  4.0910
   22MOL0     H 2949   8.851  10.022   7.893  0.2045 -1.5355  0.4152
   22MOL0     H 2950   7.833   9.615   7.777  0.0918  2.4312  0.1530
   22MOL0     H 2951   7.616   9.585   7.671 -0.5761 -2.2749 -0.6123
   22MOL0     H 2952   7.200   9.742   7.505  1.7169 -0.8243  1.6514
   22MOL0     H 2953   7.000   9.658   7.389  1.1309  2.1401  1.8010
   22MOL0     H 2954   5.397   8.838   7.328  0.2071 -0.6405  2.0882
   22MOL0     H 2955   5.161   8.743   7.332 -0.5581  0.0935 -0.2671
   22MOL0     H 2956   4.760   8.753   7.187 -1.0088  1.4661 -1.3087
   22MOL0     H 2957   4.580   8.594   7.182  0.8397 -0.3828  0.0905
   22MOL0     H 2958   4.331   8.615   7.259 -0.1182 -1.8631 -2.8466
   22MOL0     H 2959   4.271   8.613   7.425 -2.3280  0.4345 -1.4454
   22MOL0     H 2960   4.130   8.459   7.301  0.3721  1.1459  1.7173
   22MOL0     H 2961   4.222   8.366   7.417  1.4961 -0.9058 -0.2969
   22MOL0     H 2962   4.214   8.244   7.182  1.6397 -0.3476  0.0235
   22MOL0     H 2963   4.379   8.287   7.238 -0.0272 -1.3413  0.8191
   22MOL0     H 2964   4.404   8.436   7.066  0.3234  0.1969 -0.6600
   22MOL0     H 2965   4.314   8.300   6.995 -1.6732  2.1841 -1.5704
   22MOL0     H 2966   4.014   8.590   6.975  1.1211  1.7340  2.2555
   22MOL0     H 2967   4.518   8.612   7.596 -0.7191  0.3838 -0.1543
   22MOL0     H 2968   4.780   8.725   7.717 -1.8363 -3.0944 -0.8784
   22MOL0     H 2969   4.744   8.893   7.680  0.3393 -0.1038 -0.2621
   22MOL0     H 2970   4.612   8.787   7.726  0.3994  1.6634  0.5598
   23MOL0     O 2971   6.134  10.620   6.259  0.0899 -0.0415  0.3094
   23MOL0     C 2972   6.117  10.508   6.298 -0.3849 -0.4214  0.0630
   23MOL0     O 2973   6.208  10.442   6.374 -0.0873 -0.1994 -0.8564
   23MOL0     C 2974   6.319  10.497   6.419  0.3536  0.0100  0.2531
   23MOL0     C 2975   6.422  10.550   6.334 -0.1981 -0.2212  0.4727
   23MOL0     C 2976   6.536  10.606   6.386  0.0776 -0.2587  0.1583
   23MOL0     C 2977   6.562  10.604   6.524  0.2419 -0.0723 -0.0766
   23MOL0     O 2978   6.671  10.658   6.578 -0.2110 -0.3275  0.3460
   23MOL0     C 2979   6.799  10.642   6.508  0.6999 -0.5014  0.7975
   23MOL0     C 2980   6.916  10.674   6.601  0.4318 -0.1705  0.4330
   23MOL0     C 2981   7.058  10.654   6.536 -0.1378 -0.5200 -0.2012
   23MOL0     C 2982   7.171  10.701   6.633  0.2356  0.4666  0.6206
   23MOL0     C 2983   7.305  10.724   6.554 -0.2801 -0.2055  0.2898
   23MOL0     C 2984   7.324  10.870   6.516 -1.2069 -0.5515 -0.4312
   23MOL0     C 2985   7.467  10.923   6.522  0.4230 -0.2463 -0.6805
   23MOL0     C 2986   7.515  10.931   6.666  0.4345 -0.4476  0.1625
   23MOL0     N 2987   7.658  10.945   6.669 -0.0330 -0.9242 -0.1625
   23MOL0     C 2988   7.753  10.850   6.672  0.5757  0.2712 -0.0839
   23MOL0     C 2989   7.877  10.908   6.691  0.4051  0.1376 -0.3029
   23MOL0     C 2990   8.017  10.845   6.716  1.2048 -0.0490  0.4055
   23MOL0     C 2991   8.121  10.899   6.616 -0.2593 -0.7409 -0.1714
   23MOL0     C 2992   8.262  10.860   6.658  1.0300  0.7958 -0.1419
   23MOL0     C 2993   8.362  10.916   6.561  0.6977  0.8403 -0.1109
   23MOL0     O 2994   8.375  11.054   6.573 -0.1646 -0.5349 -0.2101
   23MOL0     C 2995   8.503  11.096   6.596 -0.7334  0.0713 -0.0649
   23MOL0     C 2996   8.506  11.199   6.694 -0.0038 -0.4937  0.3282
   23MOL0     C 2997   8.627  11.258   6.732 -0.6352 -0.0001 -0.2134
   23MOL0     C 2998   8.744  11.235   6.659 -0.2513 -0.1739  0.0836
   23MOL0     C 2999   8.865  11.310   6.688 -0.4615 -0.4338  0.4242
   23MOL0     O 3000   8.964  11.285   6.591  0.3532  0.4358 -0.1689
   23MOL0     C 3001   9.099  11.315   6.618  0.1171  0.7572  0.9959
   23MOL0     C 3002   9.194  11.310   6.511 -1.1812 -0.7979 -0.1168
   23MOL0     C 3003   9.332  11.337   6.538 -0.5755  0.7618 -0.0773
   23MOL0     C 3004   9.373  11.366   6.667  0.2849 -0.3681 -0.1832
   23MOL0     O 3005   9.502  11.403   6.687 -0.3534 -0.2823 -0.1933
   23MOL0     C 3006   9.565  11.315   6.784  0.0366  0.4825 -0.4464
   23MOL0     C 3007   9.690  11.371   6.850 -0.2771 -0.8133  0.2077
   23MOL0     C 3008   9.744  11.278   6.964  0.9638 -0.6288 -0.6221
   23MOL0     C 3009   9.868  11.351   7.026  0.7229 -0.5098 -0.5209
   23MOL0     C 3010   9.994  11.329   6.947 -0.6632 -0.4310 -0.4069
   23MOL0     C 3011  10.108  11.392   7.034 -0.1170 -0.6530  0.1620
   23MOL0     C 3012  10.134  11.284   7.147 -0.3221 -0.7683 -0.2588
   23MOL0     C 3013  10.200  11.156   7.093 -0.1403 -0.5001  0.4729
   23MOL0    Cl 3014  10.352  11.184   7.003  0.0191  0.6320 -0.4465
   23MOL0     C 3015   9.276  11.382   6.766 -0.0442 -0.2394 -0.0208
   23MOL0     C 3016   9.146  11.347   6.746 -0.1937 -1.0902  0.0235
   23MOL0     O 3017   8.871  11.388   6.783  0.5964 -0.2281  0.3668
   23MOL0     C 3018   8.737  11.134   6.558  1.0003 -0.5169 -0.3226
   23MOL0     C 3019   8.618  11.065   6.521 -0.3861  0.1581 -0.0024
   23MOL0     N 3020   7.849  11.047   6.704 -0.0781  0.2776  0.4200
   23MOL0     N 3021   7.721  11.064   6.695  0.1890 -0.0213  0.2877
   23MOL0     C 3022   6.458  10.551   6.610  0.1765  0.4186 -0.1835
   23MOL0     C 3023   6.339  10.499   6.552  0.3247  0.6128  0.2017
   23MOL0     C 3024   6.002  10.434   6.259  0.8293  1.1721 -0.3726
   23MOL0     C 3025   5.946  10.351   6.357  0.3375  0.6113 -0.6130
   23MOL0     C 3026   5.824  10.283   6.338 -1.0965  0.3022  0.0504
   23MOL0     C 3027   5.756  10.296   6.221  0.5289  0.4271  1.0853
   23MOL0     O 3028   5.633  10.239   6.218  1.1678  0.5638  0.0288
   23MOL0     C 3029   5.552  10.249   6.102 -0.4007 -0.2860  0.5505
   23MOL0     C 3030   5.434  10.158   6.109  0.9902  0.3063  0.8634
   23MOL0     C 3031   5.344  10.152   5.991 -0.0469 -0.5310  0.1318
   23MOL0     C 3032   5.263  10.279   5.951 -0.3210  0.7410 -0.3708
   23MOL0     C 3033   5.153  10.238   5.860  0.2058 -0.7247 -0.6055
   23MOL0     C 3034   5.062  10.206   5.784 -0.0928  0.1636  0.0615
   23MOL0     C 3035   5.814  10.375   6.114  1.1037 -1.1736 -0.1050
   23MOL0     C 3036   5.940  10.438   6.130 -0.6072 -0.2848 -0.0910
   23MOL0     C 3037   5.997  10.501   6.001 -0.0753 -0.1828 -0.5797
   23MOL0     H 3038   6.398  10.548   6.228 -1.3339 -0.2888  0.7145
   23MOL0     H 3039   6.612  10.641   6.317 -1.6377  1.1703 -1.1114
   23MOL0     H 3040   6.813  10.544   6.463 -1.4451 -1.6607  2.4912
   23MOL0     H 3041   6.807  10.721   6.432  1.6535 -0.0264  1.3610
   23MOL0     H 3042   6.899  10.608   6.686 -1.4279  1.9416  1.8141
   23MOL0     H 3043   6.907  10.779   6.630 -0.2181  0.4158 -1.6787
   23MOL0     H 3044   7.068  10.716   6.446  2.2586  0.3888  0.6249
   23MOL0     H 3045   7.069  10.547   6.520  0.3580 -0.6807  1.0801
   23MOL0     H 3046   7.126  10.789   6.681 -2.1130 -0.5347  0.3869
   23MOL0     H 3047   7.185  10.621   6.706  2.7508  0.1705 -0.1018
   23MOL0     H 3048   7.387  10.692   6.619 -1.2068 -1.1071  1.0520
   23MOL0     H 3049   7.312  10.665   6.463  3.0653  0.9691 -0.3652
   23MOL0     H 3050   7.281  10.887   6.417  1.6809  0.3043 -1.6282
   23MOL0     H 3051   7.271  10.940   6.582  1.0763  0.1300  0.7705
   23MOL0     H 3052   7.472  11.024   6.482  0.4483 -0.3587 -0.9705
   23MOL0     H 3053   7.541  10.867   6.464  2.2886  0.6415  0.7665
   23MOL0     H 3054   7.458  11.017   6.700  1.4891 -1.1120  4.0505
   23MOL0     H 3055   7.493  10.845   6.731  2.2780 -0.6100  0.6361
   23MOL0     H 3056   7.730  10.745   6.658  2.2982 -0.2591  0.8210
   23MOL0     H 3057   8.052  10.870   6.816  0.1052  1.9248  0.3389
   23MOL0     H 3058   8.010  10.736   6.704 -0.5323  0.0647  0.0805
   23MOL0     H 3059   8.102  10.860   6.516  1.4757 -1.5183 -0.2324
   23MOL0     H 3060   8.116  11.008   6.606 -1.7667 -0.9829 -3.0481
   23MOL0     H 3061   8.276  10.752   6.661 -1.5340  0.3469 -1.3428
   23MOL0     H 3062   8.297  10.896   6.756  1.3005 -2.5062  1.1056
   23MOL0     H 3063   8.328  10.918   6.457 -2.3598  3.8468  0.7527
   23MOL0     H 3064   8.453  10.855   6.566  2.1019  2.9195  1.4199
   23MOL0     H 3065   8.420  11.233   6.750 -1.2543 -1.5402 -0.8731
   23MOL0     H 3066   8.618  11.326   6.816 -2.7541 -2.5664  1.7869
   23MOL0     H 3067   9.153  11.315   6.411 -1.2800  0.7095 -0.0276
   23MOL0     H 3068   9.406  11.346   6.459 -2.6033 -0.1536 -2.1945
   23MOL0     H 3069   9.497  11.305   6.870 -0.0342  2.1832 -0.2687
   23MOL0     H 3070   9.587  11.220   6.735  1.6644  0.7163 -0.2352
   23MOL0     H 3071   9.773  11.391   6.781 -1.1544 -2.3439 -1.3596
   23MOL0     H 3072   9.666  11.474   6.875  0.3401 -0.5953 -0.0677
   23MOL0     H 3073   9.662  11.262   7.035 -1.2979 -2.7379 -3.4579
   23MOL0     H 3074   9.785  11.183   6.929  1.6894  0.7910 -4.0689
   23MOL0     H 3075   9.880  11.319   7.130  0.7997  2.3384  0.4536
   23MOL0     H 3076   9.847  11.458   7.038  0.6090 -0.5775 -0.0980
   23MOL0     H 3077   9.993  11.390   6.856  1.9943 -0.9349 -0.8646
   23MOL0     H 3078  10.020  11.227   6.917  2.4625  1.0397 -3.3815
   23MOL0     H 3079  10.192  11.411   6.967  0.4010 -1.2929  0.6250
   23MOL0     H 3080  10.069  11.486   7.076  0.7722 -0.2804  0.1632
   23MOL0     H 3081  10.051  11.250   7.209  1.1887 -1.5030  1.4323
   23MOL0     H 3082  10.202  11.333   7.216 -0.3987 -1.2371  0.1559
   23MOL0     H 3083  10.224  11.101   7.185 -3.5460 -0.4021  1.5796
   23MOL0     H 3084  10.129  11.091   7.041  0.4639 -0.5393 -0.3264
   23MOL0     H 3085   9.315  11.424   6.858  0.8194  0.9840 -0.9214
   23MOL0     H 3086   9.087  11.358   6.837 -1.0608 -1.9713 -0.4062
   23MOL0     H 3087   8.822  11.125   6.492  0.8817  1.3357 -0.7677
   23MOL0     H 3088   8.608  11.006   6.431 -0.1098 -0.4892  0.3792
   23MOL0     H 3089   6.470  10.555   6.718  1.0924  0.4958 -0.2801
   23MOL0     H 3090   6.264  10.463   6.621 -0.2605  0.0818 -0.7046
   23MOL0     H 3091   6.002  10.325   6.446 -1.5896 -0.9788  0.2208
   23MOL0     H 3092   5.798  10.213   6.417  1.9543  0.8502  1.6785
   23MOL0     H 3093   5.608  10.225   6.011  0.7524  0.4155  1.0420
   23MOL0     H 3094   5.517  10.350   6.079 -1.6229 -0.4643  1.5401
   23MOL0     H 3095   5.379  10.172   6.202  0.0765  0.6032  0.2991
   23MOL0     H 3096   5.479  10.059   6.121  0.3030  0.1832  2.6859
   23MOL0     H 3097   5.270  10.072   6.005 -0.4489 -0.1453  0.2350
   23MOL0     H 3098   5.394  10.114   5.901  1.5306 -1.3558  1.3176
   23MOL0     H 3099   5.233  10.335   6.040  2.2408 -0.0691  1.1262
   23MOL0     H 3100   5.340  10.340   5.902 -1.2765  1.8506 -0.5465
   23MOL0     H 3101   4.987  10.180   5.712  1.1360 -0.8382 -0.9108
   23MOL0     H 3102   5.760  10.391   6.022 -0.6985 -1.6788  0.8246
   23MOL0     H 3103   5.928  10.490   5.917 -0.0711  1.4529 -0.8389
   23MOL0     H 3104   6.014  10.608   6.021  2.8491 -0.9315  1.6166
   23MOL0     H 3105   6.099  10.465   5.986  0.0910 -0.7106  1.4407
   24MOL0     O 3106   9.754   7.718  10.756  0.6585 -0.4411  0.1002
   24MOL0     C 3107   9.746   7.596  10.742  0.1143  0.6646 -0.4988
   24MOL0     O 3108   9.856   7.520  10.735  0.2332 -0.8822 -0.2026
   24MOL0     C 3109   9.971   7.589  10.738  0.0955 -0.5865 -0.2351
   24MOL0     C 3110  10.028   7.642  10.851  0.1902 -1.2573  0.0548
   24MOL0     C 3111  10.163   7.686  10.847 -0.4022 -0.6209  0.3495
   24MOL0     C 3112  10.236   7.679  10.728 -0.0274 -0.2291 -0.3871
   24MOL0     O 3113  10.372   7.694  10.723 -0.4465  0.0995 -0.6176
   24MOL0     C 3114  10.424   7.796  10.811  0.6869  0.2093 -0.4950
   24MOL0     C 3115  10.551   7.841  10.748 -0.0932 -0.5591 -0.1539
   24MOL0     C 3116  10.654   7.722  10.751 -0.2576 -0.0702  1.4307
   24MOL0     C 3117  10.790   7.780  10.698  1.2794 -0.8953 -0.0281
   24MOL0     C 3118  10.897   7.674  10.690  0.3456  0.1987 -0.1308
   24MOL0     C 3119  11.021   7.745  10.648 -0.5907  0.0319  0.8374
   24MOL0     C 3120  11.148   7.654  10.650 -0.2526  0.7278 -0.1269
   24MOL0     C 3121  11.268   7.732  10.612  0.3871  0.8524  0.2431
   24MOL0     N 3122  11.381   7.646  10.586 -1.1043 -0.8005  0.3760
   24MOL0     C 3123  11.455   7.573  10.683  0.2276 -0.3559  0.6465
   24MOL0     C 3124  11.575   7.538  10.623  0.7469 -0.1723 -0.7064
   24MOL0     C 3125  11.687   7.462  10.684 -0.0126  0.3290  0.6964
   24MOL0     C 3126  11.806   7.548  10.724  0.0860  0.5269 -0.0815
   24MOL0     C 3127  11.863   7.627  10.598  0.1998  0.2277  1.4325
   24MOL0     C 3128  11.993   7.708  10.621 -0.6762 -0.4333  0.6913
   24MOL0     O 3129  12.095   7.635  10.697  0.0876  0.3680  0.3324
   24MOL0     C 3130  12.221   7.690  10.673  0.7027 -0.0224  0.1063
   24MOL0     C 3131  12.313   7.634  10.580 -0.4633  0.5507 -1.2400
   24MOL0     C 3132  12.446   7.681  10.573  0.8336 -0.5703  0.2812
   24MOL0     C 3133  12.488   7.793  10.653 -0.4247  0.0354  0.3526
   24MOL0     C 3134  12.634   7.845  10.646 -0.9951 -0.4973 -0.2457
   24MOL0     O 3135  12.680   7.938  10.742 -0.6805 -0.0501  1.0037
   24MOL0     C 3136  12.803   7.996  10.719 -0.2918 -0.1567  0.0168
   24MOL0     C 3137  12.924   7.928  10.736  1.0998  0.0551 -0.3379
   24MOL0     C 3138  13.045   7.986  10.707 -0.1153  0.5165  1.1421
   24MOL0     C 3139  13.054   8.119  10.666  0.6671  0.2680  0.2466
   24MOL0     O 3140  13.184   8.161  10.636 -0.2092 -0.1793  0.2041
   24MOL0     C 3141  13.204   8.307  10.620  0.5503  0.5202  0.5544
   24MOL0     C 3142  13.355   8.339  10.594  0.0077 -0.1347  0.0349
   24MOL0     C 3143  13.404   8.256  10.476 -0.0108  0.5167  0.1075
   24MOL0     C 3144  13.555   8.284  10.456 -0.2885  0.0756 -0.4973
   24MOL0     C 3145  13.606   8.223  10.324  0.1790 -0.4499  0.0240
   24MOL0     C 3146  13.753   8.257  10.304  0.3117  0.3870  0.9788
   24MOL0     C 3147  13.806   8.203  10.159 -0.5675 -0.1158 -0.8245
   24MOL0     C 3148  13.955   8.226  10.139 -0.3027 -0.2014 -0.1596
   24MOL0    Cl 3149  13.997   8.190   9.975  0.3158  0.0376  0.0515
   24MOL0     C 3150  12.936   8.196  10.666  0.2197  0.9656  0.3681
   24MOL0     C 3151  12.813   8.132  10.680 -0.4429  1.1344  0.3048
   24MOL0     O 3152  12.702   7.787  10.562  0.1219  0.2575 -0.8072
   24MOL0     C 3153  12.391   7.847  10.734  0.7565 -0.4874  0.3763
   24MOL0     C 3154  12.263   7.797  10.750 -0.6389 -0.0105 -0.6664
   24MOL0     N 3155  11.569   7.587  10.493  0.6037 -0.1972 -0.9343
   24MOL0     N 3156  11.454   7.643  10.473 -0.7703 -0.1039 -0.1897
   24MOL0     C 3157  10.176   7.637  10.615 -0.3819 -0.3485  0.5554
   24MOL0     C 3158  10.045   7.585  10.617  0.2898 -0.4462 -0.2435
   24MOL0     C 3159   9.612   7.535  10.765 -0.7234  0.4924  0.1182
   24MOL0     C 3160   9.542   7.558  10.883  0.0398 -0.0835  0.0167
   24MOL0     C 3161   9.418   7.492  10.900 -0.0214 -0.5139  0.3528
   24MOL0     C 3162   9.356   7.408  10.799  0.0236 -0.4051 -0.5654
   24MOL0     O 3163   9.233   7.354  10.809 -0.2580 -1.0098 -0.2423
   24MOL0     C 3164   9.139   7.374  10.909  0.4772  0.3205 -0.7034
   24MOL0     C 3165   9.018   7.276  10.891  0.3287  0.4949  0.1438
   24MOL0     C 3166   8.955   7.306  10.759  0.1271 -0.0264  0.2157
   24MOL0     C 3167   8.834   7.200  10.715  0.0893 -0.1114  0.5122
   24MOL0     C 3168   8.796   7.219  10.574  0.3664  0.6465 -0.0481
   24MOL0     C 3169   8.775   7.246  10.456  0.8519 -0.3507  0.5352
   24MOL0     C 3170   9.435   7.387  10.690  0.4332  0.0857  0.9238
   24MOL0     C 3171   9.562   7.439  10.669 -0.1688  0.0003 -0.8085
   24MOL0     C 3172   9.624   7.436  10.532  0.8386 -0.2702  0.2326
   24MOL0     H 3173   9.980   7.640  10.948  0.9253  2.3303  0.6677
   24MOL0     H 3174  10.204   7.722  10.941 -3.0468 -2.0860  2.2239
   24MOL0     H 3175  10.353   7.875  10.837  0.4553 -0.6302  1.6160
   24MOL0     H 3176  10.456   7.749  10.905  2.0027 -0.7595 -1.3855
   24MOL0     H 3177  10.593   7.928  10.800  0.4432 -0.4300 -0.7939
   24MOL0     H 3178  10.525   7.884  10.651 -2.8109 -0.0071  0.7262
   24MOL0     H 3179  10.621   7.640  10.686  3.7163 -2.3986  2.0026
   24MOL0     H 3180  10.671   7.677  10.849  0.2348  0.3721  1.5525
   24MOL0     H 3181  10.785   7.822  10.597  2.1554  1.6174  0.8845
   24MOL0     H 3182  10.815   7.859  10.769 -4.0864 -0.8845  2.2964
   24MOL0     H 3183  10.913   7.612  10.779  1.0678  0.0701 -0.3489
   24MOL0     H 3184  10.869   7.612  10.604  1.5185  2.2587 -2.1052
   24MOL0     H 3185  11.004   7.783  10.547 -0.7703  0.5158  1.0457
   24MOL0     H 3186  11.036   7.825  10.721  1.9196 -0.6979  1.1897
   24MOL0     H 3187  11.143   7.573  10.577 -0.7658 -2.1076  2.8453
   24MOL0     H 3188  11.166   7.612  10.750 -1.6858  0.2663 -0.0353
   24MOL0     H 3189  11.257   7.786  10.518  2.9791 -0.7107 -1.0810
   24MOL0     H 3190  11.286   7.799  10.697 -0.5890 -0.0063  1.1534
   24MOL0     H 3191  11.415   7.547  10.780  0.5437  0.1369  0.9101
   24MOL0     H 3192  11.661   7.400  10.771  0.9081  0.8227  1.3326
   24MOL0     H 3193  11.726   7.394  10.608  1.0889  0.1847  1.3626
   24MOL0     H 3194  11.789   7.611  10.812  0.1331  0.1106  0.2292
   24MOL0     H 3195  11.885   7.479  10.756 -0.8295 -0.5799 -0.1548
   24MOL0     H 3196  11.789   7.704  10.576  1.3479  1.0270  0.1431
   24MOL0     H 3197  11.867   7.565  10.508 -1.3091  1.0214  0.7852
   24MOL0     H 3198  11.958   7.796  10.675 -3.4283  0.6755 -2.5142
   24MOL0     H 3199  12.024   7.741  10.521 -0.0156 -1.9597  0.3649
   24MOL0     H 3200  12.286   7.548  10.519  3.5106  0.1109 -2.6824
   24MOL0     H 3201  12.514   7.627  10.509  1.5425  0.5473  0.0628
   24MOL0     H 3202  12.935   7.829  10.780  0.4234  0.3513  0.5154
   24MOL0     H 3203  13.132   7.922  10.712 -0.1839  0.1334 -1.2137
   24MOL0     H 3204  13.148   8.350  10.536  1.6907 -0.9222 -1.0197
   24MOL0     H 3205  13.178   8.346  10.719 -0.1081  0.4235  0.4249
   24MOL0     H 3206  13.370   8.443  10.562 -0.2494 -0.2838 -0.5777
   24MOL0     H 3207  13.422   8.318  10.678  1.3602  1.0980 -0.6840
   24MOL0     H 3208  13.388   8.150  10.496 -0.2528  0.7943  1.5338
   24MOL0     H 3209  13.348   8.286  10.387  0.1533 -3.8131 -1.7032
   24MOL0     H 3210  13.622   8.244  10.534  0.9140 -1.3123 -2.1678
   24MOL0     H 3211  13.572   8.392  10.463  0.7384 -0.1602  2.1512
   24MOL0     H 3212  13.553   8.251  10.233 -0.0084  0.0077  0.2710
   24MOL0     H 3213  13.597   8.114  10.328 -1.9639 -0.3155  0.1016
   24MOL0     H 3214  13.772   8.364  10.304 -1.0331  0.7067 -1.3259
   24MOL0     H 3215  13.800   8.221  10.396 -0.2710  1.0004  1.5254
   24MOL0     H 3216  13.760   8.262  10.080  1.9242  0.4649 -1.9402
   24MOL0     H 3217  13.796   8.094  10.151 -0.0218 -0.3171  0.7660
   24MOL0     H 3218  13.968   8.333  10.154  1.6486 -0.0866 -2.1488
   24MOL0     H 3219  14.017   8.177  10.215  1.2401  0.7456 -0.7580
   24MOL0     H 3220  12.947   8.302  10.642  1.4270  0.6449 -0.6314
   24MOL0     H 3221  12.723   8.191  10.665 -0.2602  0.8360 -2.5141
   24MOL0     H 3222  12.413   7.930  10.801  0.2951  2.5281 -2.8898
   24MOL0     H 3223  12.201   7.832  10.833  0.4337 -1.0445  0.6254
   24MOL0     H 3224  10.232   7.631  10.523 -0.3164  1.2821  0.4641
   24MOL0     H 3225   9.997   7.540  10.531 -3.3981  1.3938  0.6657
   24MOL0     H 3226   9.582   7.625  10.959 -1.6303  1.5290 -0.4378
   24MOL0     H 3227   9.354   7.522  10.983 -2.9923 -0.9907 -1.5852
   24MOL0     H 3228   9.107   7.479  10.907 -1.7411 -0.2782  0.0172
   24MOL0     H 3229   9.193   7.355  11.002  0.9313  0.3652 -0.9570
   24MOL0     H 3230   8.950   7.298  10.974  2.6726  0.8188  2.0657
   24MOL0     H 3231   9.053   7.172  10.886  0.9208  0.6102  1.4309
   24MOL0     H 3232   9.022   7.298  10.673 -1.8754 -0.2591 -1.4096
   24MOL0     H 3233   8.933   7.413  10.769 -0.0886 -0.1384  1.0450
   24MOL0     H 3234   8.859   7.097  10.743  3.6323  0.9002  1.6740
   24MOL0     H 3235   8.752   7.225  10.783  1.2199 -0.0491  1.9149
   24MOL0     H 3236   8.731   7.254  10.359  0.6047 -0.1653  0.6605
   24MOL0     H 3237   9.391   7.313  10.624  0.1592 -1.0410  2.3178
   24MOL0     H 3238   9.609   7.526  10.471 -3.5173 -0.0506  1.2981
   24MOL0     H 3239   9.728   7.402  10.532  0.5136 -1.3106 -0.9320
   24MOL0     H 3240   9.581   7.353  10.476  1.9587 -0.0131 -1.0652
   25MOL0     O 3241   3.498   1.704   3.022 -0.0928  0.1712  0.5289
   25MOL0     C 3242   3.414   1.749   3.089 -0.1802 -0.7218 -0.5052
   25MOL0     O 3243   3.435   1.850   3.181  0.0837 -0.2873 -0.0083
   25MOL0     C 3244   3.565   1.883   3.222 -0.3909  0.2129 -0.1917
   25MOL0     C 3245   3.565   1.913   3.359 -0.7465  0.1565 -0.0354
   25MOL0     C 3246   3.682   1.935   3.436  0.4186  0.2927 -0.5334
   25MOL0     C 3247   3.807   1.925   3.366  1.1294  0.3162 -0.0641
   25MOL0     O 3248   3.925   1.952   3.425 -0.7364 -0.5905 -0.1765
   25MOL0     C 3249   3.948   1.904   3.563 -0.3508 -0.3036 -0.4137
   25MOL0     C 3250   4.094   1.921   3.605  0.3121 -0.4361 -0.4827
   25MOL0     C 3251   4.197   1.861   3.504  0.2965 -0.1127  0.4085
   25MOL0     C 3252   4.338   1.914   3.534  1.0904  0.3808 -0.2671
   25MOL0     C 3253   4.447   1.838   3.462  0.1522  0.5222 -0.2954
   25MOL0     C 3254   4.434   1.691   3.462  0.0958  0.1607 -0.2688
   25MOL0     C 3255   4.539   1.617   3.387 -0.2335 -0.0235 -0.2768
   25MOL0     C 3256   4.560   1.478   3.432  0.3567  0.8288 -0.4917
   25MOL0     N 3257   4.637   1.409   3.329  0.7758  0.0934  0.3490
   25MOL0     C 3258   4.769   1.425   3.298 -0.6128 -0.4255 -0.4402
   25MOL0     C 3259   4.808   1.329   3.211 -1.1104 -0.8561 -0.2947
   25MOL0     C 3260   4.942   1.307   3.146  0.8024 -0.7522  0.2703
   25MOL0     C 3261   4.938   1.346   2.996  0.2256  0.3946 -0.0824
   25MOL0     C 3262   4.938   1.499   2.988  0.0646  0.3012  0.5287
   25MOL0     C 3263   4.960   1.539   2.842  0.3739 -0.2706 -0.5934
   25MOL0     O 3264   4.955   1.678   2.833 -0.8171 -0.2603  0.4042
   25MOL0     C 3265   4.828   1.741   2.806 -0.4655 -0.5560  0.8765
   25MOL0     C 3266   4.832   1.876   2.816 -0.1279  0.0180 -0.2654
   25MOL0     C 3267   4.719   1.958   2.807  1.0051  0.5023 -0.1578
   25MOL0     C 3268   4.587   1.887   2.781 -0.3190  0.8344 -0.2256
   25MOL0     C 3269   4.460   1.959   2.759  0.1915  0.2651 -0.2877
   25MOL0     O 3270   4.354   1.880   2.734 -0.3250 -0.6807 -0.2608
   25MOL0     C 3271   4.225   1.918   2.754 -0.3894  0.3408  0.5119
   25MOL0     C 3272   4.185   1.993   2.866 -0.2410 -0.1586 -0.0252
   25MOL0     C 3273   4.054   2.034   2.885  0.2070  0.5315  0.2177
   25MOL0     C 3274   3.952   1.989   2.802  0.3909 -0.3571 -0.7223
   25MOL0     O 3275   3.830   2.040   2.834  0.7165 -0.0421 -0.0992
   25MOL0     C 3276   3.721   1.965   2.779  0.1170  0.9818 -0.4252
   25MOL0     C 3277   3.606   2.055   2.805 -0.4576  0.1112  0.2123
   25MOL0     C 3278   3.469   1.984   2.772 -0.3128 -0.0515  0.0658
   25MOL0     C 3279   3.349   2.058   2.822  0.7246 -0.0199 -0.6953
   25MOL0     C 3280   3.297   2.171   2.733  1.2650  0.1082 -0.3461
   25MOL0     C 3281   3.184   2.260   2.788 -0.2146  0.2466 -0.0925
   25MOL0     C 3282   3.213   2.353   2.909  0.7455  0.6553 -0.1446
   25MOL0     C 3283   3.331   2.441   2.880 -0.5304  0.1524  0.2576
   25MOL0    Cl 3284   3.281   2.588   2.785  0.0514  0.3800  0.0387
   25MOL0     C 3285   3.991   1.913   2.695 -0.4668 -0.1920  0.3286
   25MOL0     C 3286   4.126   1.877   2.675  0.0193  0.3533  0.3953
   25MOL0     O 3287   4.458   2.082   2.765 -0.4982 -0.5983 -0.4555
   25MOL0     C 3288   4.590   1.750   2.764 -0.0403  0.8634  1.1758
   25MOL0     C 3289   4.706   1.680   2.773 -0.1400  0.1006 -0.1629
   25MOL0     N 3290   4.691   1.271   3.172 -0.3018  0.1571 -0.5667
   25MOL0     N 3291   4.586   1.312   3.247  0.0546  1.1364 -0.6631
   25MOL0     C 3292   3.807   1.902   3.230 -0.0665  0.3416  1.0483
   25MOL0     C 3293   3.691   1.875   3.154 -0.1662 -0.0849 -0.3525
   25MOL0     C 3294   3.278   1.703   3.077 -0.8946  0.3131 -1.0407
   25MOL0     C 3295   3.217   1.717   2.956 -0.1781 -0.2389  0.0980
   25MOL0     C 3296   3.087   1.671   2.938  0.6282 -0.4681 -1.3168
   25MOL0     C 3297   2.999   1.634   3.045 -0.0954  0.2597 -0.5354
   25MOL0     O 3298   2.866   1.601   3.035  0.3872 -0.3616  0.3430
   25MOL0     C 3299   2.802   1.599   2.901  0.3563 -0.5798 -0.3497
   25MOL0     C 3300   2.651   1.554   2.900  0.3506  1.1021  0.2219
   25MOL0     C 3301   2.555   1.651   2.974 -0.0572  0.5733 -0.1856
   25MOL0     C 3302   2.409   1.601   2.987 -0.3234 -0.2547 -0.3814
   25MOL0     C 3303   2.310   1.699   3.042 -0.5936 -0.0698  0.2385
   25MOL0     C 3304   2.214   1.773   3.072  0.0720  0.3095  0.3982
   25MOL0     C 3305   3.064   1.630   3.174 -0.1342 -0.1019 -0.2377
   25MOL0     C 3306   3.204   1.660   3.188  0.1786 -0.0180  0.3956
   25MOL0     C 3307   3.265   1.634   3.328 -0.2959 -0.4216  0.0245
   25MOL0     H 3308   3.470   1.914   3.413 -0.6165 -0.2301  0.2028
   25MOL0     H 3309   3.687   1.961   3.542  3.2043 -0.7052 -0.3483
   25MOL0     H 3310   3.881   1.961   3.629 -0.4412  0.2490 -0.9745
   25MOL0     H 3311   3.926   1.797   3.571  1.2912 -0.5703  1.4943
   25MOL0     H 3312   4.096   1.884   3.707  0.0923  2.4632  0.6893
   25MOL0     H 3313   4.115   2.028   3.617 -0.2613 -0.4634  0.9145
   25MOL0     H 3314   4.172   1.887   3.401  2.3309  2.6201  0.4839
   25MOL0     H 3315   4.199   1.755   3.532  2.1101  0.2871  2.0232
   25MOL0     H 3316   4.336   2.018   3.501 -0.6417  1.4233  2.7481
   25MOL0     H 3317   4.356   1.902   3.641  0.7394 -1.1797 -0.3482
   25MOL0     H 3318   4.444   1.877   3.360 -1.3377  0.0549 -0.4580
   25MOL0     H 3319   4.546   1.865   3.500  0.3863  2.1493 -1.9658
   25MOL0     H 3320   4.422   1.663   3.567  0.2120 -0.1529 -0.3374
   25MOL0     H 3321   4.342   1.654   3.416 -0.9257  0.5833  1.3342
   25MOL0     H 3322   4.632   1.675   3.380 -0.6935  0.5060 -3.1099
   25MOL0     H 3323   4.507   1.602   3.284 -1.3914 -1.8726  0.3020
   25MOL0     H 3324   4.616   1.470   3.526 -1.6626 -0.2749  0.6893
   25MOL0     H 3325   4.462   1.432   3.440  0.5636 -0.0990 -2.6988
   25MOL0     H 3326   4.816   1.511   3.345 -3.4524  0.0126  1.8949
   25MOL0     H 3327   5.025   1.366   3.186 -0.3424  2.3841 -1.5996
   25MOL0     H 3328   4.962   1.202   3.168  1.6710 -0.6901 -0.1616
   25MOL0     H 3329   5.025   1.302   2.947 -0.4628 -3.0435  1.4619
   25MOL0     H 3330   4.848   1.301   2.954 -0.2336  1.3999 -0.1954
   25MOL0     H 3331   5.011   1.541   3.057 -1.7795  2.1326  1.4347
   25MOL0     H 3332   4.853   1.552   3.030  2.6820  1.5637  4.9293
   25MOL0     H 3333   4.892   1.482   2.778 -0.5370 -1.6811  1.4952
   25MOL0     H 3334   5.061   1.503   2.818  0.8093 -0.1265  0.9332
   25MOL0     H 3335   4.927   1.917   2.850 -0.5769  0.1658  0.8740
   25MOL0     H 3336   4.720   2.063   2.837 -3.8043  1.5086 -2.4751
   25MOL0     H 3337   4.259   2.046   2.925 -0.2719  1.5979 -1.4782
   25MOL0     H 3338   4.027   2.102   2.965 -0.3256  2.9674 -1.8832
   25MOL0     H 3339   3.720   1.947   2.671 -2.7903  2.1343 -0.6757
   25MOL0     H 3340   3.719   1.865   2.823  3.2984  0.1814 -1.8066
   25MOL0     H 3341   3.611   2.098   2.905  2.1479  0.9380 -0.1898
   25MOL0     H 3342   3.611   2.141   2.737 -1.0913  1.0981  1.3676
   25MOL0     H 3343   3.464   1.963   2.665  1.0653 -1.0919  0.1763
   25MOL0     H 3344   3.478   1.892   2.831 -1.3247 -0.9349 -1.1054
   25MOL0     H 3345   3.370   2.094   2.923 -1.2686 -1.8139  0.4198
   25MOL0     H 3346   3.271   1.988   2.850  1.2246 -0.7963 -1.2123
   25MOL0     H 3347   3.241   2.125   2.652 -1.3526 -1.4824  2.2002
   25MOL0     H 3348   3.383   2.230   2.697  0.1938  3.2513  1.7920
   25MOL0     H 3349   3.147   2.320   2.704 -1.9591 -0.1856  0.3105
   25MOL0     H 3350   3.100   2.192   2.808 -0.2194 -0.3906 -2.0596
   25MOL0     H 3351   3.240   2.299   3.000  0.8926  1.4130  0.2657
   25MOL0     H 3352   3.127   2.416   2.935 -1.5512 -2.0787 -0.6574
   25MOL0     H 3353   3.390   2.470   2.968  0.7705  1.3670 -0.9650
   25MOL0     H 3354   3.410   2.389   2.825 -0.5162 -0.2077  0.6159
   25MOL0     H 3355   3.930   1.874   2.614  0.2234  0.2273 -0.4123
   25MOL0     H 3356   4.144   1.816   2.587 -1.3082  0.0214  0.3316
   25MOL0     H 3357   4.500   1.690   2.756  0.6525 -0.2820  1.6902
   25MOL0     H 3358   4.703   1.572   2.757 -0.1673  0.4806 -3.1307
   25MOL0     H 3359   3.902   1.890   3.179 -1.1112 -2.0264 -0.4955
   25MOL0     H 3360   3.692   1.855   3.048 -4.1327  3.2321 -1.3173
   25MOL0     H 3361   3.283   1.736   2.872 -0.9157  1.7863 -0.0836
   25MOL0     H 3362   3.043   1.685   2.840  1.2601 -1.0400 -1.6932
   25MOL0     H 3363   2.866   1.534   2.841  0.3883 -0.1059 -0.8391
   25MOL0     H 3364   2.803   1.698   2.855 -3.0198 -0.9325 -1.4468
   25MOL0     H 3365   2.648   1.450   2.935  3.2729  0.1851 -1.8681
   25MOL0     H 3366   2.616   1.549   2.796 -0.6151  0.6943  0.5544
   25MOL0     H 3367   2.542   1.739   2.911 -0.6472  1.7671  1.5302
   25MOL0     H 3368   2.600   1.672   3.072  0.0076 -0.8666  0.1184
   25MOL0     H 3369   2.380   1.563   2.889 -0.6049  0.4060 -0.5590
   25MOL0     H 3370   2.412   1.515   3.056  0.6725 -0.8192 -1.0995
   25MOL0     H 3371   2.136   1.835   3.113 -2.6483 -2.9129  0.4790
   25MOL0     H 3372   3.012   1.601   3.265  1.9636 -1.6810  0.5486
   25MOL0     H 3373   3.328   1.712   3.371 -1.3778  0.5762 -0.1599
   25MOL0     H 3374   3.190   1.615   3.405 -2.3488 -0.8363 -1.9880
   25MOL0     H 3375   3.321   1.540   3.319 -0.8456 -0.7914  0.4494
   26MOL0     O 3376   2.674  11.101  10.279 -0.0308 -0.1030 -0.5345
   26MOL0     C 3377   2.560  11.072  10.232 -0.2662 -0.2686  0.8623
   26MOL0     O 3378   2.525  10.953  10.180 -0.2971  0.2981  1.2231
   26MOL0     C 3379   2.618  10.851  10.202  0.5223 -0.5348 -0.2435
   26MOL0     C 3380   2.578  10.740  10.267  0.2579  0.4899 -0.0429
   26MOL0     C 3381   2.662  10.630  10.285 -0.6362  0.7940  0.1617
   26MOL0     C 3382   2.791  10.638  10.228  0.2454  1.1692  0.5685
   26MOL0     O 3383   2.871  10.525  10.254 -0.0219 -0.9122 -0.5239
   26MOL0     C 3384   3.016  10.548  10.229  0.5223 -0.2836  0.0616
   26MOL0     C 3385   3.105  10.427  10.278 -0.4667 -0.1685  0.6839
   26MOL0     C 3386   3.246  10.471  10.322  1.4834 -0.5556 -0.1314
   26MOL0     C 3387   3.309  10.572  10.226  0.2160  0.0790  0.0950
   26MOL0     C 3388   3.459  10.549  10.262 -0.3128  0.3704 -0.2841
   26MOL0     C 3389   3.555  10.628  10.168 -0.2685 -0.2823 -0.7613
   26MOL0     C 3390   3.704  10.617  10.214 -0.6765  0.1214  0.1212
   26MOL0     C 3391   3.792  10.692  10.114  0.0830  0.2605 -0.1140
   26MOL0     N 3392   3.918  10.623  10.098  0.4190  0.4910  0.3082
   26MOL0     C 3393   3.944  10.495  10.053  0.4549 -0.3309  0.0831
   26MOL0     C 3394   4.083  10.488  10.060 -0.3501 -0.4067  0.3391
   26MOL0     C 3395   4.155  10.368  10.022  0.2519  0.1006 -0.3498
   26MOL0     C 3396   4.244  10.314  10.130  0.2894 -0.1010  0.0614
   26MOL0     C 3397   4.310  10.191  10.068 -0.6098 -0.5198 -0.3665
   26MOL0     C 3398   4.438  10.154  10.143  0.3326  0.0419 -0.2731
   26MOL0     O 3399   4.407  10.154  10.290 -0.6684 -0.9286 -0.3481
   26MOL0     C 3400   4.511  10.182  10.374  0.1611 -0.4106  0.0137
   26MOL0     C 3401   4.642  10.169  10.326 -0.1665 -0.0019 -0.3092
   26MOL0     C 3402   4.751  10.223  10.394  0.8130  0.1493  0.1466
   26MOL0     C 3403   4.726  10.276  10.519  0.3618 -0.5815  0.3222
   26MOL0     C 3404   4.844  10.331  10.587 -0.3469 -0.5187 -0.6981
   26MOL0     O 3405   4.831  10.330  10.727  0.3225  0.3488 -0.1976
   26MOL0     C 3406   4.931  10.350  10.819  0.0943 -0.5906 -0.2874
   26MOL0     C 3407   5.065  10.341  10.790 -0.1674  0.0178 -0.4471
   26MOL0     C 3408   5.157  10.384  10.892 -0.7273 -0.1938 -0.1143
   26MOL0     C 3409   5.112  10.430  11.016 -1.4085  0.6499 -0.7131
   26MOL0     O 3410   5.202  10.476  11.112  0.1895  0.2555 -0.5715
   26MOL0     C 3411   5.252  10.610  11.098 -0.1229 -0.6026 -0.3565
   26MOL0     C 3412   5.356  10.646  11.201  0.4844  0.7185  0.4232
   26MOL0     C 3413   5.418  10.784  11.182  0.0593  0.3022  0.4890
   26MOL0     C 3414   5.344  10.884  11.265  0.2078 -0.2147  0.5676
   26MOL0     C 3415   5.415  11.009  11.280 -0.8713 -0.1555 -0.2362
   26MOL0     C 3416   5.335  11.107  11.364 -0.3169  0.5609 -0.0396
   26MOL0     C 3417   5.410  11.235  11.386 -0.2030  0.3719  0.4113
   26MOL0     C 3418   5.316  11.342  11.448 -0.7170  0.0019 -0.5410
   26MOL0    Cl 3419   5.411  11.497  11.480  0.1602 -0.3143 -0.0261
   26MOL0     C 3420   4.977  10.431  11.037 -0.6170  0.1755  0.6403
   26MOL0     C 3421   4.884  10.398  10.937  0.4628  0.3395  0.4770
   26MOL0     O 3422   4.946  10.354  10.522 -0.5613 -0.2946  0.3435
   26MOL0     C 3423   4.595  10.283  10.573  0.4025 -0.6043  0.9350
   26MOL0     C 3424   4.483  10.235  10.501 -0.4901 -0.0514 -1.2798
   26MOL0     N 3425   4.126  10.604  10.106 -0.4519 -0.0964 -1.0254
   26MOL0     N 3426   4.035  10.685  10.135 -0.0087 -0.1516 -0.1626
   26MOL0     C 3427   2.825  10.740  10.151  0.6994 -1.4688  0.1168
   26MOL0     C 3428   2.740  10.849  10.137 -0.3650  0.2531 -0.2203
   26MOL0     C 3429   2.455  11.174  10.234 -0.4477 -0.3768 -0.7003
   26MOL0     C 3430   2.330  11.138  10.175  0.3316  0.1432 -0.0514
   26MOL0     C 3431   2.209  11.220  10.172 -0.9237  0.1252  0.7304
   26MOL0     C 3432   2.224  11.346  10.234 -0.2412 -0.2338  0.4018
   26MOL0     O 3433   2.117  11.432  10.229 -0.1038 -0.2218  0.2356
   26MOL0     C 3434   1.987  11.395  10.189  0.3143  0.5285  0.2697
   26MOL0     C 3435   1.882  11.498  10.243  1.0964  1.0080  0.2995
   26MOL0     C 3436   1.898  11.644  10.214  0.0013 -0.3424  0.1728
   26MOL0     C 3437   1.948  11.666  10.059 -0.3624 -0.1013 -0.7048
   26MOL0     C 3438   1.821  11.679   9.986  0.4957 -0.2900  0.6102
   26MOL0     C 3439   1.722  11.694   9.918  0.3480  0.2363 -0.5218
   26MOL0     C 3440   2.341  11.381  10.300 -1.0476 -0.1802  0.3598
   26MOL0     C 3441   2.454  11.292  10.311  0.0968  0.6535  0.3804
   26MOL0     C 3442   2.577  11.341  10.388  1.0897 -0.3014  0.1479
   26MOL0     H 3443   2.474  10.739  10.296 -0.7367  2.9225 -3.0980
   26MOL0     H 3444   2.627  10.535  10.323 -1.8883  1.2336  0.1688
   26MOL0     H 3445   3.033  10.557  10.121 -2.2387 -0.2009 -0.4479
   26MOL0     H 3446   3.039  10.634  10.293 -1.3665  0.4873 -0.2215
   26MOL0     H 3447   3.112  10.346  10.204  0.2586 -2.0407  2.6965
   26MOL0     H 3448   3.054  10.389  10.366 -4.3417  0.6845 -0.9840
   26MOL0     H 3449   3.307  10.380  10.330 -0.1508 -1.7030 -0.2885
   26MOL0     H 3450   3.235  10.513  10.422 -0.3303  0.2620 -0.6324
   26MOL0     H 3451   3.298  10.546  10.120  0.7048 -1.1433  0.3232
   26MOL0     H 3452   3.276  10.674  10.248 -0.6968 -0.3775  0.9299
   26MOL0     H 3453   3.475  10.564  10.370 -0.6539 -0.6048 -0.0880
   26MOL0     H 3454   3.497  10.448  10.248 -1.1044  0.3030 -2.1894
   26MOL0     H 3455   3.542  10.594  10.065  1.7629  1.2451 -1.5930
   26MOL0     H 3456   3.533  10.735  10.160  0.4221 -0.0634  0.1353
   26MOL0     H 3457   3.739  10.513  10.214  1.8631  0.8892  1.4073
   26MOL0     H 3458   3.731  10.667  10.307  0.6115  1.5599 -0.9774
   26MOL0     H 3459   3.743  10.702  10.017  0.5933  2.4898 -0.1830
   26MOL0     H 3460   3.809  10.796  10.143 -1.0908  0.6048 -0.5903
   26MOL0     H 3461   3.867  10.431  10.011 -0.0686 -0.4598  1.2208
   26MOL0     H 3462   4.074  10.302   9.991 -0.4098  1.8100 -2.5711
   26MOL0     H 3463   4.225  10.389   9.941  0.8123 -1.2259 -0.2330
   26MOL0     H 3464   4.324  10.384  10.155 -0.6578  1.6258 -1.4583
   26MOL0     H 3465   4.188  10.280  10.217  0.5604  1.1173  0.7414
   26MOL0     H 3466   4.350  10.208   9.967  0.4740 -4.5730 -0.8052
   26MOL0     H 3467   4.244  10.103  10.070 -1.0615 -0.2689 -2.0948
   26MOL0     H 3468   4.514  10.230  10.121  0.7465 -0.5800 -1.0564
   26MOL0     H 3469   4.481  10.059  10.109  0.2729  0.8715 -2.9054
   26MOL0     H 3470   4.670  10.115  10.236  1.1658 -0.8847  0.5905
   26MOL0     H 3471   4.850  10.205  10.353  0.3373 -0.4873 -0.7593
   26MOL0     H 3472   5.102  10.304  10.695 -2.7098 -0.7885 -1.2071
   26MOL0     H 3473   5.264  10.394  10.876 -0.2509 -2.0331  1.4449
   26MOL0     H 3474   5.296  10.634  11.000 -0.0992  0.1279 -0.1773
   26MOL0     H 3475   5.165  10.675  11.109 -0.7093 -1.2633 -0.9871
   26MOL0     H 3476   5.312  10.624  11.299 -0.4794 -1.5108 -0.4349
   26MOL0     H 3477   5.444  10.582  11.185  0.6543  0.7557  1.1584
   26MOL0     H 3478   5.524  10.775  11.208  0.6787  0.6034 -1.7156
   26MOL0     H 3479   5.423  10.816  11.077 -1.5111 -0.1863  0.2332
   26MOL0     H 3480   5.331  10.834  11.362  1.5685  0.1185  0.9409
   26MOL0     H 3481   5.245  10.906  11.225  0.4414  0.5974  0.4160
   26MOL0     H 3482   5.424  11.046  11.177  1.3898  0.1945  0.0310
   26MOL0     H 3483   5.513  10.997  11.327 -1.0188 -1.6007 -0.2629
   26MOL0     H 3484   5.237  11.125  11.319  0.3112  1.3301 -1.1627
   26MOL0     H 3485   5.322  11.072  11.467  3.1745 -0.7233  0.1033
   26MOL0     H 3486   5.447  11.274  11.290  2.1249 -1.8557  0.2901
   26MOL0     H 3487   5.501  11.227  11.446  0.4561  0.2759 -0.5618
   26MOL0     H 3488   5.226  11.364  11.390 -3.3045  0.1893  3.1841
   26MOL0     H 3489   5.283  11.301  11.544  1.8328 -0.5331  0.1824
   26MOL0     H 3490   4.942  10.479  11.128 -2.8356  2.3974 -1.2481
   26MOL0     H 3491   4.779  10.412  10.960  0.9471  0.9219  2.6064
   26MOL0     H 3492   4.566  10.318  10.672 -2.4798 -0.5228  0.1456
   26MOL0     H 3493   4.381  10.239  10.536 -0.4320  2.0581 -1.2340
   26MOL0     H 3494   2.923  10.753  10.106 -0.1096  1.3358 -1.0452
   26MOL0     H 3495   2.755  10.941  10.081 -1.5597  1.3301  1.1249
   26MOL0     H 3496   2.322  11.047  10.117  2.0729 -1.2799  1.8212
   26MOL0     H 3497   2.117  11.182  10.129 -2.4209  2.8600  1.2636
   26MOL0     H 3498   1.970  11.297  10.233 -1.7501  0.5726 -0.3543
   26MOL0     H 3499   1.977  11.376  10.082  0.9641 -0.0429  0.3052
   26MOL0     H 3500   1.887  11.490  10.352  1.5277  1.9429  0.3633
   26MOL0     H 3501   1.789  11.455  10.205  1.1812  1.7087 -0.7268
   26MOL0     H 3502   1.975  11.679  10.283  1.6500  2.7417 -2.8739
   26MOL0     H 3503   1.803  11.699  10.224 -1.5182 -1.9320 -3.5118
   26MOL0     H 3504   2.007  11.758  10.054  2.7740 -1.7033  2.4925
   26MOL0     H 3505   2.009  11.581  10.029 -2.0834 -1.0459 -1.6941
   26MOL0     H 3506   1.631  11.710   9.863  0.1058 -1.4102 -0.6568
   26MOL0     H 3507   2.341  11.481  10.342 -0.0306  1.0234 -2.3339
   26MOL0     H 3508   2.658  11.371  10.321  1.7481  0.5268  1.2749
   26MOL0     H 3509   2.552  11.438  10.433  0.5540  0.3275 -1.4526
   26MOL0     H 3510   2.610  11.271  10.465  0.1524 -0.7926  0.1113
   27MOL0     O 3511   8.772   8.440   2.107 -0.0297  0.3576 -0.0852
   27MOL0     C 3512   8.746   8.324   2.075 -0.6769 -0.1281  0.2764
   27MOL0     O 3513   8.834   8.236   2.053 -0.3302  0.4137  0.3781
   27MOL0     C 3514   8.966   8.266   2.066  0.3731 -0.6353  0.2992
   27MOL0     C 3515   9.028   8.238   2.185 -0.1432  0.9027 -0.3276
   27MOL0     C 3516   9.166   8.256   2.207 -0.0052  0.0849  0.1825
   27MOL0     C 3517   9.245   8.310   2.104 -0.4952  0.1155  0.2351
   27MOL0     O 3518   9.379   8.336   2.096  0.0773  0.6466 -0.2927
   27MOL0     C 3519   9.444   8.332   2.226 -0.4689  0.3109 -0.2125
   27MOL0     C 3520   9.586   8.376   2.190  0.6249  0.4539  0.3903
   27MOL0     C 3521   9.674   8.281   2.105 -0.2166  1.0758 -0.4043
   27MOL0     C 3522   9.819   8.315   2.094 -0.3885 -0.5445 -0.2744
   27MOL0     C 3523   9.888   8.198   2.026 -0.1440 -0.7089 -0.5347
   27MOL0     C 3524  10.036   8.233   2.034  0.9287 -0.3263 -0.1951
   27MOL0     C 3525  10.132   8.139   1.957 -1.0561 -0.0308 -0.2097
   27MOL0     C 3526  10.276   8.170   1.990  0.1310 -0.0644  0.5358
   27MOL0     N 3527  10.314   8.152   2.125 -0.6229 -0.1798 -0.5170
   27MOL0     C 3528  10.372   8.038   2.174 -0.4602 -0.4492 -0.2741
   27MOL0     C 3529  10.440   8.066   2.286 -0.1196  0.2367 -0.3074
   27MOL0     C 3530  10.520   7.975   2.382 -1.0602 -0.2930  1.1126
   27MOL0     C 3531  10.659   8.019   2.421  0.3545 -1.2114 -0.0445
   27MOL0     C 3532  10.725   7.936   2.525 -0.8552 -0.8750 -0.1951
   27MOL0     C 3533  10.753   7.794   2.476 -0.0354 -0.8233 -0.2495
   27MOL0     O 3534  10.831   7.733   2.582 -0.4445 -0.2188 -0.0532
   27MOL0     C 3535  10.877   7.603   2.562  0.5933 -0.4347 -0.4139
   27MOL0     C 3536  10.950   7.540   2.667 -0.3783  0.7316 -0.3059
   27MOL0     C 3537  10.998   7.408   2.656  0.5981  0.4209 -0.1717
   27MOL0     C 3538  10.946   7.325   2.555 -0.4622  0.4939  0.0900
   27MOL0     C 3539  10.994   7.184   2.551  0.1786 -0.5067  0.1146
   27MOL0     O 3540  10.984   7.120   2.427  0.6959  0.4676 -0.6276
   27MOL0     C 3541  11.023   6.983   2.412 -0.1372 -0.6186  0.1991
   27MOL0     C 3542  11.090   6.961   2.296 -0.1825  0.1871  0.2555
   27MOL0     C 3543  11.137   6.841   2.258 -0.1499  1.2710  0.2411
   27MOL0     C 3544  11.114   6.728   2.343  0.7975 -0.6435  0.8372
   27MOL0     O 3545  11.146   6.600   2.315 -0.5004  0.2348 -0.0143
   27MOL0     C 3546  11.285   6.578   2.270  0.7658  0.6531  0.9262
   27MOL0     C 3547  11.302   6.431   2.293  0.4830 -0.8164 -0.4092
   27MOL0     C 3548  11.443   6.383   2.245  0.8731 -0.2933 -0.0235
   27MOL0     C 3549  11.448   6.234   2.279 -0.0692 -0.7594 -0.5447
   27MOL0     C 3550  11.579   6.171   2.228  0.0160  0.0144  0.2099
   27MOL0     C 3551  11.600   6.192   2.084 -0.3536 -0.4415 -1.0619
   27MOL0     C 3552  11.686   6.080   2.022  0.0800  0.4479 -0.9481
   27MOL0     C 3553  11.765   6.121   1.894  0.0932 -0.9735  0.0060
   27MOL0    Cl 3554  11.866   5.982   1.826  0.1831  0.2116 -0.3707
   27MOL0     C 3555  11.040   6.745   2.459  0.6503 -0.2311 -0.0352
   27MOL0     C 3556  11.004   6.875   2.500 -1.0527 -0.3154  0.2403
   27MOL0     O 3557  11.044   7.134   2.651 -0.0370 -0.7298  0.1358
   27MOL0     C 3558  10.861   7.383   2.450  0.0927  0.7369 -0.5549
   27MOL0     C 3559  10.831   7.516   2.462  0.9726  0.2379 -0.9971
   27MOL0     N 3560  10.432   8.202   2.307  0.0664  0.3506  0.1881
   27MOL0     N 3561  10.351   8.248   2.217  0.4243 -0.3078  0.1553
   27MOL0     C 3562   9.182   8.331   1.971  0.2761  0.3826 -0.3794
   27MOL0     C 3563   9.049   8.308   1.959 -0.0157  0.9905  1.0180
   27MOL0     C 3564   8.600   8.280   2.053  0.2072 -0.2787 -0.1502
   27MOL0     C 3565   8.580   8.144   2.002  0.2087 -0.5003 -0.2240
   27MOL0     C 3566   8.456   8.088   1.982  0.6723 -0.4147 -0.4024
   27MOL0     C 3567   8.344   8.155   2.023  0.4323 -0.7680  0.4144
   27MOL0     O 3568   8.219   8.099   2.018  1.3613  0.0872 -0.8585
   27MOL0     C 3569   8.147   8.099   2.145  0.1113  0.9286  0.8711
   27MOL0     C 3570   8.029   8.011   2.144  0.7998  0.7535 -0.5462
   27MOL0     C 3571   7.940   8.037   2.021  0.0449  0.3581 -0.0310
   27MOL0     C 3572   7.991   7.975   1.886  0.0304  0.3157 -0.9141
   27MOL0     C 3573   7.877   7.962   1.800 -0.0254 -0.4129  1.0428
   27MOL0     C 3574   7.766   7.961   1.747  0.1448 -0.2914  0.0123
   27MOL0     C 3575   8.357   8.298   2.053  0.1906  0.2093 -0.7051
   27MOL0     C 3576   8.482   8.360   2.068  0.8234 -0.8780 -0.6653
   27MOL0     C 3577   8.486   8.513   2.091 -0.7812  0.0050  0.2881
   27MOL0     H 3578   8.975   8.194   2.268  0.6605 -0.6430 -0.6009
   27MOL0     H 3579   9.191   8.242   2.312 -0.8667 -1.0365  0.2534
   27MOL0     H 3580   9.394   8.409   2.285 -2.5391 -0.0422 -1.4169
   27MOL0     H 3581   9.438   8.239   2.283 -3.0520  1.7267  2.1123
   27MOL0     H 3582   9.650   8.395   2.277 -0.4527 -0.4281  1.4220
   27MOL0     H 3583   9.571   8.472   2.140 -4.1964 -0.6167 -0.7382
   27MOL0     H 3584   9.633   8.273   2.003 -2.1541 -1.3178  0.4494
   27MOL0     H 3585   9.662   8.183   2.153  4.2034 -0.7297 -2.3664
   27MOL0     H 3586   9.838   8.405   2.036  0.6620  0.9167  2.1875
   27MOL0     H 3587   9.850   8.332   2.197  0.3419  0.9514 -0.7087
   27MOL0     H 3588   9.879   8.109   2.089  4.4606 -0.3880  0.9442
   27MOL0     H 3589   9.844   8.173   1.929 -0.3383  2.6503 -1.4383
   27MOL0     H 3590  10.048   8.334   1.994  0.0189  0.1702  0.7569
   27MOL0     H 3591  10.067   8.236   2.139 -2.7080 -1.5008  1.0331
   27MOL0     H 3592  10.122   8.136   1.848 -1.7202  1.0915 -0.1936
   27MOL0     H 3593  10.111   8.036   1.990  1.0481 -0.5242 -0.2719
   27MOL0     H 3594  10.344   8.123   1.918 -0.3051  1.1090 -0.6974
   27MOL0     H 3595  10.283   8.274   1.955 -3.8611 -0.0961 -0.8453
   27MOL0     H 3596  10.357   7.938   2.135 -0.0144 -0.4629 -0.4197
   27MOL0     H 3597  10.463   7.928   2.462 -0.7249 -0.5368  1.2135
   27MOL0     H 3598  10.533   7.886   2.320 -2.9438 -0.6418  1.1700
   27MOL0     H 3599  10.724   8.030   2.334  0.0177  1.2854 -0.0284
   27MOL0     H 3600  10.661   8.119   2.464  1.3678 -1.1873 -0.1181
   27MOL0     H 3601  10.663   7.931   2.615  0.7860 -0.8290  0.9998
   27MOL0     H 3602  10.821   7.985   2.549 -1.1094 -1.1757  1.6322
   27MOL0     H 3603  10.800   7.795   2.377  0.2861 -0.1795 -0.0902
   27MOL0     H 3604  10.670   7.722   2.467  0.0497 -0.8550 -0.8873
   27MOL0     H 3605  10.987   7.596   2.753 -0.1863  3.2212 -1.9278
   27MOL0     H 3606  11.054   7.371   2.742 -2.6872  0.4902  2.1886
   27MOL0     H 3607  11.114   7.049   2.238 -1.4263 -0.4152 -1.2434
   27MOL0     H 3608  11.185   6.821   2.163  0.7749  1.7232  0.6045
   27MOL0     H 3609  11.295   6.602   2.164 -0.8452 -2.3891 -0.0386
   27MOL0     H 3610  11.357   6.636   2.329  1.5981  2.0086 -1.3026
   27MOL0     H 3611  11.277   6.408   2.397  0.3570  3.0771  0.5959
   27MOL0     H 3612  11.227   6.368   2.244  0.0483 -0.2706 -0.4526
   27MOL0     H 3613  11.457   6.391   2.137 -1.0026  0.4458 -0.2573
   27MOL0     H 3614  11.525   6.433   2.297 -0.3396  1.5822  0.1564
   27MOL0     H 3615  11.359   6.183   2.241 -0.3923 -0.9112  0.3785
   27MOL0     H 3616  11.446   6.221   2.388 -0.3045  0.6973 -0.3554
   27MOL0     H 3617  11.576   6.062   2.241  0.4695 -0.2795 -1.8557
   27MOL0     H 3618  11.670   6.205   2.277  2.9022 -2.6310 -2.8500
   27MOL0     H 3619  11.500   6.188   2.039 -0.3106 -0.0227 -1.1987
   27MOL0     H 3620  11.651   6.286   2.060  0.8938  0.1225  3.0889
   27MOL0     H 3621  11.636   5.985   2.002 -0.1804  0.6796 -1.4150
   27MOL0     H 3622  11.763   6.052   2.095 -1.8324  0.6252  1.2300
   27MOL0     H 3623  11.691   6.160   1.824 -1.5994 -2.5936  0.8318
   27MOL0     H 3624  11.828   6.208   1.918  1.8635 -1.5450 -2.1466
   27MOL0     H 3625  11.011   6.666   2.528 -0.1682  1.9531  2.2539
   27MOL0     H 3626  10.942   6.893   2.587 -1.9624  2.0406 -0.8076
   27MOL0     H 3627  10.834   7.326   2.362  0.3854 -0.7344  0.2798
   27MOL0     H 3628  10.774   7.555   2.378 -1.5508  0.4544  0.7108
   27MOL0     H 3629   9.239   8.371   1.888  1.7431 -0.4705  0.1870
   27MOL0     H 3630   9.002   8.313   1.861  0.2746 -2.2715  0.5717
   27MOL0     H 3631   8.657   8.069   1.993  0.8551 -0.0177  1.0054
   27MOL0     H 3632   8.438   7.983   1.965  0.3650 -0.1816 -1.5808
   27MOL0     H 3633   8.112   8.199   2.173 -1.1723  0.8569 -0.3688
   27MOL0     H 3634   8.223   8.078   2.221 -0.0317 -1.0735  0.5166
   27MOL0     H 3635   7.978   8.034   2.238 -1.0297 -2.5844 -0.5962
   27MOL0     H 3636   8.054   7.905   2.135 -1.6471  0.3067 -3.7083
   27MOL0     H 3637   7.933   8.145   2.012  2.2278  0.3764 -2.7071
   27MOL0     H 3638   7.847   7.984   2.043  1.4233 -1.9228  0.6581
   27MOL0     H 3639   8.060   8.043   1.835  0.0440  1.8116  0.9828
   27MOL0     H 3640   8.045   7.880   1.895 -0.9460 -0.3950 -2.1409
   27MOL0     H 3641   7.669   7.974   1.704 -0.2074 -1.3349  0.4619
   27MOL0     H 3642   8.273   8.364   2.073 -0.7245 -1.6109  2.1057
   27MOL0     H 3643   8.551   8.538   2.176  2.9762  2.6142 -2.9704
   27MOL0     H 3644   8.534   8.566   2.009 -2.3282 -0.0354 -0.6849
   27MOL0     H 3645   8.384   8.550   2.105 -1.6388 -1.7229 -1.0781
   28MOL0     O 3646   8.924   9.749  11.058  0.7569  0.1285 -0.4224
   28MOL0     C 3647   8.882   9.660  10.984 -0.2572 -0.2801  1.0397
   28MOL0     O 3648   8.926   9.645  10.853 -0.4692 -0.2078  0.0747
   28MOL0     C 3649   9.008   9.738  10.791 -0.1532 -0.0876 -0.0935
   28MOL0     C 3650   8.981   9.877  10.780  0.4516 -0.6460 -0.1264
   28MOL0     C 3651   9.070   9.962  10.708  0.2388  0.4648 -0.2619
   28MOL0     C 3652   9.187   9.905  10.650  0.2427  0.2077  0.4256
   28MOL0     O 3653   9.279   9.964  10.568  0.0687  0.4876 -0.3819
   28MOL0     C 3654   9.270  10.108  10.547  0.0234  0.6357 -0.4091
   28MOL0     C 3655   9.408  10.155  10.479  0.0299 -0.2270 -0.0147
   28MOL0     C 3656   9.520  10.147  10.577 -0.5510  0.5887 -0.1738
   28MOL0     C 3657   9.630  10.241  10.539  0.0643 -0.6320 -0.3829
   28MOL0     C 3658   9.721  10.265  10.661  0.2733  0.2663  1.1063
   28MOL0     C 3659   9.838  10.353  10.647 -0.2458  0.0012  0.1596
   28MOL0     C 3660   9.942  10.313  10.539  0.4175 -0.6970 -0.3995
   28MOL0     C 3661  10.036  10.207  10.589 -0.0456 -0.3897  0.5880
   28MOL0     N 3662  10.131  10.187  10.487  0.9875 -0.1499  0.1237
   28MOL0     C 3663  10.120  10.098  10.385  0.6952 -0.4407  0.0610
   28MOL0     C 3664  10.244  10.094  10.328  0.1085  0.7152 -0.3114
   28MOL0     C 3665  10.288   9.990  10.222  0.3833 -0.3799 -0.3835
   28MOL0     C 3666  10.253   9.838  10.242 -0.2000 -1.0164  0.5228
   28MOL0     C 3667  10.294   9.769  10.373  0.6745  0.3590 -0.2594
   28MOL0     C 3668  10.436   9.788  10.424 -0.0516 -0.2223  0.8861
   28MOL0     O 3669  10.452   9.725  10.548 -0.0576 -0.2666 -0.2816
   28MOL0     C 3670  10.580   9.718  10.606 -0.3834  0.4090  0.6802
   28MOL0     C 3671  10.601   9.632  10.712 -0.5290 -0.4862  0.7426
   28MOL0     C 3672  10.716   9.625  10.783 -1.4388 -0.1856 -0.6300
   28MOL0     C 3673  10.828   9.714  10.752 -0.1523 -0.3914  0.7294
   28MOL0     C 3674  10.955   9.730  10.828 -0.5232  0.6373  0.2852
   28MOL0     O 3675  11.047   9.813  10.781 -0.6058  0.1084 -0.1155
   28MOL0     C 3676  11.174   9.799  10.838  0.1388  0.5651  0.2983
   28MOL0     C 3677  11.273   9.744  10.752  0.8370  0.9701 -0.6375
   28MOL0     C 3678  11.397   9.730  10.799 -0.0519  0.2145  0.4553
   28MOL0     C 3679  11.423   9.758  10.935  0.8662  0.2172 -0.5843
   28MOL0     O 3680  11.555   9.738  10.969 -0.3466  0.1556 -0.8911
   28MOL0     C 3681  11.612   9.865  11.012 -0.4077  0.9190 -0.4317
   28MOL0     C 3682  11.651   9.955  10.891  0.4732  0.0492 -0.0725
   28MOL0     C 3683  11.755   9.889  10.793  0.6331  0.6100  0.1945
   28MOL0     C 3684  11.890   9.892  10.870 -0.2625 -0.6699 -0.2158
   28MOL0     C 3685  12.006   9.894  10.774  0.8850  0.0517  0.3286
   28MOL0     C 3686  12.137   9.917  10.847  0.7995 -0.0952 -0.5646
   28MOL0     C 3687  12.257   9.886  10.770 -1.4108 -0.0489 -0.3592
   28MOL0     C 3688  12.386   9.909  10.855 -0.2339 -0.4222  0.6256
   28MOL0    Cl 3689  12.540   9.890  10.748  0.1841 -0.0799  0.3441
   28MOL0     C 3690  11.321   9.804  11.025 -0.5656 -0.1796 -0.4435
   28MOL0     C 3691  11.204   9.841  10.966  0.5381  0.7065  0.8521
   28MOL0     O 3692  10.964   9.665  10.927 -0.0868  0.4338 -0.2100
   28MOL0     C 3693  10.818   9.804  10.636  0.4936  1.0302 -0.9791
   28MOL0     C 3694  10.689   9.802  10.572 -0.1744 -0.5092 -0.3338
   28MOL0     N 3695  10.335  10.167  10.400  0.2872 -0.4629  0.1097
   28MOL0     N 3696  10.257  10.235  10.489  0.4446 -0.7014  0.3524
   28MOL0     C 3697   9.209   9.770  10.667  0.1103  1.0338 -1.5544
   28MOL0     C 3698   9.122   9.690  10.736  0.1480  0.7415 -0.8277
   28MOL0     C 3699   8.765   9.577  11.027  0.3277 -0.5041 -0.0244
   28MOL0     C 3700   8.784   9.500  11.146  0.0493  0.3759 -0.5875
   28MOL0     C 3701   8.681   9.411  11.191 -0.7327 -0.2949 -0.1678
   28MOL0     C 3702   8.558   9.409  11.121 -0.2295  0.2705 -0.1845
   28MOL0     O 3703   8.442   9.347  11.160  0.2879  0.2965 -0.4733
   28MOL0     C 3704   8.415   9.363  11.304  0.4150 -0.7449  0.8236
   28MOL0     C 3705   8.268   9.313  11.348 -0.4939 -0.5204 -0.8909
   28MOL0     C 3706   8.239   9.165  11.326 -0.1915  0.1339  0.2752
   28MOL0     C 3707   8.169   9.127  11.192 -0.1332  0.0832 -0.1926
   28MOL0     C 3708   8.033   9.094  11.218 -1.0228 -0.0499  0.6568
   28MOL0     C 3709   7.918   9.074  11.248 -0.1407  0.4564 -0.4143
   28MOL0     C 3710   8.548   9.484  10.998  0.8971 -0.9812 -0.3838
   28MOL0     C 3711   8.650   9.568  10.952  0.7194 -0.0823 -0.4902
   28MOL0     C 3712   8.625   9.645  10.826  0.3164 -0.3021 -0.1109
   28MOL0     H 3713   8.888   9.915  10.820 -0.7447 -1.5376 -1.9206
   28MOL0     H 3714   9.038  10.064  10.694 -1.3307  0.2480  1.5195
   28MOL0     H 3715   9.184  10.128  10.483 -1.0613  1.1298  1.1461
   28MOL0     H 3716   9.255  10.168  10.636 -1.7259  1.5262 -1.2644
   28MOL0     H 3717   9.401  10.255  10.435  2.6216 -0.1152 -0.3108
   28MOL0     H 3718   9.434  10.088  10.397  2.0248  2.4089 -1.6968
   28MOL0     H 3719   9.555  10.044  10.591  0.1850  0.8442 -0.0958
   28MOL0     H 3720   9.484  10.158  10.680 -1.1429 -1.5874 -0.0879
   28MOL0     H 3721   9.696  10.204  10.460  2.4491  0.4816  0.9402
   28MOL0     H 3722   9.600  10.342  10.511  2.0508  0.4626  1.1363
   28MOL0     H 3723   9.674  10.298  10.754 -0.3019 -1.2357  1.3845
   28MOL0     H 3724   9.759  10.166  10.687 -0.0685 -0.2125 -0.1218
   28MOL0     H 3725   9.809  10.459  10.642  1.5344  0.4326 -2.7452
   28MOL0     H 3726   9.883  10.350  10.747 -3.4473  0.7005  1.7830
   28MOL0     H 3727   9.994  10.405  10.512  0.4583 -0.9179 -1.0917
   28MOL0     H 3728   9.890  10.280  10.448 -2.3942 -0.1039  0.8715
   28MOL0     H 3729  10.085  10.227  10.684  1.5719 -3.0659  0.4286
   28MOL0     H 3730   9.974  10.117  10.596 -2.7060  1.0863 -1.7020
   28MOL0     H 3731  10.026  10.048  10.363 -0.3940  1.0032  1.1591
   28MOL0     H 3732  10.227  10.015  10.135  0.4481 -5.7089 -2.3656
   28MOL0     H 3733  10.392  10.001  10.190  0.6477 -2.5797 -0.4348
   28MOL0     H 3734  10.147   9.832  10.215 -0.6635  2.0673  1.2097
   28MOL0     H 3735  10.293   9.779  10.159  1.8475  2.2420 -1.0264
   28MOL0     H 3736  10.267   9.663  10.366  2.6510 -0.0786 -2.8016
   28MOL0     H 3737  10.222   9.800  10.449 -0.9638 -0.1298 -1.5462
   28MOL0     H 3738  10.459   9.895  10.434 -3.6210  0.6198  1.2749
   28MOL0     H 3739  10.498   9.741  10.347  0.1666  0.7936  0.4225
   28MOL0     H 3740  10.521   9.561  10.733 -0.1826 -1.4812 -1.1134
   28MOL0     H 3741  10.721   9.561  10.871 -0.5941  3.1489  1.9581
   28MOL0     H 3742  11.235   9.740  10.650  2.3774  0.9047 -1.2358
   28MOL0     H 3743  11.465   9.678  10.732  1.1202  1.7117  0.4347
   28MOL0     H 3744  11.540   9.922  11.071  0.5819  1.4311  0.3234
   28MOL0     H 3745  11.697   9.845  11.079 -1.0975 -1.2777 -0.1306
   28MOL0     H 3746  11.554   9.956  10.840  0.8544 -0.1900 -0.8185
   28MOL0     H 3747  11.673  10.056  10.926  0.5326  0.9024 -2.4322
   28MOL0     H 3748  11.717   9.793  10.759  0.8543  0.9337 -1.0122
   28MOL0     H 3749  11.764   9.951  10.704 -1.5786 -0.4755 -0.8622
   28MOL0     H 3750  11.894   9.811  10.944  0.5183 -2.3381 -2.0141
   28MOL0     H 3751  11.899   9.988  10.922  2.3834 -1.4599  0.9144
   28MOL0     H 3752  12.005   9.965  10.691 -1.0222 -0.7494 -0.3809
   28MOL0     H 3753  12.001   9.798  10.722 -2.8464  1.0349 -1.4658
   28MOL0     H 3754  12.133  10.023  10.874  1.1302 -0.2166 -0.0291
   28MOL0     H 3755  12.140   9.865  10.944 -0.6660 -0.8518 -0.8985
   28MOL0     H 3756  12.254   9.944  10.677  0.6077 -1.2233 -1.2296
   28MOL0     H 3757  12.256   9.777  10.758  4.8345 -0.5992  0.8573
   28MOL0     H 3758  12.391  10.006  10.905  0.2298 -0.6991  1.1329
   28MOL0     H 3759  12.392   9.836  10.936 -1.0930  0.1568  1.2347
   28MOL0     H 3760  11.336   9.838  11.127  1.8675 -3.5810  0.5129
   28MOL0     H 3761  11.119   9.889  11.014 -0.8863 -1.3256  0.4899
   28MOL0     H 3762  10.889   9.874  10.594  0.1560  2.7353  1.1293
   28MOL0     H 3763  10.670   9.873  10.492  2.2246  0.8398  0.1816
   28MOL0     H 3764   9.302   9.721  10.639  0.1625  1.3173 -1.8730
   28MOL0     H 3765   9.141   9.583  10.745 -1.4595  0.3997 -1.0276
   28MOL0     H 3766   8.870   9.507  11.212 -1.0337 -1.4714  1.0962
   28MOL0     H 3767   8.690   9.365  11.289 -1.8468 -0.3087 -0.0595
   28MOL0     H 3768   8.412   9.467  11.338  0.9107  0.4121 -2.3396
   28MOL0     H 3769   8.495   9.314  11.359  0.1065  0.4493  2.4155
   28MOL0     H 3770   8.195   9.375  11.295  1.8314  1.0971 -2.4069
   28MOL0     H 3771   8.259   9.340  11.454  1.7762 -1.3912 -0.4092
   28MOL0     H 3772   8.174   9.123  11.403 -3.0021  0.1107 -1.9528
   28MOL0     H 3773   8.338   9.119  11.327 -0.6003 -0.7508  0.4267
   28MOL0     H 3774   8.167   9.211  11.121 -0.1138  0.2193 -0.0310
   28MOL0     H 3775   8.215   9.039  11.145  2.0782  2.3609 -2.6492
   28MOL0     H 3776   7.813   9.064  11.266 -0.0884  0.5640 -0.0410
   28MOL0     H 3777   8.456   9.484  10.941  0.8093  0.1418 -0.2712
   28MOL0     H 3778   8.650   9.750  10.844  0.1458 -0.6410  2.5599
   28MOL0     H 3779   8.686   9.596  10.750  1.0955 -1.3711  1.1522
   28MOL0     H 3780   8.518   9.633  10.804 -0.0039 -0.4583  1.4285
   29MOL0     O 3781   5.211   1.947   6.086 -0.1014  0.0775  0.7819
   29MOL0     C 3782   5.160   1.856   6.023 -0.2015 -1.5815  0.4283
   29MOL0     O 3783   5.232   1.748   5.969 -0.2247  0.3780 -0.1827
   29MOL0     C 3784   5.374   1.767   5.966  0.3591  1.0558  1.2116
   29MOL0     C 3785   5.461   1.663   5.994  0.6636 -0.9834 -0.3497
   29MOL0     C 3786   5.601   1.672   5.986 -0.4196  0.3450 -0.3799
   29MOL0     C 3787   5.665   1.795   5.948  0.3307 -0.0447 -0.9371
   29MOL0     O 3788   5.803   1.801   5.931 -0.5240  0.1816  0.9220
   29MOL0     C 3789   5.882   1.757   6.043  0.4442  1.0251 -0.0097
   29MOL0     C 3790   5.993   1.664   6.005  0.1125 -0.3672 -0.0409
   29MOL0     C 3791   6.108   1.730   5.938  0.5776 -0.5272 -0.6004
   29MOL0     C 3792   6.202   1.631   5.867  0.8755 -0.4518 -1.0392
   29MOL0     C 3793   6.344   1.680   5.880 -0.4639 -0.7291  0.2701
   29MOL0     C 3794   6.435   1.607   5.770 -0.0292  0.5376 -1.0910
   29MOL0     C 3795   6.572   1.681   5.744 -0.7035 -0.0508  0.0447
   29MOL0     C 3796   6.642   1.631   5.618  0.7349  0.2531 -0.8997
   29MOL0     N 3797   6.752   1.726   5.584 -0.5291  0.3090  0.2268
   29MOL0     C 3798   6.842   1.797   5.667  0.1401 -0.2609  0.7934
   29MOL0     C 3799   6.922   1.865   5.587 -0.7797 -0.4482 -0.3560
   29MOL0     C 3800   7.027   1.972   5.617 -1.1980  0.4342 -0.2332
   29MOL0     C 3801   7.142   1.906   5.698 -0.4597  0.0533  0.0522
   29MOL0     C 3802   7.234   1.820   5.605  0.3934 -0.2379 -0.5136
   29MOL0     C 3803   7.376   1.794   5.671 -0.7501 -0.2949 -0.2117
   29MOL0     O 3804   7.474   1.749   5.571  0.8252 -0.0015 -0.1368
   29MOL0     C 3805   7.537   1.833   5.485 -0.7458  0.2371 -0.4709
   29MOL0     C 3806   7.635   1.771   5.404  0.3641 -0.3712  0.1608
   29MOL0     C 3807   7.716   1.848   5.315  0.6624  0.1671 -0.3062
   29MOL0     C 3808   7.697   1.982   5.306  0.0474 -0.6717 -0.0911
   29MOL0     C 3809   7.784   2.055   5.215 -0.6811 -0.5086 -0.0558
   29MOL0     O 3810   7.819   2.176   5.240  0.1620 -0.2956 -0.0567
   29MOL0     C 3811   7.898   2.235   5.153  0.0030  0.3853 -0.2943
   29MOL0     C 3812   7.846   2.314   5.046  0.5012 -0.4543 -0.4392
   29MOL0     C 3813   7.934   2.392   4.961 -0.4386 -0.5506  0.1341
   29MOL0     C 3814   8.077   2.389   4.990  0.4427 -0.2861  1.1982
   29MOL0     O 3815   8.172   2.459   4.910 -0.0159  0.6025 -0.0511
   29MOL0     C 3816   8.138   2.538   4.798  0.1333 -0.4626 -0.2683
   29MOL0     C 3817   8.259   2.569   4.708 -0.7834 -0.0889 -0.0787
   29MOL0     C 3818   8.379   2.643   4.765  0.2000 -0.6291 -0.4063
   29MOL0     C 3819   8.465   2.560   4.850 -0.2117  0.0953 -0.0791
   29MOL0     C 3820   8.591   2.639   4.893 -0.7300 -0.6680  0.8781
   29MOL0     C 3821   8.656   2.550   5.002 -0.2831 -0.3030  0.7894
   29MOL0     C 3822   8.772   2.621   5.061  0.3109 -1.0920 -0.3950
   29MOL0     C 3823   8.903   2.560   5.012  0.3859  0.5006 -1.1411
   29MOL0    Cl 3824   9.040   2.659   5.052  0.3229  0.8576 -0.0456
   29MOL0     C 3825   8.121   2.308   5.095 -0.2381  0.0626  0.5606
   29MOL0     C 3826   8.033   2.227   5.175  0.1864  0.0760 -0.5327
   29MOL0     O 3827   7.830   1.987   5.123  0.1875  0.3783  0.6289
   29MOL0     C 3828   7.599   2.042   5.379 -0.0554 -0.1845 -0.9686
   29MOL0     C 3829   7.517   1.964   5.466  0.6934 -0.9111 -1.2239
   29MOL0     N 3830   6.884   1.847   5.460  0.2659 -0.9207 -0.2421
   29MOL0     N 3831   6.780   1.770   5.460 -0.1806  0.0870  0.0982
   29MOL0     C 3832   5.576   1.905   5.923 -0.7317 -0.5820  0.2696
   29MOL0     C 3833   5.436   1.888   5.931  0.2692 -0.4206 -0.0311
   29MOL0     C 3834   5.009   1.852   6.014 -0.3234 -0.4036  0.1247
   29MOL0     C 3835   4.959   1.735   5.955  0.5077  0.9179 -0.2600
   29MOL0     C 3836   4.816   1.722   5.951  0.1135  0.1954  0.0114
   29MOL0     C 3837   4.734   1.824   6.001  0.3532 -0.3381  0.4320
   29MOL0     O 3838   4.599   1.811   5.997  0.3106  0.4073 -0.0287
   29MOL0     C 3839   4.537   1.693   6.064  0.2019 -0.0778  0.6687
   29MOL0     C 3840   4.384   1.706   6.082  0.8669 -1.0921  0.2334
   29MOL0     C 3841   4.301   1.747   5.957 -0.5454 -0.3558 -0.3399
   29MOL0     C 3842   4.150   1.736   5.992 -0.3480 -0.1436 -0.0564
   29MOL0     C 3843   4.066   1.789   5.885  0.8769  0.4764 -0.0573
   29MOL0     C 3844   3.975   1.839   5.814 -0.0008 -0.3204  0.0653
   29MOL0     C 3845   4.790   1.943   6.046  0.6921  0.5726  0.6869
   29MOL0     C 3846   4.924   1.959   6.057 -0.0718  0.8833 -0.0923
   29MOL0     C 3847   4.973   2.096   6.110 -0.1920  0.5642 -0.4580
   29MOL0     H 3848   5.413   1.571   6.026 -0.7656 -0.4178 -0.7663
   29MOL0     H 3849   5.658   1.584   6.017  0.3072  0.7566 -0.5232
   29MOL0     H 3850   5.916   1.835   6.112  1.3701 -1.9034  3.1461
   29MOL0     H 3851   5.822   1.686   6.102 -0.1179 -0.6243 -2.4014
   29MOL0     H 3852   5.951   1.583   5.943 -1.2878  0.2958  0.0045
   29MOL0     H 3853   6.023   1.609   6.094 -0.8235  0.5309  0.8492
   29MOL0     H 3854   6.166   1.781   6.016  2.0564  1.2149 -2.7136
   29MOL0     H 3855   6.065   1.806   5.873 -0.4709  0.1759  0.8787
   29MOL0     H 3856   6.187   1.532   5.912  0.2859  0.5405  1.1040
   29MOL0     H 3857   6.177   1.621   5.762 -0.1033  0.3225 -0.8944
   29MOL0     H 3858   6.338   1.786   5.856 -0.7682 -1.2367 -2.1975
   29MOL0     H 3859   6.388   1.676   5.980  1.4900  2.0358 -0.3675
   29MOL0     H 3860   6.450   1.505   5.808 -2.7452  0.4675 -0.0020
   29MOL0     H 3861   6.380   1.608   5.676  0.1772  0.0388 -1.2203
   29MOL0     H 3862   6.631   1.657   5.833 -3.3592 -0.6579  1.7620
   29MOL0     H 3863   6.549   1.788   5.737  1.2934  0.6823  2.9656
   29MOL0     H 3864   6.681   1.530   5.639  0.9324  0.3485 -0.8034
   29MOL0     H 3865   6.585   1.607   5.528  1.2508 -3.9031 -0.3473
   29MOL0     H 3866   6.850   1.791   5.775 -1.3635  0.2616  0.9603
   29MOL0     H 3867   7.078   1.999   5.525  1.5702 -1.4540  0.6173
   29MOL0     H 3868   6.996   2.062   5.671  0.2709  0.3543  0.8003
   29MOL0     H 3869   7.206   1.980   5.747  0.6951 -2.7724  3.2518
   29MOL0     H 3870   7.109   1.838   5.778  1.1489  1.7641  2.3168
   29MOL0     H 3871   7.247   1.883   5.516 -2.7936  0.2101 -0.7675
   29MOL0     H 3872   7.183   1.727   5.579 -3.8816  0.8984  2.6359
   29MOL0     H 3873   7.371   1.720   5.751 -0.9049 -0.7160 -0.6045
   29MOL0     H 3874   7.410   1.893   5.702  0.5683 -0.1892 -1.8404
   29MOL0     H 3875   7.651   1.664   5.418  1.2486  0.1441  4.5348
   29MOL0     H 3876   7.785   1.781   5.264 -0.9505 -2.0817  0.2600
   29MOL0     H 3877   7.738   2.322   5.045  0.5757  2.6458  1.3737
   29MOL0     H 3878   7.892   2.458   4.886  0.8134  2.0103  1.5553
   29MOL0     H 3879   8.066   2.480   4.739  0.6826 -0.5114 -0.8944
   29MOL0     H 3880   8.098   2.636   4.828 -0.9954 -1.0699  0.2645
   29MOL0     H 3881   8.294   2.478   4.658  0.6501  0.8951 -0.9435
   29MOL0     H 3882   8.228   2.629   4.622  3.0628 -2.0257 -3.1479
   29MOL0     H 3883   8.432   2.686   4.679  0.5945  0.3875  0.3278
   29MOL0     H 3884   8.332   2.719   4.828  0.0751 -0.1355 -1.0784
   29MOL0     H 3885   8.490   2.467   4.799  2.1762 -0.5520  2.0938
   29MOL0     H 3886   8.407   2.534   4.939 -0.9385  1.6489 -0.0603
   29MOL0     H 3887   8.568   2.735   4.939 -1.2379 -0.1190 -0.4879
   29MOL0     H 3888   8.647   2.658   4.801  0.9055  0.7931  2.1057
   29MOL0     H 3889   8.601   2.508   5.086  0.9784 -1.3494  1.1300
   29MOL0     H 3890   8.689   2.463   4.943 -0.3084 -1.2215  2.0991
   29MOL0     H 3891   8.762   2.616   5.170 -0.8533 -1.9507 -0.5184
   29MOL0     H 3892   8.773   2.727   5.035  2.7074 -1.2692 -1.3036
   29MOL0     H 3893   8.909   2.461   5.058  0.5840  1.7276  1.7121
   29MOL0     H 3894   8.904   2.549   4.904 -1.4754 -1.2019 -1.0478
   29MOL0     H 3895   8.225   2.309   5.126  0.1750  1.5264 -0.7221
   29MOL0     H 3896   8.079   2.168   5.253  2.8734  0.7065 -1.5336
   29MOL0     H 3897   7.577   2.148   5.376 -0.3346 -0.1988  0.0656
   29MOL0     H 3898   7.445   2.018   5.527  2.6452 -0.3769  0.7521
   29MOL0     H 3899   5.621   1.998   5.891 -0.2656 -0.3415  1.5651
   29MOL0     H 3900   5.374   1.971   5.900 -1.1115 -0.0712  3.2754
   29MOL0     H 3901   5.025   1.656   5.921 -2.2616 -1.6150 -0.1759
   29MOL0     H 3902   4.770   1.637   5.901 -0.0822  2.4140 -3.9803
   29MOL0     H 3903   4.588   1.667   6.158 -2.6948  0.5770  2.5661
   29MOL0     H 3904   4.542   1.603   6.003  3.2806  0.3722  0.0956
   29MOL0     H 3905   4.358   1.784   6.155  0.1486 -1.7231  0.6736
   29MOL0     H 3906   4.344   1.610   6.114  1.2952 -0.8625  1.5272
   29MOL0     H 3907   4.316   1.677   5.874 -0.4940 -0.3341 -0.3485
   29MOL0     H 3908   4.324   1.851   5.932  0.5269 -0.5995 -0.4070
   29MOL0     H 3909   4.117   1.636   6.020 -2.0809  0.4557  0.2028
   29MOL0     H 3910   4.132   1.802   6.077  3.3207  1.0375 -0.0506
   29MOL0     H 3911   3.901   1.892   5.758 -1.2026  0.1356  1.9785
   29MOL0     H 3912   4.717   2.020   6.070  0.1678 -0.1033  1.3316
   29MOL0     H 3913   5.036   2.079   6.197  2.7644  0.7763 -2.4171
   29MOL0     H 3914   5.041   2.138   6.035  3.1332 -0.2429  1.9042
   29MOL0     H 3915   4.892   2.168   6.125 -0.5479  0.2975 -1.0298
   30MOL0     O 3916   9.226   7.467   3.802  0.0901  0.2367 -0.6430
   30MOL0     C 3917   9.186   7.583   3.802  0.7232  0.4746 -0.2530
   30MOL0     O 3918   9.271   7.687   3.798 -0.3865 -0.3661 -0.2202
   30MOL0     C 3919   9.400   7.675   3.758 -0.6517 -0.5687  0.5841
   30MOL0     C 3920   9.503   7.746   3.814 -0.5940  0.0326  0.3279
   30MOL0     C 3921   9.635   7.739   3.766 -0.7483 -0.2040 -0.3539
   30MOL0     C 3922   9.661   7.678   3.648 -0.3180 -0.3511 -0.1351
   30MOL0     O 3923   9.792   7.671   3.609 -0.0227  0.0953  0.8447
   30MOL0     C 3924   9.814   7.615   3.482  0.0406 -0.9171  1.3881
   30MOL0     C 3925   9.966   7.600   3.471  0.0560 -0.0343 -0.2489
   30MOL0     C 3926  10.013   7.578   3.324  0.1773 -0.0596  1.0414
   30MOL0     C 3927  10.161   7.546   3.311  0.6921  0.1237  0.3618
   30MOL0     C 3928  10.207   7.525   3.157  0.5378  0.4802 -0.0896
   30MOL0     C 3929  10.359   7.511   3.134  0.2620  0.7050 -0.4549
   30MOL0     C 3930  10.398   7.427   3.013 -0.4290 -0.0034 -0.5562
   30MOL0     C 3931  10.541   7.457   2.949  0.8851 -0.0280 -0.2125
   30MOL0     N 3932  10.645   7.455   3.043 -0.2473 -0.4737 -0.5520
   30MOL0     C 3933  10.710   7.556   3.104 -0.0064 -0.8006 -1.2828
   30MOL0     C 3934  10.784   7.495   3.203  0.9508  0.2704 -0.0240
   30MOL0     C 3935  10.869   7.538   3.310 -0.2022 -0.6030 -0.4474
   30MOL0     C 3936  11.015   7.574   3.262  0.2017 -0.6090 -0.8849
   30MOL0     C 3937  11.070   7.487   3.143  0.4476 -0.3229 -0.3179
   30MOL0     C 3938  11.216   7.513   3.119 -0.1866 -0.5802 -0.1397
   30MOL0     O 3939  11.252   7.462   2.986  0.1902 -0.7937  0.4564
   30MOL0     C 3940  11.312   7.343   2.955  0.0092 -0.8059  0.6515
   30MOL0     C 3941  11.367   7.264   3.054  0.3925  0.3179 -0.2380
   30MOL0     C 3942  11.415   7.139   3.022 -0.9026 -0.6309  0.2061
   30MOL0     C 3943  11.421   7.093   2.882 -0.3037  0.8485  0.2532
   30MOL0     C 3944  11.475   6.953   2.842  0.6165  0.1160 -0.4622
   30MOL0     O 3945  11.482   6.930   2.705  0.6834  0.5268  0.4482
   30MOL0     C 3946  11.547   6.812   2.663 -0.1078  0.1270  0.4581
   30MOL0     C 3947  11.687   6.802   2.672 -0.2032  0.0627 -0.6657
   30MOL0     C 3948  11.749   6.682   2.645  0.1242 -0.4555 -0.1801
   30MOL0     C 3949  11.678   6.580   2.589 -0.9183  0.3695  0.1747
   30MOL0     O 3950  11.760   6.473   2.550  0.6870 -0.3331 -0.3978
   30MOL0     C 3951  11.703   6.345   2.552  0.0898 -0.0689  0.3552
   30MOL0     C 3952  11.824   6.247   2.542 -0.3850  0.5843  0.1803
   30MOL0     C 3953  11.894   6.233   2.676 -0.2184 -0.6346  0.0459
   30MOL0     C 3954  11.998   6.124   2.676 -0.2015 -0.4085 -0.0557
   30MOL0     C 3955  12.071   6.097   2.821 -0.0480 -0.2729 -0.0480
   30MOL0     C 3956  11.997   5.992   2.899  0.0671 -0.4225 -0.4231
   30MOL0     C 3957  12.046   5.986   3.045 -0.3416 -0.0105 -0.6188
   30MOL0     C 3958  11.936   5.958   3.146  0.9649  0.5964  0.3374
   30MOL0    Cl 3959  11.824   6.095   3.154  0.1149  0.2051 -0.1139
   30MOL0     C 3960  11.540   6.586   2.576  0.8051  0.3472 -0.2773
   30MOL0     C 3961  11.474   6.704   2.621  0.4256 -0.1710  1.1380
   30MOL0     O 3962  11.496   6.868   2.926  0.3803 -0.2181 -0.4141
   30MOL0     C 3963  11.376   7.184   2.782 -0.3804  0.1917  0.4820
   30MOL0     C 3964  11.326   7.307   2.821  0.2184 -0.3072 -0.3071
   30MOL0     N 3965  10.771   7.361   3.186  0.4377  0.4815  0.0978
   30MOL0     N 3966  10.686   7.336   3.098  0.5923 -0.1470 -0.0233
   30MOL0     C 3967   9.553   7.606   3.585 -0.3861 -0.3082 -0.2151
   30MOL0     C 3968   9.419   7.612   3.635  0.0752  0.0669 -0.7775
   30MOL0     C 3969   9.032   7.597   3.812  0.0271 -0.7498 -0.1273
   30MOL0     C 3970   8.991   7.729   3.788  0.1724 -0.2997  0.0882
   30MOL0     C 3971   8.855   7.772   3.785  0.3264  0.0000 -1.1600
   30MOL0     C 3972   8.756   7.674   3.807 -1.0520 -0.4046  0.1840
   30MOL0     O 3973   8.620   7.684   3.800  0.3735 -0.6145  0.1817
   30MOL0     C 3974   8.562   7.812   3.846 -0.3067 -0.0394  0.2874
   30MOL0     C 3975   8.407   7.819   3.824  0.2535 -0.3691  0.3964
   30MOL0     C 3976   8.339   7.694   3.859  0.5611  0.5443 -0.4559
   30MOL0     C 3977   8.185   7.710   3.863 -0.2616  0.5064  0.1992
   30MOL0     C 3978   8.124   7.583   3.907 -0.0925  1.2634 -0.3391
   30MOL0     C 3979   8.065   7.487   3.954 -0.7094  0.2015  0.3394
   30MOL0     C 3980   8.797   7.546   3.826 -0.0781  0.9994 -0.6740
   30MOL0     C 3981   8.930   7.498   3.827  0.2561  0.0014 -0.1842
   30MOL0     C 3982   8.967   7.351   3.835 -0.0703 -0.2710 -1.3152
   30MOL0     H 3983   9.479   7.787   3.911 -0.9961 -3.1302  1.6722
   30MOL0     H 3984   9.718   7.773   3.826 -0.5674 -0.3492 -0.5174
   30MOL0     H 3985   9.770   7.515   3.471  1.1197 -1.1056 -2.8498
   30MOL0     H 3986   9.773   7.679   3.404 -1.2673 -1.3009  1.7216
   30MOL0     H 3987   9.998   7.525   3.544  2.9485  0.9495 -0.3972
   30MOL0     H 3988  10.006   7.696   3.505 -0.3988 -0.2051  0.8071
   30MOL0     H 3989   9.992   7.669   3.267 -0.5235  0.2055  1.7101
   30MOL0     H 3990   9.958   7.494   3.281 -0.1672  1.2238 -1.1921
   30MOL0     H 3991  10.220   7.614   3.373 -0.7877  0.8558  1.0068
   30MOL0     H 3992  10.186   7.450   3.359  3.9186 -1.8156 -4.4278
   30MOL0     H 3993  10.145   7.443   3.120 -0.7998  1.3605  0.1094
   30MOL0     H 3994  10.162   7.605   3.097 -2.7604 -0.7719  0.4764
   30MOL0     H 3995  10.407   7.609   3.124 -1.2286  1.2627 -3.3910
   30MOL0     H 3996  10.411   7.472   3.222  2.2943 -2.3852 -2.8406
   30MOL0     H 3997  10.314   7.444   2.945  0.0654 -0.0596 -1.1865
   30MOL0     H 3998  10.395   7.323   3.047  0.8682  1.0224  3.1689
   30MOL0     H 3999  10.553   7.371   2.883  0.5501  0.9462 -1.5614
   30MOL0     H 4000  10.554   7.546   2.887  1.9195  0.4726  0.6747
   30MOL0     H 4001  10.704   7.664   3.096 -3.6218 -0.5489  1.9491
   30MOL0     H 4002  10.834   7.621   3.372  1.9805 -0.1133  0.1958
   30MOL0     H 4003  10.884   7.449   3.372 -0.1990 -1.2846 -1.4043
   30MOL0     H 4004  11.011   7.680   3.236 -0.6981 -0.1385  1.0306
   30MOL0     H 4005  11.085   7.568   3.345 -0.6437  4.0703  0.4110
   30MOL0     H 4006  11.010   7.507   3.054  1.1085  0.9376 -0.4914
   30MOL0     H 4007  11.055   7.381   3.167  0.1860 -0.7992 -2.4135
   30MOL0     H 4008  11.281   7.474   3.199  0.3287 -0.9697 -0.7376
   30MOL0     H 4009  11.231   7.622   3.122 -1.6925 -0.3766  1.0760
   30MOL0     H 4010  11.381   7.279   3.161  2.8458 -0.8763 -0.3207
   30MOL0     H 4011  11.468   7.087   3.101 -0.5744 -0.6084  0.0069
   30MOL0     H 4012  11.732   6.892   2.713 -0.4097 -0.5505  0.9749
   30MOL0     H 4013  11.857   6.686   2.640  0.1405 -1.6599 -1.2265
   30MOL0     H 4014  11.644   6.329   2.643 -1.1566  1.2942 -0.1769
   30MOL0     H 4015  11.634   6.341   2.467  0.3620 -0.9848  0.1633
   30MOL0     H 4016  11.786   6.155   2.498 -0.1384  0.2333  0.6912
   30MOL0     H 4017  11.903   6.287   2.477  2.3875 -0.5108  2.6280
   30MOL0     H 4018  11.952   6.320   2.709 -1.2086 -0.6953  2.1315
   30MOL0     H 4019  11.815   6.220   2.751 -0.4432 -3.2229 -0.5363
   30MOL0     H 4020  12.080   6.148   2.608 -0.0476 -0.3567  0.1494
   30MOL0     H 4021  11.949   6.033   2.641 -1.9569  0.2859  0.4935
   30MOL0     H 4022  12.059   6.194   2.870 -0.6878 -0.6324  0.5373
   30MOL0     H 4023  12.175   6.074   2.798 -0.0944  0.2160 -0.7647
   30MOL0     H 4024  11.891   6.014   2.907  0.6146  1.9139  1.9109
   30MOL0     H 4025  12.023   5.898   2.849  1.6951  0.6493 -1.7054
   30MOL0     H 4026  12.074   6.086   3.078 -0.9837 -0.0101 -0.0320
   30MOL0     H 4027  12.129   5.917   3.062 -0.3915 -0.1151 -0.7973
   30MOL0     H 4028  11.893   5.859   3.133  0.7665  0.9409 -2.1506
   30MOL0     H 4029  11.980   5.953   3.246 -2.3164 -0.6427  1.8388
   30MOL0     H 4030  11.476   6.512   2.531  0.9430 -1.1616  1.8876
   30MOL0     H 4031  11.369   6.712   2.598  0.6569  1.6608  0.5437
   30MOL0     H 4032  11.377   7.164   2.675 -0.4446  3.6265 -0.2757
   30MOL0     H 4033  11.288   7.370   2.741  1.6516 -0.5015 -1.1702
   30MOL0     H 4034   9.557   7.548   3.493  1.9430 -1.4658  0.5291
   30MOL0     H 4035   9.341   7.559   3.580 -1.4402  1.5136 -0.1133
   30MOL0     H 4036   9.069   7.803   3.777 -0.2761  0.1439 -0.1804
   30MOL0     H 4037   8.841   7.878   3.769  1.6446  0.2633 -0.7087
   30MOL0     H 4038   8.604   7.897   3.790 -0.4249  1.4087  2.2956
   30MOL0     H 4039   8.584   7.836   3.950  2.1542  0.4074 -0.2696
   30MOL0     H 4040   8.391   7.836   3.717  1.6719 -0.4360  0.1542
   30MOL0     H 4041   8.375   7.898   3.893 -0.7606 -0.4561  0.0357
   30MOL0     H 4042   8.378   7.651   3.951  2.4409 -1.4718 -2.0646
   30MOL0     H 4043   8.368   7.613   3.790  2.0013 -1.0746  1.8934
   30MOL0     H 4044   8.166   7.786   3.940  1.4116 -1.3510  2.6067
   30MOL0     H 4045   8.134   7.742   3.772 -0.0604  2.1162  0.6140
   30MOL0     H 4046   8.015   7.402   3.995 -1.1977 -0.4045 -1.4352
   30MOL0     H 4047   8.709   7.485   3.846  0.4469  0.9035  1.7239
   30MOL0     H 4048   8.870   7.306   3.811 -0.8811  0.9859 -0.5298
   30MOL0     H 4049   9.038   7.317   3.759 -0.4158  0.4857 -1.9933
   30MOL0     H 4050   8.998   7.319   3.935 -0.5965 -0.9533 -1.3651
   31MOL0     O 4051   1.740   3.442   4.287 -0.5827 -0.1092 -0.3482
   31MOL0     C 4052   1.671   3.530   4.237  0.6096  1.2051  0.2409
   31MOL0     O 4053   1.686   3.585   4.110  0.1378  0.2438 -0.0389
   31MOL0     C 4054   1.800   3.565   4.044 -0.2926  0.5681  0.5870
   31MOL0     C 4055   1.917   3.620   4.100 -0.3855 -0.3454 -0.8050
   31MOL0     C 4056   2.038   3.602   4.043 -0.7586  0.0730  0.0536
   31MOL0     C 4057   2.052   3.520   3.927  0.1012 -0.9034 -0.1066
   31MOL0     O 4058   2.168   3.507   3.855  0.1097 -0.2492  0.4948
   31MOL0     C 4059   2.282   3.595   3.890  0.1292 -0.3286 -0.0632
   31MOL0     C 4060   2.417   3.561   3.828  0.3974  0.2622  0.0112
   31MOL0     C 4061   2.483   3.435   3.872  0.0889  0.4352  0.4230
   31MOL0     C 4062   2.613   3.412   3.803  0.3294 -0.1793 -0.3456
   31MOL0     C 4063   2.671   3.275   3.824 -0.3878  0.5512 -0.5043
   31MOL0     C 4064   2.704   3.262   3.975 -0.2052  0.2773  0.4599
   31MOL0     C 4065   2.780   3.135   4.011  0.4470 -0.6796 -0.6079
   31MOL0     C 4066   2.787   3.105   4.163 -0.0023 -0.8738 -0.3593
   31MOL0     N 4067   2.928   3.079   4.196 -0.2539 -0.6709 -0.8305
   31MOL0     C 4068   2.991   3.115   4.313  0.0211  0.3284  0.0969
   31MOL0     C 4069   3.119   3.069   4.304 -0.8879  0.6288  0.0652
   31MOL0     C 4070   3.233   3.092   4.403 -0.2324 -0.2680  0.2339
   31MOL0     C 4071   3.335   3.209   4.349  0.8609  0.1379 -0.0561
   31MOL0     C 4072   3.307   3.351   4.395 -0.3588 -0.6323 -0.1926
   31MOL0     C 4073   3.387   3.441   4.318 -0.7912 -1.2923  0.7677
   31MOL0     O 4074   3.334   3.575   4.322 -0.4813 -0.2708 -0.2620
   31MOL0     C 4075   3.226   3.597   4.245  0.1289 -0.1513  1.0055
   31MOL0     C 4076   3.163   3.512   4.149 -0.6092 -0.2701  0.4180
   31MOL0     C 4077   3.051   3.555   4.081  0.0476 -0.2036 -0.5633
   31MOL0     C 4078   2.998   3.687   4.090 -0.5343  0.2455  0.2370
   31MOL0     C 4079   2.872   3.719   4.025 -0.3870 -0.1531 -0.0505
   31MOL0     O 4080   2.854   3.848   4.011 -0.1393 -0.1208  0.3555
   31MOL0     C 4081   2.728   3.894   3.974  0.0210  0.3488  0.5665
   31MOL0     C 4082   2.658   3.973   4.070 -0.1090  0.0652  0.1890
   31MOL0     C 4083   2.541   4.031   4.025  0.1928 -0.3025  0.5092
   31MOL0     C 4084   2.482   3.997   3.900 -0.9731  0.0054 -0.4480
   31MOL0     O 4085   2.369   4.070   3.874 -0.0706 -0.4830 -0.3695
   31MOL0     C 4086   2.248   3.988   3.883  0.1491 -0.2558  0.2774
   31MOL0     C 4087   2.223   3.927   4.021  0.2487 -0.0799 -0.2705
   31MOL0     C 4088   2.194   4.029   4.138  0.2057 -0.7275 -0.2831
   31MOL0     C 4089   2.050   4.043   4.153  0.6967  1.0664  1.1321
   31MOL0     C 4090   2.009   4.128   4.269  0.1098  0.5798 -0.0805
   31MOL0     C 4091   1.857   4.097   4.304 -0.4078 -0.5744  0.3471
   31MOL0     C 4092   1.824   4.118   4.452 -1.1492 -0.8014 -0.2384
   31MOL0     C 4093   1.677   4.132   4.484  0.5129 -0.6158  0.6693
   31MOL0    Cl 4094   1.604   4.288   4.437 -0.7338  0.3141  0.1040
   31MOL0     C 4095   2.547   3.906   3.813 -1.0485  0.2508  0.9907
   31MOL0     C 4096   2.676   3.863   3.843  0.5454 -0.3613  0.8381
   31MOL0     O 4097   2.789   3.629   3.995  0.3854 -0.6195  0.1420
   31MOL0     C 4098   3.064   3.772   4.179 -0.2538  0.2658 -0.2173
   31MOL0     C 4099   3.179   3.722   4.246 -0.1912 -0.3868 -0.6573
   31MOL0     N 4100   3.129   3.011   4.180  0.3067  0.5425 -0.1719
   31MOL0     N 4101   3.010   2.992   4.127  0.0160  0.1949  0.7106
   31MOL0     C 4102   1.946   3.453   3.878  0.3415 -0.0701  0.3806
   31MOL0     C 4103   1.814   3.479   3.929 -0.0652 -0.2496 -0.9840
   31MOL0     C 4104   1.553   3.576   4.306  0.2867  0.7945  0.2007
   31MOL0     C 4105   1.546   3.712   4.330 -1.1120  0.0301 -0.1438
   31MOL0     C 4106   1.433   3.774   4.380  0.2647  0.4048  0.5779
   31MOL0     C 4107   1.337   3.683   4.430  0.6319  0.4792 -0.1901
   31MOL0     O 4108   1.231   3.744   4.497 -0.3597  0.1658  0.1936
   31MOL0     C 4109   1.141   3.675   4.581 -0.4884 -0.1280 -0.4831
   31MOL0     C 4110   1.019   3.633   4.506 -0.6576 -0.0693 -0.6287
   31MOL0     C 4111   0.938   3.518   4.574 -0.0809  0.4588  0.2281
   31MOL0     C 4112   0.826   3.577   4.671 -0.2270 -0.0337 -0.7058
   31MOL0     C 4113   0.756   3.464   4.732 -0.6337  0.4920  0.4171
   31MOL0     C 4114   0.693   3.367   4.768 -0.1742 -0.7577 -1.1762
   31MOL0     C 4115   1.344   3.547   4.410 -0.4361 -0.6523  0.4774
   31MOL0     C 4116   1.459   3.488   4.358  0.8997  0.5630  0.3761
   31MOL0     C 4117   1.467   3.337   4.359  0.9583 -0.0956  0.2638
   31MOL0     H 4118   1.912   3.687   4.185  0.3360  0.4956 -1.4025
   31MOL0     H 4119   2.129   3.646   4.083 -0.5405 -1.6458  1.5749
   31MOL0     H 4120   2.252   3.694   3.854 -0.0610  0.4935  2.2032
   31MOL0     H 4121   2.302   3.601   3.998  2.7823  0.4844 -0.5277
   31MOL0     H 4122   2.485   3.645   3.847 -0.1254  0.9001 -0.8594
   31MOL0     H 4123   2.415   3.548   3.719 -2.2900 -1.9674  0.2190
   31MOL0     H 4124   2.416   3.352   3.846 -1.8262  1.9939  0.0800
   31MOL0     H 4125   2.506   3.432   3.979  2.5042  1.8376  0.0174
   31MOL0     H 4126   2.598   3.424   3.695 -0.1799 -0.2627 -0.2858
   31MOL0     H 4127   2.688   3.487   3.828  1.7599 -1.6023 -0.2460
   31MOL0     H 4128   2.607   3.190   3.799  1.0800 -0.0885 -2.2373
   31MOL0     H 4129   2.762   3.272   3.764 -1.1390 -1.2239 -1.6287
   31MOL0     H 4130   2.762   3.353   3.992 -0.4124  0.9294 -1.9136
   31MOL0     H 4131   2.613   3.261   4.035 -0.4190 -1.1577  0.1558
   31MOL0     H 4132   2.882   3.154   3.975 -0.1498 -0.9849 -2.5597
   31MOL0     H 4133   2.742   3.046   3.961 -0.7926 -0.1588 -0.6237
   31MOL0     H 4134   2.745   3.197   4.206 -0.6478 -2.4378  2.6398
   31MOL0     H 4135   2.733   3.015   4.192 -1.1748 -0.1685 -0.2826
   31MOL0     H 4136   2.957   3.169   4.400 -1.7155  0.2233 -0.4711
   31MOL0     H 4137   3.186   3.113   4.499  0.2830 -0.6682  0.5793
   31MOL0     H 4138   3.293   3.002   4.420  0.9543  0.2335 -1.0084
   31MOL0     H 4139   3.440   3.192   4.375  0.0340 -0.7078  3.3135
   31MOL0     H 4140   3.338   3.199   4.241  3.3858 -1.1286  0.0538
   31MOL0     H 4141   3.356   3.370   4.491 -0.2058 -2.8139  0.2246
   31MOL0     H 4142   3.201   3.375   4.391  0.2359  2.2141 -1.1993
   31MOL0     H 4143   3.396   3.410   4.214  0.2195  1.7438 -0.1805
   31MOL0     H 4144   3.491   3.446   4.350  0.0825  0.0630 -1.9454
   31MOL0     H 4145   3.199   3.411   4.135  1.3673  0.4021  0.2803
   31MOL0     H 4146   2.999   3.484   4.018  3.4831 -0.8214 -3.0025
   31MOL0     H 4147   2.700   4.003   4.165 -1.5740 -0.1015  0.9107
   31MOL0     H 4148   2.493   4.107   4.085  1.0136  1.3893 -0.8607
   31MOL0     H 4149   2.160   4.047   3.858 -0.3806 -1.3038 -0.3922
   31MOL0     H 4150   2.244   3.909   3.808  0.4170  0.1269 -0.1393
   31MOL0     H 4151   2.137   3.862   4.004 -0.5572  1.1242 -0.9387
   31MOL0     H 4152   2.297   3.853   4.054 -0.2349 -0.4407  0.0089
   31MOL0     H 4153   2.246   3.991   4.227  0.4786  0.5346  0.1209
   31MOL0     H 4154   2.235   4.130   4.130 -0.0134 -0.5182  1.0830
   31MOL0     H 4155   2.008   3.944   4.169  1.3781  0.3328 -1.1587
   31MOL0     H 4156   2.006   4.073   4.057  0.7265 -2.0709  0.0252
   31MOL0     H 4157   2.018   4.233   4.238 -0.7306  0.0005 -2.4439
   31MOL0     H 4158   2.068   4.097   4.356 -1.3281 -0.1130  0.6645
   31MOL0     H 4159   1.793   4.164   4.245 -1.5145 -2.1063 -0.2364
   31MOL0     H 4160   1.831   3.994   4.279  2.4461 -1.0003 -1.3195
   31MOL0     H 4161   1.870   4.208   4.494 -1.0373 -1.2826  0.6882
   31MOL0     H 4162   1.857   4.034   4.514  2.0729  1.1354  0.9293
   31MOL0     H 4163   1.620   4.058   4.426 -1.6150  1.0493  0.5138
   31MOL0     H 4164   1.659   4.121   4.591 -2.2702  1.5317  0.5338
   31MOL0     H 4165   2.491   3.887   3.722 -1.6568 -1.2053  1.6388
   31MOL0     H 4166   2.737   3.813   3.769 -2.4363 -1.2852 -1.1466
   31MOL0     H 4167   3.031   3.874   4.192  0.5466  0.3178  1.6736
   31MOL0     H 4168   3.232   3.797   4.304  0.6018 -1.3904 -0.0297
   31MOL0     H 4169   1.950   3.382   3.796 -1.0490  1.1173 -0.7571
   31MOL0     H 4170   1.731   3.431   3.879  0.6034 -0.0155 -2.4075
   31MOL0     H 4171   1.628   3.780   4.305 -0.5466 -0.2845  0.8108
   31MOL0     H 4172   1.416   3.881   4.389 -2.9159  0.2069 -1.4308
   31MOL0     H 4173   1.112   3.744   4.661 -0.0083  0.3043 -0.6793
   31MOL0     H 4174   1.176   3.581   4.624 -0.9830  0.5977  1.6120
   31MOL0     H 4175   1.029   3.592   4.406 -2.6666 -0.2165 -0.8144
   31MOL0     H 4176   0.968   3.729   4.494 -0.4227  0.1899  0.3170
   31MOL0     H 4177   1.001   3.443   4.623 -0.6499 -0.4716 -0.4350
   31MOL0     H 4178   0.874   3.469   4.500 -0.1318 -0.8905  1.1330
   31MOL0     H 4179   0.869   3.639   4.751 -2.2133  0.7084 -0.1652
   31MOL0     H 4180   0.758   3.638   4.612 -2.6033 -4.0232 -2.5578
   31MOL0     H 4181   0.650   3.274   4.800  0.2371 -0.5916 -0.1232
   31MOL0     H 4182   1.265   3.478   4.440 -1.0423 -1.7556 -3.1046
   31MOL0     H 4183   1.530   3.298   4.438  0.7985 -0.2716  0.3052
   31MOL0     H 4184   1.367   3.292   4.354  1.5150 -1.2354 -1.8929
   31MOL0     H 4185   1.514   3.295   4.270 -0.5415 -1.9673  0.2855
   32MOL0     O 4186   3.852   6.795   7.171 -0.2192  0.0663 -0.3545
   32MOL0     C 4187   3.800   6.689   7.139 -0.3083 -0.2530 -0.1158
   32MOL0     O 4188   3.862   6.588   7.065 -0.3297 -0.2550 -0.5573
   32MOL0     C 4189   3.981   6.618   7.010  0.4764 -0.4732  0.1927
   32MOL0     C 4190   3.988   6.638   6.870  0.0121 -0.2184 -0.9684
   32MOL0     C 4191   4.115   6.652   6.812  0.8870 -0.7445  0.1454
   32MOL0     C 4192   4.224   6.668   6.888  0.4665 -0.1655 -0.5834
   32MOL0     O 4193   4.341   6.679   6.822  0.4747 -0.3396  0.3199
   32MOL0     C 4194   4.428   6.775   6.879  0.0407 -0.6401  0.0273
   32MOL0     C 4195   4.520   6.819   6.772 -0.3862 -0.3141  0.4630
   32MOL0     C 4196   4.627   6.716   6.743  0.2794 -0.0944  0.3102
   32MOL0     C 4197   4.759   6.730   6.811 -0.2324 -0.1693 -0.8575
   32MOL0     C 4198   4.874   6.641   6.757  0.1331 -1.0045 -0.2412
   32MOL0     C 4199   5.005   6.706   6.805  0.3215  0.1819 -0.2874
   32MOL0     C 4200   5.131   6.617   6.785  0.3350 -0.2233 -0.6931
   32MOL0     C 4201   5.136   6.504   6.892  0.2640  0.6898 -0.1376
   32MOL0     N 4202   5.263   6.434   6.881 -0.2788  0.7856  0.3608
   32MOL0     C 4203   5.388   6.463   6.947  0.4880 -0.6960  0.2536
   32MOL0     C 4204   5.470   6.358   6.918  0.3674 -0.5865  0.5402
   32MOL0     C 4205   5.608   6.330   6.962  0.2277  0.1381 -0.7619
   32MOL0     C 4206   5.719   6.363   6.864 -0.6243 -0.3397  0.0306
   32MOL0     C 4207   5.857   6.374   6.923 -0.6605 -1.2727 -0.0153
   32MOL0     C 4208   5.912   6.237   6.968  0.3873 -0.5776  0.7270
   32MOL0     O 4209   6.032   6.247   7.041 -0.1970  0.6942  0.2794
   32MOL0     C 4210   6.153   6.261   6.965 -0.5218 -0.0815 -0.8771
   32MOL0     C 4211   6.172   6.260   6.827 -0.4929 -0.3147 -0.4030
   32MOL0     C 4212   6.299   6.272   6.774 -0.3107  0.4328  0.9820
   32MOL0     C 4213   6.412   6.271   6.862  0.3953 -0.0029  0.2317
   32MOL0     C 4214   6.548   6.279   6.801 -0.1368  0.6753  0.3035
   32MOL0     O 4215   6.651   6.218   6.873  0.3489 -0.1134  0.2896
   32MOL0     C 4216   6.785   6.220   6.829  0.4541 -0.1455 -0.2323
   32MOL0     C 4217   6.865   6.171   6.928  0.1722  0.0314  0.1965
   32MOL0     C 4218   7.002   6.152   6.906  0.5352 -0.1243 -0.2866
   32MOL0     C 4219   7.056   6.197   6.788 -0.3776 -0.2243  0.7229
   32MOL0     O 4220   7.196   6.197   6.787  0.1823  0.2647 -0.7522
   32MOL0     C 4221   7.262   6.197   6.655 -0.5110  0.5263  0.2901
   32MOL0     C 4222   7.413   6.203   6.680  0.1841  0.7753  0.6990
   32MOL0     C 4223   7.487   6.183   6.548  0.5167 -0.2950  0.6090
   32MOL0     C 4224   7.645   6.168   6.564 -0.1263 -0.0132 -0.1925
   32MOL0     C 4225   7.670   6.033   6.632 -0.4960  1.0118  0.2761
   32MOL0     C 4226   7.828   6.009   6.647  0.3819 -0.5161 -1.0703
   32MOL0     C 4227   7.841   5.862   6.693  0.1984 -0.5964  0.4506
   32MOL0     C 4228   7.869   5.768   6.581 -0.6069 -0.1652  0.0531
   32MOL0    Cl 4229   7.881   5.610   6.655 -0.3269  0.3392  0.1696
   32MOL0     C 4230   6.974   6.250   6.687 -0.5096 -0.3142  0.2423
   32MOL0     C 4231   6.835   6.266   6.709 -0.1877  0.6524 -0.0807
   32MOL0     O 4232   6.553   6.315   6.679 -0.4039  0.6127 -0.1300
   32MOL0     C 4233   6.394   6.252   6.999  0.2696  1.0887  0.0549
   32MOL0     C 4234   6.263   6.251   7.044  0.2549  0.3133 -0.0577
   32MOL0     N 4235   5.397   6.284   6.820  0.3423 -0.0311  0.0956
   32MOL0     N 4236   5.279   6.326   6.807  0.1055  0.4759 -0.0073
   32MOL0     C 4237   4.218   6.667   7.029 -0.1379  0.4250  0.1858
   32MOL0     C 4238   4.091   6.642   7.086 -0.0571  0.4591  0.2378
   32MOL0     C 4239   3.676   6.658   7.201  0.7656 -0.4507  0.6138
   32MOL0     C 4240   3.638   6.527   7.223 -0.0242  0.1501  0.4585
   32MOL0     C 4241   3.515   6.493   7.275 -0.6650 -0.1003 -0.4564
   32MOL0     C 4242   3.427   6.587   7.330  0.1579 -1.0181 -0.1664
   32MOL0     O 4243   3.303   6.566   7.392 -0.6386  0.3184  0.6251
   32MOL0     C 4244   3.272   6.427   7.423 -0.4057  0.2101  0.0972
   32MOL0     C 4245   3.145   6.425   7.516  0.0660  0.3335  0.3227
   32MOL0     C 4246   3.025   6.504   7.467 -0.5756 -0.4859  0.2888
   32MOL0     C 4247   2.897   6.503   7.556 -0.3180  0.1754  0.7939
   32MOL0     C 4248   2.925   6.522   7.696  0.6705 -0.0385 -0.8964
   32MOL0     C 4249   2.953   6.534   7.819 -0.4254  0.3498 -0.0272
   32MOL0     C 4250   3.464   6.721   7.309 -0.0395 -0.2835  0.1595
   32MOL0     C 4251   3.578   6.760   7.233  0.4074  0.6230 -0.1128
   32MOL0     C 4252   3.601   6.912   7.217 -0.1477  0.2358 -0.4693
   32MOL0     H 4253   3.891   6.638   6.822 -1.2640 -1.3009  1.4342
   32MOL0     H 4254   4.120   6.641   6.704  2.8294 -2.8891  0.3670
   32MOL0     H 4255   4.365   6.860   6.906  0.3633 -0.7069  1.0348
   32MOL0     H 4256   4.484   6.725   6.958 -1.2735 -1.7008  0.3261
   32MOL0     H 4257   4.564   6.914   6.805  1.1634  0.6675 -3.6988
   32MOL0     H 4258   4.453   6.831   6.686  0.5195 -0.8728 -0.3419
   32MOL0     H 4259   4.653   6.718   6.636 -1.0453 -1.1331 -0.0556
   32MOL0     H 4260   4.587   6.617   6.764 -0.2607 -0.2945 -1.4912
   32MOL0     H 4261   4.780   6.837   6.803 -2.3319  0.3614 -0.0231
   32MOL0     H 4262   4.750   6.711   6.919  2.3274  2.0172 -0.1243
   32MOL0     H 4263   4.875   6.535   6.784 -1.1105 -0.4927  2.0198
   32MOL0     H 4264   4.884   6.652   6.648 -0.4728  3.4647 -0.0254
   32MOL0     H 4265   5.018   6.796   6.744 -1.7288 -0.9101 -2.5010
   32MOL0     H 4266   5.009   6.732   6.911 -0.6618  2.0731 -0.6651
   32MOL0     H 4267   5.220   6.679   6.797  0.2241 -0.4613  1.8130
   32MOL0     H 4268   5.128   6.556   6.694  0.5027 -1.0971 -0.1331
   32MOL0     H 4269   5.127   6.539   6.995  3.2168 -0.5444  0.6450
   32MOL0     H 4270   5.057   6.428   6.894 -0.6185  1.4815  4.0866
   32MOL0     H 4271   5.414   6.544   7.015  1.4434 -0.4187 -0.4177
   32MOL0     H 4272   5.642   6.366   7.059  3.4827 -1.4204 -1.1974
   32MOL0     H 4273   5.609   6.223   6.983 -1.4287  0.5123  1.6477
   32MOL0     H 4274   5.717   6.287   6.786  0.5918 -0.4481  0.0933
   32MOL0     H 4275   5.691   6.461   6.823  0.3661 -0.7327 -1.6798
   32MOL0     H 4276   5.852   6.448   7.003  0.6126 -0.0011 -1.0554
   32MOL0     H 4277   5.931   6.404   6.848  0.3356 -0.4053  1.2722
   32MOL0     H 4278   5.920   6.177   6.877 -0.8543  3.1451 -2.0655
   32MOL0     H 4279   5.848   6.176   7.033  1.3777 -2.7778 -0.2700
   32MOL0     H 4280   6.086   6.246   6.762  0.4284 -0.2168 -1.6703
   32MOL0     H 4281   6.322   6.271   6.668 -1.7403 -0.4079  0.6528
   32MOL0     H 4282   6.814   6.146   7.021 -3.4298 -0.4381 -1.7182
   32MOL0     H 4283   7.066   6.114   6.985 -2.6061 -1.4073  1.8523
   32MOL0     H 4284   7.247   6.100   6.608  2.6959  0.9646 -1.9449
   32MOL0     H 4285   7.239   6.278   6.585 -0.9980  0.3125  0.1995
   32MOL0     H 4286   7.445   6.300   6.718  4.8390  0.0350 -0.7103
   32MOL0     H 4287   7.434   6.123   6.752 -1.7190  0.4923  1.0120
   32MOL0     H 4288   7.451   6.101   6.485  1.0973  1.8681 -2.8146
   32MOL0     H 4289   7.467   6.273   6.489  1.4052 -0.5979 -0.1833
   32MOL0     H 4290   7.687   6.247   6.628  1.0105 -2.2736  2.0381
   32MOL0     H 4291   7.685   6.168   6.463  0.1531  0.9563 -0.0952
   32MOL0     H 4292   7.634   5.953   6.566  1.7031  2.7859 -3.4130
   32MOL0     H 4293   7.628   6.026   6.732  1.3857  3.6811  1.3618
   32MOL0     H 4294   7.893   6.037   6.563  1.6482 -1.0316 -0.2925
   32MOL0     H 4295   7.855   6.078   6.727 -3.7614 -0.0070  0.0998
   32MOL0     H 4296   7.752   5.827   6.746 -1.6551  1.6125 -1.0350
   32MOL0     H 4297   7.924   5.852   6.763  0.0886  1.2246  0.8925
   32MOL0     H 4298   7.799   5.774   6.497  2.6275  1.2853 -2.7661
   32MOL0     H 4299   7.967   5.790   6.538 -1.4530  2.9413 -0.5784
   32MOL0     H 4300   7.025   6.292   6.601 -0.9702  0.4280  0.3318
   32MOL0     H 4301   6.771   6.297   6.628 -0.9240  1.6501  0.8542
   32MOL0     H 4302   6.466   6.244   7.079 -0.7873  1.3042  1.0481
   32MOL0     H 4303   6.251   6.230   7.150  0.9512 -0.5541 -0.1324
   32MOL0     H 4304   4.304   6.695   7.089  0.0360  2.1764 -0.8354
   32MOL0     H 4305   4.077   6.640   7.194  1.1537 -1.5337  0.4153
   32MOL0     H 4306   3.711   6.452   7.193 -1.4698 -1.5489  0.9681
   32MOL0     H 4307   3.496   6.387   7.286 -1.3629 -0.2778 -2.8398
   32MOL0     H 4308   3.352   6.369   7.469 -2.8903 -1.9930  1.9811
   32MOL0     H 4309   3.247   6.382   7.326  1.3692 -0.7866  0.0594
   32MOL0     H 4310   3.170   6.460   7.616  0.4989  2.2042 -0.3970
   32MOL0     H 4311   3.121   6.320   7.531  0.0587  0.6234  2.7737
   32MOL0     H 4312   2.989   6.463   7.373  2.6799  1.3475 -1.9443
   32MOL0     H 4313   3.054   6.608   7.447 -0.6002 -0.2996  1.1521
   32MOL0     H 4314   2.831   6.579   7.513 -0.7368 -0.7444 -0.2435
   32MOL0     H 4315   2.848   6.406   7.543  0.4982 -0.0365 -1.0941
   32MOL0     H 4316   2.952   6.559   7.924 -0.0803 -1.0361  0.3282
   32MOL0     H 4317   3.397   6.800   7.339  2.9077  2.4734  0.0191
   32MOL0     H 4318   3.666   6.942   7.300 -0.7814 -1.8557  0.8752
   32MOL0     H 4319   3.654   6.930   7.124 -0.2512 -0.2381 -0.6252
   32MOL0     H 4320   3.509   6.971   7.227  1.0000  2.2499 -1.3901
   33MOL0     O 4321   4.363  10.360   2.215  0.2033 -0.2332 -0.2904
   33MOL0     C 4322   4.269  10.419   2.278 -1.1368 -0.0575  0.5144
   33MOL0     O 4323   4.291  10.484   2.401 -0.1609 -0.3761 -0.2360
   33MOL0     C 4324   4.413  10.498   2.466 -0.4352  0.6854 -0.1503
   33MOL0     C 4325   4.415  10.506   2.602 -0.0198  0.8675  0.0736
   33MOL0     C 4326   4.537  10.529   2.669  0.2227  0.7156 -0.7065
   33MOL0     C 4327   4.660  10.550   2.600 -0.2563 -1.3392 -0.3409
   33MOL0     O 4328   4.781  10.588   2.668  0.3375  0.4434  0.5906
   33MOL0     C 4329   4.778  10.661   2.793  0.4555 -0.6226 -0.5170
   33MOL0     C 4330   4.880  10.594   2.890  0.3068 -0.4732 -0.9729
   33MOL0     C 4331   5.019  10.607   2.824 -0.3833 -0.1094  0.1794
   33MOL0     C 4332   5.114  10.576   2.934 -0.9374  0.7066 -0.3306
   33MOL0     C 4333   5.259  10.578   2.888 -0.1560  0.3149  0.0300
   33MOL0     C 4334   5.281  10.482   2.775 -0.1644  0.3482 -0.0456
   33MOL0     C 4335   5.428  10.464   2.735  0.8969 -0.5541  0.6680
   33MOL0     C 4336   5.499  10.587   2.682 -0.3715  0.5820 -0.2334
   33MOL0     N 4337   5.626  10.550   2.614  0.3101 -0.5475  0.6843
   33MOL0     C 4338   5.636  10.480   2.495  0.2061  0.7866  0.4338
   33MOL0     C 4339   5.764  10.465   2.467 -0.8363  0.1774 -0.5367
   33MOL0     C 4340   5.813  10.374   2.358  0.4729 -0.1638 -0.0752
   33MOL0     C 4341   5.963  10.399   2.325 -0.2022  0.4685 -0.4694
   33MOL0     C 4342   6.013  10.299   2.228  1.0755  0.2844 -0.2379
   33MOL0     C 4343   5.957  10.309   2.083 -0.0143 -0.5336 -0.0009
   33MOL0     O 4344   5.946  10.448   2.055 -0.2868  0.2256 -0.0848
   33MOL0     C 4345   6.046  10.530   2.016  0.4348 -0.1736  0.9568
   33MOL0     C 4346   6.180  10.486   1.992  0.4835 -0.3369  0.2179
   33MOL0     C 4347   6.272  10.572   1.943  0.0777  0.2586 -0.1120
   33MOL0     C 4348   6.230  10.703   1.908  0.1274  0.6320 -0.6913
   33MOL0     C 4349   6.347  10.788   1.866 -0.6620  0.7546 -0.0482
   33MOL0     O 4350   6.463  10.730   1.814 -0.2435  0.2147  0.0682
   33MOL0     C 4351   6.571  10.813   1.816  0.9982  0.4699  0.3913
   33MOL0     C 4352   6.646  10.805   1.703  0.1082 -0.0824  0.2275
   33MOL0     C 4353   6.773  10.869   1.695  0.3621 -0.5338  0.9424
   33MOL0     C 4354   6.813  10.959   1.787 -0.0460 -0.2359  0.1608
   33MOL0     O 4355   6.928  11.036   1.791 -0.2476 -0.4190 -0.8366
   33MOL0     C 4356   6.978  11.101   1.669 -0.1447 -0.1070 -1.0399
   33MOL0     C 4357   7.062  11.218   1.715  0.5656 -0.5713  0.1618
   33MOL0     C 4358   7.081  11.309   1.597 -0.7329  0.1441 -0.1996
   33MOL0     C 4359   7.228  11.380   1.590 -0.6233 -0.0992  0.6094
   33MOL0     C 4360   7.277  11.437   1.455  0.3351 -0.1218 -0.2781
   33MOL0     C 4361   7.427  11.474   1.456  0.7224 -0.7103  0.0702
   33MOL0     C 4362   7.462  11.529   1.329  0.2957 -0.4967  0.8388
   33MOL0     C 4363   7.607  11.556   1.313  0.3946  0.4159 -0.2676
   33MOL0    Cl 4364   7.644  11.658   1.180  0.2570 -0.0708  0.1910
   33MOL0     C 4365   6.726  10.974   1.900 -0.5751 -0.2348 -0.4298
   33MOL0     C 4366   6.610  10.903   1.920  0.1840 -0.1447  0.0726
   33MOL0     O 4367   6.323  10.906   1.888 -0.5745 -0.2821 -0.1973
   33MOL0     C 4368   6.098  10.750   1.931 -0.2762 -0.4421 -0.8349
   33MOL0     C 4369   6.004  10.663   1.993 -0.0950  0.0480  0.2926
   33MOL0     N 4370   5.839  10.539   2.562  0.6759 -0.1065 -0.2947
   33MOL0     N 4371   5.751  10.588   2.646 -0.0169 -0.9009  0.2384
   33MOL0     C 4372   4.654  10.549   2.459 -1.0027  0.3160 -0.1017
   33MOL0     C 4373   4.530  10.513   2.397 -0.3410  0.2752 -0.7181
   33MOL0     C 4374   4.135  10.443   2.218 -0.1527  0.3737 -0.0643
   33MOL0     C 4375   4.047  10.536   2.269 -0.1182 -0.3741 -0.5188
   33MOL0     C 4376   3.921  10.562   2.217 -1.4233 -0.5918  0.1220
   33MOL0     C 4377   3.878  10.487   2.109  0.4544  0.3131  0.1071
   33MOL0     O 4378   3.757  10.527   2.057 -0.3419  0.3366  0.5847
   33MOL0     C 4379   3.697  10.438   1.959  0.0156  0.1697 -0.3097
   33MOL0     C 4380   3.570  10.502   1.906  0.6475 -0.2779 -0.1229
   33MOL0     C 4381   3.529  10.431   1.775  1.1381 -0.5449 -0.1173
   33MOL0     C 4382   3.414  10.504   1.707  0.6240 -0.1140  0.1931
   33MOL0     C 4383   3.361  10.430   1.592 -0.7030  0.1853 -0.0866
   33MOL0     C 4384   3.317  10.379   1.500  0.5145 -0.0258  0.5764
   33MOL0     C 4385   3.962  10.386   2.059  0.0328 -0.0193 -0.1276
   33MOL0     C 4386   4.094  10.363   2.103  0.1758  0.0164 -0.3701
   33MOL0     C 4387   4.164  10.235   2.054  0.1746  0.3018 -0.9033
   33MOL0     H 4388   4.316  10.492   2.643  0.0288  1.1032  0.2697
   33MOL0     H 4389   4.539  10.531   2.777 -3.9217  2.8438 -0.4889
   33MOL0     H 4390   4.812  10.764   2.784 -0.0477 -0.0542  2.7734
   33MOL0     H 4391   4.687  10.665   2.853 -1.4670  2.3030 -3.3196
   33MOL0     H 4392   4.854  10.493   2.923 -0.5525  0.8943  3.1149
   33MOL0     H 4393   4.881  10.656   2.980  0.6235  1.1793 -2.0620
   33MOL0     H 4394   5.043  10.708   2.789  0.0441 -0.8640 -1.8261
   33MOL0     H 4395   5.026  10.544   2.735  2.7528  1.5618 -0.8952
   33MOL0     H 4396   5.101  10.639   3.023 -1.8648 -1.2329  0.9846
   33MOL0     H 4397   5.102  10.474   2.971 -0.7163  0.1732 -1.6703
   33MOL0     H 4398   5.297  10.676   2.861  0.6889  0.5716  1.9526
   33MOL0     H 4399   5.313  10.546   2.978  0.1086 -0.2815 -0.3365
   33MOL0     H 4400   5.242  10.384   2.805 -1.2401  1.0018  0.7758
   33MOL0     H 4401   5.220  10.515   2.691  0.9828  1.6837 -0.3895
   33MOL0     H 4402   5.431  10.394   2.651 -0.1692  0.6844 -0.4611
   33MOL0     H 4403   5.484  10.423   2.820 -2.2836 -1.1219  2.6396
   33MOL0     H 4404   5.430  10.629   2.608 -0.0206 -1.2591 -1.6734
   33MOL0     H 4405   5.520  10.659   2.762  2.2492  0.6962 -0.9343
   33MOL0     H 4406   5.561  10.425   2.438  0.5417 -0.1657  0.8925
   33MOL0     H 4407   5.806  10.272   2.397 -1.5945  0.2454  0.7438
   33MOL0     H 4408   5.749  10.381   2.269  2.8632  0.3678 -1.8608
   33MOL0     H 4409   5.968  10.499   2.280  0.9168  1.7727  2.3205
   33MOL0     H 4410   6.023  10.390   2.416  2.5332 -0.8109 -2.2742
   33MOL0     H 4411   5.992  10.201   2.272 -2.7556  0.1249 -2.0402
   33MOL0     H 4412   6.122  10.308   2.223  1.0573 -0.0039 -1.1956
   33MOL0     H 4413   5.852  10.278   2.077 -0.0254 -0.3438 -1.0661
   33MOL0     H 4414   6.016  10.248   2.014 -2.1025 -1.5521 -0.9767
   33MOL0     H 4415   6.212  10.383   2.009 -1.3686 -0.8226  0.9553
   33MOL0     H 4416   6.372  10.531   1.943 -0.2455 -0.7608 -2.5794
   33MOL0     H 4417   6.623  10.744   1.616 -1.8411  0.2761  0.4626
   33MOL0     H 4418   6.832  10.858   1.605  2.6705 -0.5391  2.3725
   33MOL0     H 4419   7.049  11.036   1.618 -0.8273  0.2308 -2.4526
   33MOL0     H 4420   6.904  11.133   1.595  1.0790  1.1262 -1.7774
   33MOL0     H 4421   7.014  11.281   1.791  0.8573  0.2246 -0.3035
   33MOL0     H 4422   7.157  11.187   1.759  0.3301  0.3824  1.4077
   33MOL0     H 4423   7.074  11.248   1.506  0.2905  2.6773 -2.0845
   33MOL0     H 4424   7.008  11.388   1.579 -0.6444  0.3667  0.4211
   33MOL0     H 4425   7.305  11.309   1.623  0.5545  0.0798 -1.5566
   33MOL0     H 4426   7.226  11.455   1.670  0.0508  0.2071  0.3484
   33MOL0     H 4427   7.216  11.523   1.425  0.6744  0.3501  0.3566
   33MOL0     H 4428   7.252  11.355   1.387 -1.4346  1.7314 -2.0163
   33MOL0     H 4429   7.445  11.554   1.529  0.5357  1.1349 -1.8091
   33MOL0     H 4430   7.491  11.387   1.473  2.3158 -0.1938 -2.7061
   33MOL0     H 4431   7.411  11.623   1.310 -1.5494 -1.3756  1.2231
   33MOL0     H 4432   7.424  11.457   1.256 -1.0139 -0.0536  1.0677
   33MOL0     H 4433   7.642  11.592   1.411 -2.1714 -0.9590  1.2825
   33MOL0     H 4434   7.648  11.457   1.296 -1.3014 -0.0805 -1.8086
   33MOL0     H 4435   6.754  11.038   1.982 -1.4469  0.5624 -0.7249
   33MOL0     H 4436   6.559  10.901   2.016 -1.6392 -1.8905 -0.8617
   33MOL0     H 4437   6.069  10.852   1.907 -0.6608 -0.1844  0.6606
   33MOL0     H 4438   5.903  10.698   2.009 -0.4247 -0.3858 -0.7762
   33MOL0     H 4439   4.741  10.561   2.395  0.5233  0.2257  1.8460
   33MOL0     H 4440   4.540  10.515   2.289  0.5708  2.5599 -0.6495
   33MOL0     H 4441   4.072  10.599   2.354 -0.1074  0.1881 -0.9317
   33MOL0     H 4442   3.853  10.633   2.262  0.7720 -0.5229  3.7256
   33MOL0     H 4443   3.676  10.340   2.002  1.7665 -0.4528 -0.7818
   33MOL0     H 4444   3.773  10.425   1.881  0.5157 -0.5328  0.2908
   33MOL0     H 4445   3.582  10.610   1.890 -1.9405 -0.1476 -1.7404
   33MOL0     H 4446   3.488  10.490   1.977 -1.2058 -0.4925 -2.1985
   33MOL0     H 4447   3.495  10.329   1.798 -1.5780  0.2380 -0.2703
   33MOL0     H 4448   3.618  10.430   1.712  0.8595  2.2571 -0.6874
   33MOL0     H 4449   3.334  10.528   1.778  2.9889  2.4033  2.2473
   33MOL0     H 4450   3.450  10.602   1.676 -1.1951  0.3294 -0.6671
   33MOL0     H 4451   3.262  10.331   1.422 -0.5425 -0.1882  1.4069
   33MOL0     H 4452   3.920  10.321   1.983 -0.7955  1.6284 -1.1383
   33MOL0     H 4453   4.095  10.183   1.986 -1.8862  1.8329 -0.0777
   33MOL0     H 4454   4.257  10.255   2.000  0.8118 -0.7928 -0.2343
   33MOL0     H 4455   4.176  10.163   2.135 -0.1712  1.6655  0.4148
   34MOL0     O 4456   5.077   0.647   0.808 -0.4364 -0.2866  0.0687
   34MOL0     C 4457   4.989   0.713   0.862  0.5467 -0.0021 -0.1340
   34MOL0     O 4458   5.006   0.838   0.911  0.1758 -0.5905  0.2296
   34MOL0     C 4459   5.132   0.875   0.936  0.4108  1.1404  0.2286
   34MOL0     C 4460   5.204   0.987   0.875  0.8169  0.3705 -0.4191
   34MOL0     C 4461   5.318   1.040   0.932 -0.4699  0.1959 -0.5638
   34MOL0     C 4462   5.372   0.977   1.051 -0.0627 -0.3241 -0.2172
   34MOL0     O 4463   5.488   1.020   1.109 -0.1130  0.0808  0.4375
   34MOL0     C 4464   5.566   1.111   1.024  0.2388 -0.2220 -0.2170
   34MOL0     C 4465   5.691   1.154   1.109  1.3532  0.1419  0.4415
   34MOL0     C 4466   5.802   1.193   1.016 -0.1846  0.2091 -0.5393
   34MOL0     C 4467   5.913   1.279   1.072  0.2683 -0.5550 -0.6964
   34MOL0     C 4468   6.014   1.307   0.961  0.3007 -0.1910  0.4946
   34MOL0     C 4469   6.109   1.414   1.014  0.5471 -0.3199  0.4253
   34MOL0     C 4470   6.210   1.456   0.908 -0.6463 -0.5854  0.6899
   34MOL0     C 4471   6.158   1.527   0.776 -0.1432 -0.0855 -0.6132
   34MOL0     N 4472   6.131   1.658   0.827  0.3929 -1.2069  0.6600
   34MOL0     C 4473   6.199   1.774   0.801 -0.4577 -0.1944 -0.1938
   34MOL0     C 4474   6.128   1.870   0.859 -0.2398  0.2258  0.0450
   34MOL0     C 4475   6.186   2.011   0.872  0.3026  0.1263 -0.2251
   34MOL0     C 4476   6.315   2.014   0.955 -0.1248  0.0780  0.0221
   34MOL0     C 4477   6.348   2.149   1.016 -0.3423 -0.4315 -0.0757
   34MOL0     C 4478   6.496   2.154   1.046 -0.2315 -0.7982  0.0862
   34MOL0     O 4479   6.571   2.194   0.932 -0.1290  0.0001  0.7351
   34MOL0     C 4480   6.701   2.158   0.933 -0.5347  0.4221 -0.3788
   34MOL0     C 4481   6.779   2.166   1.044  0.1090 -0.1593 -0.2056
   34MOL0     C 4482   6.918   2.167   1.034  0.0087  0.1570  0.6826
   34MOL0     C 4483   6.973   2.132   0.908  0.3392 -0.2947  0.8557
   34MOL0     C 4484   7.117   2.140   0.883 -0.5188 -0.2626  0.9084
   34MOL0     O 4485   7.165   2.069   0.773  0.2263 -0.0891  0.1346
   34MOL0     C 4486   7.297   2.035   0.757 -0.6582 -0.0115 -0.0826
   34MOL0     C 4487   7.401   2.041   0.857  0.7049 -0.2993  0.3660
   34MOL0     C 4488   7.533   2.026   0.814  0.1021  0.4305  0.1271
   34MOL0     C 4489   7.568   1.997   0.679 -0.2901  0.2271 -0.4498
   34MOL0     O 4490   7.704   1.989   0.653  0.2035  0.0343 -0.9031
   34MOL0     C 4491   7.754   1.934   0.528  1.0599  0.5289  0.4982
   34MOL0     C 4492   7.862   1.829   0.551 -0.4297  0.0449 -0.5532
   34MOL0     C 4493   7.990   1.910   0.608  1.5915  0.6680 -0.8139
   34MOL0     C 4494   8.090   1.804   0.647 -0.2292  0.6769 -1.0230
   34MOL0     C 4495   8.234   1.861   0.616 -0.1485  0.2975  0.2658
   34MOL0     C 4496   8.350   1.775   0.667 -0.4695 -0.4814  0.3483
   34MOL0     C 4497   8.480   1.843   0.627 -0.8295 -0.8118  0.3596
   34MOL0     C 4498   8.611   1.773   0.671  0.4143 -0.2311 -0.2517
   34MOL0    Cl 4499   8.651   1.615   0.581  0.1274 -0.0037  0.1937
   34MOL0     C 4500   7.465   1.996   0.581 -0.6579  0.0583 -0.4209
   34MOL0     C 4501   7.330   2.014   0.618  0.0841  0.3108 -0.3602
   34MOL0     O 4502   7.184   2.203   0.964  0.4237  0.4126 -0.4800
   34MOL0     C 4503   6.890   2.110   0.792  0.3511  0.2417 -0.0601
   34MOL0     C 4504   6.759   2.125   0.807 -0.3899 -0.1283  0.3519
   34MOL0     N 4505   6.008   1.815   0.904  0.1516  0.4294 -0.4126
   34MOL0     N 4506   6.004   1.692   0.871 -1.3067 -0.3319 -0.6325
   34MOL0     C 4507   5.305   0.865   1.103  0.0581  0.2404  0.1847
   34MOL0     C 4508   5.179   0.818   1.053 -0.2999 -0.1506 -0.1570
   34MOL0     C 4509   4.854   0.642   0.880 -0.2740  0.5173  0.6500
   34MOL0     C 4510   4.763   0.708   0.962 -0.2313  0.3029 -0.4000
   34MOL0     C 4511   4.640   0.656   1.005 -0.4123 -0.3025  0.6282
   34MOL0     C 4512   4.612   0.527   0.969  0.2737  0.1649  0.0996
   34MOL0     O 4513   4.492   0.469   1.016  0.2450  0.1132  0.0717
   34MOL0     C 4514   4.407   0.411   0.913 -0.6714 -0.3846 -0.4233
   34MOL0     C 4515   4.358   0.279   0.973 -0.2731 -0.8598  0.3305
   34MOL0     C 4516   4.232   0.230   0.884  0.1549 -0.2486 -0.4276
   34MOL0     C 4517   4.106   0.307   0.926 -0.6531  0.9744 -1.1007
   34MOL0     C 4518   3.991   0.255   0.852  0.6546  0.7209  1.1721
   34MOL0     C 4519   3.904   0.219   0.772 -0.0016 -0.2410 -0.1283
   34MOL0     C 4520   4.704   0.459   0.887  0.2428  0.5378 -0.7054
   34MOL0     C 4521   4.820   0.518   0.839 -0.0452  0.0054  0.5025
   34MOL0     C 4522   4.907   0.412   0.753 -0.6389  0.0587  0.7232
   34MOL0     H 4523   5.162   1.027   0.783  0.2137  1.2799  0.2258
   34MOL0     H 4524   5.371   1.122   0.884  0.3871  0.7057  1.1372
   34MOL0     H 4525   5.591   1.052   0.935 -1.6368  2.0757 -2.3886
   34MOL0     H 4526   5.512   1.198   0.987 -1.0453  0.6176  3.1862
   34MOL0     H 4527   5.729   1.073   1.172  1.4155  0.2762  0.5757
   34MOL0     H 4528   5.677   1.233   1.183  0.9730  2.2974 -1.7871
   34MOL0     H 4529   5.762   1.261   0.940  0.4782 -0.3424 -1.4033
   34MOL0     H 4530   5.848   1.108   0.964 -1.2023  0.3568 -1.7261
   34MOL0     H 4531   5.865   1.371   1.106  2.9708 -0.2834  2.9718
   34MOL0     H 4532   5.961   1.241   1.162  1.1589 -0.9999 -1.3367
   34MOL0     H 4533   6.078   1.221   0.937  1.6024  1.4564 -2.4739
   34MOL0     H 4534   5.959   1.353   0.879 -0.7971  0.1665  1.4082
   34MOL0     H 4535   6.062   1.506   1.050 -1.9479 -1.0318 -0.8414
   34MOL0     H 4536   6.167   1.380   1.100  1.5647  1.0926  0.3496
   34MOL0     H 4537   6.260   1.368   0.866 -2.3115 -1.4084  0.3913
   34MOL0     H 4538   6.279   1.523   0.961 -2.8578  1.3657  1.2212
   34MOL0     H 4539   6.242   1.539   0.706 -0.0655  0.2282 -0.4673
   34MOL0     H 4540   6.071   1.473   0.739 -0.4189  0.4362 -0.7429
   34MOL0     H 4541   6.294   1.773   0.749  1.3615  1.7894  2.7509
   34MOL0     H 4542   6.203   2.050   0.771 -1.4505 -0.4996 -0.7967
   34MOL0     H 4543   6.109   2.071   0.921 -1.3494 -1.9536 -0.1292
   34MOL0     H 4544   6.312   1.943   1.038  1.2227  1.8084  1.6515
   34MOL0     H 4545   6.399   1.981   0.893  0.3446 -0.9948  1.1829
   34MOL0     H 4546   6.289   2.159   1.107  1.9257 -0.8067  1.5139
   34MOL0     H 4547   6.326   2.227   0.942  2.2017  2.0733  1.5952
   34MOL0     H 4548   6.534   2.065   1.096  4.0879  1.5886  1.5781
   34MOL0     H 4549   6.512   2.228   1.125 -3.7463  0.3954 -0.1339
   34MOL0     H 4550   6.735   2.197   1.139 -0.1287 -1.6335  0.1824
   34MOL0     H 4551   6.976   2.199   1.120 -0.8388  3.0183  0.3005
   34MOL0     H 4552   7.390   2.069   0.961  0.3698 -0.5356  0.3977
   34MOL0     H 4553   7.619   2.033   0.881  0.1385  0.3707  0.0860
   34MOL0     H 4554   7.672   1.876   0.486 -0.8477  1.9671  2.0102
   34MOL0     H 4555   7.780   2.017   0.462 -2.4122  1.3380 -0.0338
   34MOL0     H 4556   7.830   1.765   0.634  1.2750  2.3817  2.0884
   34MOL0     H 4557   7.880   1.773   0.459  0.0135  0.0813 -0.4900
   34MOL0     H 4558   8.025   1.984   0.535 -0.5233  1.8451 -0.7035
   34MOL0     H 4559   7.961   1.959   0.701  0.1409 -0.9729 -0.3447
   34MOL0     H 4560   8.081   1.708   0.596 -0.5500  0.3890 -0.4284
   34MOL0     H 4561   8.087   1.780   0.754 -1.8293 -1.1037 -1.4259
   34MOL0     H 4562   8.233   1.964   0.652 -0.8636  2.3215 -4.6507
   34MOL0     H 4563   8.235   1.865   0.506 -1.5586 -2.3894  0.0452
   34MOL0     H 4564   8.337   1.756   0.774  0.4660  0.2385  0.5920
   34MOL0     H 4565   8.353   1.677   0.617 -1.9599 -0.6892  0.6115
   34MOL0     H 4566   8.481   1.942   0.674 -2.1126 -0.9726  0.7505
   34MOL0     H 4567   8.500   1.857   0.520  0.0241  0.7414  0.6819
   34MOL0     H 4568   8.693   1.840   0.644 -0.6102  0.1890 -2.5084
   34MOL0     H 4569   8.598   1.742   0.775 -3.2591 -1.3807 -0.9225
   34MOL0     H 4570   7.496   1.985   0.477  0.9910  1.7608 -0.1568
   34MOL0     H 4571   7.252   2.004   0.543  0.2691 -1.4885 -0.3559
   34MOL0     H 4572   6.928   2.082   0.694  0.1533 -0.7964  0.1486
   34MOL0     H 4573   6.696   2.123   0.718 -0.3509 -0.8389  0.3356
   34MOL0     H 4574   5.345   0.832   1.198 -0.8199  1.8802  1.1790
   34MOL0     H 4575   5.120   0.745   1.107  1.4373 -0.4886  1.3824
   34MOL0     H 4576   4.786   0.811   0.987  3.3283 -0.6024  0.5967
   34MOL0     H 4577   4.580   0.721   1.068  1.2932  1.5507  0.4598
   34MOL0     H 4578   4.457   0.382   0.820  0.9205 -2.0811  0.8874
   34MOL0     H 4579   4.319   0.475   0.896 -0.0839  0.7004  0.4850
   34MOL0     H 4580   4.342   0.291   1.080  2.0443  4.0369  0.4194
   34MOL0     H 4581   4.443   0.210   0.976  1.4634  1.0964 -1.0262
   34MOL0     H 4582   4.220   0.121   0.887  0.3592 -0.3516 -2.0961
   34MOL0     H 4583   4.261   0.251   0.780  1.2597  2.3501  0.3280
   34MOL0     H 4584   4.097   0.284   1.033 -0.2288 -1.0832 -1.4593
   34MOL0     H 4585   4.119   0.415   0.914  0.2230  0.7376 -2.4417
   34MOL0     H 4586   3.830   0.188   0.701 -2.6062  2.0065  1.4185
   34MOL0     H 4587   4.677   0.361   0.849  2.1903  0.0339 -0.9212
   34MOL0     H 4588   4.861   0.313   0.751 -0.1472 -0.1636  0.5098
   34MOL0     H 4589   4.925   0.452   0.652 -1.3526 -0.2335  0.4708
   34MOL0     H 4590   5.003   0.389   0.798 -1.0718 -0.1294  1.5605
   35MOL0     O 4591   5.470   1.773   6.602  0.2489 -0.0885  0.0513
   35MOL0     C 4592   5.382   1.847   6.569  0.7589 -0.0818  0.1694
   35MOL0     O 4593   5.401   1.978   6.530 -0.1490 -0.0956 -0.1152
   35MOL0     C 4594   5.525   2.025   6.489  0.3930 -0.2198  0.9413
   35MOL0     C 4595   5.552   2.032   6.354  0.2336  0.1077  0.0628
   35MOL0     C 4596   5.676   2.074   6.304 -0.4648 -0.4782  0.0656
   35MOL0     C 4597   5.778   2.119   6.393 -0.1228  0.8555  0.3085
   35MOL0     O 4598   5.890   2.165   6.333  0.1776  0.0053 -0.7691
   35MOL0     C 4599   6.004   2.189   6.408  0.1308  0.1063 -0.1808
   35MOL0     C 4600   6.138   2.209   6.327  0.1431  0.9235 -0.2656
   35MOL0     C 4601   6.253   2.212   6.419 -1.2665  0.3379  0.0063
   35MOL0     C 4602   6.381   2.243   6.336 -0.6884 -0.1908 -0.2891
   35MOL0     C 4603   6.495   2.292   6.418 -0.2013 -0.1766 -0.8270
   35MOL0     C 4604   6.629   2.308   6.333  0.4978 -0.3002 -0.7915
   35MOL0     C 4605   6.734   2.368   6.422 -0.5811 -0.4509  0.7322
   35MOL0     C 4606   6.867   2.346   6.360  0.0427  0.2826  0.0070
   35MOL0     N 4607   6.890   2.448   6.251  0.5522 -0.1354 -0.4278
   35MOL0     C 4608   7.014   2.452   6.186  0.0218  1.1179 -0.2968
   35MOL0     C 4609   7.006   2.543   6.090  0.0465  0.2884 -0.0217
   35MOL0     C 4610   7.118   2.603   6.001 -0.2058 -0.3843 -0.3669
   35MOL0     C 4611   7.266   2.594   6.037  0.7681 -0.2422 -1.0683
   35MOL0     C 4612   7.362   2.638   5.925  0.8166 -0.9440 -0.4410
   35MOL0     C 4613   7.509   2.660   5.955  0.6559 -0.0336  0.2655
   35MOL0     O 4614   7.560   2.530   5.990  0.1633  0.5901 -0.1995
   35MOL0     C 4615   7.694   2.514   6.014 -0.3207 -0.2767  0.1427
   35MOL0     C 4616   7.743   2.388   6.012  0.0219  0.0222 -0.9695
   35MOL0     C 4617   7.881   2.360   6.010  0.2179  0.0447  0.2057
   35MOL0     C 4618   7.973   2.462   6.003 -0.7560  0.0499  0.3174
   35MOL0     C 4619   8.116   2.425   5.983 -0.6898  0.5550 -0.0918
   35MOL0     O 4620   8.144   2.304   5.917  0.5263  0.0094  0.2030
   35MOL0     C 4621   8.275   2.275   5.928  0.1959 -0.3635  0.2671
   35MOL0     C 4622   8.363   2.307   5.821  0.0474 -0.5499  0.0814
   35MOL0     C 4623   8.498   2.263   5.828  0.2141  0.1810  0.6272
   35MOL0     C 4624   8.544   2.199   5.947  0.2717  0.1724  0.3095
   35MOL0     O 4625   8.671   2.152   5.973  0.1048  0.2011 -0.2075
   35MOL0     C 4626   8.784   2.223   5.917 -0.1037 -0.4546 -0.4757
   35MOL0     C 4627   8.916   2.213   6.000  0.6426  0.3637  0.1553
   35MOL0     C 4628   8.935   2.061   6.030  0.4310 -0.2805 -0.3119
   35MOL0     C 4629   8.938   1.968   5.906  0.1041  0.0354  0.1460
   35MOL0     C 4630   8.944   1.827   5.956 -0.1005 -0.3283 -0.4767
   35MOL0     C 4631   9.011   1.732   5.853 -0.6584  0.4945  1.4313
   35MOL0     C 4632   8.976   1.584   5.893 -0.9500 -0.9154  0.4134
   35MOL0     C 4633   9.054   1.477   5.820 -0.2070  0.5152 -0.6080
   35MOL0    Cl 4634   9.033   1.308   5.886 -0.0283  0.0826  0.1895
   35MOL0     C 4635   8.451   2.174   6.045 -0.1078  0.0272  0.0129
   35MOL0     C 4636   8.318   2.200   6.036  0.0099  0.4418  0.3603
   35MOL0     O 4637   8.201   2.508   6.028 -0.2583  0.7659 -0.0206
   35MOL0     C 4638   7.936   2.600   6.008  0.4824  0.1349  0.6507
   35MOL0     C 4639   7.794   2.622   6.012 -0.1345  0.3093 -0.1762
   35MOL0     N 4640   6.881   2.597   6.091 -0.6021  0.2217  0.3708
   35MOL0     N 4641   6.805   2.525   6.178 -0.2771  0.1871  0.1458
   35MOL0     C 4642   5.753   2.110   6.537  0.2219 -0.2385 -0.6037
   35MOL0     C 4643   5.632   2.050   6.578 -0.5427 -0.0688  0.8593
   35MOL0     C 4644   5.232   1.812   6.577 -0.0179 -0.2972 -0.2285
   35MOL0     C 4645   5.154   1.874   6.484 -0.0627  0.9085 -0.3143
   35MOL0     C 4646   5.022   1.831   6.475 -0.5743  0.0338  0.1762
   35MOL0     C 4647   4.969   1.730   6.550 -0.2254  0.7797  0.4303
   35MOL0     O 4648   4.839   1.682   6.552 -0.5675 -0.4820  0.0446
   35MOL0     C 4649   4.742   1.732   6.459  0.1432 -0.7507 -0.3579
   35MOL0     C 4650   4.684   1.860   6.507  0.7727  0.4661  0.2182
   35MOL0     C 4651   4.568   1.910   6.419  0.1237 -0.6194 -0.8303
   35MOL0     C 4652   4.551   2.060   6.434  0.0763 -0.0184  0.5082
   35MOL0     C 4653   4.535   2.093   6.573 -0.1736  0.5895 -0.2740
   35MOL0     C 4654   4.524   2.121   6.692 -0.5996 -0.1236 -0.0249
   35MOL0     C 4655   5.053   1.664   6.650  0.1055 -1.1589 -0.0743
   35MOL0     C 4656   5.192   1.701   6.652 -0.0336 -0.0192 -0.8497
   35MOL0     C 4657   5.277   1.630   6.750 -0.4892  0.6716 -0.7261
   35MOL0     H 4658   5.470   2.029   6.283  0.2130  2.8599 -0.1261
   35MOL0     H 4659   5.701   2.064   6.199  0.6654 -1.0350  0.3764
   35MOL0     H 4660   5.994   2.277   6.472 -0.0493 -1.2134  1.6992
   35MOL0     H 4661   6.020   2.107   6.479 -1.5568  1.9543  2.5137
   35MOL0     H 4662   6.141   2.304   6.272  0.8069  1.4288  0.6360
   35MOL0     H 4663   6.148   2.135   6.246  0.0024  1.6993 -1.0051
   35MOL0     H 4664   6.261   2.120   6.479 -1.3224 -1.8719 -3.0928
   35MOL0     H 4665   6.235   2.296   6.486 -5.8460  1.0715 -1.8007
   35MOL0     H 4666   6.424   2.158   6.282  1.0942  0.3258  0.2460
   35MOL0     H 4667   6.361   2.327   6.268 -0.7923 -0.9775 -1.2628
   35MOL0     H 4668   6.469   2.386   6.468 -2.3998 -2.0726  1.8667
   35MOL0     H 4669   6.514   2.218   6.496  0.0290  0.5491 -0.1838
   35MOL0     H 4670   6.644   2.212   6.284  0.5358 -1.7540  1.8822
   35MOL0     H 4671   6.613   2.383   6.256 -1.6320 -1.7798 -1.8738
   35MOL0     H 4672   6.737   2.320   6.520  1.0267  1.4736  1.7165
   35MOL0     H 4673   6.724   2.474   6.446  0.2649  0.1467 -1.3141
   35MOL0     H 4674   6.949   2.363   6.431  3.1359  3.0327 -3.7975
   35MOL0     H 4675   6.873   2.244   6.322  1.3737 -1.1108  3.5038
   35MOL0     H 4676   7.105   2.400   6.215  0.7386  1.4905 -1.7500
   35MOL0     H 4677   7.111   2.559   5.902 -0.6593 -2.8206  0.6773
   35MOL0     H 4678   7.102   2.711   5.995  1.9360  0.0076  0.2065
   35MOL0     H 4679   7.277   2.667   6.117 -2.1099 -0.1794 -0.6133
   35MOL0     H 4680   7.292   2.494   6.071  0.8780 -0.1719 -0.9487
   35MOL0     H 4681   7.336   2.738   5.891  1.1865 -0.3591  0.9426
   35MOL0     H 4682   7.346   2.566   5.844 -3.4671  0.5191 -1.1656
   35MOL0     H 4683   7.511   2.743   6.026  0.2594  0.9265 -0.8198
   35MOL0     H 4684   7.553   2.701   5.863  0.1463  0.7263  0.3497
   35MOL0     H 4685   7.680   2.303   5.987 -0.1772  0.1417 -0.8719
   35MOL0     H 4686   7.906   2.255   6.000  1.3474  0.0443  2.3331
   35MOL0     H 4687   8.329   2.359   5.732  1.9004  1.0770  0.2693
   35MOL0     H 4688   8.569   2.271   5.746 -1.1064 -3.1871 -1.0478
   35MOL0     H 4689   8.803   2.186   5.816  0.5185  3.4430 -1.9324
   35MOL0     H 4690   8.752   2.327   5.903 -2.7133 -0.6470  2.7675
   35MOL0     H 4691   9.004   2.250   5.945  0.3044  1.2467  0.1808
   35MOL0     H 4692   8.899   2.272   6.090 -1.0628  2.8988 -1.6796
   35MOL0     H 4693   9.031   2.051   6.081 -0.7173  1.8823  2.5235
   35MOL0     H 4694   8.859   2.034   6.104  0.9025  1.5099  0.8944
   35MOL0     H 4695   9.029   1.987   5.847  1.8299 -0.0247  2.6579
   35MOL0     H 4696   8.861   1.979   5.828  1.5204  0.1215 -1.3085
   35MOL0     H 4697   8.843   1.797   5.986 -1.3737  4.7907  1.3515
   35MOL0     H 4698   9.004   1.813   6.046 -0.6979 -1.8089 -0.2761
   35MOL0     H 4699   8.981   1.747   5.749  1.3555  2.8397  1.1049
   35MOL0     H 4700   9.119   1.749   5.850 -0.6329  0.2139 -1.9333
   35MOL0     H 4701   8.868   1.563   5.890 -1.2957  0.8329 -0.7225
   35MOL0     H 4702   9.006   1.567   5.997 -0.7668 -1.9913  0.1996
   35MOL0     H 4703   9.017   1.479   5.717 -0.1418 -0.1609 -0.6473
   35MOL0     H 4704   9.159   1.505   5.812 -0.1024  0.9541  1.6167
   35MOL0     H 4705   8.472   2.123   6.138  0.3237 -0.7766 -0.5144
   35MOL0     H 4706   8.249   2.174   6.116  1.4940 -0.7849  1.3092
   35MOL0     H 4707   7.996   2.690   5.998  0.8424 -0.1631  0.0554
   35MOL0     H 4708   7.758   2.724   6.008 -1.1107  0.0589  1.2347
   35MOL0     H 4709   5.834   2.134   6.605  0.6209 -0.9947 -0.8059
   35MOL0     H 4710   5.618   2.020   6.681  0.4138 -1.2261  0.6768
   35MOL0     H 4711   5.184   1.958   6.422 -0.4897  0.2606 -1.4373
   35MOL0     H 4712   4.963   1.868   6.392 -2.4780 -3.4638 -0.2118
   35MOL0     H 4713   4.663   1.657   6.454 -1.5542  0.7913  1.4433
   35MOL0     H 4714   4.778   1.743   6.357 -2.9313  0.5424 -1.4032
   35MOL0     H 4715   4.758   1.939   6.519 -2.6950  3.8043  1.8015
   35MOL0     H 4716   4.645   1.840   6.608 -1.2576  0.3004 -0.5537
   35MOL0     H 4717   4.472   1.861   6.436 -0.9465  1.3213 -0.9170
   35MOL0     H 4718   4.590   1.886   6.315 -0.4249  1.9678 -1.6258
   35MOL0     H 4719   4.630   2.119   6.386  0.1910 -0.3414  0.2932
   35MOL0     H 4720   4.454   2.087   6.392 -1.4426  0.7745  4.2006
   35MOL0     H 4721   4.503   2.138   6.795 -1.2511  1.8216 -0.4391
   35MOL0     H 4722   5.007   1.597   6.722 -0.3645  1.3100  2.0537
   35MOL0     H 4723   5.331   1.703   6.810 -1.6657  1.3327 -0.4368
   35MOL0     H 4724   5.224   1.572   6.826  1.5757  1.6855  1.6007
   35MOL0     H 4725   5.346   1.555   6.709 -0.2227  1.1359 -1.1356
   36MOL0     O 4726   4.993   7.868   4.529 -0.1434 -0.0049  0.8061
   36MOL0     C 4727   4.898   7.788   4.544  0.2734  0.8863  0.1471
   36MOL0     O 4728   4.903   7.680   4.625  0.7775 -0.5693  0.1123
   36MOL0     C 4729   4.977   7.688   4.741  0.0111 -0.2333 -1.1438
   36MOL0     C 4730   4.931   7.788   4.834 -0.0603  0.9353  0.2517
   36MOL0     C 4731   5.003   7.811   4.954 -0.5159  0.6192 -0.4502
   36MOL0     C 4732   5.120   7.736   4.984 -0.4240  0.3551  0.3679
   36MOL0     O 4733   5.202   7.731   5.092 -0.1845 -0.3949  0.2885
   36MOL0     C 4734   5.201   7.849   5.175  0.3528  0.8234 -0.0515
   36MOL0     C 4735   5.307   7.822   5.288 -0.4698  0.5248  0.3061
   36MOL0     C 4736   5.338   7.946   5.367  0.7157  0.3058  0.3693
   36MOL0     C 4737   5.419   8.047   5.290 -0.1373 -0.1332  0.3775
   36MOL0     C 4738   5.488   8.141   5.378 -1.0585 -0.0370 -0.2771
   36MOL0     C 4739   5.577   8.229   5.302 -0.0885  0.3781  0.4423
   36MOL0     C 4740   5.700   8.161   5.255  0.5190  0.5947  0.7720
   36MOL0     C 4741   5.807   8.253   5.194  0.4147 -0.2125 -0.4764
   36MOL0     N 4742   5.898   8.304   5.299  0.7947  0.4668  0.4842
   36MOL0     C 4743   6.001   8.227   5.353 -0.1560  0.2466  0.0459
   36MOL0     C 4744   6.059   8.315   5.445  0.6744 -0.6353 -0.3056
   36MOL0     C 4745   6.187   8.293   5.521  0.3018 -0.7440  0.9411
   36MOL0     C 4746   6.297   8.396   5.477 -0.9289 -1.3004 -0.4286
   36MOL0     C 4747   6.436   8.364   5.537  0.8842  0.1929  0.3803
   36MOL0     C 4748   6.534   8.478   5.510  0.2610 -0.0762 -0.3631
   36MOL0     O 4749   6.657   8.454   5.574  0.3986  0.7252  0.1450
   36MOL0     C 4750   6.769   8.530   5.542 -0.7936  0.0016 -0.1564
   36MOL0     C 4751   6.781   8.664   5.494 -0.7103 -0.2890 -0.1957
   36MOL0     C 4752   6.903   8.729   5.465 -0.5559  0.5772  0.3656
   36MOL0     C 4753   7.017   8.654   5.480  0.2879  0.0575  0.1329
   36MOL0     C 4754   7.143   8.734   5.467 -0.0302 -0.1528 -0.6756
   36MOL0     O 4755   7.130   8.875   5.470  0.0085 -0.1890  0.4505
   36MOL0     C 4756   7.250   8.939   5.504 -0.8738  0.4689 -0.2386
   36MOL0     C 4757   7.300   8.941   5.638  0.3649 -0.2158 -0.2761
   36MOL0     C 4758   7.411   9.024   5.654 -0.0935  0.8730 -0.4241
   36MOL0     C 4759   7.471   9.102   5.550 -1.2532  0.3414  1.2002
   36MOL0     O 4760   7.554   9.209   5.564 -0.4888 -1.1543 -0.2339
   36MOL0     C 4761   7.621   9.212   5.686  0.2205 -1.1418  0.3178
   36MOL0     C 4762   7.750   9.285   5.668  0.8600  0.0152  0.5938
   36MOL0     C 4763   7.725   9.435   5.674 -0.3666 -0.3058  0.8882
   36MOL0     C 4764   7.844   9.524   5.704 -1.0046 -0.2314 -0.4947
   36MOL0     C 4765   7.797   9.670   5.727  1.2662  0.0648  0.6244
   36MOL0     C 4766   7.911   9.757   5.765  0.6030  0.3594  0.5289
   36MOL0     C 4767   7.879   9.914   5.775 -0.8847  0.4321 -0.5354
   36MOL0     C 4768   7.799   9.957   5.901  1.0479 -0.2786  0.4516
   36MOL0    Cl 4769   7.717  10.110   5.859 -0.0964  0.2731 -0.2116
   36MOL0     C 4770   7.414   9.102   5.421  0.0450 -0.2818  0.0599
   36MOL0     C 4771   7.302   9.018   5.411 -0.4231 -0.5373  0.2322
   36MOL0     O 4772   7.248   8.671   5.487  0.7808  0.0319  0.0854
   36MOL0     C 4773   7.013   8.523   5.518  0.3033 -0.4322  0.4139
   36MOL0     C 4774   6.889   8.463   5.552 -0.5262  0.2337  0.6124
   36MOL0     N 4775   6.005   8.438   5.434 -0.2200  0.8854 -0.4951
   36MOL0     N 4776   5.902   8.426   5.357  0.3238 -0.1719  0.0526
   36MOL0     C 4777   5.160   7.638   4.887  0.1041  0.4814  0.4994
   36MOL0     C 4778   5.086   7.610   4.769 -0.1355 -0.2084  0.8820
   36MOL0     C 4779   4.775   7.809   4.467 -0.3519 -0.0985 -0.5347
   36MOL0     C 4780   4.664   7.719   4.480  0.1784 -0.1993 -0.3212
   36MOL0     C 4781   4.543   7.742   4.414  0.0470  0.4374 -0.8217
   36MOL0     C 4782   4.530   7.850   4.332 -0.8525 -0.1958  0.1336
   36MOL0     O 4783   4.423   7.889   4.257  0.5057  0.1581 -0.8367
   36MOL0     C 4784   4.303   7.811   4.271  1.0618  0.1292 -0.0639
   36MOL0     C 4785   4.195   7.852   4.173  0.0025 -0.0062 -0.4509
   36MOL0     C 4786   4.059   7.811   4.218  0.1719  0.0486  0.1024
   36MOL0     C 4787   3.950   7.884   4.132  0.4349  0.5701 -0.1197
   36MOL0     C 4788   3.819   7.816   4.134 -0.6306  0.4346 -0.4675
   36MOL0     C 4789   3.717   7.748   4.125 -0.2898  0.8472  0.6791
   36MOL0     C 4790   4.646   7.926   4.302  0.2095  0.4790  0.4993
   36MOL0     C 4791   4.771   7.909   4.364  0.4664  0.2759  0.4678
   36MOL0     C 4792   4.877   8.013   4.328  0.3644 -0.1915 -0.5206
   36MOL0     H 4793   4.839   7.839   4.807 -0.5436 -0.9248 -1.8696
   36MOL0     H 4794   4.971   7.887   5.024 -2.1178 -0.3301 -0.1179
   36MOL0     H 4795   5.234   7.934   5.115  2.1810 -0.8235 -1.4752
   36MOL0     H 4796   5.101   7.869   5.216  0.3196 -0.6085  0.6477
   36MOL0     H 4797   5.393   7.779   5.236 -1.2198  0.6755 -1.1003
   36MOL0     H 4798   5.262   7.748   5.356  1.2438  0.4566  1.4312
   36MOL0     H 4799   5.385   7.912   5.460 -0.0829 -1.4226  0.1789
   36MOL0     H 4800   5.245   7.996   5.394  0.5687 -0.3670  1.1375
   36MOL0     H 4801   5.496   7.994   5.233  0.3929 -0.4273  1.3509
   36MOL0     H 4802   5.367   8.096   5.207  2.2740  0.2686 -0.9683
   36MOL0     H 4803   5.411   8.209   5.417  0.2093  1.3532 -0.1100
   36MOL0     H 4804   5.536   8.097   5.466 -0.9544  1.3865  0.4121
   36MOL0     H 4805   5.517   8.269   5.219 -1.6093 -0.6973  0.9718
   36MOL0     H 4806   5.598   8.319   5.360  0.5059  0.1015  0.6608
   36MOL0     H 4807   5.668   8.095   5.174  3.7841  0.0629 -0.2148
   36MOL0     H 4808   5.736   8.092   5.332 -2.1325 -2.2655 -0.3288
   36MOL0     H 4809   5.867   8.200   5.119  1.0526 -0.5347  0.2473
   36MOL0     H 4810   5.762   8.345   5.156  3.5450  1.5860 -0.2287
   36MOL0     H 4811   6.033   8.125   5.334  1.9990  0.2722  2.8957
   36MOL0     H 4812   6.164   8.300   5.627  1.3132 -1.2465  1.2020
   36MOL0     H 4813   6.223   8.194   5.492 -1.2259 -0.3451 -3.1449
   36MOL0     H 4814   6.298   8.411   5.369  0.4809 -0.0853 -0.2773
   36MOL0     H 4815   6.267   8.491   5.520  0.9986 -0.7128 -0.2568
   36MOL0     H 4816   6.469   8.270   5.493 -1.0947 -0.7601  0.7892
   36MOL0     H 4817   6.426   8.338   5.643  1.1449 -1.7346 -0.0410
   36MOL0     H 4818   6.494   8.577   5.534 -2.6661 -0.9172 -1.2726
   36MOL0     H 4819   6.549   8.475   5.401  2.4065 -1.1674 -0.0872
   36MOL0     H 4820   6.691   8.722   5.475  0.6700  3.2135  2.7382
   36MOL0     H 4821   6.905   8.821   5.407  0.8332  1.2802  1.4621
   36MOL0     H 4822   7.253   8.880   5.714 -1.6447  0.3136 -1.0285
   36MOL0     H 4823   7.459   9.029   5.751  0.4984 -0.4469 -0.6317
   36MOL0     H 4824   7.559   9.256   5.765 -0.4147 -1.7394  0.1605
   36MOL0     H 4825   7.648   9.110   5.714 -0.3733 -1.4494 -0.1845
   36MOL0     H 4826   7.824   9.260   5.745  2.6326  1.3974 -0.5561
   36MOL0     H 4827   7.800   9.265   5.572 -1.0995  0.7337 -0.6355
   36MOL0     H 4828   7.675   9.460   5.580 -2.2696  0.8393  2.1271
   36MOL0     H 4829   7.656   9.459   5.756 -0.5180 -2.1553  1.3423
   36MOL0     H 4830   7.920   9.508   5.626  0.1028 -0.7977  0.6619
   36MOL0     H 4831   7.891   9.495   5.798  1.2265  1.7713 -0.8981
   36MOL0     H 4832   7.719   9.672   5.805  0.2551 -0.8669 -0.3186
   36MOL0     H 4833   7.747   9.712   5.640  1.7904  1.4179  0.9476
   36MOL0     H 4834   7.956   9.723   5.859  2.2601  0.9900 -0.0069
   36MOL0     H 4835   7.991   9.747   5.692  0.4035  0.7175  0.2610
   36MOL0     H 4836   7.821   9.951   5.690 -0.5463  0.0254 -0.9566
   36MOL0     H 4837   7.974   9.967   5.787 -0.4779 -0.3597 -0.1542
   36MOL0     H 4838   7.731   9.878   5.933  1.6405 -1.0049 -0.0510
   36MOL0     H 4839   7.861   9.986   5.986 -1.6454 -0.4915  2.6174
   36MOL0     H 4840   7.438   9.172   5.341 -3.4092 -0.1727 -1.0601
   36MOL0     H 4841   7.247   9.019   5.318  0.9609  0.8219 -0.6248
   36MOL0     H 4842   7.100   8.460   5.534  0.4383 -0.6970 -1.1444
   36MOL0     H 4843   6.875   8.360   5.582  2.7827  0.0940  2.0967
   36MOL0     H 4844   5.246   7.573   4.900 -0.7340 -0.2346  2.8517
   36MOL0     H 4845   5.116   7.534   4.697  0.2887  0.7379  0.0421
   36MOL0     H 4846   4.677   7.632   4.544 -0.3169 -1.5105 -1.9445
   36MOL0     H 4847   4.467   7.666   4.428  0.3809 -0.0556 -1.6217
   36MOL0     H 4848   4.273   7.814   4.376  1.5652 -0.7413  0.1093
   36MOL0     H 4849   4.334   7.708   4.252  0.4595 -0.5424  2.3107
   36MOL0     H 4850   4.218   7.813   4.074  1.4889 -0.2598 -0.0356
   36MOL0     H 4851   4.194   7.961   4.166  0.7044 -0.1000 -2.6566
   36MOL0     H 4852   4.049   7.835   4.325  1.1242  3.0717 -0.4086
   36MOL0     H 4853   4.047   7.704   4.200  0.2388 -0.1778  1.2871
   36MOL0     H 4854   3.940   7.986   4.171  2.3988  0.6656  0.2289
   36MOL0     H 4855   3.962   7.899   4.024 -2.0894  0.8240 -0.4233
   36MOL0     H 4856   3.638   7.678   4.110 -1.2431  1.5102  2.3482
   36MOL0     H 4857   4.649   7.996   4.218  2.2695 -3.2853 -2.9258
   36MOL0     H 4858   4.900   8.078   4.413  1.0585 -0.7319 -0.2897
   36MOL0     H 4859   4.966   7.961   4.293  3.7542  2.2169  3.6039
   36MOL0     H 4860   4.840   8.070   4.242 -0.5216 -0.5946 -0.4151
   37MOL0     O 4861   5.058   4.654   1.425 -0.5829 -0.1912 -0.9734
   37MOL0     C 4862   5.144   4.735   1.455  0.2985 -0.2914  0.3243
   37MOL0     O 4863   5.245   4.762   1.372  0.4642  0.1544 -0.6414
   37MOL0     C 4864   5.263   4.693   1.257  0.0145  0.0948 -0.0251
   37MOL0     C 4865   5.173   4.708   1.155 -0.5425 -0.0341 -0.2916
   37MOL0     C 4866   5.190   4.633   1.040 -0.4468 -0.4002  0.7710
   37MOL0     C 4867   5.292   4.535   1.026  0.3638  0.1508  0.0799
   37MOL0     O 4868   5.293   4.464   0.914  0.4681  0.1897  0.1134
   37MOL0     C 4869   5.379   4.355   0.883  0.1542 -0.4986 -0.7181
   37MOL0     C 4870   5.366   4.312   0.742  0.8356 -0.1318 -0.1593
   37MOL0     C 4871   5.453   4.194   0.719 -0.2838 -0.0162 -0.0667
   37MOL0     C 4872   5.440   4.153   0.577 -0.3597  0.1703  0.4776
   37MOL0     C 4873   5.543   4.044   0.529 -0.0697 -0.8367 -0.3730
   37MOL0     C 4874   5.692   4.098   0.528 -0.4210 -0.1244 -0.0126
   37MOL0     C 4875   5.711   4.235   0.466 -0.6781 -0.3121 -1.0459
   37MOL0     C 4876   5.857   4.258   0.447 -0.0644  0.6707 -0.7542
   37MOL0     N 4877   5.884   4.382   0.383  0.0711 -0.4679  1.0786
   37MOL0     C 4878   5.864   4.507   0.450 -0.3365 -0.9282 -0.0416
   37MOL0     C 4879   5.929   4.597   0.367  0.0649  0.5760  0.2115
   37MOL0     C 4880   5.913   4.740   0.389 -0.1720 -0.3013 -0.5803
   37MOL0     C 4881   6.052   4.804   0.389 -0.7679  0.0050  0.7271
   37MOL0     C 4882   6.065   4.954   0.421 -0.2909  0.2480 -0.6051
   37MOL0     C 4883   6.205   5.008   0.381  0.0608  0.5142 -0.0946
   37MOL0     O 4884   6.301   4.969   0.477 -0.5547  0.1129  0.5943
   37MOL0     C 4885   6.436   4.982   0.456 -0.6116  0.0355 -0.1244
   37MOL0     C 4886   6.481   5.038   0.334 -0.5060 -0.5847  0.9931
   37MOL0     C 4887   6.616   5.052   0.320  0.3073  0.4492 -0.0325
   37MOL0     C 4888   6.711   5.014   0.419 -1.0639 -0.1412  0.3338
   37MOL0     C 4889   6.864   5.033   0.393 -0.2704  0.7014 -0.0108
   37MOL0     O 4890   6.907   5.071   0.269  0.2108  0.3375 -0.4153
   37MOL0     C 4891   7.042   5.097   0.242  0.9688  0.2833 -0.0690
   37MOL0     C 4892   7.088   5.059   0.113 -0.1247 -0.0312 -0.1420
   37MOL0     C 4893   7.214   5.086   0.077 -0.6401  0.2862  0.4837
   37MOL0     C 4894   7.299   5.150   0.157  0.2632 -0.6785  0.8175
   37MOL0     O 4895   7.422   5.152   0.108  0.2745 -0.0961  0.6873
   37MOL0     C 4896   7.524   5.185   0.196 -0.1719 -0.3061  0.3003
   37MOL0     C 4897   7.651   5.165   0.111  0.4817 -0.1364 -0.0102
   37MOL0     C 4898   7.779   5.205   0.175  0.5204 -0.6776 -0.6656
   37MOL0     C 4899   7.899   5.240   0.086  0.2352  0.5684 -1.1733
   37MOL0     C 4900   8.022   5.258   0.175  0.0708  0.6840  0.1303
   37MOL0     C 4901   8.131   5.153   0.153 -0.6266  0.0655 -0.7597
   37MOL0     C 4902   8.223   5.143   0.274  0.3526 -0.7694  0.9594
   37MOL0     C 4903   8.357   5.076   0.241  0.3812 -0.2008 -0.0381
   37MOL0    Cl 4904   8.446   5.176   0.123 -0.1855  0.5016 -0.3082
   37MOL0     C 4905   7.255   5.205   0.282 -0.3288 -0.5715  0.4096
   37MOL0     C 4906   7.125   5.177   0.327 -0.5034  0.5740  0.0942
   37MOL0     O 4907   6.939   5.008   0.491  0.0961 -0.3084  0.8545
   37MOL0     C 4908   6.658   4.952   0.534  0.4222 -0.1633 -0.3228
   37MOL0     C 4909   6.523   4.949   0.552 -0.9559 -0.6276 -0.5996
   37MOL0     N 4910   5.986   4.541   0.253  0.6060  0.3106  0.1249
   37MOL0     N 4911   5.953   4.411   0.265 -0.1498 -0.5746 -0.1400
   37MOL0     C 4912   5.379   4.514   1.133 -0.9184  0.9870 -0.4501
   37MOL0     C 4913   5.364   4.602   1.250 -0.2215  0.3236  0.2995
   37MOL0     C 4914   5.132   4.815   1.580  0.1686  1.1518 -0.1049
   37MOL0     C 4915   5.226   4.924   1.598 -0.0895 -0.0325  0.0482
   37MOL0     C 4916   5.222   5.002   1.715 -0.5352 -0.2677 -0.1627
   37MOL0     C 4917   5.130   4.987   1.812  0.4492 -0.5027  0.9549
   37MOL0     O 4918   5.135   5.082   1.912 -0.4430  0.3503  0.2197
   37MOL0     C 4919   5.033   5.096   2.013  0.1174  0.2986  0.1939
   37MOL0     C 4920   4.911   5.170   1.959  0.2501 -0.3201 -0.0266
   37MOL0     C 4921   4.925   5.315   1.931  0.3491  0.1790 -0.0031
   37MOL0     C 4922   4.897   5.409   2.050  0.6477  1.0016  0.3634
   37MOL0     C 4923   4.922   5.545   2.009  0.5258 -0.8587 -0.2391
   37MOL0     C 4924   4.938   5.669   1.994 -0.4930  0.3022 -0.1603
   37MOL0     C 4925   5.032   4.887   1.793 -0.6297 -0.2503  0.4471
   37MOL0     C 4926   5.032   4.799   1.683  0.0925  0.7349 -0.2031
   37MOL0     C 4927   4.924   4.695   1.685  0.6838  0.1103 -0.2340
   37MOL0     H 4928   5.093   4.779   1.172 -1.3754 -0.8704 -0.6063
   37MOL0     H 4929   5.113   4.637   0.964  0.3574  2.0070 -0.0194
   37MOL0     H 4930   5.480   4.389   0.907 -0.0991 -0.9885  1.2571
   37MOL0     H 4931   5.362   4.274   0.955 -1.8794  0.2173 -0.3164
   37MOL0     H 4932   5.395   4.394   0.676  1.9531 -2.0048 -2.1349
   37MOL0     H 4933   5.261   4.290   0.722  0.7862  0.6208 -0.7465
   37MOL0     H 4934   5.416   4.108   0.776 -0.0497  0.4097  0.7357
   37MOL0     H 4935   5.553   4.225   0.751 -1.1185  0.2459  2.4818
   37MOL0     H 4936   5.339   4.117   0.556 -0.2237 -0.2170  0.4816
   37MOL0     H 4937   5.463   4.244   0.521  2.5207  1.2804  3.1306
   37MOL0     H 4938   5.522   3.954   0.588  0.1025  0.1316  1.2206
   37MOL0     H 4939   5.513   4.027   0.425  0.1605 -0.5344 -0.4896
   37MOL0     H 4940   5.732   4.102   0.630 -0.7435 -1.6018  0.1946
   37MOL0     H 4941   5.755   4.022   0.480  2.5971  1.6674  0.7918
   37MOL0     H 4942   5.662   4.308   0.531 -0.0127  2.1959 -3.1882
   37MOL0     H 4943   5.655   4.237   0.372  0.8803 -3.2017 -2.1510
   37MOL0     H 4944   5.909   4.255   0.543 -0.7284 -0.7532 -0.4085
   37MOL0     H 4945   5.889   4.175   0.383 -0.2412  1.4844 -1.9382
   37MOL0     H 4946   5.805   4.520   0.540 -0.5875  2.6315 -0.5789
   37MOL0     H 4947   5.844   4.784   0.316 -0.6588  0.7174  0.4750
   37MOL0     H 4948   5.867   4.761   0.486  0.3984 -0.0729 -0.3570
   37MOL0     H 4949   6.115   4.752   0.461 -1.4899 -1.0944  0.5890
   37MOL0     H 4950   6.092   4.789   0.288 -2.9344  0.0954 -0.1908
   37MOL0     H 4951   6.046   4.972   0.527  0.3647 -0.4152 -0.3657
   37MOL0     H 4952   5.996   5.011   0.359  1.4047 -0.0090 -2.8541
   37MOL0     H 4953   6.193   5.117   0.382 -2.3248  0.3259  2.0647
   37MOL0     H 4954   6.232   4.986   0.277  1.9916 -1.1349  0.6911
   37MOL0     H 4955   6.417   5.074   0.254  2.0817  2.1410 -0.0114
   37MOL0     H 4956   6.650   5.104   0.232  2.7791 -0.7211  0.1533
   37MOL0     H 4957   7.029   5.003   0.041  3.4549 -2.7485 -1.2673
   37MOL0     H 4958   7.242   5.059  -0.025 -0.3470  1.8786  0.1277
   37MOL0     H 4959   7.511   5.290   0.225 -1.3781 -0.5693  0.7828
   37MOL0     H 4960   7.527   5.118   0.283  0.4205 -0.7381 -0.0462
   37MOL0     H 4961   7.658   5.059   0.085 -0.3607 -0.0242 -0.7630
   37MOL0     H 4962   7.632   5.221   0.018 -1.0128  0.1311  0.4319
   37MOL0     H 4963   7.757   5.289   0.242  2.6145  0.1922 -0.9895
   37MOL0     H 4964   7.805   5.136   0.256 -1.1623 -0.3669  0.1817
   37MOL0     H 4965   7.872   5.339   0.048  0.1918  1.3331  0.7761
   37MOL0     H 4966   7.915   5.164   0.009 -0.6267 -0.5448 -0.2971
   37MOL0     H 4967   7.998   5.262   0.282 -2.3951  0.6682 -0.3543
   37MOL0     H 4968   8.061   5.356   0.146  1.6598  0.2187  0.6166
   37MOL0     H 4969   8.087   5.055   0.131  0.9587 -1.5860  2.6678
   37MOL0     H 4970   8.197   5.185   0.072  0.5672 -1.0375 -0.2512
   37MOL0     H 4971   8.165   5.089   0.349 -1.0300  0.4363  0.8207
   37MOL0     H 4972   8.246   5.240   0.320 -1.4302  1.0954 -1.7517
   37MOL0     H 4973   8.417   5.071   0.332 -0.0570  2.7735  0.5285
   37MOL0     H 4974   8.337   4.978   0.197 -0.4684  0.5928 -1.4898
   37MOL0     H 4975   7.327   5.254   0.345 -0.4352 -1.4802  1.2621
   37MOL0     H 4976   7.088   5.204   0.426  2.6166 -1.9109  2.1410
   37MOL0     H 4977   6.732   4.914   0.604  0.6281  0.9225  0.0575
   37MOL0     H 4978   6.496   4.904   0.647  0.9604  1.8715  1.2644
   37MOL0     H 4979   5.464   4.448   1.123 -0.7066  1.3371 -1.0006
   37MOL0     H 4980   5.428   4.579   1.335  0.1836 -0.2747 -0.1676
   37MOL0     H 4981   5.297   4.954   1.522  1.3004  0.0336  1.3156
   37MOL0     H 4982   5.278   5.095   1.715 -3.1953  1.4748  1.9935
   37MOL0     H 4983   5.070   5.143   2.105  0.8562  0.0590  0.0240
   37MOL0     H 4984   4.992   4.998   2.036 -0.5069  1.0262  2.4946
   37MOL0     H 4985   4.826   5.159   2.028  1.6277 -3.4488  1.3552
   37MOL0     H 4986   4.874   5.117   1.870  0.6800  0.6397 -0.7859
   37MOL0     H 4987   4.846   5.338   1.858 -3.2336 -1.3765  3.0524
   37MOL0     H 4988   5.023   5.332   1.885  0.1844  0.5064 -0.2447
   37MOL0     H 4989   4.789   5.399   2.065  0.5889 -0.8325 -0.9098
   37MOL0     H 4990   4.959   5.380   2.134 -3.0762 -1.4333  2.5598
   37MOL0     H 4991   4.933   5.772   1.964  0.6945  0.7971  1.2285
   37MOL0     H 4992   4.955   4.877   1.868 -0.4820 -3.3271  0.2947
   37MOL0     H 4993   4.970   4.598   1.703 -1.5860 -1.1379 -0.7592
   37MOL0     H 4994   4.849   4.716   1.761  2.0573  1.3670  0.8320
   37MOL0     H 4995   4.874   4.698   1.588 -0.3608  1.2915  0.3216
   38MOL0     O 4996   6.479   5.929   1.187  0.2146 -0.0761 -0.2629
   38MOL0     C 4997   6.441   5.954   1.300  0.1172 -0.4202 -1.0813
   38MOL0     O 4998   6.498   6.044   1.380 -0.3262 -0.3686  0.0993
   38MOL0     C 4999   6.603   6.126   1.343 -0.3709  0.3366  0.2901
   38MOL0     C 5000   6.614   6.181   1.209 -0.6183 -0.6504 -0.6494
   38MOL0     C 5001   6.719   6.275   1.175 -0.0473  0.4686  0.2622
   38MOL0     C 5002   6.808   6.300   1.279 -0.3880 -0.1868  0.2872
   38MOL0     O 5003   6.912   6.386   1.251 -0.8343  0.7237  0.8768
   38MOL0     C 5004   7.014   6.416   1.357  0.4531 -0.7379 -0.2353
   38MOL0     C 5005   7.121   6.508   1.305  0.4056  0.5539 -0.8483
   38MOL0     C 5006   7.075   6.624   1.224 -0.0193  0.3292 -0.5741
   38MOL0     C 5007   7.199   6.706   1.177  0.0912 -0.5738  0.1146
   38MOL0     C 5008   7.318   6.713   1.270 -0.8086 -0.9164 -0.6708
   38MOL0     C 5009   7.436   6.806   1.205  0.1502 -0.7181 -0.5686
   38MOL0     C 5010   7.506   6.887   1.312  0.3181 -0.0892 -1.4267
   38MOL0     C 5011   7.620   6.960   1.250  0.1316 -0.0754 -0.7596
   38MOL0     N 5012   7.723   6.879   1.198 -0.4290 -0.0043  0.5125
   38MOL0     C 5013   7.804   6.789   1.270 -0.4774  0.7774  0.2692
   38MOL0     C 5014   7.917   6.778   1.193  0.4605  0.8899 -0.1817
   38MOL0     C 5015   8.036   6.684   1.207  0.6961  0.1532  1.0512
   38MOL0     C 5016   8.164   6.759   1.174 -0.1280  0.3861  0.3519
   38MOL0     C 5017   8.282   6.677   1.234  0.2247 -0.0490 -0.6152
   38MOL0     C 5018   8.417   6.741   1.200 -0.1398  0.2778 -0.3350
   38MOL0     O 5019   8.480   6.799   1.322 -0.0836 -0.6544  0.4505
   38MOL0     C 5020   8.608   6.768   1.328 -0.2403  0.8001 -0.0450
   38MOL0     C 5021   8.698   6.831   1.249 -0.5894  0.1496  1.0212
   38MOL0     C 5022   8.833   6.789   1.257 -0.3161 -0.4759  0.4641
   38MOL0     C 5023   8.876   6.686   1.351 -0.7690  0.7499  0.4248
   38MOL0     C 5024   9.017   6.642   1.356 -0.5384  0.2084 -0.1677
   38MOL0     O 5025   9.050   6.552   1.453  0.2673  0.0878  0.3843
   38MOL0     C 5026   9.180   6.514   1.469 -0.6362  0.6634 -0.0505
   38MOL0     C 5027   9.299   6.580   1.418  0.1499 -0.2205 -0.2209
   38MOL0     C 5028   9.420   6.514   1.446  0.0886  0.0286 -0.4705
   38MOL0     C 5029   9.426   6.379   1.505  0.6059  0.1470  0.0690
   38MOL0     O 5030   9.550   6.318   1.528  0.1334  0.5927  0.6863
   38MOL0     C 5031   9.648   6.391   1.605  0.6603  0.5572  0.2467
   38MOL0     C 5032   9.786   6.323   1.597  0.5269  0.3594  0.0867
   38MOL0     C 5033   9.832   6.312   1.441 -0.1674 -0.2795 -0.3059
   38MOL0     C 5034   9.970   6.250   1.423  0.2320  0.6195 -1.0024
   38MOL0     C 5035  10.022   6.263   1.273 -0.2588  0.4169 -0.3659
   38MOL0     C 5036  10.169   6.228   1.262  0.6169 -1.1218 -0.1399
   38MOL0     C 5037  10.234   6.263   1.132 -0.2232 -0.0879 -0.5391
   38MOL0     C 5038  10.370   6.195   1.099  0.5149  0.0545  0.3586
   38MOL0    Cl 5039  10.417   6.216   0.929 -0.2116 -0.0522  0.1314
   38MOL0     C 5040   9.309   6.317   1.547  0.3968  0.0846 -0.3034
   38MOL0     C 5041   9.187   6.383   1.520 -0.0886  1.6094  0.6708
   38MOL0     O 5042   9.084   6.676   1.264 -0.0508  0.9665  0.2740
   38MOL0     C 5043   8.778   6.636   1.437  0.3490  0.1397  0.9403
   38MOL0     C 5044   8.640   6.673   1.429 -0.9385 -0.2514  0.0042
   38MOL0     N 5045   7.902   6.858   1.078  0.2853  0.4057  0.0411
   38MOL0     N 5046   7.786   6.916   1.082  0.5662  0.1664 -0.1072
   38MOL0     C 5047   6.796   6.244   1.403  0.4409 -0.8667  0.1887
   38MOL0     C 5048   6.699   6.154   1.436 -0.0566 -0.0151  0.3212
   38MOL0     C 5049   6.322   5.877   1.366  0.4730 -0.3314  0.2918
   38MOL0     C 5050   6.234   5.809   1.276  0.2619  0.1312  1.0293
   38MOL0     C 5051   6.133   5.718   1.318  0.7706 -0.4317  0.3311
   38MOL0     C 5052   6.098   5.718   1.456  0.2923 -0.8151  0.5596
   38MOL0     O 5053   5.994   5.653   1.509  0.2381 -0.1423  0.4403
   38MOL0     C 5054   5.909   5.565   1.439  0.0031 -0.1527  0.6081
   38MOL0     C 5055   5.831   5.501   1.556  0.0442 -0.3897  0.2747
   38MOL0     C 5056   5.734   5.386   1.522 -0.1949 -0.4813 -1.1081
   38MOL0     C 5057   5.807   5.257   1.476  0.5706  0.1026 -0.0158
   38MOL0     C 5058   5.735   5.136   1.523  0.5172  0.2817  0.0410
   38MOL0     C 5059   5.667   5.048   1.567 -0.3226 -0.1508  0.0326
   38MOL0     C 5060   6.169   5.800   1.539 -1.0153  0.0273 -0.1805
   38MOL0     C 5061   6.286   5.869   1.507  0.0719 -0.0795  0.7909
   38MOL0     C 5062   6.365   5.937   1.617 -0.2865 -0.3676 -0.5847
   38MOL0     H 5063   6.537   6.156   1.137 -3.4706  1.3299  1.4624
   38MOL0     H 5064   6.736   6.304   1.072 -1.3915  0.1167 -0.0773
   38MOL0     H 5065   6.962   6.469   1.438 -1.3363  0.0835 -1.8402
   38MOL0     H 5066   7.059   6.324   1.395  3.2055  1.8482  3.6026
   38MOL0     H 5067   7.181   6.445   1.239 -0.8674 -0.0120 -1.5102
   38MOL0     H 5068   7.173   6.543   1.394  2.2811  3.6463 -2.9519
   38MOL0     H 5069   7.001   6.682   1.280  1.5442  0.7573  1.1202
   38MOL0     H 5070   7.038   6.587   1.128 -0.6464  3.0074 -1.4431
   38MOL0     H 5071   7.229   6.674   1.077  0.5317  0.9945 -0.2936
   38MOL0     H 5072   7.168   6.809   1.154  1.9059 -0.5170 -2.4738
   38MOL0     H 5073   7.278   6.778   1.349 -1.1625  0.7950 -2.1970
   38MOL0     H 5074   7.353   6.618   1.311 -1.4314 -2.1662 -2.9179
   38MOL0     H 5075   7.506   6.738   1.154  2.4734 -0.2539  1.7704
   38MOL0     H 5076   7.392   6.877   1.135 -0.2075 -2.4497 -2.1802
   38MOL0     H 5077   7.549   6.823   1.390  0.2035  1.3640 -0.1147
   38MOL0     H 5078   7.432   6.955   1.355  1.3967 -0.0062  0.4203
   38MOL0     H 5079   7.597   7.027   1.166 -0.1123 -1.6472 -1.9911
   38MOL0     H 5080   7.661   7.034   1.320 -0.7678 -1.0043  0.7979
   38MOL0     H 5081   7.799   6.737   1.365  3.7017  0.5443  0.5541
   38MOL0     H 5082   8.035   6.654   1.312  0.3339 -3.2444  0.1677
   38MOL0     H 5083   8.021   6.595   1.146 -0.1421 -0.1888  1.7302
   38MOL0     H 5084   8.179   6.776   1.066  2.2625 -0.7370  0.4255
   38MOL0     H 5085   8.165   6.860   1.216 -1.6125  0.5086  0.1235
   38MOL0     H 5086   8.289   6.574   1.199 -1.3156 -0.6127  0.6386
   38MOL0     H 5087   8.264   6.673   1.342 -1.7082  1.9184 -0.7761
   38MOL0     H 5088   8.411   6.821   1.126 -0.1896  1.3788  0.8080
   38MOL0     H 5089   8.488   6.670   1.157 -2.0163 -1.4863 -0.6758
   38MOL0     H 5090   8.674   6.911   1.180  1.8560  0.5510  0.5437
   38MOL0     H 5091   8.918   6.829   1.202 -0.0694 -0.3981  0.8962
   38MOL0     H 5092   9.302   6.672   1.361 -0.5604  0.6448  1.0695
   38MOL0     H 5093   9.518   6.558   1.429 -0.1976  1.6227  1.6428
   38MOL0     H 5094   9.655   6.495   1.572  1.9041  0.3417 -0.2063
   38MOL0     H 5095   9.620   6.384   1.711  0.3093 -1.2270  0.0665
   38MOL0     H 5096   9.864   6.385   1.643  0.8014 -1.1454  1.7387
   38MOL0     H 5097   9.800   6.227   1.647  2.0546 -0.0023 -0.9314
   38MOL0     H 5098   9.763   6.241   1.393  0.4263 -1.5085  0.6169
   38MOL0     H 5099   9.830   6.411   1.395 -2.0173  0.0968  0.4790
   38MOL0     H 5100   9.959   6.145   1.452 -0.0786  0.4415 -1.7362
   38MOL0     H 5101  10.042   6.299   1.489 -1.4208  0.2526  1.2154
   38MOL0     H 5102   9.996   6.359   1.228  0.7963  0.1631 -1.5845
   38MOL0     H 5103   9.964   6.194   1.211  0.0123  0.0513 -0.2204
   38MOL0     H 5104  10.214   6.291   1.338 -0.3820 -1.2649  0.5837
   38MOL0     H 5105  10.183   6.124   1.293 -2.5440 -1.7389 -0.4608
   38MOL0     H 5106  10.245   6.371   1.139 -0.1433 -0.1983  1.6477
   38MOL0     H 5107  10.164   6.249   1.049  0.2215  0.2336 -0.9738
   38MOL0     H 5108  10.450   6.243   1.157  0.1661 -0.5827  1.3939
   38MOL0     H 5109  10.368   6.088   1.119 -1.1193  0.0191  0.1494
   38MOL0     H 5110   9.299   6.215   1.585 -2.2899  0.1863 -0.5313
   38MOL0     H 5111   9.096   6.334   1.554 -1.5497  1.9750 -2.3796
   38MOL0     H 5112   8.802   6.565   1.516  3.3567  1.6847  1.5956
   38MOL0     H 5113   8.570   6.622   1.494 -0.7533 -1.6503 -0.8628
   38MOL0     H 5114   6.867   6.264   1.483 -0.3814  2.3807  0.2093
   38MOL0     H 5115   6.707   6.106   1.533  2.6352  0.8886  0.6277
   38MOL0     H 5116   6.243   5.821   1.168 -3.0562  0.0735  0.6417
   38MOL0     H 5117   6.064   5.666   1.252 -0.0626 -0.1879  0.9862
   38MOL0     H 5118   5.953   5.486   1.378  0.0604  1.7263 -1.9718
   38MOL0     H 5119   5.849   5.623   1.369  0.0935  1.0821  1.5176
   38MOL0     H 5120   5.783   5.586   1.607 -0.4374 -0.8797  0.6607
   38MOL0     H 5121   5.911   5.456   1.615  2.0968  0.4481 -1.7613
   38MOL0     H 5122   5.661   5.426   1.450 -2.4257 -0.1611  1.2139
   38MOL0     H 5123   5.683   5.352   1.612  1.5298 -0.3932 -0.0706
   38MOL0     H 5124   5.793   5.264   1.368 -2.5225  2.5020  0.3876
   38MOL0     H 5125   5.910   5.250   1.511  0.3755  0.4342  0.6422
   38MOL0     H 5126   5.605   4.981   1.623 -1.3637  2.7947  2.7084
   38MOL0     H 5127   6.149   5.794   1.645  0.4100 -0.8968  0.0579
   38MOL0     H 5128   6.303   5.944   1.707 -1.5821 -1.3281 -1.3770
   38MOL0     H 5129   6.459   5.885   1.641  0.7774  2.9267  3.6900
   38MOL0     H 5130   6.393   6.040   1.592 -0.9908 -0.0886 -0.2386
   39MOL0     O 5131   2.358   2.758   3.661 -0.6230  0.2752 -0.6358
   39MOL0     C 5132   2.294   2.656   3.634 -0.5560 -0.2600  0.4510
   39MOL0     O 5133   2.346   2.537   3.596 -0.3192  0.6692  0.4086
   39MOL0     C 5134   2.481   2.500   3.607  0.3109 -0.5063 -1.2331
   39MOL0     C 5135   2.555   2.535   3.721 -0.5222 -0.6264 -0.2098
   39MOL0     C 5136   2.686   2.495   3.725 -0.0595 -0.3249  0.6342
   39MOL0     C 5137   2.743   2.410   3.626  0.9895 -0.2482  0.0177
   39MOL0     O 5138   2.873   2.378   3.655  0.5611  0.5939 -0.0181
   39MOL0     C 5139   2.940   2.288   3.563  0.5645  0.7746 -0.5089
   39MOL0     C 5140   3.077   2.262   3.620  0.2065 -0.5257  0.3841
   39MOL0     C 5141   3.149   2.403   3.627 -0.0476  0.4140  0.1929
   39MOL0     C 5142   3.291   2.371   3.677 -1.0213  0.5741 -0.6309
   39MOL0     C 5143   3.376   2.493   3.656 -0.0037  0.5169 -0.1615
   39MOL0     C 5144   3.517   2.458   3.683 -0.4952  0.1187  0.7168
   39MOL0     C 5145   3.606   2.576   3.655 -0.8050 -0.7385  1.0606
   39MOL0     C 5146   3.744   2.533   3.701  0.5379 -0.0385 -0.9150
   39MOL0     N 5147   3.799   2.429   3.615  0.0306 -0.2568  0.5622
   39MOL0     C 5148   3.876   2.447   3.506  0.0243  0.1770  1.3321
   39MOL0     C 5149   3.905   2.316   3.461  0.0278 -0.3373 -0.9250
   39MOL0     C 5150   3.978   2.271   3.335  0.9173  0.2924  0.4755
   39MOL0     C 5151   4.129   2.254   3.345 -0.0267  0.3672  0.4477
   39MOL0     C 5152   4.194   2.202   3.205 -0.3080  0.3902 -0.1816
   39MOL0     C 5153   4.346   2.178   3.207  0.0584 -0.4510 -0.3563
   39MOL0     O 5154   4.401   2.074   3.126  0.1272  0.3859 -0.5357
   39MOL0     C 5155   4.527   2.021   3.155  0.5697  0.0631 -0.7671
   39MOL0     C 5156   4.567   1.899   3.108  0.2500  0.0404  0.9643
   39MOL0     C 5157   4.690   1.841   3.137 -0.5299 -0.3771  0.5045
   39MOL0     C 5158   4.778   1.915   3.215 -0.0785  0.5430 -0.1196
   39MOL0     C 5159   4.908   1.850   3.244  0.9597 -0.9653  0.4207
   39MOL0     O 5160   5.016   1.929   3.242 -0.6968 -0.5502 -0.8045
   39MOL0     C 5161   5.128   1.896   3.312  0.6025  0.8797  0.5374
   39MOL0     C 5162   5.208   1.782   3.288  0.2466 -0.0653  0.4407
   39MOL0     C 5163   5.319   1.748   3.365  0.2665  0.0974 -0.0664
   39MOL0     C 5164   5.345   1.831   3.478  0.9507  1.0319 -0.5019
   39MOL0     O 5165   5.442   1.778   3.553 -0.4859 -0.4046  0.1099
   39MOL0     C 5166   5.512   1.862   3.642 -0.4945 -0.6619 -0.5520
   39MOL0     C 5167   5.663   1.846   3.642 -0.1690  1.2006  0.0954
   39MOL0     C 5168   5.716   1.696   3.659  0.8519  0.5195 -0.2338
   39MOL0     C 5169   5.860   1.676   3.617  0.0376 -0.8898 -0.1772
   39MOL0     C 5170   5.916   1.533   3.668 -0.2834  0.8175 -0.0445
   39MOL0     C 5171   5.955   1.519   3.814  0.4364  0.4491 -0.3268
   39MOL0     C 5172   6.010   1.382   3.835  0.1213  0.3237 -0.2240
   39MOL0     C 5173   6.096   1.375   3.965  0.3087 -0.4998  0.1696
   39MOL0    Cl 5174   5.987   1.428   4.094  0.4129 -0.2497 -0.3530
   39MOL0     C 5175   5.261   1.948   3.507 -0.3692  0.2163 -1.0235
   39MOL0     C 5176   5.160   1.974   3.421 -0.4636 -0.6505  0.5683
   39MOL0     O 5177   4.910   1.734   3.274  0.0218 -0.1343 -0.2740
   39MOL0     C 5178   4.749   2.043   3.253 -0.0845 -0.0785 -0.9285
   39MOL0     C 5179   4.623   2.101   3.222  0.2239 -0.0088 -0.0974
   39MOL0     N 5180   3.860   2.230   3.559 -0.1233  0.5640 -0.0601
   39MOL0     N 5181   3.804   2.300   3.653 -0.8193  1.1678  0.4151
   39MOL0     C 5182   2.662   2.371   3.518  0.3895 -0.1243 -0.1958
   39MOL0     C 5183   2.527   2.407   3.513  0.8723 -0.0950 -0.5233
   39MOL0     C 5184   2.151   2.680   3.636  0.4326  0.1392 -0.0633
   39MOL0     C 5185   2.070   2.570   3.686 -0.7486 -0.3077  0.1067
   39MOL0     C 5186   1.933   2.572   3.679 -0.1492  0.1756 -0.2324
   39MOL0     C 5187   1.864   2.662   3.613 -0.0504  0.6820 -1.4341
   39MOL0     O 5188   1.725   2.655   3.618  0.3450  0.4904  0.4582
   39MOL0     C 5189   1.650   2.714   3.513  0.3661 -0.3948  0.5026
   39MOL0     C 5190   1.510   2.672   3.518 -0.2121  1.3805 -0.7636
   39MOL0     C 5191   1.446   2.715   3.646 -0.3017  0.2484 -0.3578
   39MOL0     C 5192   1.295   2.679   3.645  0.4982 -0.1055  0.1382
   39MOL0     C 5193   1.235   2.717   3.770  0.6433  1.0326  0.1671
   39MOL0     C 5194   1.189   2.752   3.878 -0.6781  0.6472  0.1741
   39MOL0     C 5195   1.935   2.773   3.565  0.0339  1.0180  0.4103
   39MOL0     C 5196   2.079   2.787   3.577  0.0797  0.6267  0.0754
   39MOL0     C 5197   2.146   2.899   3.494  0.0615 -0.5332 -0.2277
   39MOL0     H 5198   2.526   2.588   3.811 -1.1836 -0.7582 -0.3394
   39MOL0     H 5199   2.760   2.520   3.801  1.0206  2.6535 -1.2118
   39MOL0     H 5200   2.889   2.192   3.572 -2.4150  2.3603  1.0795
   39MOL0     H 5201   2.930   2.334   3.465 -0.6723  0.0837 -0.7193
   39MOL0     H 5202   3.138   2.202   3.553  0.0764 -2.4768  1.9287
   39MOL0     H 5203   3.077   2.218   3.720 -0.5406 -1.3830  0.0219
   39MOL0     H 5204   3.111   2.487   3.686  0.5357 -0.0400  1.2392
   39MOL0     H 5205   3.149   2.446   3.526 -0.2750 -0.4935 -0.2067
   39MOL0     H 5206   3.281   2.356   3.785  1.9451 -1.0241 -0.4653
   39MOL0     H 5207   3.331   2.280   3.631  1.5462  2.0116 -1.4709
   39MOL0     H 5208   3.370   2.523   3.551 -0.5285  1.9833  0.2720
   39MOL0     H 5209   3.342   2.570   3.726 -0.6283 -0.7750  1.0101
   39MOL0     H 5210   3.521   2.427   3.788 -2.5474 -3.6124 -0.1143
   39MOL0     H 5211   3.545   2.373   3.619 -1.3975 -0.0859  0.5830
   39MOL0     H 5212   3.570   2.665   3.708  1.2228  3.0202 -3.1995
   39MOL0     H 5213   3.600   2.614   3.553  0.1609 -1.3643  0.7472
   39MOL0     H 5214   3.816   2.614   3.690  2.2645 -1.5736 -1.5684
   39MOL0     H 5215   3.736   2.511   3.808  2.0269  1.5211 -0.4407
   39MOL0     H 5216   3.905   2.539   3.458 -0.7646  0.2843  1.0416
   39MOL0     H 5217   3.938   2.178   3.293  0.1772  1.3845 -1.3576
   39MOL0     H 5218   3.944   2.344   3.261  0.1205  1.1878  1.6913
   39MOL0     H 5219   4.166   2.356   3.364  1.7423 -0.2962  0.7907
   39MOL0     H 5220   4.147   2.189   3.432 -3.7668 -0.5334  0.7092
   39MOL0     H 5221   4.156   2.255   3.117  0.9511 -0.7877 -1.4795
   39MOL0     H 5222   4.159   2.100   3.188  1.9444 -0.5521  0.5519
   39MOL0     H 5223   4.361   2.156   3.313 -3.7777  1.6864  0.8098
   39MOL0     H 5224   4.393   2.275   3.194 -0.3617 -0.1113  0.6058
   39MOL0     H 5225   4.501   1.843   3.043  0.2986  0.4129  0.5957
   39MOL0     H 5226   4.716   1.748   3.088 -1.3980  0.0814 -0.8945
   39MOL0     H 5227   5.162   1.710   3.221 -2.0372  0.5717  1.2374
   39MOL0     H 5228   5.379   1.659   3.351  1.1940  0.1203  2.9827
   39MOL0     H 5229   5.490   1.969   3.628 -1.0164 -0.5644  0.7956
   39MOL0     H 5230   5.488   1.857   3.749 -0.0187  3.4938 -0.0955
   39MOL0     H 5231   5.693   1.888   3.545  2.2002  1.7834  1.0112
   39MOL0     H 5232   5.711   1.909   3.717  0.6310 -1.2436  1.7577
   39MOL0     H 5233   5.705   1.676   3.766  0.0609 -1.4714 -0.6390
   39MOL0     H 5234   5.656   1.624   3.601  0.3718  1.8177 -1.4052
   39MOL0     H 5235   5.925   1.760   3.644 -1.8861  1.2882 -1.9292
   39MOL0     H 5236   5.856   1.687   3.509  2.8169 -2.3628 -0.5347
   39MOL0     H 5237   5.996   1.502   3.600 -2.7503  1.8669 -3.7436
   39MOL0     H 5238   5.846   1.450   3.653  1.2118 -0.7148  1.1977
   39MOL0     H 5239   6.015   1.605   3.843  1.1000  0.1396 -0.7478
   39MOL0     H 5240   5.870   1.533   3.881 -0.1178  0.4495 -1.0195
   39MOL0     H 5241   6.079   1.346   3.758  1.1163 -2.6779  1.8733
   39MOL0     H 5242   5.932   1.306   3.824  1.6324 -1.4243  0.5794
   39MOL0     H 5243   6.132   1.274   3.983 -3.4996 -1.5102  3.5754
   39MOL0     H 5244   6.175   1.449   3.949 -1.0700  0.7170 -1.5401
   39MOL0     H 5245   5.267   2.006   3.598  1.6923  0.1236 -1.0549
   39MOL0     H 5246   5.095   2.059   3.440  2.0925  0.9628  2.9162
   39MOL0     H 5247   4.819   2.099   3.314  2.1305 -3.4251 -0.0735
   39MOL0     H 5248   4.608   2.204   3.251  1.6471 -0.3946  2.2475
   39MOL0     H 5249   2.699   2.300   3.445  0.5174 -0.3307  0.0678
   39MOL0     H 5250   2.464   2.382   3.428  1.8700 -1.8147 -0.7971
   39MOL0     H 5251   2.115   2.485   3.735  0.1711  0.2094  0.1803
   39MOL0     H 5252   1.876   2.499   3.736  1.7188  1.1332  3.2067
   39MOL0     H 5253   1.693   2.689   3.416  2.2121  1.6271  0.7182
   39MOL0     H 5254   1.654   2.823   3.519  0.1704 -0.1591 -2.3796
   39MOL0     H 5255   1.516   2.563   3.512 -1.8737  1.3436 -3.8635
   39MOL0     H 5256   1.466   2.712   3.426  0.4036 -0.0093 -1.7016
   39MOL0     H 5257   1.453   2.824   3.659 -0.6898  0.3068 -0.6355
   39MOL0     H 5258   1.500   2.666   3.728 -0.1773 -0.4969 -0.8744
   39MOL0     H 5259   1.244   2.738   3.569  0.1519  0.5738  0.8809
   39MOL0     H 5260   1.285   2.570   3.646  1.8717 -0.2693  1.5890
   39MOL0     H 5261   1.163   2.790   3.974  3.0473 -0.2939  1.7284
   39MOL0     H 5262   1.882   2.856   3.520  1.7152  1.4208 -0.9402
   39MOL0     H 5263   2.071   2.974   3.467  1.4615  0.3259 -1.9595
   39MOL0     H 5264   2.236   2.935   3.544  0.6118 -3.6183  1.2661
   39MOL0     H 5265   2.173   2.857   3.396  1.3498  1.4639 -0.7760
   40MOL0     O 5266   8.813   0.385   0.442  0.7440  0.0021 -0.6027
   40MOL0     C 5267   8.791   0.272   0.404 -0.7846  0.1431  0.5676
   40MOL0     O 5268   8.888   0.189   0.351  0.6392 -0.6869  0.1054
   40MOL0     C 5269   9.016   0.210   0.387 -0.1063 -0.3529  0.3685
   40MOL0     C 5270   9.090   0.332   0.352  0.0103  0.4235 -0.7680
   40MOL0     C 5271   9.224   0.343   0.401 -0.1692  0.4781 -0.1818
   40MOL0     C 5272   9.281   0.249   0.486  0.0047  0.0285  0.3278
   40MOL0     O 5273   9.407   0.249   0.530 -0.6386  0.6836 -0.2914
   40MOL0     C 5274   9.500   0.306   0.444  0.3365 -0.3962  0.3269
   40MOL0     C 5275   9.639   0.271   0.505 -0.1460 -1.0128  0.0078
   40MOL0     C 5276   9.750   0.288   0.395 -0.2755 -0.4927 -0.4446
   40MOL0     C 5277   9.881   0.266   0.457  0.1417 -0.2338  0.4821
   40MOL0     C 5278   9.986   0.255   0.350 -0.6591 -0.6241 -0.0785
   40MOL0     C 5279  10.116   0.227   0.428  0.2550 -0.3120 -0.3356
   40MOL0     C 5280  10.226   0.165   0.334  0.6840 -0.5642 -0.2268
   40MOL0     C 5281  10.360   0.141   0.405 -0.2482  0.3732  0.4205
   40MOL0     N 5282  10.363   0.069   0.535  0.8408  0.1909 -0.4831
   40MOL0     C 5283  10.394  -0.068   0.543 -0.3501  0.6170 -0.5872
   40MOL0     C 5284  10.362  -0.108   0.672  0.5216  0.0060 -0.3251
   40MOL0     C 5285  10.390  -0.246   0.715 -0.3758 -0.6497  0.2126
   40MOL0     C 5286  10.525  -0.252   0.797  0.1358 -0.2133  0.4034
   40MOL0     C 5287  10.503  -0.235   0.949  0.5630 -0.0246 -0.6654
   40MOL0     C 5288  10.639  -0.219   1.017  0.0692 -0.3093  0.1161
   40MOL0     O 5289  10.714  -0.339   1.027 -0.6811 -0.3276  0.3743
   40MOL0     C 5290  10.842  -0.321   1.082  0.0906 -0.5425  0.2706
   40MOL0     C 5291  10.878  -0.214   1.171  0.6859 -0.9924 -0.3191
   40MOL0     C 5292  10.999  -0.188   1.223 -0.4412 -0.1611 -0.1453
   40MOL0     C 5293  11.096  -0.285   1.195  0.0854 -0.2658 -0.4727
   40MOL0     C 5294  11.230  -0.274   1.246 -0.2985 -0.1176  0.4115
   40MOL0     O 5295  11.306  -0.392   1.251 -0.0067 -0.5565 -0.0601
   40MOL0     C 5296  11.430  -0.395   1.314  0.3276  0.6096  0.1366
   40MOL0     C 5297  11.491  -0.527   1.293 -0.6226 -0.6734 -0.4094
   40MOL0     C 5298  11.621  -0.548   1.346  1.0273 -0.4755  1.0038
   40MOL0     C 5299  11.685  -0.449   1.414  0.2114  0.2235 -1.5256
   40MOL0     O 5300  11.814  -0.453   1.466 -1.1003 -0.2047  0.2577
   40MOL0     C 5301  11.869  -0.576   1.505  0.7723 -0.2616  0.1015
   40MOL0     C 5302  12.004  -0.551   1.561 -0.6964 -0.1500  1.2215
   40MOL0     C 5303  12.049  -0.659   1.656  0.5227 -0.1402 -0.0343
   40MOL0     C 5304  12.198  -0.637   1.693  0.2517 -0.0981  0.0773
   40MOL0     C 5305  12.249  -0.775   1.727  0.0422 -0.0469  0.1115
   40MOL0     C 5306  12.397  -0.766   1.775  1.3028 -0.1015 -0.8658
   40MOL0     C 5307  12.463  -0.904   1.799  0.1014 -0.0930  0.2521
   40MOL0     C 5308  12.583  -0.906   1.888  0.4617  0.1337  0.7316
   40MOL0    Cl 5309  12.539  -0.862   2.059  0.0659  0.4845  0.0588
   40MOL0     C 5310  11.623  -0.330   1.445 -0.0562 -0.2215 -0.3800
   40MOL0     C 5311  11.496  -0.299   1.390 -0.5201  0.5059  0.2961
   40MOL0     O 5312  11.274  -0.163   1.278  0.5356  0.1985  0.0602
   40MOL0     C 5313  11.061  -0.395   1.110 -0.2190  0.7234  0.1696
   40MOL0     C 5314  10.936  -0.418   1.049 -0.9852  0.1577  0.4116
   40MOL0     N 5315  10.316   0.008   0.738  0.6674 -0.3468  0.0445
   40MOL0     N 5316  10.318   0.105   0.656 -0.8996 -0.1387 -0.4943
   40MOL0     C 5317   9.211   0.131   0.509 -0.1100 -0.2780  0.4521
   40MOL0     C 5318   9.078   0.117   0.458 -1.0540 -0.3116  0.7768
   40MOL0     C 5319   8.651   0.216   0.406 -0.8982  0.4697  0.3840
   40MOL0     C 5320   8.630   0.079   0.379 -0.0930 -0.0981  0.3079
   40MOL0     C 5321   8.504   0.026   0.388 -0.7850 -0.2762  0.0674
   40MOL0     C 5322   8.394   0.102   0.411  0.4464  0.9040  0.1992
   40MOL0     O 5323   8.257   0.056   0.415  0.5286  0.2911  0.9109
   40MOL0     C 5324   8.223  -0.082   0.386  0.0412 -0.7565  0.0323
   40MOL0     C 5325   8.082  -0.089   0.319  0.0409  0.0242 -0.1682
   40MOL0     C 5326   7.968  -0.013   0.384  1.2145 -0.2527 -0.6995
   40MOL0     C 5327   7.832  -0.035   0.329 -0.3225  0.1614 -0.5611
   40MOL0     C 5328   7.734   0.042   0.406  0.5724 -0.4468 -0.8142
   40MOL0     C 5329   7.674   0.118   0.474 -0.2115  0.8685  0.1679
   40MOL0     C 5330   8.410   0.240   0.429 -0.3638 -0.1937  0.1724
   40MOL0     C 5331   8.539   0.296   0.431 -0.2045  0.0725  0.3482
   40MOL0     C 5332   8.540   0.445   0.457 -0.7691  0.0865  0.0520
   40MOL0     H 5333   9.034   0.412   0.305 -0.4692  1.7294  1.8615
   40MOL0     H 5334   9.290   0.428   0.388  3.3774 -2.2871 -1.6806
   40MOL0     H 5335   9.494   0.261   0.345 -1.5604  1.7455 -0.6205
   40MOL0     H 5336   9.492   0.415   0.438  1.1297 -0.4049 -1.0478
   40MOL0     H 5337   9.636   0.169   0.544  1.7775 -0.8242  0.7887
   40MOL0     H 5338   9.651   0.321   0.601 -1.5972 -2.9158  1.2624
   40MOL0     H 5339   9.737   0.386   0.347  0.1168  0.9794  2.2765
   40MOL0     H 5340   9.734   0.218   0.312  1.5441 -0.3994 -0.9118
   40MOL0     H 5341   9.903   0.341   0.534  0.6617 -2.1300  2.2587
   40MOL0     H 5342   9.887   0.173   0.514  2.9067 -1.6624 -1.8524
   40MOL0     H 5343   9.975   0.179   0.272  3.0630  0.3395 -1.7706
   40MOL0     H 5344   9.999   0.351   0.299  1.7522 -0.5400  0.5851
   40MOL0     H 5345  10.150   0.319   0.475 -0.9380 -0.3259  0.5862
   40MOL0     H 5346  10.104   0.153   0.508  2.1657 -0.2228  0.0825
   40MOL0     H 5347  10.235   0.236   0.251  0.2599 -0.2089  0.0280
   40MOL0     H 5348  10.194   0.068   0.297  0.7051 -0.2632 -1.0493
   40MOL0     H 5349  10.435   0.096   0.340 -1.6893 -1.1993 -0.2400
   40MOL0     H 5350  10.394   0.245   0.417  1.4435  0.0828 -1.4121
   40MOL0     H 5351  10.436  -0.129   0.463 -1.9460  1.4173 -2.0991
   40MOL0     H 5352  10.310  -0.287   0.778  2.0889 -1.8477  2.8242
   40MOL0     H 5353  10.400  -0.311   0.628  0.7220  0.2644 -0.3668
   40MOL0     H 5354  10.575  -0.349   0.785  0.1380 -0.2786  0.9115
   40MOL0     H 5355  10.591  -0.173   0.761  0.0782 -0.7224 -0.8567
   40MOL0     H 5356  10.441  -0.321   0.979  2.5067 -1.7415 -1.3361
   40MOL0     H 5357  10.446  -0.142   0.960 -2.8697 -1.7219 -2.2845
   40MOL0     H 5358  10.611  -0.184   1.117 -1.3859 -2.4806  0.5482
   40MOL0     H 5359  10.705  -0.146   0.969  0.9432 -0.2552  1.3552
   40MOL0     H 5360  10.805  -0.139   1.199  0.8804 -1.3721  1.2605
   40MOL0     H 5361  11.022  -0.099   1.281  0.6895 -0.0098 -0.7819
   40MOL0     H 5362  11.428  -0.589   1.231 -0.9840 -0.8381  0.1138
   40MOL0     H 5363  11.677  -0.639   1.326 -2.0707 -2.0632 -1.4374
   40MOL0     H 5364  11.801  -0.608   1.585 -0.0483  1.4688  0.1560
   40MOL0     H 5365  11.874  -0.649   1.424 -0.8780  1.2794 -1.4659
   40MOL0     H 5366  12.069  -0.551   1.473 -2.8223  0.0105 -0.4308
   40MOL0     H 5367  12.022  -0.458   1.616 -0.7559  1.4396 -1.2768
   40MOL0     H 5368  11.987  -0.681   1.743  1.7615 -3.9145  0.0575
   40MOL0     H 5369  12.037  -0.757   1.611  1.7443 -1.7287  2.8097
   40MOL0     H 5370  12.204  -0.568   1.777  1.4344 -1.0324  0.8019
   40MOL0     H 5371  12.260  -0.601   1.611 -1.0899 -0.4674 -1.1475
   40MOL0     H 5372  12.242  -0.839   1.639 -1.7778  0.1478  0.0895
   40MOL0     H 5373  12.180  -0.822   1.797  0.3309 -1.3675 -0.4590
   40MOL0     H 5374  12.464  -0.720   1.702  3.7961  0.4608  1.6039
   40MOL0     H 5375  12.407  -0.703   1.864  0.5457  2.4070 -2.4564
   40MOL0     H 5376  12.487  -0.944   1.701 -0.5245 -0.6273  0.3094
   40MOL0     H 5377  12.386  -0.967   1.844  1.2391 -0.0990  2.3424
   40MOL0     H 5378  12.628  -1.005   1.885 -0.5976 -0.4042 -3.7514
   40MOL0     H 5379  12.660  -0.845   1.839  0.1974 -0.0895  0.0297
   40MOL0     H 5380  11.689  -0.262   1.499  1.4121 -0.2802 -2.0206
   40MOL0     H 5381  11.454  -0.202   1.416 -1.0474  1.0694 -2.3121
   40MOL0     H 5382  11.126  -0.480   1.089 -0.3045  0.8340 -0.5596
   40MOL0     H 5383  10.920  -0.501   0.982 -1.4917  0.7242 -0.1830
   40MOL0     H 5384   9.251   0.046   0.563 -2.7381 -3.0866 -1.6296
   40MOL0     H 5385   9.028   0.021   0.467 -0.6751 -0.8527 -1.9996
   40MOL0     H 5386   8.716   0.012   0.376  1.9365  2.3672  0.4109
   40MOL0     H 5387   8.499  -0.083   0.382 -0.0762 -0.2955 -0.2095
   40MOL0     H 5388   8.216  -0.141   0.478 -0.3781  0.4231  0.7787
   40MOL0     H 5389   8.299  -0.130   0.323  1.0432  1.7925 -0.8076
   40MOL0     H 5390   8.050  -0.192   0.300  1.7425 -0.3825 -1.0124
   40MOL0     H 5391   8.098  -0.036   0.224 -4.0331  2.2596  0.1565
   40MOL0     H 5392   7.987   0.095   0.377 -0.6088  0.0953 -0.8258
   40MOL0     H 5393   7.974  -0.046   0.488  1.2361 -2.6508 -1.4049
   40MOL0     H 5394   7.828  -0.003   0.225 -1.2269  1.0866 -0.2492
   40MOL0     H 5395   7.796  -0.136   0.352  1.2582 -0.3796 -0.3336
   40MOL0     H 5396   7.638   0.195   0.539  0.9444  0.0064  1.9035
   40MOL0     H 5397   8.319   0.298   0.424 -0.7272 -0.7560  0.1720
   40MOL0     H 5398   8.602   0.476   0.541 -0.5566 -1.7378  0.6201
   40MOL0     H 5399   8.574   0.510   0.375 -0.8509 -0.3074 -0.2977
   40MOL0     H 5400   8.439   0.482   0.475 -0.1236  1.1959  1.5772
   41MOL0     O 5401   5.257  10.957   2.428  0.0251  0.4948  0.0212
   41MOL0     C 5402   5.197  11.037   2.495 -0.7160  0.6144  0.2276
   41MOL0     O 5403   5.255  11.153   2.550 -0.2918  0.4870 -0.0503
   41MOL0     C 5404   5.391  11.156   2.580 -0.4015  0.2200  1.0079
   41MOL0     C 5405   5.465  11.049   2.643  0.5618 -0.3048  0.3290
   41MOL0     C 5406   5.602  11.067   2.680  0.3020  0.0064 -0.0818
   41MOL0     C 5407   5.664  11.186   2.655 -1.2083 -0.2550 -0.1888
   41MOL0     O 5408   5.798  11.195   2.685 -0.3939  0.0252 -0.6679
   41MOL0     C 5409   5.858  11.316   2.719 -0.1878 -0.8854 -0.0759
   41MOL0     C 5410   6.008  11.291   2.754 -1.0936  0.3536 -0.2261
   41MOL0     C 5411   6.085  11.234   2.635  0.3288 -0.8805  0.3072
   41MOL0     C 5412   6.235  11.212   2.661 -0.7720  0.7291  0.2711
   41MOL0     C 5413   6.326  11.334   2.656  0.2843  0.1000 -0.1692
   41MOL0     C 5414   6.350  11.382   2.514 -0.2787  0.2032  0.1828
   41MOL0     C 5415   6.452  11.494   2.517 -0.8212  0.4475  0.5775
   41MOL0     C 5416   6.468  11.557   2.377  0.4232  0.2361 -1.4443
   41MOL0     N 5417   6.576  11.651   2.374 -0.4827  0.0029  0.2865
   41MOL0     C 5418   6.694  11.629   2.309 -0.6145  0.4569  0.1590
   41MOL0     C 5419   6.758  11.746   2.330  0.1576  0.1213  0.7772
   41MOL0     C 5420   6.889  11.798   2.269  0.7590  0.1968 -0.2489
   41MOL0     C 5421   7.010  11.707   2.285  0.4382 -0.5435  0.6896
   41MOL0     C 5422   7.068  11.701   2.421 -0.0936 -0.0518 -0.3741
   41MOL0     C 5423   7.169  11.818   2.445  0.1120  0.2672  0.7003
   41MOL0     O 5424   7.229  11.807   2.574 -0.4197  0.4448  0.4278
   41MOL0     C 5425   7.322  11.903   2.595 -0.1060  0.2132  0.0330
   41MOL0     C 5426   7.284  12.005   2.688 -1.1622 -0.5676  0.2470
   41MOL0     C 5427   7.376  12.106   2.722 -0.0186 -0.2760 -0.1866
   41MOL0     C 5428   7.508  12.101   2.668  0.2111  0.5402  0.1429
   41MOL0     C 5429   7.615  12.188   2.713  0.6088 -0.2809 -0.2295
   41MOL0     O 5430   7.707  12.216   2.619 -0.1898 -1.2272  0.3660
   41MOL0     C 5431   7.820  12.287   2.645  0.0254  0.0076 -0.4927
   41MOL0     C 5432   7.923  12.220   2.713 -0.3896 -0.0235 -0.3805
   41MOL0     C 5433   8.047  12.291   2.739 -1.3210 -0.1455 -0.1955
   41MOL0     C 5434   8.063  12.426   2.703 -0.6140  0.5697  0.5152
   41MOL0     O 5435   8.184  12.480   2.732  0.1414 -0.1104  0.1811
   41MOL0     C 5436   8.216  12.608   2.673 -0.6586 -0.2129  0.7846
   41MOL0     C 5437   8.349  12.665   2.735  0.5293  0.5281  0.4054
   41MOL0     C 5438   8.469  12.573   2.727  0.7571  0.3621  0.2914
   41MOL0     C 5439   8.587  12.643   2.789  0.1560 -0.5367  0.0467
   41MOL0     C 5440   8.705  12.555   2.766 -0.9309  0.4829  0.0292
   41MOL0     C 5441   8.841  12.620   2.793 -0.2053 -0.8598 -0.6617
   41MOL0     C 5442   8.964  12.551   2.734 -0.3609  0.2935  0.0280
   41MOL0     C 5443   8.984  12.417   2.798  0.7990 -0.5762 -0.5421
   41MOL0    Cl 5444   9.137  12.361   2.726 -0.0523 -0.1656  0.1112
   41MOL0     C 5445   7.954  12.489   2.635 -0.2784  0.2233  1.0001
   41MOL0     C 5446   7.834  12.421   2.614 -0.2240  0.0890 -0.0478
   41MOL0     O 5447   7.610  12.238   2.825 -0.7320 -0.3279 -0.2091
   41MOL0     C 5448   7.536  11.992   2.584  0.0865 -0.8526 -0.0142
   41MOL0     C 5449   7.448  11.891   2.547 -0.1429 -0.8120 -0.0298
   41MOL0     N 5450   6.689  11.829   2.412  0.7959  0.6114  0.0190
   41MOL0     N 5451   6.581  11.770   2.439  0.6347  0.7289 -0.4725
   41MOL0     C 5452   5.593  11.286   2.597 -0.5994  0.1625  0.3381
   41MOL0     C 5453   5.464  11.274   2.562  0.3029 -0.2404  0.0492
   41MOL0     C 5454   5.052  11.020   2.516  0.2778  0.6452  0.4852
   41MOL0     C 5455   4.970  11.133   2.517  0.6659 -0.3148 -0.1780
   41MOL0     C 5456   4.832  11.127   2.505 -0.2567 -0.8776  0.8554
   41MOL0     C 5457   4.762  11.012   2.517  0.1024  0.3017  0.3828
   41MOL0     O 5458   4.622  11.025   2.534 -0.4760  0.1216 -0.9878
   41MOL0     C 5459   4.541  10.904   2.568  0.2816  0.2039  0.0553
   41MOL0     C 5460   4.392  10.949   2.549 -0.4495  0.9350  0.4378
   41MOL0     C 5461   4.290  10.851   2.610 -0.2982  0.0280 -0.2164
   41MOL0     C 5462   4.148  10.900   2.620 -0.0307  0.3664 -0.0336
   41MOL0     C 5463   4.077  10.898   2.490  0.7845  0.3377 -1.1030
   41MOL0     C 5464   4.024  10.927   2.382 -0.9301  0.4143  0.7234
   41MOL0     C 5465   4.839  10.892   2.524 -0.0152 -0.6522  0.7584
   41MOL0     C 5466   4.981  10.897   2.511 -0.4924  0.3567  0.7306
   41MOL0     C 5467   5.048  10.760   2.504 -0.1346 -0.0143 -0.0522
   41MOL0     H 5468   5.416  10.953   2.658  0.2574 -0.1152  0.5492
   41MOL0     H 5469   5.653  10.981   2.723 -0.5683  0.4799  2.0350
   41MOL0     H 5470   5.872  11.385   2.635 -0.1058 -1.3831 -0.4764
   41MOL0     H 5471   5.807  11.361   2.805  0.8143 -2.4062  1.3679
   41MOL0     H 5472   6.021  11.238   2.849 -0.0129  0.7387 -0.1391
   41MOL0     H 5473   6.056  11.387   2.776  2.0233 -0.5805 -2.3144
   41MOL0     H 5474   6.077  11.301   2.548  1.6701 -1.6726 -0.4573
   41MOL0     H 5475   6.039  11.142   2.597 -2.0305  0.0673  0.6880
   41MOL0     H 5476   6.238  11.159   2.756  2.5752 -0.0589 -0.1423
   41MOL0     H 5477   6.264  11.135   2.589 -1.8166 -1.8669  2.4616
   41MOL0     H 5478   6.291  11.420   2.714  1.0302  2.0273 -2.4237
   41MOL0     H 5479   6.426  11.305   2.691  0.7441  1.6995 -0.0397
   41MOL0     H 5480   6.388  11.300   2.452 -0.8442  1.2190 -1.5719
   41MOL0     H 5481   6.254  11.411   2.469  0.9464 -1.2257 -3.8248
   41MOL0     H 5482   6.550  11.450   2.540 -1.4085 -2.2885 -1.6237
   41MOL0     H 5483   6.423  11.575   2.585 -0.9617 -0.8591  2.1527
   41MOL0     H 5484   6.478  11.478   2.302  1.1971 -2.3819  1.2481
   41MOL0     H 5485   6.376  11.605   2.340  0.0538  0.8756  0.2183
   41MOL0     H 5486   6.725  11.552   2.238 -2.0948 -0.0711  0.0580
   41MOL0     H 5487   6.876  11.795   2.160  1.5396 -0.1408 -0.3419
   41MOL0     H 5488   6.902  11.903   2.297 -1.1702  0.6159 -0.8086
   41MOL0     H 5489   6.973  11.604   2.281 -2.6769  0.4686  0.9749
   41MOL0     H 5490   7.087  11.719   2.208 -1.1972 -1.0676 -1.0936
   41MOL0     H 5491   7.125  11.608   2.423 -1.1112 -0.7695 -2.1853
   41MOL0     H 5492   6.984  11.702   2.491  0.6273  0.0598  0.5138
   41MOL0     H 5493   7.117  11.914   2.429 -0.5262 -0.0929  0.5820
   41MOL0     H 5494   7.246  11.817   2.368 -0.1120 -0.2582  0.4835
   41MOL0     H 5495   7.180  11.991   2.716 -0.7798 -1.6190  1.2331
   41MOL0     H 5496   7.338  12.187   2.783 -1.6261  1.1628 -2.9017
   41MOL0     H 5497   7.897  12.121   2.748  0.4190  0.1459  0.7696
   41MOL0     H 5498   8.137  12.253   2.788  1.5987  2.7059 -2.8564
   41MOL0     H 5499   8.241  12.607   2.566  0.6863 -1.9423  1.0744
   41MOL0     H 5500   8.135  12.679   2.694  0.3597  1.0130  0.7097
   41MOL0     H 5501   8.377  12.756   2.681 -2.8307  1.6490  0.3600
   41MOL0     H 5502   8.321  12.705   2.833  1.9939 -0.2936  1.1993
   41MOL0     H 5503   8.451  12.473   2.767 -0.0585  0.8720  1.2540
   41MOL0     H 5504   8.485  12.559   2.620 -0.3362  0.6082  0.0851
   41MOL0     H 5505   8.571  12.639   2.898  2.5339 -0.5133  0.4468
   41MOL0     H 5506   8.601  12.744   2.750 -2.6585  0.0861  0.4552
   41MOL0     H 5507   8.708  12.524   2.661  2.4325  0.8778 -0.1133
   41MOL0     H 5508   8.701  12.464   2.826  0.4976  0.0920 -0.4132
   41MOL0     H 5509   8.838  12.725   2.764  4.8150  0.3844  2.1865
   41MOL0     H 5510   8.848  12.628   2.902 -0.2478 -2.0118 -0.5646
   41MOL0     H 5511   9.054  12.609   2.757 -0.1469 -0.3927  1.0046
   41MOL0     H 5512   8.942  12.547   2.627 -0.1729 -0.0654  0.0009
   41MOL0     H 5513   9.001  12.432   2.906  0.4913  0.1734 -0.5898
   41MOL0     H 5514   8.907  12.341   2.785  1.1399 -1.6222  2.6400
   41MOL0     H 5515   7.966  12.594   2.609 -0.1311 -0.0606 -0.1358
   41MOL0     H 5516   7.747  12.468   2.570  1.0989  2.6847 -0.0875
   41MOL0     H 5517   7.635  11.987   2.538 -1.0880 -0.6407 -2.7563
   41MOL0     H 5518   7.485  11.815   2.479  1.8178 -1.7094  1.9172
   41MOL0     H 5519   5.649  11.378   2.581 -0.7396 -0.3215 -4.2054
   41MOL0     H 5520   5.398  11.355   2.530  1.6956  1.3520  1.0306
   41MOL0     H 5521   5.007  11.235   2.522 -0.4564  0.0902  0.2064
   41MOL0     H 5522   4.771  11.217   2.503  0.0416 -0.6544  1.4152
   41MOL0     H 5523   4.556  10.877   2.673 -0.8898  0.3250  0.2677
   41MOL0     H 5524   4.568  10.816   2.509  2.9570  0.6422  0.4814
   41MOL0     H 5525   4.377  10.955   2.441 -1.4494  0.9246  0.5624
   41MOL0     H 5526   4.367  11.045   2.596 -4.5283  1.1579 -1.7040
   41MOL0     H 5527   4.327  10.817   2.707  0.8523 -2.2675 -1.3624
   41MOL0     H 5528   4.295  10.768   2.538  1.1088 -1.9915  2.0584
   41MOL0     H 5529   4.085  10.845   2.691 -2.0257 -0.1483 -2.1004
   41MOL0     H 5530   4.149  11.004   2.654 -0.3942 -0.3423  2.3420
   41MOL0     H 5531   3.978  10.948   2.288 -0.6630 -3.2358 -0.3913
   41MOL0     H 5532   4.778  10.804   2.536  0.2341 -0.5535  3.1481
   41MOL0     H 5533   4.986  10.678   2.541 -0.9668  0.2560 -0.8112
   41MOL0     H 5534   5.079  10.743   2.401 -0.4114  1.8354 -0.4743
   41MOL0     H 5535   5.138  10.765   2.566 -0.6050 -3.8580  1.2004
   42MOL0     O 5536   9.691   9.815   1.540  0.0644 -0.0866  0.4320
   42MOL0     C 5537   9.656   9.889   1.635 -0.4309 -0.4081 -0.2044
   42MOL0     O 5538   9.728   9.911   1.747 -0.4499 -0.6885 -0.2801
   42MOL0     C 5539   9.825   9.820   1.787 -0.2547 -0.7616  1.2650
   42MOL0     C 5540   9.834   9.692   1.751 -0.0298  0.1201  0.5235
   42MOL0     C 5541   9.943   9.608   1.791 -0.2698  0.0500 -0.2299
   42MOL0     C 5542  10.049   9.665   1.867 -0.1880  0.2067  0.5557
   42MOL0     O 5543  10.174   9.615   1.898  0.6770  0.8116 -0.2337
   42MOL0     C 5544  10.192   9.472   1.876  0.3047 -0.6598 -0.3050
   42MOL0     C 5545  10.307   9.409   1.956 -0.5284 -0.3450 -0.2676
   42MOL0     C 5546  10.450   9.463   1.920 -0.5447 -0.4613 -0.2394
   42MOL0     C 5547  10.531   9.501   2.045  0.0053  0.4586 -0.1054
   42MOL0     C 5548  10.668   9.565   2.019 -0.4510 -0.2686 -0.5270
   42MOL0     C 5549  10.739   9.614   2.135 -0.2200 -0.1484 -1.5258
   42MOL0     C 5550  10.872   9.680   2.094  1.5268 -0.4035 -0.3649
   42MOL0     C 5551  10.924   9.741   2.229 -0.4046  0.2905 -0.6410
   42MOL0     N 5552  11.062   9.791   2.232 -1.0090  0.1684 -0.0735
   42MOL0     C 5553  11.159   9.737   2.314  1.0255  0.2519 -0.2486
   42MOL0     C 5554  11.269   9.816   2.295  0.0078  0.3333 -0.7864
   42MOL0     C 5555  11.412   9.795   2.340  0.2472  0.0867  0.2299
   42MOL0     C 5556  11.496   9.913   2.279 -0.1831  0.3809 -0.2426
   42MOL0     C 5557  11.647   9.909   2.326 -0.2740  0.5552  0.2890
   42MOL0     C 5558  11.730   9.998   2.226 -0.3914 -1.0725 -0.0372
   42MOL0     O 5559  11.850  10.048   2.288 -0.0786  0.2396  0.2538
   42MOL0     C 5560  11.960   9.964   2.292 -0.0211 -0.4902 -0.0636
   42MOL0     C 5561  12.081  10.034   2.330  0.1567  0.1364  0.1211
   42MOL0     C 5562  12.201   9.963   2.324 -0.3098  0.2111 -0.1291
   42MOL0     C 5563  12.208   9.836   2.259 -0.8466 -0.1753 -0.3192
   42MOL0     C 5564  12.335   9.753   2.247 -0.1111  0.0469  0.6648
   42MOL0     O 5565  12.449   9.805   2.312  0.2547 -0.4979  1.2541
   42MOL0     C 5566  12.563   9.719   2.324  1.3505 -0.0682  0.1761
   42MOL0     C 5567  12.685   9.781   2.331  0.4284  0.0033  0.0595
   42MOL0     C 5568  12.798   9.718   2.383 -0.3539 -0.0854  0.9393
   42MOL0     C 5569  12.809   9.584   2.417 -0.3158  0.0026 -0.0594
   42MOL0     O 5570  12.930   9.533   2.463 -0.3173  0.1674 -0.3636
   42MOL0     C 5571  12.937   9.396   2.500  0.1203  0.2346  0.4672
   42MOL0     C 5572  13.040   9.378   2.612  0.6411 -0.1450 -0.0833
   42MOL0     C 5573  13.022   9.450   2.741  0.5093  0.3374  0.0886
   42MOL0     C 5574  13.105   9.414   2.859  0.2782  0.3583  0.3026
   42MOL0     C 5575  13.256   9.440   2.829  0.9265 -0.3249 -0.1554
   42MOL0     C 5576  13.332   9.322   2.754 -0.8852 -1.0262  0.1040
   42MOL0     C 5577  13.467   9.365   2.690 -0.7151 -0.1250  0.5149
   42MOL0     C 5578  13.554   9.448   2.782  0.4947 -0.2047 -0.7485
   42MOL0    Cl 5579  13.723   9.461   2.733  0.0648 -0.0699 -0.3801
   42MOL0     C 5580  12.690   9.511   2.385  0.0072 -0.0933  0.7530
   42MOL0     C 5581  12.567   9.576   2.343  0.0752 -0.4080 -0.7339
   42MOL0     O 5582  12.333   9.650   2.184  0.0163  0.7230 -0.3882
   42MOL0     C 5583  12.093   9.781   2.207  0.1392  0.0899  0.1591
   42MOL0     C 5584  11.971   9.842   2.231  0.0448  0.0828  0.2006
   42MOL0     N 5585  11.230   9.924   2.220  0.2614  0.5119  0.2306
   42MOL0     N 5586  11.107   9.909   2.182 -0.5134  0.2053 -0.1212
   42MOL0     C 5587  10.037   9.795   1.910  0.1966  0.1755  0.5807
   42MOL0     C 5588   9.921   9.873   1.878  0.1296 -0.0580 -0.0388
   42MOL0     C 5589   9.528   9.964   1.620 -0.4899  0.0876  0.0971
   42MOL0     C 5590   9.535  10.104   1.650 -1.0626  0.3721 -0.1637
   42MOL0     C 5591   9.416  10.178   1.627 -0.4792 -0.2581  0.5584
   42MOL0     C 5592   9.297  10.120   1.589 -0.6890 -0.9936 -0.3852
   42MOL0     O 5593   9.186  10.193   1.557 -0.2307  0.1310  0.4377
   42MOL0     C 5594   9.197  10.331   1.523  0.3758 -0.3173  0.0415
   42MOL0     C 5595   9.221  10.331   1.366  0.0932 -0.5709 -0.6211
   42MOL0     C 5596   9.239  10.477   1.311  0.9328 -0.6460 -0.0660
   42MOL0     C 5597   9.236  10.500   1.160 -0.6750 -0.3583  1.1806
   42MOL0     C 5598   9.332  10.419   1.086 -0.6827 -1.1841 -0.2957
   42MOL0     C 5599   9.417  10.357   1.027 -0.1216 -0.6552 -0.0200
   42MOL0     C 5600   9.294   9.982   1.578 -0.3998 -0.3713 -0.0201
   42MOL0     C 5601   9.406   9.898   1.584 -0.3012 -0.2296 -0.2403
   42MOL0     C 5602   9.385   9.750   1.545 -0.5141  0.0187 -0.1589
   42MOL0     H 5603   9.757   9.653   1.684 -0.4594 -1.4938  1.8837
   42MOL0     H 5604   9.947   9.510   1.746 -0.3180 -0.9558  1.8338
   42MOL0     H 5605  10.104   9.410   1.895  0.5369 -1.1447 -0.7817
   42MOL0     H 5606  10.210   9.472   1.768  1.7760  0.8768 -0.1111
   42MOL0     H 5607  10.309   9.302   1.932  2.3369 -1.0316  2.4940
   42MOL0     H 5608  10.284   9.421   2.062 -0.4692  0.8214 -0.3760
   42MOL0     H 5609  10.445   9.560   1.871 -0.8025 -1.6091 -2.6387
   42MOL0     H 5610  10.509   9.394   1.859 -1.2188  0.0857 -1.5544
   42MOL0     H 5611  10.467   9.575   2.095  0.3682 -0.2878  1.5238
   42MOL0     H 5612  10.536   9.417   2.114 -0.8061  1.7599  1.6226
   42MOL0     H 5613  10.733   9.502   1.957  0.7788  0.6681 -0.2443
   42MOL0     H 5614  10.644   9.655   1.962 -0.5026  0.9254  1.2821
   42MOL0     H 5615  10.677   9.682   2.195  0.9376 -0.1742 -0.2418
   42MOL0     H 5616  10.756   9.526   2.198  1.5271  0.6201 -0.8611
   42MOL0     H 5617  10.867   9.761   2.020  4.2867 -0.5252 -0.7827
   42MOL0     H 5618  10.937   9.606   2.047 -1.0392 -0.1475 -4.9794
   42MOL0     H 5619  10.861   9.821   2.269 -1.9766 -0.8018 -0.8518
   42MOL0     H 5620  10.926   9.659   2.301  2.4022 -0.1008 -1.0442
   42MOL0     H 5621  11.152   9.642   2.367 -0.8688  1.1729  1.2712
   42MOL0     H 5622  11.415   9.794   2.450  2.6175 -0.3330  0.2290
   42MOL0     H 5623  11.455   9.702   2.301 -1.7456 -0.1612 -1.5741
   42MOL0     H 5624  11.500   9.900   2.171  4.5780 -3.8752  0.0892
   42MOL0     H 5625  11.461  10.008   2.320 -0.2286  0.5755 -0.7375
   42MOL0     H 5626  11.695   9.810   2.320 -0.8119  0.3152 -0.1249
   42MOL0     H 5627  11.658   9.940   2.431  2.2556  0.6782  0.0596
   42MOL0     H 5628  11.659  10.077   2.202 -1.6186 -2.7305 -2.1674
   42MOL0     H 5629  11.750   9.944   2.133  0.4167 -0.6804 -0.1046
   42MOL0     H 5630  12.084  10.135   2.370  3.7247  0.4130 -0.4946
   42MOL0     H 5631  12.299  10.001   2.352 -0.0108 -0.4327 -0.2883
   42MOL0     H 5632  12.683   9.889   2.317  0.7363 -0.1514 -1.2706
   42MOL0     H 5633  12.885   9.783   2.379 -0.4304  0.0062  0.7548
   42MOL0     H 5634  12.842   9.375   2.549  0.1186 -1.4682 -0.1823
   42MOL0     H 5635  12.966   9.331   2.416  0.8214 -1.2103  1.7821
   42MOL0     H 5636  13.044   9.270   2.630  0.4458  0.2101  2.4211
   42MOL0     H 5637  13.136   9.398   2.562 -0.3490  2.2797 -1.1680
   42MOL0     H 5638  13.030   9.559   2.731 -2.2106  0.5468 -0.8335
   42MOL0     H 5639  12.919   9.419   2.761  1.4296 -2.4241  0.9631
   42MOL0     H 5640  13.092   9.310   2.892  1.8387  0.0902  0.1929
   42MOL0     H 5641  13.065   9.473   2.942 -3.4556  0.1051 -1.1587
   42MOL0     H 5642  13.317   9.465   2.916 -0.2898  1.0862  0.3356
   42MOL0     H 5643  13.267   9.529   2.766 -0.6184  1.6413  2.1713
   42MOL0     H 5644  13.351   9.251   2.834 -1.5993  0.3301  1.5384
   42MOL0     H 5645  13.280   9.272   2.671 -1.0439 -0.8521  0.0981
   42MOL0     H 5646  13.435   9.419   2.601  1.1668  0.1841 -0.0233
   42MOL0     H 5647  13.525   9.281   2.651 -2.6527 -1.5260  0.4804
   42MOL0     H 5648  13.509   9.547   2.789 -1.7531 -1.2817  2.0951
   42MOL0     H 5649  13.551   9.391   2.876  1.6951  1.0502  0.0858
   42MOL0     H 5650  12.692   9.404   2.403  0.9545 -0.9257 -3.2413
   42MOL0     H 5651  12.473   9.522   2.334 -0.5866  0.5565  0.1325
   42MOL0     H 5652  12.082   9.688   2.153 -2.9780  1.3475 -1.6750
   42MOL0     H 5653  11.887   9.787   2.189 -0.1219 -0.9827  1.8608
   42MOL0     H 5654  10.124   9.839   1.957  0.3526  0.5371 -0.0343
   42MOL0     H 5655   9.913   9.975   1.916  1.1691 -0.7625  2.2844
   42MOL0     H 5656   9.625  10.152   1.688 -2.2425  2.1092  0.5758
   42MOL0     H 5657   9.417  10.284   1.651 -2.8296 -0.4847  1.9549
   42MOL0     H 5658   9.267  10.395   1.578  0.1102  0.6724 -0.7515
   42MOL0     H 5659   9.096  10.371   1.541 -0.1583 -1.4697 -0.2824
   42MOL0     H 5660   9.140  10.270   1.325  0.1289 -0.7496 -0.4279
   42MOL0     H 5661   9.313  10.278   1.339 -0.4620 -1.7814 -0.2231
   42MOL0     H 5662   9.330  10.523   1.352  1.2586 -1.9543  0.7252
   42MOL0     H 5663   9.159  10.538   1.355 -0.7282 -2.9905  0.3336
   42MOL0     H 5664   9.138  10.468   1.124 -0.0650 -1.6809  0.6212
   42MOL0     H 5665   9.254  10.605   1.134  0.3949 -1.3259 -2.7526
   42MOL0     H 5666   9.492  10.301   0.973 -1.3609 -1.7384 -0.6845
   42MOL0     H 5667   9.197   9.937   1.562  0.5598 -2.5430 -0.1094
   42MOL0     H 5668   9.287   9.732   1.500 -0.7930  0.2589  0.3517
   42MOL0     H 5669   9.463   9.732   1.471 -0.6208 -1.4013  0.0506
   42MOL0     H 5670   9.410   9.684   1.628 -0.2952 -1.8876 -1.6663
   43MOL0     O 5671   6.306   8.961   2.211  0.2730 -0.4080 -0.5946
   43MOL0     C 5672   6.341   8.926   2.321 -0.7411 -0.7950 -0.2000
   43MOL0     O 5673   6.469   8.949   2.373 -0.5297  0.0632  0.5101
   43MOL0     C 5674   6.554   9.021   2.301 -1.3030  0.6367  0.0172
   43MOL0     C 5675   6.543   9.156   2.304  1.0436 -0.5443 -0.4765
   43MOL0     C 5676   6.633   9.241   2.240 -0.2690  0.6620  0.1022
   43MOL0     C 5677   6.729   9.187   2.150 -0.4426 -0.2388  0.3178
   43MOL0     O 5678   6.826   9.255   2.085  0.8319 -0.2259  0.4690
   43MOL0     C 5679   6.862   9.383   2.129  0.1178 -0.4708 -0.1258
   43MOL0     C 5680   6.950   9.463   2.029  0.0804  0.0994 -0.3740
   43MOL0     C 5681   7.094   9.405   2.037  0.1385  0.5957  0.1493
   43MOL0     C 5682   7.180   9.442   1.916 -0.1434  0.3086  0.1140
   43MOL0     C 5683   7.320   9.372   1.928  0.7681 -0.2886 -0.0316
   43MOL0     C 5684   7.413   9.397   1.806 -0.4072 -0.2417 -0.5179
   43MOL0     C 5685   7.408   9.543   1.746 -0.3480 -0.5675 -1.2889
   43MOL0     C 5686   7.450   9.639   1.857  0.1065 -0.3760  0.2898
   43MOL0     N 5687   7.582   9.620   1.909  0.1270 -1.4300  0.4540
   43MOL0     C 5688   7.691   9.584   1.833  0.3341  0.9413 -0.0600
   43MOL0     C 5689   7.785   9.552   1.927  0.6766  0.6799  0.3550
   43MOL0     C 5690   7.912   9.495   1.878 -0.6957  0.9457 -0.3784
   43MOL0     C 5691   7.969   9.405   1.988  0.6157 -0.2072 -0.6059
   43MOL0     C 5692   8.099   9.341   1.935 -0.3968 -0.5489  0.6421
   43MOL0     C 5693   8.181   9.272   2.051 -0.1128  0.4422 -0.5225
   43MOL0     O 5694   8.303   9.234   1.996 -0.2309  0.0609  0.3072
   43MOL0     C 5695   8.426   9.231   2.059  0.0919  0.4882 -0.6291
   43MOL0     C 5696   8.532   9.178   1.989 -0.0009  0.2750  0.2289
   43MOL0     C 5697   8.648   9.137   2.052  0.4019 -0.1543  0.4902
   43MOL0     C 5698   8.675   9.163   2.186  0.1425  0.6425 -1.0337
   43MOL0     C 5699   8.804   9.136   2.249 -0.6183 -0.2988  0.2655
   43MOL0     O 5700   8.907   9.114   2.164 -0.2963 -0.3966  0.6655
   43MOL0     C 5701   9.037   9.155   2.192  0.7132 -0.4217  0.4204
   43MOL0     C 5702   9.071   9.259   2.280 -0.2472  0.8901  0.5697
   43MOL0     C 5703   9.210   9.293   2.283 -0.2790  0.3095  0.7381
   43MOL0     C 5704   9.307   9.215   2.213  0.5206  0.9524 -0.1440
   43MOL0     O 5705   9.445   9.225   2.221  0.4172 -0.6747 -0.4983
   43MOL0     C 5706   9.497   9.285   2.343  0.7029 -0.0805  1.0449
   43MOL0     C 5707   9.646   9.257   2.355  0.7959  0.2006  0.1204
   43MOL0     C 5708   9.698   9.288   2.494 -0.4976  0.3843 -0.0169
   43MOL0     C 5709   9.844   9.255   2.517 -0.5475  0.8505  0.1809
   43MOL0     C 5710   9.880   9.110   2.496 -0.9324  0.0661 -0.1307
   43MOL0     C 5711  10.031   9.078   2.517 -0.6596 -0.5617  0.0349
   43MOL0     C 5712  10.132   9.154   2.425  0.6717 -1.3542 -0.8923
   43MOL0     C 5713  10.279   9.103   2.447  0.1967 -0.4088 -0.2913
   43MOL0    Cl 5714  10.375   9.205   2.356 -0.3376 -0.4509 -0.1218
   43MOL0     C 5715   9.261   9.121   2.123  0.0751  0.1452 -0.5247
   43MOL0     C 5716   9.130   9.093   2.110  1.1414  0.4550 -0.0173
   43MOL0     O 5717   8.818   9.144   2.373 -0.9949 -0.0825 -0.5231
   43MOL0     C 5718   8.566   9.215   2.262 -0.0532  0.4571  0.1188
   43MOL0     C 5719   8.444   9.258   2.196 -0.9344  1.0270 -0.0960
   43MOL0     N 5720   7.727   9.575   2.054 -0.7212  0.3733 -0.4257
   43MOL0     N 5721   7.613   9.620   2.041  0.1087 -0.6549 -0.0793
   43MOL0     C 5722   6.733   9.044   2.142 -0.8891  0.7812 -0.3853
   43MOL0     C 5723   6.650   8.965   2.219  1.3754  0.2165  0.7203
   43MOL0     C 5724   6.239   8.855   2.395 -0.3680 -1.0743  0.1211
   43MOL0     C 5725   6.283   8.789   2.510  1.0529  0.7065  0.4158
   43MOL0     C 5726   6.201   8.738   2.603 -0.8215 -0.4112  0.6688
   43MOL0     C 5727   6.063   8.740   2.582  0.5639  0.0659 -0.2723
   43MOL0     O 5728   5.969   8.682   2.660  0.6668  0.2068  0.2939
   43MOL0     C 5729   6.017   8.562   2.723  1.5961  0.4274 -0.1348
   43MOL0     C 5730   5.910   8.484   2.789  0.3419 -0.0837 -0.7670
   43MOL0     C 5731   5.782   8.455   2.704 -0.2179 -0.3228  0.2555
   43MOL0     C 5732   5.664   8.391   2.781  0.1309 -0.6285 -0.3842
   43MOL0     C 5733   5.560   8.368   2.673 -0.4292  0.6217 -0.4422
   43MOL0     C 5734   5.473   8.337   2.593  0.5493 -0.8132 -0.2747
   43MOL0     C 5735   6.011   8.807   2.470 -0.1835 -1.2275  1.0831
   43MOL0     C 5736   6.096   8.877   2.384  0.3929 -0.5231  0.3780
   43MOL0     C 5737   6.024   8.976   2.292 -0.0605  0.7066 -0.7796
   43MOL0     H 5738   6.458   9.204   2.352  0.0006 -2.3251 -0.4842
   43MOL0     H 5739   6.623   9.346   2.262 -2.0206  1.2094 -2.7184
   43MOL0     H 5740   6.775   9.448   2.143 -0.7272 -0.9253 -2.6359
   43MOL0     H 5741   6.914   9.379   2.225  2.2848  1.3975 -1.1348
   43MOL0     H 5742   6.941   9.566   2.065 -1.1093  0.0032 -0.3448
   43MOL0     H 5743   6.916   9.452   1.926 -1.5046 -1.9401  0.2926
   43MOL0     H 5744   7.093   9.296   2.046  0.3457  0.5673 -0.1347
   43MOL0     H 5745   7.145   9.430   2.130  1.9617  0.4653 -0.7701
   43MOL0     H 5746   7.133   9.397   1.827  0.3147  2.2588 -1.1751
   43MOL0     H 5747   7.177   9.550   1.898 -2.0691  0.3148  0.2750
   43MOL0     H 5748   7.365   9.414   2.018  1.0852  1.2803 -0.8865
   43MOL0     H 5749   7.297   9.266   1.945 -1.1244  0.0556 -0.2357
   43MOL0     H 5750   7.516   9.378   1.837 -0.4695 -1.0061 -0.7467
   43MOL0     H 5751   7.386   9.333   1.721 -0.0504 -0.6183 -0.3532
   43MOL0     H 5752   7.309   9.568   1.705 -0.5990  2.4805  0.8305
   43MOL0     H 5753   7.464   9.554   1.652  0.0239  1.2235 -0.8986
   43MOL0     H 5754   7.440   9.744   1.825  0.4572 -1.1003 -2.5178
   43MOL0     H 5755   7.376   9.640   1.938  0.3196  0.5593  0.4889
   43MOL0     H 5756   7.698   9.571   1.725  3.8682  1.4232 -0.0063
   43MOL0     H 5757   7.899   9.427   1.793  0.7164  0.1564  0.0035
   43MOL0     H 5758   7.985   9.570   1.847 -1.2446  1.1431 -1.2152
   43MOL0     H 5759   7.981   9.459   2.082  3.3751 -1.9976  0.1635
   43MOL0     H 5760   7.892   9.337   2.025  0.8650  0.4437  1.1939
   43MOL0     H 5761   8.169   9.415   1.894 -0.3197 -1.3348 -0.6780
   43MOL0     H 5762   8.071   9.274   1.854  0.0039  0.1540 -0.0900
   43MOL0     H 5763   8.148   9.175   2.087  1.6808 -0.3870 -0.9745
   43MOL0     H 5764   8.185   9.337   2.139  0.5983  0.6112 -0.6695
   43MOL0     H 5765   8.534   9.174   1.881 -1.3406  3.5458 -0.0615
   43MOL0     H 5766   8.728   9.090   1.994 -0.2979 -0.0566 -0.5880
   43MOL0     H 5767   8.997   9.316   2.336 -1.7052  0.2856 -0.6660
   43MOL0     H 5768   9.247   9.376   2.342 -0.1726  0.0580  1.0231
   43MOL0     H 5769   9.486   9.393   2.332  1.3963 -0.1098 -0.1727
   43MOL0     H 5770   9.436   9.251   2.427 -2.9004 -1.4995 -1.8397
   43MOL0     H 5771   9.656   9.151   2.329  0.0529 -0.0946  0.9658
   43MOL0     H 5772   9.701   9.319   2.283 -2.2236  1.8909 -0.9432
   43MOL0     H 5773   9.688   9.392   2.526  0.6279  0.8768 -1.2135
   43MOL0     H 5774   9.643   9.230   2.569  0.7341 -0.7045  0.0715
   43MOL0     H 5775   9.875   9.292   2.616 -0.5129  4.8723 -1.1366
   43MOL0     H 5776   9.897   9.309   2.438  0.4630  0.8096  0.8052
   43MOL0     H 5777   9.857   9.071   2.397  0.0071 -2.4784  0.5681
   43MOL0     H 5778   9.803   9.058   2.555 -3.2968  3.4307  0.0221
   43MOL0     H 5779  10.060   9.091   2.622  3.2996 -1.2809 -0.7906
   43MOL0     H 5780  10.046   8.970   2.505  3.3743 -0.5181  2.7443
   43MOL0     H 5781  10.120   9.262   2.437 -0.4898 -1.4911 -0.7683
   43MOL0     H 5782  10.110   9.141   2.318 -1.0025 -2.8256 -0.4084
   43MOL0     H 5783  10.299   9.120   2.553  0.5818  0.2538 -0.4605
   43MOL0     H 5784  10.295   9.000   2.414  1.3649  0.5668 -3.0863
   43MOL0     H 5785   9.333   9.070   2.060  0.2291 -0.0233 -0.2136
   43MOL0     H 5786   9.091   9.027   2.033 -1.9589  1.0076  0.9149
   43MOL0     H 5787   8.572   9.239   2.368 -0.5059 -0.1542  0.2881
   43MOL0     H 5788   8.367   9.291   2.265 -0.3839  0.1493  0.9591
   43MOL0     H 5789   6.809   8.994   2.082 -1.9704 -1.4057 -0.0430
   43MOL0     H 5790   6.658   8.860   2.195  2.0345  0.3979  0.0957
   43MOL0     H 5791   6.389   8.788   2.533  0.9874 -1.8259  0.9059
   43MOL0     H 5792   6.253   8.690   2.685  3.5010 -1.8741 -2.5297
   43MOL0     H 5793   6.094   8.595   2.794  1.1087 -0.7931  1.0125
   43MOL0     H 5794   6.066   8.503   2.646 -1.2321  0.6183 -2.2157
   43MOL0     H 5795   5.878   8.551   2.870 -1.0942 -1.4619 -0.1486
   43MOL0     H 5796   5.943   8.391   2.836  0.6702  0.7941  0.8346
   43MOL0     H 5797   5.809   8.380   2.629  1.8074 -0.1064  0.7020
   43MOL0     H 5798   5.746   8.544   2.653  0.2910 -0.1524  0.1895
   43MOL0     H 5799   5.689   8.299   2.834  0.5763 -1.3097 -1.7231
   43MOL0     H 5800   5.630   8.462   2.857 -0.1218 -0.8575 -0.2842
   43MOL0     H 5801   5.390   8.314   2.530  1.9174 -0.2508 -2.3738
   43MOL0     H 5802   5.903   8.821   2.463  0.1134  0.4725 -2.1922
   43MOL0     H 5803   6.071   9.074   2.300  0.8321  0.2844 -0.7374
   43MOL0     H 5804   6.038   8.933   2.192 -2.8383 -0.1930 -0.8810
   43MOL0     H 5805   5.916   8.986   2.308  0.1496 -0.1395  1.4033
   44MOL0     O 5806  10.014   5.880   4.262  0.3267  0.7018  0.5029
   44MOL0     C 5807   9.968   5.955   4.175 -0.2339  0.2218 -0.4494
   44MOL0     O 5808  10.030   6.068   4.134 -0.0771 -0.3407 -0.0391
   44MOL0     C 5809  10.158   6.096   4.183  0.0079  0.1744  0.1864
   44MOL0     C 5810  10.272   6.024   4.150 -0.2284 -0.4453 -0.4492
   44MOL0     C 5811  10.395   6.064   4.200 -0.7284  0.4044 -0.4677
   44MOL0     C 5812  10.410   6.175   4.284 -0.7542  0.1914  0.1112
   44MOL0     O 5813  10.537   6.216   4.325 -0.4437  0.0512  0.1714
   44MOL0     C 5814  10.546   6.316   4.434  0.9779 -0.8129 -1.0078
   44MOL0     C 5815  10.687   6.371   4.452 -0.1890  0.0725  0.4103
   44MOL0     C 5816  10.758   6.414   4.325 -1.0244 -0.1299 -0.0561
   44MOL0     C 5817  10.882   6.499   4.349  0.1558 -0.7225 -0.2835
   44MOL0     C 5818  10.979   6.460   4.461 -0.0229 -0.2826  0.0880
   44MOL0     C 5819  11.050   6.330   4.428 -0.3085 -0.0938 -0.2333
   44MOL0     C 5820  11.168   6.328   4.525  0.1466  0.1262  0.1771
   44MOL0     C 5821  11.249   6.195   4.489 -0.0448 -0.2069 -0.1213
   44MOL0     N 5822  11.354   6.165   4.589  0.5814 -0.2085 -0.4782
   44MOL0     C 5823  11.365   6.054   4.663  0.8770 -0.0004 -0.3218
   44MOL0     C 5824  11.494   6.063   4.711  0.7872  0.0413 -0.4095
   44MOL0     C 5825  11.552   5.961   4.796 -0.1850  0.6850 -0.8593
   44MOL0     C 5826  11.707   5.951   4.779  0.5456 -0.0826  0.6718
   44MOL0     C 5827  11.760   5.819   4.820 -0.7290  0.8967 -0.3464
   44MOL0     C 5828  11.904   5.827   4.855  0.6285  0.2006 -0.0254
   44MOL0     O 5829  11.916   5.882   4.990  1.1809  0.6633 -0.2196
   44MOL0     C 5830  12.036   5.889   5.054  0.6027 -0.3208  0.2336
   44MOL0     C 5831  12.157   5.902   4.990  0.3561  0.4488 -0.4910
   44MOL0     C 5832  12.287   5.912   5.058  0.1585  0.1149 -0.2074
   44MOL0     C 5833  12.298   5.898   5.198  0.8817  0.7060  0.2440
   44MOL0     C 5834  12.429   5.889   5.266  0.2342  0.8234  0.4829
   44MOL0     O 5835  12.427   5.900   5.392 -0.4386  1.1083 -0.5251
   44MOL0     C 5836  12.540   5.881   5.472  0.6594 -0.3367 -0.2848
   44MOL0     C 5837  12.641   5.782   5.453 -0.1309  0.3962  0.3458
   44MOL0     C 5838  12.754   5.781   5.530 -0.5522 -0.0071  0.3565
   44MOL0     C 5839  12.774   5.881   5.624 -1.0678  0.5618  0.3251
   44MOL0     O 5840  12.882   5.886   5.703 -0.5007 -0.2623 -0.6278
   44MOL0     C 5841  13.008   5.923   5.644  0.7488  0.7936  0.1311
   44MOL0     C 5842  13.120   5.846   5.710  0.4279 -0.3994 -0.2806
   44MOL0     C 5843  13.249   5.838   5.621  0.2392  0.2508  0.5837
   44MOL0     C 5844  13.375   5.845   5.708  1.1716  0.5043 -1.0366
   44MOL0     C 5845  13.488   5.786   5.629 -0.8362  0.0169 -0.1129
   44MOL0     C 5846  13.623   5.811   5.700 -0.3096 -0.3424  0.0033
   44MOL0     C 5847  13.628   5.793   5.850  0.4891 -0.7332 -0.1570
   44MOL0     C 5848  13.772   5.826   5.896  0.4218  0.2033 -0.0320
   44MOL0    Cl 5849  13.878   5.699   5.837  0.1837  0.2385 -0.6422
   44MOL0     C 5850  12.667   5.965   5.652  0.1667  0.4143 -0.3010
   44MOL0     C 5851  12.550   5.974   5.576 -0.4966 -0.2126 -0.4583
   44MOL0     O 5852  12.530   5.878   5.194  0.4060 -0.2370  0.5852
   44MOL0     C 5853  12.171   5.893   5.262 -0.5901  0.5577  0.1667
   44MOL0     C 5854  12.048   5.893   5.194 -0.1412 -0.4622 -0.4582
   44MOL0     N 5855  11.549   6.186   4.675 -0.0045 -0.1452  0.1159
   44MOL0     N 5856  11.462   6.241   4.594  0.1197  0.1876 -0.7532
   44MOL0     C 5857  10.293   6.248   4.315 -0.1418  0.1306  0.2306
   44MOL0     C 5858  10.171   6.219   4.256 -0.1653  0.0790  0.3719
   44MOL0     C 5859   9.831   5.935   4.122 -1.2459 -0.3493 -0.5047
   44MOL0     C 5860   9.754   6.049   4.078  0.1666  0.6141  0.2904
   44MOL0     C 5861   9.620   6.040   4.033 -0.6886  0.0125 -0.2127
   44MOL0     C 5862   9.561   5.909   4.025  0.3590 -0.5030  0.8461
   44MOL0     O 5863   9.428   5.907   3.986  0.6617  0.5326 -0.6662
   44MOL0     C 5864   9.364   5.775   3.959 -0.0496  0.2086 -0.4288
   44MOL0     C 5865   9.220   5.791   3.901 -0.4873 -0.2830 -0.6844
   44MOL0     C 5866   9.202   5.894   3.792 -0.2429  0.2785  1.1304
   44MOL0     C 5867   9.051   5.899   3.750  0.5314  0.0306 -0.4209
   44MOL0     C 5868   8.962   5.984   3.834  0.1992 -0.1355  0.4282
   44MOL0     C 5869   8.894   6.063   3.897 -0.3599  0.0405 -0.3051
   44MOL0     C 5870   9.633   5.799   4.068 -0.6239  0.3731 -0.7874
   44MOL0     C 5871   9.766   5.810   4.111 -0.1013  0.6467 -0.2337
   44MOL0     C 5872   9.830   5.682   4.159  0.0436  1.0776 -0.0371
   44MOL0     H 5873  10.241   5.943   4.084 -1.6355  2.3920 -3.5149
   44MOL0     H 5874  10.481   6.005   4.172 -1.3998  0.0278 -1.7920
   44MOL0     H 5875  10.481   6.402   4.416  4.4274  2.2172 -0.1538
   44MOL0     H 5876  10.510   6.286   4.533  0.6845  2.9274  0.1751
   44MOL0     H 5877  10.749   6.291   4.495 -1.8524 -0.5771  1.7319
   44MOL0     H 5878  10.677   6.452   4.524 -1.7730  1.2362 -1.0127
   44MOL0     H 5879  10.686   6.480   4.275 -1.7427 -0.9213 -0.0900
   44MOL0     H 5880  10.772   6.329   4.258  0.4139  0.2708 -0.3017
   44MOL0     H 5881  10.935   6.504   4.254 -3.2873 -3.2448 -2.6022
   44MOL0     H 5882  10.843   6.599   4.373  1.2836 -0.5249  0.8043
   44MOL0     H 5883  11.038   6.548   4.489  1.0315 -0.4233 -1.5972
   44MOL0     H 5884  10.922   6.437   4.552 -0.9242 -2.0164 -0.8604
   44MOL0     H 5885  10.984   6.247   4.455 -3.3244  2.0675 -0.5226
   44MOL0     H 5886  11.098   6.330   4.330  1.9779 -0.7685  0.8012
   44MOL0     H 5887  11.151   6.330   4.633  1.3843 -3.5415  0.5803
   44MOL0     H 5888  11.223   6.421   4.507  1.0893 -0.0955  1.6829
   44MOL0     H 5889  11.186   6.107   4.472 -1.1348  0.4887  0.2537
   44MOL0     H 5890  11.299   6.210   4.393 -0.7556 -1.5021 -0.7224
   44MOL0     H 5891  11.300   5.968   4.677  1.8062 -0.7077 -0.2997
   44MOL0     H 5892  11.511   5.976   4.897 -1.3807  4.4703 -1.7738
   44MOL0     H 5893  11.510   5.867   4.759  0.6528  0.1023 -0.3772
   44MOL0     H 5894  11.721   5.959   4.671  1.8938 -1.2892  0.7224
   44MOL0     H 5895  11.765   6.037   4.810  1.9049  0.6432 -3.3209
   44MOL0     H 5896  11.742   5.756   4.733  0.6098 -2.0531  1.3533
   44MOL0     H 5897  11.701   5.772   4.900 -1.3799 -0.5898 -1.6627
   44MOL0     H 5898  11.957   5.898   4.791  2.4397  1.2684  2.4998
   44MOL0     H 5899  11.955   5.730   4.848  1.6762  0.6941  0.6045
   44MOL0     H 5900  12.176   5.900   4.883  0.2629 -1.8853 -0.5120
   44MOL0     H 5901  12.378   5.915   5.000  0.0784  1.0127 -0.3038
   44MOL0     H 5902  12.639   5.709   5.373 -1.2297 -1.0429  1.6275
   44MOL0     H 5903  12.822   5.697   5.519 -2.4218 -1.2288 -3.7052
   44MOL0     H 5904  12.996   5.886   5.542  1.6216 -1.5408  0.8129
   44MOL0     H 5905  13.021   6.032   5.644 -0.8953  1.0156  0.3719
   44MOL0     H 5906  13.142   5.904   5.800 -1.7077  2.4956 -1.4842
   44MOL0     H 5907  13.083   5.745   5.732 -1.5453  0.1255 -0.9546
   44MOL0     H 5908  13.238   5.742   5.568  0.0293  1.0120 -0.7886
   44MOL0     H 5909  13.266   5.913   5.544 -0.9782 -0.8691 -0.8486
   44MOL0     H 5910  13.356   5.792   5.802 -1.4119  2.5493 -0.2578
   44MOL0     H 5911  13.397   5.948   5.737  2.0382  0.0008  0.1691
   44MOL0     H 5912  13.486   5.842   5.535 -1.5791  1.3459  0.6608
   44MOL0     H 5913  13.474   5.678   5.615 -1.3469  0.2574 -1.6239
   44MOL0     H 5914  13.703   5.745   5.666  0.4283 -0.3041  1.5545
   44MOL0     H 5915  13.660   5.912   5.678  0.4993  0.4494  4.1508
   44MOL0     H 5916  13.608   5.691   5.884  0.6308 -1.0102 -0.9008
   44MOL0     H 5917  13.558   5.864   5.894  0.4679 -0.4122 -0.7022
   44MOL0     H 5918  13.816   5.922   5.867  2.3423 -0.7752 -0.5684
   44MOL0     H 5919  13.783   5.814   6.005  0.6198  0.5910 -0.0087
   44MOL0     H 5920  12.663   6.028   5.739  2.6418 -1.3422  1.2217
   44MOL0     H 5921  12.477   6.051   5.601 -2.0628 -1.3902 -1.2565
   44MOL0     H 5922  12.171   5.890   5.370 -1.1738 -0.4679  0.1621
   44MOL0     H 5923  11.956   5.891   5.251 -0.1704  1.9988 -0.2946
   44MOL0     H 5924  10.290   6.332   4.385 -0.4413  1.7438 -1.6207
   44MOL0     H 5925  10.090   6.283   4.291  0.2269  0.6006  0.3489
   44MOL0     H 5926   9.802   6.145   4.094  2.1480 -0.3248  0.3142
   44MOL0     H 5927   9.569   6.132   4.006 -0.9688  0.3775  1.4867
   44MOL0     H 5928   9.355   5.727   4.057 -1.0618  0.6125 -0.3027
   44MOL0     H 5929   9.422   5.708   3.896  2.7071  2.0511 -0.0010
   44MOL0     H 5930   9.148   5.810   3.981  0.3917 -1.3982  0.4024
   44MOL0     H 5931   9.185   5.694   3.866 -0.8806 -0.0533 -0.9303
   44MOL0     H 5932   9.254   5.855   3.705 -1.4096 -0.0475  0.5589
   44MOL0     H 5933   9.231   5.993   3.830 -2.3859  0.8284  1.5274
   44MOL0     H 5934   9.040   5.934   3.647  0.6354 -1.5646 -1.0033
   44MOL0     H 5935   9.010   5.798   3.763 -1.6004  1.0678  1.8777
   44MOL0     H 5936   8.827   6.132   3.945  1.2574  1.6595 -0.2965
   44MOL0     H 5937   9.582   5.703   4.059  0.2165 -0.6047  2.9730
   44MOL0     H 5938   9.931   5.678   4.117 -0.7005 -3.5683 -1.9266
   44MOL0     H 5939   9.824   5.681   4.269 -0.4456 -1.1476 -0.0293
   44MOL0     H 5940   9.780   5.594   4.117 -0.5510  2.8158 -3.2049
   45MOL0     O 5941   2.690  10.907   1.764  0.0964  0.2830 -0.4154
   45MOL0     C 5942   2.641  10.998   1.689  0.0046 -0.5805 -0.1140
   45MOL0     O 5943   2.699  11.114   1.672 -0.5711 -0.3067 -0.5113
   45MOL0     C 5944   2.837  11.108   1.684 -0.2108 -0.8482 -0.5005
   45MOL0     C 5945   2.910  11.154   1.574  0.1953  0.6378  0.8956
   45MOL0     C 5946   3.046  11.170   1.577 -0.6309  0.6604  0.7536
   45MOL0     C 5947   3.113  11.142   1.700  0.2624 -0.0681 -0.7252
   45MOL0     O 5948   3.246  11.145   1.722 -1.1017  0.2558  0.3082
   45MOL0     C 5949   3.341  11.176   1.620  0.2231 -0.4883 -1.1864
   45MOL0     C 5950   3.478  11.177   1.681 -0.0741 -0.3189 -0.1311
   45MOL0     C 5951   3.585  11.243   1.604 -0.4686  0.5987  0.1347
   45MOL0     C 5952   3.728  11.184   1.640 -0.6357 -0.2187 -0.2547
   45MOL0     C 5953   3.842  11.280   1.597  0.6170  0.1021  0.3857
   45MOL0     C 5954   3.975  11.226   1.633  0.2232  0.1591 -0.1247
   45MOL0     C 5955   4.098  11.310   1.618  0.1998 -0.3058  0.0703
   45MOL0     C 5956   4.225  11.242   1.595 -0.0270 -0.0297 -0.2029
   45MOL0     N 5957   4.334  11.339   1.564 -0.7320  0.3203  0.3816
   45MOL0     C 5958   4.322  11.440   1.478 -0.3110 -0.4467 -0.3331
   45MOL0     C 5959   4.447  11.491   1.459  0.6688 -0.1078  0.2516
   45MOL0     C 5960   4.504  11.592   1.366 -0.3769 -0.7115  0.4497
   45MOL0     C 5961   4.656  11.601   1.362 -1.0194  0.1359  0.7140
   45MOL0     C 5962   4.724  11.682   1.476 -0.4797 -0.5860  0.3350
   45MOL0     C 5963   4.870  11.669   1.488 -0.1959  0.3116  0.1928
   45MOL0     O 5964   4.945  11.694   1.369  0.0693  0.3171  0.1807
   45MOL0     C 5965   5.082  11.722   1.377  0.4665  0.1454 -0.8930
   45MOL0     C 5966   5.145  11.770   1.266 -0.1940  0.7889 -0.5167
   45MOL0     C 5967   5.269  11.815   1.262  0.0257  0.1936  0.6958
   45MOL0     C 5968   5.348  11.801   1.370 -0.5130  0.0492  0.1736
   45MOL0     C 5969   5.499  11.827   1.374  0.1556 -0.6079  0.0883
   45MOL0     O 5970   5.541  11.900   1.266 -0.3590  0.6809  0.0206
   45MOL0     C 5971   5.669  11.943   1.238 -1.3741  0.1012 -0.1600
   45MOL0     C 5972   5.676  12.038   1.138 -0.1903 -0.3007  0.1497
   45MOL0     C 5973   5.804  12.089   1.097 -0.8705 -0.6668 -0.3437
   45MOL0     C 5974   5.921  12.054   1.164 -0.9143 -0.9433  0.3787
   45MOL0     O 5975   6.057  12.097   1.147  0.4097 -1.0163 -0.2539
   45MOL0     C 5976   6.080  12.216   1.075 -0.1800 -0.2391 -0.6430
   45MOL0     C 5977   6.233  12.230   1.049  0.4972  0.1058 -0.7766
   45MOL0     C 5978   6.302  12.097   1.003 -0.3169  0.5754 -0.0134
   45MOL0     C 5979   6.453  12.111   1.002  0.1001  0.1405  0.0262
   45MOL0     C 5980   6.519  11.976   0.970  0.0091  0.2680 -0.1985
   45MOL0     C 5981   6.673  11.987   0.971 -0.0926 -0.4175 -0.0626
   45MOL0     C 5982   6.748  11.874   0.917  0.0831 -0.2706  0.2860
   45MOL0     C 5983   6.873  11.911   0.845 -0.1316 -0.9740  0.5979
   45MOL0    Cl 5984   6.833  11.927   0.676  0.1581  0.1268  0.3643
   45MOL0     C 5985   5.912  11.960   1.261  0.7984  0.1965 -0.1117
   45MOL0     C 5986   5.790  11.908   1.298 -0.4991 -0.0848  0.4239
   45MOL0     O 5987   5.567  11.782   1.470  0.6316  0.3186  0.3704
   45MOL0     C 5988   5.293  11.751   1.488 -0.2767  0.6208 -0.1655
   45MOL0     C 5989   5.160  11.706   1.495 -0.8292  0.0243 -0.2350
   45MOL0     N 5990   4.519  11.432   1.563  0.0160  0.8467  0.5724
   45MOL0     N 5991   4.462  11.330   1.613  0.2261  0.2980 -0.4161
   45MOL0     C 5992   3.039  11.103   1.815  0.1251  0.1856 -0.0316
   45MOL0     C 5993   2.901  11.086   1.805 -0.4518 -0.1677  0.1755
   45MOL0     C 5994   2.501  10.977   1.640  0.0754 -0.2972  0.5079
   45MOL0     C 5995   2.419  11.086   1.626  0.0668 -0.0775 -0.6089
   45MOL0     C 5996   2.290  11.065   1.586  0.2045 -0.7035 -0.0649
   45MOL0     C 5997   2.234  10.947   1.540  0.1232  0.2215  0.2303
   45MOL0     O 5998   2.107  10.951   1.501  0.0164  0.0180 -0.3607
   45MOL0     C 5999   2.030  10.832   1.466 -0.2713  0.0559  0.1470
   45MOL0     C 6000   1.889  10.880   1.428 -0.8190  0.0526 -0.3819
   45MOL0     C 6001   1.900  10.976   1.309  0.8397 -0.6312 -0.2217
   45MOL0     C 6002   1.777  10.987   1.230  0.5738  0.1723  0.2629
   45MOL0     C 6003   1.816  11.057   1.105  0.3627 -0.1521  0.1833
   45MOL0     C 6004   1.841  11.124   1.003 -0.0340  0.3034  0.3939
   45MOL0     C 6005   2.320  10.839   1.551  0.3471  0.3372  0.3550
   45MOL0     C 6006   2.450  10.851   1.605 -0.7311 -0.6597 -0.1014
   45MOL0     C 6007   2.531  10.726   1.604 -0.5208 -0.0321 -0.1082
   45MOL0     H 6008   2.852  11.189   1.490 -0.3508  1.7140  1.6950
   45MOL0     H 6009   3.105  11.193   1.489 -0.6244 -1.2683  0.2188
   45MOL0     H 6010   3.329  11.095   1.546 -1.8401 -0.9199 -0.4610
   45MOL0     H 6011   3.325  11.272   1.570  0.9829 -0.4500 -1.3581
   45MOL0     H 6012   3.511  11.076   1.710  0.7289  0.7099  2.9945
   45MOL0     H 6013   3.473  11.228   1.778  1.3456 -2.3529  1.0869
   45MOL0     H 6014   3.588  11.351   1.619  3.3215  0.6255  0.1664
   45MOL0     H 6015   3.570  11.216   1.499  0.8604 -1.4014  0.4150
   45MOL0     H 6016   3.729  11.151   1.744 -1.8662  0.7446  0.0834
   45MOL0     H 6017   3.732  11.090   1.584  0.3568 -0.2941 -0.0755
   45MOL0     H 6018   3.822  11.290   1.490  1.6970  1.6234  0.2844
   45MOL0     H 6019   3.831  11.377   1.648  0.8449 -0.1053  0.8335
   45MOL0     H 6020   3.967  11.178   1.731 -0.5109  2.4632  1.0043
   45MOL0     H 6021   3.985  11.138   1.569  4.4171  0.1776  0.2131
   45MOL0     H 6022   4.124  11.375   1.702  2.5316 -0.7168 -0.2721
   45MOL0     H 6023   4.078  11.364   1.525 -0.2166 -0.8633 -0.1729
   45MOL0     H 6024   4.258  11.194   1.687 -0.2207 -0.0956 -0.1677
   45MOL0     H 6025   4.208  11.165   1.519 -1.9811 -0.6883  0.8355
   45MOL0     H 6026   4.233  11.476   1.429 -1.5441 -0.8653  1.4908
   45MOL0     H 6027   4.451  11.585   1.271 -2.9043 -0.4507  1.7463
   45MOL0     H 6028   4.479  11.693   1.401  2.7810 -0.3957  2.2111
   45MOL0     H 6029   4.704  11.502   1.356 -1.6179 -0.1436  0.3991
   45MOL0     H 6030   4.694  11.635   1.265  2.4669  0.9659  2.2209
   45MOL0     H 6031   4.677  11.644   1.567 -1.3821  0.4080  0.2942
   45MOL0     H 6032   4.697  11.787   1.460  3.0575  0.3981 -0.0684
   45MOL0     H 6033   4.890  11.567   1.524  0.5208  0.6946  0.9145
   45MOL0     H 6034   4.912  11.726   1.572 -0.3123  0.3842  0.2008
   45MOL0     H 6035   5.074  11.775   1.183 -1.6176 -1.6222  0.4284
   45MOL0     H 6036   5.314  11.843   1.167 -0.8685  3.0552  1.0294
   45MOL0     H 6037   5.589  12.063   1.078 -0.6354 -1.6918  0.1764
   45MOL0     H 6038   5.821  12.172   1.029 -3.1667  0.5269  0.4454
   45MOL0     H 6039   6.036  12.213   0.975 -1.6803 -0.4207 -0.0001
   45MOL0     H 6040   6.045  12.305   1.127  0.7018  0.8033 -1.7704
   45MOL0     H 6041   6.251  12.312   0.979 -1.5317  0.5693 -0.8224
   45MOL0     H 6042   6.278  12.255   1.146  0.3183  1.0399 -0.9271
   45MOL0     H 6043   6.277  12.008   1.062 -3.9877  0.6346 -1.2348
   45MOL0     H 6044   6.271  12.078   0.900 -1.0558  0.1841  0.2715
   45MOL0     H 6045   6.484  12.153   1.099 -0.5106 -1.2424  0.8448
   45MOL0     H 6046   6.473  12.199   0.940 -1.6570  1.1664  0.8099
   45MOL0     H 6047   6.475  11.936   0.878 -1.1872  2.9162 -0.8814
   45MOL0     H 6048   6.487  11.914   1.054  0.5753 -2.7054 -2.0160
   45MOL0     H 6049   6.700  12.081   0.922  1.1254  0.2457  1.7642
   45MOL0     H 6050   6.705  11.995   1.076  3.3158 -2.4356 -0.8190
   45MOL0     H 6051   6.683  11.828   0.842  0.8543  0.3573 -0.7909
   45MOL0     H 6052   6.775  11.799   0.992  2.2950  0.9927  0.8555
   45MOL0     H 6053   6.913  12.002   0.890 -0.6764 -1.1810  1.5345
   45MOL0     H 6054   6.940  11.827   0.866 -0.0428 -1.5844 -1.8199
   45MOL0     H 6055   5.999  11.933   1.321 -0.9116 -0.1575  2.3832
   45MOL0     H 6056   5.784  11.830   1.374 -2.1066  0.3822  0.8122
   45MOL0     H 6057   5.354  11.731   1.576  2.9375 -0.0109 -2.3740
   45MOL0     H 6058   5.128  11.665   1.591  0.8038  1.3755  0.9557
   45MOL0     H 6059   3.098  11.085   1.904 -1.6385  0.4710  1.2396
   45MOL0     H 6060   2.846  11.047   1.890  1.5563 -0.5159  1.3810
   45MOL0     H 6061   2.453  11.188   1.638 -0.1395  0.1428 -1.8177
   45MOL0     H 6062   2.237  11.157   1.564  0.2190 -1.0471 -1.7398
   45MOL0     H 6063   2.006  10.782   1.560  4.6954 -0.4423  1.4560
   45MOL0     H 6064   2.073  10.757   1.399 -0.6636 -0.3751  0.3745
   45MOL0     H 6065   1.840  10.939   1.506 -0.7090 -0.5847  0.1822
   45MOL0     H 6066   1.836  10.789   1.397  1.1316 -1.4674  0.4894
   45MOL0     H 6067   1.985  10.947   1.246  0.2334  1.9255 -2.3694
   45MOL0     H 6068   1.913  11.077   1.348 -1.4910  0.2979 -1.6379
   45MOL0     H 6069   1.738  10.889   1.200 -2.2893  0.9160  1.2075
   45MOL0     H 6070   1.700  11.037   1.290  0.0990  0.3432 -0.4693
   45MOL0     H 6071   1.862  11.186   0.919 -3.5651 -0.4015 -1.1893
   45MOL0     H 6072   2.279  10.740   1.532 -1.6842  0.9868  1.1043
   45MOL0     H 6073   2.492  10.645   1.541  1.9889 -1.9373  0.6090
   45MOL0     H 6074   2.635  10.745   1.575 -0.4703  0.3630  0.3263
   45MOL0     H 6075   2.545  10.683   1.703  2.9645 -2.8492 -1.5831
   46MOL0     O 6076  10.946   4.650   9.813 -0.1221 -0.7095 -0.0593
   46MOL0     C 6077  10.894   4.657   9.922 -0.5470  0.1082  0.0921
   46MOL0     O 6078  10.958   4.679  10.041 -0.2571  0.4456  0.1479
   46MOL0     C 6079  11.097   4.699  10.051 -0.1347 -0.0458  1.1195
   46MOL0     C 6080  11.145   4.693  10.175  0.2018  0.0043  0.9226
   46MOL0     C 6081  11.268   4.741  10.212  0.0370 -0.0669  0.2797
   46MOL0     C 6082  11.364   4.766  10.112  0.3344 -0.4102  0.9296
   46MOL0     O 6083  11.493   4.801  10.145 -0.8197  0.2318  0.3662
   46MOL0     C 6084  11.549   4.910  10.067 -0.6980 -0.4106  0.3933
   46MOL0     C 6085  11.685   4.946  10.112  0.3103  0.1758 -0.1059
   46MOL0     C 6086  11.740   5.062  10.028 -0.3755  0.5242 -0.2228
   46MOL0     C 6087  11.894   5.070  10.052 -0.2062  0.4997  0.0280
   46MOL0     C 6088  11.974   4.947   9.991 -0.5519 -0.4926  0.0376
   46MOL0     C 6089  12.093   4.995   9.919  0.2938 -0.0844 -0.2904
   46MOL0     C 6090  12.186   4.876   9.872 -0.0042 -0.1337  0.5141
   46MOL0     C 6091  12.265   4.920   9.749 -0.5963 -0.1699  0.4141
   46MOL0     N 6092  12.387   4.831   9.738 -0.3594 -0.2729  1.3244
   46MOL0     C 6093  12.444   4.809   9.620 -0.0572  0.2101  0.1647
   46MOL0     C 6094  12.564   4.761   9.652  0.6672  0.4137 -0.0786
   46MOL0     C 6095  12.668   4.721   9.552  0.0073  1.1868  0.3943
   46MOL0     C 6096  12.683   4.568   9.537 -0.1017 -0.3187  0.4202
   46MOL0     C 6097  12.722   4.499   9.659 -0.4647  0.5239  0.7153
   46MOL0     C 6098  12.775   4.359   9.629  0.6016  0.2035  0.4818
   46MOL0     O 6099  12.909   4.366   9.603  0.0629 -0.0838  0.2453
   46MOL0     C 6100  12.983   4.254   9.586  0.0379 -0.2383  0.3588
   46MOL0     C 6101  12.924   4.129   9.564 -0.2156  0.5714  0.3327
   46MOL0     C 6102  12.997   4.008   9.567 -1.1667 -0.4516  0.0844
   46MOL0     C 6103  13.134   4.022   9.606 -0.4196  0.3651  0.0189
   46MOL0     C 6104  13.211   3.901   9.627 -0.4112  0.2066 -0.4836
   46MOL0     O 6105  13.343   3.908   9.585 -0.3498 -0.0700 -0.1414
   46MOL0     C 6106  13.423   3.793   9.589  0.2338 -0.6732 -0.4008
   46MOL0     C 6107  13.493   3.767   9.475 -0.5105  0.2746 -0.1595
   46MOL0     C 6108  13.596   3.666   9.464  0.3669  0.5766 -0.7220
   46MOL0     C 6109  13.629   3.591   9.579  0.3009  0.4983 -0.3955
   46MOL0     O 6110  13.726   3.495   9.590  0.2820  0.0951 -0.4929
   46MOL0     C 6111  13.851   3.513   9.526 -0.2304 -0.4620  0.5246
   46MOL0     C 6112  13.921   3.378   9.513 -1.0042 -0.0235  0.1751
   46MOL0     C 6113  14.071   3.398   9.464  0.0991 -0.4680 -0.3396
   46MOL0     C 6114  14.144   3.264   9.479  0.9956  0.0563  0.1571
   46MOL0     C 6115  14.280   3.275   9.410 -0.2479  0.1889 -0.6087
   46MOL0     C 6116  14.344   3.138   9.374  0.2995  0.1544  0.5274
   46MOL0     C 6117  14.365   3.053   9.496 -0.2261 -0.1430  0.0876
   46MOL0     C 6118  14.448   3.123   9.602  0.3538  0.1628 -0.2552
   46MOL0    Cl 6119  14.621   3.159   9.573 -0.0945  0.1374  0.4205
   46MOL0     C 6120  13.551   3.619   9.693 -0.3039  0.0563  0.5868
   46MOL0     C 6121  13.449   3.716   9.700  1.1034  0.7891  0.2610
   46MOL0     O 6122  13.155   3.798   9.675 -0.3134 -0.6002 -0.6551
   46MOL0     C 6123  13.191   4.148   9.629 -0.4331 -0.0978 -0.2951
   46MOL0     C 6124  13.117   4.259   9.605  0.6194 -0.1609  0.1200
   46MOL0     N 6125  12.581   4.763   9.787 -0.0517  0.6536 -0.1978
   46MOL0     N 6126  12.476   4.807   9.842 -0.6605 -0.6275 -0.0515
   46MOL0     C 6127  11.319   4.767   9.976  0.0420 -0.6348 -1.6531
   46MOL0     C 6128  11.184   4.745   9.948  0.8308  0.2696  0.3773
   46MOL0     C 6129  10.746   4.674   9.914 -0.2191 -0.0142 -0.3867
   46MOL0     C 6130  10.681   4.631   9.796  0.0106 -0.1692  0.5531
   46MOL0     C 6131  10.537   4.627   9.793  0.6071 -1.1432  0.8221
   46MOL0     C 6132  10.458   4.693   9.883  0.2224  0.0636 -0.3117
   46MOL0     O 6133  10.328   4.714   9.859 -0.4442 -0.0328  0.0213
   46MOL0     C 6134  10.242   4.778   9.954 -1.0861 -0.1500 -0.5817
   46MOL0     C 6135  10.112   4.821   9.893  0.1100 -0.0947 -0.1862
   46MOL0     C 6136  10.037   4.894  10.000 -0.2125  0.4381  0.4894
   46MOL0     C 6137   9.888   4.916   9.949 -0.3564 -0.7946 -0.2005
   46MOL0     C 6138   9.825   5.030  10.019  0.2720  0.9018  0.0994
   46MOL0     C 6139   9.764   5.130  10.054  1.1730 -0.4330 -0.3374
   46MOL0     C 6140  10.530   4.741   9.994  0.8528 -1.2138  0.3430
   46MOL0     C 6141  10.667   4.736  10.020  0.1637  0.6308 -0.0876
   46MOL0     C 6142  10.720   4.775  10.147  0.4142 -0.0899  0.0623
   46MOL0     H 6143  11.076   4.672  10.257  0.0821 -0.5887  0.6742
   46MOL0     H 6144  11.297   4.762  10.314  0.6796 -0.9175  0.2823
   46MOL0     H 6145  11.560   4.879   9.963  1.2529 -4.6590  1.6512
   46MOL0     H 6146  11.490   5.000  10.085  0.9986  0.7429  0.3798
   46MOL0     H 6147  11.741   4.853  10.101  0.7561  0.2582  1.3168
   46MOL0     H 6148  11.684   4.970  10.219 -0.9904  2.3109 -0.5284
   46MOL0     H 6149  11.690   5.153  10.062 -1.5595  0.5493 -1.8997
   46MOL0     H 6150  11.718   5.043   9.922  2.1150  2.0878 -1.1225
   46MOL0     H 6151  11.936   5.165  10.016 -3.0617  1.5171 -0.9704
   46MOL0     H 6152  11.912   5.068  10.159  1.5785  0.8023 -0.2486
   46MOL0     H 6153  11.994   4.874  10.070 -0.6092  0.3751  0.8621
   46MOL0     H 6154  11.913   4.903   9.911  2.2625 -4.7118 -0.1502
   46MOL0     H 6155  12.058   5.048   9.829 -3.6315 -1.5666  0.1775
   46MOL0     H 6156  12.157   5.063   9.976  1.4933 -1.2042 -0.2428
   46MOL0     H 6157  12.135   4.784   9.842 -0.0640 -0.3163  1.1707
   46MOL0     H 6158  12.253   4.849   9.954  3.0051 -3.1527 -2.5750
   46MOL0     H 6159  12.206   4.932   9.658 -1.4006  3.5925  1.2221
   46MOL0     H 6160  12.293   5.024   9.771 -3.7012  0.6256  1.0449
   46MOL0     H 6161  12.404   4.828   9.521  0.4503 -1.6316 -0.4190
   46MOL0     H 6162  12.656   4.765   9.453  2.7148  0.6668 -0.2526
   46MOL0     H 6163  12.767   4.751   9.588  1.3186  0.2216 -2.1526
   46MOL0     H 6164  12.585   4.526   9.509 -1.5264  4.2156 -2.5095
   46MOL0     H 6165  12.752   4.548   9.454 -1.8521 -2.5948 -0.6060
   46MOL0     H 6166  12.626   4.488   9.710 -2.6146 -0.7450 -3.1918
   46MOL0     H 6167  12.799   4.554   9.714  0.6462 -1.2501  1.0588
   46MOL0     H 6168  12.727   4.323   9.538  3.3934 -0.5005 -0.8058
   46MOL0     H 6169  12.760   4.289   9.712  1.7100 -0.8388 -0.1579
   46MOL0     H 6170  12.816   4.119   9.555 -0.1397 -1.2349  0.9705
   46MOL0     H 6171  12.942   3.914   9.563 -1.4487 -0.2670 -0.3957
   46MOL0     H 6172  13.451   3.815   9.388 -4.2950 -0.6119  0.9848
   46MOL0     H 6173  13.642   3.663   9.365  1.0582  1.0411 -0.4282
   46MOL0     H 6174  13.841   3.546   9.422  0.0396  5.2032  2.0031
   46MOL0     H 6175  13.902   3.587   9.588 -0.8631  0.9292 -0.5655
   46MOL0     H 6176  13.927   3.341   9.616  3.0912 -3.3845 -0.9917
   46MOL0     H 6177  13.867   3.312   9.444  0.1131 -0.8005  0.0198
   46MOL0     H 6178  14.066   3.430   9.360 -1.3098 -2.8809 -1.0914
   46MOL0     H 6179  14.126   3.476   9.519 -2.0691  0.7662  0.1809
   46MOL0     H 6180  14.090   3.184   9.427  1.0839 -0.1011  0.3086
   46MOL0     H 6181  14.143   3.230   9.583  1.5433 -0.2477  0.0637
   46MOL0     H 6182  14.356   3.333   9.465 -0.7519 -2.3154  3.0884
   46MOL0     H 6183  14.274   3.337   9.320 -0.6690 -0.8919 -1.3334
   46MOL0     H 6184  14.276   3.089   9.303  1.0655  2.8813 -2.3208
   46MOL0     H 6185  14.438   3.158   9.322 -0.9376  4.5530 -0.3932
   46MOL0     H 6186  14.398   2.951   9.476 -2.5457 -1.0165  0.4514
   46MOL0     H 6187  14.267   3.039   9.542 -0.4002  0.9445  0.0717
   46MOL0     H 6188  14.398   3.214   9.638  1.5570  1.2452 -1.1998
   46MOL0     H 6189  14.448   3.050   9.683 -0.6377  0.5106  0.0702
   46MOL0     H 6190  13.570   3.565   9.786  0.0018 -0.2301  0.3572
   46MOL0     H 6191  13.396   3.739   9.792 -1.4348  2.6317 -1.5513
   46MOL0     H 6192  13.295   4.160   9.657 -0.1342  1.0698 -1.7420
   46MOL0     H 6193  13.166   4.355   9.624  0.0216 -0.3486  3.0690
   46MOL0     H 6194  11.372   4.809   9.891 -1.4080  0.0210 -2.2806
   46MOL0     H 6195  11.149   4.758   9.846  1.0551  1.3148  0.4223
   46MOL0     H 6196  10.727   4.594   9.705  1.1942 -0.0030  1.0770
   46MOL0     H 6197  10.483   4.594   9.705 -0.0787  2.2911 -0.2027
   46MOL0     H 6198  10.300   4.866   9.986  3.2132 -2.4271 -1.2888
   46MOL0     H 6199  10.232   4.706  10.036 -0.7397  0.3370 -0.1053
   46MOL0     H 6200  10.062   4.734   9.849  1.3045 -0.1488 -1.5096
   46MOL0     H 6201  10.128   4.892   9.812 -0.3800  1.1387  0.7633
   46MOL0     H 6202  10.087   4.987  10.031 -1.9557  1.4163  0.5242
   46MOL0     H 6203  10.041   4.839  10.094  0.3935 -0.6756 -0.1800
   46MOL0     H 6204   9.878   4.952   9.846 -3.1876 -0.1717  0.2119
   46MOL0     H 6205   9.822   4.830   9.958  0.1269 -0.9450  2.9980
   46MOL0     H 6206   9.714   5.218  10.089  4.7580  2.0201 -0.8572
   46MOL0     H 6207  10.480   4.790  10.078  0.0678 -1.9700  0.3361
   46MOL0     H 6208  10.648   4.825  10.213  0.7747 -1.2215  1.3705
   46MOL0     H 6209  10.749   4.686  10.203 -0.0724  1.3646  2.8595
   46MOL0     H 6210  10.798   4.851  10.137  0.3494  0.3025  1.9912
   47MOL0     O 6211   3.232   7.012   7.046 -0.9451  0.3114 -0.0667
   47MOL0     C 6212   3.145   6.953   6.986  0.0714  0.2867  0.4028
   47MOL0     O 6213   3.157   6.891   6.860  0.0633 -0.3756  0.4339
   47MOL0     C 6214   3.278   6.905   6.798  0.1519 -0.5320 -0.0707
   47MOL0     C 6215   3.383   6.829   6.837 -0.8596  0.4565  1.4288
   47MOL0     C 6216   3.503   6.821   6.767 -0.2104  0.4730  0.9912
   47MOL0     C 6217   3.514   6.902   6.655  0.0134  0.1137  0.7011
   47MOL0     O 6218   3.620   6.891   6.566  0.6788 -0.4038  0.2921
   47MOL0     C 6219   3.720   6.796   6.595 -0.2252 -0.6475  0.5184
   47MOL0     C 6220   3.820   6.809   6.481  0.2575 -0.4296 -0.8561
   47MOL0     C 6221   3.949   6.719   6.486  1.1839 -0.2982  0.0292
   47MOL0     C 6222   4.007   6.727   6.347 -0.3729  0.7945  0.2860
   47MOL0     C 6223   4.140   6.661   6.341 -0.1970  0.7566 -0.0876
   47MOL0     C 6224   4.258   6.729   6.416 -0.2953  0.2316 -0.2045
   47MOL0     C 6225   4.376   6.634   6.457  0.6610  0.1208  0.2503
   47MOL0     C 6226   4.408   6.530   6.346 -1.1443  0.0540 -0.7007
   47MOL0     N 6227   4.511   6.434   6.378 -0.0586 -0.2462  0.2037
   47MOL0     C 6228   4.617   6.454   6.460  0.1391 -1.1156 -0.3893
   47MOL0     C 6229   4.698   6.348   6.443  0.4589  0.3845 -0.0759
   47MOL0     C 6230   4.834   6.330   6.509  0.5608 -0.7390  0.0997
   47MOL0     C 6231   4.936   6.408   6.432 -0.3390  0.3642 -0.2833
   47MOL0     C 6232   5.005   6.296   6.338  0.2752 -0.4559  0.2086
   47MOL0     C 6233   5.133   6.227   6.382 -0.1714  0.1971  0.4074
   47MOL0     O 6234   5.239   6.331   6.382  0.3467  0.1807 -0.3738
   47MOL0     C 6235   5.374   6.298   6.421 -0.6150  0.9515  0.7036
   47MOL0     C 6236   5.454   6.392   6.480  0.2789  0.4513  0.0051
   47MOL0     C 6237   5.589   6.374   6.504 -0.1154  0.5816  0.1336
   47MOL0     C 6238   5.657   6.259   6.457  0.0412 -0.9578 -0.3593
   47MOL0     C 6239   5.797   6.234   6.479 -0.7704  0.0795  0.7465
   47MOL0     O 6240   5.848   6.125   6.412 -0.5360  0.1040 -0.8103
   47MOL0     C 6241   5.983   6.105   6.423 -0.1775  0.2789 -0.1571
   47MOL0     C 6242   6.062   6.121   6.309  0.1434  0.2252 -0.3984
   47MOL0     C 6243   6.203   6.104   6.323  0.1245  0.5675  0.0338
   47MOL0     C 6244   6.258   6.053   6.436  0.5308  0.0791 -0.2197
   47MOL0     O 6245   6.390   6.022   6.418 -0.5178 -0.0044  0.3118
   47MOL0     C 6246   6.464   5.977   6.536  0.2448 -0.2411  0.5325
   47MOL0     C 6247   6.606   5.956   6.486  0.1246  0.3025 -0.6094
   47MOL0     C 6248   6.685   5.872   6.585  0.1077  0.6188  0.1099
   47MOL0     C 6249   6.825   5.861   6.544 -0.2177 -0.1299 -0.2429
   47MOL0     C 6250   6.916   5.869   6.659 -0.0282  0.3009 -0.2270
   47MOL0     C 6251   7.051   5.883   6.624 -1.2111 -0.3497 -0.6637
   47MOL0     C 6252   7.108   5.768   6.545 -0.1841  0.4058  0.6371
   47MOL0     C 6253   7.257   5.798   6.500  0.0382 -0.1735 -0.5732
   47MOL0    Cl 6254   7.354   5.653   6.450  0.6751  0.5470  0.0746
   47MOL0     C 6255   6.172   6.021   6.544  0.7847  0.0926  0.4665
   47MOL0     C 6256   6.036   6.061   6.541  0.4234 -0.2017  0.8977
   47MOL0     O 6257   5.866   6.318   6.541  0.0926 -0.5784 -0.4264
   47MOL0     C 6258   5.576   6.161   6.391  0.7454  0.0883  0.1454
   47MOL0     C 6259   5.437   6.182   6.377  0.7558 -0.6368  0.4573
   47MOL0     N 6260   4.636   6.263   6.357  0.3284  0.0087 -0.2189
   47MOL0     N 6261   4.528   6.316   6.312  0.9861  1.0872  0.0031
   47MOL0     C 6262   3.410   6.984   6.614  0.6770  0.1395  0.4352
   47MOL0     C 6263   3.288   6.987   6.685 -0.2511  0.7226 -0.3639
   47MOL0     C 6264   3.018   6.941   7.063 -0.2019 -0.4277 -0.7098
   47MOL0     C 6265   3.011   6.875   7.182 -0.5649 -0.3888  0.6867
   47MOL0     C 6266   2.889   6.862   7.254 -0.3317 -0.0894 -0.0603
   47MOL0     C 6267   2.771   6.928   7.217 -0.3224  0.1404  0.2035
   47MOL0     O 6268   2.669   6.919   7.300  0.1338  0.5131  0.5169
   47MOL0     C 6269   2.538   6.951   7.261 -0.2539  0.1675  0.1409
   47MOL0     C 6270   2.465   6.839   7.181  0.1046  0.3198  0.0390
   47MOL0     C 6271   2.485   6.690   7.237 -0.0365 -1.3596 -0.1448
   47MOL0     C 6272   2.629   6.644   7.204 -0.2663 -0.1526 -0.0677
   47MOL0     C 6273   2.629   6.505   7.156 -1.2055  0.1070 -0.5843
   47MOL0     C 6274   2.643   6.392   7.121  1.2850  0.7246  0.6198
   47MOL0     C 6275   2.782   7.001   7.100  1.1001 -0.3476  0.1675
   47MOL0     C 6276   2.896   7.003   7.023  0.4268  0.8750  0.7698
   47MOL0     C 6277   2.898   7.078   6.893 -0.0304  0.0957  0.3207
   47MOL0     H 6278   3.368   6.766   6.924 -1.6970 -0.4742  0.6378
   47MOL0     H 6279   3.579   6.752   6.803 -0.8200 -1.0899 -0.5729
   47MOL0     H 6280   3.772   6.819   6.689  0.7486  1.7859 -0.5299
   47MOL0     H 6281   3.679   6.695   6.598  0.7866 -1.1292 -1.0070
   47MOL0     H 6282   3.855   6.912   6.489 -0.9834 -0.0692  0.4208
   47MOL0     H 6283   3.773   6.794   6.384 -1.1936  1.3081 -0.4858
   47MOL0     H 6284   3.917   6.617   6.512 -1.4651  0.3227 -0.5126
   47MOL0     H 6285   4.023   6.749   6.560  0.8428 -2.0043  1.1290
   47MOL0     H 6286   3.951   6.670   6.273  1.9759  0.1176 -1.0874
   47MOL0     H 6287   4.019   6.832   6.318  0.8985  0.2117 -1.4209
   47MOL0     H 6288   4.133   6.560   6.382  0.1568  1.0372  0.6822
   47MOL0     H 6289   4.176   6.657   6.238  0.7902  2.2210  0.1613
   47MOL0     H 6290   4.298   6.800   6.343 -2.2475 -1.2802 -2.9416
   47MOL0     H 6291   4.241   6.786   6.507  1.5933 -0.9612  0.9601
   47MOL0     H 6292   4.355   6.584   6.552  1.7523 -2.0467 -0.5820
   47MOL0     H 6293   4.464   6.697   6.470  1.2760 -1.0258  2.0687
   47MOL0     H 6294   4.324   6.465   6.318  0.9593 -1.8703 -3.1227
   47MOL0     H 6295   4.433   6.580   6.252  0.8816 -0.8287 -0.6890
   47MOL0     H 6296   4.634   6.548   6.512  0.6419 -0.7417 -1.2021
   47MOL0     H 6297   4.812   6.371   6.608 -0.3991 -0.4516 -0.2211
   47MOL0     H 6298   4.853   6.223   6.520  0.6686 -0.7832 -0.5025
   47MOL0     H 6299   4.884   6.487   6.378 -1.2475 -0.3773 -0.5168
   47MOL0     H 6300   5.017   6.456   6.488 -0.3159  0.6937 -0.5946
   47MOL0     H 6301   5.028   6.344   6.242 -1.9702 -0.8570 -0.5854
   47MOL0     H 6302   4.937   6.220   6.299  1.9509 -1.4350 -0.8893
   47MOL0     H 6303   5.151   6.143   6.314 -1.4122 -0.4954  0.8991
   47MOL0     H 6304   5.115   6.180   6.479  0.1400 -0.3263  0.2116
   47MOL0     H 6305   5.395   6.468   6.530 -1.2315 -1.8314  1.9177
   47MOL0     H 6306   5.644   6.454   6.551  1.2973  0.1598 -0.7314
   47MOL0     H 6307   6.014   6.165   6.222  0.0998 -0.6299 -0.8176
   47MOL0     H 6308   6.266   6.122   6.237  0.5152 -2.8000 -0.5219
   47MOL0     H 6309   6.460   6.051   6.616 -3.3074  3.2275 -2.4409
   47MOL0     H 6310   6.427   5.879   6.568  0.8220  0.1851  2.6298
   47MOL0     H 6311   6.603   5.904   6.390  1.0741  0.1455 -0.5617
   47MOL0     H 6312   6.652   6.056   6.482 -3.3581  2.0814 -0.1253
   47MOL0     H 6313   6.678   5.914   6.685  1.0690 -3.7243  2.2635
   47MOL0     H 6314   6.636   5.776   6.605  0.8895  0.4541  1.3803
   47MOL0     H 6315   6.839   5.944   6.474 -0.0233 -1.3177 -1.6506
   47MOL0     H 6316   6.840   5.765   6.495 -0.1362  0.2394 -0.9485
   47MOL0     H 6317   6.898   5.787   6.729 -1.5984  0.9187  0.1358
   47MOL0     H 6318   6.899   5.960   6.718  1.7512  0.7941 -0.4213
   47MOL0     H 6319   7.066   5.974   6.566  0.8274  0.4681  1.0390
   47MOL0     H 6320   7.109   5.877   6.716  0.7435  0.1652 -1.8143
   47MOL0     H 6321   7.045   5.757   6.456 -1.1580  1.3887  1.1811
   47MOL0     H 6322   7.099   5.674   6.601  1.0503 -1.6226 -2.3350
   47MOL0     H 6323   7.270   5.874   6.422  2.2701  3.0209  2.5611
   47MOL0     H 6324   7.303   5.831   6.594 -3.4582 -1.1314  1.6772
   47MOL0     H 6325   6.207   5.979   6.638 -0.4881  1.4638  1.6044
   47MOL0     H 6326   5.959   6.041   6.615  1.4672 -3.0062  1.3680
   47MOL0     H 6327   5.619   6.067   6.358 -0.1204 -0.8781  1.6561
   47MOL0     H 6328   5.381   6.106   6.324  0.0888 -0.8047  1.3772
   47MOL0     H 6329   3.425   7.054   6.532  1.0117 -0.1208  0.2740
   47MOL0     H 6330   3.216   7.062   6.655 -1.0928  0.9791  2.1058
   47MOL0     H 6331   3.104   6.839   7.223 -0.2016 -0.3784 -0.1204
   47MOL0     H 6332   2.900   6.810   7.349 -0.4003  0.2339  0.1237
   47MOL0     H 6333   2.528   7.046   7.208 -0.6195 -0.6548 -1.3099
   47MOL0     H 6334   2.490   6.976   7.357  0.2066  1.1662  0.1253
   47MOL0     H 6335   2.494   6.838   7.076 -1.2451  2.7108 -0.4179
   47MOL0     H 6336   2.356   6.848   7.177 -0.3084 -2.8117  1.4186
   47MOL0     H 6337   2.413   6.626   7.184  0.3152 -0.4644 -1.7897
   47MOL0     H 6338   2.463   6.683   7.344 -0.9796 -4.2659 -0.4507
   47MOL0     H 6339   2.672   6.713   7.130  0.7389  1.1739  1.6765
   47MOL0     H 6340   2.691   6.658   7.293  0.2418  1.4970 -0.6481
   47MOL0     H 6341   2.648   6.297   7.072  0.3741  1.4741 -1.0119
   47MOL0     H 6342   2.693   7.051   7.064  0.2431 -1.2111  1.0207
   47MOL0     H 6343   2.969   7.161   6.895  0.2221 -0.1264  1.0969
   47MOL0     H 6344   2.927   7.015   6.808 -1.0228  0.3778 -0.2296
   47MOL0     H 6345   2.798   7.117   6.878  0.1470  0.3535 -0.2028
   48MOL0     O 6346   7.873   2.752   8.517  0.4601 -0.0495 -0.1048
   48MOL0     C 6347   7.894   2.635   8.511  0.6890  0.5180 -0.6470
   48MOL0     O 6348   8.012   2.573   8.502 -0.3468  1.0892  0.4182
   48MOL0     C 6349   8.125   2.653   8.509  0.0714  0.7099 -0.2006
   48MOL0     C 6350   8.155   2.747   8.611  0.4500 -0.2459 -0.1157
   48MOL0     C 6351   8.275   2.823   8.598 -0.5181 -0.1599  0.7095
   48MOL0     C 6352   8.362   2.802   8.484 -0.5855  0.1449  0.8955
   48MOL0     O 6353   8.479   2.862   8.455  0.0963 -0.0642 -0.3541
   48MOL0     C 6354   8.561   2.909   8.562  0.0859  0.4225 -0.1657
   48MOL0     C 6355   8.707   2.897   8.510  0.1220  0.1504 -0.1088
   48MOL0     C 6356   8.808   2.962   8.603 -0.2784  0.2509  0.3401
   48MOL0     C 6357   8.951   2.904   8.597  0.1639  0.7861  0.7108
   48MOL0     C 6358   9.054   3.001   8.656  0.3242  0.0492 -0.3417
   48MOL0     C 6359   9.013   3.066   8.793  0.4524 -0.4970 -0.4993
   48MOL0     C 6360   9.129   3.105   8.888  0.5079  0.4706 -0.2025
   48MOL0     C 6361   9.072   3.159   9.023 -0.0365  0.2744  0.6783
   48MOL0     N 6362   9.184   3.166   9.124  0.3892 -0.2789  0.2735
   48MOL0     C 6363   9.276   3.266   9.107 -0.4696  0.1998  0.5369
   48MOL0     C 6364   9.358   3.246   9.218 -0.4238 -0.5235 -0.5835
   48MOL0     C 6365   9.485   3.319   9.249  0.0940  0.1310  0.4509
   48MOL0     C 6366   9.606   3.260   9.174  1.3919  0.2022  0.2419
   48MOL0     C 6367   9.660   3.121   9.226  0.0264 -1.3130 -0.3642
   48MOL0     C 6368   9.718   3.144   9.362 -0.3666 -0.0326 -0.5178
   48MOL0     O 6369   9.819   3.058   9.398  0.0170  0.2012 -0.1936
   48MOL0     C 6370   9.942   3.070   9.338 -0.1608 -0.2391 -0.7515
   48MOL0     C 6371   9.984   3.168   9.244  0.2031 -0.2023 -0.0285
   48MOL0     C 6372  10.108   3.158   9.189 -0.5668 -0.3616  0.9263
   48MOL0     C 6373  10.202   3.064   9.232 -0.6220  0.3856  0.0114
   48MOL0     C 6374  10.341   3.071   9.181 -0.6546 -0.2954 -0.1887
   48MOL0     O 6375  10.435   2.987   9.235 -0.2905 -0.1820  0.1862
   48MOL0     C 6376  10.565   2.984   9.186  0.2596  0.6168 -0.5680
   48MOL0     C 6377  10.609   2.866   9.124  0.2669  0.0555 -0.6143
   48MOL0     C 6378  10.741   2.849   9.083 -0.6332  0.0576 -1.1819
   48MOL0     C 6379  10.839   2.939   9.121  0.0228 -0.2190  0.4324
   48MOL0     O 6380  10.962   2.898   9.069  0.1196 -0.1855  0.2289
   48MOL0     C 6381  11.053   3.001   9.055  0.2432  0.2671 -0.0457
   48MOL0     C 6382  11.189   2.946   8.999  0.0121 -0.4240 -0.1514
   48MOL0     C 6383  11.265   2.879   9.112  0.0661  0.3987 -0.7679
   48MOL0     C 6384  11.408   2.849   9.078 -0.3262  0.2427  0.0617
   48MOL0     C 6385  11.480   2.785   9.187 -1.1092  0.8293 -0.5685
   48MOL0     C 6386  11.614   2.731   9.122 -0.8879 -0.3736  0.1725
   48MOL0     C 6387  11.703   2.701   9.242 -1.1662  0.7304 -0.1885
   48MOL0     C 6388  11.839   2.625   9.210 -0.2288 -0.2391  0.0269
   48MOL0    Cl 6389  11.936   2.750   9.130  0.0737 -0.3141 -0.2870
   48MOL0     C 6390  10.802   3.059   9.176  0.3041 -0.6511  0.1585
   48MOL0     C 6391  10.663   3.083   9.204 -0.9700 -0.8424 -0.0230
   48MOL0     O 6392  10.366   3.166   9.100  0.2426 -0.1864  0.5532
   48MOL0     C 6393  10.165   2.967   9.334 -0.2897  0.3329  0.1551
   48MOL0     C 6394  10.031   2.970   9.377 -0.3204 -0.6131 -0.2030
   48MOL0     N 6395   9.311   3.135   9.283  0.6240  0.3221  0.2816
   48MOL0     N 6396   9.203   3.086   9.233 -0.3011 -0.7128  0.8542
   48MOL0     C 6397   8.322   2.714   8.386 -0.5254 -0.1995 -0.7012
   48MOL0     C 6398   8.206   2.638   8.403 -0.3752 -0.0036 -0.8366
   48MOL0     C 6399   7.776   2.542   8.502 -0.1855  0.3713 -0.3640
   48MOL0     C 6400   7.803   2.411   8.533  0.2450  0.6130  0.9071
   48MOL0     C 6401   7.707   2.310   8.518 -0.2262 -1.4790 -0.4546
   48MOL0     C 6402   7.575   2.345   8.488  0.8478  0.9358 -0.1519
   48MOL0     O 6403   7.474   2.252   8.486 -0.5872 -0.4036  0.5486
   48MOL0     C 6404   7.405   2.224   8.611 -0.5893 -0.1512  0.8117
   48MOL0     C 6405   7.251   2.255   8.595 -0.3833  1.0305  0.0197
   48MOL0     C 6406   7.168   2.230   8.715  0.3259 -0.9030 -0.6363
   48MOL0     C 6407   7.022   2.287   8.707 -0.2414 -0.1029 -0.6233
   48MOL0     C 6408   6.946   2.229   8.600  0.2652  0.2182 -0.4509
   48MOL0     C 6409   6.888   2.195   8.499  0.2539  0.3313  0.1233
   48MOL0     C 6410   7.549   2.478   8.456 -0.4559 -0.1042  0.7346
   48MOL0     C 6411   7.645   2.578   8.461  0.2108  0.0102 -0.3429
   48MOL0     C 6412   7.607   2.720   8.421  0.1285  0.0169 -0.0506
   48MOL0     H 6413   8.094   2.756   8.700  1.9573  1.2549  0.8364
   48MOL0     H 6414   8.309   2.892   8.674  0.7506 -0.4200  0.3904
   48MOL0     H 6415   8.549   3.012   8.597 -2.3671  0.2807 -0.3733
   48MOL0     H 6416   8.538   2.849   8.650  0.7891  0.8907  0.3444
   48MOL0     H 6417   8.718   2.941   8.410  1.0625 -2.5878 -1.3062
   48MOL0     H 6418   8.730   2.790   8.508  2.9832  0.3988  4.7001
   48MOL0     H 6419   8.762   2.955   8.702 -0.8796  0.8768  0.1080
   48MOL0     H 6420   8.809   3.069   8.578 -1.2859  0.8946  2.7929
   48MOL0     H 6421   8.959   2.807   8.647  0.9932  0.2434 -0.4313
   48MOL0     H 6422   8.975   2.886   8.491 -0.4183  2.7515  0.2036
   48MOL0     H 6423   9.148   2.945   8.662  1.1266  0.8993 -3.2850
   48MOL0     H 6424   9.064   3.082   8.583  0.4541  2.2938  2.0273
   48MOL0     H 6425   8.972   3.167   8.783  1.2147  0.0863  1.7409
   48MOL0     H 6426   8.944   2.994   8.838 -0.3469 -0.2846 -1.3722
   48MOL0     H 6427   9.182   3.187   8.839  0.1287 -0.2784 -1.9399
   48MOL0     H 6428   9.195   3.020   8.906  1.0944  1.1580  1.0366
   48MOL0     H 6429   9.020   3.255   9.012 -1.2351 -0.3954  0.3819
   48MOL0     H 6430   8.995   3.090   9.059 -0.8513  0.6840 -0.2147
   48MOL0     H 6431   9.271   3.339   9.026 -0.3213 -0.5637 -0.1787
   48MOL0     H 6432   9.472   3.427   9.235  0.8001  0.4371  1.8652
   48MOL0     H 6433   9.508   3.305   9.356  1.7607  0.9289  0.2310
   48MOL0     H 6434   9.562   3.237   9.077 -2.5711  1.2350  1.5949
   48MOL0     H 6435   9.696   3.321   9.160  1.4503 -0.3313 -2.1178
   48MOL0     H 6436   9.730   3.086   9.149  2.0180  0.4237  0.5772
   48MOL0     H 6437   9.578   3.048   9.222  0.4307 -1.7449 -1.8206
   48MOL0     H 6438   9.640   3.122   9.436  0.9184  0.7487  1.1356
   48MOL0     H 6439   9.748   3.248   9.376 -1.8876  0.4810 -0.8753
   48MOL0     H 6440   9.909   3.242   9.221 -2.1047 -2.2648  0.4373
   48MOL0     H 6441  10.135   3.233   9.116  1.4618 -2.3933 -0.5766
   48MOL0     H 6442  10.542   2.782   9.110  1.1185 -0.5455 -1.2400
   48MOL0     H 6443  10.757   2.758   9.026  0.5786  0.2540 -1.1877
   48MOL0     H 6444  11.023   3.065   8.972 -1.2649 -1.0658 -0.5816
   48MOL0     H 6445  11.060   3.059   9.148 -0.4884 -1.5474  1.2016
   48MOL0     H 6446  11.169   2.876   8.917 -2.1727  0.9653 -0.9003
   48MOL0     H 6447  11.244   3.033   8.963 -1.2800  0.1059 -0.8933
   48MOL0     H 6448  11.268   2.946   9.198  1.0526 -0.6796  0.0816
   48MOL0     H 6449  11.212   2.789   9.145  1.7924 -0.7173 -0.8848
   48MOL0     H 6450  11.462   2.938   9.044  0.2137 -0.6169 -1.4347
   48MOL0     H 6451  11.398   2.791   8.986 -3.3833 -1.6907  1.4622
   48MOL0     H 6452  11.431   2.702   9.238  3.3226 -0.2836  2.4760
   48MOL0     H 6453  11.500   2.861   9.263  1.4053 -1.0264  0.7647
   48MOL0     H 6454  11.598   2.638   9.067  0.4918  0.0266 -0.9717
   48MOL0     H 6455  11.669   2.808   9.068  2.3953 -0.9208  2.4411
   48MOL0     H 6456  11.657   2.638   9.317 -0.6883  1.0062  0.3481
   48MOL0     H 6457  11.728   2.795   9.293  2.0554  0.2906 -0.7125
   48MOL0     H 6458  11.890   2.582   9.296  0.5026 -0.5707 -0.5594
   48MOL0     H 6459  11.813   2.543   9.143  1.4841 -2.0060  1.4178
   48MOL0     H 6460  10.871   3.139   9.200  0.5657 -0.6348 -0.6256
   48MOL0     H 6461  10.640   3.174   9.258  1.3049 -1.2093  1.7311
   48MOL0     H 6462  10.232   2.885   9.361 -2.4540 -2.0263 -1.1465
   48MOL0     H 6463   9.995   2.899   9.450  1.7229  0.1135  1.5888
   48MOL0     H 6464   8.385   2.696   8.300 -0.6096  0.7539 -0.9687
   48MOL0     H 6465   8.185   2.559   8.331 -0.8858  0.6960 -1.4822
   48MOL0     H 6466   7.904   2.379   8.556  0.1800 -2.1574 -1.9205
   48MOL0     H 6467   7.733   2.206   8.534  3.8850 -0.7858 -1.4729
   48MOL0     H 6468   7.450   2.290   8.685  0.6612  0.6040 -0.5611
   48MOL0     H 6469   7.432   2.120   8.632  3.3791  0.4519 -0.4391
   48MOL0     H 6470   7.214   2.195   8.512 -3.2727  1.8814  0.5879
   48MOL0     H 6471   7.242   2.360   8.565 -0.5862  1.0589  0.1808
   48MOL0     H 6472   7.215   2.282   8.799 -0.1274 -0.8821 -0.3910
   48MOL0     H 6473   7.161   2.123   8.739  1.9324 -0.6714  1.2195
   48MOL0     H 6474   6.965   2.270   8.799  2.0890 -1.4470  0.6431
   48MOL0     H 6475   7.033   2.395   8.696 -1.5522  0.2977  1.3988
   48MOL0     H 6476   6.828   2.155   8.420 -0.2652 -0.1121  0.7273
   48MOL0     H 6477   7.444   2.498   8.438 -0.7337 -1.1803  1.0643
   48MOL0     H 6478   7.506   2.732   8.379 -1.7372 -2.1100  3.3876
   48MOL0     H 6479   7.613   2.780   8.512  2.8723  0.1286 -0.2305
   48MOL0     H 6480   7.674   2.759   8.344  0.7888 -0.7117  0.1384
   49MOL0     O 6481  10.098  10.217   6.968 -1.1432  0.1630 -0.3888
   49MOL0     C 6482  10.033  10.310   7.009  0.7369  0.7128 -0.6639
   49MOL0     O 6483  10.085  10.416   7.076  0.0686  0.2670  0.6391
   49MOL0     C 6484  10.222  10.422   7.093 -0.2186 -0.0255  0.5635
   49MOL0     C 6485  10.327  10.451   6.997 -0.3589 -0.1107  1.2287
   49MOL0     C 6486  10.461  10.482   7.033  0.2229  0.1104 -0.4127
   49MOL0     C 6487  10.495  10.484   7.174 -0.8907  0.4345  0.4871
   49MOL0     O 6488  10.620  10.527   7.212 -0.0386  0.0545  0.4363
   49MOL0     C 6489  10.687  10.476   7.324 -0.2661 -0.3357 -0.9589
   49MOL0     C 6490  10.805  10.563   7.365 -0.7950 -0.1803  0.0258
   49MOL0     C 6491  10.915  10.568   7.256  0.1967  0.4985 -0.2337
   49MOL0     C 6492  10.979  10.425   7.251 -0.4868 -0.8896 -0.2969
   49MOL0     C 6493  11.074  10.403   7.141  0.3577 -0.2639  0.1008
   49MOL0     C 6494  11.182  10.304   7.169 -0.7551 -0.8646 -0.7136
   49MOL0     C 6495  11.295  10.298   7.059 -0.0242 -0.0769  0.5195
   49MOL0     C 6496  11.398  10.207   7.111  0.2769 -0.4498 -0.6128
   49MOL0     N 6497  11.461  10.263   7.230  0.3921 -0.0271 -0.6106
   49MOL0     C 6498  11.521  10.389   7.242  0.0548  0.5276  0.5946
   49MOL0     C 6499  11.566  10.388   7.369  1.0288 -0.0040  0.4518
   49MOL0     C 6500  11.627  10.516   7.420 -0.0048 -0.2755  0.1749
   49MOL0     C 6501  11.784  10.491   7.446  0.2938 -0.2760  0.4935
   49MOL0     C 6502  11.844  10.619   7.522 -0.6413 -0.2415  0.0053
   49MOL0     C 6503  11.815  10.748   7.443  0.5715 -0.0529  0.2888
   49MOL0     O 6504  11.861  10.741   7.301 -0.5345  0.1314 -0.9751
   49MOL0     C 6505  11.995  10.722   7.264 -0.9140  0.1041  0.4095
   49MOL0     C 6506  12.096  10.774   7.340 -0.5754 -0.3997  0.1395
   49MOL0     C 6507  12.239  10.754   7.311  0.5855  0.0400 -0.7438
   49MOL0     C 6508  12.275  10.682   7.196  0.2466  0.1198  0.3537
   49MOL0     C 6509  12.420  10.659   7.159 -0.5019 -0.5931  0.1861
   49MOL0     O 6510  12.510  10.730   7.242 -0.5620  0.5358 -0.1019
   49MOL0     C 6511  12.644  10.708   7.244  0.6453  0.1914 -0.8916
   49MOL0     C 6512  12.722  10.823   7.249  0.0639  1.1505 -0.4937
   49MOL0     C 6513  12.866  10.807   7.257  0.5245  0.0044 -0.5651
   49MOL0     C 6514  12.913  10.675   7.259 -0.6434 -0.9637 -0.0958
   49MOL0     O 6515  13.051  10.663   7.232 -0.3691 -0.1057 -0.4317
   49MOL0     C 6516  13.126  10.594   7.334  0.3045  1.1443 -0.2765
   49MOL0     C 6517  13.256  10.581   7.251  0.0383 -0.4981 -0.3056
   49MOL0     C 6518  13.352  10.503   7.343  0.0707 -1.5129 -0.0444
   49MOL0     C 6519  13.493  10.467   7.285  0.3010  0.0853 -0.1281
   49MOL0     C 6520  13.569  10.396   7.391 -0.0582  1.0043 -0.0255
   49MOL0     C 6521  13.707  10.336   7.356  1.3319  0.5311 -0.1575
   49MOL0     C 6522  13.712  10.207   7.279 -0.2055  0.3898  0.5786
   49MOL0     C 6523  13.859  10.151   7.270  0.0494 -1.0943 -0.1312
   49MOL0    Cl 6524  13.970  10.256   7.153 -0.5951 -0.0369 -0.4789
   49MOL0     C 6525  12.830  10.565   7.265  0.0835  0.4691 -0.1254
   49MOL0     C 6526  12.696  10.580   7.264  0.6846 -0.3960 -0.4703
   49MOL0     O 6527  12.455  10.588   7.069  0.1829  0.0014 -0.3040
   49MOL0     C 6528  12.165  10.650   7.102 -0.4415 -0.2245 -1.4792
   49MOL0     C 6529  12.031  10.678   7.145 -0.1470 -0.1766 -0.6019
   49MOL0     N 6530  11.544  10.269   7.430  0.7830  0.1682 -0.9170
   49MOL0     N 6531  11.475  10.194   7.347  0.2851  0.0336  0.4746
   49MOL0     C 6532  10.397  10.448   7.266 -0.7689  0.2958 -0.0834
   49MOL0     C 6533  10.272  10.413   7.224  0.2000 -0.8933 -0.5539
   49MOL0     C 6534   9.888  10.302   6.998  0.0140  0.5771  0.0492
   49MOL0     C 6535   9.834  10.256   6.881  0.1235  0.2728 -0.0294
   49MOL0     C 6536   9.695  10.267   6.852 -0.1250 -0.5485  0.4134
   49MOL0     C 6537   9.614  10.337   6.936 -0.4310  0.9628 -0.0679
   49MOL0     O 6538   9.484  10.334   6.903  0.0454  0.8938  0.2450
   49MOL0     C 6539   9.374  10.350   6.993 -0.3947 -0.2858  0.5635
   49MOL0     C 6540   9.245  10.349   6.922  0.5374  0.1768  0.0278
   49MOL0     C 6541   9.209  10.233   6.826 -0.2957 -0.0297  0.2126
   49MOL0     C 6542   9.077  10.244   6.750 -0.5724 -0.3014  0.2132
   49MOL0     C 6543   8.966  10.271   6.841  0.7620  0.5832 -0.1090
   49MOL0     C 6544   8.866  10.292   6.905 -0.2794 -0.1491  0.5000
   49MOL0     C 6545   9.661  10.363   7.064 -0.0127  0.3356  0.2662
   49MOL0     C 6546   9.803  10.355   7.096  0.2527  0.1531  0.3553
   49MOL0     C 6547   9.838  10.411   7.234  1.0953 -0.8329  0.1394
   49MOL0     H 6548  10.294  10.462   6.894 -0.1514  1.1954  1.2836
   49MOL0     H 6549  10.530  10.519   6.957 -3.3680  4.0774 -2.1177
   49MOL0     H 6550  10.619  10.479   7.410 -2.7175  1.6833 -2.7849
   49MOL0     H 6551  10.726  10.375   7.309  2.8427  1.0002 -2.8065
   49MOL0     H 6552  10.854  10.516   7.451  0.6081  0.5325 -0.3590
   49MOL0     H 6553  10.784  10.666   7.396  2.2600  0.4292  0.3266
   49MOL0     H 6554  10.985  10.648   7.282 -1.0213  1.2661  0.7982
   49MOL0     H 6555  10.877  10.591   7.156 -0.9827  1.8948  0.5057
   49MOL0     H 6556  11.025  10.407   7.348 -2.4164 -3.3019  0.2607
   49MOL0     H 6557  10.910  10.340   7.247 -0.0046 -1.2651 -0.7301
   49MOL0     H 6558  11.017  10.360   7.058  0.3050 -0.3123  0.1625
   49MOL0     H 6559  11.122  10.500   7.125 -1.6753  1.0674  1.6286
   49MOL0     H 6560  11.219  10.331   7.269  0.0431 -0.2457 -1.1595
   49MOL0     H 6561  11.141  10.204   7.185 -1.6617 -0.2928  0.6734
   49MOL0     H 6562  11.356  10.389   7.057  3.5353 -2.1812  2.5844
   49MOL0     H 6563  11.263  10.261   6.961  4.0189 -0.5012 -0.8246
   49MOL0     H 6564  11.347  10.112   7.132 -0.9118  0.1997 -0.4518
   49MOL0     H 6565  11.464  10.184   7.027  0.9062 -2.7488  0.4084
   49MOL0     H 6566  11.538  10.461   7.162  4.4896  2.4742  2.9386
   49MOL0     H 6567  11.607  10.598   7.350  2.6756  1.0951  0.8609
   49MOL0     H 6568  11.586  10.547   7.517  1.1042 -0.8831  0.8711
   49MOL0     H 6569  11.791  10.399   7.505 -0.0472  0.9101  2.4781
   49MOL0     H 6570  11.833  10.482   7.349  0.0299  0.4650  0.2831
   49MOL0     H 6571  11.952  10.617   7.540 -0.4052  0.4853 -1.2374
   49MOL0     H 6572  11.798  10.630   7.621  0.3487  1.7207  0.2939
   49MOL0     H 6573  11.858  10.839   7.486  1.1800  1.0183 -2.4119
   49MOL0     H 6574  11.707  10.760   7.440  0.4756 -0.8557 -2.7161
   49MOL0     H 6575  12.066  10.839   7.422  0.4489  2.8307 -1.8656
   49MOL0     H 6576  12.309  10.778   7.390 -2.0210  0.2961  1.6938
   49MOL0     H 6577  12.668  10.917   7.236  0.8516  1.8415  0.8844
   49MOL0     H 6578  12.928  10.894   7.238 -0.6832  0.8485 -0.7586
   49MOL0     H 6579  13.134  10.646   7.430 -0.8552  2.7633 -0.9890
   49MOL0     H 6580  13.081  10.495   7.342 -0.6062  1.2321 -3.1386
   49MOL0     H 6581  13.236  10.547   7.149 -0.6426 -0.1615 -0.2921
   49MOL0     H 6582  13.296  10.682   7.236  0.6007 -0.8982 -1.5884
   49MOL0     H 6583  13.371  10.562   7.433  1.6815 -0.4172 -1.0294
   49MOL0     H 6584  13.296  10.416   7.379 -0.0338 -1.4996 -0.1754
   49MOL0     H 6585  13.549  10.546   7.234  0.9642  0.8266  1.6459
   49MOL0     H 6586  13.469  10.398   7.204 -1.7776  0.1686  0.3512
   49MOL0     H 6587  13.503  10.319   7.433  3.0592 -0.4110  2.7030
   49MOL0     H 6588  13.593  10.474   7.464  0.6714  1.0227 -0.2755
   49MOL0     H 6589  13.757  10.416   7.301  0.1555  0.1142 -1.9266
   49MOL0     H 6590  13.753  10.317   7.454 -0.4622  3.2771  1.3757
   49MOL0     H 6591  13.676  10.216   7.176  0.4471  3.6697  0.5587
   49MOL0     H 6592  13.648  10.138   7.335  0.7425 -0.7020  0.3740
   49MOL0     H 6593  13.905  10.132   7.367  2.1018 -1.0639 -1.0439
   49MOL0     H 6594  13.847  10.053   7.225 -1.7945  0.3030 -2.9782
   49MOL0     H 6595  12.881  10.470   7.255  1.7426  1.5679 -3.4642
   49MOL0     H 6596  12.625  10.498   7.269  1.3118 -0.9059  3.2312
   49MOL0     H 6597  12.175  10.600   7.006 -1.3652  0.4324 -1.9349
   49MOL0     H 6598  11.957  10.650   7.071  2.3074 -1.9548 -2.5415
   49MOL0     H 6599  10.404  10.447   7.374 -0.4194 -0.7353 -0.1060
   49MOL0     H 6600  10.192  10.393   7.295 -1.4666 -4.0408 -3.0591
   49MOL0     H 6601   9.898  10.211   6.806 -0.4133  2.5359 -2.0070
   49MOL0     H 6602   9.646  10.226   6.765 -2.2248  1.2919  0.6281
   49MOL0     H 6603   9.370  10.451   7.036 -0.0606 -0.2853  0.5900
   49MOL0     H 6604   9.372  10.272   7.069 -0.2507 -2.3470 -1.4192
   49MOL0     H 6605   9.229  10.443   6.867  2.3219  0.6352  0.2323
   49MOL0     H 6606   9.174  10.349   7.005 -1.0815  2.8892 -1.1991
   49MOL0     H 6607   9.201  10.138   6.879 -0.5076 -0.5889 -0.7836
   49MOL0     H 6608   9.287  10.223   6.749 -0.2874  0.6191  0.1299
   49MOL0     H 6609   9.087  10.326   6.678 -1.2126 -0.3609  0.0526
   49MOL0     H 6610   9.066  10.150   6.695  0.3237  0.6282 -1.6681
   49MOL0     H 6611   8.771  10.307   6.953 -0.4697 -0.4682  0.2364
   49MOL0     H 6612   9.587  10.415   7.125 -2.4662 -1.7485 -0.7629
   49MOL0     H 6613   9.888  10.508   7.232  0.1676 -0.1187  3.7823
   49MOL0     H 6614   9.744  10.418   7.288  1.9586  0.8707  1.5196
   49MOL0     H 6615   9.905  10.349   7.295  0.7183  1.5467  3.2390
   50MOL0     O 6616  10.307   5.488   1.243 -0.2045 -0.0292  0.2055
   50MOL0     C 6617  10.283   5.603   1.286 -0.0271  0.9782  0.5198
   50MOL0     O 6618  10.368   5.686   1.351  0.0004  0.0542  0.3443
   50MOL0     C 6619  10.482   5.623   1.399 -0.5546  0.5795 -0.7845
   50MOL0     C 6620  10.504   5.603   1.538  0.5846  0.3661 -0.3008
   50MOL0     C 6621  10.622   5.551   1.593 -0.1544 -0.2029  0.4713
   50MOL0     C 6622  10.729   5.529   1.506  0.5658  0.4648  1.0294
   50MOL0     O 6623  10.841   5.474   1.552 -0.1628  0.8197  0.1467
   50MOL0     C 6624  10.844   5.333   1.571  0.3657  0.7997 -0.8134
   50MOL0     C 6625  10.979   5.273   1.577  0.4735 -0.4873  0.7886
   50MOL0     C 6626  11.089   5.372   1.592  0.6968 -0.1455  0.3978
   50MOL0     C 6627  11.226   5.314   1.606  0.5330 -0.3742 -0.0195
   50MOL0     C 6628  11.331   5.435   1.631  0.9518  0.3556  0.2852
   50MOL0     C 6629  11.466   5.377   1.642 -0.4165  0.6916 -0.1989
   50MOL0     C 6630  11.570   5.488   1.614 -0.0020  0.1599  0.4156
   50MOL0     C 6631  11.700   5.420   1.576  0.5184 -0.0846 -0.5594
   50MOL0     N 6632  11.787   5.518   1.515 -0.3001 -0.5037 -0.2079
   50MOL0     C 6633  11.834   5.638   1.576  0.6363  1.0462  0.0071
   50MOL0     C 6634  11.888   5.711   1.474  0.5694 -0.4950  0.5967
   50MOL0     C 6635  11.947   5.848   1.478  0.2365 -0.5976 -0.4643
   50MOL0     C 6636  12.088   5.854   1.533 -0.1099 -0.6724 -0.6978
   50MOL0     C 6637  12.193   5.768   1.454 -0.4173  0.5767  0.4148
   50MOL0     C 6638  12.333   5.821   1.460 -1.0611 -0.7056  0.1616
   50MOL0     O 6639  12.345   5.958   1.397  0.0974 -0.4930 -0.1000
   50MOL0     C 6640  12.464   6.025   1.431  0.5778 -0.0270  0.0889
   50MOL0     C 6641  12.587   5.970   1.480 -0.4731  0.4487 -0.6378
   50MOL0     C 6642  12.710   6.035   1.496  0.8837  0.2026 -0.2145
   50MOL0     C 6643  12.716   6.172   1.464  1.2431 -0.7893 -0.3423
   50MOL0     C 6644  12.838   6.255   1.481 -0.6333 -1.0055 -0.0906
   50MOL0     O 6645  12.838   6.389   1.452 -0.5105 -0.9489 -0.1117
   50MOL0     C 6646  12.955   6.465   1.460  0.0315 -0.3290  0.2921
   50MOL0     C 6647  12.977   6.539   1.569 -0.1293 -0.6050 -0.9203
   50MOL0     C 6648  13.088   6.632   1.571  0.2588 -0.0497 -0.2150
   50MOL0     C 6649  13.172   6.649   1.455  0.0903 -0.2694  0.0332
   50MOL0     O 6650  13.282   6.735   1.451 -0.6621  0.4319 -0.4560
   50MOL0     C 6651  13.400   6.671   1.510  0.4853 -0.1603 -0.1492
   50MOL0     C 6652  13.529   6.762   1.517  0.4224 -0.2604  0.4956
   50MOL0     C 6653  13.659   6.684   1.561  0.2297  0.1867 -0.3022
   50MOL0     C 6654  13.773   6.788   1.591 -0.4434  0.4997 -0.5691
   50MOL0     C 6655  13.908   6.726   1.654  0.6986  0.3490 -0.5318
   50MOL0     C 6656  14.013   6.681   1.558  0.3245  0.9993 -1.5876
   50MOL0     C 6657  14.140   6.662   1.644 -0.5014  0.0685 -0.7001
   50MOL0     C 6658  14.264   6.609   1.571  0.5123  0.7642  0.4243
   50MOL0    Cl 6659  14.323   6.728   1.437 -0.0858 -0.3126 -0.0262
   50MOL0     C 6660  13.154   6.556   1.351 -0.8231 -0.1234  0.5707
   50MOL0     C 6661  13.038   6.471   1.354 -0.5112 -0.0099 -0.7836
   50MOL0     O 6662  12.930   6.193   1.531 -0.3297 -0.1564 -0.0065
   50MOL0     C 6663  12.596   6.226   1.413 -0.1337  0.6291 -0.0582
   50MOL0     C 6664  12.484   6.158   1.389  0.5018 -0.2484  0.5872
   50MOL0     N 6665  11.870   5.639   1.355  0.2639  0.2995 -0.0495
   50MOL0     N 6666  11.802   5.526   1.383 -0.3045 -0.3031 -0.3066
   50MOL0     C 6667  10.718   5.561   1.369  0.2123  0.5419  1.0139
   50MOL0     C 6668  10.593   5.595   1.314 -0.1379 -0.5593  0.8009
   50MOL0     C 6669  10.142   5.659   1.260 -0.0304  0.1678  0.0523
   50MOL0     C 6670  10.126   5.793   1.283  0.5701  0.2353 -0.2173
   50MOL0     C 6671  10.002   5.859   1.267 -0.2880  0.5563 -0.3460
   50MOL0     C 6672   9.886   5.786   1.232  0.3027 -0.6353  0.5092
   50MOL0     O 6673   9.766   5.837   1.200 -0.3797 -0.0101 -0.0756
   50MOL0     C 6674   9.739   5.968   1.240  0.4882 -0.5291  0.4781
   50MOL0     C 6675   9.584   5.977   1.248 -0.0932 -0.3111  0.6487
   50MOL0     C 6676   9.543   5.942   1.387 -0.5258  0.6629  0.6265
   50MOL0     C 6677   9.387   5.923   1.382 -0.9360 -0.3638  1.5450
   50MOL0     C 6678   9.336   5.898   1.518  0.8569 -0.0310  0.0708
   50MOL0     C 6679   9.272   5.901   1.626 -0.9383 -0.6145  0.5261
   50MOL0     C 6680   9.900   5.655   1.207  0.4734 -0.4824 -0.2252
   50MOL0     C 6681  10.022   5.581   1.231  0.1239  0.1064  0.8755
   50MOL0     C 6682  10.033   5.438   1.235  0.0351  0.2708 -0.7207
   50MOL0     H 6683  10.422   5.607   1.608  1.9051 -1.4898  1.5101
   50MOL0     H 6684  10.634   5.525   1.698  1.1497 -0.2068  0.3370
   50MOL0     H 6685  10.784   5.315   1.661  1.0170  1.8548 -0.1437
   50MOL0     H 6686  10.791   5.289   1.486 -0.5227  0.4285 -0.0842
   50MOL0     H 6687  10.990   5.227   1.478 -4.7966  1.2691 -1.0018
   50MOL0     H 6688  10.987   5.194   1.652 -0.7542 -0.6234  0.8073
   50MOL0     H 6689  11.061   5.420   1.687 -2.0911  2.4841 -1.5331
   50MOL0     H 6690  11.090   5.453   1.518  0.3636  0.2690  0.8404
   50MOL0     H 6691  11.228   5.242   1.688  2.8745  2.1925  2.4091
   50MOL0     H 6692  11.246   5.259   1.514  1.8495  1.0876 -0.6587
   50MOL0     H 6693  11.321   5.499   1.543 -1.3181  0.5303  0.6037
   50MOL0     H 6694  11.307   5.491   1.721 -1.4614  0.3034 -0.2602
   50MOL0     H 6695  11.480   5.354   1.747  0.2275  0.2767 -0.3698
   50MOL0     H 6696  11.487   5.286   1.584  0.6702 -0.0144  1.2495
   50MOL0     H 6697  11.589   5.536   1.711 -0.4818 -0.7509  0.9751
   50MOL0     H 6698  11.542   5.567   1.544 -1.0121  0.2685  0.9308
   50MOL0     H 6699  11.738   5.373   1.667 -0.0463  0.1402 -0.1953
   50MOL0     H 6700  11.697   5.338   1.504 -2.0022 -1.2330  0.7242
   50MOL0     H 6701  11.830   5.675   1.678 -0.9625  0.6943  0.0874
   50MOL0     H 6702  11.948   5.878   1.373 -1.7406  0.1935 -0.2926
   50MOL0     H 6703  11.874   5.916   1.523  1.3896 -0.0399  0.6305
   50MOL0     H 6704  12.120   5.958   1.540 -0.2722 -0.6869  5.1929
   50MOL0     H 6705  12.088   5.815   1.636 -1.0276  0.7916 -0.1148
   50MOL0     H 6706  12.156   5.765   1.351 -0.1249  3.5153  0.1334
   50MOL0     H 6707  12.177   5.668   1.497 -3.5712  0.4787 -0.6981
   50MOL0     H 6708  12.379   5.744   1.397 -0.7774  1.1091 -2.0075
   50MOL0     H 6709  12.374   5.831   1.561 -0.8111 -1.3558  0.1298
   50MOL0     H 6710  12.578   5.867   1.513 -1.0413  0.2047 -1.5358
   50MOL0     H 6711  12.799   5.982   1.526  0.2485  0.1183  1.6943
   50MOL0     H 6712  12.911   6.523   1.653 -0.3692  1.0579 -0.7718
   50MOL0     H 6713  13.115   6.699   1.651  1.5350 -1.1618  0.3169
   50MOL0     H 6714  13.374   6.633   1.609  0.6002 -1.8014 -0.7138
   50MOL0     H 6715  13.418   6.584   1.447 -3.5153 -1.5586  0.3645
   50MOL0     H 6716  13.545   6.801   1.416 -0.4875 -1.9657 -0.3599
   50MOL0     H 6717  13.505   6.843   1.586  0.6801  0.2943 -0.0588
   50MOL0     H 6718  13.633   6.628   1.651  1.9026  2.0903  1.4657
   50MOL0     H 6719  13.698   6.617   1.484  2.7746  1.8898 -0.6200
   50MOL0     H 6720  13.739   6.865   1.660  2.6497  0.6604  0.9547
   50MOL0     H 6721  13.794   6.850   1.503  0.9251 -1.0943 -1.4199
   50MOL0     H 6722  13.892   6.647   1.727  1.8638 -0.1580 -0.7916
   50MOL0     H 6723  13.953   6.805   1.715  0.4678  0.0543  0.0232
   50MOL0     H 6724  13.991   6.582   1.519  0.7176 -0.0752  0.7526
   50MOL0     H 6725  14.029   6.757   1.481  0.0081  0.5620 -2.0874
   50MOL0     H 6726  14.120   6.594   1.727 -1.1136  0.3878 -0.5813
   50MOL0     H 6727  14.177   6.753   1.692  1.1213 -0.7059 -0.4117
   50MOL0     H 6728  14.337   6.600   1.652  0.5536 -0.0296  0.3074
   50MOL0     H 6729  14.240   6.510   1.530 -1.5250 -0.0566  3.2190
   50MOL0     H 6730  13.215   6.544   1.262  1.3417 -0.5209  2.0451
   50MOL0     H 6731  13.019   6.407   1.268 -0.1026  0.4695 -1.2401
   50MOL0     H 6732  12.593   6.334   1.401 -1.4905  0.5144 -1.0257
   50MOL0     H 6733  12.405   6.211   1.336  0.9892  0.8658  0.9447
   50MOL0     H 6734  10.798   5.550   1.296 -2.2268  2.6181 -2.2554
   50MOL0     H 6735  10.586   5.621   1.209 -2.3943  0.2313  1.0874
   50MOL0     H 6736  10.205   5.864   1.303  0.9332  0.1409 -1.2601
   50MOL0     H 6737   9.991   5.967   1.267 -3.5946  0.3728 -2.6596
   50MOL0     H 6738   9.781   6.042   1.172  3.2122 -1.2407  1.2560
   50MOL0     H 6739   9.780   6.002   1.335 -1.8651  1.7753  0.7617
   50MOL0     H 6740   9.551   5.911   1.168  1.9498 -1.5565  0.7618
   50MOL0     H 6741   9.547   6.074   1.213 -0.3465 -0.6408 -0.0039
   50MOL0     H 6742   9.571   6.025   1.453  0.7533 -0.3834  1.4529
   50MOL0     H 6743   9.590   5.852   1.427  1.1927  1.9993  1.7371
   50MOL0     H 6744   9.344   6.019   1.352 -1.6029 -1.0596  0.1703
   50MOL0     H 6745   9.363   5.850   1.304 -0.7755  1.4405 -0.2642
   50MOL0     H 6746   9.223   5.900   1.721  0.4727 -2.6103  1.3172
   50MOL0     H 6747   9.813   5.597   1.180  1.7747 -2.4708 -0.3526
   50MOL0     H 6748  10.087   5.405   1.325 -1.1483 -2.2787 -0.8678
   50MOL0     H 6749   9.937   5.386   1.237 -1.7555  3.3466  1.7495
   50MOL0     H 6750  10.097   5.411   1.150  3.1883  2.5276  0.7388
   51MOL0     O 6751   0.443   7.592   2.494  0.5760 -0.1270 -0.0876
   51MOL0     C 6752   0.417   7.673   2.408  0.3880 -0.2496 -0.2611
   51MOL0     O 6753   0.514   7.719   2.323 -0.2248  0.1114 -0.3447
   51MOL0     C 6754   0.639   7.680   2.332 -1.0932 -0.3285 -0.0416
   51MOL0     C 6755   0.738   7.771   2.382  0.0981 -0.1187 -0.0904
   51MOL0     C 6756   0.867   7.726   2.396  0.0236  1.0408  0.0764
   51MOL0     C 6757   0.904   7.597   2.374 -0.4509 -0.5147 -0.0484
   51MOL0     O 6758   1.027   7.563   2.396 -0.3376 -0.4561  0.6131
   51MOL0     C 6759   1.113   7.534   2.288 -0.9939  0.3408  0.6747
   51MOL0     C 6760   1.246   7.483   2.354 -0.0352  0.5753  0.1842
   51MOL0     C 6761   1.356   7.431   2.261 -0.6623  0.6735  1.4390
   51MOL0     C 6762   1.306   7.313   2.171  0.2221 -0.7192  1.0059
   51MOL0     C 6763   1.421   7.215   2.136  0.1903 -0.2366 -0.0589
   51MOL0     C 6764   1.549   7.280   2.077  0.5874 -0.7291  0.9560
   51MOL0     C 6765   1.644   7.165   2.024  0.1450 -0.4392 -0.5356
   51MOL0     C 6766   1.755   7.225   1.951 -0.7350  0.6519 -0.0559
   51MOL0     N 6767   1.848   7.121   1.886  0.6229 -0.0775 -0.0779
   51MOL0     C 6768   1.952   7.061   1.964 -0.4022 -0.3477 -0.0374
   51MOL0     C 6769   1.999   6.971   1.870  0.5336 -0.1548 -0.3726
   51MOL0     C 6770   2.107   6.879   1.901  0.4108  0.1373  0.7132
   51MOL0     C 6771   2.214   6.923   1.997  0.0359 -0.3611  0.4203
   51MOL0     C 6772   2.318   6.813   2.016  0.8833  0.3731  0.4739
   51MOL0     C 6773   2.426   6.867   2.103 -0.1188 -0.5987  0.0315
   51MOL0     O 6774   2.535   6.911   2.024  0.3162 -0.3072  0.0084
   51MOL0     C 6775   2.650   6.970   2.080 -0.0564  0.6365 -0.2833
   51MOL0     C 6776   2.741   7.024   1.990 -1.7135 -0.3042  0.7650
   51MOL0     C 6777   2.859   7.086   2.028 -0.8765 -0.1889  0.2739
   51MOL0     C 6778   2.897   7.085   2.164  0.5480  0.9087  0.2858
   51MOL0     C 6779   3.035   7.122   2.196  0.3180  0.3802 -0.7289
   51MOL0     O 6780   3.080   7.076   2.321  0.8970 -0.3988 -0.0591
   51MOL0     C 6781   3.208   7.101   2.369  0.4224  0.1475  0.8488
   51MOL0     C 6782   3.302   7.197   2.317 -0.4946  0.1547 -0.0245
   51MOL0     C 6783   3.429   7.202   2.384 -0.8755  0.4251  0.9093
   51MOL0     C 6784   3.462   7.123   2.497  0.4214 -0.2598  0.0055
   51MOL0     O 6785   3.588   7.126   2.538 -0.3441  0.2595  0.5354
   51MOL0     C 6786   3.633   7.049   2.651 -0.5251 -0.7340 -0.4471
   51MOL0     C 6787   3.767   7.095   2.703  0.0590 -0.2500  0.6720
   51MOL0     C 6788   3.870   7.123   2.597  0.8628 -0.1794  0.5163
   51MOL0     C 6789   4.018   7.113   2.656  0.0169  0.1840 -0.2777
   51MOL0     C 6790   4.113   7.114   2.538  0.3320 -0.2193  0.9238
   51MOL0     C 6791   4.258   7.086   2.574 -0.3431  0.1411  0.4015
   51MOL0     C 6792   4.347   7.086   2.448  0.5762  1.2420  0.6482
   51MOL0     C 6793   4.503   7.074   2.472 -0.1949  0.5080  0.4466
   51MOL0    Cl 6794   4.533   6.896   2.494 -0.3185 -0.1762 -0.3211
   51MOL0     C 6795   3.373   7.019   2.540  0.1054 -0.2276  1.0459
   51MOL0     C 6796   3.252   7.008   2.471 -0.9820 -0.3849 -0.6360
   51MOL0     O 6797   3.098   7.172   2.108  0.2283 -0.6009  0.6234
   51MOL0     C 6798   2.803   7.030   2.260 -0.4546 -0.0287  0.4458
   51MOL0     C 6799   2.682   6.979   2.213  0.6717  0.7030  0.4906
   51MOL0     N 6800   1.929   6.978   1.752  0.1091  0.4212  0.6200
   51MOL0     N 6801   1.839   7.068   1.759  0.1482  0.1791  0.2608
   51MOL0     C 6802   0.808   7.505   2.342  0.8843  0.2220  0.1507
   51MOL0     C 6803   0.679   7.546   2.311 -0.3655  0.0210  0.3017
   51MOL0     C 6804   0.272   7.727   2.400  0.0862  0.2270  0.0510
   51MOL0     C 6805   0.255   7.820   2.297  0.1309 -0.6086 -0.3479
   51MOL0     C 6806   0.134   7.887   2.289 -0.2851  0.9155 -0.4772
   51MOL0     C 6807   0.029   7.867   2.380  0.1860  0.8173 -0.9407
   51MOL0     O 6808  -0.087   7.941   2.376  0.0817 -0.8300  0.3162
   51MOL0     C 6809  -0.214   7.872   2.369  0.0503 -0.2293 -0.3356
   51MOL0     C 6810  -0.239   7.816   2.223 -0.7079  0.6969 -0.8554
   51MOL0     C 6811  -0.265   7.668   2.230 -0.1076  0.8316 -0.7163
   51MOL0     C 6812  -0.150   7.580   2.176 -0.2594 -0.0125  0.1702
   51MOL0     C 6813  -0.202   7.449   2.143  0.1448  0.6643 -0.4630
   51MOL0     C 6814  -0.252   7.335   2.148 -0.5641  0.1825  0.4254
   51MOL0     C 6815   0.041   7.777   2.484  0.5565  0.6965  0.2048
   51MOL0     C 6816   0.171   7.702   2.495 -0.1144 -0.3373  0.0455
   51MOL0     C 6817   0.178   7.619   2.613 -0.3489  0.5720  0.3162
   51MOL0     H 6818   0.706   7.874   2.393  2.6099  0.9886 -2.2222
   51MOL0     H 6819   0.944   7.796   2.427  0.7646 -0.0085  0.6176
   51MOL0     H 6820   1.077   7.462   2.213  0.6871 -0.9439  1.0414
   51MOL0     H 6821   1.130   7.618   2.220  1.0587 -0.9931 -0.5681
   51MOL0     H 6822   1.221   7.403   2.424 -1.7135 -1.2665 -2.3501
   51MOL0     H 6823   1.285   7.565   2.416 -2.6029  0.1654  2.5237
   51MOL0     H 6824   1.445   7.402   2.318  3.0457  2.5282 -2.7879
   51MOL0     H 6825   1.386   7.519   2.203 -4.6155  2.1867  1.3712
   51MOL0     H 6826   1.219   7.262   2.215 -0.4898 -1.0665 -0.7447
   51MOL0     H 6827   1.267   7.351   2.077 -0.8466  0.5530  1.9174
   51MOL0     H 6828   1.439   7.160   2.229  0.6654 -0.5696 -0.3467
   51MOL0     H 6829   1.381   7.140   2.066  0.1637 -1.6107  1.3675
   51MOL0     H 6830   1.524   7.344   1.991  1.4258  0.5447  1.6336
   51MOL0     H 6831   1.600   7.337   2.155 -0.6712 -0.5940  1.7161
   51MOL0     H 6832   1.593   7.099   1.952  0.5410  1.6378 -2.8505
   51MOL0     H 6833   1.683   7.103   2.105  2.9613  0.1804 -1.3242
   51MOL0     H 6834   1.714   7.292   1.875 -0.1528  1.1622  0.0770
   51MOL0     H 6835   1.812   7.289   2.018  2.6814  1.3703 -3.3343
   51MOL0     H 6836   1.990   7.081   2.063  0.5878 -1.5537 -0.1378
   51MOL0     H 6837   2.067   6.785   1.941 -1.3472  0.6164  0.1637
   51MOL0     H 6838   2.161   6.859   1.808  1.5854 -1.4427  1.6863
   51MOL0     H 6839   2.259   7.015   1.961 -0.8073 -0.1578 -0.1507
   51MOL0     H 6840   2.182   6.944   2.100  3.9640  0.7144  1.6103
   51MOL0     H 6841   2.363   6.768   1.926  0.6067  0.7441  0.1462
   51MOL0     H 6842   2.272   6.732   2.072 -0.5330  0.4421 -0.5278
   51MOL0     H 6843   2.457   6.775   2.154 -0.1579 -1.2987 -1.1726
   51MOL0     H 6844   2.393   6.944   2.174 -5.1256  0.5831 -3.0724
   51MOL0     H 6845   2.735   7.021   1.882  2.1245 -0.1818  0.4337
   51MOL0     H 6846   2.934   7.117   1.957 -0.7138 -0.0948  0.4870
   51MOL0     H 6847   3.273   7.265   2.238  0.8186  0.2830 -0.4202
   51MOL0     H 6848   3.499   7.279   2.352 -0.8361  0.6874  1.6226
   51MOL0     H 6849   3.563   7.056   2.735 -0.2994  0.9828 -0.3702
   51MOL0     H 6850   3.640   6.941   2.634 -1.3004 -1.2488  2.0274
   51MOL0     H 6851   3.769   7.180   2.772  0.6900  0.1010  0.2267
   51MOL0     H 6852   3.801   7.012   2.765  0.5575 -2.5921 -2.4845
   51MOL0     H 6853   3.855   7.053   2.514  2.3663 -0.3272  0.3489
   51MOL0     H 6854   3.860   7.217   2.542  2.3797 -0.0171  0.4658
   51MOL0     H 6855   4.024   7.022   2.715 -2.5741  0.5656  0.6885
   51MOL0     H 6856   4.043   7.201   2.716 -0.7547 -0.4928  1.0786
   51MOL0     H 6857   4.113   7.214   2.494  0.5513 -0.5038  0.2563
   51MOL0     H 6858   4.073   7.045   2.462 -2.3543  1.6268  0.5062
   51MOL0     H 6859   4.297   7.161   2.644  1.9453 -0.5916  0.0104
   51MOL0     H 6860   4.259   6.994   2.632 -2.6871  0.0103  0.3106
   51MOL0     H 6861   4.333   7.187   2.407 -0.7708  1.0073  0.4630
   51MOL0     H 6862   4.313   7.012   2.375 -0.4958 -0.0757  2.3992
   51MOL0     H 6863   4.550   7.103   2.377  0.7261 -1.7329  0.1625
   51MOL0     H 6864   4.541   7.140   2.551  1.6258  2.7774 -2.0962
   51MOL0     H 6865   3.397   6.938   2.608 -0.7597  0.0771  1.7384
   51MOL0     H 6866   3.179   6.936   2.507 -0.6590 -0.7808 -0.7643
   51MOL0     H 6867   2.823   7.031   2.366 -1.9390  1.2604  0.7494
   51MOL0     H 6868   2.609   6.937   2.282 -0.9909  2.5471 -0.0390
   51MOL0     H 6869   0.829   7.399   2.331 -1.2313 -0.0334 -2.2125
   51MOL0     H 6870   0.605   7.472   2.283  0.0877  0.1790 -1.4424
   51MOL0     H 6871   0.332   7.857   2.230  1.7536 -0.2729  1.6016
   51MOL0     H 6872   0.096   7.964   2.223 -4.0332 -0.6738 -0.4267
   51MOL0     H 6873  -0.288   7.951   2.382 -1.1739 -1.0937 -1.8106
   51MOL0     H 6874  -0.233   7.797   2.446  1.4928 -1.2759 -0.9519
   51MOL0     H 6875  -0.158   7.837   2.153 -2.4349  0.3664 -3.0343
   51MOL0     H 6876  -0.329   7.859   2.178  0.7788  2.4459 -2.3071
   51MOL0     H 6877  -0.339   7.650   2.152  1.0446  1.4491 -1.9874
   51MOL0     H 6878  -0.294   7.637   2.331 -3.6235  1.5628 -1.3894
   51MOL0     H 6879  -0.106   7.628   2.088 -0.8668  3.1451  1.4728
   51MOL0     H 6880  -0.073   7.570   2.254 -2.2136 -0.9741  2.0855
   51MOL0     H 6881  -0.308   7.244   2.148 -0.5373  0.1643  0.8329
   51MOL0     H 6882  -0.036   7.769   2.561  0.5484 -3.0205  0.0010
   51MOL0     H 6883   0.228   7.526   2.586  0.2465  0.6513  1.1040
   51MOL0     H 6884   0.241   7.664   2.691  1.3286 -1.3007  0.1229
   51MOL0     H 6885   0.083   7.591   2.659 -0.8513 -0.5084 -1.3100
   52MOL0     O 6886   6.545   8.890   0.685  0.6848  0.0124  0.2994
   52MOL0     C 6887   6.565   8.842   0.573  0.2613  0.3466  0.2126
   52MOL0     O 6888   6.683   8.804   0.521 -0.1658 -0.2207 -0.2786
   52MOL0     C 6889   6.784   8.820   0.612 -0.0492  0.5262 -0.3556
   52MOL0     C 6890   6.881   8.914   0.595  0.4475 -0.1296 -1.0340
   52MOL0     C 6891   6.988   8.933   0.679  0.0890 -0.3025 -0.1657
   52MOL0     C 6892   7.009   8.833   0.779  0.6684 -0.4707  0.4870
   52MOL0     O 6893   7.121   8.835   0.858 -0.2431 -0.3045  0.0083
   52MOL0     C 6894   7.103   8.798   0.998 -0.3961  0.2920 -0.5503
   52MOL0     C 6895   7.209   8.861   1.092  0.2849 -0.5062 -0.1528
   52MOL0     C 6896   7.226   9.008   1.059  0.4150 -0.6952  0.8063
   52MOL0     C 6897   7.334   9.077   1.154 -0.6228  0.5925  0.7963
   52MOL0     C 6898   7.358   9.218   1.120 -0.0062 -0.6979 -0.2129
   52MOL0     C 6899   7.435   9.284   1.235  0.1129 -0.5320  0.3826
   52MOL0     C 6900   7.497   9.414   1.200  0.5024  0.2732  0.1560
   52MOL0     C 6901   7.596   9.461   1.321 -0.9397  0.2665 -0.1383
   52MOL0     N 6902   7.627   9.604   1.304  0.2252 -0.3366 -0.1344
   52MOL0     C 6903   7.652   9.671   1.187 -0.0042 -0.1942 -0.3027
   52MOL0     C 6904   7.693   9.797   1.227  1.1174 -0.0671  0.1397
   52MOL0     C 6905   7.728   9.916   1.139  0.5580 -0.1445 -0.0995
   52MOL0     C 6906   7.782  10.039   1.209 -0.5051  0.1476 -0.6661
   52MOL0     C 6907   7.923  10.008   1.268  0.0160  0.0012  0.0326
   52MOL0     C 6908   7.979  10.102   1.374  0.9961  0.4633  0.3708
   52MOL0     O 6909   8.118  10.128   1.353  0.2845 -0.1728 -0.4721
   52MOL0     C 6910   8.162  10.214   1.255 -0.3721 -0.2771 -0.1614
   52MOL0     C 6911   8.084  10.311   1.187  0.2931  0.1146  0.0312
   52MOL0     C 6912   8.137  10.388   1.076 -0.8407 -0.0855  0.5831
   52MOL0     C 6913   8.278  10.378   1.051  0.5147 -0.4081  0.3999
   52MOL0     C 6914   8.343  10.462   0.949 -0.1465 -0.7643  0.0142
   52MOL0     O 6915   8.476  10.470   0.950 -0.1132 -0.0753 -0.8685
   52MOL0     C 6916   8.549  10.483   0.834 -1.1500 -0.2411  0.2903
   52MOL0     C 6917   8.501  10.484   0.701  0.6128 -0.6962  0.2655
   52MOL0     C 6918   8.589  10.480   0.595  0.2719  0.2187 -0.1139
   52MOL0     C 6919   8.726  10.476   0.612  0.8372  0.8260 -0.0423
   52MOL0     O 6920   8.820  10.463   0.508 -0.3673  0.3262  0.1833
   52MOL0     C 6921   8.766  10.447   0.372  0.5023 -0.9154 -0.2070
   52MOL0     C 6922   8.877  10.396   0.287  0.7393  0.2753 -0.7626
   52MOL0     C 6923   9.008  10.476   0.307 -0.9544 -0.5695 -0.6426
   52MOL0     C 6924   9.110  10.434   0.201 -1.1449 -1.4226  0.0635
   52MOL0     C 6925   9.240  10.509   0.227  0.4427 -0.4787  0.2290
   52MOL0     C 6926   9.335  10.530   0.110 -0.4548  0.7896  0.5848
   52MOL0     C 6927   9.460  10.610   0.143 -0.0338  0.7017  0.4408
   52MOL0     C 6928   9.499  10.697   0.023  0.5787 -0.8429  0.1281
   52MOL0    Cl 6929   9.663  10.762   0.065 -0.6643 -0.1113 -0.0849
   52MOL0     C 6930   8.777  10.489   0.739 -0.3710  0.3581  1.1828
   52MOL0     C 6931   8.692  10.495   0.847  0.5358 -0.3967  0.1635
   52MOL0     O 6932   8.271  10.532   0.877 -0.0214  0.0408 -0.2793
   52MOL0     C 6933   8.359  10.295   1.126  0.1818 -0.4426 -0.4709
   52MOL0     C 6934   8.297  10.211   1.220  0.3322 -0.4246 -0.7976
   52MOL0     N 6935   7.680   9.805   1.361  0.8268 -0.4645 -0.0437
   52MOL0     N 6936   7.641   9.697   1.402  0.2542  0.0451  0.0213
   52MOL0     C 6937   6.909   8.736   0.797 -0.5632  0.2278 -0.4760
   52MOL0     C 6938   6.797   8.734   0.717  0.2735 -0.1247 -0.4301
   52MOL0     C 6939   6.462   8.866   0.473 -0.0879 -0.4724  0.6351
   52MOL0     C 6940   6.508   8.895   0.341 -0.1720 -0.1236 -0.1236
   52MOL0     C 6941   6.413   8.910   0.242 -0.7686 -0.3338  0.0476
   52MOL0     C 6942   6.278   8.899   0.253  0.2182 -0.1138 -1.1575
   52MOL0     O 6943   6.202   8.930   0.145  0.5326  0.3631 -0.5732
   52MOL0     C 6944   6.062   8.954   0.178  0.3680  0.6984  1.1155
   52MOL0     C 6945   5.973   8.994   0.053 -0.4498  0.2385  0.0791
   52MOL0     C 6946   5.897   8.881  -0.014  0.1532  0.3954  0.5431
   52MOL0     C 6947   5.790   8.940  -0.103 -0.2351  1.3251  0.0787
   52MOL0     C 6948   5.855   8.970  -0.231 -0.0381 -0.1472 -0.7734
   52MOL0     C 6949   5.906   9.003  -0.333  0.5363  0.0583 -0.0620
   52MOL0     C 6950   6.231   8.871   0.380  0.1312  0.4622 -0.0185
   52MOL0     C 6951   6.317   8.855   0.493  0.4784  0.4392  0.3940
   52MOL0     C 6952   6.259   8.850   0.631  0.9669 -0.3565  0.6057
   52MOL0     H 6953   6.878   8.972   0.504  1.6204 -1.4229 -1.9460
   52MOL0     H 6954   7.055   9.015   0.656 -1.6955  0.7140 -2.2180
   52MOL0     H 6955   7.003   8.821   1.035 -0.5755 -0.1392 -0.7678
   52MOL0     H 6956   7.112   8.689   0.999  2.7881  0.4561  0.5111
   52MOL0     H 6957   7.307   8.811   1.083  0.3399 -0.8756  1.9292
   52MOL0     H 6958   7.181   8.844   1.197 -0.3978 -1.8065 -0.5299
   52MOL0     H 6959   7.133   9.065   1.066  1.2197  0.8332 -0.4566
   52MOL0     H 6960   7.258   9.011   0.955  0.7469 -0.8569  0.9031
   52MOL0     H 6961   7.288   9.073   1.253  1.0672 -0.7135  1.5915
   52MOL0     H 6962   7.429   9.023   1.160 -1.0453 -0.0017  3.1167
   52MOL0     H 6963   7.414   9.218   1.026  2.3481  2.7102  0.9823
   52MOL0     H 6964   7.264   9.274   1.114  1.0464  1.3204  0.9233
   52MOL0     H 6965   7.367   9.313   1.316  2.3927  0.9207  1.9052
   52MOL0     H 6966   7.495   9.208   1.285 -3.3398 -1.1561  4.1821
   52MOL0     H 6967   7.422   9.489   1.173  0.2720 -0.3830 -1.1018
   52MOL0     H 6968   7.563   9.400   1.114 -1.8890 -1.9189 -1.4962
   52MOL0     H 6969   7.538   9.460   1.414 -2.2824 -0.0245 -0.9549
   52MOL0     H 6970   7.688   9.403   1.323 -0.7955  0.4188 -1.6269
   52MOL0     H 6971   7.650   9.633   1.085  4.7682 -0.2500 -0.5889
   52MOL0     H 6972   7.802   9.892   1.063  0.7833 -3.1336  0.9089
   52MOL0     H 6973   7.638   9.952   1.089  2.5015  2.2601 -2.1718
   52MOL0     H 6974   7.795  10.123   1.139  2.6716 -1.2370 -1.9192
   52MOL0     H 6975   7.731  10.070   1.301  2.6741  1.6761  0.7675
   52MOL0     H 6976   7.993  10.018   1.184  1.0326  3.0419  1.0928
   52MOL0     H 6977   7.907   9.911   1.316 -1.5478 -0.7694 -1.8960
   52MOL0     H 6978   7.964  10.054   1.472 -1.3228  0.8417  0.2563
   52MOL0     H 6979   7.918  10.193   1.377 -1.0020 -0.8127 -0.0673
   52MOL0     H 6980   7.978  10.323   1.204  0.6175  2.2135  0.8439
   52MOL0     H 6981   8.082  10.459   1.015 -0.2691 -0.3865 -0.3048
   52MOL0     H 6982   8.395  10.481   0.674  0.1233  0.2819  1.9345
   52MOL0     H 6983   8.545  10.484   0.496  1.1052  0.4936 -0.4848
   52MOL0     H 6984   8.675  10.386   0.365  0.1172 -0.2841 -0.7831
   52MOL0     H 6985   8.738  10.545   0.331  0.3460  0.2636  2.4344
   52MOL0     H 6986   8.886  10.292   0.320 -4.2984 -0.2126 -0.2569
   52MOL0     H 6987   8.850  10.384   0.182  0.0807  0.7536 -0.6484
   52MOL0     H 6988   8.975  10.580   0.306 -1.0075 -0.5799 -0.1867
   52MOL0     H 6989   9.055  10.464   0.405 -2.0096 -2.5212 -0.3255
   52MOL0     H 6990   9.066  10.463   0.105 -0.6724 -2.8168 -0.6011
   52MOL0     H 6991   9.113  10.325   0.198  3.0287 -1.4984  1.2101
   52MOL0     H 6992   9.295  10.465   0.311 -0.3557  3.8962  3.4192
   52MOL0     H 6993   9.222  10.611   0.262  1.7883 -0.1299 -0.0281
   52MOL0     H 6994   9.371  10.435   0.067  0.2748  1.3267 -0.0257
   52MOL0     H 6995   9.281  10.579   0.029 -0.7622 -2.0821 -1.0947
   52MOL0     H 6996   9.534  10.531   0.158 -0.3345  0.2056 -0.6395
   52MOL0     H 6997   9.451  10.660   0.240 -0.8672 -1.8214  1.7626
   52MOL0     H 6998   9.492  10.647  -0.074  0.5226  3.3067 -2.2361
   52MOL0     H 6999   9.429  10.780   0.009  3.6796  1.7325 -1.4063
   52MOL0     H 7000   8.885  10.497   0.738 -0.4648  2.2511  0.2108
   52MOL0     H 7001   8.732  10.496   0.948 -4.0604 -2.0288  2.2549
   52MOL0     H 7002   8.466  10.286   1.108  0.8049 -0.1781  2.4745
   52MOL0     H 7003   8.339  10.130   1.280 -1.0280 -0.9978 -0.5870
   52MOL0     H 7004   6.921   8.653   0.866 -2.3128  0.5216  0.2424
   52MOL0     H 7005   6.712   8.669   0.738 -1.8481  2.6195  0.1007
   52MOL0     H 7006   6.614   8.904   0.319  0.1467 -0.5217  1.2049
   52MOL0     H 7007   6.447   8.927   0.140 -0.2315  0.4016  0.3433
   52MOL0     H 7008   6.053   9.032   0.254  0.3073  1.8127 -0.0140
   52MOL0     H 7009   6.018   8.861   0.215 -0.4949 -0.1364 -1.7255
   52MOL0     H 7010   6.044   9.037  -0.019  0.2585  0.0012  0.6300
   52MOL0     H 7011   5.911   9.077   0.090 -1.1628 -1.1623  2.1989
   52MOL0     H 7012   5.847   8.820   0.062 -3.0356  1.0923 -0.8260
   52MOL0     H 7013   5.970   8.815  -0.062  0.7339  1.0950  0.4542
   52MOL0     H 7014   5.711   8.866  -0.119  0.6629  0.8296 -2.5549
   52MOL0     H 7015   5.732   9.022  -0.060 -0.3967  0.5891  1.2893
   52MOL0     H 7016   5.952   9.041  -0.423  0.2010 -0.2788 -0.3775
   52MOL0     H 7017   6.130   8.882   0.418 -0.8266 -0.4818 -2.1345
   52MOL0     H 7018   6.224   8.949   0.664 -0.2183 -0.4263 -0.3674
   52MOL0     H 7019   6.174   8.781   0.631 -2.0873  3.0959 -0.1705
   52MOL0     H 7020   6.319   8.807   0.711 -0.4273 -3.7314  0.0047
   53MOL0     O 7021   2.990   3.603   0.893 -0.2729  0.2414  0.5501
   53MOL0     C 7022   2.884   3.605   0.948 -0.0773 -0.3482 -0.2457
   53MOL0     O 7023   2.856   3.534   1.067  0.1146  0.0766 -0.5204
   53MOL0     C 7024   2.951   3.435   1.095 -0.4686 -0.4674  0.2303
   53MOL0     C 7025   3.086   3.458   1.138 -0.8854 -0.3588 -0.4379
   53MOL0     C 7026   3.174   3.354   1.182  0.1053  0.2146  0.8439
   53MOL0     C 7027   3.115   3.224   1.205 -0.4782 -0.5988  0.9353
   53MOL0     O 7028   3.196   3.124   1.258  0.6049 -0.0578  0.1166
   53MOL0     C 7029   3.178   3.001   1.190  0.4407  0.1348  0.4032
   53MOL0     C 7030   3.299   2.900   1.200  0.4710 -0.1309 -0.1901
   53MOL0     C 7031   3.303   2.802   1.087 -0.2478 -0.3736 -0.3426
   53MOL0     C 7032   3.367   2.863   0.962  0.2748  0.1616 -0.8146
   53MOL0     C 7033   3.390   2.747   0.864  0.5025  0.3057  0.2253
   53MOL0     C 7034   3.430   2.810   0.732 -0.8279  0.3080 -0.1302
   53MOL0     C 7035   3.551   2.899   0.731 -1.1572  0.3932 -0.1672
   53MOL0     C 7036   3.598   2.949   0.583  0.8673  0.6794 -0.8199
   53MOL0     N 7037   3.649   2.846   0.493  0.2938  0.3345  0.0868
   53MOL0     C 7038   3.583   2.794   0.386 -0.3037 -0.4574  0.3292
   53MOL0     C 7039   3.679   2.726   0.321  0.0049 -0.5094 -0.0261
   53MOL0     C 7040   3.661   2.651   0.189 -0.2957 -0.1755 -0.5970
   53MOL0     C 7041   3.635   2.498   0.202 -0.1229 -0.0524  0.1696
   53MOL0     C 7042   3.762   2.416   0.233 -0.6839  0.6387  0.1498
   53MOL0     C 7043   3.734   2.264   0.226  0.2120  0.2454  0.3306
   53MOL0     O 7044   3.835   2.184   0.282  0.1522 -0.4625  0.5516
   53MOL0     C 7045   3.820   2.048   0.266 -1.2315  0.8015 -0.8270
   53MOL0     C 7046   3.702   1.983   0.238  0.1352 -1.0505  0.0616
   53MOL0     C 7047   3.697   1.848   0.215 -0.3089 -0.0532  0.1076
   53MOL0     C 7048   3.814   1.771   0.222 -1.0048 -0.6952  0.1902
   53MOL0     C 7049   3.823   1.627   0.193 -0.4725  0.5016  0.6306
   53MOL0     O 7050   3.931   1.569   0.229  0.1203  0.4814 -1.0122
   53MOL0     C 7051   3.939   1.429   0.227 -0.3558  0.8961 -0.3329
   53MOL0     C 7052   3.856   1.348   0.307 -0.8326  0.3216 -1.0688
   53MOL0     C 7053   3.867   1.208   0.313 -0.5293  0.4866 -0.2387
   53MOL0     C 7054   3.943   1.139   0.218  0.6675  0.6958 -0.5707
   53MOL0     O 7055   3.946   1.000   0.207  0.1792 -0.1366 -0.1809
   53MOL0     C 7056   3.934   0.930   0.334  0.2357  0.0178  1.0039
   53MOL0     C 7057   3.998   0.790   0.340  0.0632  0.2000  0.1219
   53MOL0     C 7058   3.944   0.701   0.230  0.3548  0.5387 -0.6706
   53MOL0     C 7059   4.013   0.565   0.255  0.8737  0.7413 -0.1884
   53MOL0     C 7060   4.117   0.541   0.143  0.3632  0.7117 -0.5101
   53MOL0     C 7061   4.245   0.627   0.161 -0.4235  0.0520  0.2027
   53MOL0     C 7062   4.336   0.621   0.044 -0.7101  0.2884  0.9461
   53MOL0     C 7063   4.467   0.696   0.076 -0.0172  1.2969  0.2739
   53MOL0    Cl 7064   4.433   0.869   0.113 -0.2988  0.1874  0.1518
   53MOL0     C 7065   4.022   1.215   0.137 -1.3352 -0.6080  0.2390
   53MOL0     C 7066   4.028   1.362   0.133  0.3833 -0.0316 -1.1587
   53MOL0     O 7067   3.729   1.572   0.133  0.2760  0.0613 -0.0913
   53MOL0     C 7068   3.936   1.837   0.262 -0.5258  0.4526  0.3041
   53MOL0     C 7069   3.941   1.970   0.283  0.3786 -0.5175 -0.1138
   53MOL0     N 7070   3.801   2.732   0.393 -0.2193 -0.2038  0.1117
   53MOL0     N 7071   3.779   2.811   0.491 -0.6127 -0.2563 -0.2859
   53MOL0     C 7072   2.985   3.198   1.157 -0.6096 -0.6751  0.4605
   53MOL0     C 7073   2.907   3.299   1.089 -0.2123  0.8238  0.1406
   53MOL0     C 7074   2.777   3.692   0.894  0.3871  0.2180  0.5250
   53MOL0     C 7075   2.645   3.681   0.943  0.1742  0.6227  0.4485
   53MOL0     C 7076   2.539   3.758   0.891 -0.1925  0.3107  0.1767
   53MOL0     C 7077   2.564   3.855   0.794  0.4467 -0.5960 -0.1360
   53MOL0     O 7078   2.474   3.940   0.738  0.0519 -0.1111  0.2578
   53MOL0     C 7079   2.344   3.942   0.785  0.8121 -0.0908  0.3135
   53MOL0     C 7080   2.268   4.034   0.693  0.0926  0.5674 -0.1699
   53MOL0     C 7081   2.113   4.025   0.716 -0.4313  0.2268 -0.2305
   53MOL0     C 7082   2.024   4.118   0.628 -1.4154 -0.1585  0.1658
   53MOL0     C 7083   1.882   4.114   0.662  0.2064 -0.2118  0.7883
   53MOL0     C 7084   1.765   4.117   0.681  0.4865 -0.7455 -0.2178
   53MOL0     C 7085   2.689   3.864   0.746 -0.3882  0.0605  0.2837
   53MOL0     C 7086   2.801   3.782   0.785  0.3659 -0.8935 -0.1308
   53MOL0     C 7087   2.930   3.804   0.715 -0.9434 -0.3348  0.0678
   53MOL0     H 7088   3.114   3.562   1.153 -3.6157  0.3475  0.3601
   53MOL0     H 7089   3.271   3.384   1.219  1.9695 -0.9113 -2.7086
   53MOL0     H 7090   3.094   2.948   1.235  0.2444 -0.1813 -0.3244
   53MOL0     H 7091   3.161   3.008   1.082 -0.1655 -3.5548  0.1106
   53MOL0     H 7092   3.298   2.853   1.298 -0.3892  3.0811  1.4736
   53MOL0     H 7093   3.388   2.961   1.188 -0.1098  0.5521 -1.2367
   53MOL0     H 7094   3.212   2.745   1.066  0.5636 -2.6969  1.9130
   53MOL0     H 7095   3.377   2.729   1.120 -0.4370 -0.1502  0.5858
   53MOL0     H 7096   3.305   2.943   0.921 -0.1168  0.5571  0.4967
   53MOL0     H 7097   3.466   2.906   0.983  0.8770 -0.9251 -1.3133
   53MOL0     H 7098   3.467   2.676   0.895  0.2295 -0.3989 -0.6655
   53MOL0     H 7099   3.310   2.673   0.858  2.4211 -1.9463  1.2626
   53MOL0     H 7100   3.451   2.737   0.652 -0.5242  1.4536 -1.1250
   53MOL0     H 7101   3.344   2.869   0.697 -1.0813 -1.7394 -3.4706
   53MOL0     H 7102   3.635   2.852   0.784 -0.5794  0.0255 -1.3726
   53MOL0     H 7103   3.535   2.994   0.783  2.6047  1.2092 -0.2470
   53MOL0     H 7104   3.514   3.001   0.537 -0.8939 -0.3255  1.1018
   53MOL0     H 7105   3.689   3.008   0.594 -0.9320  3.6002 -0.7244
   53MOL0     H 7106   3.477   2.801   0.365 -0.4820  0.6717  1.4985
   53MOL0     H 7107   3.588   2.693   0.119  3.4666  0.0976 -4.7800
   53MOL0     H 7108   3.748   2.673   0.126  2.2082 -1.5835  2.1038
   53MOL0     H 7109   3.562   2.472   0.279  0.7349  2.7553  2.0828
   53MOL0     H 7110   3.591   2.465   0.108 -1.2630 -0.2901  0.7717
   53MOL0     H 7111   3.812   2.435   0.328 -1.4263  1.2197  0.4273
   53MOL0     H 7112   3.839   2.425   0.155  0.4373 -5.5302 -0.0141
   53MOL0     H 7113   3.719   2.240   0.120  2.7722  0.5371 -0.1557
   53MOL0     H 7114   3.643   2.241   0.283 -0.1742  0.8666 -0.0154
   53MOL0     H 7115   3.601   2.022   0.233 -0.2161 -2.0768 -1.8861
   53MOL0     H 7116   3.601   1.806   0.189  0.5042 -0.0204 -3.4496
   53MOL0     H 7117   3.779   1.388   0.372 -0.3474 -1.1360  0.4669
   53MOL0     H 7118   3.804   1.158   0.386 -1.6315 -2.9216 -3.2219
   53MOL0     H 7119   3.983   0.987   0.413  2.1958  1.6138 -1.2148
   53MOL0     H 7120   3.830   0.905   0.355 -0.8644  1.2227 -2.2877
   53MOL0     H 7121   4.105   0.808   0.335 -0.0577  1.1131  0.5721
   53MOL0     H 7122   3.976   0.743   0.437  3.0200  0.0952  0.8225
   53MOL0     H 7123   3.838   0.697   0.255  0.6896  2.3835  1.3011
   53MOL0     H 7124   3.965   0.737   0.129  2.4979 -3.4976 -1.9140
   53MOL0     H 7125   3.936   0.488   0.243 -0.0736  1.7274 -0.6333
   53MOL0     H 7126   4.059   0.568   0.354 -1.3127  0.8125  0.8983
   53MOL0     H 7127   4.062   0.563   0.051 -4.7087  0.7628  2.1394
   53MOL0     H 7128   4.153   0.438   0.136  0.9055  0.8568 -0.0011
   53MOL0     H 7129   4.220   0.732   0.182 -0.0029 -0.0525  1.2797
   53MOL0     H 7130   4.294   0.587   0.249  1.3204 -0.6430 -1.0259
   53MOL0     H 7131   4.290   0.665  -0.045 -0.3379 -1.4332 -0.1573
   53MOL0     H 7132   4.357   0.515   0.024 -0.7041  0.7169 -1.6327
   53MOL0     H 7133   4.510   0.651   0.166 -2.5170 -0.2731  0.7902
   53MOL0     H 7134   4.536   0.683  -0.007 -2.9206 -2.2339 -1.9035
   53MOL0     H 7135   4.084   1.169   0.060  0.8528  1.6223  0.5185
   53MOL0     H 7136   4.089   1.413   0.059  4.0810 -0.3953  1.3837
   53MOL0     H 7137   4.030   1.791   0.290  0.5131  1.5093 -1.2868
   53MOL0     H 7138   4.033   2.008   0.325  0.9317 -3.4931  1.6908
   53MOL0     H 7139   2.946   3.097   1.162  1.1473 -1.4099  0.1886
   53MOL0     H 7140   2.804   3.279   1.062  0.2944 -0.1971 -1.1000
   53MOL0     H 7141   2.615   3.603   1.013 -0.9482  0.2305 -0.4333
   53MOL0     H 7142   2.440   3.751   0.936  0.0895  0.3390  0.8139
   53MOL0     H 7143   2.338   3.970   0.891  1.0973  0.4885  0.1825
   53MOL0     H 7144   2.295   3.845   0.775  3.8423 -1.5677 -2.0563
   53MOL0     H 7145   2.289   4.012   0.588 -0.3212  0.7222 -0.2907
   53MOL0     H 7146   2.302   4.134   0.720 -1.2141  0.8378  0.6042
   53MOL0     H 7147   2.090   4.052   0.820 -0.2810  1.9229 -0.6069
   53MOL0     H 7148   2.077   3.924   0.695 -0.2036  0.4233 -1.6376
   53MOL0     H 7149   2.064   4.218   0.646  1.6866 -1.5193  1.5493
   53MOL0     H 7150   2.034   4.091   0.522  1.2243  0.6279  0.1328
   53MOL0     H 7151   1.663   4.131   0.711  0.5632  0.5965 -0.4764
   53MOL0     H 7152   2.702   3.947   0.677 -2.0115 -0.9430 -1.3031
   53MOL0     H 7153   2.967   3.724   0.651  1.0432 -0.0232  0.7482
   53MOL0     H 7154   2.929   3.892   0.651 -1.6282  0.3107  0.9337
   53MOL0     H 7155   3.007   3.831   0.789 -1.5157 -0.3622  0.6775
   54MOL0     O 7156   8.734   1.129  10.461 -0.1593  0.2568 -0.8070
   54MOL0     C 7157   8.724   1.248  10.453  0.7780 -1.1996  0.2219
   54MOL0     O 7158   8.826   1.340  10.477  0.4543  0.1509  0.4392
   54MOL0     C 7159   8.962   1.314  10.479  0.3072  0.1729 -0.1703
   54MOL0     C 7160   9.044   1.399  10.556 -0.0526 -0.0290 -0.1827
   54MOL0     C 7161   9.184   1.374  10.555 -0.0556 -0.3783  0.1878
   54MOL0     C 7162   9.243   1.278  10.472  0.9426 -0.5118 -0.3570
   54MOL0     O 7163   9.383   1.267  10.490  0.7516  0.4228  0.2651
   54MOL0     C 7164   9.453   1.187  10.394  0.5315  0.3618  0.2734
   54MOL0     C 7165   9.603   1.209  10.413 -0.3074 -0.3445  0.6602
   54MOL0     C 7166   9.645   1.209  10.566  0.7890  0.5965  0.0235
   54MOL0     C 7167   9.792   1.181  10.580 -0.1664 -0.3008 -0.1773
   54MOL0     C 7168   9.837   1.197  10.725 -0.6028  0.4903 -0.3414
   54MOL0     C 7169   9.994   1.176  10.745  0.4091 -0.8211 -0.7724
   54MOL0     C 7170  10.031   1.247  10.883  0.3848 -0.1655  0.3688
   54MOL0     C 7171   9.983   1.157  10.995  0.3853  0.1466 -0.2914
   54MOL0     N 7172  10.038   1.022  10.992 -0.2973 -0.3979  0.3876
   54MOL0     C 7173  10.165   0.993  11.024 -0.7435 -0.0531 -0.3284
   54MOL0     C 7174  10.179   0.853  11.037  0.1632 -0.0539  0.3631
   54MOL0     C 7175  10.290   0.764  11.098  0.3381  0.5224 -0.1772
   54MOL0     C 7176  10.413   0.770  11.012 -0.3228  0.0092  0.7133
   54MOL0     C 7177  10.401   0.737  10.870 -0.3551  0.6986  0.3151
   54MOL0     C 7178  10.535   0.707  10.793  0.0382  0.1610 -0.4778
   54MOL0     O 7179  10.643   0.798  10.837  0.0789  0.0118  0.0946
   54MOL0     C 7180  10.777   0.764  10.842 -0.7030  0.0723 -0.0473
   54MOL0     C 7181  10.864   0.861  10.883 -0.3232  0.3585 -0.0184
   54MOL0     C 7182  10.993   0.834  10.909 -0.2865 -0.0536  0.0349
   54MOL0     C 7183  11.056   0.716  10.853  0.5577  0.4473  0.2015
   54MOL0     C 7184  11.200   0.700  10.860  1.1520  0.4987 -0.3832
   54MOL0     O 7185  11.243   0.576  10.815 -0.2068  0.3673 -0.5170
   54MOL0     C 7186  11.370   0.550  10.781 -0.1451  0.3238  0.5955
   54MOL0     C 7187  11.414   0.410  10.785  0.6686 -0.9246  0.2071
   54MOL0     C 7188  11.537   0.382  10.732 -0.6412  0.7625  0.2923
   54MOL0     C 7189  11.632   0.479  10.690  0.2228 -0.0916 -0.0995
   54MOL0     O 7190  11.745   0.426  10.639 -0.1518 -0.9759  0.4070
   54MOL0     C 7191  11.852   0.524  10.636  0.8038  0.6543 -0.9485
   54MOL0     C 7192  11.977   0.458  10.574  0.6300 -0.7482  0.2023
   54MOL0     C 7193  12.004   0.318  10.626  0.1536  0.0286 -0.0200
   54MOL0     C 7194  12.142   0.260  10.590  0.5462  0.1014 -0.6714
   54MOL0     C 7195  12.167   0.234  10.441 -0.6592  0.0081 -0.1318
   54MOL0     C 7196  12.315   0.197  10.415 -0.4654 -0.6071 -0.2941
   54MOL0     C 7197  12.363   0.065  10.479  0.3749 -0.4823 -0.4048
   54MOL0     C 7198  12.508   0.034  10.442 -0.3542  0.5855  0.3532
   54MOL0    Cl 7199  12.581  -0.107  10.523 -0.0850 -0.4967 -0.1455
   54MOL0     C 7200  11.596   0.614  10.704  0.0458  0.1965  0.4053
   54MOL0     C 7201  11.467   0.646  10.745  0.0318  0.0615 -0.6530
   54MOL0     O 7202  11.268   0.786  10.907  0.0627 -0.5329  0.5998
   54MOL0     C 7203  10.969   0.613  10.797  0.2973 -0.1437 -0.4576
   54MOL0     C 7204  10.830   0.636  10.804 -0.2612 -0.5242  0.8955
   54MOL0     N 7205  10.055   0.809  10.994  0.1769  0.9896  0.3968
   54MOL0     N 7206   9.972   0.904  10.987  0.2390  0.3080  0.4570
   54MOL0     C 7207   9.152   1.189  10.398 -0.5449 -0.0455  0.2227
   54MOL0     C 7208   9.016   1.209  10.401 -0.2152  0.0511  0.0952
   54MOL0     C 7209   8.586   1.298  10.428 -0.4487  0.3018 -0.0100
   54MOL0     C 7210   8.480   1.210  10.456  0.0567 -0.2119  0.4636
   54MOL0     C 7211   8.353   1.264  10.439 -0.3175 -0.4092 -0.4694
   54MOL0     C 7212   8.328   1.396  10.403  0.1270 -0.0372 -0.0801
   54MOL0     O 7213   8.199   1.464  10.390 -0.8695 -0.0132 -0.2119
   54MOL0     C 7214   8.086   1.379  10.373 -0.0789  1.0610 -0.6722
   54MOL0     C 7215   8.022   1.336  10.504  0.0548  0.1011  0.4945
   54MOL0     C 7216   7.941   1.210  10.501  0.6473  0.6339 -0.1202
   54MOL0     C 7217   7.832   1.196  10.612 -0.3147 -0.1148  0.1175
   54MOL0     C 7218   7.700   1.241  10.573  0.7187  0.1926  0.6273
   54MOL0     C 7219   7.585   1.276  10.541 -0.3108 -0.7097  0.0334
   54MOL0     C 7220   8.437   1.478  10.378  0.4095  0.8473 -0.0243
   54MOL0     C 7221   8.565   1.429  10.387 -0.7031  0.9048  0.0700
   54MOL0     C 7222   8.670   1.532  10.345 -0.2977 -0.7458 -0.1536
   54MOL0     H 7223   9.000   1.485  10.605  0.0088  1.7570 -3.0125
   54MOL0     H 7224   9.233   1.447  10.619 -2.4596  2.4513 -0.9594
   54MOL0     H 7225   9.411   1.087  10.403 -1.4999  1.1496  0.1766
   54MOL0     H 7226   9.431   1.226  10.294  0.4697 -0.2307  0.0526
   54MOL0     H 7227   9.624   1.310  10.377  1.1308 -0.6400  0.6045
   54MOL0     H 7228   9.661   1.133  10.359  2.2633  1.0105  1.3549
   54MOL0     H 7229   9.593   1.122  10.609 -1.2316  0.7177 -1.9998
   54MOL0     H 7230   9.615   1.303  10.613 -3.2698 -0.0072 -0.9857
   54MOL0     H 7231   9.811   1.079  10.547 -0.4733  0.2947 -2.3745
   54MOL0     H 7232   9.843   1.252  10.515  0.6107  0.3232  1.0766
   54MOL0     H 7233   9.813   1.297  10.762 -0.7312 -0.2791  1.8082
   54MOL0     H 7234   9.783   1.119  10.780 -1.6196  0.5723 -1.1996
   54MOL0     H 7235  10.019   1.070  10.732  0.2222 -0.5543 -4.0860
   54MOL0     H 7236  10.055   1.225  10.668 -0.3273 -1.7135 -1.9653
   54MOL0     H 7237   9.984   1.346  10.886 -0.6407 -0.3954 -3.3670
   54MOL0     H 7238  10.139   1.252  10.897  0.3762 -0.0086  0.3712
   54MOL0     H 7239  10.003   1.210  11.089 -2.5666  1.9481 -0.5535
   54MOL0     H 7240   9.874   1.155  11.001  0.2984  2.2401 -0.4944
   54MOL0     H 7241  10.234   1.072  11.052 -0.3017 -0.7844  0.7260
   54MOL0     H 7242  10.334   0.816  11.183  1.6811  1.2900 -1.3026
   54MOL0     H 7243  10.267   0.659  11.119  1.7458  0.4387  1.1501
   54MOL0     H 7244  10.456   0.870  11.027  0.5583 -0.1004 -0.9499
   54MOL0     H 7245  10.469   0.685  11.051 -2.3096 -1.1423  1.2487
   54MOL0     H 7246  10.362   0.821  10.813  1.8300  0.9089 -0.9957
   54MOL0     H 7247  10.325   0.659  10.859  1.9907 -1.5912 -0.6826
   54MOL0     H 7248  10.504   0.725  10.690  2.0445 -0.9202 -1.3187
   54MOL0     H 7249  10.560   0.601  10.799 -1.8304 -0.2612  1.1739
   54MOL0     H 7250  10.820   0.953  10.919  0.3173 -0.4942  3.2590
   54MOL0     H 7251  11.051   0.905  10.967 -0.8450 -1.8315  2.9884
   54MOL0     H 7252  11.353   0.331  10.828  1.5755 -1.1518  1.1140
   54MOL0     H 7253  11.564   0.277  10.733 -0.6892  0.7223 -0.8812
   54MOL0     H 7254  11.828   0.613  10.576  0.7871  2.2825  1.3172
   54MOL0     H 7255  11.878   0.555  10.738 -1.8234  0.7875 -0.2554
   54MOL0     H 7256  11.949   0.449  10.469  0.6457 -1.1748  0.2355
   54MOL0     H 7257  12.068   0.520  10.577 -1.1879  2.1861 -0.8466
   54MOL0     H 7258  11.992   0.323  10.735 -2.1538  4.0377 -0.2659
   54MOL0     H 7259  11.928   0.254  10.581 -1.8684  2.1946  0.0955
   54MOL0     H 7260  12.134   0.172  10.655 -1.2223 -0.4746 -1.6085
   54MOL0     H 7261  12.222   0.324  10.629  0.6563 -0.4778  0.0712
   54MOL0     H 7262  12.145   0.326  10.385  0.4791  0.5278  0.2509
   54MOL0     H 7263  12.098   0.157  10.405 -1.0676 -0.4196  1.5011
   54MOL0     H 7264  12.326   0.185  10.307  1.6140  1.7688 -0.4331
   54MOL0     H 7265  12.372   0.283  10.452 -1.2224  0.9448 -2.5373
   54MOL0     H 7266  12.295  -0.015  10.446  1.0269 -0.7191 -1.2115
   54MOL0     H 7267  12.354   0.069  10.588 -0.6410  0.3031 -0.4991
   54MOL0     H 7268  12.518   0.009  10.336 -0.3342  0.2156  0.4401
   54MOL0     H 7269  12.563   0.123  10.474  0.1313 -0.5484  2.8899
   54MOL0     H 7270  11.651   0.701  10.669 -1.3730  0.3232 -1.6875
   54MOL0     H 7271  11.447   0.752  10.739 -1.7243 -0.2554 -1.0594
   54MOL0     H 7272  11.012   0.528  10.746 -0.2443  0.2797 -1.6470
   54MOL0     H 7273  10.764   0.558  10.767 -0.3599  0.2577 -0.6349
   54MOL0     H 7274   9.187   1.109  10.334 -3.1169 -0.4243 -0.8176
   54MOL0     H 7275   8.953   1.155  10.331 -1.8236  2.7491 -0.7287
   54MOL0     H 7276   8.491   1.103  10.470 -0.4044 -1.0317 -3.9101
   54MOL0     H 7277   8.261   1.208  10.437 -1.3606  1.1608  0.6308
   54MOL0     H 7278   8.109   1.284  10.323 -0.8503 -0.5581  1.8744
   54MOL0     H 7279   8.004   1.429  10.320  3.1259  1.5341 -5.9080
   54MOL0     H 7280   7.960   1.414  10.551 -1.9641 -1.4478  0.5303
   54MOL0     H 7281   8.102   1.306  10.572  0.6716 -2.2821 -1.1684
   54MOL0     H 7282   8.010   1.124  10.502  0.3490  0.3868 -0.3705
   54MOL0     H 7283   7.885   1.200  10.407 -0.5331  3.4345  0.2088
   54MOL0     H 7284   7.828   1.088  10.631 -1.3432 -0.1917 -0.4992
   54MOL0     H 7285   7.864   1.250  10.702  0.3164  0.9737 -0.7463
   54MOL0     H 7286   7.486   1.312  10.524  0.2051  0.1695 -1.2905
   54MOL0     H 7287   8.414   1.582  10.358 -2.1737  0.5529  1.0424
   54MOL0     H 7288   8.725   1.571  10.432 -0.2274 -0.9815 -0.0909
   54MOL0     H 7289   8.742   1.493  10.273 -0.1601  0.3793 -0.6443
   54MOL0     H 7290   8.618   1.617  10.299 -0.4074  0.0321  1.3091
   55MOL0     O 7291   1.006   3.195   3.590 -0.1372 -0.2566  0.2332
   55MOL0     C 7292   0.973   3.080   3.633  0.3341 -0.3204  0.4154
   55MOL0     O 7293   1.041   2.969   3.608  0.1535  0.1702  0.3071
   55MOL0     C 7294   1.162   2.977   3.546  0.4735 -0.0678  1.4635
   55MOL0     C 7295   1.176   2.930   3.417  0.3601  0.1970  0.7433
   55MOL0     C 7296   1.304   2.947   3.354 -0.0109  1.5126  0.0802
   55MOL0     C 7297   1.411   3.005   3.417  0.6391 -0.0268  0.7752
   55MOL0     O 7298   1.528   3.011   3.340 -0.4610 -0.1078 -0.2145
   55MOL0     C 7299   1.649   3.077   3.382  1.1233  0.9962  0.1414
   55MOL0     C 7300   1.729   3.073   3.252 -0.3333 -0.1343  0.6501
   55MOL0     C 7301   1.770   2.933   3.194 -0.2967  0.6801 -0.6608
   55MOL0     C 7302   1.881   2.930   3.093 -0.2906 -0.0938  0.6722
   55MOL0     C 7303   1.906   2.794   3.026  0.1891 -0.1197 -0.1859
   55MOL0     C 7304   2.025   2.800   2.922  1.2452  0.0395 -0.6061
   55MOL0     C 7305   2.165   2.851   2.982 -0.0327 -0.1459  0.9152
   55MOL0     C 7306   2.218   2.759   3.091  0.0967 -0.9721 -0.1096
   55MOL0     N 7307   2.350   2.794   3.147 -0.0073 -0.5034 -0.1162
   55MOL0     C 7308   2.446   2.705   3.195 -0.4165 -0.3664  0.7672
   55MOL0     C 7309   2.544   2.784   3.242 -0.4910  0.3331 -0.0403
   55MOL0     C 7310   2.675   2.738   3.304 -0.0053  0.1941  0.1252
   55MOL0     C 7311   2.772   2.709   3.180 -0.1804 -0.1879  0.0444
   55MOL0     C 7312   2.900   2.630   3.221 -0.2643  0.3519 -0.2921
   55MOL0     C 7313   2.985   2.694   3.328  0.6712 -0.0042 -0.9876
   55MOL0     O 7314   3.116   2.644   3.313 -0.0666  0.2119  0.2770
   55MOL0     C 7315   3.213   2.716   3.375 -0.1459 -0.7222 -0.5263
   55MOL0     C 7316   3.344   2.695   3.336 -0.3100 -0.1154  0.0054
   55MOL0     C 7317   3.452   2.762   3.382  0.4758 -0.3369  0.0983
   55MOL0     C 7318   3.435   2.851   3.490  0.1493 -0.5158  0.4085
   55MOL0     C 7319   3.551   2.923   3.551 -0.3770 -0.0156 -0.1749
   55MOL0     O 7320   3.675   2.886   3.499  0.6522  0.0830  0.6292
   55MOL0     C 7321   3.795   2.911   3.562 -0.2245 -0.6268 -0.3514
   55MOL0     C 7322   3.819   2.893   3.701  0.0996 -0.4052  0.8943
   55MOL0     C 7323   3.940   2.915   3.765  0.1380  0.3677 -0.4491
   55MOL0     C 7324   4.051   2.960   3.685 -0.3404 -0.2266 -1.1965
   55MOL0     O 7325   4.172   2.994   3.735 -0.0039 -0.0186 -0.7436
   55MOL0     C 7326   4.219   2.904   3.848  0.1901  0.4125  0.0618
   55MOL0     C 7327   4.375   2.918   3.873  0.2869  0.4694 -0.0903
   55MOL0     C 7328   4.418   3.060   3.897 -0.0951 -0.0165  0.0596
   55MOL0     C 7329   4.564   3.047   3.947  0.5589 -0.0885 -0.5852
   55MOL0     C 7330   4.640   3.181   3.955 -0.0734  0.4550  0.2374
   55MOL0     C 7331   4.592   3.272   4.065 -0.0587  0.3591  0.0359
   55MOL0     C 7332   4.633   3.423   4.062  0.8298  0.1230 -0.6604
   55MOL0     C 7333   4.780   3.445   4.025  0.2512 -0.1055  0.2917
   55MOL0    Cl 7334   4.886   3.353   4.136 -0.0083 -0.0382 -0.3176
   55MOL0     C 7335   4.027   2.977   3.551  0.0742 -0.2339 -0.8193
   55MOL0     C 7336   3.905   2.957   3.492  0.6709 -0.2751  0.4948
   55MOL0     O 7337   3.541   2.982   3.660 -0.6690 -0.1095  0.2668
   55MOL0     C 7338   3.299   2.878   3.532 -0.1103  0.5279 -0.0546
   55MOL0     C 7339   3.193   2.819   3.472 -0.1950  0.5596 -0.1637
   55MOL0     N 7340   2.524   2.913   3.198  0.3691  0.8952  0.2511
   55MOL0     N 7341   2.405   2.920   3.153 -0.1750  0.2077 -0.3120
   55MOL0     C 7342   1.396   3.060   3.543  0.6130  0.1619 -0.4503
   55MOL0     C 7343   1.273   3.040   3.609 -0.1940  1.1269 -0.1831
   55MOL0     C 7344   0.853   3.069   3.715 -0.6441  0.9854  0.2948
   55MOL0     C 7345   0.862   2.968   3.817 -0.6128 -0.3971  0.4328
   55MOL0     C 7346   0.754   2.926   3.896 -0.3540 -0.2735  0.2702
   55MOL0     C 7347   0.632   2.985   3.875  0.9536  0.3118 -0.7015
   55MOL0     O 7348   0.519   2.943   3.946  0.2133 -0.0117  0.3498
   55MOL0     C 7349   0.386   2.993   3.925  0.4113  0.4488  0.8259
   55MOL0     C 7350   0.370   3.112   4.026  0.1245 -0.6375  0.5884
   55MOL0     C 7351   0.225   3.166   4.022  0.5638  1.0498 -0.0156
   55MOL0     C 7352   0.113   3.066   4.078 -0.2918 -0.1206  0.6786
   55MOL0     C 7353   0.034   3.009   3.961 -0.1464  0.2250 -0.1106
   55MOL0     C 7354  -0.017   2.965   3.864  0.0298  0.8922  0.2283
   55MOL0     C 7355   0.621   3.076   3.767  0.9017 -0.0491 -0.2496
   55MOL0     C 7356   0.731   3.128   3.695 -0.3359  0.4435 -0.8163
   55MOL0     C 7357   0.718   3.240   3.596  0.3765  1.2020 -0.8656
   55MOL0     H 7358   1.096   2.880   3.364  1.1583 -1.1912  0.8088
   55MOL0     H 7359   1.329   2.912   3.255 -1.4614  0.9537 -0.1081
   55MOL0     H 7360   1.636   3.177   3.425  0.0050 -0.0435  2.3916
   55MOL0     H 7361   1.703   3.021   3.460 -0.9026 -0.0337  0.8881
   55MOL0     H 7362   1.823   3.124   3.273  0.7038 -2.6362  2.6843
   55MOL0     H 7363   1.674   3.122   3.171 -1.7376 -0.7193  1.2151
   55MOL0     H 7364   1.676   2.894   3.154 -1.3029  1.0169  1.2417
   55MOL0     H 7365   1.796   2.867   3.277 -1.0543  0.2185 -0.7801
   55MOL0     H 7366   1.869   3.006   3.015 -0.4535 -0.2144  0.5788
   55MOL0     H 7367   1.975   2.959   3.140  0.1698  1.6810 -1.2011
   55MOL0     H 7368   1.936   2.716   3.097 -0.5450 -0.4414 -0.2143
   55MOL0     H 7369   1.818   2.762   2.970 -1.6253  0.2356  2.2730
   55MOL0     H 7370   2.037   2.695   2.894 -0.9865 -0.6724  0.8591
   55MOL0     H 7371   2.001   2.851   2.828  2.2374 -1.8821 -1.9686
   55MOL0     H 7372   2.160   2.955   3.016  3.4579 -0.4547  2.8407
   55MOL0     H 7373   2.242   2.847   2.904  2.3728  1.3936  3.0493
   55MOL0     H 7374   2.151   2.736   3.174  0.7864  0.4382  0.8800
   55MOL0     H 7375   2.235   2.661   3.045 -0.3982 -0.2123 -2.0056
   55MOL0     H 7376   2.446   2.597   3.190 -0.1369 -0.4556  2.3026
   55MOL0     H 7377   2.706   2.818   3.372 -4.7462  3.3699 -0.9887
   55MOL0     H 7378   2.662   2.640   3.352  0.5427 -1.1060 -2.2388
   55MOL0     H 7379   2.713   2.649   3.111  0.3513 -0.4025 -0.2250
   55MOL0     H 7380   2.794   2.789   3.109 -1.3871 -1.4776 -1.8602
   55MOL0     H 7381   2.965   2.629   3.134 -0.1224  1.6631 -0.2267
   55MOL0     H 7382   2.873   2.527   3.244 -0.6788  0.5811  0.2852
   55MOL0     H 7383   2.951   2.661   3.427  0.4278  2.9945  0.0361
   55MOL0     H 7384   2.983   2.803   3.322 -1.7560 -0.0179 -1.4080
   55MOL0     H 7385   3.339   2.616   3.262 -1.4540  0.4862 -0.5842
   55MOL0     H 7386   3.554   2.753   3.347  0.0940 -0.6595 -0.9656
   55MOL0     H 7387   3.725   2.857   3.742 -0.6259 -0.3609 -0.6667
   55MOL0     H 7388   3.955   2.891   3.870  2.0153 -3.4808 -1.4470
   55MOL0     H 7389   4.162   2.934   3.936 -2.3540 -1.4026 -0.8723
   55MOL0     H 7390   4.190   2.800   3.834 -0.1214  0.7555 -2.2737
   55MOL0     H 7391   4.410   2.854   3.954 -0.2682 -1.5356 -1.3539
   55MOL0     H 7392   4.421   2.878   3.782 -0.2238 -0.7365  0.1675
   55MOL0     H 7393   4.397   3.126   3.812 -2.5536  0.1402  0.7112
   55MOL0     H 7394   4.362   3.098   3.983 -1.9953 -1.2431 -0.5876
   55MOL0     H 7395   4.627   2.978   3.891 -1.0046 -0.1633 -2.3266
   55MOL0     H 7396   4.557   3.000   4.046  0.5112 -1.1150 -1.0681
   55MOL0     H 7397   4.609   3.234   3.865 -0.2863 -1.0243 -0.5958
   55MOL0     H 7398   4.745   3.155   3.968 -1.0499 -3.4714  1.6634
   55MOL0     H 7399   4.483   3.265   4.076  0.0664 -1.0580  0.5684
   55MOL0     H 7400   4.630   3.232   4.160  0.7555 -0.4745 -0.6295
   55MOL0     H 7401   4.616   3.455   4.165 -0.1721  0.3306 -0.8751
   55MOL0     H 7402   4.568   3.485   3.999  1.4477 -0.7985 -2.2551
   55MOL0     H 7403   4.800   3.412   3.923 -1.2330 -0.1984  0.0078
   55MOL0     H 7404   4.803   3.550   4.045  1.9435 -0.8829  3.1296
   55MOL0     H 7405   4.105   3.020   3.489  0.3419  1.1725  0.4318
   55MOL0     H 7406   3.891   2.969   3.385 -2.4392  3.2889  1.1016
   55MOL0     H 7407   3.283   2.947   3.614  3.5975  2.8509 -1.0148
   55MOL0     H 7408   3.093   2.856   3.494  0.4540  1.4301  1.4218
   55MOL0     H 7409   1.480   3.117   3.582  0.7675  0.8832 -1.7826
   55MOL0     H 7410   1.259   3.063   3.714  1.2435  1.2552 -0.0054
   55MOL0     H 7411   0.952   2.911   3.837  1.8359  2.9803 -0.0752
   55MOL0     H 7412   0.758   2.849   3.972 -0.7814 -0.6096 -0.0451
   55MOL0     H 7413   0.313   2.915   3.948  0.6671 -0.2662 -0.7179
   55MOL0     H 7414   0.363   3.029   3.824  0.1032  0.7223  0.9885
   55MOL0     H 7415   0.443   3.192   4.016  1.1079 -1.5099  0.6597
   55MOL0     H 7416   0.379   3.062   4.123  2.5341 -0.3218  0.5826
   55MOL0     H 7417   0.198   3.180   3.916  2.1468 -1.7147 -0.8963
   55MOL0     H 7418   0.207   3.262   4.070 -2.2080  2.7612 -3.9136
   55MOL0     H 7419   0.151   2.973   4.121  2.4661  0.6853  0.1838
   55MOL0     H 7420   0.051   3.119   4.150  1.6337  1.4829  1.2497
   55MOL0     H 7421  -0.058   2.907   3.784 -0.0860 -1.3708  1.8429
   55MOL0     H 7422   0.525   3.118   3.738  0.9559 -0.0429 -0.4210
   55MOL0     H 7423   0.799   3.314   3.602 -1.0174  2.8818 -2.0703
   55MOL0     H 7424   0.711   3.208   3.492 -0.0058 -0.8402 -0.2478
   55MOL0     H 7425   0.622   3.286   3.620 -2.2058 -1.6977 -4.5659
   56MOL0     O 7426  10.986   1.032   7.215 -0.4715 -0.5596 -0.2096
   56MOL0     C 7427  10.888   1.100   7.230  1.0199  0.5084  0.3333
   56MOL0     O 7428  10.874   1.197   7.316 -0.3125 -0.6300 -1.0346
   56MOL0     C 7429  10.983   1.270   7.354  0.0217 -0.7878 -0.7177
   56MOL0     C 7430  11.015   1.395   7.293 -0.2174 -0.2104  0.1976
   56MOL0     C 7431  11.123   1.476   7.334  0.1605  0.5288 -0.6010
   56MOL0     C 7432  11.206   1.428   7.444  0.0570 -0.0194 -0.9586
   56MOL0     O 7433  11.312   1.495   7.496 -0.3719 -0.5233  0.4000
   56MOL0     C 7434  11.291   1.601   7.585 -0.0630 -1.3264  0.3824
   56MOL0     C 7435  11.423   1.640   7.650 -0.5319  0.0111  0.9825
   56MOL0     C 7436  11.404   1.754   7.762 -0.2038  0.1670  0.1602
   56MOL0     C 7437  11.533   1.786   7.831 -0.0893  0.3685  0.2672
   56MOL0     C 7438  11.600   1.661   7.880 -0.2566 -0.0791  0.5461
   56MOL0     C 7439  11.701   1.697   7.994  0.3725  0.1490  0.7331
   56MOL0     C 7440  11.770   1.565   8.039  0.0596  0.9352 -0.1802
   56MOL0     C 7441  11.863   1.595   8.149  0.1385 -0.1359 -0.7978
   56MOL0     N 7442  11.996   1.548   8.132  0.4734 -0.3071 -0.7358
   56MOL0     C 7443  12.089   1.617   8.058  0.1854 -0.0833 -0.3636
   56MOL0     C 7444  12.195   1.540   8.068 -0.0869 -0.3559 -0.2122
   56MOL0     C 7445  12.331   1.584   8.015 -0.4959  1.2931  0.1003
   56MOL0     C 7446  12.397   1.466   7.942  0.7226  0.2068  0.0278
   56MOL0     C 7447  12.439   1.347   8.030 -0.2791  0.3830  0.1046
   56MOL0     C 7448  12.558   1.271   7.981 -0.2353 -0.5906 -0.1204
   56MOL0     O 7449  12.536   1.197   7.854 -0.2787  0.6081  0.2110
   56MOL0     C 7450  12.634   1.100   7.841  0.2450 -0.4984 -0.5494
   56MOL0     C 7451  12.620   0.973   7.899  0.8514 -0.5063 -0.1170
   56MOL0     C 7452  12.728   0.881   7.893 -0.3647 -0.7669 -0.6179
   56MOL0     C 7453  12.842   0.909   7.813  0.2503  0.0135 -0.4067
   56MOL0     C 7454  12.935   0.799   7.788 -0.6246  0.1332  0.5777
   56MOL0     O 7455  13.067   0.840   7.754  0.3272 -0.1526  0.0737
   56MOL0     C 7456  13.165   0.756   7.721 -0.6725  0.0289 -0.1597
   56MOL0     C 7457  13.169   0.621   7.744 -0.3956 -0.4330  0.1373
   56MOL0     C 7458  13.284   0.552   7.714 -0.8812 -0.4687  0.2180
   56MOL0     C 7459  13.397   0.624   7.671  0.5655  0.6813  0.5016
   56MOL0     O 7460  13.512   0.559   7.639  0.1039  0.0861 -0.3252
   56MOL0     C 7461  13.577   0.494   7.750 -0.0461 -0.6995 -0.0250
   56MOL0     C 7462  13.714   0.475   7.701  1.2311 -0.1820  0.1048
   56MOL0     C 7463  13.794   0.378   7.789  0.8380 -0.2392 -0.1123
   56MOL0     C 7464  13.940   0.383   7.747  0.5538  0.4554  0.0063
   56MOL0     C 7465  14.009   0.251   7.760 -0.9534  0.4062  0.1393
   56MOL0     C 7466  14.161   0.272   7.703 -0.2060  0.2048 -0.9513
   56MOL0     C 7467  14.246   0.151   7.737 -0.1751  0.4901  0.2673
   56MOL0     C 7468  14.309   0.159   7.868 -0.0714  0.3510  0.2387
   56MOL0    Cl 7469  14.401  -0.000   7.882  0.3235 -0.1363  0.4281
   56MOL0     C 7470  13.392   0.756   7.643 -0.2736 -1.1037 -0.6382
   56MOL0     C 7471  13.274   0.823   7.669 -0.0914 -0.1923  0.8324
   56MOL0     O 7472  12.895   0.685   7.784 -0.4302  0.5668 -0.3501
   56MOL0     C 7473  12.859   1.038   7.761 -0.4684  0.2840 -0.3109
   56MOL0     C 7474  12.755   1.130   7.783 -0.0133 -0.2789  0.3794
   56MOL0     N 7475  12.172   1.430   8.153 -0.3195  0.5430  1.3647
   56MOL0     N 7476  12.054   1.447   8.199  0.0411 -0.0039  0.2840
   56MOL0     C 7477  11.174   1.298   7.503 -0.0640 -0.1332 -1.0183
   56MOL0     C 7478  11.057   1.229   7.468  0.3747  0.0883  0.1602
   56MOL0     C 7479  10.753   1.060   7.161  0.5212  0.5359  0.6518
   56MOL0     C 7480  10.648   1.154   7.172  0.3954  0.2818 -0.0979
   56MOL0     C 7481  10.518   1.120   7.123 -0.4901  0.4476 -0.8350
   56MOL0     C 7482  10.496   0.991   7.069 -0.0009 -0.1538  0.1263
   56MOL0     O 7483  10.361   0.976   7.034  0.3881 -0.0789  1.0054
   56MOL0     C 7484  10.313   0.841   7.016 -0.9251 -0.0042 -0.4414
   56MOL0     C 7485  10.164   0.838   7.021 -0.1299 -0.7262  0.0281
   56MOL0     C 7486  10.101   0.926   6.906  0.0322  0.0741 -0.2826
   56MOL0     C 7487   9.945   0.921   6.909 -0.6059  0.3073  0.0199
   56MOL0     C 7488   9.888   1.021   6.823 -0.2452  0.4230 -0.0241
   56MOL0     C 7489   9.825   1.111   6.770  0.6188  0.1402  0.2599
   56MOL0     C 7490  10.604   0.897   7.046  0.5909  0.1274 -0.4809
   56MOL0     C 7491  10.736   0.931   7.092 -0.6904  0.2799  0.3601
   56MOL0     C 7492  10.852   0.838   7.061 -0.5782 -0.2619 -0.2975
   56MOL0     H 7493  10.953   1.427   7.209 -0.2699  1.1609  0.7269
   56MOL0     H 7494  11.140   1.572   7.289  0.7956  0.5462 -0.3328
   56MOL0     H 7495  11.250   1.693   7.543 -0.5060 -1.3389  0.7744
   56MOL0     H 7496  11.214   1.568   7.655 -1.8191 -0.0301 -0.8673
   56MOL0     H 7497  11.486   1.688   7.575 -0.1175  0.5852  1.6918
   56MOL0     H 7498  11.469   1.548   7.688  0.4899 -0.5264 -1.3645
   56MOL0     H 7499  11.327   1.726   7.834 -3.7825  0.6152 -3.1501
   56MOL0     H 7500  11.356   1.842   7.719 -0.5228 -0.7915 -1.5345
   56MOL0     H 7501  11.597   1.842   7.762  0.7988 -0.7668  0.1313
   56MOL0     H 7502  11.518   1.851   7.918 -0.2471 -0.0197  0.5375
   56MOL0     H 7503  11.526   1.603   7.935 -1.0474  1.5588  1.2952
   56MOL0     H 7504  11.650   1.610   7.797 -1.1361 -0.3289  0.1549
   56MOL0     H 7505  11.769   1.774   7.955  0.1987  0.2284  0.5803
   56MOL0     H 7506  11.654   1.743   8.081 -2.0153 -0.4830 -0.1339
   56MOL0     H 7507  11.827   1.511   7.963  0.6644  1.6311 -0.2337
   56MOL0     H 7508  11.692   1.493   8.067 -1.1341  2.0071 -0.6354
   56MOL0     H 7509  11.863   1.704   8.160  2.8967 -0.2026  0.7607
   56MOL0     H 7510  11.831   1.545   8.241  1.7353  1.4889  0.7092
   56MOL0     H 7511  12.086   1.712   8.007  2.3665  1.2288  1.7212
   56MOL0     H 7512  12.324   1.669   7.946  2.9863  0.7515 -1.1191
   56MOL0     H 7513  12.398   1.613   8.096  0.8690  1.5218 -1.0790
   56MOL0     H 7514  12.332   1.418   7.869  2.5792 -1.6850 -0.5067
   56MOL0     H 7515  12.484   1.494   7.882  2.2194 -1.8278  1.1175
   56MOL0     H 7516  12.361   1.272   8.015 -1.4151  1.8764 -1.9104
   56MOL0     H 7517  12.437   1.391   8.131  2.1406  0.2745  0.2387
   56MOL0     H 7518  12.569   1.194   8.058  0.4709  0.2916  0.6796
   56MOL0     H 7519  12.650   1.328   7.987 -0.1780 -0.8313  4.2081
   56MOL0     H 7520  12.524   0.955   7.948  1.7513 -1.3674  1.4160
   56MOL0     H 7521  12.707   0.780   7.927  2.0163 -2.2635 -3.1430
   56MOL0     H 7522  13.093   0.564   7.797 -3.1863  3.5115  0.8020
   56MOL0     H 7523  13.293   0.446   7.735 -0.6455 -0.4957 -0.0105
   56MOL0     H 7524  13.583   0.559   7.839  1.7258 -0.1310 -0.5099
   56MOL0     H 7525  13.528   0.401   7.779  4.5851 -3.5061 -0.2219
   56MOL0     H 7526  13.725   0.439   7.598  3.2534  1.2537 -0.2459
   56MOL0     H 7527  13.766   0.571   7.709 -0.3809  0.6530  1.0888
   56MOL0     H 7528  13.798   0.396   7.896  2.5904  1.9026 -0.4682
   56MOL0     H 7529  13.748   0.280   7.774  0.9387 -0.8360  2.8558
   56MOL0     H 7530  13.990   0.459   7.807 -1.0759  1.3710  0.2540
   56MOL0     H 7531  13.954   0.415   7.644  3.9727 -0.4196  0.0510
   56MOL0     H 7532  13.958   0.168   7.711  0.8387 -1.6532  1.5747
   56MOL0     H 7533  14.019   0.221   7.865  2.5977 -0.4981 -0.3188
   56MOL0     H 7534  14.169   0.283   7.595 -0.1998 -3.1892 -1.4011
   56MOL0     H 7535  14.201   0.363   7.750 -1.0065  0.9447 -1.6759
   56MOL0     H 7536  14.334   0.140   7.673  0.7088 -0.0451  1.5335
   56MOL0     H 7537  14.193   0.055   7.743  1.2296 -0.3648 -0.3230
   56MOL0     H 7538  14.372   0.248   7.864 -2.1729  1.8701 -1.5230
   56MOL0     H 7539  14.241   0.179   7.951 -0.8102  0.9325 -0.4796
   56MOL0     H 7540  13.481   0.815   7.623 -1.5871  0.8312 -1.0797
   56MOL0     H 7541  13.267   0.929   7.652 -1.6491 -0.1889  1.3397
   56MOL0     H 7542  12.947   1.075   7.710 -0.9250 -0.5944 -1.8010
   56MOL0     H 7543  12.774   1.234   7.757 -1.4141 -0.5086 -1.7659
   56MOL0     H 7544  11.235   1.259   7.584 -0.7772 -0.7309 -0.7552
   56MOL0     H 7545  11.028   1.140   7.524  0.8113  0.8617  1.6912
   56MOL0     H 7546  10.642   1.250   7.222 -2.7514  0.9224 -1.4861
   56MOL0     H 7547  10.444   1.196   7.144 -0.5099  0.2189 -0.0620
   56MOL0     H 7548  10.342   0.781   7.102 -1.4198  0.4657  0.0605
   56MOL0     H 7549  10.350   0.790   6.926 -0.5626 -2.0959  0.8216
   56MOL0     H 7550  10.129   0.879   7.116 -0.4124  0.1808 -0.4525
   56MOL0     H 7551  10.125   0.736   7.012 -2.1886  0.0977 -1.1841
   56MOL0     H 7552  10.145   0.880   6.817 -0.8685 -0.8777 -0.2662
   56MOL0     H 7553  10.126   1.032   6.913  0.5057 -0.0361 -0.3270
   56MOL0     H 7554   9.909   0.831   6.857 -0.1347  2.3932 -4.3417
   56MOL0     H 7555   9.921   0.930   7.015  3.4465  1.6604  1.0013
   56MOL0     H 7556   9.778   1.190   6.715 -0.5555 -1.2145 -0.7575
   56MOL0     H 7557  10.584   0.799   7.003 -0.1429  0.5219 -1.0702
   56MOL0     H 7558  10.894   0.794   7.152 -0.2900 -0.7130 -0.6461
   56MOL0     H 7559  10.815   0.758   6.996 -1.0468  1.5335 -2.3419
   56MOL0     H 7560  10.925   0.901   7.011 -0.5241 -0.9481 -1.1023
   57MOL0     O 7561   7.525   4.259   0.252 -0.0014 -0.2797  0.5682
   57MOL0     C 7562   7.531   4.338   0.153  0.0996  0.8113 -1.0526
   57MOL0     O 7563   7.644   4.404   0.115  0.3261 -1.2955  0.0545
   57MOL0     C 7564   7.757   4.379   0.182 -0.2116 -0.0363 -0.7351
   57MOL0     C 7565   7.778   4.474   0.283 -0.2702  0.1036  0.4553
   57MOL0     C 7566   7.888   4.469   0.373  0.1975  0.0693 -0.6007
   57MOL0     C 7567   7.968   4.351   0.374 -0.9880  0.1236 -0.2884
   57MOL0     O 7568   8.061   4.323   0.473  0.3178  0.2443 -0.6750
   57MOL0     C 7569   8.085   4.428   0.564 -0.3106  0.0647  0.3747
   57MOL0     C 7570   8.205   4.392   0.643 -0.3134  0.3447 -0.3261
   57MOL0     C 7571   8.241   4.496   0.750 -0.4455  0.6077 -0.4334
   57MOL0     C 7572   8.355   4.416   0.833  0.3847  0.3484  0.3045
   57MOL0     C 7573   8.394   4.504   0.957 -0.1494 -0.2751  0.4085
   57MOL0     C 7574   8.282   4.507   1.062 -0.3934 -0.0304  0.6117
   57MOL0     C 7575   8.246   4.373   1.120  0.2384  0.0377 -0.4394
   57MOL0     C 7576   8.111   4.381   1.209 -0.3781 -0.8866  0.0046
   57MOL0     N 7577   8.082   4.258   1.283 -0.5817  0.0933 -0.3386
   57MOL0     C 7578   8.164   4.160   1.328  0.9601 -0.3750 -0.6632
   57MOL0     C 7579   8.080   4.081   1.399 -0.0779  1.0652 -0.1334
   57MOL0     C 7580   8.120   3.960   1.485  0.2622  0.1967  0.0932
   57MOL0     C 7581   8.101   3.994   1.632 -0.2661 -0.3865 -0.8181
   57MOL0     C 7582   8.206   4.082   1.699 -0.4870  0.5419  0.5628
   57MOL0     C 7583   8.349   4.036   1.667 -0.1193  0.1493  0.8480
   57MOL0     O 7584   8.399   4.114   1.554 -0.0050  0.3054  0.4828
   57MOL0     C 7585   8.504   4.060   1.479 -0.0300  0.6945  0.7791
   57MOL0     C 7586   8.536   4.113   1.354  0.3072  0.5682 -1.1051
   57MOL0     C 7587   8.653   4.074   1.292  0.6774 -0.7397 -0.1540
   57MOL0     C 7588   8.736   3.977   1.339  0.0327  0.1061 -0.8105
   57MOL0     C 7589   8.855   3.936   1.259 -0.1031  0.6353  0.5884
   57MOL0     O 7590   8.930   3.828   1.308 -0.1948 -0.4231  0.6410
   57MOL0     C 7591   9.047   3.796   1.235  0.0870 -0.0069  0.5114
   57MOL0     C 7592   9.042   3.683   1.162  1.0639  0.2615 -0.5306
   57MOL0     C 7593   9.152   3.649   1.075 -0.0411  0.7176  0.6615
   57MOL0     C 7594   9.271   3.730   1.068 -0.5369  0.4006  0.8651
   57MOL0     O 7595   9.382   3.704   0.986  0.8186  0.1104 -0.1588
   57MOL0     C 7596   9.364   3.593   0.898 -0.2935 -0.5674 -0.6585
   57MOL0     C 7597   9.460   3.583   0.771  1.0445 -0.6921  0.4011
   57MOL0     C 7598   9.589   3.514   0.801 -0.1141  0.7324  0.3427
   57MOL0     C 7599   9.697   3.597   0.864  0.2377 -0.0596 -1.0930
   57MOL0     C 7600   9.823   3.516   0.860  0.1674  0.4543 -0.9450
   57MOL0     C 7601   9.932   3.612   0.911 -1.0702 -0.4318 -0.2043
   57MOL0     C 7602  10.072   3.559   0.887 -0.1399  0.7443  0.2126
   57MOL0     C 7603  10.186   3.637   0.955  1.7296 -0.4698 -0.8102
   57MOL0    Cl 7604  10.343   3.569   0.895  0.0365 -0.1089  0.1724
   57MOL0     C 7605   9.275   3.842   1.141  0.7445 -0.3507 -0.1054
   57MOL0     C 7606   9.162   3.876   1.220  0.1865 -0.2321 -0.3272
   57MOL0     O 7607   8.876   4.004   1.163  0.8928  0.8626  0.1628
   57MOL0     C 7608   8.710   3.929   1.465  0.7392 -0.2843  0.0819
   57MOL0     C 7609   8.596   3.969   1.538 -0.4323  0.2501  0.8541
   57MOL0     N 7610   7.949   4.117   1.377  0.2399  0.4805  0.0369
   57MOL0     N 7611   7.955   4.218   1.305  1.3803 -0.7650 -0.3768
   57MOL0     C 7612   7.947   4.257   0.270 -0.2561  0.3865  0.6699
   57MOL0     C 7613   7.838   4.268   0.174  0.4031  0.2063 -0.0068
   57MOL0     C 7614   7.402   4.380   0.089  0.2903 -0.4247  0.0736
   57MOL0     C 7615   7.407   4.496   0.011  0.2702  0.2979 -0.6838
   57MOL0     C 7616   7.301   4.543  -0.054 -0.5273  0.1416 -0.2454
   57MOL0     C 7617   7.177   4.480  -0.042 -0.4719 -0.3934 -0.2588
   57MOL0     O 7618   7.065   4.521  -0.110 -0.6268  0.2478 -0.4285
   57MOL0     C 7619   7.068   4.628  -0.209 -0.8387 -0.1440  0.3279
   57MOL0     C 7620   7.148   4.588  -0.332  0.0709 -0.2006 -0.4513
   57MOL0     C 7621   7.056   4.507  -0.431  0.2513  0.2709 -0.4408
   57MOL0     C 7622   6.939   4.584  -0.490  0.1143  0.2997  0.1111
   57MOL0     C 7623   6.867   4.492  -0.569 -0.1502  0.8415  0.7662
   57MOL0     C 7624   6.802   4.407  -0.620 -0.1768 -0.0279 -0.0171
   57MOL0     C 7625   7.166   4.365   0.039 -0.1270 -0.3538  0.4275
   57MOL0     C 7626   7.275   4.309   0.107  0.4752 -0.4762  0.4908
   57MOL0     C 7627   7.246   4.193   0.196 -0.0126  0.1922 -1.2368
   57MOL0     H 7628   7.702   4.551   0.291 -0.6925  0.0122 -1.8745
   57MOL0     H 7629   7.888   4.546   0.450  2.2976 -0.4691 -0.0135
   57MOL0     H 7630   8.106   4.521   0.511  3.1666  0.2797  1.8469
   57MOL0     H 7631   8.009   4.440   0.642 -0.3657 -1.3989  0.5707
   57MOL0     H 7632   8.290   4.385   0.574  0.2206 -1.3826  0.4555
   57MOL0     H 7633   8.192   4.293   0.687  2.2031  0.7350  1.5079
   57MOL0     H 7634   8.147   4.510   0.805 -1.3158  1.2697 -2.0357
   57MOL0     H 7635   8.276   4.592   0.711  1.2379 -0.3471 -1.3856
   57MOL0     H 7636   8.323   4.318   0.869  0.5619  0.7632  1.6693
   57MOL0     H 7637   8.448   4.417   0.774  1.3764  0.8331  1.8146
   57MOL0     H 7638   8.480   4.460   1.007 -1.8232 -3.5215  0.6953
   57MOL0     H 7639   8.413   4.607   0.925 -1.7876 -0.9170 -3.1737
   57MOL0     H 7640   8.325   4.572   1.139  2.3169 -1.3682  0.3307
   57MOL0     H 7641   8.188   4.548   1.022 -1.7293 -2.3501  1.1783
   57MOL0     H 7642   8.321   4.347   1.195 -0.9217 -1.2133  0.3416
   57MOL0     H 7643   8.227   4.296   1.045 -1.3821  0.6805 -0.7322
   57MOL0     H 7644   8.123   4.457   1.287 -3.0808  0.1750 -0.5184
   57MOL0     H 7645   8.028   4.410   1.143 -0.8482 -0.9838  0.5465
   57MOL0     H 7646   8.269   4.139   1.309  1.0844 -0.0434 -0.3370
   57MOL0     H 7647   8.042   3.885   1.472  1.0514 -2.2167  6.1203
   57MOL0     H 7648   8.220   3.924   1.459  0.2466 -2.3659  3.0451
   57MOL0     H 7649   8.010   4.053   1.636  0.2508  0.3745  0.2843
   57MOL0     H 7650   8.087   3.896   1.679  0.4025 -0.5227 -0.8947
   57MOL0     H 7651   8.199   4.066   1.807  4.2456 -3.3247  0.6974
   57MOL0     H 7652   8.189   4.187   1.676 -0.2203  0.2269 -1.2697
   57MOL0     H 7653   8.344   3.929   1.643  1.1734 -0.3558  2.5944
   57MOL0     H 7654   8.419   4.048   1.750  1.5642  2.6512 -0.8095
   57MOL0     H 7655   8.482   4.200   1.318  2.4533  2.5095  0.0569
   57MOL0     H 7656   8.667   4.135   1.203 -2.0607  0.5759  0.2054
   57MOL0     H 7657   8.954   3.619   1.166  0.2733  1.3186 -0.5194
   57MOL0     H 7658   9.146   3.562   1.011  1.0245  1.2743 -0.2279
   57MOL0     H 7659   9.360   3.500   0.955 -0.7046 -0.0510  0.1720
   57MOL0     H 7660   9.267   3.600   0.848 -0.2281  0.6518 -0.6522
   57MOL0     H 7661   9.416   3.528   0.688  1.1580 -1.8987  1.1240
   57MOL0     H 7662   9.484   3.681   0.727 -2.6096 -1.5182 -4.2067
   57MOL0     H 7663   9.567   3.431   0.869  0.4598 -0.2997 -0.6909
   57MOL0     H 7664   9.637   3.474   0.711  1.7546  0.4521  1.4062
   57MOL0     H 7665   9.676   3.623   0.968  1.3971  1.5454 -1.2225
   57MOL0     H 7666   9.718   3.681   0.797  1.9994 -0.5237 -1.1841
   57MOL0     H 7667   9.843   3.479   0.759 -2.4612 -0.3091 -1.2480
   57MOL0     H 7668   9.822   3.420   0.911  2.9766  0.6908 -0.2615
   57MOL0     H 7669   9.929   3.707   0.856  3.6587 -0.2235 -0.5167
   57MOL0     H 7670   9.930   3.629   1.019  0.7039 -1.7349  0.0772
   57MOL0     H 7671  10.087   3.536   0.781  1.8304 -1.9947  0.9698
   57MOL0     H 7672  10.073   3.460   0.934 -0.2238  1.3152  1.4386
   57MOL0     H 7673  10.194   3.741   0.919 -0.6210  1.4918  3.5874
   57MOL0     H 7674  10.178   3.645   1.063  1.3490 -0.9815 -0.8016
   57MOL0     H 7675   9.359   3.910   1.136  0.7020 -0.1684  1.2180
   57MOL0     H 7676   9.156   3.972   1.272 -1.9290 -0.8661  0.7174
   57MOL0     H 7677   8.790   3.869   1.507  0.2699 -0.6569  0.4557
   57MOL0     H 7678   8.588   3.942   1.643  0.6381 -0.6288  0.7262
   57MOL0     H 7679   8.015   4.174   0.255  0.4725  1.2532 -1.1490
   57MOL0     H 7680   7.809   4.191   0.104  3.3847  0.1221 -1.2848
   57MOL0     H 7681   7.503   4.537  -0.018  1.3018 -1.5696 -0.0876
   57MOL0     H 7682   7.318   4.629  -0.119 -0.7641  0.0179 -0.4725
   57MOL0     H 7683   7.117   4.718  -0.169  1.2267 -0.7442 -0.7263
   57MOL0     H 7684   6.964   4.656  -0.226 -0.7766  0.0167  0.2065
   57MOL0     H 7685   7.237   4.528  -0.309  0.2751 -0.3678 -1.6479
   57MOL0     H 7686   7.178   4.680  -0.383  0.5299 -1.6469 -2.9539
   57MOL0     H 7687   7.028   4.419  -0.372 -0.1428 -1.5393 -3.0930
   57MOL0     H 7688   7.103   4.471  -0.523 -0.1458  1.0206 -0.9468
   57MOL0     H 7689   6.865   4.616  -0.416  0.6867  1.8183  0.0600
   57MOL0     H 7690   6.965   4.677  -0.542  0.9125  0.7680  1.3162
   57MOL0     H 7691   6.746   4.325  -0.660 -0.7121  0.5426 -0.4560
   57MOL0     H 7692   7.063   4.333   0.049 -0.7458  1.6132  0.8094
   57MOL0     H 7693   7.224   4.224   0.298 -1.7044 -0.5142 -1.3592
   57MOL0     H 7694   7.159   4.135   0.165 -0.0374 -1.1151  1.1088
   57MOL0     H 7695   7.331   4.124   0.191  0.5250  0.4873  1.9736
   58MOL0     O 7696   1.765   7.284   9.420 -0.2382 -0.1146 -0.2898
   58MOL0     C 7697   1.859   7.350   9.365  1.0346 -0.0154  0.3458
   58MOL0     O 7698   1.852   7.481   9.314  0.3142  0.1605 -0.0697
   58MOL0     C 7699   1.726   7.541   9.317 -0.5361 -0.6220  0.1924
   58MOL0     C 7700   1.709   7.660   9.380 -0.0046 -0.1243 -0.2965
   58MOL0     C 7701   1.580   7.720   9.389  0.2074 -0.4113 -0.6922
   58MOL0     C 7702   1.473   7.651   9.329 -0.1710  0.2424  0.6895
   58MOL0     O 7703   1.342   7.689   9.314 -0.3823  0.0484  0.6040
   58MOL0     C 7704   1.327   7.825   9.282  0.0985  0.5816  0.7004
   58MOL0     C 7705   1.185   7.831   9.252  0.8801 -0.3963 -0.9216
   58MOL0     C 7706   1.133   7.975   9.205 -0.5584  0.0690 -0.3463
   58MOL0     C 7707   1.075   8.064   9.306 -0.0518  0.1070 -0.0630
   58MOL0     C 7708   0.950   8.008   9.369 -0.6462  0.3559  0.5378
   58MOL0     C 7709   0.860   8.114   9.444 -0.2362  0.0833 -0.4131
   58MOL0     C 7710   0.925   8.220   9.533 -0.6909 -0.8505  0.3360
   58MOL0     C 7711   1.000   8.168   9.655  1.2271 -0.3736 -0.6417
   58MOL0     N 7712   1.137   8.134   9.621 -0.3789 -0.0739  0.1055
   58MOL0     C 7713   1.230   8.237   9.598  0.0359  0.7103 -0.4350
   58MOL0     C 7714   1.351   8.170   9.625  0.3870  0.9634 -0.2947
   58MOL0     C 7715   1.486   8.240   9.626 -0.1197 -0.3349  0.2225
   58MOL0     C 7716   1.589   8.163   9.542  0.1287 -0.2278  0.2442
   58MOL0     C 7717   1.691   8.238   9.458  0.1638 -0.1018  0.3499
   58MOL0     C 7718   1.787   8.305   9.563 -0.6511 -0.2435  0.3304
   58MOL0     O 7719   1.861   8.209   9.647 -0.0931 -0.7280  0.3070
   58MOL0     C 7720   1.933   8.102   9.588 -0.3414 -0.2916 -0.3282
   58MOL0     C 7721   2.010   8.122   9.479 -0.4487  0.0450  0.4327
   58MOL0     C 7722   2.114   8.035   9.451  0.0445 -0.7080 -0.2956
   58MOL0     C 7723   2.126   7.914   9.509  0.4675 -0.5836  0.6640
   58MOL0     C 7724   2.228   7.819   9.453 -1.3484 -0.1877  0.0921
   58MOL0     O 7725   2.332   7.862   9.381 -0.0625  0.0836 -0.6884
   58MOL0     C 7726   2.413   7.779   9.318  0.1754  0.0427 -0.1775
   58MOL0     C 7727   2.492   7.691   9.397  0.2399  0.2437  0.4234
   58MOL0     C 7728   2.576   7.610   9.324 -0.2764 -0.3301 -0.4166
   58MOL0     C 7729   2.590   7.616   9.184 -0.3481 -0.4884 -0.1947
   58MOL0     O 7730   2.690   7.539   9.126 -0.0361  0.3109 -0.4712
   58MOL0     C 7731   2.763   7.593   9.015  0.0868  0.0045 -0.0925
   58MOL0     C 7732   2.852   7.483   8.950  0.7977  0.4853 -0.5442
   58MOL0     C 7733   2.954   7.430   9.046 -0.4146 -0.8335  0.1169
   58MOL0     C 7734   3.021   7.297   9.016 -0.1183 -1.0740  0.6811
   58MOL0     C 7735   3.128   7.262   9.116 -0.0608  0.3356  0.4025
   58MOL0     C 7736   3.246   7.358   9.142  0.2069 -0.7061 -0.8368
   58MOL0     C 7737   3.365   7.274   9.193  1.1706 -0.2628  0.0301
   58MOL0     C 7738   3.489   7.342   9.240  0.0330  0.0133 -0.8563
   58MOL0    Cl 7739   3.608   7.209   9.287  0.1050  0.5637  0.1534
   58MOL0     C 7740   2.511   7.702   9.113  0.2948 -0.3693  0.1427
   58MOL0     C 7741   2.415   7.785   9.181 -0.1520  0.4480 -0.1424
   58MOL0     O 7742   2.210   7.703   9.478  0.0427  0.0235 -0.2022
   58MOL0     C 7743   2.023   7.874   9.606 -0.5661  1.0821 -0.0114
   58MOL0     C 7744   1.934   7.974   9.647 -0.9928 -0.3542 -0.0453
   58MOL0     N 7745   1.327   8.038   9.660  0.0158  0.2615 -0.3713
   58MOL0     N 7746   1.202   8.018   9.647  0.7123  0.7731  0.1648
   58MOL0     C 7747   1.495   7.527   9.276 -0.2811  0.1730 -0.3326
   58MOL0     C 7748   1.618   7.472   9.265  0.2500 -0.2112 -0.2729
   58MOL0     C 7749   1.989   7.279   9.348 -0.4249  0.0088 -0.0940
   58MOL0     C 7750   2.086   7.355   9.287  0.1172  0.0167  0.8879
   58MOL0     C 7751   2.215   7.315   9.268  0.5079 -0.5762 -0.7787
   58MOL0     C 7752   2.258   7.192   9.314  0.1100  0.0951  0.4828
   58MOL0     O 7753   2.384   7.145   9.296  0.2857 -0.4229  0.0710
   58MOL0     C 7754   2.475   7.210   9.201  0.2109  0.5913  0.8724
   58MOL0     C 7755   2.585   7.110   9.157 -0.1099  0.2665  0.0070
   58MOL0     C 7756   2.680   7.098   9.267 -0.6726 -0.2775  0.2939
   58MOL0     C 7757   2.812   7.018   9.234 -1.0366 -0.6028 -0.2724
   58MOL0     C 7758   2.909   7.035   9.338 -0.1618  0.2348  0.1926
   58MOL0     C 7759   2.992   7.072   9.419 -0.7270 -0.6217  0.2363
   58MOL0     C 7760   2.163   7.113   9.386 -0.9053 -0.2496 -0.0534
   58MOL0     C 7761   2.032   7.156   9.390 -0.9835  0.5924  0.0796
   58MOL0     C 7762   1.940   7.068   9.463  0.8546  0.3912 -0.4460
   58MOL0     H 7763   1.797   7.709   9.421  0.1537  0.0869 -0.8858
   58MOL0     H 7764   1.556   7.812   9.442 -1.9587 -1.6928  0.7296
   58MOL0     H 7765   1.365   7.900   9.351 -0.6328  0.4546  1.2556
   58MOL0     H 7766   1.379   7.832   9.187 -0.5358 -0.2451  0.2671
   58MOL0     H 7767   1.131   7.798   9.341  0.7818  0.6692 -0.5715
   58MOL0     H 7768   1.150   7.768   9.169  0.9096 -0.8724 -0.5806
   58MOL0     H 7769   1.060   7.967   9.124 -1.2159 -0.3153  0.2661
   58MOL0     H 7770   1.217   8.030   9.162 -1.5367  1.7199 -0.2176
   58MOL0     H 7771   1.144   8.078   9.390 -0.0038 -0.1160 -0.0632
   58MOL0     H 7772   1.058   8.165   9.268  2.0058  0.7275  0.5316
   58MOL0     H 7773   0.890   7.962   9.289 -1.6737  0.5485  1.1778
   58MOL0     H 7774   0.979   7.927   9.436  0.3128 -0.3571 -0.6899
   58MOL0     H 7775   0.789   8.157   9.372 -2.3316 -0.8647  0.9947
   58MOL0     H 7776   0.791   8.059   9.509 -1.1418 -1.7018 -2.7375
   58MOL0     H 7777   0.839   8.281   9.565 -0.7676  0.0482 -1.4366
   58MOL0     H 7778   1.001   8.277   9.479 -0.3787 -1.9995 -0.4701
   58MOL0     H 7779   1.009   8.241   9.737  0.4607  1.2118 -1.9291
   58MOL0     H 7780   0.958   8.075   9.695 -1.3654  2.1886  3.3506
   58MOL0     H 7781   1.209   8.342   9.586  0.4009  0.6450 -1.7046
   58MOL0     H 7782   1.469   8.335   9.574 -1.3401 -0.2090  0.8009
   58MOL0     H 7783   1.523   8.255   9.728  3.3750  1.7729 -1.1876
   58MOL0     H 7784   1.641   8.115   9.625 -0.6949  2.1327  2.2395
   58MOL0     H 7785   1.549   8.081   9.481  0.5279 -0.5221  0.3739
   58MOL0     H 7786   1.644   8.303   9.383 -1.2892 -2.8228 -1.2464
   58MOL0     H 7787   1.754   8.174   9.396  0.6018  0.2020  0.4739
   58MOL0     H 7788   1.729   8.367   9.631  0.5696  2.6323 -1.0648
   58MOL0     H 7789   1.857   8.369   9.508 -0.1403 -1.4047 -0.4224
   58MOL0     H 7790   2.000   8.216   9.425 -2.4980  2.6479  4.7852
   58MOL0     H 7791   2.185   8.061   9.373 -0.5358 -0.8229 -0.8706
   58MOL0     H 7792   2.491   7.696   9.505  0.7802 -1.7164  0.5548
   58MOL0     H 7793   2.650   7.550   9.377  0.0146 -0.8291 -1.3661
   58MOL0     H 7794   2.692   7.629   8.941 -1.3791 -2.9324 -0.2403
   58MOL0     H 7795   2.830   7.675   9.043  0.1000  0.6466 -1.9317
   58MOL0     H 7796   2.790   7.410   8.898 -0.4672  2.3066 -1.6924
   58MOL0     H 7797   2.908   7.534   8.871 -0.8863 -0.4255 -2.3848
   58MOL0     H 7798   3.035   7.502   9.029 -0.6442 -0.8709 -1.2221
   58MOL0     H 7799   2.916   7.432   9.148  0.8553  0.8956  0.6057
   58MOL0     H 7800   3.067   7.306   8.917 -0.9748  5.4538  0.4013
   58MOL0     H 7801   2.950   7.215   9.008  0.2762 -1.3627  0.0550
   58MOL0     H 7802   3.170   7.167   9.080  1.7084  1.1974  0.0985
   58MOL0     H 7803   3.081   7.248   9.214  1.6402  0.3096  1.2517
   58MOL0     H 7804   3.273   7.422   9.057 -1.6908  0.6371 -0.4865
   58MOL0     H 7805   3.210   7.420   9.225  0.7256 -1.6623  0.1278
   58MOL0     H 7806   3.396   7.215   9.106 -0.4917 -0.7806 -0.2565
   58MOL0     H 7807   3.327   7.204   9.267 -2.3333  1.0838 -0.2907
   58MOL0     H 7808   3.538   7.405   9.164  3.0945 -0.9784  0.1673
   58MOL0     H 7809   3.444   7.402   9.319 -0.1154  0.6825 -1.4341
   58MOL0     H 7810   2.522   7.705   9.006 -0.0732  0.5548  0.1237
   58MOL0     H 7811   2.342   7.853   9.137 -2.7119 -1.3573  1.0735
   58MOL0     H 7812   2.014   7.775   9.649 -0.9475  1.5698  1.0821
   58MOL0     H 7813   1.881   7.943   9.736  1.4239  0.4055  1.7629
   58MOL0     H 7814   1.409   7.470   9.240  1.0362 -2.3359  0.2587
   58MOL0     H 7815   1.628   7.374   9.220 -0.2263  0.6278 -2.3447
   58MOL0     H 7816   2.069   7.454   9.246 -2.3626 -0.8249 -0.3414
   58MOL0     H 7817   2.282   7.388   9.223  2.0692 -0.6870  1.2146
   58MOL0     H 7818   2.526   7.295   9.247  1.7273 -0.6832  1.6409
   58MOL0     H 7819   2.421   7.240   9.111  0.4474 -0.4984  0.3406
   58MOL0     H 7820   2.640   7.163   9.078  1.7093  0.1432  1.1356
   58MOL0     H 7821   2.549   7.010   9.131  1.2751 -0.2329 -0.0837
   58MOL0     H 7822   2.632   7.044   9.349  0.8482  1.1719  2.2543
   58MOL0     H 7823   2.702   7.198   9.305  1.3558  0.1761 -1.8413
   58MOL0     H 7824   2.809   6.915   9.199 -0.6567 -1.2218  1.4592
   58MOL0     H 7825   2.860   7.066   9.148  0.8015 -1.3573  0.2867
   58MOL0     H 7826   3.069   7.110   9.483  1.9137 -1.2805 -2.3375
   58MOL0     H 7827   2.196   7.018   9.426  2.3843  1.4735  1.7732
   58MOL0     H 7828   1.981   6.972   9.496  0.3685  0.7422  1.2504
   58MOL0     H 7829   1.903   7.115   9.554 -0.5111 -3.1437  1.0121
   58MOL0     H 7830   1.850   7.047   9.404 -1.0978  4.1306  0.8911
   59MOL0     O 7831   9.613   7.559   4.800 -0.2236 -0.1140 -0.2606
   59MOL0     C 7832   9.517   7.547   4.731 -0.6264 -0.3056  1.5379
   59MOL0     O 7833   9.424   7.641   4.711  0.2801 -0.4371 -0.1927
   59MOL0     C 7834   9.410   7.742   4.800  0.1352  0.6486 -1.0576
   59MOL0     C 7835   9.452   7.743   4.935  1.0809 -0.0133 -0.5821
   59MOL0     C 7836   9.437   7.862   5.005  0.1114  0.6805  0.1147
   59MOL0     C 7837   9.373   7.977   4.944  0.0219  0.7534  0.1646
   59MOL0     O 7838   9.364   8.093   5.019  0.0757 -0.6489 -0.7825
   59MOL0     C 7839   9.267   8.183   4.975  0.9654  0.3037  0.6508
   59MOL0     C 7840   9.239   8.299   5.073 -0.0637  1.0606  0.2661
   59MOL0     C 7841   9.139   8.405   5.011  0.7044  0.3524 -0.3310
   59MOL0     C 7842   9.118   8.522   5.107 -0.0090  0.1427 -0.0223
   59MOL0     C 7843   9.222   8.627   5.087 -0.4305 -0.5778  0.0313
   59MOL0     C 7844   9.204   8.739   5.188 -0.1280 -0.1944 -0.5894
   59MOL0     C 7845   9.299   8.852   5.163 -0.4015  0.3843 -0.3104
   59MOL0     C 7846   9.316   8.945   5.285 -0.7714  0.3218  0.1407
   59MOL0     N 7847   9.419   9.049   5.264 -0.0434 -0.0321 -0.1874
   59MOL0     C 7848   9.411   9.179   5.302 -0.3896 -0.7407  0.2149
   59MOL0     C 7849   9.513   9.243   5.246  0.2085 -0.1322  0.7178
   59MOL0     C 7850   9.536   9.388   5.258  0.1275  0.0315  0.2764
   59MOL0     C 7851   9.662   9.437   5.198 -1.0379  0.2691 -0.3893
   59MOL0     C 7852   9.683   9.589   5.197  0.4313  0.1534  0.2741
   59MOL0     C 7853   9.826   9.631   5.136 -0.2116  0.1604 -0.4947
   59MOL0     O 7854   9.929   9.574   5.216 -0.2199  0.1882 -0.0021
   59MOL0     C 7855  10.057   9.627   5.207 -1.1515 -0.1194  0.6084
   59MOL0     C 7856  10.092   9.731   5.119 -0.1323  0.1140 -0.6771
   59MOL0     C 7857  10.230   9.757   5.106 -0.3056 -0.3072  0.3383
   59MOL0     C 7858  10.332   9.697   5.190 -0.0225 -0.3096  0.5822
   59MOL0     C 7859  10.473   9.730   5.169 -0.3767 -0.8044  0.8417
   59MOL0     O 7860  10.564   9.670   5.253 -0.5530  0.2247  0.1543
   59MOL0     C 7861  10.704   9.661   5.243  0.7753 -0.4562  0.0243
   59MOL0     C 7862  10.775   9.697   5.130 -0.2736 -0.7176  1.1602
   59MOL0     C 7863  10.915   9.673   5.124  0.7750  0.0741 -0.0434
   59MOL0     C 7864  10.985   9.611   5.227  0.3070  0.0149  0.1460
   59MOL0     O 7865  11.127   9.602   5.232  0.1382 -0.8564 -0.1560
   59MOL0     C 7866  11.200   9.561   5.114 -0.0827 -0.7608  0.1468
   59MOL0     C 7867  11.354   9.558   5.144 -0.0127  0.2253  1.0871
   59MOL0     C 7868  11.399   9.424   5.206 -0.5566  0.2627 -0.5517
   59MOL0     C 7869  11.544   9.408   5.196 -0.1560  0.6225 -0.3744
   59MOL0     C 7870  11.598   9.265   5.248  0.3751 -0.3056  0.3588
   59MOL0     C 7871  11.751   9.235   5.239  0.2261 -1.1153  0.2058
   59MOL0     C 7872  11.795   9.095   5.299 -1.2250 -0.4002  0.7078
   59MOL0     C 7873  11.812   8.985   5.193 -0.9224 -0.8897  0.2620
   59MOL0    Cl 7874  11.693   8.975   5.064  0.1777 -0.1053  0.1907
   59MOL0     C 7875  10.910   9.568   5.333 -0.1578 -0.0143 -0.8295
   59MOL0     C 7876  10.774   9.600   5.349 -0.7349  0.6359 -0.2924
   59MOL0     O 7877  10.499   9.800   5.066 -0.4845  0.5816 -0.0836
   59MOL0     C 7878  10.291   9.599   5.280  0.2246  0.1836  0.1828
   59MOL0     C 7879  10.147   9.567   5.287 -0.6894  0.1925  0.3807
   59MOL0     N 7880   9.575   9.160   5.157 -0.2763 -0.2450 -0.7956
   59MOL0     N 7881   9.528   9.034   5.181  0.2525  0.0356  0.0962
   59MOL0     C 7882   9.309   7.961   4.821  0.3304  0.0312 -0.2030
   59MOL0     C 7883   9.339   7.849   4.749  0.3877  0.4186 -0.6636
   59MOL0     C 7884   9.506   7.422   4.649  0.2320  0.2887 -0.8031
   59MOL0     C 7885   9.422   7.431   4.535 -0.1730  0.0443  0.6393
   59MOL0     C 7886   9.397   7.316   4.458  0.4085  0.6809 -0.3645
   59MOL0     C 7887   9.442   7.190   4.501  0.3657  0.0704  0.4807
   59MOL0     O 7888   9.412   7.074   4.433  0.2726 -0.2548  0.1191
   59MOL0     C 7889   9.274   7.039   4.441 -0.2511  0.9754 -0.1893
   59MOL0     C 7890   9.259   6.962   4.577  0.4382  0.9343 -0.2845
   59MOL0     C 7891   9.116   6.900   4.572 -0.9855  0.0997 -0.0192
   59MOL0     C 7892   9.010   7.005   4.613  0.6521 -0.3895  0.2657
   59MOL0     C 7893   8.892   6.920   4.642 -0.4998 -0.4474 -0.5685
   59MOL0     C 7894   8.792   6.859   4.677 -0.8123  0.4594 -0.2346
   59MOL0     C 7895   9.519   7.184   4.609 -0.0095  0.4663 -0.6126
   59MOL0     C 7896   9.567   7.295   4.679 -0.0584  0.6222  1.3163
   59MOL0     C 7897   9.668   7.276   4.782  0.1192  1.1092 -0.1276
   59MOL0     H 7898   9.503   7.666   4.992  2.1444  2.1446  1.5028
   59MOL0     H 7899   9.482   7.862   5.104 -2.3214 -0.5468  1.3162
   59MOL0     H 7900   9.302   8.222   4.879  0.8711  0.5322  0.7096
   59MOL0     H 7901   9.172   8.130   4.962 -0.2412  2.2758  1.0686
   59MOL0     H 7902   9.339   8.340   5.087  1.4376 -2.4742  0.9409
   59MOL0     H 7903   9.199   8.257   5.167 -0.7351  0.3132 -0.3341
   59MOL0     H 7904   9.039   8.361   5.004  1.0206 -0.2009 -1.7893
   59MOL0     H 7905   9.167   8.445   4.914 -0.6955  0.8748 -0.5531
   59MOL0     H 7906   9.025   8.577   5.089  1.6491  2.3813 -2.6569
   59MOL0     H 7907   9.120   8.484   5.209 -0.3784  0.9462  0.2926
   59MOL0     H 7908   9.320   8.583   5.106  0.3608  1.5624  1.2785
   59MOL0     H 7909   9.227   8.660   4.983  4.0248  0.5992  0.3957
   59MOL0     H 7910   9.102   8.776   5.182 -0.4885 -1.1753 -0.6186
   59MOL0     H 7911   9.219   8.700   5.289 -1.0584 -0.1144 -0.4120
   59MOL0     H 7912   9.255   8.906   5.080  0.8505  1.1393 -0.5164
   59MOL0     H 7913   9.401   8.821   5.135 -0.9374 -2.1624  0.2437
   59MOL0     H 7914   9.214   8.982   5.300 -1.0233 -0.9501  1.9465
   59MOL0     H 7915   9.342   8.889   5.375 -0.5057 -1.4631 -0.9878
   59MOL0     H 7916   9.333   9.219   5.365 -0.8406 -2.2870  0.6704
   59MOL0     H 7917   9.446   9.438   5.222  2.2295  1.0535 -4.2543
   59MOL0     H 7918   9.548   9.404   5.365  2.1749  1.8416 -0.1601
   59MOL0     H 7919   9.737   9.386   5.259 -1.8915  0.8444  1.1890
   59MOL0     H 7920   9.667   9.403   5.094  1.3654  0.8357 -0.5304
   59MOL0     H 7921   9.666   9.631   5.296 -3.4547  4.6280 -1.8959
   59MOL0     H 7922   9.604   9.620   5.128  0.5805 -2.4300 -1.2116
   59MOL0     H 7923   9.839   9.739   5.141  2.3658 -0.0909 -0.0656
   59MOL0     H 7924   9.831   9.595   5.032 -1.1122 -1.0197 -0.1474
   59MOL0     H 7925  10.018   9.769   5.049 -0.9113 -0.1934 -0.0379
   59MOL0     H 7926  10.258   9.834   5.034 -0.3892  0.2392  0.8870
   59MOL0     H 7927  10.733   9.750   5.045  0.6388 -0.7502  0.6829
   59MOL0     H 7928  10.973   9.711   5.041  1.1626  0.0551  0.2123
   59MOL0     H 7929  11.166   9.463   5.080  1.4508 -0.5329 -2.2484
   59MOL0     H 7930  11.172   9.631   5.034 -1.2105 -0.1714  1.0136
   59MOL0     H 7931  11.410   9.586   5.054 -0.7321  2.5794  1.2997
   59MOL0     H 7932  11.375   9.638   5.216  1.8726  1.0854 -0.3336
   59MOL0     H 7933  11.372   9.426   5.312 -0.0570  1.0658 -0.4301
   59MOL0     H 7934  11.350   9.333   5.171  0.2900 -0.7083  0.6929
   59MOL0     H 7935  11.598   9.489   5.245  1.7376 -0.2492 -0.9078
   59MOL0     H 7936  11.571   9.419   5.090  0.7348  0.2101 -0.2012
   59MOL0     H 7937  11.547   9.184   5.196  3.5145 -2.3878  0.3053
   59MOL0     H 7938  11.574   9.267   5.355  1.5296  1.9300  0.6426
   59MOL0     H 7939  11.787   9.250   5.137  2.2436 -3.2132  0.5291
   59MOL0     H 7940  11.801   9.311   5.300 -0.4125 -1.3587  1.0545
   59MOL0     H 7941  11.719   9.066   5.373 -0.8224 -0.9536  0.9073
   59MOL0     H 7942  11.891   9.117   5.346 -1.9026  3.5245  0.5685
   59MOL0     H 7943  11.916   8.988   5.159  0.2012 -0.9227  3.3752
   59MOL0     H 7944  11.808   8.889   5.246 -2.6905 -0.6274  0.6547
   59MOL0     H 7945  10.969   9.527   5.413 -0.5933  0.6571 -0.1497
   59MOL0     H 7946  10.730   9.567   5.443 -0.0178  0.9258  0.1551
   59MOL0     H 7947  10.362   9.538   5.335 -3.2548 -5.2588 -0.5812
   59MOL0     H 7948  10.116   9.491   5.358  1.8905 -0.4749  0.8676
   59MOL0     H 7949   9.244   8.032   4.772 -0.8417 -1.5065 -0.9551
   59MOL0     H 7950   9.299   7.850   4.648  3.0613 -0.0788 -1.8169
   59MOL0     H 7951   9.382   7.528   4.509 -1.3226 -0.7587 -0.7192
   59MOL0     H 7952   9.332   7.321   4.372 -1.6094  0.7521  1.0842
   59MOL0     H 7953   9.244   6.969   4.364 -1.2100 -1.2656  2.0780
   59MOL0     H 7954   9.201   7.119   4.428 -0.7370  0.5276 -0.2078
   59MOL0     H 7955   9.266   7.042   4.652 -3.1419  1.3181 -0.1805
   59MOL0     H 7956   9.337   6.886   4.583 -1.0796 -0.6918 -0.2046
   59MOL0     H 7957   9.117   6.817   4.643  1.1372  0.2240  0.1542
   59MOL0     H 7958   9.093   6.858   4.474  1.2098  0.0033 -0.5588
   59MOL0     H 7959   9.030   7.054   4.709  1.1843  1.1218 -0.5894
   59MOL0     H 7960   8.990   7.080   4.536 -1.0791 -1.0166  0.0681
   59MOL0     H 7961   8.696   6.816   4.696 -0.2633  0.2152  2.3296
   59MOL0     H 7962   9.550   7.084   4.639 -1.6947  1.0977  3.8611
   59MOL0     H 7963   9.624   7.293   4.880 -0.8056 -1.2347 -0.0844
   59MOL0     H 7964   9.700   7.171   4.782 -2.7953  0.1282 -0.7857
   59MOL0     H 7965   9.758   7.337   4.769  1.0700  0.1564  1.6644
   60MOL0     O 7966  10.419   4.413   9.468  0.3308 -0.9539  0.1342
   60MOL0     C 7967  10.368   4.530   9.460  0.1751  0.1869 -0.4321
   60MOL0     O 7968  10.439   4.648   9.429  0.0558 -0.0988 -0.0218
   60MOL0     C 7969  10.566   4.636   9.374 -0.2537  1.0316 -0.1832
   60MOL0     C 7970  10.599   4.530   9.281  0.2893  0.1815 -0.0042
   60MOL0     C 7971  10.725   4.530   9.230 -0.2018  0.9725 -0.3862
   60MOL0     C 7972  10.816   4.635   9.252  0.3228 -1.0257 -0.2152
   60MOL0     O 7973  10.927   4.626   9.171  0.2320  0.0021  0.0756
   60MOL0     C 7974  11.040   4.717   9.185 -0.1480  0.0839 -0.1416
   60MOL0     C 7975  11.152   4.673   9.092  0.5684  0.2757  0.7445
   60MOL0     C 7976  11.238   4.791   9.039  0.2946 -0.3871 -0.4536
   60MOL0     C 7977  11.179   4.864   8.913  0.5031  0.6305  0.4825
   60MOL0     C 7978  11.272   4.971   8.857 -0.4558 -0.1730 -0.3057
   60MOL0     C 7979  11.358   5.053   8.957  0.1675  0.2272 -0.2503
   60MOL0     C 7980  11.431   5.171   8.893  0.1959  0.3729  0.4160
   60MOL0     C 7981  11.550   5.123   8.804 -0.0542  0.4611  0.3868
   60MOL0     N 7982  11.614   5.240   8.743 -0.6949 -0.7043 -0.5641
   60MOL0     C 7983  11.562   5.314   8.637  0.5242  1.0427 -0.0129
   60MOL0     C 7984  11.659   5.398   8.606 -0.1202  0.0925 -0.1670
   60MOL0     C 7985  11.664   5.497   8.497 -0.4576  0.1959 -0.4681
   60MOL0     C 7986  11.689   5.446   8.355 -0.2351 -0.1225  0.9097
   60MOL0     C 7987  11.837   5.396   8.328  0.1464  0.3467 -0.8301
   60MOL0     C 7988  11.944   5.506   8.329  0.0527  0.0947  0.0926
   60MOL0     O 7989  12.010   5.483   8.454 -0.4449  0.6217 -0.1102
   60MOL0     C 7990  12.120   5.400   8.460 -0.2702  0.3196 -1.0150
   60MOL0     C 7991  12.174   5.381   8.584  0.4741  0.3984 -0.2619
   60MOL0     C 7992  12.287   5.298   8.612  0.4099 -0.8203 -0.0950
   60MOL0     C 7993  12.353   5.240   8.503 -0.1591 -0.1959  0.3136
   60MOL0     C 7994  12.463   5.143   8.530  0.2341 -0.2638 -0.2670
   60MOL0     O 7995  12.495   5.116   8.661 -0.0154  0.1939  0.4811
   60MOL0     C 7996  12.610   5.034   8.685  0.5595 -0.3018  0.3639
   60MOL0     C 7997  12.592   4.924   8.774 -0.2324 -0.5826 -0.7440
   60MOL0     C 7998  12.687   4.822   8.789  0.3557  0.3026  0.5563
   60MOL0     C 7999  12.810   4.827   8.732  0.3192 -0.1436  0.0574
   60MOL0     O 8000  12.894   4.715   8.753  0.2009  0.5943 -0.2350
   60MOL0     C 8001  12.991   4.676   8.649 -0.7921  0.2253  0.2020
   60MOL0     C 8002  13.031   4.534   8.675  0.8084 -0.7104 -0.2123
   60MOL0     C 8003  13.132   4.500   8.565 -0.0780  0.1784 -0.8509
   60MOL0     C 8004  13.178   4.360   8.586  0.0348  0.1599  0.2453
   60MOL0     C 8005  13.304   4.320   8.506  0.6523  0.5116  0.4029
   60MOL0     C 8006  13.435   4.384   8.558  0.7816 -0.6683 -0.2546
   60MOL0     C 8007  13.562   4.348   8.474  0.0723 -0.1106  0.7282
   60MOL0     C 8008  13.630   4.228   8.531  0.4934 -0.0121 -1.0059
   60MOL0    Cl 8009  13.780   4.195   8.432  0.2656 -0.3415 -0.1180
   60MOL0     C 8010  12.842   4.936   8.649  0.2843  0.1349 -0.2507
   60MOL0     C 8011  12.742   5.039   8.631  1.0381  1.0755 -0.1312
   60MOL0     O 8012  12.509   5.091   8.429  0.9263 -0.5774 -0.5872
   60MOL0     C 8013  12.301   5.264   8.376  0.0368  0.2010 -1.3170
   60MOL0     C 8014  12.188   5.340   8.348 -0.2029  1.0492 -0.1723
   60MOL0     N 8015  11.761   5.388   8.706 -0.1547 -0.4129 -0.5415
   60MOL0     N 8016  11.736   5.292   8.782 -0.1194  0.6576 -0.1227
   60MOL0     C 8017  10.784   4.743   9.342 -0.5956  0.5522  0.0967
   60MOL0     C 8018  10.664   4.738   9.408 -0.4035 -0.1913  0.7544
   60MOL0     C 8019  10.217   4.543   9.471  0.2301  1.1401 -0.2085
   60MOL0     C 8020  10.171   4.672   9.515  0.6171  0.4139  0.6953
   60MOL0     C 8021  10.036   4.687   9.539  0.0129 -0.2978 -0.0691
   60MOL0     C 8022   9.953   4.577   9.548 -1.0236  0.2750  0.1392
   60MOL0     O 8023   9.823   4.578   9.587 -0.2956  0.3208 -0.0688
   60MOL0     C 8024   9.768   4.672   9.677 -0.5885 -0.3891 -0.2785
   60MOL0     C 8025   9.699   4.775   9.583 -0.6539  0.0047  0.4429
   60MOL0     C 8026   9.613   4.710   9.473 -0.0804  0.5808  0.1524
   60MOL0     C 8027   9.517   4.805   9.424  0.2852  0.8132 -0.1780
   60MOL0     C 8028   9.588   4.908   9.349 -1.1521  0.8626 -0.8560
   60MOL0     C 8029   9.654   4.989   9.293 -0.5984 -0.7963  0.4445
   60MOL0     C 8030   9.990   4.457   9.495 -0.0672 -0.2918  0.0400
   60MOL0     C 8031  10.125   4.434   9.459 -0.4157 -0.3357 -0.8426
   60MOL0     C 8032  10.159   4.298   9.412 -0.2433 -0.4807 -0.0035
   60MOL0     H 8033  10.532   4.454   9.243  0.4068  1.3381 -2.7676
   60MOL0     H 8034  10.735   4.462   9.146 -1.9313  1.7005 -1.2322
   60MOL0     H 8035  11.008   4.820   9.164 -0.8219 -0.1181 -0.1365
   60MOL0     H 8036  11.063   4.725   9.292 -2.5858  3.6154  0.3201
   60MOL0     H 8037  11.107   4.616   9.010 -1.9961  0.8974  1.5984
   60MOL0     H 8038  11.212   4.600   9.148  1.3234 -0.7049 -1.2640
   60MOL0     H 8039  11.326   4.737   9.004  0.9781  0.6326 -0.3219
   60MOL0     H 8040  11.260   4.867   9.114 -1.4745 -1.1411  0.9173
   60MOL0     H 8041  11.157   4.785   8.841 -0.5231  2.3166 -1.1201
   60MOL0     H 8042  11.083   4.908   8.942 -0.3992 -2.3962  2.5709
   60MOL0     H 8043  11.337   4.924   8.783  1.0361  0.5530  0.5069
   60MOL0     H 8044  11.219   5.045   8.796  0.6274  2.4075  1.6925
   60MOL0     H 8045  11.289   5.082   9.036  0.8068 -2.6657  1.4803
   60MOL0     H 8046  11.435   4.986   8.996  1.3135 -1.3671 -4.6358
   60MOL0     H 8047  11.485   5.231   8.968  1.4099  0.1531 -0.2586
   60MOL0     H 8048  11.368   5.240   8.835  1.2570 -0.3821 -1.7488
   60MOL0     H 8049  11.614   5.063   8.869 -2.1854 -0.4234  1.7767
   60MOL0     H 8050  11.512   5.056   8.727  2.5639 -0.0062 -0.6091
   60MOL0     H 8051  11.470   5.288   8.586  0.9723 -1.0120  0.1352
   60MOL0     H 8052  11.571   5.553   8.490 -1.5694 -1.1975  1.9281
   60MOL0     H 8053  11.746   5.563   8.529  0.2083 -0.5045 -0.6850
   60MOL0     H 8054  11.614   5.368   8.340 -1.5858  0.8450  2.2828
   60MOL0     H 8055  11.676   5.524   8.281  0.7838  0.4685  1.3267
   60MOL0     H 8056  11.843   5.339   8.234  2.9722  1.7733 -1.6048
   60MOL0     H 8057  11.855   5.334   8.416  0.0653 -0.4599 -1.3680
   60MOL0     H 8058  11.907   5.609   8.339 -0.3677  0.0027 -0.4300
   60MOL0     H 8059  12.005   5.499   8.239 -1.6806  1.5441 -1.2985
   60MOL0     H 8060  12.125   5.432   8.667  3.0324  1.0127  0.9684
   60MOL0     H 8061  12.305   5.292   8.719  1.7954  2.0399 -0.0518
   60MOL0     H 8062  12.495   4.908   8.819  0.6276  1.1767  1.9842
   60MOL0     H 8063  12.660   4.733   8.844  0.0195  0.6621  0.9864
   60MOL0     H 8064  12.950   4.694   8.548  1.0969 -0.9390 -0.8254
   60MOL0     H 8065  13.084   4.731   8.664 -0.8431  0.1935  0.6329
   60MOL0     H 8066  13.059   4.513   8.779 -4.3241 -0.7490  1.4099
   60MOL0     H 8067  12.942   4.473   8.656 -0.0610  0.6427 -0.5775
   60MOL0     H 8068  13.086   4.499   8.466 -2.5300  0.8426  0.1987
   60MOL0     H 8069  13.220   4.564   8.580  1.8988 -2.0822 -2.2126
   60MOL0     H 8070  13.092   4.296   8.563  0.2384 -0.2802  0.6750
   60MOL0     H 8071  13.197   4.347   8.693  0.1857 -0.1978  0.1769
   60MOL0     H 8072  13.291   4.348   8.401  0.8613 -0.6189  0.0649
   60MOL0     H 8073  13.304   4.211   8.507 -2.1507  0.4074 -0.7265
   60MOL0     H 8074  13.413   4.491   8.554 -3.3796 -1.2742  1.4013
   60MOL0     H 8075  13.451   4.360   8.663 -0.7907  2.4000  0.7986
   60MOL0     H 8076  13.641   4.422   8.484  1.0740 -1.2461  1.3859
   60MOL0     H 8077  13.546   4.321   8.369  2.0598  0.7946  0.1552
   60MOL0     H 8078  13.657   4.250   8.635  2.5361 -0.3955 -1.4087
   60MOL0     H 8079  13.565   4.141   8.526 -0.7983  0.9842 -2.3105
   60MOL0     H 8080  12.932   4.954   8.591  0.4423  0.8839  0.2100
   60MOL0     H 8081  12.750   5.125   8.566 -2.5835  0.2806 -1.8980
   60MOL0     H 8082  12.359   5.232   8.290 -0.3477  0.5249 -1.7042
   60MOL0     H 8083  12.147   5.343   8.248 -0.0561 -0.8693 -0.3291
   60MOL0     H 8084  10.857   4.823   9.352  1.1194 -0.7891 -0.9257
   60MOL0     H 8085  10.637   4.815   9.480  2.3560  0.2002  1.4829
   60MOL0     H 8086  10.247   4.749   9.530  1.3032 -0.2301  0.5915
   60MOL0     H 8087  10.001   4.780   9.581  1.7612  0.6374 -0.5898
   60MOL0     H 8088   9.850   4.709   9.740 -0.4568 -0.7310 -0.2480
   60MOL0     H 8089   9.698   4.609   9.733 -1.1639 -0.1439 -0.7072
   60MOL0     H 8090   9.772   4.847   9.546 -0.5401 -1.0500 -1.4998
   60MOL0     H 8091   9.632   4.832   9.648  0.0632 -0.0091  1.2137
   60MOL0     H 8092   9.556   4.636   9.530  0.2799  1.1159  1.2168
   60MOL0     H 8093   9.667   4.660   9.392  1.9075 -0.1146  1.8399
   60MOL0     H 8094   9.441   4.748   9.370 -0.0867  0.6377  0.5238
   60MOL0     H 8095   9.451   4.847   9.499 -0.6678  0.2499 -0.6744
   60MOL0     H 8096   9.697   5.073   9.243 -1.2540  1.2718  3.1215
   60MOL0     H 8097   9.921   4.373   9.497  1.6135 -1.7077  0.9544
   60MOL0     H 8098  10.233   4.245   9.473  0.6553 -3.0402 -3.0474
   60MOL0     H 8099  10.071   4.234   9.401  1.6444 -2.9965 -1.5231
   60MOL0     H 8100  10.202   4.314   9.313 -1.2008  0.9536 -0.2099
   61MOL0     O 8101   4.589   8.516   1.603  0.5143 -0.3029  0.0487
   61MOL0     C 8102   4.589   8.410   1.549 -0.1118  0.4214  0.1093
   61MOL0     O 8103   4.655   8.296   1.591  0.2175 -0.0703 -0.3707
   61MOL0     C 8104   4.740   8.300   1.695 -0.5583  0.1796 -0.6550
   61MOL0     C 8105   4.699   8.342   1.823  0.4675 -0.9326  0.1537
   61MOL0     C 8106   4.790   8.352   1.933 -0.0288  0.1927 -0.3484
   61MOL0     C 8107   4.928   8.323   1.906  0.2631  0.7016  0.4956
   61MOL0     O 8108   5.029   8.339   1.997 -0.0406 -0.2686 -0.2251
   61MOL0     C 8109   5.003   8.377   2.129 -0.6488  0.8523 -0.5636
   61MOL0     C 8110   5.128   8.371   2.213  0.2066  0.0398 -0.0064
   61MOL0     C 8111   5.223   8.488   2.191 -1.1153 -0.3410  0.7334
   61MOL0     C 8112   5.354   8.476   2.272 -0.3789 -0.2537 -0.0991
   61MOL0     C 8113   5.438   8.603   2.252  0.1525  0.0210 -0.7046
   61MOL0     C 8114   5.571   8.603   2.334 -0.3812 -1.0372 -0.0255
   61MOL0     C 8115   5.683   8.560   2.242  1.3422 -0.0917 -0.0723
   61MOL0     C 8116   5.819   8.529   2.311  0.4641 -0.3644  0.5767
   61MOL0     N 8117   5.930   8.525   2.211  0.1069 -0.1969 -0.1395
   61MOL0     C 8118   5.992   8.627   2.138  0.4508 -0.0820 -0.6617
   61MOL0     C 8119   6.106   8.581   2.078  0.6178  0.0999 -1.2006
   61MOL0     C 8120   6.195   8.673   1.999 -0.2145 -0.5502 -0.5541
   61MOL0     C 8121   6.338   8.664   2.062  0.0441 -0.3068  1.4107
   61MOL0     C 8122   6.407   8.516   2.057  0.3711  1.2119 -0.2006
   61MOL0     C 8123   6.554   8.518   2.098 -0.1919  0.4293  0.6861
   61MOL0     O 8124   6.634   8.600   2.003  0.2524  0.2406 -0.0870
   61MOL0     C 8125   6.764   8.630   2.034  0.9497 -0.8775  0.2181
   61MOL0     C 8126   6.839   8.694   1.925 -0.7481  0.9757 -0.1842
   61MOL0     C 8127   6.976   8.703   1.938 -0.4295 -0.6336 -0.2383
   61MOL0     C 8128   7.029   8.672   2.069 -0.1342 -0.1884  0.7759
   61MOL0     C 8129   7.160   8.714   2.103 -0.6196  0.2995 -0.8399
   61MOL0     O 8130   7.215   8.809   2.023 -0.3525 -0.4473  0.3865
   61MOL0     C 8131   7.340   8.877   2.039 -0.1535  1.2091  0.0083
   61MOL0     C 8132   7.383   8.949   1.930  0.5718 -0.1885 -0.0364
   61MOL0     C 8133   7.508   9.011   1.931  0.1585 -0.2188  0.2715
   61MOL0     C 8134   7.597   8.996   2.037 -0.2907 -0.9128 -0.5571
   61MOL0     O 8135   7.719   9.059   2.026 -0.0538  0.1449 -0.5814
   61MOL0     C 8136   7.805   9.027   1.918 -0.0631  1.2858 -0.2035
   61MOL0     C 8137   7.924   8.938   1.963 -0.1976  0.0142 -0.1367
   61MOL0     C 8138   8.029   8.924   1.854 -0.3364 -0.5595  0.5755
   61MOL0     C 8139   8.148   8.840   1.908  0.4378 -0.1599 -1.0270
   61MOL0     C 8140   8.263   8.834   1.809 -0.1017 -0.0715 -0.2258
   61MOL0     C 8141   8.391   8.779   1.857 -0.7666  0.1913  0.2786
   61MOL0     C 8142   8.502   8.822   1.773 -0.0661 -0.2734 -0.5707
   61MOL0     C 8143   8.645   8.783   1.823  0.2462  0.0331  0.8023
   61MOL0    Cl 8144   8.773   8.838   1.704 -0.3473  0.0635  0.1644
   61MOL0     C 8145   7.555   8.921   2.147  0.1894 -0.4156 -0.4115
   61MOL0     C 8146   7.427   8.859   2.148 -0.6350 -0.8495  0.0535
   61MOL0     O 8147   7.222   8.661   2.200  0.0242 -0.1766 -0.0581
   61MOL0     C 8148   6.955   8.616   2.169  0.7269 -0.1678  0.0965
   61MOL0     C 8149   6.825   8.591   2.145 -0.3013  0.1072  0.3181
   61MOL0     N 8150   6.105   8.444   2.102 -0.0397 -0.2630 -0.3563
   61MOL0     N 8151   6.002   8.412   2.185 -0.2746  0.3442 -0.5076
   61MOL0     C 8152   4.969   8.278   1.782 -0.0002 -0.0350 -0.3646
   61MOL0     C 8153   4.878   8.271   1.675 -1.1061 -0.5195  0.3829
   61MOL0     C 8154   4.522   8.393   1.416  0.4261  0.6752  0.0404
   61MOL0     C 8155   4.441   8.278   1.395  0.1910  0.2629  0.9479
   61MOL0     C 8156   4.376   8.257   1.275 -0.3175  0.0220 -0.1525
   61MOL0     C 8157   4.405   8.345   1.168  0.2811  0.1683 -0.9037
   61MOL0     O 8158   4.352   8.318   1.039 -0.8583  0.4675 -0.0011
   61MOL0     C 8159   4.226   8.374   1.016  0.8180  0.5008  0.2255
   61MOL0     C 8160   4.195   8.380   0.862 -0.0775  0.3859 -0.4216
   61MOL0     C 8161   4.288   8.469   0.784 -0.1702 -0.1951  0.9108
   61MOL0     C 8162   4.261   8.609   0.810  0.0963  0.0966  0.3601
   61MOL0     C 8163   4.348   8.701   0.738 -0.7640  0.1204  0.8217
   61MOL0     C 8164   4.436   8.763   0.683  0.4873  0.6545  0.2799
   61MOL0     C 8165   4.494   8.457   1.188 -0.1932  0.4782 -0.1879
   61MOL0     C 8166   4.544   8.493   1.319  0.2028  0.4661 -0.0221
   61MOL0     C 8167   4.640   8.611   1.335  0.8622 -0.0920 -0.3322
   61MOL0     H 8168   4.593   8.365   1.829  1.0424  2.4732 -0.5384
   61MOL0     H 8169   4.757   8.378   2.033  2.5560 -0.0414  0.6443
   61MOL0     H 8170   4.965   8.479   2.129  1.1263  1.5805  1.5550
   61MOL0     H 8171   4.931   8.312   2.181 -0.4251  0.7376 -0.3991
   61MOL0     H 8172   5.171   8.273   2.189 -1.6417 -1.1595  1.2108
   61MOL0     H 8173   5.107   8.359   2.320 -1.4873 -1.6384 -0.4720
   61MOL0     H 8174   5.172   8.582   2.214 -2.7388 -0.3336 -2.3737
   61MOL0     H 8175   5.250   8.479   2.086 -0.2529  3.4599  0.5029
   61MOL0     H 8176   5.325   8.469   2.377  0.4225  0.4812  0.1799
   61MOL0     H 8177   5.408   8.390   2.232 -0.3974  0.1446 -1.0052
   61MOL0     H 8178   5.468   8.621   2.148  2.8147 -0.5530 -0.1132
   61MOL0     H 8179   5.376   8.686   2.286 -1.8663 -1.3487 -0.8585
   61MOL0     H 8180   5.595   8.703   2.372 -1.7178  0.2150 -2.2393
   61MOL0     H 8181   5.562   8.537   2.421 -0.8312 -4.3542 -2.3910
   61MOL0     H 8182   5.694   8.639   2.167 -2.3320 -0.5564 -1.3280
   61MOL0     H 8183   5.647   8.470   2.191  1.4011  1.4902 -3.1467
   61MOL0     H 8184   5.852   8.613   2.372 -1.4710  0.2977  0.8056
   61MOL0     H 8185   5.807   8.436   2.368 -1.8025 -1.0077 -0.8022
   61MOL0     H 8186   5.965   8.732   2.147  2.1018  0.3100 -0.0295
   61MOL0     H 8187   6.200   8.641   1.894 -2.4896 -2.6085 -0.1172
   61MOL0     H 8188   6.152   8.773   2.005 -2.9315 -1.6837  0.4437
   61MOL0     H 8189   6.407   8.732   2.011  3.4512 -3.0266  1.9234
   61MOL0     H 8190   6.325   8.684   2.169 -0.3950 -0.9006  1.4728
   61MOL0     H 8191   6.401   8.485   1.952  1.7963 -0.7348  0.2446
   61MOL0     H 8192   6.352   8.444   2.118  1.3248 -0.2569 -1.0091
   61MOL0     H 8193   6.592   8.415   2.104 -1.2985 -0.1152 -1.1143
   61MOL0     H 8194   6.564   8.562   2.198  1.5375 -0.6643  1.0379
   61MOL0     H 8195   6.788   8.723   1.833  2.6393  3.0332 -1.6110
   61MOL0     H 8196   7.019   8.750   1.851 -0.9374  1.9209  0.8017
   61MOL0     H 8197   7.310   8.960   1.850  0.9175  0.5369 -0.2633
   61MOL0     H 8198   7.544   9.072   1.848 -1.7116  0.2924 -0.2090
   61MOL0     H 8199   7.745   8.984   1.837  1.5742  1.3819 -1.5349
   61MOL0     H 8200   7.838   9.126   1.884 -1.7531  1.7013 -0.7332
   61MOL0     H 8201   7.966   8.989   2.050  1.1447 -0.1947 -0.6452
   61MOL0     H 8202   7.878   8.841   1.986  2.7927 -0.9286  2.6431
   61MOL0     H 8203   7.984   8.875   1.767 -0.2596 -0.8892  0.7204
   61MOL0     H 8204   8.071   9.020   1.825  0.3595 -0.7729  0.8562
   61MOL0     H 8205   8.120   8.739   1.939 -0.3718  0.1817 -0.6276
   61MOL0     H 8206   8.187   8.894   1.995 -0.8394  1.2877 -1.3339
   61MOL0     H 8207   8.268   8.932   1.760  1.2879  0.4480  0.8931
   61MOL0     H 8208   8.233   8.766   1.729 -2.1108 -1.9434  1.9818
   61MOL0     H 8209   8.412   8.804   1.961 -2.3408  0.2514  0.6095
   61MOL0     H 8210   8.387   8.670   1.845  1.2458  0.3775 -3.9122
   61MOL0     H 8211   8.494   8.931   1.765  0.5396 -0.3109 -2.2280
   61MOL0     H 8212   8.486   8.776   1.675 -1.7467  1.5523 -1.2173
   61MOL0     H 8213   8.672   8.835   1.916  0.7593 -1.0450  1.2701
   61MOL0     H 8214   8.654   8.676   1.841 -1.6226 -0.7809 -2.3805
   61MOL0     H 8215   7.626   8.911   2.230 -1.8694  0.3007  1.5390
   61MOL0     H 8216   7.407   8.788   2.227 -1.5036 -1.4709 -0.6979
   61MOL0     H 8217   6.993   8.582   2.265 -0.4266 -1.5568  0.1064
   61MOL0     H 8218   6.781   8.533   2.226 -1.4262  1.8678  1.0396
   61MOL0     H 8219   5.071   8.249   1.761  0.1623 -1.1070  1.6659
   61MOL0     H 8220   4.898   8.225   1.579 -2.3520  1.0059 -0.6663
   61MOL0     H 8221   4.426   8.203   1.472 -1.5953  1.3790  1.7755
   61MOL0     H 8222   4.316   8.169   1.254  0.2322 -0.0008 -1.7699
   61MOL0     H 8223   4.222   8.477   1.052  1.2389 -0.4244  3.1986
   61MOL0     H 8224   4.145   8.325   1.071 -0.6930  1.8085 -0.7603
   61MOL0     H 8225   4.097   8.427   0.852  0.9537  2.3119 -2.0134
   61MOL0     H 8226   4.203   8.278   0.822  1.5272  0.3289 -0.0296
   61MOL0     H 8227   4.287   8.439   0.679 -1.0703 -0.7888  1.0763
   61MOL0     H 8228   4.389   8.453   0.821 -0.8792  0.7521  3.5471
   61MOL0     H 8229   4.159   8.628   0.776 -0.4316 -0.4233  1.5771
   61MOL0     H 8230   4.264   8.646   0.913 -0.3368  0.3318  0.2895
   61MOL0     H 8231   4.520   8.808   0.635  1.0519 -1.1982 -0.5651
   61MOL0     H 8232   4.528   8.507   1.098 -3.0576 -0.4544 -1.9214
   61MOL0     H 8233   4.737   8.587   1.379  1.4664  0.2880 -1.4399
   61MOL0     H 8234   4.667   8.663   1.243 -0.4199  0.9887 -0.1333
   61MOL0     H 8235   4.589   8.689   1.393 -1.5942 -0.3144 -2.0139
   62MOL0     O 8236   6.609   7.844   5.676 -0.2556  0.5726  0.0932
   62MOL0     C 8237   6.522   7.921   5.707  0.0717 -0.4756  0.0897
   62MOL0     O 8238   6.530   8.034   5.783  1.2880  0.2275  0.1913
   62MOL0     C 8239   6.653   8.069   5.834 -0.0052 -0.0990  0.1170
   62MOL0     C 8240   6.758   8.101   5.759  0.4086  0.3488  0.6843
   62MOL0     C 8241   6.881   8.122   5.815 -0.3872 -1.0413 -0.5092
   62MOL0     C 8242   6.906   8.103   5.949  0.1177 -0.1474  0.2626
   62MOL0     O 8243   7.046   8.110   5.985  0.5040 -0.0195 -0.0505
   62MOL0     C 8244   7.088   8.072   6.116  0.4800 -0.4342 -1.3448
   62MOL0     C 8245   7.227   8.032   6.112 -0.1401 -1.0388 -0.5197
   62MOL0     C 8246   7.290   8.000   6.248 -0.3083 -0.6297  0.2228
   62MOL0     C 8247   7.431   7.946   6.230  0.2708  0.3615  0.7402
   62MOL0     C 8248   7.502   7.945   6.368  0.3461 -0.6749  0.4847
   62MOL0     C 8249   7.647   7.899   6.355 -0.8924 -0.2576 -0.3083
   62MOL0     C 8250   7.713   7.899   6.496 -0.2821 -0.6138 -0.2027
   62MOL0     C 8251   7.867   7.872   6.483  0.7199 -0.0766  0.4984
   62MOL0     N 8252   7.947   7.907   6.602 -0.3973  0.0569 -0.5204
   62MOL0     C 8253   7.959   7.845   6.722  0.4509 -0.1397  1.0211
   62MOL0     C 8254   8.069   7.896   6.782 -0.0775 -0.2415  0.1040
   62MOL0     C 8255   8.120   7.846   6.915  0.5691  0.0011 -0.6125
   62MOL0     C 8256   8.265   7.907   6.956  0.2409  0.0796 -0.1784
   62MOL0     C 8257   8.373   7.830   6.877 -0.2473 -0.3244 -1.0622
   62MOL0     C 8258   8.510   7.872   6.917 -0.3204  0.8491  0.0579
   62MOL0     O 8259   8.524   7.830   7.054 -0.3639  0.4019  0.0780
   62MOL0     C 8260   8.641   7.869   7.126  0.3777  0.4973 -0.4185
   62MOL0     C 8261   8.706   7.992   7.115 -0.0193 -0.0115  0.2716
   62MOL0     C 8262   8.833   8.011   7.170  0.5207  0.3322  0.1558
   62MOL0     C 8263   8.895   7.919   7.247 -0.2621  1.4431 -0.2987
   62MOL0     C 8264   9.032   7.941   7.297  0.2655 -0.0469  0.0869
   62MOL0     O 8265   9.112   7.826   7.318  0.8417 -0.2773 -0.0019
   62MOL0     C 8266   9.233   7.857   7.366 -0.4042  0.0508 -0.1665
   62MOL0     C 8267   9.326   7.907   7.271  0.0273 -0.5904 -0.3812
   62MOL0     C 8268   9.455   7.945   7.315 -1.0285 -0.4576 -0.0400
   62MOL0     C 8269   9.494   7.916   7.449  0.2992 -1.1230 -0.2523
   62MOL0     O 8270   9.625   7.945   7.472  0.0286 -0.3157 -0.3102
   62MOL0     C 8271   9.700   7.890   7.579  0.0084 -0.1391 -0.4750
   62MOL0     C 8272   9.740   7.981   7.698  0.3569  0.1649  0.3940
   62MOL0     C 8273   9.804   8.113   7.650 -0.8961 -0.5135 -0.0112
   62MOL0     C 8274   9.938   8.095   7.580  0.0368 -0.0785  0.5172
   62MOL0     C 8275  10.045   8.084   7.687  0.1393  0.0036  0.0645
   62MOL0     C 8276  10.190   8.072   7.630  0.5508 -0.0392  0.2116
   62MOL0     C 8277  10.295   8.006   7.717  0.2736 -0.5568  0.2240
   62MOL0     C 8278  10.294   7.849   7.704 -1.1483 -0.7386  0.5136
   62MOL0    Cl 8279  10.463   7.788   7.754  0.2695 -0.1750 -0.1125
   62MOL0     C 8280   9.401   7.870   7.537 -0.2620 -0.1723 -0.1934
   62MOL0     C 8281   9.275   7.840   7.498  0.0465 -0.5251  0.5018
   62MOL0     O 8282   9.073   8.051   7.311 -0.0442 -0.2479 -0.1885
   62MOL0     C 8283   8.836   7.796   7.271  0.5139  0.2182  0.6379
   62MOL0     C 8284   8.704   7.774   7.218 -1.0857 -0.1262  1.1275
   62MOL0     N 8285   8.121   8.000   6.707  0.8687 -0.6992  0.2484
   62MOL0     N 8286   8.053   7.998   6.597 -1.0688  1.0553 -0.4770
   62MOL0     C 8287   6.803   8.071   6.027 -0.2319  0.6168  0.2472
   62MOL0     C 8288   6.673   8.060   5.973 -0.0114  0.4757 -0.0490
   62MOL0     C 8289   6.392   7.900   5.635 -0.3235  0.2613 -0.1863
   62MOL0     C 8290   6.283   7.973   5.681  0.0337 -0.1515  0.2175
   62MOL0     C 8291   6.156   7.964   5.612 -1.0165  0.5250  0.5302
   62MOL0     C 8292   6.142   7.887   5.497  0.5218  0.2072  0.5653
   62MOL0     O 8293   6.023   7.870   5.421 -0.0177  1.5770 -0.0750
   62MOL0     C 8294   5.887   7.896   5.474 -0.1095 -0.6622 -0.8774
   62MOL0     C 8295   5.783   7.837   5.386 -0.8862  0.8127  0.5871
   62MOL0     C 8296   5.803   7.681   5.358  0.1270 -0.0448 -0.0860
   62MOL0     C 8297   5.815   7.602   5.484 -0.7540  0.5014 -0.0292
   62MOL0     C 8298   5.829   7.456   5.457 -0.1926  0.2327  1.1946
   62MOL0     C 8299   5.835   7.335   5.421  0.3177 -0.1860 -0.2126
   62MOL0     C 8300   6.246   7.805   5.459  0.2411 -0.8698 -0.0412
   62MOL0     C 8301   6.367   7.810   5.525 -0.2405  0.5663 -0.0037
   62MOL0     C 8302   6.471   7.717   5.467  0.1795  0.6817 -0.2312
   62MOL0     H 8303   6.753   8.105   5.650 -1.1830  2.8168  0.7731
   62MOL0     H 8304   6.964   8.148   5.749 -0.4914  0.0308 -0.2343
   62MOL0     H 8305   7.079   8.157   6.184 -0.8426 -0.5091 -1.3876
   62MOL0     H 8306   7.028   7.987   6.151  0.2224  0.4820  0.5973
   62MOL0     H 8307   7.274   8.122   6.071  1.7935 -1.5007  0.5592
   62MOL0     H 8308   7.238   7.947   6.044 -1.1316 -0.1492 -1.8261
   62MOL0     H 8309   7.228   7.932   6.307 -0.1718 -1.5594 -0.6666
   62MOL0     H 8310   7.296   8.101   6.290 -1.1001  1.0028 -3.1496
   62MOL0     H 8311   7.414   7.840   6.208 -3.1156  0.6885  1.3056
   62MOL0     H 8312   7.489   7.986   6.146  1.4323 -3.1452 -0.2858
   62MOL0     H 8313   7.510   8.049   6.401  0.7410  0.1189 -1.9215
   62MOL0     H 8314   7.435   7.882   6.427 -1.9319  0.9053 -0.2953
   62MOL0     H 8315   7.663   7.797   6.319  1.0953 -0.0614 -0.1165
   62MOL0     H 8316   7.697   7.966   6.285 -0.9934 -0.8111 -0.9128
   62MOL0     H 8317   7.675   7.828   6.569  0.2639 -1.5100 -0.7688
   62MOL0     H 8318   7.713   8.000   6.539  2.2610 -0.5283 -0.2203
   62MOL0     H 8319   7.873   7.765   6.464 -1.6190  0.0139 -1.1278
   62MOL0     H 8320   7.911   7.923   6.397 -1.6192  2.2155  0.5299
   62MOL0     H 8321   7.884   7.781   6.767  0.3167 -0.0553  0.9230
   62MOL0     H 8322   8.059   7.869   7.002 -0.7769  0.0177 -1.5413
   62MOL0     H 8323   8.128   7.737   6.911 -0.4379 -0.0553 -1.4222
   62MOL0     H 8324   8.271   8.013   6.933  0.6802  0.2373  0.6113
   62MOL0     H 8325   8.280   7.899   7.064 -1.7808  0.3608  0.1562
   62MOL0     H 8326   8.361   7.843   6.769  1.5246 -2.2835 -1.5610
   62MOL0     H 8327   8.369   7.723   6.900  1.1473 -0.0469  0.7003
   62MOL0     H 8328   8.514   7.981   6.909 -0.2642  0.7042 -2.8895
   62MOL0     H 8329   8.579   7.832   6.843  0.1542  2.4763 -0.4394
   62MOL0     H 8330   8.662   8.078   7.064  0.9228  0.1909 -0.2371
   62MOL0     H 8331   8.882   8.105   7.150 -0.0985  0.8194  0.8541
   62MOL0     H 8332   9.297   7.926   7.168  1.0200  0.1947 -0.5342
   62MOL0     H 8333   9.527   7.994   7.250 -1.3108  0.5020  0.3458
   62MOL0     H 8334   9.641   7.810   7.624 -1.4069  1.0132 -0.2084
   62MOL0     H 8335   9.794   7.847   7.542  1.1385 -0.0249  2.0934
   62MOL0     H 8336   9.652   8.000   7.761 -2.7898 -4.5644 -1.9537
   62MOL0     H 8337   9.812   7.931   7.762  0.0418  1.1084  1.5296
   62MOL0     H 8338   9.743   8.167   7.578  0.2277  3.9004  1.9795
   62MOL0     H 8339   9.826   8.180   7.734  2.0215 -1.5888  0.2079
   62MOL0     H 8340   9.950   8.175   7.508  0.1335 -1.4430 -1.0358
   62MOL0     H 8341   9.945   8.004   7.519  2.3776  1.1254 -1.1402
   62MOL0     H 8342  10.022   7.994   7.745  2.9259 -0.5904  0.3792
   62MOL0     H 8343  10.039   8.172   7.751  2.1423  0.1001  0.1907
   62MOL0     H 8344  10.188   8.014   7.538  0.2888 -0.7584  0.6615
   62MOL0     H 8345  10.217   8.173   7.596 -3.4550  0.0634 -3.5629
   62MOL0     H 8346  10.271   8.033   7.820 -2.6024 -2.3207  0.1474
   62MOL0     H 8347  10.384   8.063   7.689 -0.8747  0.5381 -1.4182
   62MOL0     H 8348  10.207   7.809   7.756 -2.9236  1.1814 -0.8362
   62MOL0     H 8349  10.287   7.823   7.598  3.9005 -0.1649 -0.2199
   62MOL0     H 8350   9.423   7.877   7.643 -1.8770  1.7937  0.0493
   62MOL0     H 8351   9.204   7.820   7.578  1.3140 -1.8173  1.3669
   62MOL0     H 8352   8.891   7.718   7.321  1.1234 -0.7068 -1.3603
   62MOL0     H 8353   8.654   7.677   7.222 -0.5426 -0.4067  1.3033
   62MOL0     H 8354   6.808   8.042   6.131 -3.1745  1.1626  0.6378
   62MOL0     H 8355   6.590   8.026   6.034  0.4975 -0.7016  0.0136
   62MOL0     H 8356   6.275   8.045   5.762 -0.6878  2.1912 -1.8231
   62MOL0     H 8357   6.072   8.028   5.637 -2.6625 -1.2183 -0.2389
   62MOL0     H 8358   5.880   8.005   5.477 -0.5983 -0.6500 -1.9452
   62MOL0     H 8359   5.874   7.866   5.578  1.8529  1.2131 -0.0253
   62MOL0     H 8360   5.794   7.884   5.288 -0.8790  0.1950  0.2835
   62MOL0     H 8361   5.679   7.857   5.415 -0.7962  2.3305 -0.0455
   62MOL0     H 8362   5.891   7.666   5.295 -1.1938 -1.6830 -1.6467
   62MOL0     H 8363   5.714   7.645   5.305 -1.7447 -1.1876  3.4366
   62MOL0     H 8364   5.909   7.619   5.537  1.4654 -6.6279 -0.5876
   62MOL0     H 8365   5.739   7.622   5.560  1.2757  1.7242  1.7943
   62MOL0     H 8366   5.836   7.235   5.384  1.8501 -0.5380  0.7138
   62MOL0     H 8367   6.220   7.744   5.374 -0.6154 -0.8697  0.2080
   62MOL0     H 8368   6.426   7.645   5.397  0.0477  0.0895  0.4456
   62MOL0     H 8369   6.548   7.759   5.402 -0.4021  1.3025 -0.5291
   62MOL0     H 8370   6.501   7.648   5.547 -1.1028  1.7609  1.2300
   63MOL0     O 8371   6.367   5.133  10.068 -0.1946  0.1623 -0.3632
   63MOL0     C 8372   6.265   5.164  10.012  0.7229 -1.2424 -0.5252
   63MOL0     O 8373   6.259   5.217   9.889  0.5344  0.1772  0.5030
   63MOL0     C 8374   6.377   5.273   9.843  0.1487  0.8373  0.0041
   63MOL0     C 8375   6.431   5.383   9.905  0.5043  0.6223  0.3269
   63MOL0     C 8376   6.541   5.438   9.852 -0.5458 -0.4661  0.2217
   63MOL0     C 8377   6.616   5.402   9.746  0.5115 -0.2471  0.5680
   63MOL0     O 8378   6.732   5.460   9.708 -0.1143  0.3192 -0.3762
   63MOL0     C 8379   6.836   5.472   9.814  0.7445  0.4852  0.2662
   63MOL0     C 8380   6.886   5.610   9.810 -0.2799 -0.6927  0.0233
   63MOL0     C 8381   6.981   5.635   9.919  0.6196  0.2902 -0.8858
   63MOL0     C 8382   7.127   5.652   9.877  0.1340 -0.3264  0.0439
   63MOL0     C 8383   7.214   5.657  10.005 -0.1876 -0.1914  0.2430
   63MOL0     C 8384   7.272   5.800  10.017  0.3387 -0.1394  0.2905
   63MOL0     C 8385   7.358   5.797  10.146 -0.6498  0.1163 -0.3162
   63MOL0     C 8386   7.408   5.936  10.191 -0.3041  0.0236 -0.5687
   63MOL0     N 8387   7.521   5.982  10.112  0.8403  0.7363 -0.2641
   63MOL0     C 8388   7.646   5.930  10.122  0.0504  0.1320  0.0171
   63MOL0     C 8389   7.721   5.987  10.026  0.3999  0.7349  0.1250
   63MOL0     C 8390   7.863   5.944  10.014 -0.4658  0.2401  0.3330
   63MOL0     C 8391   7.955   6.055  10.061 -0.3655  0.8236  1.0706
   63MOL0     C 8392   7.992   6.170   9.964 -0.3718 -0.2219  0.5648
   63MOL0     C 8393   8.055   6.293  10.033 -0.2645  0.3486 -0.3873
   63MOL0     O 8394   8.160   6.250  10.124  0.0739  0.4874  0.3329
   63MOL0     C 8395   8.274   6.183  10.077 -0.5433 -0.1159  0.2140
   63MOL0     C 8396   8.340   6.114  10.178  0.4390 -0.2403  0.1305
   63MOL0     C 8397   8.462   6.048  10.140 -0.4727 -0.4880  1.4153
   63MOL0     C 8398   8.521   6.063  10.009  0.1308  0.6321 -0.3684
   63MOL0     C 8399   8.654   5.998   9.982  0.5246  0.2316 -0.4065
   63MOL0     O 8400   8.702   6.002   9.853 -0.5870 -0.2321 -0.2503
   63MOL0     C 8401   8.827   5.951   9.806  0.4683  0.0002 -0.7661
   63MOL0     C 8402   8.940   5.959   9.879 -0.7140 -0.3131 -0.8637
   63MOL0     C 8403   9.058   5.900   9.830  0.0714  0.4195 -0.1629
   63MOL0     C 8404   9.056   5.836   9.705 -0.8011  1.1485 -0.2889
   63MOL0     O 8405   9.175   5.777   9.655 -0.2377  0.8313  0.2625
   63MOL0     C 8406   9.221   5.817   9.521 -1.1599 -0.0698 -0.0645
   63MOL0     C 8407   9.369   5.787   9.508 -0.4226 -0.2227  0.2625
   63MOL0     C 8408   9.423   5.847   9.370 -0.4419  1.1379 -0.2977
   63MOL0     C 8409   9.578   5.859   9.365  0.0462  0.4036 -0.3052
   63MOL0     C 8410   9.631   5.975   9.455 -0.1084  0.4185 -0.1243
   63MOL0     C 8411   9.780   5.981   9.436  0.4775  0.7870  0.6454
   63MOL0     C 8412   9.836   6.107   9.485 -0.1365  0.0120  0.2190
   63MOL0     C 8413   9.826   6.113   9.640 -0.1561  0.0946  0.2119
   63MOL0    Cl 8414   9.927   6.250   9.700 -0.4419 -0.1349  0.5851
   63MOL0     C 8415   8.941   5.815   9.634 -0.8597 -0.3694 -0.6431
   63MOL0     C 8416   8.830   5.878   9.687  0.3251  0.4178 -0.1664
   63MOL0     O 8417   8.716   5.957  10.080  0.2801  0.1221  0.0308
   63MOL0     C 8418   8.445   6.130   9.911 -0.2394 -0.5667  0.0028
   63MOL0     C 8419   8.321   6.185   9.943  0.4412  0.1422  0.6167
   63MOL0     N 8420   7.628   6.057   9.943  0.5470 -0.1260 -1.2446
   63MOL0     N 8421   7.515   6.062  10.006  0.5100  0.7780  0.2811
   63MOL0     C 8422   6.559   5.287   9.678 -0.2484  0.3604  0.5683
   63MOL0     C 8423   6.444   5.225   9.722  0.7581 -0.7031  0.7816
   63MOL0     C 8424   6.130   5.121  10.065  0.2221 -0.0919 -0.4610
   63MOL0     C 8425   6.034   5.080   9.965  0.6229 -0.1724 -0.3054
   63MOL0     C 8426   5.916   5.023  10.001 -0.1721 -0.5909  0.9553
   63MOL0     C 8427   5.876   5.014  10.130 -0.1629  0.0919  0.1543
   63MOL0     O 8428   5.762   4.954  10.157 -0.2042 -0.1651  0.1547
   63MOL0     C 8429   5.692   4.875  10.060 -0.0973 -0.1553  0.0033
   63MOL0     C 8430   5.595   4.778  10.128 -0.4122  0.3225 -1.4835
   63MOL0     C 8431   5.659   4.688  10.241 -0.1891  0.1674  0.3946
   63MOL0     C 8432   5.565   4.590  10.302  1.2183 -0.8081 -0.3583
   63MOL0     C 8433   5.508   4.499  10.201  0.2126  1.2877 -0.2992
   63MOL0     C 8434   5.493   4.421  10.111 -0.3894 -0.1778 -0.1650
   63MOL0     C 8435   5.968   5.047  10.226  0.2336  0.5418 -0.1419
   63MOL0     C 8436   6.085   5.103  10.199  0.2223 -0.4146 -0.6803
   63MOL0     C 8437   6.179   5.148  10.311 -0.3781  0.9214 -0.2765
   63MOL0     H 8438   6.403   5.421  10.003  0.0795 -2.1185  1.3830
   63MOL0     H 8439   6.571   5.534   9.891 -0.4312 -0.4388  0.0674
   63MOL0     H 8440   6.786   5.456   9.910 -0.1384 -0.4119 -0.3206
   63MOL0     H 8441   6.914   5.397   9.793 -1.0312 -1.0058 -1.4097
   63MOL0     H 8442   6.801   5.679   9.796  0.6097 -0.0819 -3.0074
   63MOL0     H 8443   6.935   5.618   9.713 -1.8814  1.3907 -0.7019
   63MOL0     H 8444   6.980   5.545   9.982  0.4989  2.1924  2.0569
   63MOL0     H 8445   6.946   5.713   9.987 -0.2390 -1.1102  0.3256
   63MOL0     H 8446   7.157   5.567   9.815  2.8361  1.4449 -1.2893
   63MOL0     H 8447   7.130   5.743   9.815 -0.6359 -1.5177 -1.8304
   63MOL0     H 8448   7.152   5.631  10.091 -0.6785  0.2964  0.0356
   63MOL0     H 8449   7.288   5.577  10.007 -0.0713 -0.0796  0.7419
   63MOL0     H 8450   7.339   5.827   9.935  1.3721  0.0617  1.1650
   63MOL0     H 8451   7.203   5.884  10.030 -0.6103 -0.2919 -3.0602
   63MOL0     H 8452   7.444   5.730  10.133 -1.4852 -1.0144 -0.1585
   63MOL0     H 8453   7.304   5.757  10.233 -0.7030  1.0155  0.0768
   63MOL0     H 8454   7.323   6.004  10.201 -2.1471 -2.2903  0.3405
   63MOL0     H 8455   7.433   5.926  10.298 -0.5803 -1.3309 -0.6121
   63MOL0     H 8456   7.693   5.866  10.196 -1.1091 -1.9339 -0.9364
   63MOL0     H 8457   7.888   5.853  10.069  1.0002  0.1451 -0.4374
   63MOL0     H 8458   7.883   5.930   9.907 -0.5745  0.2790  0.3087
   63MOL0     H 8459   7.908   6.108  10.144 -2.6237 -1.2105  1.2103
   63MOL0     H 8460   8.053   6.015  10.088 -0.0615 -1.6143 -2.8473
   63MOL0     H 8461   7.897   6.209   9.928  0.2664  0.2397 -0.6523
   63MOL0     H 8462   8.056   6.136   9.882 -0.1076  1.0618  0.2187
   63MOL0     H 8463   7.994   6.355  10.099 -0.9343  1.9448 -2.3990
   63MOL0     H 8464   8.093   6.358   9.953 -3.6946 -0.1795 -2.6340
   63MOL0     H 8465   8.293   6.103  10.275  0.6527  1.0074  0.3866
   63MOL0     H 8466   8.523   5.993  10.211 -0.9624 -3.2415 -0.1596
   63MOL0     H 8467   8.933   6.022   9.967 -1.5611 -0.6221 -0.6926
   63MOL0     H 8468   9.152   5.906   9.883  0.7714 -1.2288 -1.1793
   63MOL0     H 8469   9.180   5.758   9.439 -0.2695 -0.2405 -0.3999
   63MOL0     H 8470   9.215   5.924   9.499 -0.3345 -0.1061 -0.4943
   63MOL0     H 8471   9.433   5.822   9.589 -0.8764 -0.6197  0.8075
   63MOL0     H 8472   9.369   5.678   9.500 -1.4749 -0.2278  0.1319
   63MOL0     H 8473   9.410   5.773   9.291  2.0732 -0.3100  0.5591
   63MOL0     H 8474   9.380   5.942   9.335 -1.8760  0.1140 -1.4499
   63MOL0     H 8475   9.606   5.889   9.263  2.3726 -0.3174  0.0679
   63MOL0     H 8476   9.616   5.758   9.381 -0.1220  0.3565 -0.2006
   63MOL0     H 8477   9.598   5.954   9.558 -0.9965  1.6064 -0.1305
   63MOL0     H 8478   9.581   6.071   9.435 -2.0589  0.3119  3.2950
   63MOL0     H 8479   9.818   5.889   9.481  1.3519  1.3132  1.0192
   63MOL0     H 8480   9.803   5.975   9.329 -0.0728  1.5178  0.4770
   63MOL0     H 8481   9.782   6.192   9.441 -0.5401 -0.5154 -0.3171
   63MOL0     H 8482   9.939   6.112   9.447  1.0222  2.0119  3.2690
   63MOL0     H 8483   9.723   6.127   9.676 -0.0681  1.4511  0.0054
   63MOL0     H 8484   9.868   6.023   9.685  0.5940 -0.5550 -1.6875
   63MOL0     H 8485   8.928   5.750   9.549 -1.1180 -0.6134 -0.4172
   63MOL0     H 8486   8.734   5.878   9.635  1.2519  0.7508 -1.9428
   63MOL0     H 8487   8.490   6.143   9.813 -1.6428  1.0280 -0.4678
   63MOL0     H 8488   8.263   6.235   9.866 -1.5156  0.7786  2.4130
   63MOL0     H 8489   6.616   5.236   9.601 -0.0189  2.7427 -0.9374
   63MOL0     H 8490   6.404   5.138   9.671  1.7735 -1.6068  1.4966
   63MOL0     H 8491   6.073   5.077   9.863  3.7846  1.6268  0.7191
   63MOL0     H 8492   5.860   4.981   9.919  1.1651  2.0004 -1.4660
   63MOL0     H 8493   5.772   4.821  10.010 -0.5579 -0.5599 -0.2998
   63MOL0     H 8494   5.628   4.933   9.993 -0.0635 -1.7943 -1.5146
   63MOL0     H 8495   5.552   4.713  10.052 -0.3962 -0.6396 -0.6810
   63MOL0     H 8496   5.508   4.838  10.158  0.5303  1.0380 -0.0653
   63MOL0     H 8497   5.699   4.752  10.320 -0.8145  2.3294 -0.9513
   63MOL0     H 8498   5.739   4.632  10.192 -0.9189 -1.8200  1.3573
   63MOL0     H 8499   5.619   4.518  10.365 -0.1871  0.8275  2.9831
   63MOL0     H 8500   5.497   4.643  10.370  4.1901  0.9976  1.4761
   63MOL0     H 8501   5.480   4.340  10.041 -0.9250  0.1869 -0.4915
   63MOL0     H 8502   5.927   5.029  10.325 -2.0103  0.2141 -1.0618
   63MOL0     H 8503   6.225   5.241  10.274 -1.4678  2.2966  1.6505
   63MOL0     H 8504   6.141   5.159  10.413  1.0959  0.6147  0.3338
   63MOL0     H 8505   6.255   5.070  10.320  0.6356  1.9268  0.1995
   64MOL0     O 8506   6.618   0.567  10.554  0.3578 -0.0887  0.2068
   64MOL0     C 8507   6.594   0.446  10.566 -0.5888  0.2384  0.2946
   64MOL0     O 8508   6.691   0.348  10.605  0.9036 -0.2091 -0.2185
   64MOL0     C 8509   6.821   0.387  10.630  0.1629 -0.6381  0.0014
   64MOL0     C 8510   6.850   0.483  10.736  0.3502  0.1766  1.0408
   64MOL0     C 8511   6.985   0.512  10.767 -0.3107 -0.4510 -0.6686
   64MOL0     C 8512   7.088   0.464  10.685  0.6208 -0.4691  0.6890
   64MOL0     O 8513   7.219   0.472  10.719 -0.3301  0.5214 -0.5383
   64MOL0     C 8514   7.252   0.480  10.860  0.5704 -0.6426  0.1958
   64MOL0     C 8515   7.398   0.480  10.881 -0.2658 -0.0772  0.2658
   64MOL0     C 8516   7.457   0.591  10.800 -0.2022  0.1220 -0.2493
   64MOL0     C 8517   7.609   0.578  10.801 -0.2092 -0.3853 -0.2221
   64MOL0     C 8518   7.680   0.700  10.740 -0.1930  0.4178 -0.3115
   64MOL0     C 8519   7.832   0.689  10.770 -0.4093 -0.5418 -0.1324
   64MOL0     C 8520   7.914   0.798  10.702 -0.0498  0.4873  0.8317
   64MOL0     C 8521   8.049   0.747  10.666 -0.3312 -0.8823 -0.7149
   64MOL0     N 8522   8.105   0.813  10.539  0.4921 -0.0874 -0.1566
   64MOL0     C 8523   8.061   0.810  10.401  0.7448  0.5947 -1.1585
   64MOL0     C 8524   8.130   0.906  10.343 -0.3570  0.1251  0.6010
   64MOL0     C 8525   8.130   0.960  10.199 -0.8812 -0.0459 -0.5605
   64MOL0     C 8526   8.254   0.918  10.118 -0.3061 -0.7671 -0.6699
   64MOL0     C 8527   8.378   1.007  10.163 -0.6737  0.4272  0.2218
   64MOL0     C 8528   8.490   1.003  10.068  0.2159  0.3632  0.0680
   64MOL0     O 8529   8.560   1.126  10.086 -0.1357 -0.1697 -0.2343
   64MOL0     C 8530   8.677   1.146  10.019  0.2235 -0.2428 -0.1164
   64MOL0     C 8531   8.732   1.073   9.910 -0.4529  0.2495 -0.1998
   64MOL0     C 8532   8.863   1.094   9.862  0.1208 -0.2208 -0.5205
   64MOL0     C 8533   8.941   1.196   9.909  0.8183  0.0104  0.7762
   64MOL0     C 8534   9.074   1.224   9.846 -0.0079 -0.4930  0.0910
   64MOL0     O 8535   9.117   1.143   9.749  0.0540  0.0486 -0.1441
   64MOL0     C 8536   9.213   1.191   9.657 -0.4692  0.4025 -0.5300
   64MOL0     C 8537   9.308   1.093   9.612  0.4946  0.4461  0.0840
   64MOL0     C 8538   9.410   1.135   9.520 -0.0014 -0.3058 -0.2109
   64MOL0     C 8539   9.418   1.266   9.470 -0.0519  0.2260 -0.0410
   64MOL0     O 8540   9.519   1.295   9.378 -0.2134  0.0708  0.6264
   64MOL0     C 8541   9.528   1.427   9.326 -0.2710 -0.2569 -0.7827
   64MOL0     C 8542   9.642   1.460   9.236  0.3496 -0.1444  0.2900
   64MOL0     C 8543   9.772   1.379   9.253  0.1987 -0.0961  0.2799
   64MOL0     C 8544   9.854   1.398   9.120  0.4072  0.2256  0.1330
   64MOL0     C 8545   9.994   1.334   9.128 -0.3645 -0.2463 -0.1461
   64MOL0     C 8546  10.062   1.362   8.986  0.4961 -0.4176  0.2543
   64MOL0     C 8547  10.214   1.331   8.988  0.4318 -0.5029 -0.7093
   64MOL0     C 8548  10.286   1.398   8.869 -0.5774 -0.2890 -0.2621
   64MOL0    Cl 8549  10.469   1.398   8.904  0.0175 -0.3065 -0.6098
   64MOL0     C 8550   9.327   1.358   9.529 -0.4988 -0.4845 -0.4892
   64MOL0     C 8551   9.227   1.318   9.615  0.0873 -0.2229 -0.1007
   64MOL0     O 8552   9.129   1.334   9.885 -0.3552 -1.1405 -0.0389
   64MOL0     C 8553   8.888   1.272  10.015 -0.9112 -0.7215 -0.9415
   64MOL0     C 8554   8.764   1.247  10.068 -0.8477  0.6135 -0.9603
   64MOL0     N 8555   8.223   0.956  10.435  0.6950 -0.5597 -0.2657
   64MOL0     N 8556   8.210   0.896  10.549  0.0568 -0.3914 -0.0988
   64MOL0     C 8557   7.058   0.388  10.574 -0.2975 -0.0046  0.3394
   64MOL0     C 8558   6.924   0.348  10.548 -0.1137  0.4098  0.2001
   64MOL0     C 8559   6.458   0.400  10.534 -0.9856 -0.3866  0.6112
   64MOL0     C 8560   6.437   0.273  10.476 -0.5896 -0.3506 -0.9042
   64MOL0     C 8561   6.308   0.226  10.444  0.0536  0.7585 -0.4093
   64MOL0     C 8562   6.192   0.306  10.475  0.3259  0.4728  0.5352
   64MOL0     O 8563   6.068   0.250  10.440 -0.1717  0.1202  0.1096
   64MOL0     C 8564   5.960   0.345  10.424 -0.7144  0.2938 -0.4498
   64MOL0     C 8565   5.863   0.284  10.325  0.5584 -0.3670  0.2549
   64MOL0     C 8566   5.919   0.307  10.181  1.4950  1.0222  0.0636
   64MOL0     C 8567   5.872   0.197  10.089  0.4657  0.4851 -0.8016
   64MOL0     C 8568   5.944   0.200   9.958  0.2826 -0.4902 -0.2442
   64MOL0     C 8569   6.003   0.198   9.854  0.1689  0.5114 -0.1939
   64MOL0     C 8570   6.210   0.437  10.533 -0.7676 -0.0630 -0.0083
   64MOL0     C 8571   6.344   0.482  10.566  0.0972  0.5000 -0.1360
   64MOL0     C 8572   6.348   0.626  10.629  0.6333 -0.1536  0.2034
   64MOL0     H 8573   6.771   0.534  10.792 -0.2299  1.0868 -0.5416
   64MOL0     H 8574   7.007   0.583  10.846 -0.4726 -0.2198 -0.8281
   64MOL0     H 8575   7.213   0.570  10.910  0.9089 -1.9758  3.1050
   64MOL0     H 8576   7.211   0.400  10.922 -0.0344 -0.7227 -0.2995
   64MOL0     H 8577   7.444   0.391  10.838 -0.7696  0.6085 -1.7688
   64MOL0     H 8578   7.418   0.489  10.988  0.9357  1.9341 -0.0762
   64MOL0     H 8579   7.431   0.681  10.858 -0.1421  0.3972 -0.6469
   64MOL0     H 8580   7.429   0.581  10.695 -0.9894 -1.9536  0.1164
   64MOL0     H 8581   7.651   0.557  10.899 -1.7040 -2.1748  0.0812
   64MOL0     H 8582   7.633   0.484  10.751 -1.9430 -0.3653 -1.1690
   64MOL0     H 8583   7.662   0.702  10.632  2.3507  1.4650 -0.7807
   64MOL0     H 8584   7.638   0.786  10.795  1.1977 -0.4620  2.3044
   64MOL0     H 8585   7.852   0.687  10.877  2.8903 -0.1763 -0.6346
   64MOL0     H 8586   7.869   0.593  10.731  0.2481 -0.0887 -0.6578
   64MOL0     H 8587   7.921   0.886  10.766 -3.2267  1.6367 -0.2257
   64MOL0     H 8588   7.861   0.841  10.617 -0.1052  1.8636  1.5429
   64MOL0     H 8589   8.118   0.761  10.749  0.8160 -1.7945 -1.4807
   64MOL0     H 8590   8.057   0.637  10.667 -1.1364 -0.9480 -0.7166
   64MOL0     H 8591   7.987   0.738  10.365  1.0392 -0.9015  1.0367
   64MOL0     H 8592   8.042   0.922  10.145  0.0710  2.3774 -4.1950
   64MOL0     H 8593   8.120   1.069  10.195  0.3599  0.0468 -1.7900
   64MOL0     H 8594   8.273   0.814  10.144  1.0446 -0.0074  1.7732
   64MOL0     H 8595   8.229   0.932  10.013 -2.2601 -1.8388 -0.3980
   64MOL0     H 8596   8.411   0.981  10.264 -0.8233 -0.1137  0.1371
   64MOL0     H 8597   8.348   1.112  10.165  0.5701  0.8419 -1.1255
   64MOL0     H 8598   8.443   1.013   9.970  0.8021  1.0122 -0.1479
   64MOL0     H 8599   8.545   0.908  10.067 -2.0062 -1.0454  1.4575
   64MOL0     H 8600   8.681   0.994   9.856  2.4692 -1.6214 -0.4467
   64MOL0     H 8601   8.899   1.035   9.778 -0.0841 -0.8563 -0.1746
   64MOL0     H 8602   9.309   0.996   9.662  0.3780 -0.3366 -1.3755
   64MOL0     H 8603   9.487   1.080   9.467  0.0130  0.6658 -1.2211
   64MOL0     H 8604   9.428   1.456   9.293 -0.7683 -1.7109 -0.6306
   64MOL0     H 8605   9.536   1.480   9.422 -3.3053 -2.5390  0.8924
   64MOL0     H 8606   9.606   1.429   9.137 -1.4238 -1.1792  1.2152
   64MOL0     H 8607   9.668   1.566   9.230  2.0123 -0.5149  0.2637
   64MOL0     H 8608   9.823   1.420   9.340 -0.9201  0.1652  0.8219
   64MOL0     H 8609   9.748   1.274   9.273 -1.0309  0.1517  0.2161
   64MOL0     H 8610   9.845   1.503   9.093 -0.1804  0.3072  0.6339
   64MOL0     H 8611   9.802   1.353   9.035 -1.9660 -0.2074  1.7311
   64MOL0     H 8612   9.976   1.228   9.148 -2.0060  0.1743  0.8004
   64MOL0     H 8613  10.051   1.377   9.211  0.5025  2.3802 -1.9495
   64MOL0     H 8614  10.009   1.319   8.901 -0.6943  2.2311 -0.4663
   64MOL0     H 8615  10.058   1.471   8.976  0.8077 -0.1004  2.7965
   64MOL0     H 8616  10.228   1.225   8.964  4.2194 -0.7503  1.7028
   64MOL0     H 8617  10.259   1.357   9.085  0.3226 -1.9163 -0.2544
   64MOL0     H 8618  10.270   1.357   8.769  1.5891 -0.2381 -0.6929
   64MOL0     H 8619  10.258   1.504   8.866  2.0398  0.5359  0.6971
   64MOL0     H 8620   9.331   1.461   9.495  0.9827 -0.8693 -1.5807
   64MOL0     H 8621   9.145   1.386   9.633  0.0684  0.5884 -2.7726
   64MOL0     H 8622   8.944   1.358  10.047 -1.1994 -0.0142 -2.2743
   64MOL0     H 8623   8.741   1.319  10.146  1.9647  0.9856 -0.3712
   64MOL0     H 8624   7.139   0.355  10.511 -1.1048  0.6888 -1.1061
   64MOL0     H 8625   6.899   0.280  10.468  0.5551  0.7751 -0.3364
   64MOL0     H 8626   6.513   0.204  10.440  0.6549 -0.3481  1.5193
   64MOL0     H 8627   6.293   0.126  10.406  2.6998 -1.0963  2.9359
   64MOL0     H 8628   6.000   0.438  10.382  0.2367 -0.1661 -0.5901
   64MOL0     H 8629   5.913   0.354  10.522 -1.0714 -1.7884 -0.3834
   64MOL0     H 8630   5.762   0.325  10.331  1.5000  2.5595 -1.8062
   64MOL0     H 8631   5.852   0.175  10.337  0.8178 -0.3223  0.9037
   64MOL0     H 8632   6.029   0.310  10.178  1.5054  2.2868  0.6412
   64MOL0     H 8633   5.878   0.402  10.146 -0.8421  0.2105  0.4211
   64MOL0     H 8634   5.876   0.099  10.135  1.0058  1.0195  0.3265
   64MOL0     H 8635   5.765   0.204  10.068  0.0007 -0.8592  0.9181
   64MOL0     H 8636   6.048   0.171   9.761  0.0737  0.7701 -0.3154
   64MOL0     H 8637   6.130   0.507  10.556  1.2416  2.4956 -0.4281
   64MOL0     H 8638   6.412   0.620  10.717  2.1156 -1.6503 -0.8908
   64MOL0     H 8639   6.389   0.695  10.555 -2.0546 -0.2966 -1.5586
   64MOL0     H 8640   6.247   0.664  10.650  0.0888 -0.7875 -1.1160
   65MOL0     O 8641   2.260   3.900   5.145 -0.0223  0.1964 -0.3600
   65MOL0     C 8642   2.227   3.968   5.051  0.6674  0.2664 -0.0204
   65MOL0     O 8643   2.303   4.070   4.996 -0.2903  0.0778 -0.2365
   65MOL0     C 8644   2.413   4.119   5.071 -0.5871  0.6111  0.9610
   65MOL0     C 8645   2.521   4.040   5.105 -0.1876  0.0049  0.2358
   65MOL0     C 8646   2.623   4.092   5.192 -0.4212 -0.3922  0.0024
   65MOL0     C 8647   2.617   4.225   5.234 -0.2127 -1.2491  0.2034
   65MOL0     O 8648   2.717   4.288   5.312  0.1200 -0.4327  0.7741
   65MOL0     C 8649   2.796   4.207   5.397 -0.5662 -0.5057 -0.4278
   65MOL0     C 8650   2.781   4.251   5.539 -0.7636  0.0487  0.2419
   65MOL0     C 8651   2.880   4.182   5.634 -0.1822  0.4036 -0.0090
   65MOL0     C 8652   2.812   4.131   5.770 -0.7694  0.1288  0.9665
   65MOL0     C 8653   2.902   4.053   5.879 -0.1403  0.0646  0.4528
   65MOL0     C 8654   3.038   4.119   5.906  0.7340 -0.1104 -0.3958
   65MOL0     C 8655   3.048   4.216   6.031 -0.0550 -1.1645 -0.1486
   65MOL0     C 8656   2.966   4.346   6.003  0.3512  0.6403 -0.3210
   65MOL0     N 8657   3.022   4.437   5.900 -0.3402 -0.0707 -0.0947
   65MOL0     C 8658   3.128   4.529   5.918 -0.9438  0.5410 -0.0017
   65MOL0     C 8659   3.131   4.606   5.813 -0.1303 -0.5588  0.0744
   65MOL0     C 8660   3.231   4.711   5.774 -1.0671  0.1751  0.5234
   65MOL0     C 8661   3.354   4.647   5.704  0.7313 -0.0466 -1.0488
   65MOL0     C 8662   3.453   4.752   5.640 -0.0976 -0.2994  0.3409
   65MOL0     C 8663   3.499   4.877   5.720  0.3711  0.0535 -0.3926
   65MOL0     O 8664   3.594   4.960   5.654  0.1786 -0.6358  0.0328
   65MOL0     C 8665   3.721   4.922   5.645 -0.3835  0.4779  0.1043
   65MOL0     C 8666   3.818   5.011   5.594  0.0146  0.6201 -0.1603
   65MOL0     C 8667   3.957   4.975   5.595  0.1999 -0.2890  0.5649
   65MOL0     C 8668   3.998   4.851   5.644  0.2308  0.5737  0.1146
   65MOL0     C 8669   4.139   4.805   5.621  0.5624 -0.3874  0.1050
   65MOL0     O 8670   4.156   4.669   5.623  0.0862  0.1875  0.2424
   65MOL0     C 8671   4.279   4.606   5.595 -0.1696 -0.5058  0.4554
   65MOL0     C 8672   4.366   4.650   5.493  0.0664 -0.3859 -0.2111
   65MOL0     C 8673   4.492   4.596   5.486 -0.1382 -0.1612 -0.2092
   65MOL0     C 8674   4.542   4.507   5.578  0.7307 -0.4218 -0.0904
   65MOL0     O 8675   4.668   4.456   5.562 -0.7151  0.1031 -0.4192
   65MOL0     C 8676   4.722   4.365   5.667  0.3171 -0.7296  0.5196
   65MOL0     C 8677   4.872   4.353   5.657  0.0469  0.6597  0.0042
   65MOL0     C 8678   4.940   4.479   5.621  0.2729  0.1031 -0.0689
   65MOL0     C 8679   5.098   4.456   5.638 -1.2511  1.0002  0.8054
   65MOL0     C 8680   5.176   4.587   5.613  0.5948  0.1729 -0.4151
   65MOL0     C 8681   5.328   4.558   5.619 -0.0977 -0.3152 -0.5973
   65MOL0     C 8682   5.404   4.683   5.584 -0.0942 -0.1140 -0.5266
   65MOL0     C 8683   5.561   4.669   5.580  0.4486  0.2876 -0.2767
   65MOL0    Cl 8684   5.635   4.638   5.738 -0.2173 -0.0318  0.3946
   65MOL0     C 8685   4.452   4.452   5.683  0.0524  0.3942 -0.5598
   65MOL0     C 8686   4.323   4.512   5.691  0.7579 -0.1896  0.5500
   65MOL0     O 8687   4.228   4.887   5.615 -0.7249  0.5409 -0.4189
   65MOL0     C 8688   3.909   4.767   5.705  0.5429 -0.1537  0.4569
   65MOL0     C 8689   3.775   4.806   5.705  0.3063 -0.1682 -0.4358
   65MOL0     N 8690   3.027   4.572   5.729  0.7374  0.3262  0.0344
   65MOL0     N 8691   2.963   4.472   5.781 -0.0039 -0.0811 -0.3221
   65MOL0     C 8692   2.514   4.303   5.193  0.8153 -0.1559 -0.4143
   65MOL0     C 8693   2.405   4.252   5.120 -0.1362  0.3614  0.0825
   65MOL0     C 8694   2.106   3.927   4.970  0.4295  0.5691  0.1192
   65MOL0     C 8695   2.099   3.794   4.924 -0.3527 -1.0998 -0.1008
   65MOL0     C 8696   2.005   3.751   4.826  0.0123 -0.2356 -0.5698
   65MOL0     C 8697   1.907   3.841   4.782 -0.2742  0.1707 -0.8035
   65MOL0     O 8698   1.821   3.820   4.674  0.9655 -0.2791  0.2482
   65MOL0     C 8699   1.797   3.695   4.615  0.5486  0.3589  0.2667
   65MOL0     C 8700   1.709   3.604   4.699  0.1990 -0.0969 -0.7068
   65MOL0     C 8701   1.585   3.670   4.745 -0.0817  0.5332  0.3518
   65MOL0     C 8702   1.490   3.560   4.808 -0.5785 -0.8087  0.2867
   65MOL0     C 8703   1.358   3.617   4.849 -0.6847 -0.3978  0.1401
   65MOL0     C 8704   1.269   3.677   4.905  0.7565  0.5944 -0.2088
   65MOL0     C 8705   1.918   3.975   4.822  0.2239  0.4394  0.1209
   65MOL0     C 8706   2.014   4.018   4.916 -0.1923 -0.5827 -0.2719
   65MOL0     C 8707   2.013   4.164   4.954 -0.6817 -0.1753  0.3293
   65MOL0     H 8708   2.518   3.936   5.074 -0.1868  0.4587 -1.3432
   65MOL0     H 8709   2.702   4.028   5.230  0.7027  2.1967  2.4149
   65MOL0     H 8710   2.774   4.102   5.416 -2.1266  0.1156  1.5773
   65MOL0     H 8711   2.899   4.225   5.364 -0.5602 -1.4272 -0.9347
   65MOL0     H 8712   2.683   4.243   5.587 -0.0632  0.7525  1.8713
   65MOL0     H 8713   2.799   4.359   5.544 -2.8307  0.5605 -1.7736
   65MOL0     H 8714   2.964   4.250   5.645  1.3271 -1.4440  0.4350
   65MOL0     H 8715   2.924   4.097   5.581 -2.3957 -0.9554  0.1831
   65MOL0     H 8716   2.764   4.214   5.824  2.0078  0.8280  2.5950
   65MOL0     H 8717   2.740   4.055   5.739 -0.7278  1.2599 -2.2941
   65MOL0     H 8718   2.850   4.035   5.974  1.6756  2.7591  2.1017
   65MOL0     H 8719   2.922   3.963   5.821  0.9520  2.3602 -3.0156
   65MOL0     H 8720   3.113   4.044   5.931 -1.4038 -3.1136 -2.3793
   65MOL0     H 8721   3.070   4.168   5.814  0.2947  0.3572 -0.3044
   65MOL0     H 8722   3.151   4.248   6.050 -0.9636  0.9528  1.5741
   65MOL0     H 8723   3.017   4.168   6.124 -0.2984 -0.2027  0.2795
   65MOL0     H 8724   2.863   4.317   5.983  0.4122  1.7514 -2.5669
   65MOL0     H 8725   2.951   4.416   6.085  0.5791 -0.4334  0.6774
   65MOL0     H 8726   3.204   4.535   5.995  1.4939  1.9868 -2.3571
   65MOL0     H 8727   3.187   4.776   5.697  0.6658 -3.3014 -3.7907
   65MOL0     H 8728   3.262   4.757   5.868 -0.3846 -1.2645  1.0285
   65MOL0     H 8729   3.405   4.602   5.789 -0.4112  0.1081 -0.2620
   65MOL0     H 8730   3.320   4.563   5.642  0.0085  0.9237 -2.0135
   65MOL0     H 8731   3.406   4.794   5.551 -1.3593  0.1926  1.2144
   65MOL0     H 8732   3.533   4.684   5.609  0.5712  0.6666 -0.0941
   65MOL0     H 8733   3.526   4.837   5.818 -1.0601 -0.8119 -0.3234
   65MOL0     H 8734   3.410   4.939   5.730  0.7062  0.7731 -1.5679
   65MOL0     H 8735   3.790   5.107   5.551 -1.6276  0.4737  0.4851
   65MOL0     H 8736   4.032   5.042   5.554 -0.2853  1.4333  2.3565
   65MOL0     H 8737   4.334   4.723   5.420 -1.0122  0.8226  1.4308
   65MOL0     H 8738   4.558   4.622   5.404  2.1455 -1.9373  0.9512
   65MOL0     H 8739   4.697   4.423   5.756  1.5623  1.7606 -0.6610
   65MOL0     H 8740   4.671   4.268   5.662 -0.6699 -0.1725 -0.9642
   65MOL0     H 8741   4.915   4.317   5.751  0.0699 -0.2727 -0.3586
   65MOL0     H 8742   4.882   4.274   5.582 -1.7648  0.6250 -0.2489
   65MOL0     H 8743   4.914   4.504   5.517 -2.3838 -0.6537  0.3350
   65MOL0     H 8744   4.917   4.560   5.690 -1.3197 -0.7508  0.4421
   65MOL0     H 8745   5.126   4.387   5.558  1.7419  1.2368  1.5098
   65MOL0     H 8746   5.116   4.413   5.738 -2.9523 -1.5434  0.0952
   65MOL0     H 8747   5.148   4.661   5.689 -0.2911 -2.2901  1.8129
   65MOL0     H 8748   5.145   4.631   5.518  2.2674  1.1177 -0.5432
   65MOL0     H 8749   5.373   4.519   5.711  0.1860  1.4685  0.0523
   65MOL0     H 8750   5.348   4.476   5.549 -0.2733  0.1102 -1.1524
   65MOL0     H 8751   5.379   4.765   5.653 -2.8237  0.3022 -1.8784
   65MOL0     H 8752   5.372   4.716   5.485 -1.1934  0.3830 -0.0237
   65MOL0     H 8753   5.573   4.583   5.513 -1.3487  1.1423 -1.7949
   65MOL0     H 8754   5.605   4.758   5.534 -0.4386  1.5451  1.2062
   65MOL0     H 8755   4.486   4.377   5.752  1.7504  2.1460  0.6155
   65MOL0     H 8756   4.249   4.492   5.768 -1.3020 -1.2780 -1.5976
   65MOL0     H 8757   3.929   4.677   5.762 -0.4967  0.7646  2.3591
   65MOL0     H 8758   3.707   4.765   5.779 -0.4863  2.7883  0.6120
   65MOL0     H 8759   2.518   4.410   5.211 -1.0236 -0.0347 -0.5134
   65MOL0     H 8760   2.319   4.312   5.092 -0.0390  0.0762 -0.8871
   65MOL0     H 8761   2.173   3.718   4.948  0.6503 -0.7409 -1.8517
   65MOL0     H 8762   2.025   3.656   4.777  1.4772 -0.2639  0.0303
   65MOL0     H 8763   1.892   3.647   4.590 -0.4133  0.0236 -3.3357
   65MOL0     H 8764   1.754   3.698   4.514  0.9251  1.0185  0.1225
   65MOL0     H 8765   1.772   3.580   4.786 -0.1212  0.3196 -0.3535
   65MOL0     H 8766   1.683   3.519   4.637 -2.0439  0.3102 -0.3862
   65MOL0     H 8767   1.540   3.733   4.668 -2.8216  0.5963  1.9021
   65MOL0     H 8768   1.620   3.750   4.812 -0.5793  2.8581 -1.9880
   65MOL0     H 8769   1.482   3.473   4.743  1.9708 -0.4025 -0.6741
   65MOL0     H 8770   1.551   3.528   4.893 -0.0651 -2.1702 -0.5741
   65MOL0     H 8771   1.180   3.720   4.947 -0.2003 -1.3675 -0.0948
   65MOL0     H 8772   1.840   4.034   4.776 -1.6221 -0.4162  1.9876
   65MOL0     H 8773   1.915   4.203   4.926 -0.1467 -0.3724 -2.0556
   65MOL0     H 8774   2.038   4.173   5.060  0.2146 -1.8092  0.2874
   65MOL0     H 8775   2.089   4.222   4.901 -1.1143 -1.1622 -1.4500
   66MOL0     O 8776   2.085   1.092  10.819  0.8865  0.4483  0.4256
   66MOL0     C 8777   2.080   1.211  10.830 -0.8963  0.4735  0.6661
   66MOL0     O 8778   2.183   1.294  10.796 -0.2787 -0.9690  0.2963
   66MOL0     C 8779   2.296   1.240  10.739  0.3766 -0.9053 -0.2765
   66MOL0     C 8780   2.293   1.217  10.598 -0.3497 -0.2590  0.5589
   66MOL0     C 8781   2.407   1.187  10.530 -0.4164 -1.0236 -0.2896
   66MOL0     C 8782   2.527   1.174  10.595 -0.4647 -0.3985  0.4018
   66MOL0     O 8783   2.637   1.136  10.514 -0.7940 -0.1221 -0.0026
   66MOL0     C 8784   2.765   1.132  10.568  0.2801  0.6852  0.0695
   66MOL0     C 8785   2.863   1.078  10.469 -1.0427 -0.4459 -0.1061
   66MOL0     C 8786   3.002   1.099  10.533  0.6121  0.2798 -0.1574
   66MOL0     C 8787   3.101   1.010  10.468 -0.3203 -0.2602  0.1040
   66MOL0     C 8788   3.230   1.017  10.538 -0.2998 -0.0593 -0.6602
   66MOL0     C 8789   3.340   0.916  10.487  0.1668  0.0562 -0.2048
   66MOL0     C 8790   3.485   0.940  10.556  0.7400  0.8904  0.4447
   66MOL0     C 8791   3.491   0.949  10.709  0.8769  0.5235 -0.4436
   66MOL0     N 8792   3.509   1.084  10.763 -0.1907 -0.1009 -0.0059
   66MOL0     C 8793   3.633   1.122  10.801 -0.5157 -0.1526 -0.7476
   66MOL0     C 8794   3.620   1.253  10.842 -0.1937 -0.3795 -0.3151
   66MOL0     C 8795   3.724   1.346  10.899  0.4453  0.7082  0.5719
   66MOL0     C 8796   3.850   1.278  10.963 -0.0373 -1.1232  0.4599
   66MOL0     C 8797   3.962   1.371  11.015  0.3074  0.4157  0.0375
   66MOL0     C 8798   4.066   1.409  10.902  0.5935  0.3992  0.0142
   66MOL0     O 8799   4.195   1.408  10.972 -0.4806  0.9872 -0.8233
   66MOL0     C 8800   4.310   1.447  10.902  0.0918  0.1215  0.3499
   66MOL0     C 8801   4.433   1.452  10.960 -0.9667  0.2910 -0.0743
   66MOL0     C 8802   4.551   1.495  10.896 -0.6341  0.0801  0.3311
   66MOL0     C 8803   4.550   1.527  10.760 -0.5155  0.1016  0.6937
   66MOL0     C 8804   4.668   1.580  10.685 -0.1757 -0.9002  0.1125
   66MOL0     O 8805   4.795   1.530  10.714 -0.3937  0.2719 -0.4588
   66MOL0     C 8806   4.911   1.569  10.652  0.0424 -0.6426  0.1835
   66MOL0     C 8807   5.026   1.507  10.705 -0.5399  0.5198  0.3504
   66MOL0     C 8808   5.151   1.548  10.657 -0.4846  0.4424  0.0101
   66MOL0     C 8809   5.165   1.642  10.561  0.1066 -0.1148  0.3755
   66MOL0     O 8810   5.289   1.673  10.506  0.3819  0.8117  0.0611
   66MOL0     C 8811   5.394   1.714  10.596 -0.0598  1.3089  0.9336
   66MOL0     C 8812   5.359   1.827  10.688  0.2153  0.2915  0.4718
   66MOL0     C 8813   5.489   1.864  10.765 -0.5524  0.8297 -0.0802
   66MOL0     C 8814   5.461   1.981  10.864  0.0930  0.0555  0.1091
   66MOL0     C 8815   5.393   1.933  10.992 -0.4393  0.1992  0.6546
   66MOL0     C 8816   5.312   2.038  11.060  0.8934  0.1148 -0.4067
   66MOL0     C 8817   5.388   2.158  11.097  0.1752  0.1958 -0.1931
   66MOL0     C 8818   5.309   2.253  11.190  0.1093  0.1658 -0.3945
   66MOL0    Cl 8819   5.198   2.347  11.089  0.1144 -0.0049  0.0498
   66MOL0     C 8820   5.051   1.689  10.497  0.7917 -0.0878  0.5305
   66MOL0     C 8821   4.920   1.659  10.547 -0.4017  0.2054  0.2412
   66MOL0     O 8822   4.649   1.665  10.596 -0.6443  0.5606 -0.1602
   66MOL0     C 8823   4.428   1.514  10.694  1.0681  0.1699 -0.4232
   66MOL0     C 8824   4.306   1.482  10.764  0.0995 -0.0174 -0.7102
   66MOL0     N 8825   3.490   1.289  10.819 -0.1735  0.4485 -0.1075
   66MOL0     N 8826   3.425   1.192  10.770 -0.4401 -0.8764 -0.0476
   66MOL0     C 8827   2.535   1.192  10.734 -0.3985  0.1836  0.4303
   66MOL0     C 8828   2.420   1.236  10.806  0.8249  0.3414  0.0390
   66MOL0     C 8829   1.963   1.273  10.893  0.6476 -0.1432  0.2494
   66MOL0     C 8830   1.964   1.418  10.901  0.0354  0.4137 -0.2419
   66MOL0     C 8831   1.850   1.493  10.956  0.4091 -0.2707 -0.1275
   66MOL0     C 8832   1.737   1.417  11.006 -0.4343  0.1970 -1.0091
   66MOL0     O 8833   1.632   1.466  11.082 -0.3053 -0.6541  0.5701
   66MOL0     C 8834   1.594   1.602  11.047 -0.3355  0.9477 -0.5588
   66MOL0     C 8835   1.478   1.652  11.139  0.3934 -0.1968  0.2169
   66MOL0     C 8836   1.352   1.580  11.113 -0.2400  0.0591 -0.3696
   66MOL0     C 8837   1.233   1.628  11.184 -0.3309 -0.1754  0.6141
   66MOL0     C 8838   1.111   1.578  11.117  0.3044 -0.2286 -0.2014
   66MOL0     C 8839   1.015   1.521  11.074 -1.0490  0.0600  0.7978
   66MOL0     C 8840   1.740   1.277  10.989 -0.2347  0.0393  0.1877
   66MOL0     C 8841   1.845   1.202  10.936  0.0918  0.1360 -0.1250
   66MOL0     C 8842   1.839   1.051  10.932  0.5700  0.8678 -0.6055
   66MOL0     H 8843   2.202   1.221  10.538  0.0122 -3.4261 -0.3980
   66MOL0     H 8844   2.401   1.184  10.422 -1.3012  2.0464 -0.4179
   66MOL0     H 8845   2.811   1.226  10.598  3.1402  0.4866 -3.0134
   66MOL0     H 8846   2.756   1.057  10.647 -4.2124  1.7752  0.8925
   66MOL0     H 8847   2.844   1.120  10.370 -0.2321  0.6074  0.1731
   66MOL0     H 8848   2.858   0.969  10.457  2.7546 -1.2934  3.5989
   66MOL0     H 8849   2.996   1.079  10.640 -2.4937  2.8456  0.2881
   66MOL0     H 8850   3.034   1.202  10.517  1.5020  0.3212  1.6488
   66MOL0     H 8851   3.062   0.908  10.468 -1.3981  0.1398 -0.9262
   66MOL0     H 8852   3.116   1.032  10.362 -0.2756 -0.6181  0.0343
   66MOL0     H 8853   3.269   1.119  10.529 -2.0159  1.0437  2.7708
   66MOL0     H 8854   3.215   1.003  10.645 -0.0096 -0.4373 -0.6690
   66MOL0     H 8855   3.298   0.816  10.495  2.4968 -0.9089  0.7268
   66MOL0     H 8856   3.337   0.946  10.381  1.5459  1.5711  0.1406
   66MOL0     H 8857   3.543   1.024  10.515 -0.0231  2.6292  2.7489
   66MOL0     H 8858   3.539   0.851  10.522  0.0667  1.0456 -1.1495
   66MOL0     H 8859   3.410   0.893  10.756  1.6612 -1.2679 -1.1304
   66MOL0     H 8860   3.576   0.886  10.738 -0.3067  0.0091  2.2560
   66MOL0     H 8861   3.714   1.050  10.805 -1.4733 -1.2486 -0.4792
   66MOL0     H 8862   3.751   1.412  10.816 -1.3838  0.9866  0.1650
   66MOL0     H 8863   3.681   1.413  10.973 -0.1118  1.0502 -0.0488
   66MOL0     H 8864   3.812   1.216  11.045 -0.4930 -1.8764 -0.3057
   66MOL0     H 8865   3.883   1.217  10.878 -2.1820  1.1172 -2.1630
   66MOL0     H 8866   4.010   1.314  11.095 -1.1568 -1.6133 -0.4436
   66MOL0     H 8867   3.917   1.456  11.066  0.8169  0.7705 -0.0978
   66MOL0     H 8868   4.044   1.505  10.855  3.0956  0.6454 -0.8267
   66MOL0     H 8869   4.064   1.334  10.823  0.0755 -0.6229  0.9648
   66MOL0     H 8870   4.432   1.443  11.068 -1.2157  2.5850  0.1649
   66MOL0     H 8871   4.639   1.516  10.957  1.0876 -0.9276 -1.6950
   66MOL0     H 8872   5.022   1.430  10.781 -0.8136 -1.5110 -1.6189
   66MOL0     H 8873   5.246   1.503  10.683 -0.2433  0.1223 -1.3434
   66MOL0     H 8874   5.433   1.624  10.644 -2.2331  0.4534  1.1730
   66MOL0     H 8875   5.475   1.753  10.534 -0.3376 -0.0794 -0.3599
   66MOL0     H 8876   5.324   1.915  10.634 -1.0503 -0.3264  0.2560
   66MOL0     H 8877   5.282   1.804  10.762  0.1503  0.7931  0.5634
   66MOL0     H 8878   5.521   1.777  10.823 -1.7358  0.8929  0.7097
   66MOL0     H 8879   5.564   1.897  10.693 -1.8306  0.5832 -1.5929
   66MOL0     H 8880   5.384   2.045  10.821 -0.4902  0.4055  1.6300
   66MOL0     H 8881   5.553   2.035  10.888 -0.3401  0.5377  0.6924
   66MOL0     H 8882   5.475   1.892  11.052 -0.2829 -2.4683 -1.2133
   66MOL0     H 8883   5.334   1.843  10.974  0.8723 -0.7793  1.0613
   66MOL0     H 8884   5.226   2.071  11.001  1.9805  0.4104 -1.8903
   66MOL0     H 8885   5.269   1.994  11.151 -0.8400  0.3553 -1.0617
   66MOL0     H 8886   5.402   2.211  11.002  1.4401 -3.8838 -2.5495
   66MOL0     H 8887   5.483   2.138  11.147 -0.4686 -0.8986  0.6197
   66MOL0     H 8888   5.256   2.193  11.265  1.3600 -0.1716  0.2489
   66MOL0     H 8889   5.388   2.312  11.236 -0.1353  1.4067 -1.5114
   66MOL0     H 8890   5.078   1.740  10.405  0.7430  0.6913  0.9368
   66MOL0     H 8891   4.841   1.709  10.493 -1.4827 -1.6128  0.0890
   66MOL0     H 8892   4.429   1.530  10.587  0.5693  1.5113 -0.2488
   66MOL0     H 8893   4.214   1.480  10.706 -1.8613  2.6310  2.0012
   66MOL0     H 8894   2.627   1.206  10.788  0.0741  2.0946 -0.7571
   66MOL0     H 8895   2.426   1.257  10.913 -0.7002  2.9237 -0.3164
   66MOL0     H 8896   2.047   1.474  10.858  1.0290  0.6613  1.8777
   66MOL0     H 8897   1.840   1.600  10.964  2.8999 -0.1073  3.3620
   66MOL0     H 8898   1.575   1.617  10.940 -1.2714  4.1705 -0.0456
   66MOL0     H 8899   1.676   1.671  11.066 -0.5454  1.3744 -1.1699
   66MOL0     H 8900   1.459   1.757  11.119 -2.8846 -0.8902 -0.9371
   66MOL0     H 8901   1.510   1.635  11.243 -0.7196  0.4426  0.6855
   66MOL0     H 8902   1.354   1.472  11.131  0.2822 -0.0399 -0.9765
   66MOL0     H 8903   1.335   1.596  11.006 -2.4524  0.5694 -0.0073
   66MOL0     H 8904   1.242   1.593  11.287 -1.0301  0.2053  0.8113
   66MOL0     H 8905   1.235   1.737  11.173  1.2380 -0.1220  1.1552
   66MOL0     H 8906   0.929   1.471  11.036 -2.3588  0.8878  2.5233
   66MOL0     H 8907   1.656   1.222  11.031 -0.9025  1.6167  0.9915
   66MOL0     H 8908   1.925   1.010  10.987  0.2670 -0.6320 -1.2050
   66MOL0     H 8909   1.753   1.028  10.995  3.6445 -0.3997  3.5633
   66MOL0     H 8910   1.836   1.016  10.828 -1.2510  2.2446 -1.0594
   67MOL0     O 8911   2.135   8.974   2.877  0.2056  0.4471  0.4865
   67MOL0     C 8912   2.190   8.898   2.959  0.0587  0.1770  0.4411
   67MOL0     O 8913   2.118   8.836   3.061 -0.0420 -0.3157 -0.3017
   67MOL0     C 8914   1.991   8.881   3.090  0.3618 -0.6074  0.1213
   67MOL0     C 8915   1.945   9.009   3.081  0.3037 -0.7900  0.3730
   67MOL0     C 8916   1.811   9.041   3.121 -0.4126  0.8918 -0.0333
   67MOL0     C 8917   1.717   8.950   3.164  0.3605 -0.0244  0.1176
   67MOL0     O 8918   1.584   8.992   3.189 -0.5975 -0.0417 -0.7148
   67MOL0     C 8919   1.514   8.920   3.294 -0.2864 -0.1267  0.0389
   67MOL0     C 8920   1.388   8.983   3.333  1.0256 -0.1248 -0.2776
   67MOL0     C 8921   1.317   8.914   3.455  0.0247 -0.2036 -0.4966
   67MOL0     C 8922   1.322   8.763   3.467 -0.5024  0.8313  0.3334
   67MOL0     C 8923   1.256   8.714   3.601 -0.1542 -0.0576  0.9309
   67MOL0     C 8924   1.285   8.563   3.620  0.5160  0.1437 -0.6233
   67MOL0     C 8925   1.233   8.519   3.765 -0.0663  1.1012  0.2908
   67MOL0     C 8926   1.220   8.369   3.780 -0.3862 -1.0745 -0.6238
   67MOL0     N 8927   1.352   8.293   3.784  0.4111  0.4332 -0.2209
   67MOL0     C 8928   1.455   8.307   3.879  0.3495 -0.2125  0.2393
   67MOL0     C 8929   1.549   8.214   3.854 -0.7301  0.3905  0.2933
   67MOL0     C 8930   1.678   8.189   3.929 -0.5411  0.1216  0.0926
   67MOL0     C 8931   1.803   8.202   3.833  0.6818  0.2706 -0.0125
   67MOL0     C 8932   1.879   8.327   3.872 -0.0559  0.3543 -0.8340
   67MOL0     C 8933   2.018   8.327   3.813  0.8534  0.0572  0.2379
   67MOL0     O 8934   2.078   8.451   3.866 -0.7176 -0.0719  0.7500
   67MOL0     C 8935   2.193   8.478   3.793  0.1044 -0.2486  0.0661
   67MOL0     C 8936   2.300   8.387   3.811  0.0100  0.7023  0.2298
   67MOL0     C 8937   2.429   8.416   3.767 -0.0010  0.1509  0.1390
   67MOL0     C 8938   2.447   8.534   3.697 -0.5290  0.7830 -0.3908
   67MOL0     C 8939   2.583   8.574   3.652  0.0689  0.0059 -0.4622
   67MOL0     O 8940   2.688   8.518   3.712  0.9099 -0.5867 -0.0668
   67MOL0     C 8941   2.811   8.538   3.656  0.1257  0.8214 -0.2807
   67MOL0     C 8942   2.875   8.664   3.687 -0.6599 -0.2660 -0.1036
   67MOL0     C 8943   3.000   8.697   3.622 -0.2050 -0.4526 -0.6139
   67MOL0     C 8944   3.056   8.606   3.534  0.0614  0.6551  0.1925
   67MOL0     O 8945   3.185   8.624   3.479 -0.2514 -0.2206  0.7777
   67MOL0     C 8946   3.261   8.738   3.502 -0.7377 -0.4398  0.6313
   67MOL0     C 8947   3.389   8.730   3.408 -0.5207 -0.2301 -0.3645
   67MOL0     C 8948   3.364   8.701   3.263  0.5278 -0.7291 -0.2533
   67MOL0     C 8949   3.498   8.704   3.183 -0.7197 -0.1133 -0.5843
   67MOL0     C 8950   3.475   8.685   3.032  0.4708  0.3225  0.3362
   67MOL0     C 8951   3.425   8.817   2.971 -0.4660 -0.1164  0.3388
   67MOL0     C 8952   3.400   8.796   2.822 -0.0494  0.1080 -0.0418
   67MOL0     C 8953   3.393   8.928   2.745  0.1216  0.1513 -0.1382
   67MOL0    Cl 8954   3.527   9.042   2.780 -0.5347 -0.2825 -0.2184
   67MOL0     C 8955   3.003   8.480   3.516 -0.1273  0.9273  0.7947
   67MOL0     C 8956   2.877   8.446   3.574 -0.4699  0.2914 -0.2053
   67MOL0     O 8957   2.599   8.669   3.567  0.3069  0.1390 -0.2176
   67MOL0     C 8958   2.342   8.614   3.671 -0.1076  0.4966  0.8076
   67MOL0     C 8959   2.208   8.587   3.710 -0.3309 -0.3330 -1.5085
   67MOL0     N 8960   1.504   8.147   3.738  0.3686 -0.7014 -0.8826
   67MOL0     N 8961   1.383   8.185   3.705  0.1970 -0.2572  0.3703
   67MOL0     C 8962   1.761   8.819   3.185  0.3534 -0.4460 -0.0058
   67MOL0     C 8963   1.897   8.790   3.157  0.0553  0.0532  1.1094
   67MOL0     C 8964   2.326   8.864   2.966  0.2479 -0.1471  0.8889
   67MOL0     C 8965   2.367   8.777   3.077  0.0035  0.0200  0.4390
   67MOL0     C 8966   2.504   8.765   3.105 -0.1444  0.7832  0.3601
   67MOL0     C 8967   2.602   8.809   3.020  0.4675 -0.8894 -0.1042
   67MOL0     O 8968   2.735   8.774   3.051  0.1609 -0.0997 -0.1736
   67MOL0     C 8969   2.827   8.883   3.041 -0.0079  0.1610 -1.0208
   67MOL0     C 8970   2.951   8.863   3.120  0.0192  0.1145  0.5970
   67MOL0     C 8971   2.947   8.780   3.254  0.4392  0.0382  0.4394
   67MOL0     C 8972   2.826   8.833   3.348 -0.4717  0.4703  0.3166
   67MOL0     C 8973   2.845   8.980   3.373 -0.5106  0.4759  0.1188
   67MOL0     C 8974   2.858   9.092   3.413  0.2511 -0.7358  0.2600
   67MOL0     C 8975   2.566   8.891   2.903  0.2357 -0.3001  0.0152
   67MOL0     C 8976   2.429   8.913   2.880  0.2578 -0.4646  0.6126
   67MOL0     C 8977   2.391   9.006   2.768 -0.0162  0.4562 -0.5934
   67MOL0     H 8978   2.005   9.089   3.037  1.1578 -3.2734 -3.5197
   67MOL0     H 8979   1.776   9.141   3.099 -0.4425  0.6760 -1.0022
   67MOL0     H 8980   1.490   8.820   3.256 -0.4180  0.6376 -2.0065
   67MOL0     H 8981   1.577   8.909   3.383 -0.0145 -1.1927 -0.2753
   67MOL0     H 8982   1.315   8.974   3.251 -0.8943 -2.1314  1.5125
   67MOL0     H 8983   1.394   9.082   3.380  0.9198 -1.1558  2.0329
   67MOL0     H 8984   1.210   8.934   3.445  0.3955  1.2157 -1.9857
   67MOL0     H 8985   1.356   8.954   3.548 -0.1848  1.1198 -0.9611
   67MOL0     H 8986   1.266   8.714   3.387  0.1164  1.5081 -0.5306
   67MOL0     H 8987   1.427   8.735   3.473 -0.5197  0.5842 -0.4536
   67MOL0     H 8988   1.293   8.776   3.682  0.1038 -1.5040  1.9668
   67MOL0     H 8989   1.148   8.727   3.599  0.0891  2.5133  1.5283
   67MOL0     H 8990   1.240   8.504   3.540 -1.6426  0.2715  0.4255
   67MOL0     H 8991   1.394   8.556   3.624  0.5334  0.8598  1.6480
   67MOL0     H 8992   1.140   8.576   3.769  0.2430  1.6669 -0.2685
   67MOL0     H 8993   1.301   8.552   3.844  2.4687 -3.3402  0.2833
   67MOL0     H 8994   1.166   8.346   3.873  0.3989  1.6950  0.6157
   67MOL0     H 8995   1.155   8.332   3.701 -0.7360  1.5160 -1.6471
   67MOL0     H 8996   1.466   8.363   3.972  0.5986 -0.1385  0.1679
   67MOL0     H 8997   1.673   8.262   4.010 -0.3767  1.5778 -1.1665
   67MOL0     H 8998   1.666   8.088   3.970 -0.4698  0.4240  0.8765
   67MOL0     H 8999   1.856   8.106   3.833 -0.8314 -0.6059  0.8640
   67MOL0     H 9000   1.773   8.215   3.729  3.7102  0.3749 -0.9742
   67MOL0     H 9001   1.880   8.341   3.980 -0.5029  2.3599 -1.0456
   67MOL0     H 9002   1.829   8.418   3.836 -1.8984  0.0664  0.8368
   67MOL0     H 9003   1.998   8.329   3.706  1.0155  0.2397  0.2103
   67MOL0     H 9004   2.073   8.234   3.831 -1.2001 -1.4150 -0.7777
   67MOL0     H 9005   2.289   8.296   3.868  0.0547 -0.8213 -2.0530
   67MOL0     H 9006   2.511   8.351   3.793  1.0613 -0.0750 -3.2153
   67MOL0     H 9007   2.811   8.725   3.750 -0.4699 -2.0476  1.9329
   67MOL0     H 9008   3.047   8.792   3.646  1.2046 -0.7462 -2.0031
   67MOL0     H 9009   3.206   8.828   3.474  1.4120  1.9582  3.5223
   67MOL0     H 9010   3.282   8.747   3.609 -0.7831 -1.5956  0.7492
   67MOL0     H 9011   3.426   8.833   3.416 -1.1420 -0.1665  2.7522
   67MOL0     H 9012   3.459   8.664   3.460 -0.9338 -0.7137 -0.4202
   67MOL0     H 9013   3.313   8.604   3.259  1.4300 -1.1965 -0.7665
   67MOL0     H 9014   3.301   8.784   3.229  1.6444  0.6137  0.8678
   67MOL0     H 9015   3.557   8.623   3.227 -2.1994  0.6682  3.2704
   67MOL0     H 9016   3.548   8.800   3.200  0.0817 -0.6214  0.0098
   67MOL0     H 9017   3.403   8.609   3.002  0.2012  0.3146  0.9830
   67MOL0     H 9018   3.567   8.654   2.983  0.7146 -1.7426  1.9644
   67MOL0     H 9019   3.338   8.858   3.023  2.2800  0.7502  4.7365
   67MOL0     H 9020   3.504   8.890   2.991 -1.0682  0.3962  0.8890
   67MOL0     H 9021   3.313   8.732   2.805 -0.3083  0.2064  0.8297
   67MOL0     H 9022   3.488   8.753   2.774 -0.3042  0.4751 -0.8470
   67MOL0     H 9023   3.395   8.900   2.640  1.8138 -0.0730 -0.0616
   67MOL0     H 9024   3.296   8.975   2.767  0.2722  2.0664 -3.1200
   67MOL0     H 9025   3.054   8.413   3.448 -0.8323  2.3997 -1.3056
   67MOL0     H 9026   2.840   8.344   3.564  0.2684  0.1112 -1.2373
   67MOL0     H 9027   2.365   8.699   3.608 -2.4121  0.5327 -0.0749
   67MOL0     H 9028   2.122   8.652   3.698  0.1668  0.7199  0.1892
   67MOL0     H 9029   1.697   8.739   3.221  0.6280 -1.0383 -0.7924
   67MOL0     H 9030   1.941   8.691   3.156  1.0901  0.4918  1.6960
   67MOL0     H 9031   2.301   8.726   3.146 -0.8719  0.4247 -0.0804
   67MOL0     H 9032   2.546   8.712   3.189  3.1792 -0.5221 -1.9281
   67MOL0     H 9033   2.785   8.979   3.073 -0.3153 -0.0252 -0.8615
   67MOL0     H 9034   2.852   8.888   2.934  0.5749 -3.7224 -1.2277
   67MOL0     H 9035   2.996   8.962   3.135 -0.6602  0.2986  1.4836
   67MOL0     H 9036   3.022   8.809   3.056  0.3098 -0.8038  1.6662
   67MOL0     H 9037   3.039   8.793   3.312 -0.1304  1.7418  1.0187
   67MOL0     H 9038   2.942   8.673   3.231 -1.4970 -0.0624  1.1887
   67MOL0     H 9039   2.729   8.823   3.298  0.7739 -1.1263 -1.9996
   67MOL0     H 9040   2.823   8.765   3.434 -1.6533 -1.4346 -1.1511
   67MOL0     H 9041   2.872   9.193   3.448  2.0253 -1.0838  0.6192
   67MOL0     H 9042   2.640   8.922   2.831  1.1116 -1.5669  0.3323
   67MOL0     H 9043   2.326   8.956   2.696 -1.9422 -1.0434  1.9995
   67MOL0     H 9044   2.345   9.092   2.816  1.5843  0.3186  1.3418
   67MOL0     H 9045   2.476   9.047   2.712 -1.6175  1.7375 -2.2052
   68MOL0     O 9046   1.235   0.819   4.008  0.5125  0.7644 -0.2810
   68MOL0     C 9047   1.191   0.816   4.118  0.6557 -0.1616  0.5599
   68MOL0     O 9048   1.269   0.773   4.227 -0.1791 -0.3974 -1.1298
   68MOL0     C 9049   1.407   0.753   4.211  0.1138  0.6140 -0.1046
   68MOL0     C 9050   1.469   0.667   4.112  0.7830 -0.3325 -0.2056
   68MOL0     C 9051   1.609   0.650   4.103 -0.1391  0.1971 -0.2357
   68MOL0     C 9052   1.694   0.704   4.201  0.8157 -0.2612  0.2132
   68MOL0     O 9053   1.828   0.690   4.182  0.0037  0.1364  0.3944
   68MOL0     C 9054   1.922   0.783   4.247  0.7350  0.0841  0.4980
   68MOL0     C 9055   2.058   0.806   4.181  0.2096 -0.2674  0.6729
   68MOL0     C 9056   2.171   0.861   4.275 -0.2267  0.3772 -0.2641
   68MOL0     C 9057   2.289   0.894   4.193 -0.7037  0.2845 -1.4021
   68MOL0     C 9058   2.397   0.962   4.279 -0.4607 -0.8179 -0.0426
   68MOL0     C 9059   2.507   0.994   4.181 -0.3200  0.5400 -0.8290
   68MOL0     C 9060   2.625   1.064   4.250  0.0179  0.2251  0.1931
   68MOL0     C 9061   2.748   1.071   4.158 -0.5060 -0.0482 -0.5426
   68MOL0     N 9062   2.845   1.167   4.213  0.0025 -0.4236  0.0237
   68MOL0     C 9063   2.852   1.305   4.208 -0.1845  0.0720 -0.3160
   68MOL0     C 9064   2.968   1.333   4.269  0.8036 -0.1014 -0.1516
   68MOL0     C 9065   3.018   1.477   4.290  0.2483 -0.1486 -0.2934
   68MOL0     C 9066   3.160   1.495   4.236  1.1706  0.1398  0.3221
   68MOL0     C 9067   3.234   1.624   4.297 -0.1301  1.3744  0.2806
   68MOL0     C 9068   3.382   1.631   4.247 -0.6126  0.2392 -0.2700
   68MOL0     O 9069   3.431   1.755   4.296  0.3970  0.4316 -0.3222
   68MOL0     C 9070   3.564   1.744   4.335 -0.9299 -0.3034  0.2870
   68MOL0     C 9071   3.607   1.729   4.472  0.9390  0.3195  0.1328
   68MOL0     C 9072   3.740   1.759   4.498  0.3920  0.8065  0.1389
   68MOL0     C 9073   3.835   1.780   4.396  0.2825  0.3746 -0.5945
   68MOL0     C 9074   3.978   1.799   4.441 -0.2722  0.2901  0.3386
   68MOL0     O 9075   4.023   1.771   4.570  0.2816 -0.1641 -0.4505
   68MOL0     C 9076   4.157   1.789   4.590 -1.0166 -0.1451 -0.6944
   68MOL0     C 9077   4.218   1.694   4.675  0.4528  0.3798 -1.0488
   68MOL0     C 9078   4.349   1.700   4.706  0.2183  0.0909 -0.2308
   68MOL0     C 9079   4.431   1.795   4.657  0.6615  0.6606 -0.0266
   68MOL0     O 9080   4.562   1.772   4.680  0.1979  0.4995 -0.1748
   68MOL0     C 9081   4.660   1.847   4.600  0.2014  0.9428  0.0218
   68MOL0     C 9082   4.797   1.791   4.623  0.5501  0.4176  0.0393
   68MOL0     C 9083   4.910   1.847   4.532 -0.0686 -0.1849  0.2058
   68MOL0     C 9084   5.043   1.783   4.571 -0.3288 -0.3324 -0.0519
   68MOL0     C 9085   5.154   1.814   4.467 -0.3128 -0.0464 -0.1321
   68MOL0     C 9086   5.297   1.751   4.491  0.7201 -0.4889 -0.4152
   68MOL0     C 9087   5.375   1.846   4.584 -0.5640  0.3864  0.1118
   68MOL0     C 9088   5.424   1.971   4.508 -0.3001 -0.1807 -0.3285
   68MOL0    Cl 9089   5.556   2.046   4.604  0.4516  0.0549  0.1398
   68MOL0     C 9090   4.374   1.900   4.586  0.5238  0.2998  0.4664
   68MOL0     C 9091   4.234   1.899   4.556  1.0267 -0.8422 -0.1457
   68MOL0     O 9092   4.050   1.847   4.346  0.4008 -0.1878 -0.3313
   68MOL0     C 9093   3.793   1.795   4.265 -0.8637  0.2902  0.3907
   68MOL0     C 9094   3.661   1.779   4.235  0.5228  0.1747 -0.5079
   68MOL0     N 9095   3.027   1.213   4.312 -0.4319  0.2886  0.1712
   68MOL0     N 9096   2.952   1.119   4.267 -0.0758  0.5350 -0.0753
   68MOL0     C 9097   1.623   0.788   4.304  0.1885  0.2619  0.0674
   68MOL0     C 9098   1.487   0.807   4.307  0.6862 -0.2096 -0.1215
   68MOL0     C 9099   1.054   0.861   4.131  0.7402 -0.4650  0.8605
   68MOL0     C 9100   1.014   0.904   4.256 -0.1549  0.3844 -0.0157
   68MOL0     C 9101   0.883   0.942   4.284  0.5474  0.5474 -0.3299
   68MOL0     C 9102   0.791   0.953   4.188  0.2463  0.1070 -0.2197
   68MOL0     O 9103   0.659   0.974   4.217  0.7793  0.4612  0.0798
   68MOL0     C 9104   0.593   0.864   4.283  0.6696  0.1334  0.1984
   68MOL0     C 9105   0.467   0.819   4.208 -0.7852  0.0731  0.1934
   68MOL0     C 9106   0.385   0.944   4.180  0.7081 -0.1188 -0.0292
   68MOL0     C 9107   0.243   0.903   4.136  0.1012  0.0717 -0.1438
   68MOL0     C 9108   0.144   1.014   4.128 -0.1860  0.0440 -0.3013
   68MOL0     C 9109   0.068   1.108   4.127 -0.4775  0.4604  0.1253
   68MOL0     C 9110   0.838   0.941   4.063  0.8101  0.3823 -0.1300
   68MOL0     C 9111   0.959   0.882   4.030  0.6552  0.1723 -0.4179
   68MOL0     C 9112   0.973   0.829   3.895 -0.5026 -0.2163  0.0846
   68MOL0     H 9113   1.414   0.620   4.031  1.8238 -2.4914  0.2388
   68MOL0     H 9114   1.665   0.596   4.028  2.8790  2.3537  0.2694
   68MOL0     H 9115   1.879   0.883   4.256  4.0272  1.4910  2.6904
   68MOL0     H 9116   1.933   0.742   4.348 -1.7273 -0.8440  0.4456
   68MOL0     H 9117   2.048   0.882   4.103 -1.6880  1.5894  2.6048
   68MOL0     H 9118   2.094   0.717   4.128  2.0395  2.1372 -2.4959
   68MOL0     H 9119   2.196   0.786   4.349  1.3242  2.3061  1.2885
   68MOL0     H 9120   2.133   0.949   4.328  0.9603  1.1584 -0.6465
   68MOL0     H 9121   2.334   0.807   4.144 -0.9857  0.5491 -2.1382
   68MOL0     H 9122   2.257   0.967   4.118 -3.9873 -0.0315 -0.4458
   68MOL0     H 9123   2.370   1.063   4.313  1.5558 -0.2370 -0.0559
   68MOL0     H 9124   2.439   0.900   4.359  1.8858 -0.1577 -0.6878
   68MOL0     H 9125   2.540   0.896   4.144  0.4475  0.8743 -1.0527
   68MOL0     H 9126   2.477   1.056   4.096  0.2219  0.9443 -0.7287
   68MOL0     H 9127   2.652   1.010   4.341 -3.7115 -0.6548  0.9441
   68MOL0     H 9128   2.592   1.163   4.283 -1.2686 -0.1706  0.1204
   68MOL0     H 9129   2.798   0.974   4.151  2.6258  1.5836 -3.9476
   68MOL0     H 9130   2.706   1.102   4.062  3.4990  3.1577 -1.5221
   68MOL0     H 9131   2.786   1.372   4.155  0.8053  1.6055  0.3409
   68MOL0     H 9132   2.957   1.550   4.237 -1.6772  0.2822  2.3253
   68MOL0     H 9133   3.001   1.499   4.396  0.3599  0.8944 -0.4871
   68MOL0     H 9134   3.214   1.405   4.265  3.4296  0.7885 -1.5703
   68MOL0     H 9135   3.153   1.498   4.127 -1.0571  0.4298  0.4127
   68MOL0     H 9136   3.220   1.618   4.406 -1.9380  3.3528  0.2298
   68MOL0     H 9137   3.184   1.715   4.263 -2.0315  0.4703  0.4945
   68MOL0     H 9138   3.386   1.624   4.138  0.6276  3.0595 -0.4861
   68MOL0     H 9139   3.433   1.544   4.288  0.1572  0.7180 -0.2037
   68MOL0     H 9140   3.530   1.700   4.543 -2.9493  0.4963 -3.5331
   68MOL0     H 9141   3.774   1.757   4.602  2.4140  0.1533 -0.4960
   68MOL0     H 9142   4.168   1.603   4.704  0.8083  0.9852  1.7599
   68MOL0     H 9143   4.407   1.625   4.759  3.6700  1.6897 -1.5050
   68MOL0     H 9144   4.641   1.826   4.495  0.8715 -0.1814  0.1137
   68MOL0     H 9145   4.657   1.955   4.615 -0.7765  0.6064  2.9020
   68MOL0     H 9146   4.829   1.833   4.719  0.8079  3.2225 -1.2071
   68MOL0     H 9147   4.795   1.682   4.631  0.4398  0.4029 -0.1657
   68MOL0     H 9148   4.887   1.840   4.426 -1.1794  0.1580  0.4067
   68MOL0     H 9149   4.898   1.954   4.554 -2.9091 -0.2812 -0.5488
   68MOL0     H 9150   5.027   1.675   4.579 -0.4453 -0.2337  1.4015
   68MOL0     H 9151   5.077   1.820   4.668  3.0664 -2.6014 -0.2190
   68MOL0     H 9152   5.164   1.922   4.453  0.0026 -0.2075 -1.3523
   68MOL0     H 9153   5.120   1.772   4.372 -0.1486  0.6843 -0.5195
   68MOL0     H 9154   5.285   1.652   4.534  2.2810 -0.8585 -0.7666
   68MOL0     H 9155   5.350   1.731   4.398 -0.6472 -1.2223 -1.0775
   68MOL0     H 9156   5.468   1.804   4.622 -1.1929 -2.7468 -1.5000
   68MOL0     H 9157   5.313   1.877   4.669 -1.3684 -0.6929 -0.0644
   68MOL0     H 9158   5.463   1.944   4.409  3.9235  0.1590  1.0345
   68MOL0     H 9159   5.350   2.046   4.481  0.2466  0.0717 -1.1984
   68MOL0     H 9160   4.434   1.982   4.549 -0.5882  0.7745 -0.3209
   68MOL0     H 9161   4.191   1.988   4.511  3.5945  1.2483  1.2473
   68MOL0     H 9162   3.872   1.814   4.193 -1.5048  3.1895  0.3229
   68MOL0     H 9163   3.629   1.796   4.133  0.4607  0.1449 -0.4934
   68MOL0     H 9164   1.688   0.831   4.379  0.1305  1.8393 -0.7542
   68MOL0     H 9165   1.449   0.869   4.387 -0.7790 -1.9308  0.5861
   68MOL0     H 9166   1.084   0.876   4.335 -2.2935 -1.6115  1.2935
   68MOL0     H 9167   0.861   0.967   4.388  1.3784 -0.2446  0.0479
   68MOL0     H 9168   0.566   0.884   4.387  0.4472 -0.4206  0.2510
   68MOL0     H 9169   0.653   0.773   4.271  2.0473  1.0807 -0.3215
   68MOL0     H 9170   0.423   0.750   4.280 -0.4372  0.6458  0.9628
   68MOL0     H 9171   0.487   0.768   4.113 -1.3049  0.7055 -0.2680
   68MOL0     H 9172   0.432   1.003   4.101 -0.5767  0.6184 -0.2750
   68MOL0     H 9173   0.379   0.998   4.275  1.4229 -0.2640  0.1077
   68MOL0     H 9174   0.277   0.873   4.036  1.4894 -0.1641  0.3786
   68MOL0     H 9175   0.199   0.817   4.187 -3.5216  1.5729 -0.4509
   68MOL0     H 9176  -0.010   1.181   4.117 -1.6518 -0.9697 -1.8944
   68MOL0     H 9177   0.761   0.951   3.988  1.6112  0.9490 -0.8950
   68MOL0     H 9178   0.877   0.797   3.854  0.0706  1.1905 -2.5621
   68MOL0     H 9179   1.011   0.904   3.826 -1.1408  0.1089  0.0843
   68MOL0     H 9180   1.040   0.742   3.891 -0.6114 -0.2874 -0.2139
   69MOL0     O 9181   0.902   9.356   3.296 -0.4831 -0.3971  0.1859
   69MOL0     C 9182   0.952   9.297   3.202  0.3245 -0.4324 -0.3424
   69MOL0     O 9183   1.002   9.363   3.087  0.9340 -0.8615  0.1265
   69MOL0     C 9184   1.001   9.497   3.082  0.2644  0.5985 -0.7750
   69MOL0     C 9185   1.107   9.586   3.110  0.5897  0.6341  0.1002
   69MOL0     C 9186   1.094   9.726   3.105  0.4334  0.0012  0.6619
   69MOL0     C 9187   0.966   9.779   3.098 -0.3628  0.0351  0.3396
   69MOL0     O 9188   0.931   9.913   3.115  0.3167 -0.1112  1.1859
   69MOL0     C 9189   1.023  10.002   3.044  0.4740 -0.0123  0.6251
   69MOL0     C 9190   1.117  10.069   3.137  0.5518 -0.3502 -0.4299
   69MOL0     C 9191   1.042  10.184   3.200 -0.1903 -0.1449  0.5952
   69MOL0     C 9192   1.125  10.236   3.319 -0.0973  0.4552  0.9077
   69MOL0     C 9193   1.028  10.302   3.423 -0.3169 -0.3699 -0.2562
   69MOL0     C 9194   0.941  10.425   3.374  0.9361  0.1719  0.8674
   69MOL0     C 9195   1.026  10.531   3.312 -0.5893  0.1368 -0.2839
   69MOL0     C 9196   1.130  10.594   3.405 -0.1573 -0.5544  0.2290
   69MOL0     N 9197   1.163  10.734   3.364  0.8966  0.5910 -0.9983
   69MOL0     C 9198   1.199  10.773   3.238  0.0131 -0.5676 -0.0255
   69MOL0     C 9199   1.215  10.907   3.253 -0.7328 -0.1242  0.2153
   69MOL0     C 9200   1.255  11.007   3.139 -0.1987  0.5912 -1.1575
   69MOL0     C 9201   1.133  11.097   3.109  0.3536 -0.1935 -0.3071
   69MOL0     C 9202   1.161  11.196   2.999  0.2468  0.3630  0.5516
   69MOL0     C 9203   1.074  11.324   2.986 -0.7239  0.7465  0.4112
   69MOL0     O 9204   0.943  11.275   2.952  0.0373 -0.0743  0.2467
   69MOL0     C 9205   0.865  11.363   2.881 -0.9999 -0.7121  0.0753
   69MOL0     C 9206   0.885  11.505   2.866 -0.2437 -0.3674  0.1926
   69MOL0     C 9207   0.780  11.580   2.826  0.5645 -0.7666  0.0689
   69MOL0     C 9208   0.652  11.532   2.787  0.4323 -0.5193 -0.0585
   69MOL0     C 9209   0.546  11.639   2.744  0.3672 -0.9289 -0.4743
   69MOL0     O 9210   0.428  11.583   2.693  0.3078 -0.4317 -0.9974
   69MOL0     C 9211   0.310  11.655   2.671 -0.9100  0.1731 -0.2341
   69MOL0     C 9212   0.276  11.779   2.733  0.6058  0.1334  0.3841
   69MOL0     C 9213   0.145  11.834   2.714  0.0228  0.8996 -0.0213
   69MOL0     C 9214   0.055  11.764   2.637 -0.0612  0.2462  0.3226
   69MOL0     O 9215  -0.073  11.820   2.636  0.1061 -0.5951  0.1477
   69MOL0     C 9216  -0.148  11.807   2.513 -0.5901 -0.6668 -0.1944
   69MOL0     C 9217  -0.253  11.919   2.497  0.5386  0.5471  0.0662
   69MOL0     C 9218  -0.394  11.860   2.504 -0.0002 -0.6362 -0.7592
   69MOL0     C 9219  -0.429  11.789   2.628  0.8073  0.8078 -0.2432
   69MOL0     C 9220  -0.579  11.777   2.636 -0.5650  0.3423 -0.6991
   69MOL0     C 9221  -0.648  11.671   2.726 -1.7381 -0.4239 -0.8266
   69MOL0     C 9222  -0.790  11.711   2.758 -0.1906 -0.3061  0.0545
   69MOL0     C 9223  -0.881  11.695   2.636 -0.0627  0.5308  0.3002
   69MOL0    Cl 9224  -0.895  11.525   2.582  0.0285 -0.0077  0.0911
   69MOL0     C 9225   0.090  11.636   2.580 -0.5179  0.2514 -0.2287
   69MOL0     C 9226   0.225  11.588   2.598  1.5200  0.4715 -0.1921
   69MOL0     O 9227   0.578  11.759   2.741 -0.6727 -0.1959 -0.4484
   69MOL0     C 9228   0.639  11.390   2.801  0.3933 -0.4638 -0.0377
   69MOL0     C 9229   0.742  11.312   2.841  0.2278  0.2328  0.1624
   69MOL0     N 9230   1.179  10.946   3.383 -0.8311 -0.0426  0.1085
   69MOL0     N 9231   1.152  10.839   3.450  0.2526 -0.3880  0.3037
   69MOL0     C 9232   0.856   9.692   3.077  0.3690 -0.0950  0.7271
   69MOL0     C 9233   0.879   9.552   3.064  0.1358 -0.1511  0.0761
   69MOL0     C 9234   0.954   9.152   3.207 -0.0548  0.1696  0.0721
   69MOL0     C 9235   1.029   9.079   3.105  0.3658  0.4883  0.0188
   69MOL0     C 9236   1.044   8.942   3.115 -0.2319  0.3916  0.0164
   69MOL0     C 9237   0.979   8.865   3.210  0.0481 -0.8387  0.0360
   69MOL0     O 9238   1.001   8.728   3.196  0.4884 -0.3567 -0.4168
   69MOL0     C 9239   0.987   8.653   3.312  0.8035 -0.5302  0.2292
   69MOL0     C 9240   0.840   8.598   3.325  0.2293 -0.2962 -0.0018
   69MOL0     C 9241   0.826   8.460   3.382  1.3743 -0.1923 -0.2659
   69MOL0     C 9242   0.853   8.450   3.533 -0.9455 -0.3322 -0.5000
   69MOL0     C 9243   0.921   8.322   3.566  0.0601  0.5273  1.1035
   69MOL0     C 9244   0.958   8.209   3.589  0.0260  0.1718 -0.1958
   69MOL0     C 9245   0.900   8.933   3.306  0.5474  0.5531 -0.3544
   69MOL0     C 9246   0.890   9.074   3.312 -0.2890  0.3673 -0.4697
   69MOL0     C 9247   0.802   9.131   3.420 -0.6162 -0.2782 -0.4552
   69MOL0     H 9248   1.202   9.540   3.134 -0.8959 -3.2174 -0.7915
   69MOL0     H 9249   1.175   9.794   3.130 -0.2605 -0.0330  3.3106
   69MOL0     H 9250   1.078   9.936   2.976 -1.8570 -1.3906 -0.0621
   69MOL0     H 9251   0.962  10.068   2.982 -2.4712 -2.9585  0.1100
   69MOL0     H 9252   1.205  10.098   3.079  1.0318 -0.4291  0.2465
   69MOL0     H 9253   1.154  10.004   3.217  2.9922  2.5415  1.0092
   69MOL0     H 9254   0.944  10.147   3.234  0.0112 -1.4328 -0.1681
   69MOL0     H 9255   1.026  10.263   3.126  3.1371  0.1930  0.0802
   69MOL0     H 9256   1.170  10.146   3.362 -2.8367 -2.7145 -2.1699
   69MOL0     H 9257   1.207  10.302   3.290  0.0227 -0.3435 -0.6736
   69MOL0     H 9258   0.963  10.223   3.461 -0.0084 -0.3494  0.3254
   69MOL0     H 9259   1.080  10.342   3.510 -1.9050  2.8176 -0.6262
   69MOL0     H 9260   0.881  10.393   3.289 -0.8842  0.5162  1.9765
   69MOL0     H 9261   0.870  10.462   3.448 -0.3386  0.7163 -0.5702
   69MOL0     H 9262   0.948  10.605   3.294  0.3834  0.9885 -1.0896
   69MOL0     H 9263   1.076  10.495   3.222  2.4035  1.3523  0.7981
   69MOL0     H 9264   1.094  10.601   3.508 -0.9894  0.3638 -0.1068
   69MOL0     H 9265   1.222  10.535   3.400 -1.1308 -2.0965 -0.1475
   69MOL0     H 9266   1.216  10.710   3.151  0.4085 -0.2293 -0.1993
   69MOL0     H 9267   1.337  11.063   3.184 -0.0091 -1.1810  0.8418
   69MOL0     H 9268   1.294  10.958   3.050  0.8491  0.7052 -0.7709
   69MOL0     H 9269   1.045  11.041   3.075 -0.9292  1.6082 -0.1361
   69MOL0     H 9270   1.118  11.164   3.195  0.0878  1.3878 -1.5288
   69MOL0     H 9271   1.146  11.135   2.909  3.3004 -0.1857  0.3263
   69MOL0     H 9272   1.268  11.219   3.000  0.7701 -1.7764 -0.4124
   69MOL0     H 9273   1.125  11.390   2.916 -0.2972  0.2850  0.2819
   69MOL0     H 9274   1.069  11.380   3.080 -1.4860  2.9063 -0.8375
   69MOL0     H 9275   0.975  11.552   2.904  0.3735 -1.8821  0.6880
   69MOL0     H 9276   0.788  11.688   2.820 -0.6781 -0.5123  2.1817
   69MOL0     H 9277   0.355  11.830   2.788  2.1388 -1.4618 -0.2261
   69MOL0     H 9278   0.123  11.932   2.756  1.2625  0.9157  0.6455
   69MOL0     H 9279  -0.073  11.826   2.436  0.2554 -3.2079 -0.0680
   69MOL0     H 9280  -0.181  11.704   2.494 -1.4469 -1.3122  3.9123
   69MOL0     H 9281  -0.241  11.993   2.576  0.2148 -1.2504  1.8723
   69MOL0     H 9282  -0.241  11.961   2.397  1.1739  1.8624  0.6715
   69MOL0     H 9283  -0.456  11.949   2.489  0.7520 -0.4619 -3.3392
   69MOL0     H 9284  -0.396  11.793   2.418 -0.1743  2.6682 -3.5505
   69MOL0     H 9285  -0.395  11.843   2.717  0.3966  1.5235 -0.5101
   69MOL0     H 9286  -0.391  11.686   2.624 -2.1733 -0.4866  1.2603
   69MOL0     H 9287  -0.617  11.741   2.540 -2.4225  0.1819  0.0594
   69MOL0     H 9288  -0.612  11.878   2.662 -0.9605 -0.0425  0.3362
   69MOL0     H 9289  -0.644  11.570   2.685 -1.7978 -1.5312  1.7148
   69MOL0     H 9290  -0.589  11.664   2.818  0.0867 -1.5037 -2.0188
   69MOL0     H 9291  -0.791  11.816   2.787  1.9919  0.0855 -1.0880
   69MOL0     H 9292  -0.837  11.663   2.844 -0.3494  1.8689  1.2633
   69MOL0     H 9293  -0.984  11.725   2.656 -0.6156 -0.3550 -1.0300
   69MOL0     H 9294  -0.851  11.761   2.554 -0.5315  0.1925 -0.1493
   69MOL0     H 9295   0.023  11.578   2.518 -0.1781 -2.5054  1.8326
   69MOL0     H 9296   0.245  11.490   2.558 -1.1463 -1.7309  3.2230
   69MOL0     H 9297   0.548  11.342   2.767 -1.1113  1.5013  1.0087
   69MOL0     H 9298   0.735  11.205   2.857  1.0469  0.3658  1.5669
   69MOL0     H 9299   0.760   9.742   3.073  2.0027  3.2249 -1.1616
   69MOL0     H 9300   0.794   9.488   3.045  1.1928 -1.2333 -1.2021
   69MOL0     H 9301   1.080   9.134   3.027  2.1997  1.2179  1.6553
   69MOL0     H 9302   1.089   8.879   3.039  0.2362 -0.9487  1.3452
   69MOL0     H 9303   1.003   8.716   3.401  0.1666 -1.8395  1.2953
   69MOL0     H 9304   1.061   8.573   3.317  2.5654  0.6337 -3.6107
   69MOL0     H 9305   0.796   8.607   3.225  3.2731 -0.4451 -1.4639
   69MOL0     H 9306   0.795   8.666   3.398  1.2191 -0.5750  0.9013
   69MOL0     H 9307   0.890   8.392   3.326  0.1348 -2.2876  0.7314
   69MOL0     H 9308   0.723   8.424   3.379  0.8148  1.2872  0.1149
   69MOL0     H 9309   0.901   8.540   3.574 -2.2375  0.5173 -0.7801
   69MOL0     H 9310   0.761   8.451   3.592  0.2516 -1.8284  1.5043
   69MOL0     H 9311   0.999   8.110   3.591  2.7613  1.0637 -3.6196
   69MOL0     H 9312   0.840   8.878   3.378  1.2495  0.9747  0.5785
   69MOL0     H 9313   0.746   9.058   3.479 -0.2922 -0.5668 -0.4991
   69MOL0     H 9314   0.876   9.180   3.484  0.8926 -3.0235  0.0566
   69MOL0     H 9315   0.725   9.205   3.398 -1.0379  0.0942  1.9675
   70MOL0     O 9316   9.457   0.904   4.778  0.8335  0.0047  0.4719
   70MOL0     C 9317   9.474   0.795   4.837  0.4134 -0.1485 -0.2219
   70MOL0     O 9318   9.571   0.773   4.929 -0.0311  0.4850  0.1518
   70MOL0     C 9319   9.659   0.870   4.973 -0.3709  0.8687 -0.3122
   70MOL0     C 9320   9.777   0.829   5.024 -0.0901 -0.6460  0.0057
   70MOL0     C 9321   9.871   0.915   5.088 -0.1252 -0.6267  0.2327
   70MOL0     C 9322   9.845   1.057   5.085  0.1009 -0.2377  0.5080
   70MOL0     O 9323   9.945   1.145   5.135 -0.2446  0.3236 -0.4515
   70MOL0     C 9324   9.924   1.290   5.129 -0.3449 -0.4203  0.4829
   70MOL0     C 9325   9.974   1.335   4.991  0.0130  0.1149 -0.2721
   70MOL0     C 9326  10.118   1.285   4.975 -0.5168  0.0496 -0.2216
   70MOL0     C 9327  10.189   1.354   4.851  0.7808 -0.6241 -0.5586
   70MOL0     C 9328  10.336   1.303   4.842 -1.0708 -0.3874  0.3499
   70MOL0     C 9329  10.410   1.372   4.730 -0.1723 -0.4950  0.0460
   70MOL0     C 9330  10.530   1.305   4.666  0.2209 -0.6230 -0.3614
   70MOL0     C 9331  10.641   1.283   4.760 -0.1963  0.5819  0.7164
   70MOL0     N 9332  10.766   1.268   4.680  1.1349 -0.5323 -0.2076
   70MOL0     C 9333  10.874   1.349   4.695  0.3038 -0.2224  0.1047
   70MOL0     C 9334  10.980   1.293   4.631  0.6345 -0.6100  0.4747
   70MOL0     C 9335  11.110   1.362   4.587 -0.0573  0.2143 -0.8415
   70MOL0     C 9336  11.228   1.304   4.664  0.2973  0.3352  0.3689
   70MOL0     C 9337  11.350   1.282   4.577  0.0856  0.3263  0.1469
   70MOL0     C 9338  11.482   1.265   4.660 -0.4891 -0.0294  0.5521
   70MOL0     O 9339  11.590   1.241   4.571 -0.3096  0.4651  0.2449
   70MOL0     C 9340  11.712   1.220   4.626 -1.1217  0.9649 -0.3632
   70MOL0     C 9341  11.804   1.159   4.532  0.4861 -1.2394  0.0621
   70MOL0     C 9342  11.926   1.121   4.576  0.2979  0.5367 -0.1681
   70MOL0     C 9343  11.967   1.136   4.712  0.2577 -0.0202 -0.2781
   70MOL0     C 9344  12.094   1.064   4.764  0.4071 -1.0768 -0.0047
   70MOL0     O 9345  12.179   1.018   4.673 -0.0277  0.5227 -0.3163
   70MOL0     C 9346  12.286   0.937   4.705 -0.0771 -0.2055  0.2194
   70MOL0     C 9347  12.259   0.819   4.766 -0.8122  1.0395 -0.5843
   70MOL0     C 9348  12.365   0.728   4.795  0.1355 -0.1225 -0.0984
   70MOL0     C 9349  12.496   0.756   4.744  0.2941 -0.5282 -0.0290
   70MOL0     O 9350  12.584   0.657   4.771  0.2489 -1.0419 -0.5067
   70MOL0     C 9351  12.691   0.715   4.855 -0.2727  0.0275 -0.5264
   70MOL0     C 9352  12.788   0.596   4.902  0.4862  0.1459 -0.4217
   70MOL0     C 9353  12.922   0.654   4.933  0.0928  1.0085  0.3197
   70MOL0     C 9354  13.017   0.538   4.990 -0.1721  0.3221  0.1481
   70MOL0     C 9355  13.154   0.587   5.040 -0.2393  1.0140  0.2711
   70MOL0     C 9356  13.250   0.619   4.932  0.4724 -0.0892  0.9510
   70MOL0     C 9357  13.379   0.687   5.000 -0.5907  0.7184  0.4278
   70MOL0     C 9358  13.501   0.601   5.015 -0.0922  1.0275  0.4458
   70MOL0    Cl 9359  13.585   0.584   4.855 -0.0065  0.0492 -0.2543
   70MOL0     C 9360  12.520   0.871   4.673  0.2503 -0.2858  0.4856
   70MOL0     C 9361  12.419   0.968   4.661 -0.8940  0.2773  0.2721
   70MOL0     O 9362  12.112   1.053   4.882 -0.3989 -0.5469 -0.0193
   70MOL0     C 9363  11.880   1.193   4.800  1.1445 -0.2039  0.4617
   70MOL0     C 9364  11.749   1.228   4.759 -0.7566 -0.9482  0.3199
   70MOL0     N 9365  10.922   1.165   4.592  0.4315 -0.2015 -0.6446
   70MOL0     N 9366  10.802   1.150   4.630 -0.0188 -1.0412 -0.6175
   70MOL0     C 9367   9.716   1.103   5.042 -0.0313  0.3952 -0.1808
   70MOL0     C 9368   9.624   1.007   4.983 -0.7530 -0.3087 -0.9166
   70MOL0     C 9369   9.376   0.688   4.813 -0.3660 -0.9041  0.4912
   70MOL0     C 9370   9.435   0.569   4.774 -0.0916 -0.2177  0.3675
   70MOL0     C 9371   9.358   0.463   4.752 -0.4274 -0.4292 -0.8662
   70MOL0     C 9372   9.219   0.468   4.774  0.7862  0.1480 -0.8727
   70MOL0     O 9373   9.157   0.352   4.740  0.0700  0.0709 -0.0095
   70MOL0     C 9374   9.017   0.325   4.730  0.8293 -0.1875 -0.4888
   70MOL0     C 9375   8.955   0.396   4.602 -0.3224  0.4441  0.2902
   70MOL0     C 9376   8.804   0.365   4.580 -0.2345 -0.2746 -0.0925
   70MOL0     C 9377   8.719   0.427   4.682 -0.9377  0.8210 -0.0717
   70MOL0     C 9378   8.577   0.442   4.638 -0.5586  0.7935 -0.3879
   70MOL0     C 9379   8.462   0.463   4.614  0.2471 -0.2009  0.2236
   70MOL0     C 9380   9.156   0.580   4.825 -0.4324 -0.1355  0.1929
   70MOL0     C 9381   9.235   0.696   4.838 -0.4519 -0.9338  0.3403
   70MOL0     C 9382   9.169   0.826   4.881 -0.7192  0.2697 -0.0036
   70MOL0     H 9383   9.795   0.722   5.011  1.3791 -0.4347  0.1356
   70MOL0     H 9384   9.970   0.882   5.116  1.7820  3.8784 -0.2205
   70MOL0     H 9385   9.826   1.329   5.160  0.5984  1.4757  1.2014
   70MOL0     H 9386   9.998   1.325   5.202  0.5389 -0.8974 -0.1722
   70MOL0     H 9387   9.971   1.444   4.997 -0.8466  0.2027 -1.8721
   70MOL0     H 9388   9.913   1.296   4.908 -0.6358 -0.4531  0.4573
   70MOL0     H 9389  10.121   1.177   4.961 -2.7931 -0.0537 -0.1978
   70MOL0     H 9390  10.174   1.321   5.062  0.0035  1.2012 -0.9996
   70MOL0     H 9391  10.126   1.335   4.764 -1.8188  0.2338  1.0129
   70MOL0     H 9392  10.189   1.463   4.861  0.1383 -0.7964  2.0331
   70MOL0     H 9393  10.391   1.325   4.934 -0.0515  1.1593 -0.5846
   70MOL0     H 9394  10.321   1.198   4.818 -0.8509 -0.1231 -1.0214
   70MOL0     H 9395  10.337   1.388   4.649  0.2879 -3.0844 -0.9787
   70MOL0     H 9396  10.453   1.468   4.761  2.8510 -0.8319 -2.5306
   70MOL0     H 9397  10.576   1.377   4.598  1.0527  1.6028  2.3794
   70MOL0     H 9398  10.500   1.214   4.612  1.4327 -0.2440 -1.7452
   70MOL0     H 9399  10.632   1.356   4.841 -0.3132 -0.1034  1.3425
   70MOL0     H 9400  10.632   1.182   4.803  0.6420  1.0266  1.9922
   70MOL0     H 9401  10.880   1.449   4.735 -0.8824  1.3107 -3.1515
   70MOL0     H 9402  11.121   1.349   4.479 -0.5510 -1.6056 -0.7055
   70MOL0     H 9403  11.102   1.467   4.613  0.2642  0.6075 -2.2402
   70MOL0     H 9404  11.256   1.364   4.752  1.3035 -0.3697  0.5503
   70MOL0     H 9405  11.196   1.202   4.688 -0.1661  0.3906 -0.0110
   70MOL0     H 9406  11.359   1.360   4.501  0.6808 -1.4182 -1.6503
   70MOL0     H 9407  11.335   1.186   4.528 -1.2541  0.1389  0.8729
   70MOL0     H 9408  11.453   1.179   4.721 -0.5160 -0.9292 -0.6838
   70MOL0     H 9409  11.507   1.357   4.714 -0.3603  0.6295 -0.6057
   70MOL0     H 9410  11.771   1.151   4.429  1.8987 -0.6778 -0.4550
   70MOL0     H 9411  11.993   1.076   4.503  0.9831 -1.0886  1.3799
   70MOL0     H 9412  12.159   0.782   4.784  1.1066 -3.2686  3.4395
   70MOL0     H 9413  12.352   0.627   4.832  0.2607 -0.1384 -0.0964
   70MOL0     H 9414  12.741   0.793   4.796  1.0737  1.2595  2.0958
   70MOL0     H 9415  12.655   0.770   4.943  1.3501  2.0656 -1.0584
   70MOL0     H 9416  12.740   0.570   4.997 -1.3314  2.7022 -0.5448
   70MOL0     H 9417  12.789   0.515   4.829  0.6816  2.0751 -2.6983
   70MOL0     H 9418  12.970   0.696   4.845  0.8598 -3.9037 -1.9109
   70MOL0     H 9419  12.902   0.727   5.012 -1.0336 -1.1599  2.1772
   70MOL0     H 9420  13.026   0.457   4.917 -0.9812  1.0835 -0.8320
   70MOL0     H 9421  12.966   0.496   5.077  3.7589 -0.4303  2.3057
   70MOL0     H 9422  13.197   0.510   5.105  1.3925  1.1227 -0.6191
   70MOL0     H 9423  13.138   0.680   5.095 -0.0721 -0.0309  2.2033
   70MOL0     H 9424  13.261   0.527   4.873  1.4216  1.2651 -1.1064
   70MOL0     H 9425  13.193   0.678   4.860  0.7579  0.3938  1.1181
   70MOL0     H 9426  13.355   0.712   5.104  0.0171  0.7800  0.5603
   70MOL0     H 9427  13.410   0.779   4.949  0.6493  0.4051  0.5657
   70MOL0     H 9428  13.569   0.659   5.078 -0.6082  0.9584  1.0814
   70MOL0     H 9429  13.474   0.510   5.069 -0.9745 -0.0788 -1.7463
   70MOL0     H 9430  12.614   0.900   4.629  0.6485 -0.7169  1.0269
   70MOL0     H 9431  12.450   1.062   4.617  0.3826  0.3173  1.1991
   70MOL0     H 9432  11.917   1.202   4.902  1.5129  0.2139  0.2925
   70MOL0     H 9433  11.683   1.281   4.827  1.2694 -0.8766  2.3492
   70MOL0     H 9434   9.699   1.210   5.047  1.5490  0.6562  3.6330
   70MOL0     H 9435   9.532   1.050   4.946 -2.5386 -3.2057 -0.1752
   70MOL0     H 9436   9.544   0.566   4.765 -0.2187 -0.1045 -2.1449
   70MOL0     H 9437   9.405   0.373   4.714  1.4537 -0.0468  0.4467
   70MOL0     H 9438   8.961   0.364   4.815  1.5944  0.4168 -0.2551
   70MOL0     H 9439   9.003   0.217   4.718 -0.8881 -0.1615  0.8502
   70MOL0     H 9440   9.008   0.356   4.515  0.0511 -1.1451  1.2144
   70MOL0     H 9441   8.969   0.504   4.613  0.1149  0.4973 -0.6757
   70MOL0     H 9442   8.768   0.261   4.576 -1.8989  0.2337  0.5748
   70MOL0     H 9443   8.779   0.411   4.484 -4.4382  0.1117  0.9732
   70MOL0     H 9444   8.716   0.366   4.773  0.7431  1.2802  0.3208
   70MOL0     H 9445   8.767   0.523   4.705 -1.6628  1.3525 -0.7042
   70MOL0     H 9446   8.358   0.469   4.588  0.2419 -3.8121 -1.1236
   70MOL0     H 9447   9.049   0.584   4.844 -0.3309  1.6112  0.6267
   70MOL0     H 9448   9.098   0.864   4.807 -0.0148  2.8340  0.5512
   70MOL0     H 9449   9.117   0.804   4.975 -1.7397 -0.4430 -0.7032
   70MOL0     H 9450   9.241   0.902   4.911  0.9449 -1.7363  1.4067
   71MOL0     O 9451   4.788   8.204   3.276 -0.3763  0.0381 -0.2905
   71MOL0     C 9452   4.776   8.156   3.165  0.1964  0.3375 -0.2029
   71MOL0     O 9453   4.885   8.126   3.079 -0.3164  0.4674 -0.4881
   71MOL0     C 9454   5.016   8.121   3.127  0.1356  0.7912 -0.2664
   71MOL0     C 9455   5.113   8.200   3.071  0.6024  0.5095  1.1722
   71MOL0     C 9456   5.244   8.204   3.117  0.1430 -0.8923 -0.8618
   71MOL0     C 9457   5.282   8.128   3.231 -0.7817 -0.2351  0.5292
   71MOL0     O 9458   5.413   8.129   3.277 -0.5582  0.3207 -0.1470
   71MOL0     C 9459   5.427   8.115   3.422 -1.2829  0.4483  0.2341
   71MOL0     C 9460   5.497   7.980   3.439  0.1097 -0.3374 -0.0992
   71MOL0     C 9461   5.505   7.954   3.591 -0.3367  0.5465 -0.7515
   71MOL0     C 9462   5.385   7.916   3.657  0.5994  0.7838 -0.7372
   71MOL0     C 9463   5.399   7.928   3.812 -0.7731 -0.0721  0.1040
   71MOL0     C 9464   5.504   7.832   3.859 -0.3785  0.9317  0.7009
   71MOL0     C 9465   5.488   7.796   4.011  0.4437 -0.3174  0.1165
   71MOL0     C 9466   5.496   7.907   4.114  0.0288 -0.2897 -0.1425
   71MOL0     N 9467   5.624   7.980   4.107  0.0091 -0.2576  0.2927
   71MOL0     C 9468   5.728   7.958   4.187 -0.3211 -0.1216 -0.2477
   71MOL0     C 9469   5.809   8.073   4.163 -0.2059  0.9941  0.4257
   71MOL0     C 9470   5.945   8.103   4.229  0.0263 -0.4230 -0.6483
   71MOL0     C 9471   5.915   8.152   4.367  0.1341  0.0154 -0.5221
   71MOL0     C 9472   6.050   8.145   4.438 -0.0717  0.0035 -0.6323
   71MOL0     C 9473   6.025   8.198   4.586 -0.1551 -0.0772  0.2376
   71MOL0     O 9474   6.131   8.198   4.681  0.3535  0.0808  0.0289
   71MOL0     C 9475   6.239   8.283   4.658 -0.7155 -0.0917 -0.5358
   71MOL0     C 9476   6.338   8.278   4.756 -0.4595 -1.0542  0.3653
   71MOL0     C 9477   6.443   8.367   4.754 -1.0060  0.6554  0.5202
   71MOL0     C 9478   6.457   8.465   4.649  0.3932 -0.1250  0.1573
   71MOL0     C 9479   6.570   8.562   4.661  1.2714  0.4432 -0.0300
   71MOL0     O 9480   6.566   8.680   4.591 -0.1347  0.1245  0.0184
   71MOL0     C 9481   6.687   8.737   4.579 -1.1107  0.1973 -0.0075
   71MOL0     C 9482   6.755   8.815   4.675 -0.2374 -0.3082 -0.3519
   71MOL0     C 9483   6.869   8.890   4.650 -0.1679  0.2492 -0.0367
   71MOL0     C 9484   6.931   8.889   4.521 -0.0674 -0.3181 -0.2525
   71MOL0     O 9485   7.040   8.975   4.485  0.5487 -0.0017 -0.0647
   71MOL0     C 9486   7.138   9.007   4.585  0.3428 -0.2540  0.2066
   71MOL0     C 9487   7.235   9.109   4.528 -0.6907 -0.0532  0.2457
   71MOL0     C 9488   7.307   9.063   4.405 -0.3710  0.1535  0.2443
   71MOL0     C 9489   7.406   9.167   4.351 -0.0519  0.1893 -0.2109
   71MOL0     C 9490   7.490   9.123   4.235 -0.7563 -0.4173  0.7252
   71MOL0     C 9491   7.405   9.146   4.104 -0.1924  0.2974 -0.3138
   71MOL0     C 9492   7.480   9.085   3.981  0.5556 -0.2401  0.4638
   71MOL0     C 9493   7.377   9.092   3.869  0.0771 -0.2029 -0.3118
   71MOL0    Cl 9494   7.457   9.089   3.700 -0.3730  0.1222 -0.5084
   71MOL0     C 9495   6.870   8.807   4.428  0.3170 -0.3794 -1.0423
   71MOL0     C 9496   6.749   8.736   4.451  0.4507 -0.0212  0.0454
   71MOL0     O 9497   6.656   8.531   4.741 -0.4989 -0.0106 -0.2429
   71MOL0     C 9498   6.357   8.464   4.553 -0.7072  0.4777  0.0345
   71MOL0     C 9499   6.249   8.381   4.558  0.2808 -0.2073 -0.4094
   71MOL0     N 9500   5.745   8.160   4.075 -0.0985 -0.3291 -0.3317
   71MOL0     N 9501   5.637   8.099   4.042 -0.6112 -0.2031 -0.7398
   71MOL0     C 9502   5.185   8.043   3.283 -0.0776  0.0853  0.5218
   71MOL0     C 9503   5.056   8.035   3.239  0.6852 -0.6876  0.1784
   71MOL0     C 9504   4.633   8.135   3.124  0.1882 -0.4449 -0.1500
   71MOL0     C 9505   4.543   8.093   3.222 -0.4636  0.0838  0.9214
   71MOL0     C 9506   4.407   8.073   3.192 -0.2391 -0.3112  0.5585
   71MOL0     C 9507   4.361   8.087   3.064 -0.3747 -0.3930 -0.1522
   71MOL0     O 9508   4.228   8.066   3.019 -0.1322 -0.3136 -0.3646
   71MOL0     C 9509   4.134   8.011   3.117 -0.0412 -0.3413  0.1025
   71MOL0     C 9510   4.000   7.984   3.060  0.3093  0.1547  0.4774
   71MOL0     C 9511   3.900   8.112   3.055 -1.0262 -0.4800  0.0481
   71MOL0     C 9512   3.946   8.231   2.966 -0.2328 -0.8976  0.0517
   71MOL0     C 9513   3.822   8.307   2.931  0.3211 -0.9536 -0.1996
   71MOL0     C 9514   3.727   8.377   2.907  0.7663 -0.6806  0.1162
   71MOL0     C 9515   4.443   8.117   2.960 -0.2099 -1.0609  0.2214
   71MOL0     C 9516   4.579   8.150   2.989 -0.6160  0.0199  0.0874
   71MOL0     C 9517   4.668   8.195   2.875  0.3900 -0.0591  1.0073
   71MOL0     H 9518   5.072   8.262   2.992  2.0046 -0.8424 -0.7040
   71MOL0     H 9519   5.320   8.266   3.070 -0.8416  0.1152 -1.1742
   71MOL0     H 9520   5.501   8.189   3.454  0.6069 -1.3250  0.2068
   71MOL0     H 9521   5.339   8.120   3.486 -0.2678 -0.9407  1.8387
   71MOL0     H 9522   5.599   7.983   3.398 -0.3665 -2.1490 -1.5469
   71MOL0     H 9523   5.448   7.906   3.376  0.1842  0.7778 -1.5328
   71MOL0     H 9524   5.552   8.035   3.648 -0.7890  1.4252 -1.5928
   71MOL0     H 9525   5.574   7.874   3.618 -1.3083  0.6414  2.2813
   71MOL0     H 9526   5.294   7.968   3.623  1.0700  1.1800 -1.4093
   71MOL0     H 9527   5.368   7.811   3.631  1.6756 -0.4037  2.8064
   71MOL0     H 9528   5.427   8.031   3.836 -1.0079 -0.0799  0.4278
   71MOL0     H 9529   5.309   7.902   3.868 -0.0607  1.8769  2.3333
   71MOL0     H 9530   5.505   7.741   3.798  0.4681  1.4201 -0.0336
   71MOL0     H 9531   5.605   7.871   3.839 -0.4431 -0.1536 -2.1327
   71MOL0     H 9532   5.565   7.719   4.027 -2.6523 -3.9967 -1.2802
   71MOL0     H 9533   5.391   7.751   4.032  0.5605  0.2026  1.9023
   71MOL0     H 9534   5.418   7.980   4.093 -1.6005 -2.6906 -3.5623
   71MOL0     H 9535   5.489   7.873   4.218  1.1110  1.1110  0.4142
   71MOL0     H 9536   5.744   7.879   4.259  1.0133 -0.6166 -1.0313
   71MOL0     H 9537   6.008   8.014   4.223  1.1416  0.3642 -0.8875
   71MOL0     H 9538   6.001   8.175   4.168  2.7752 -2.0291 -0.1449
   71MOL0     H 9539   5.875   8.253   4.364 -0.1578 -0.0467  0.8395
   71MOL0     H 9540   5.843   8.085   4.415  0.0779  0.2130 -0.3307
   71MOL0     H 9541   6.125   8.192   4.373 -1.2283 -0.8127 -2.6680
   71MOL0     H 9542   6.080   8.041   4.455 -2.8376 -0.7887 -0.1555
   71MOL0     H 9543   5.950   8.131   4.628 -0.1169 -0.9959 -1.1048
   71MOL0     H 9544   5.978   8.297   4.579  0.1717  0.2121  1.7778
   71MOL0     H 9545   6.334   8.198   4.829 -0.4043 -0.9424  0.4914
   71MOL0     H 9546   6.515   8.360   4.835 -0.4340  0.8561  0.0359
   71MOL0     H 9547   6.716   8.809   4.776 -1.3730  1.2367 -0.6673
   71MOL0     H 9548   6.910   8.950   4.730  0.1643 -1.0787  0.8347
   71MOL0     H 9549   7.089   9.056   4.670 -0.9024 -0.4959 -0.3385
   71MOL0     H 9550   7.188   8.915   4.617  3.4467  0.8496 -1.1067
   71MOL0     H 9551   7.179   9.199   4.503 -0.8784  0.3043  1.8344
   71MOL0     H 9552   7.300   9.136   4.611  0.3320  0.7034 -0.7762
   71MOL0     H 9553   7.364   8.975   4.435  2.2599  1.9382  0.8021
   71MOL0     H 9554   7.227   9.033   4.336 -0.8316  1.8761 -0.0201
   71MOL0     H 9555   7.467   9.197   4.437 -0.8194 -1.4559  0.9487
   71MOL0     H 9556   7.343   9.253   4.326  1.2652  0.9424 -1.0504
   71MOL0     H 9557   7.519   9.017   4.237 -0.1611 -0.2896 -0.2271
   71MOL0     H 9558   7.578   9.188   4.230 -0.3800 -0.9813 -0.9476
   71MOL0     H 9559   7.316   9.084   4.120  1.5719 -1.8333  2.1428
   71MOL0     H 9560   7.383   9.253   4.098 -1.0632  0.0925 -1.2593
   71MOL0     H 9561   7.507   8.981   4.004 -1.1431 -1.3085 -1.8933
   71MOL0     H 9562   7.570   9.139   3.953  0.0313  0.6289  0.4157
   71MOL0     H 9563   7.315   9.003   3.883 -1.1384  0.2757 -2.2169
   71MOL0     H 9564   7.311   9.178   3.883 -0.2462 -0.7788  2.1274
   71MOL0     H 9565   6.920   8.793   4.332  2.0132 -0.4786 -0.1755
   71MOL0     H 9566   6.698   8.673   4.379  0.9608  1.1324 -1.3670
   71MOL0     H 9567   6.361   8.534   4.469  0.7434  1.1691  0.6522
   71MOL0     H 9568   6.176   8.399   4.480  0.2998  0.0423 -0.3691
   71MOL0     H 9569   5.202   7.979   3.369 -0.0560 -1.8159 -0.8344
   71MOL0     H 9570   4.981   7.973   3.287 -0.2414 -1.7820 -2.5021
   71MOL0     H 9571   4.585   8.085   3.322  1.9211 -0.3467 -0.0481
   71MOL0     H 9572   4.333   8.049   3.268 -0.9677  0.1700  0.0075
   71MOL0     H 9573   4.119   8.079   3.201  1.7955 -1.3204  1.3015
   71MOL0     H 9574   4.176   7.917   3.153  0.9480  0.5696  1.4081
   71MOL0     H 9575   3.953   7.908   3.124 -0.4687  0.6542  0.5196
   71MOL0     H 9576   4.010   7.951   2.956 -0.6773  2.0301 -0.2655
   71MOL0     H 9577   3.895   8.147   3.158  0.7608 -1.6817  0.6042
   71MOL0     H 9578   3.800   8.077   3.030  0.1147 -1.8587 -3.1271
   71MOL0     H 9579   4.020   8.292   3.018 -1.0935  0.2775 -0.0714
   71MOL0     H 9580   3.993   8.193   2.875  0.1222 -0.4796  0.0594
   71MOL0     H 9581   3.641   8.440   2.894 -0.1252 -1.4047  2.0552
   71MOL0     H 9582   4.398   8.141   2.864  1.8449  0.7639 -0.3861
   71MOL0     H 9583   4.722   8.111   2.831  0.4820  0.1979  0.6247
   71MOL0     H 9584   4.601   8.236   2.799  0.6547  1.1511  1.4071
   71MOL0     H 9585   4.727   8.283   2.902 -2.8975  1.9832  2.1620
   72MOL0     O 9586  10.917   4.040   1.024 -0.1398  0.1273  0.1350
   72MOL0     C 9587  10.818   3.969   0.990 -0.3857  0.5197  0.0531
   72MOL0     O 9588  10.832   3.845   0.936 -0.3150  0.0813  0.5591
   72MOL0     C 9589  10.947   3.767   0.945 -0.0603 -0.2899 -0.8796
   72MOL0     C 9590  11.072   3.797   1.005  0.1008  0.2140 -0.2464
   72MOL0     C 9591  11.181   3.700   1.005  0.0478 -1.1387  0.1580
   72MOL0     C 9592  11.159   3.576   0.941 -0.0030 -0.3814 -0.5561
   72MOL0     O 9593  11.256   3.484   0.943  0.1543  0.9569  1.0029
   72MOL0     C 9594  11.362   3.508   0.849  0.4286 -0.1253  0.2902
   72MOL0     C 9595  11.387   3.379   0.773  0.0186  0.2206 -0.8126
   72MOL0     C 9596  11.441   3.277   0.874  0.3720  0.7327 -0.0107
   72MOL0     C 9597  11.471   3.150   0.793 -0.0249  0.2861  0.0914
   72MOL0     C 9598  11.531   3.045   0.878  0.8116  0.7027 -0.3662
   72MOL0     C 9599  11.623   3.085   0.992 -0.1049  0.4523  0.1754
   72MOL0     C 9600  11.743   3.164   0.945  0.1076 -0.3341 -0.0986
   72MOL0     C 9601  11.849   3.092   0.864 -0.2087 -0.2571  0.9805
   72MOL0     N 9602  11.851   3.130   0.728 -0.0220 -0.1000  0.1162
   72MOL0     C 9603  11.768   3.088   0.628 -0.0168  0.1126 -0.9154
   72MOL0     C 9604  11.834   3.134   0.525  0.6047  0.7900  0.0151
   72MOL0     C 9605  11.796   3.103   0.390 -0.2502  0.1176  0.4838
   72MOL0     C 9606  11.662   3.032   0.362 -0.0517 -0.5069 -0.8709
   72MOL0     C 9607  11.533   3.122   0.390  0.2160 -0.3494  0.6526
   72MOL0     C 9608  11.406   3.056   0.364 -0.3533  0.3192  0.2615
   72MOL0     O 9609  11.397   2.961   0.461  0.0698 -0.4207  0.1820
   72MOL0     C 9610  11.277   2.895   0.476  0.6491 -0.3599 -0.5349
   72MOL0     C 9611  11.260   2.821   0.597  0.9483 -0.6496  0.0650
   72MOL0     C 9612  11.138   2.740   0.615 -0.1606  0.3849 -0.3031
   72MOL0     C 9613  11.038   2.736   0.512 -0.0386  0.5263  0.1603
   72MOL0     C 9614  10.903   2.673   0.549  0.1973 -0.1562 -0.4551
   72MOL0     O 9615  10.887   2.630   0.673  0.6088  0.1412 -0.2172
   72MOL0     C 9616  10.764   2.610   0.719 -0.2054  0.5974 -0.3496
   72MOL0     C 9617  10.676   2.720   0.734 -0.4709  0.8926 -0.1797
   72MOL0     C 9618  10.550   2.696   0.787 -1.2803  0.1283  0.3548
   72MOL0     C 9619  10.529   2.576   0.855 -0.4459 -0.1019  0.0180
   72MOL0     O 9620  10.410   2.574   0.926  0.1349  0.0178  0.7363
   72MOL0     C 9621  10.422   2.556   1.065 -0.2668 -0.6711  0.1317
   72MOL0     C 9622  10.332   2.670   1.125  0.1277 -0.0844 -0.2008
   72MOL0     C 9623  10.182   2.615   1.128 -0.4106  0.0748 -0.5235
   72MOL0     C 9624  10.088   2.727   1.185  0.6545 -0.7968 -0.3689
   72MOL0     C 9625   9.948   2.686   1.150  0.6323 -0.1826  0.1959
   72MOL0     C 9626   9.839   2.798   1.195 -0.3414  0.4060 -1.2015
   72MOL0     C 9627   9.802   2.891   1.079 -0.1009  0.6029 -0.9240
   72MOL0     C 9628   9.700   2.992   1.136  0.7161 -0.6462  0.2950
   72MOL0    Cl 9629   9.634   3.116   1.027 -0.2184 -0.1104  0.6082
   72MOL0     C 9630  10.620   2.469   0.840  0.4603 -1.1888 -0.2930
   72MOL0     C 9631  10.735   2.480   0.765 -0.3133 -0.4209 -0.7893
   72MOL0     O 9632  10.811   2.672   0.461 -0.2257 -0.2024  0.2895
   72MOL0     C 9633  11.060   2.807   0.395 -0.7313  0.8337 -0.2517
   72MOL0     C 9634  11.176   2.887   0.378  0.3343  0.0281 -0.4827
   72MOL0     N 9635  11.951   3.201   0.562  0.2616  0.1353  0.3400
   72MOL0     N 9636  11.961   3.196   0.687 -0.0567  0.4385 -0.2925
   72MOL0     C 9637  11.038   3.547   0.883  0.1175  0.2311  1.0109
   72MOL0     C 9638  10.935   3.646   0.878 -0.0415  0.0948 -0.1202
   72MOL0     C 9639  10.682   4.030   1.003 -0.4246  0.9295  0.3188
   72MOL0     C 9640  10.679   4.165   1.044 -0.1688  0.4606  0.2834
   72MOL0     C 9641  10.566   4.238   1.063  1.2353 -0.2477  0.3009
   72MOL0     C 9642  10.447   4.171   1.057  0.0963 -0.5957  0.8530
   72MOL0     O 9643  10.324   4.227   1.092 -0.6634  0.0466 -0.3116
   72MOL0     C 9644  10.326   4.352   1.153 -0.2994 -0.0669  0.1107
   72MOL0     C 9645  10.190   4.409   1.166  0.5242 -0.2642 -0.3360
   72MOL0     C 9646  10.149   4.444   1.017  1.4482 -0.5080  1.4771
   72MOL0     C 9647  10.154   4.591   0.972  0.1674 -0.0244 -0.0870
   72MOL0     C 9648  10.293   4.637   0.940  0.2418  0.1455 -0.3410
   72MOL0     C 9649  10.406   4.674   0.921  0.9826  0.2101 -0.1566
   72MOL0     C 9650  10.441   4.033   1.019 -1.1554  0.4645 -0.9993
   72MOL0     C 9651  10.560   3.962   0.983  0.5448 -0.2507 -0.1224
   72MOL0     C 9652  10.547   3.818   0.946 -0.4996 -0.0466  0.0475
   72MOL0     H 9653  11.090   3.892   1.054 -2.2997 -1.0871  3.5903
   72MOL0     H 9654  11.277   3.723   1.051  0.7906 -0.6327 -1.5485
   72MOL0     H 9655  11.332   3.592   0.785 -2.7061 -0.2828  1.3552
   72MOL0     H 9656  11.456   3.541   0.894 -1.1038  2.7098  1.6866
   72MOL0     H 9657  11.464   3.385   0.696 -1.3362  0.0732 -2.2155
   72MOL0     H 9658  11.296   3.347   0.721 -1.2739  2.0895  0.1994
   72MOL0     H 9659  11.360   3.251   0.944 -0.6140 -1.9272 -1.9840
   72MOL0     H 9660  11.533   3.312   0.921  2.2230 -3.3487 -0.1845
   72MOL0     H 9661  11.376   3.116   0.751  0.1569  2.6637 -2.6114
   72MOL0     H 9662  11.546   3.181   0.719 -2.5150  2.9437 -1.5438
   72MOL0     H 9663  11.441   2.992   0.914  0.2062  2.8141  1.4538
   72MOL0     H 9664  11.581   2.966   0.820 -2.1488 -1.0835 -0.7285
   72MOL0     H 9665  11.563   3.144   1.062 -0.3392  1.6471 -0.9937
   72MOL0     H 9666  11.663   2.998   1.045  0.2638  1.2703  1.2643
   72MOL0     H 9667  11.793   3.210   1.030 -0.9761 -0.1624  0.4549
   72MOL0     H 9668  11.710   3.240   0.873 -0.8134  0.3157  0.9866
   72MOL0     H 9669  11.949   3.108   0.907  0.7186 -1.4248 -0.6359
   72MOL0     H 9670  11.835   2.984   0.867  2.6511 -0.8026 -1.0917
   72MOL0     H 9671  11.680   3.024   0.638  1.0064 -1.0686  1.2997
   72MOL0     H 9672  11.798   3.194   0.330 -0.7903 -0.4137 -0.3670
   72MOL0     H 9673  11.866   3.031   0.346 -0.2989  1.4550 -1.9821
   72MOL0     H 9674  11.669   3.002   0.257  1.6895 -1.4637 -0.5250
   72MOL0     H 9675  11.662   2.945   0.429  2.4219  0.7566  0.9452
   72MOL0     H 9676  11.543   3.216   0.334  2.6054 -0.9876 -0.1166
   72MOL0     H 9677  11.524   3.147   0.496 -3.3395 -1.5827  0.7654
   72MOL0     H 9678  11.398   3.014   0.263  1.1255  0.4905  0.0515
   72MOL0     H 9679  11.323   3.127   0.363 -1.5693 -1.0511 -0.6372
   72MOL0     H 9680  11.342   2.820   0.668  1.3936  2.3327 -0.2730
   72MOL0     H 9681  11.145   2.681   0.706  1.7516  0.5489 -0.3088
   72MOL0     H 9682  10.715   2.818   0.709  1.1319  0.5231  0.6989
   72MOL0     H 9683  10.474   2.773   0.780 -0.1889  1.1014 -1.6324
   72MOL0     H 9684  10.381   2.456   1.081  2.0847 -1.8145 -0.5929
   72MOL0     H 9685  10.522   2.564   1.108  1.0076 -1.7772 -2.4006
   72MOL0     H 9686  10.371   2.687   1.226  1.5973 -0.0927 -0.7455
   72MOL0     H 9687  10.353   2.769   1.084  1.0457 -0.2092 -0.0516
   72MOL0     H 9688  10.151   2.597   1.025 -0.5137  1.1944 -0.7086
   72MOL0     H 9689  10.180   2.532   1.199  0.8895  2.2193  2.2598
   72MOL0     H 9690  10.097   2.824   1.136 -0.4143 -0.5602 -0.1094
   72MOL0     H 9691  10.099   2.735   1.294  0.5419 -1.0210 -0.3400
   72MOL0     H 9692   9.921   2.588   1.192 -1.1448  1.9289  4.5845
   72MOL0     H 9693   9.938   2.675   1.041  1.0419 -1.4999  0.2718
   72MOL0     H 9694   9.753   2.749   1.242  0.0614 -0.3347 -1.2370
   72MOL0     H 9695   9.884   2.856   1.277  0.9929  1.3581 -2.5542
   72MOL0     H 9696   9.768   2.837   0.990  3.4678 -0.4271 -1.8481
   72MOL0     H 9697   9.888   2.943   1.036 -0.6929  0.5312 -2.2525
   72MOL0     H 9698   9.620   2.928   1.175 -0.9034  1.3784  0.4829
   72MOL0     H 9699   9.736   3.054   1.218 -0.8467  1.2816 -0.3888
   72MOL0     H 9700  10.583   2.376   0.880  1.8534 -1.7925 -0.3373
   72MOL0     H 9701  10.809   2.402   0.751 -1.2418 -1.2321 -1.2985
   72MOL0     H 9702  10.978   2.808   0.324 -0.3060 -0.9204 -0.8057
   72MOL0     H 9703  11.188   2.940   0.284  0.0443 -2.6341 -2.1347
   72MOL0     H 9704  11.023   3.446   0.847 -0.8834  1.7066 -3.2851
   72MOL0     H 9705  10.842   3.631   0.824 -1.3004 -0.3623  2.0512
   72MOL0     H 9706  10.773   4.213   1.068  0.4854 -0.0601 -1.1342
   72MOL0     H 9707  10.581   4.339   1.098  1.0356 -0.2998  0.5393
   72MOL0     H 9708  10.389   4.420   1.095  0.8545 -2.7206 -1.9474
   72MOL0     H 9709  10.374   4.329   1.248  1.0289  0.0106 -0.5235
   72MOL0     H 9710  10.194   4.486   1.244  4.0078 -2.2208  1.7134
   72MOL0     H 9711  10.117   4.335   1.200 -0.7546  1.2301  0.2442
   72MOL0     H 9712  10.043   4.421   1.021  0.5516  3.1267  2.6562
   72MOL0     H 9713  10.198   4.376   0.945 -0.4055 -1.5915  1.1750
   72MOL0     H 9714  10.101   4.600   0.877  0.0300  1.6226  0.1198
   72MOL0     H 9715  10.103   4.651   1.048  0.2730  1.6889 -1.3087
   72MOL0     H 9716  10.508   4.710   0.920  1.3072 -0.5525  1.8756
   72MOL0     H 9717  10.350   3.977   1.002 -0.3175 -0.9467 -1.0530
   72MOL0     H 9718  10.593   3.755   1.023  2.5104  1.6864 -0.1732
   72MOL0     H 9719  10.441   3.798   0.929 -0.7587  2.3721 -1.6783
   72MOL0     H 9720  10.602   3.806   0.853 -1.3501  0.6996 -0.5593
   73MOL0     O 9721   2.195   8.801   2.485 -0.4853 -0.4121  0.5355
   73MOL0     C 9722   2.127   8.790   2.377 -0.1541 -0.3122  0.2644
   73MOL0     O 9723   2.181   8.734   2.261 -0.4182  0.2688 -0.2489
   73MOL0     C 9724   2.311   8.685   2.272  0.5898  0.6302 -0.1487
   73MOL0     C 9725   2.418   8.763   2.240  0.0315  0.0122  0.2216
   73MOL0     C 9726   2.547   8.722   2.246 -0.0053  0.6187 -0.0072
   73MOL0     C 9727   2.573   8.588   2.265 -0.1261 -0.3056  0.1436
   73MOL0     O 9728   2.706   8.554   2.260 -0.0720  0.4438 -0.3710
   73MOL0     C 9729   2.737   8.417   2.229  0.2073 -0.4245  0.0086
   73MOL0     C 9730   2.886   8.392   2.187 -0.6281 -0.2270  0.3686
   73MOL0     C 9731   2.920   8.476   2.062  0.1576  0.3993 -0.2072
   73MOL0     C 9732   3.043   8.408   1.995  1.1664  0.1662  0.7526
   73MOL0     C 9733   3.176   8.471   2.039  0.3617  0.3532  0.1342
   73MOL0     C 9734   3.287   8.399   1.962  0.3349 -0.2920  0.1030
   73MOL0     C 9735   3.421   8.481   1.976 -0.5000  0.1483 -0.4255
   73MOL0     C 9736   3.533   8.427   1.891  0.4265 -0.4276 -0.2049
   73MOL0     N 9737   3.653   8.506   1.903 -0.6115  0.0094  0.0762
   73MOL0     C 9738   3.672   8.638   1.874  0.4238  0.3847 -0.3436
   73MOL0     C 9739   3.790   8.671   1.921  0.1120  0.0351  1.0242
   73MOL0     C 9740   3.843   8.817   1.922  0.0688 -0.2963 -0.3529
   73MOL0     C 9741   3.905   8.863   1.785 -0.0134 -0.1346 -0.4475
   73MOL0     C 9742   4.038   8.786   1.754  0.1826  0.3787 -0.5668
   73MOL0     C 9743   4.158   8.837   1.824  0.0744  0.1109  0.5735
   73MOL0     O 9744   4.218   8.946   1.748  0.8172 -0.5025  0.1475
   73MOL0     C 9745   4.343   8.943   1.695  0.0228  0.0004  0.1900
   73MOL0     C 9746   4.421   8.833   1.697 -0.8633 -0.3995  0.4322
   73MOL0     C 9747   4.547   8.847   1.630  0.4776  0.1175 -0.7569
   73MOL0     C 9748   4.590   8.959   1.559 -0.8494  0.1810  1.1258
   73MOL0     C 9749   4.724   8.965   1.496  0.2145  0.0540  0.4670
   73MOL0     O 9750   4.801   8.845   1.504  0.0501 -0.3953  0.0685
   73MOL0     C 9751   4.898   8.826   1.413  0.1571 -0.0919 -0.0848
   73MOL0     C 9752   4.896   8.874   1.280 -0.4240  0.6266 -0.0917
   73MOL0     C 9753   5.004   8.850   1.195  0.2259  0.0543 -0.4287
   73MOL0     C 9754   5.116   8.777   1.238  0.3699 -0.0843  0.2140
   73MOL0     O 9755   5.199   8.751   1.132  0.7378  0.0326 -0.2682
   73MOL0     C 9756   5.325   8.701   1.171 -0.8490  0.3712  1.0959
   73MOL0     C 9757   5.409   8.678   1.040  0.8401 -0.4114 -0.2238
   73MOL0     C 9758   5.465   8.806   0.980  0.0543  0.3000  0.8577
   73MOL0     C 9759   5.536   8.788   0.842 -0.0958  1.0647 -0.2597
   73MOL0     C 9760   5.602   8.917   0.799 -0.2469 -0.4784  0.0808
   73MOL0     C 9761   5.646   8.916   0.649 -0.2617  0.7202 -0.3597
   73MOL0     C 9762   5.733   9.040   0.610  0.6264  0.2390  0.2976
   73MOL0     C 9763   5.844   9.012   0.501  0.1238 -0.1090  0.3156
   73MOL0    Cl 9764   5.769   8.929   0.359 -0.2274 -0.2112  0.4459
   73MOL0     C 9765   5.122   8.730   1.372 -0.4693  0.5674 -0.5444
   73MOL0     C 9766   5.013   8.749   1.458 -0.2476 -0.0630  0.3769
   73MOL0     O 9767   4.759   9.067   1.444 -0.5524 -0.1560  0.4840
   73MOL0     C 9768   4.503   9.070   1.560  0.5191 -0.4432  0.0269
   73MOL0     C 9769   4.391   9.058   1.632  0.4265 -0.2351 -0.5064
   73MOL0     N 9770   3.852   8.562   1.969 -0.8091  0.1204  0.2879
   73MOL0     N 9771   3.767   8.467   1.962 -0.6034  0.2006  0.2062
   73MOL0     C 9772   2.469   8.505   2.312 -0.2714 -0.1163 -0.2845
   73MOL0     C 9773   2.336   8.553   2.314  0.0453 -0.0068 -0.3232
   73MOL0     C 9774   1.989   8.845   2.374  1.1908 -0.0854  0.5342
   73MOL0     C 9775   1.908   8.814   2.259 -1.0937  1.2279 -0.4339
   73MOL0     C 9776   1.773   8.857   2.247  0.3716  0.6624 -1.1652
   73MOL0     C 9777   1.707   8.917   2.361  0.0075  0.4908 -0.0998
   73MOL0     O 9778   1.579   8.961   2.382  0.3101  0.4085  0.2734
   73MOL0     C 9779   1.496   8.945   2.268  0.1477 -0.2462  0.4658
   73MOL0     C 9780   1.353   8.979   2.284  0.7924 -0.8867  0.4746
   73MOL0     C 9781   1.344   9.134   2.310 -0.0113 -0.2041 -0.4231
   73MOL0     C 9782   1.203   9.170   2.347  0.9986 -0.5512  1.5075
   73MOL0     C 9783   1.178   9.162   2.493 -0.3866  0.3192 -0.0192
   73MOL0     C 9784   1.142   9.155   2.605 -0.9955  0.4840 -0.3978
   73MOL0     C 9785   1.789   8.941   2.467  0.2129  0.4101  0.4547
   73MOL0     C 9786   1.922   8.917   2.477  0.0700  0.4504  0.0015
   73MOL0     C 9787   1.991   8.949   2.605 -0.1588 -0.5018 -0.3994
   73MOL0     H 9788   2.402   8.865   2.207  1.8814 -0.0052 -0.8323
   73MOL0     H 9789   2.628   8.784   2.207 -1.6710  2.0561 -1.3669
   73MOL0     H 9790   2.711   8.357   2.316 -0.0351  1.5150  1.3202
   73MOL0     H 9791   2.673   8.372   2.152  2.5361 -0.7488 -1.8883
   73MOL0     H 9792   2.891   8.284   2.169 -1.2285  0.0483 -1.7094
   73MOL0     H 9793   2.955   8.411   2.270 -2.1903  0.7296  1.4995
   73MOL0     H 9794   2.948   8.579   2.087  2.9997 -0.2872 -0.1832
   73MOL0     H 9795   2.838   8.465   1.990 -0.6797  0.9476  0.6489
   73MOL0     H 9796   3.033   8.300   2.015 -0.6315  0.0706 -0.4021
   73MOL0     H 9797   3.037   8.428   1.888 -1.6118  1.4041  1.0518
   73MOL0     H 9798   3.169   8.580   2.035 -4.3177  0.2856  1.1385
   73MOL0     H 9799   3.182   8.447   2.146 -0.9048 -3.4759 -0.5290
   73MOL0     H 9800   3.288   8.291   1.980 -0.7523 -1.3891 -4.8763
   73MOL0     H 9801   3.264   8.407   1.855 -0.7801 -1.1277  0.2629
   73MOL0     H 9802   3.464   8.484   2.076  0.0550  0.7044 -0.6679
   73MOL0     H 9803   3.390   8.584   1.952 -0.6903 -0.0639 -1.1205
   73MOL0     H 9804   3.562   8.324   1.910  1.5074 -0.1485 -0.2993
   73MOL0     H 9805   3.494   8.426   1.789 -1.3042 -1.9528  0.4163
   73MOL0     H 9806   3.608   8.706   1.819  2.1431  0.7376 -2.0207
   73MOL0     H 9807   3.756   8.881   1.940 -1.3452 -2.0966 -0.5155
   73MOL0     H 9808   3.910   8.840   2.005 -1.2498  0.8773  0.4165
   73MOL0     H 9809   3.833   8.847   1.704  2.5952  0.6350 -3.0986
   73MOL0     H 9810   3.913   8.971   1.769 -1.1407 -0.1116 -0.9408
   73MOL0     H 9811   4.047   8.793   1.645  0.5596 -1.9316 -0.7384
   73MOL0     H 9812   4.026   8.683   1.789  0.6330  0.2816 -0.6905
   73MOL0     H 9813   4.227   8.752   1.827  0.4465  0.3920  0.1063
   73MOL0     H 9814   4.145   8.867   1.928  0.0166  0.8032  0.3697
   73MOL0     H 9815   4.410   8.737   1.745  1.7536 -0.1808  1.6179
   73MOL0     H 9816   4.617   8.763   1.635 -1.6367 -1.8155 -1.7648
   73MOL0     H 9817   4.808   8.920   1.237 -1.4972 -1.7562 -0.6007
   73MOL0     H 9818   5.006   8.889   1.093 -1.1583  2.3781  0.3370
   73MOL0     H 9819   5.386   8.769   1.232  1.0478  0.5743 -0.8969
   73MOL0     H 9820   5.314   8.602   1.216  1.4303 -2.3522 -3.5445
   73MOL0     H 9821   5.493   8.612   1.063  0.3085 -0.9500  0.2067
   73MOL0     H 9822   5.341   8.629   0.969  1.7367  0.7889 -1.9693
   73MOL0     H 9823   5.388   8.883   0.964  0.0914  0.4248  1.2539
   73MOL0     H 9824   5.546   8.841   1.045  1.9427 -1.5620 -0.3944
   73MOL0     H 9825   5.463   8.749   0.770 -0.7165 -0.1544  0.9566
   73MOL0     H 9826   5.609   8.710   0.864 -0.7322  1.3767  3.7322
   73MOL0     H 9827   5.692   8.937   0.860 -0.5344  1.2669 -0.0051
   73MOL0     H 9828   5.533   9.002   0.799 -0.4849 -0.6645 -0.7965
   73MOL0     H 9829   5.679   8.812   0.639 -2.8197 -0.5631  2.6196
   73MOL0     H 9830   5.558   8.911   0.584 -1.0106 -1.5261  0.7072
   73MOL0     H 9831   5.777   9.075   0.704  0.2639  0.0021  0.5548
   73MOL0     H 9832   5.665   9.116   0.572 -0.5396  0.0054  1.8216
   73MOL0     H 9833   5.891   9.104   0.466  1.5328 -0.2881  1.6582
   73MOL0     H 9834   5.922   8.950   0.545 -0.5609 -1.0472  0.2526
   73MOL0     H 9835   5.200   8.669   1.416 -2.7677 -0.2093  2.8837
   73MOL0     H 9836   5.015   8.720   1.563  2.2532 -0.7075  0.2086
   73MOL0     H 9837   4.539   9.160   1.512 -0.5494 -0.2760 -0.4979
   73MOL0     H 9838   4.324   9.143   1.624 -1.0509 -1.4930 -2.2272
   73MOL0     H 9839   2.498   8.410   2.354  0.3266  0.4440  0.6038
   73MOL0     H 9840   2.250   8.498   2.352  0.7376 -0.1395  1.1152
   73MOL0     H 9841   1.953   8.752   2.182  1.1387  0.9271  1.0229
   73MOL0     H 9842   1.736   8.840   2.147  2.5440 -1.9605 -1.6247
   73MOL0     H 9843   1.499   8.843   2.228 -3.0898 -0.8675  1.4544
   73MOL0     H 9844   1.540   9.018   2.201  1.9894 -1.0584  0.7304
   73MOL0     H 9845   1.321   8.922   2.372 -1.2240 -2.3974 -1.1543
   73MOL0     H 9846   1.290   8.952   2.199 -0.5447  0.9718  0.7935
   73MOL0     H 9847   1.363   9.191   2.219  2.2753  1.0975  0.7975
   73MOL0     H 9848   1.416   9.171   2.384 -0.7289  1.7971 -0.6654
   73MOL0     H 9849   1.182   9.273   2.316  1.4375 -0.5925  1.0537
   73MOL0     H 9850   1.141   9.095   2.298  3.1587  0.0503 -2.6300
   73MOL0     H 9851   1.114   9.151   2.708 -0.5917 -0.7535 -0.3233
   73MOL0     H 9852   1.730   8.974   2.551  0.1585  0.1256  0.5294
   73MOL0     H 9853   2.064   9.023   2.568 -2.3981  2.1313  0.1161
   73MOL0     H 9854   1.925   9.003   2.673 -1.9847 -2.3003 -0.6743
   73MOL0     H 9855   2.025   8.858   2.656  1.6367 -0.8316 -2.0488
   74MOL0     O 9856   6.472   0.315   3.395 -0.0452  0.5076 -0.3569
   74MOL0     C 9857   6.378   0.359   3.459  0.5076  0.1054 -0.1155
   74MOL0     O 9858   6.375   0.480   3.515 -0.2732  0.5923 -1.0341
   74MOL0     C 9859   6.474   0.566   3.481 -0.2445 -0.1844  0.7017
   74MOL0     C 9860   6.465   0.656   3.373  0.3701  0.4202 -1.1850
   74MOL0     C 9861   6.563   0.747   3.353  0.3023  0.4438 -0.2632
   74MOL0     C 9862   6.684   0.746   3.434  0.6512  0.0797  1.3122
   74MOL0     O 9863   6.792   0.837   3.425  0.4189  0.5953 -0.2343
   74MOL0     C 9864   6.781   0.939   3.327 -0.6125 -0.2578 -0.8474
   74MOL0     C 9865   6.899   1.033   3.324 -0.1394  0.5892 -0.4328
   74MOL0     C 9866   7.022   0.968   3.256 -0.0713 -0.7895  0.2349
   74MOL0     C 9867   7.152   1.051   3.264 -0.0214  0.3772 -0.1126
   74MOL0     C 9868   7.287   0.981   3.249 -0.2319 -0.1963  0.5719
   74MOL0     C 9869   7.392   1.077   3.194 -0.2919  0.5156 -0.1221
   74MOL0     C 9870   7.521   1.015   3.205  0.0187 -0.0425 -1.1890
   74MOL0     C 9871   7.633   1.099   3.144 -0.2524 -0.1422 -0.5398
   74MOL0     N 9872   7.772   1.049   3.170  0.2482  0.1599 -0.0378
   74MOL0     C 9873   7.858   0.988   3.089 -0.1609  0.0380  0.1035
   74MOL0     C 9874   7.950   0.942   3.174 -0.0350 -0.7892 -1.1652
   74MOL0     C 9875   8.075   0.872   3.138 -0.7485  0.1598  0.4990
   74MOL0     C 9876   8.190   0.976   3.100 -0.0305 -0.2818  0.2422
   74MOL0     C 9877   8.329   0.909   3.065  0.4847 -0.1862 -0.8976
   74MOL0     C 9878   8.424   1.012   3.005 -0.1952 -0.0688  0.7497
   74MOL0     O 9879   8.537   0.950   2.940 -0.3001  0.5841 -0.3455
   74MOL0     C 9880   8.651   0.930   3.020  0.2398 -0.7873 -0.1099
   74MOL0     C 9881   8.770   0.900   2.957  0.4584  0.2405  0.1867
   74MOL0     C 9882   8.891   0.881   3.022 -0.1288 -0.0839  0.2013
   74MOL0     C 9883   8.892   0.885   3.161 -0.5531  0.1213 -0.0103
   74MOL0     C 9884   9.013   0.842   3.241  0.4496 -0.1562 -0.3132
   74MOL0     O 9885   9.007   0.870   3.377 -0.1649  0.2009  0.9509
   74MOL0     C 9886   9.110   0.839   3.467  0.5225 -0.0048  0.6346
   74MOL0     C 9887   9.229   0.902   3.448  0.1712 -0.0753 -0.1434
   74MOL0     C 9888   9.336   0.874   3.543  0.0819  0.0716  0.5003
   74MOL0     C 9889   9.320   0.774   3.643  0.1424  0.1608 -0.1932
   74MOL0     O 9890   9.422   0.717   3.718 -0.5077  0.2070 -0.3378
   74MOL0     C 9891   9.540   0.693   3.647 -0.5824  0.1382 -0.0532
   74MOL0     C 9892   9.620   0.596   3.738  0.7773  0.0549  0.0848
   74MOL0     C 9893   9.760   0.568   3.682 -0.2859  0.3149 -0.1351
   74MOL0     C 9894   9.821   0.449   3.757 -0.1651 -0.5012  0.4135
   74MOL0     C 9895   9.970   0.433   3.726  0.1459  0.3251  0.2910
   74MOL0     C 9896  10.037   0.366   3.845  0.6690  0.7289  0.0475
   74MOL0     C 9897  10.178   0.327   3.805 -0.7590  0.6567  0.4822
   74MOL0     C 9898  10.262   0.282   3.922 -0.1270 -0.6310 -0.2969
   74MOL0    Cl 9899  10.434   0.254   3.871  0.4450 -0.2350  0.3383
   74MOL0     C 9900   9.197   0.702   3.644 -0.0635  0.1391  0.4780
   74MOL0     C 9901   9.092   0.733   3.566 -0.3042 -0.7925  0.5365
   74MOL0     O 9902   9.108   0.785   3.185  0.8463 -0.1679  0.2199
   74MOL0     C 9903   8.774   0.921   3.224  0.0978 -0.0920 -0.5199
   74MOL0     C 9904   8.657   0.946   3.154 -0.3232 -0.6006 -0.5024
   74MOL0     N 9905   7.931   0.994   3.298 -0.4757  0.5523 -0.6218
   74MOL0     N 9906   7.826   1.053   3.297  0.0676  0.6458  0.1326
   74MOL0     C 9907   6.689   0.649   3.535  0.3431  0.5017  0.0654
   74MOL0     C 9908   6.585   0.555   3.569  0.0154 -0.1519 -0.2235
   74MOL0     C 9909   6.264   0.268   3.481  0.7331  0.8226  0.0659
   74MOL0     C 9910   6.154   0.314   3.548 -0.6389 -0.4441 -0.8407
   74MOL0     C 9911   6.050   0.231   3.587 -0.3158 -0.0109 -0.4531
   74MOL0     C 9912   6.053   0.096   3.561  0.1004  0.2163 -0.0177
   74MOL0     O 9913   5.960   0.014   3.625  0.0180 -0.2244 -0.0045
   74MOL0     C 9914   5.922  -0.097   3.543 -0.1871 -0.0517 -0.4425
   74MOL0     C 9915   5.790  -0.169   3.584 -0.6062  0.1097  0.1322
   74MOL0     C 9916   5.781  -0.200   3.729 -0.3257 -0.0468 -0.2487
   74MOL0     C 9917   5.679  -0.314   3.749 -0.8833  0.3729 -0.0939
   74MOL0     C 9918   5.542  -0.274   3.715 -0.9988 -0.1381 -0.4921
   74MOL0     C 9919   5.425  -0.248   3.701  0.0195  0.2399  0.2323
   74MOL0     C 9920   6.157   0.044   3.483  0.1555 -0.3879  0.0034
   74MOL0     C 9921   6.263   0.128   3.448  0.3679 -0.6141  0.8002
   74MOL0     C 9922   6.373   0.055   3.381 -0.2922 -0.2435 -0.2777
   74MOL0     H 9923   6.386   0.652   3.299  0.2579 -0.5521 -1.0276
   74MOL0     H 9924   6.546   0.820   3.275  1.5786  1.0612  0.0091
   74MOL0     H 9925   6.767   0.891   3.230 -1.3164 -0.6966 -0.5353
   74MOL0     H 9926   6.695   0.999   3.357  1.8593  2.6804  0.9962
   74MOL0     H 9927   6.924   1.043   3.430 -0.0864 -1.7762 -0.1538
   74MOL0     H 9928   6.856   1.128   3.291 -1.1298 -0.0756 -1.1251
   74MOL0     H 9929   7.008   0.941   3.151 -0.3902 -2.4386  0.6773
   74MOL0     H 9930   7.041   0.871   3.302  1.3462 -1.9681 -2.5775
   74MOL0     H 9931   7.139   1.122   3.182 -0.7544 -1.0711 -1.3016
   74MOL0     H 9932   7.167   1.099   3.361  0.0317 -0.5790  0.3602
   74MOL0     H 9933   7.324   0.938   3.342  1.0123 -0.2354  0.0785
   74MOL0     H 9934   7.278   0.902   3.174  1.7033 -1.2852  1.4074
   74MOL0     H 9935   7.367   1.098   3.090  1.3291 -1.9286 -1.0838
   74MOL0     H 9936   7.406   1.167   3.256  2.5550  0.7199 -0.9106
   74MOL0     H 9937   7.520   0.918   3.155 -3.1608 -0.3720 -0.6881
   74MOL0     H 9938   7.548   0.998   3.310  2.2671  3.1864 -1.0974
   74MOL0     H 9939   7.619   1.096   3.035 -0.2278  1.2113 -0.5918
   74MOL0     H 9940   7.612   1.204   3.164 -4.4025 -0.7317 -0.8633
   74MOL0     H 9941   7.852   0.961   2.984 -0.9495  0.4793  0.0257
   74MOL0     H 9942   8.109   0.823   3.230  1.0445 -1.5007 -0.9484
   74MOL0     H 9943   8.057   0.808   3.052  1.1330  1.1788 -0.7311
   74MOL0     H 9944   8.148   1.020   3.009  0.0403 -1.9489 -0.6469
   74MOL0     H 9945   8.202   1.049   3.180  0.3689 -0.5641  0.4424
   74MOL0     H 9946   8.310   0.822   3.001 -0.5034 -0.3738 -0.3739
   74MOL0     H 9947   8.377   0.874   3.156 -1.4467 -1.1113 -0.1694
   74MOL0     H 9948   8.456   1.086   3.079  3.4707  0.1663 -0.8225
   74MOL0     H 9949   8.351   1.059   2.938 -1.0440 -2.0601  0.2096
   74MOL0     H 9950   8.759   0.884   2.850  0.4217 -1.7846  0.4505
   74MOL0     H 9951   8.985   0.853   2.976  1.3053  0.6608  2.5039
   74MOL0     H 9952   9.248   0.974   3.369 -1.5158  1.0577  0.4316
   74MOL0     H 9953   9.432   0.923   3.528  0.7934 -0.9232  1.6098
   74MOL0     H 9954   9.512   0.637   3.557 -2.7289  2.9788 -1.3270
   74MOL0     H 9955   9.596   0.782   3.617 -3.3983  1.4690 -1.7240
   74MOL0     H 9956   9.638   0.640   3.837 -0.3433 -4.0893  2.3828
   74MOL0     H 9957   9.573   0.499   3.752  1.4474 -0.2678  0.1525
   74MOL0     H 9958   9.761   0.546   3.575 -0.5293 -1.0469  0.1274
   74MOL0     H 9959   9.819   0.657   3.705 -1.2378  0.6549  1.1258
   74MOL0     H 9960   9.761   0.360   3.740  0.0052 -0.3647 -1.1169
   74MOL0     H 9961   9.819   0.464   3.865  0.8447 -0.8088  0.4914
   74MOL0     H 9962  10.030   0.525   3.722 -0.2252  0.5445 -0.3971
   74MOL0     H 9963   9.988   0.369   3.639  3.0898  1.0655  0.2388
   74MOL0     H 9964  10.039   0.423   3.938  0.1821  0.6472  0.1111
   74MOL0     H 9965   9.985   0.272   3.863 -1.7323  1.3494 -2.8602
   74MOL0     H 9966  10.231   0.409   3.756 -1.7544  0.8676 -0.2839
   74MOL0     H 9967  10.166   0.247   3.731  1.5436 -1.4285  2.1992
   74MOL0     H 9968  10.259   0.358   4.000 -1.3221 -2.5077  1.5915
   74MOL0     H 9969  10.224   0.194   3.975 -1.2680 -0.8892 -1.4950
   74MOL0     H 9970   9.191   0.625   3.720  1.7326 -0.6823 -0.1489
   74MOL0     H 9971   8.996   0.684   3.576  0.8736 -3.3741 -0.0565
   74MOL0     H 9972   8.766   0.934   3.331  1.8493 -1.2940 -0.2006
   74MOL0     H 9973   8.573   0.981   3.214  0.0187  0.1600 -0.4486
   74MOL0     H 9974   6.780   0.649   3.595  0.7221 -0.4917 -0.4945
   74MOL0     H 9975   6.582   0.472   3.639  2.9781 -0.2749 -0.1071
   74MOL0     H 9976   6.152   0.418   3.580  0.9276 -0.9589  1.0847
   74MOL0     H 9977   5.968   0.268   3.647  0.0529  0.7745 -0.4188
   74MOL0     H 9978   5.998  -0.176   3.532 -0.8762 -0.4079 -3.6757
   74MOL0     H 9979   5.904  -0.060   3.442 -2.6423 -1.1234 -0.4649
   74MOL0     H 9980   5.776  -0.262   3.528  0.1878  0.8375 -1.3282
   74MOL0     H 9981   5.711  -0.099   3.555  0.1996  0.1372 -2.1173
   74MOL0     H 9982   5.758  -0.114   3.793  2.1681  0.6017 -0.1393
   74MOL0     H 9983   5.875  -0.242   3.767  0.0511  1.3590  0.4547
   74MOL0     H 9984   5.714  -0.403   3.697 -3.3676 -0.7295  0.0103
   74MOL0     H 9985   5.674  -0.343   3.854  0.8353  1.7871  0.4396
   74MOL0     H 9986   5.319  -0.231   3.701 -0.2781 -1.4073  1.4017
   74MOL0     H 9987   6.174  -0.060   3.457  0.8490  0.2337 -2.2346
   74MOL0     H 9988   6.392   0.090   3.279 -1.4115  0.1001 -0.3917
   74MOL0     H 9989   6.466   0.055   3.438  0.7736  1.3206 -1.8819
   74MOL0     H 9990   6.360  -0.053   3.369  0.6722 -0.0735 -5.0010
   75MOL0     O 9991   0.541   7.416   9.351  0.4230  0.0395  0.2839
   75MOL0     C 9992   0.567   7.350   9.253 -0.8311  0.2043  0.2444
   75MOL0     O 9993   0.503   7.373   9.132 -0.4959 -0.0533  0.1053
   75MOL0     C 9994   0.409   7.473   9.122  0.8645  0.2041  0.2658
   75MOL0     C 9995   0.442   7.605   9.113  0.6901 -0.1708 -0.8393
   75MOL0     C 9996   0.352   7.708   9.095  0.3982  0.4030 -0.6203
   75MOL0     C 9997   0.215   7.673   9.076 -0.1910 -0.1306 -0.3116
   75MOL0     O 9998   0.108   7.752   9.038  0.2866 -0.2741 -0.7230
   75MOL0     C 9999   0.150   7.877   8.981  0.2961 -0.4395  0.3049
   75MOL0     C10000   0.025   7.948   8.930  0.5111 -0.1944  0.4250
   75MOL0     C10001   0.051   8.086   8.872  0.0027  0.6824 -0.4640
   75MOL0     C10002   0.164   8.167   8.939  0.1440  0.6174  0.4158
   75MOL0     C10003   0.157   8.325   8.910  0.0621  0.4187  0.3395
   75MOL0     C10004   0.167   8.354   8.759 -0.6201  0.7713 -0.0857
   75MOL0     C10005   0.120   8.496   8.739 -0.0100  0.5144  0.9210
   75MOL0     C10006   0.145   8.558   8.596  0.1448  0.2743  0.1259
   75MOL0     N10007   0.283   8.546   8.555 -0.4495  0.1020 -0.1140
   75MOL0     C10008   0.391   8.612   8.612 -0.0774  0.0454 -0.8356
   75MOL0     C10009   0.501   8.566   8.539  0.1528  0.5815 -0.6136
   75MOL0     C10010   0.635   8.628   8.565  0.7319  0.3474  0.0368
   75MOL0     C10011   0.724   8.531   8.639 -0.3801  0.1658  0.4678
   75MOL0     C10012   0.855   8.596   8.686  0.5113 -0.4707 -0.3107
   75MOL0     C10013   0.954   8.646   8.574 -0.3601 -0.1667  0.2488
   75MOL0     O10014   1.018   8.539   8.497 -0.8959  0.5054  0.2404
   75MOL0     C10015   1.151   8.528   8.526 -0.6675  0.3959 -0.6950
   75MOL0     C10016   1.198   8.407   8.587  0.1297 -0.1088  0.3974
   75MOL0     C10017   1.340   8.406   8.621  0.0922  0.8669  0.0404
   75MOL0     C10018   1.425   8.514   8.596 -0.1501 -0.5410 -0.4279
   75MOL0     C10019   1.564   8.523   8.645 -0.4782 -0.7931  0.4430
   75MOL0     O10020   1.637   8.625   8.594  0.1662  0.0688 -0.0645
   75MOL0     C10021   1.753   8.661   8.661 -0.1398  0.2624  0.0216
   75MOL0     C10022   1.874   8.680   8.590 -0.0213  0.7284  0.9239
   75MOL0     C10023   1.972   8.764   8.648 -0.6514  0.6158  0.9343
   75MOL0     C10024   1.962   8.805   8.777  0.5893 -0.5147 -0.1947
   75MOL0     O10025   2.075   8.866   8.818 -0.3520 -0.2328 -0.3680
   75MOL0     C10026   2.101   8.871   8.958 -0.5425  0.5637  0.3047
   75MOL0     C10027   2.159   8.735   8.998 -0.7482 -0.4771  0.0156
   75MOL0     C10028   2.310   8.719   8.960  0.3569  0.0207  0.2401
   75MOL0     C10029   2.318   8.709   8.802 -0.5071  0.3262 -0.4264
   75MOL0     C10030   2.434   8.620   8.754 -0.4871  0.0184 -0.3291
   75MOL0     C10031   2.560   8.699   8.767  0.6800 -0.0704  0.1484
   75MOL0     C10032   2.591   8.790   8.649 -0.5618 -0.9851  0.8118
   75MOL0     C10033   2.645   8.730   8.523 -0.1266  0.2786  0.3529
   75MOL0    Cl10034   2.818   8.712   8.544  0.3568  0.5419 -0.0489
   75MOL0     C10035   1.844   8.789   8.848 -1.2508 -0.4475  0.2465
   75MOL0     C10036   1.744   8.711   8.793 -0.0700  0.4644 -0.0536
   75MOL0     O10037   1.590   8.463   8.751 -0.4456  0.2008 -0.2188
   75MOL0     C10038   1.372   8.628   8.533 -0.1738 -0.1493 -0.0446
   75MOL0     C10039   1.243   8.637   8.506  1.1654 -0.2136 -0.2373
   75MOL0     N10040   0.461   8.470   8.445 -0.0600 -0.2483 -0.3617
   75MOL0     N10041   0.331   8.462   8.459  0.4882  0.0110  0.0394
   75MOL0     C10042   0.179   7.540   9.084 -0.0784  0.9629 -0.0429
   75MOL0     C10043   0.276   7.435   9.110  1.4026  0.2490 -0.5618
   75MOL0     C10044   0.648   7.227   9.271 -0.1838  0.4070  0.3082
   75MOL0     C10045   0.605   7.109   9.207 -0.3293 -0.0270  0.2189
   75MOL0     C10046   0.675   6.992   9.209 -0.0844  0.1728  0.1368
   75MOL0     C10047   0.799   6.996   9.283 -0.5226 -0.0128  0.1138
   75MOL0     O10048   0.861   6.874   9.299  0.8671 -0.4984 -0.0944
   75MOL0     C10049   0.921   6.844   9.419 -0.7949  0.6214  0.8877
   75MOL0     C10050   1.067   6.831   9.377  0.2656 -0.6417 -0.7727
   75MOL0     C10051   1.164   6.770   9.478  0.2029 -0.5906 -0.4328
   75MOL0     C10052   1.304   6.764   9.428  0.4440  0.4432 -0.6446
   75MOL0     C10053   1.413   6.747   9.537  0.0520 -0.2477  0.8372
   75MOL0     C10054   1.506   6.737   9.616  0.0670  0.1442  0.7363
   75MOL0     C10055   0.842   7.112   9.346 -1.0411 -0.0570 -0.8896
   75MOL0     C10056   0.767   7.220   9.343 -1.7883 -0.2421  0.8871
   75MOL0     C10057   0.818   7.336   9.424  0.3068  0.3445  1.2396
   75MOL0     H10058   0.545   7.636   9.126 -0.0371  2.0574 -0.0120
   75MOL0     H10059   0.387   7.810   9.083  0.7786  0.5139  1.2449
   75MOL0     H10060   0.200   7.931   9.061 -0.9936 -0.3633  1.0938
   75MOL0     H10061   0.225   7.868   8.902  2.7412 -0.1673  2.4524
   75MOL0     H10062  -0.047   7.953   9.013 -0.7183  1.6231 -0.6821
   75MOL0     H10063  -0.016   7.878   8.856  1.4758  0.0332 -0.3339
   75MOL0     H10064  -0.041   8.144   8.884 -0.3034  0.0304  0.4618
   75MOL0     H10065   0.072   8.072   8.765 -0.2409  0.9648 -0.5513
   75MOL0     H10066   0.156   8.160   9.048 -2.1610  0.5017  0.2781
   75MOL0     H10067   0.264   8.136   8.908 -0.3918  0.1889 -0.9387
   75MOL0     H10068   0.056   8.358   8.936 -0.7556 -0.8991 -0.9843
   75MOL0     H10069   0.232   8.375   8.971  1.2113  0.3672 -0.9686
   75MOL0     H10070   0.269   8.338   8.724  0.2068  3.8855  0.5853
   75MOL0     H10071   0.105   8.282   8.706  0.5598 -0.0298 -0.4248
   75MOL0     H10072   0.159   8.553   8.823 -1.7335 -1.1497  2.9473
   75MOL0     H10073   0.011   8.500   8.742  0.0029  3.3107 -0.1855
   75MOL0     H10074   0.072   8.497   8.541 -0.0125  0.4704  0.1169
   75MOL0     H10075   0.114   8.662   8.606  0.5515  0.5734 -1.4870
   75MOL0     H10076   0.389   8.689   8.688  1.6875 -1.2894  0.6545
   75MOL0     H10077   0.670   8.659   8.465  0.1384 -0.2521 -0.3654
   75MOL0     H10078   0.630   8.714   8.632  1.5872  0.2073  0.2904
   75MOL0     H10079   0.668   8.488   8.722  0.4598 -2.2857 -0.1459
   75MOL0     H10080   0.740   8.445   8.574 -0.7626  1.7663 -1.8915
   75MOL0     H10081   0.905   8.522   8.750  0.5334 -0.8531 -0.7717
   75MOL0     H10082   0.841   8.680   8.756  1.1767 -0.9985  0.4793
   75MOL0     H10083   1.031   8.707   8.623 -1.7717  0.8268  1.2884
   75MOL0     H10084   0.884   8.708   8.517 -1.3490 -0.9359  0.5979
   75MOL0     H10085   1.130   8.323   8.597 -0.3622  0.0883 -1.0281
   75MOL0     H10086   1.374   8.323   8.683  1.0007  0.5792 -0.8152
   75MOL0     H10087   1.890   8.647   8.488  1.4691  0.4297  1.2371
   75MOL0     H10088   2.066   8.766   8.593  0.3156  3.7837  2.4304
   75MOL0     H10089   2.168   8.955   8.979 -0.4060  1.0694 -1.8840
   75MOL0     H10090   2.011   8.886   9.018  0.2794  1.3445  1.4005
   75MOL0     H10091   2.157   8.727   9.107  1.8260 -0.8251  0.0972
   75MOL0     H10092   2.091   8.658   8.961 -0.5782 -0.5751 -0.0935
   75MOL0     H10093   2.376   8.796   9.000  0.2271  2.1464 -3.2549
   75MOL0     H10094   2.352   8.627   9.002 -0.3838  0.6928  2.6045
   75MOL0     H10095   2.313   8.804   8.746  2.0659 -0.6588 -2.5463
   75MOL0     H10096   2.222   8.660   8.782 -1.9093  1.7113  2.2626
   75MOL0     H10097   2.414   8.588   8.651 -0.2189 -2.1340  0.2396
   75MOL0     H10098   2.441   8.528   8.812 -1.3125  0.2540  0.1656
   75MOL0     H10099   2.560   8.762   8.856  1.9023 -1.2582  1.0401
   75MOL0     H10100   2.644   8.632   8.788  1.2058  0.7453  0.7043
   75MOL0     H10101   2.661   8.869   8.677 -0.9033 -1.4146  3.0992
   75MOL0     H10102   2.496   8.842   8.638  0.0800  0.8609  3.1690
   75MOL0     H10103   2.595   8.634   8.505 -1.6098  1.2484 -0.9163
   75MOL0     H10104   2.627   8.799   8.440  0.1277 -0.9532 -0.7765
   75MOL0     H10105   1.822   8.826   8.948 -0.5215  2.8062 -0.6881
   75MOL0     H10106   1.648   8.698   8.841  0.6225  0.1970  1.3056
   75MOL0     H10107   1.430   8.715   8.506 -1.8735  1.2477  0.6701
   75MOL0     H10108   1.198   8.726   8.463  1.4763 -0.6835 -1.5977
   75MOL0     H10109   0.079   7.506   9.061  0.0551  0.9960 -0.6806
   75MOL0     H10110   0.235   7.335   9.110 -1.7510  1.3946  1.7945
   75MOL0     H10111   0.508   7.115   9.160 -0.5999 -0.5782  0.7050
   75MOL0     H10112   0.636   6.901   9.164  0.4499 -0.5485  1.0739
   75MOL0     H10113   0.880   6.751   9.460  2.0340 -1.8511 -1.4408
   75MOL0     H10114   0.924   6.923   9.495  1.8111 -0.8046  2.4339
   75MOL0     H10115   1.107   6.930   9.354 -2.4306  0.5828 -0.6341
   75MOL0     H10116   1.066   6.769   9.287 -1.2130 -0.3978 -0.9543
   75MOL0     H10117   1.137   6.669   9.511  1.4115 -0.6738  0.3454
   75MOL0     H10118   1.161   6.835   9.566 -3.3553 -3.3930  1.8358
   75MOL0     H10119   1.304   6.679   9.360  0.4011 -1.7251  1.8952
   75MOL0     H10120   1.333   6.850   9.366  1.0368 -0.0482 -1.0542
   75MOL0     H10121   1.597   6.728   9.673  0.6845 -1.0131 -0.3698
   75MOL0     H10122   0.921   7.111   9.419 -1.2320 -1.9343 -0.6481
   75MOL0     H10123   0.924   7.321   9.445  0.3754  0.0421  0.7000
   75MOL0     H10124   0.804   7.422   9.358  2.5919 -3.0547 -4.4459
   75MOL0     H10125   0.760   7.345   9.516 -1.5057 -3.1451  0.6130
   76MOL0     O10126   8.844  11.070   2.396  0.1454 -0.2292  0.1647
   76MOL0     C10127   8.827  11.012   2.289 -1.5472 -0.2626 -0.2350
   76MOL0     O10128   8.912  11.023   2.173  0.3043  0.2919  0.5017
   76MOL0     C10129   9.026  11.093   2.194 -0.6646  0.1481  0.2474
   76MOL0     C10130   9.043  11.213   2.128 -0.6420  0.0280 -0.1440
   76MOL0     C10131   9.152  11.292   2.152 -0.2899 -0.1760 -0.4635
   76MOL0     C10132   9.261  11.240   2.233 -0.7366  0.1810 -0.0327
   76MOL0     O10133   9.375  11.310   2.259  1.2674  0.0390  0.1815
   76MOL0     C10134   9.391  11.437   2.195  0.4881 -0.4293  0.0658
   76MOL0     C10135   9.524  11.497   2.251  0.9178 -0.3437 -0.1957
   76MOL0     C10136   9.511  11.568   2.381  0.4288 -0.0583 -0.1954
   76MOL0     C10137   9.649  11.605   2.434  0.5071  0.6660 -0.4557
   76MOL0     C10138   9.651  11.713   2.547 -0.2181  0.0942 -0.6563
   76MOL0     C10139   9.789  11.743   2.614  0.1614  0.0844 -0.7745
   76MOL0     C10140   9.911  11.743   2.517  0.1116  0.5522 -0.6112
   76MOL0     C10141  10.045  11.733   2.586  0.7062 -0.0918  1.5490
   76MOL0     N10142  10.081  11.844   2.676  0.1275  0.7645 -0.8284
   76MOL0     C10143  10.054  11.835   2.813  0.2170 -0.4693 -0.1163
   76MOL0     C10144  10.097  11.953   2.854 -0.7732 -0.1004  0.1214
   76MOL0     C10145  10.098  12.005   2.995 -0.7711  0.4110 -1.1481
   76MOL0     C10146  10.229  11.972   3.061  0.0012  0.3078 -0.2262
   76MOL0     C10147  10.291  11.830   3.040 -0.6823 -0.9472 -0.0520
   76MOL0     C10148  10.434  11.820   3.095 -0.7778 -0.3716  0.0310
   76MOL0     O10149  10.521  11.927   3.059  0.2619  0.1804  0.7227
   76MOL0     C10150  10.660  11.908   3.056  0.3066  0.6613 -0.7048
   76MOL0     C10151  10.716  11.782   3.102 -0.7796 -0.1229 -0.0836
   76MOL0     C10152  10.854  11.773   3.093 -0.3610  0.1133  0.0389
   76MOL0     C10153  10.942  11.861   3.034 -0.1312  0.3063 -0.3207
   76MOL0     C10154  11.090  11.831   3.032 -0.0739  0.1564  0.0696
   76MOL0     O10155  11.128  11.717   3.096  0.1202  0.3389  0.7889
   76MOL0     C10156  11.269  11.682   3.097  0.4674 -0.5005  0.4244
   76MOL0     C10157  11.333  11.681   3.222  0.7767  0.1377 -0.0205
   76MOL0     C10158  11.471  11.642   3.235  0.7185 -0.1241  0.8680
   76MOL0     C10159  11.543  11.630   3.124  0.2111 -0.0103  0.3448
   76MOL0     O10160  11.682  11.604   3.122 -0.0224 -0.4582  0.1894
   76MOL0     C10161  11.751  11.531   3.224  0.8990  0.3605  0.7093
   76MOL0     C10162  11.876  11.478   3.152  0.3755  0.2531 -0.2367
   76MOL0     C10163  11.978  11.407   3.238  0.4568  0.9924 -0.3480
   76MOL0     C10164  11.948  11.256   3.236  0.1744  0.4684 -0.1020
   76MOL0     C10165  12.010  11.191   3.359  0.1205 -0.0465  0.5252
   76MOL0     C10166  12.019  11.042   3.343  0.0652  0.7592  1.3126
   76MOL0     C10167  12.063  10.968   3.469  0.3422 -0.0207 -0.4736
   76MOL0     C10168  12.072  10.826   3.435 -1.2528 -0.4702  0.4274
   76MOL0    Cl10169  11.908  10.757   3.428  0.0066  0.5689  0.1316
   76MOL0     C10170  11.485  11.638   2.995 -0.0246  0.4930  0.0325
   76MOL0     C10171  11.349  11.662   2.987  0.5522  0.0355  0.2220
   76MOL0     O10172  11.163  11.910   2.981 -0.1815 -0.6155  0.3803
   76MOL0     C10173  10.885  11.975   2.982  0.7638  0.1517  0.0396
   76MOL0     C10174  10.743  11.998   2.993 -1.1347  0.2740  0.9939
   76MOL0     N10175  10.141  12.024   2.745 -0.4291 -0.9894 -0.3141
   76MOL0     N10176  10.140  11.957   2.642 -0.0514  0.9037  0.2038
   76MOL0     C10177   9.255  11.109   2.283 -1.4296  0.0492 -0.7909
   76MOL0     C10178   9.140  11.042   2.268  0.5229 -0.8731 -0.0503
   76MOL0     C10179   8.717  10.913   2.278 -0.2302  0.5748 -0.0481
   76MOL0     C10180   8.727  10.819   2.171 -0.4660 -0.6660  0.6986
   76MOL0     C10181   8.634  10.729   2.142 -0.0813  0.7260  0.0039
   76MOL0     C10182   8.514  10.728   2.215  0.4465  0.0655 -0.4752
   76MOL0     O10183   8.418  10.638   2.180 -0.5827  0.3426  0.7093
   76MOL0     C10184   8.304  10.613   2.262  0.4623 -0.4918 -0.2257
   76MOL0     C10185   8.222  10.505   2.202  0.7968 -0.3678 -0.5132
   76MOL0     C10186   8.293  10.365   2.225  1.0601 -0.5033 -0.1378
   76MOL0     C10187   8.209  10.252   2.168 -0.6184  0.3508  0.3693
   76MOL0     C10188   8.287  10.126   2.172  0.0051  0.7354 -0.2870
   76MOL0     C10189   8.334  10.017   2.206  0.1370  0.1398 -0.7056
   76MOL0     C10190   8.511  10.811   2.330  0.2502 -0.3519 -0.4486
   76MOL0     C10191   8.613  10.886   2.375 -0.7228 -0.2703 -0.4251
   76MOL0     C10192   8.599  10.960   2.506  0.2745  0.6019 -0.0128
   76MOL0     H10193   8.966  11.254   2.063 -0.5643  0.2247 -0.1148
   76MOL0     H10194   9.163  11.390   2.107  2.3408  0.0340  0.4511
   76MOL0     H10195   9.386  11.430   2.086  0.7956  0.4081 -0.0089
   76MOL0     H10196   9.308  11.504   2.220 -0.5875 -1.6829 -0.0479
   76MOL0     H10197   9.565  11.566   2.177  0.2590  1.4450  1.0270
   76MOL0     H10198   9.592  11.413   2.269 -0.1602 -1.8212 -2.5225
   76MOL0     H10199   9.460  11.512   2.461 -1.9320  0.4259 -1.2746
   76MOL0     H10200   9.457  11.661   2.366 -1.7204 -0.8563  1.8908
   76MOL0     H10201   9.705  11.521   2.475 -0.8141  0.0556  0.1491
   76MOL0     H10202   9.705  11.646   2.350  1.1461 -0.3173 -0.5174
   76MOL0     H10203   9.615  11.810   2.511  3.5990  2.5193  1.3981
   76MOL0     H10204   9.581  11.687   2.627  2.0598 -1.4132  0.9757
   76MOL0     H10205   9.778  11.837   2.669  1.3697 -0.7394  0.9862
   76MOL0     H10206   9.800  11.662   2.687 -3.1911  0.1519 -0.0393
   76MOL0     H10207   9.891  11.833   2.457 -0.4198  2.0588  1.7144
   76MOL0     H10208   9.895  11.661   2.446 -1.8406  0.1134  0.2677
   76MOL0     H10209  10.060  11.640   2.642 -2.3689 -1.9868 -0.4714
   76MOL0     H10210  10.120  11.731   2.507 -1.8769 -1.0383 -1.0736
   76MOL0     H10211  10.009  11.753   2.868 -0.4426  1.1599  1.8775
   76MOL0     H10212  10.088  12.114   3.004 -0.1540  0.3808  0.1179
   76MOL0     H10213  10.016  11.957   3.049  0.0861  0.7182  0.5074
   76MOL0     H10214  10.296  12.039   3.006  0.6302 -0.5970 -0.5937
   76MOL0     H10215  10.225  11.992   3.168  2.7138 -0.9300  0.2071
   76MOL0     H10216  10.308  11.813   2.933  0.4738  0.1466 -0.0742
   76MOL0     H10217  10.239  11.740   3.073  2.8298 -3.4855 -0.8366
   76MOL0     H10218  10.467  11.720   3.067 -5.3294 -1.7786 -1.2678
   76MOL0     H10219  10.427  11.806   3.204 -1.2332 -1.3667 -0.1163
   76MOL0     H10220  10.660  11.703   3.151  1.9995 -0.7942  2.2240
   76MOL0     H10221  10.888  11.674   3.122 -1.0792 -0.6083 -1.5168
   76MOL0     H10222  11.277  11.707   3.311 -1.0786  1.2420 -1.4257
   76MOL0     H10223  11.531  11.650   3.326  1.2600  2.1753  0.3551
   76MOL0     H10224  11.774  11.601   3.305  1.4396 -0.0036  0.8781
   76MOL0     H10225  11.692  11.448   3.264 -0.3361 -1.0034 -3.4513
   76MOL0     H10226  11.864  11.427   3.056 -1.0913  0.3037 -0.1001
   76MOL0     H10227  11.924  11.574   3.126  0.7908  0.5585  1.5217
   76MOL0     H10228  12.081  11.429   3.208  0.1315  1.5886 -1.0395
   76MOL0     H10229  11.977  11.427   3.346  3.0784 -3.8932  0.9124
   76MOL0     H10230  11.990  11.209   3.147  4.0339  0.2784  1.6092
   76MOL0     H10231  11.842  11.231   3.240  0.0260  0.6880 -1.9427
   76MOL0     H10232  11.951  11.218   3.447 -2.4578  0.7974 -1.3194
   76MOL0     H10233  12.114  11.223   3.365  0.0174  0.9997 -1.9706
   76MOL0     H10234  11.923  10.994   3.320  1.4974 -1.4290 -0.5054
   76MOL0     H10235  12.088  11.018   3.262  0.1148  0.3903  1.4642
   76MOL0     H10236  11.991  10.970   3.551  2.2162 -4.7165  1.6352
   76MOL0     H10237  12.162  10.996   3.504  1.2890 -0.6862 -2.4239
   76MOL0     H10238  12.128  10.813   3.342 -0.1752 -2.8500  1.3289
   76MOL0     H10239  12.137  10.774   3.506  0.5773 -1.0073 -1.5012
   76MOL0     H10240  11.551  11.598   2.918 -0.8905 -1.5797  0.3018
   76MOL0     H10241  11.303  11.661   2.889  2.7662 -0.2388 -0.8625
   76MOL0     H10242  10.944  12.056   2.940 -0.1372  0.3535 -0.8942
   76MOL0     H10243  10.695  12.079   2.939 -1.6989 -1.2437 -0.9176
   76MOL0     H10244   9.345  11.075   2.334 -0.7964  0.2093 -1.7616
   76MOL0     H10245   9.130  10.941   2.308  0.8410 -0.3956  1.2745
   76MOL0     H10246   8.808  10.831   2.099 -3.8910 -0.4118 -3.5786
   76MOL0     H10247   8.627  10.670   2.052 -0.3308 -1.2370  1.2452
   76MOL0     H10248   8.243  10.704   2.267 -2.8237 -2.5401  0.0612
   76MOL0     H10249   8.346  10.589   2.360  0.0632 -0.4807 -0.0509
   76MOL0     H10250   8.201  10.530   2.098 -0.4358  1.1536  0.0552
   76MOL0     H10251   8.126  10.505   2.255  0.8376 -1.2219 -0.4361
   76MOL0     H10252   8.311  10.349   2.331  0.8454 -0.6822 -0.1302
   76MOL0     H10253   8.389  10.366   2.172  0.9229 -0.9852 -0.4023
   76MOL0     H10254   8.117  10.243   2.225 -1.0295 -0.2054 -0.3578
   76MOL0     H10255   8.186  10.278   2.064  0.5183 -1.0483 -0.2560
   76MOL0     H10256   8.370   9.917   2.217 -1.4065 -0.4376 -0.6344
   76MOL0     H10257   8.421  10.815   2.391  2.1787 -0.4322  2.6622
   76MOL0     H10258   8.678  10.932   2.577 -1.0294  2.6451  2.4488
   76MOL0     H10259   8.610  11.067   2.484  2.5981  0.2278 -0.9573
   76MOL0     H10260   8.498  10.952   2.546 -0.4439  2.2212 -1.4298
   77MOL0     O10261   3.419   9.664   1.597  0.3686  0.3182  0.2246
   77MOL0     C10262   3.440   9.728   1.497  0.3792  0.1833 -0.0860
   77MOL0     O10263   3.567   9.761   1.450  0.1323 -0.6711  0.2982
   77MOL0     C10264   3.682   9.707   1.493 -0.5481 -0.5469 -0.2926
   77MOL0     C10265   3.730   9.711   1.627 -0.7527 -0.9112  0.3565
   77MOL0     C10266   3.861   9.658   1.659  0.1336 -0.9114  0.2158
   77MOL0     C10267   3.947   9.600   1.567  1.1630 -0.0492  0.5393
   77MOL0     O10268   4.068   9.576   1.609 -0.2449  0.1993  0.9299
   77MOL0     C10269   4.176   9.550   1.515 -0.7074 -0.5823  0.1116
   77MOL0     C10270   4.299   9.515   1.596 -0.3404 -0.0540  0.6622
   77MOL0     C10271   4.419   9.490   1.505 -0.1682 -0.2618  0.0266
   77MOL0     C10272   4.550   9.514   1.576  0.2942 -0.0041 -0.5014
   77MOL0     C10273   4.668   9.487   1.492  0.2324 -0.0189 -0.3746
   77MOL0     C10274   4.804   9.482   1.581  0.6999  0.5949 -0.0954
   77MOL0     C10275   4.860   9.623   1.596 -0.3328 -0.6786  0.1213
   77MOL0     C10276   4.997   9.619   1.668  0.3796  0.4403 -0.1343
   77MOL0     N10277   5.114   9.638   1.578  0.0131  0.0697 -0.5488
   77MOL0     C10278   5.195   9.532   1.546  0.3022  0.3130 -1.0163
   77MOL0     C10279   5.299   9.585   1.477  0.3026  0.2220 -0.2160
   77MOL0     C10280   5.413   9.500   1.429 -0.5325  0.2358  0.7340
   77MOL0     C10281   5.507   9.492   1.551  0.0793  0.4441 -0.4454
   77MOL0     C10282   5.615   9.395   1.529  0.3993 -0.1312  0.8501
   77MOL0     C10283   5.691   9.428   1.403 -0.3097  0.0660 -0.4182
   77MOL0     O10284   5.828   9.393   1.428  0.0461 -0.3349 -0.1159
   77MOL0     C10285   5.924   9.464   1.363 -0.2888  0.3859 -0.2590
   77MOL0     C10286   6.057   9.424   1.390  0.0473 -0.2993  0.1762
   77MOL0     C10287   6.166   9.489   1.325  0.2011  0.8585 -0.2376
   77MOL0     C10288   6.156   9.587   1.232  0.5632  0.1758  0.5909
   77MOL0     C10289   6.271   9.643   1.165  0.0708  0.2169  0.4088
   77MOL0     O10290   6.392   9.632   1.230 -0.0665 -0.2249  0.2334
   77MOL0     C10291   6.506   9.675   1.155  0.8710  0.0424  0.3316
   77MOL0     C10292   6.551   9.810   1.152 -0.0812 -0.1574 -0.2418
   77MOL0     C10293   6.663   9.857   1.077  0.4876  0.1803  0.0797
   77MOL0     C10294   6.738   9.763   1.010 -0.1118  0.1661  0.1878
   77MOL0     O10295   6.841   9.813   0.939 -0.5274 -0.2119  0.1693
   77MOL0     C10296   6.905   9.730   0.841  0.0291 -0.1698 -0.2956
   77MOL0     C10297   7.013   9.816   0.765  0.0476 -0.5409  0.1976
   77MOL0     C10298   7.067   9.755   0.630  0.5236 -0.2167 -0.1169
   77MOL0     C10299   7.205   9.815   0.597 -0.0640  0.2076  0.1663
   77MOL0     C10300   7.269   9.748   0.465 -0.3232  0.1956 -1.3336
   77MOL0     C10301   7.401   9.797   0.420  0.5104 -0.5068  0.2543
   77MOL0     C10302   7.440   9.753   0.285  0.1572  0.5351  0.2389
   77MOL0     C10303   7.563   9.828   0.227  0.0200 -0.2750 -0.2394
   77MOL0    Cl10304   7.594   9.787   0.063  0.2803 -0.0829 -0.2102
   77MOL0     C10305   6.702   9.626   1.016  1.0861  0.4978 -0.9373
   77MOL0     C10306   6.588   9.582   1.093 -0.2005 -0.0274  0.2399
   77MOL0     O10307   6.253   9.691   1.051 -0.9662 -0.5052 -0.2673
   77MOL0     C10308   6.022   9.625   1.199  0.3014 -0.2421  0.0442
   77MOL0     C10309   5.911   9.563   1.262 -0.8704 -0.7411 -0.5845
   77MOL0     N10310   5.278   9.719   1.474  0.6205 -0.3553  0.0039
   77MOL0     N10311   5.173   9.757   1.539  0.3341  1.4801  0.3593
   77MOL0     C10312   3.900   9.612   1.433  0.4175 -0.0362 -0.1122
   77MOL0     C10313   3.766   9.654   1.404 -0.7589  0.3554 -0.1604
   77MOL0     C10314   3.322   9.816   1.443 -0.2707  0.1810  0.0968
   77MOL0     C10315   3.354   9.914   1.350  0.3700 -0.9082  0.7726
   77MOL0     C10316   3.257   9.986   1.282  0.9167  0.2611 -0.3352
   77MOL0     C10317   3.117   9.954   1.289 -0.4834 -0.3725 -0.3421
   77MOL0     O10318   3.030  10.012   1.196 -0.0582  0.5080 -0.1310
   77MOL0     C10319   2.906   9.957   1.185  0.1332 -0.8587 -0.1985
   77MOL0     C10320   2.833  10.058   1.096  0.0730 -0.3781  0.4393
   77MOL0     C10321   2.687  10.011   1.071 -0.2436  0.0894 -0.3819
   77MOL0     C10322   2.589  10.040   1.181 -0.4217 -1.0807 -0.3893
   77MOL0     C10323   2.450  10.051   1.132 -0.5269 -0.0591 -0.1192
   77MOL0     C10324   2.333  10.053   1.096 -0.3751  0.1592  0.5644
   77MOL0     C10325   3.088   9.861   1.389 -0.6882  0.5353  0.0775
   77MOL0     C10326   3.180   9.787   1.463 -0.0669 -0.0172  0.1835
   77MOL0     C10327   3.130   9.677   1.557 -0.1495 -0.7413 -0.0390
   77MOL0     H10328   3.670   9.756   1.705 -1.9582  1.1021 -1.5803
   77MOL0     H10329   3.888   9.661   1.764  1.4317 -0.6485 -0.1131
   77MOL0     H10330   4.149   9.472   1.444 -2.1375 -0.5383  0.5655
   77MOL0     H10331   4.187   9.641   1.456 -0.1392 -0.5666  0.2306
   77MOL0     H10332   4.282   9.430   1.664  1.7266  0.1637  1.5210
   77MOL0     H10333   4.321   9.599   1.663  0.1774 -0.3973  0.9302
   77MOL0     H10334   4.410   9.550   1.414  2.3395 -0.7578 -0.6294
   77MOL0     H10335   4.420   9.387   1.469 -2.6011 -0.2470 -0.2514
   77MOL0     H10336   4.549   9.621   1.601 -1.4208 -0.1204  0.0700
   77MOL0     H10337   4.567   9.460   1.670 -0.3259  1.2007  0.3332
   77MOL0     H10338   4.669   9.397   1.430 -1.1432  0.4267 -1.0972
   77MOL0     H10339   4.672   9.569   1.419  0.0854  0.6549  0.3584
   77MOL0     H10340   4.793   9.441   1.682 -0.2927  1.1255  0.0136
   77MOL0     H10341   4.886   9.427   1.533 -0.0049 -1.7636  1.2672
   77MOL0     H10342   4.785   9.680   1.654  0.0893  0.4272 -0.3866
   77MOL0     H10343   4.865   9.678   1.502  0.2447  1.6447  1.4280
   77MOL0     H10344   4.994   9.704   1.737 -1.2505 -0.3418  0.8130
   77MOL0     H10345   5.014   9.527   1.724 -1.0922  0.7527  0.9072
   77MOL0     H10346   5.175   9.425   1.557 -0.0832  0.5297  0.7957
   77MOL0     H10347   5.390   9.399   1.396  0.1462 -0.4411  2.2576
   77MOL0     H10348   5.460   9.548   1.342 -0.9636  0.4370  0.6113
   77MOL0     H10349   5.555   9.589   1.561  2.0779 -0.4883 -0.5156
   77MOL0     H10350   5.446   9.467   1.638 -0.1400 -1.5307 -1.1053
   77MOL0     H10351   5.582   9.292   1.519  3.9516 -1.2427 -0.9756
   77MOL0     H10352   5.679   9.414   1.616  1.0519 -3.0202  1.0981
   77MOL0     H10353   5.681   9.530   1.365  4.6448  0.4407 -1.3594
   77MOL0     H10354   5.659   9.360   1.323 -3.1583 -0.5382  1.0824
   77MOL0     H10355   6.070   9.343   1.460 -0.8212 -1.3967 -0.8787
   77MOL0     H10356   6.263   9.459   1.364 -0.6282  1.2226  2.2723
   77MOL0     H10357   6.492   9.886   1.203 -0.8599 -1.6644  1.1846
   77MOL0     H10358   6.693   9.962   1.077  2.2602 -0.2757 -1.1707
   77MOL0     H10359   6.949   9.639   0.882 -0.4451 -0.2199  0.1107
   77MOL0     H10360   6.841   9.697   0.758  0.5778  0.7698 -1.1096
   77MOL0     H10361   6.992   9.922   0.751  1.6165 -0.3136 -0.7156
   77MOL0     H10362   7.097   9.817   0.834 -0.1542 -1.7844  0.4885
   77MOL0     H10363   7.079   9.649   0.653  2.8491 -0.0328 -0.3084
   77MOL0     H10364   7.003   9.777   0.544  3.6907  0.7726 -2.4206
   77MOL0     H10365   7.270   9.806   0.685 -1.3389  3.1032  1.5393
   77MOL0     H10366   7.193   9.921   0.575 -3.1210 -0.2590 -0.7936
   77MOL0     H10367   7.189   9.750   0.391 -0.9666  3.7025 -0.7302
   77MOL0     H10368   7.279   9.641   0.487 -2.1102  0.2473 -0.0406
   77MOL0     H10369   7.395   9.907   0.424  2.6740 -0.3671  3.5570
   77MOL0     H10370   7.485   9.771   0.484  2.2604 -0.6028 -1.9266
   77MOL0     H10371   7.359   9.754   0.211  0.0426  2.4010  0.3458
   77MOL0     H10372   7.467   9.649   0.302 -1.7325 -0.0322  0.0644
   77MOL0     H10373   7.560   9.937   0.235  1.5023 -0.3332  2.0236
   77MOL0     H10374   7.645   9.799   0.293 -0.6506 -2.1105 -0.1439
   77MOL0     H10375   6.761   9.551   0.966 -1.2426  0.2816 -3.5996
   77MOL0     H10376   6.575   9.475   1.100 -1.0915  0.0146 -0.5337
   77MOL0     H10377   6.005   9.705   1.127  0.1591  1.4843  1.8909
   77MOL0     H10378   5.818   9.606   1.225 -0.9579 -0.0008  0.4546
   77MOL0     H10379   3.973   9.575   1.362  0.5677 -0.3888  0.2221
   77MOL0     H10380   3.740   9.659   1.299  0.1457  3.1150 -0.3150
   77MOL0     H10381   3.457   9.934   1.320  0.1538 -0.2462  0.4508
   77MOL0     H10382   3.273  10.063   1.208  0.2267  0.5824 -0.1592
   77MOL0     H10383   2.853   9.971   1.279  1.9430  1.1987  0.6105
   77MOL0     H10384   2.903   9.857   1.142 -4.5124 -1.0570  0.1319
   77MOL0     H10385   2.885  10.049   1.000  0.0776  2.0286  0.1433
   77MOL0     H10386   2.842  10.162   1.129  1.6590 -0.6066  0.8068
   77MOL0     H10387   2.693   9.904   1.047 -0.8113  0.0233 -0.2237
   77MOL0     H10388   2.640  10.042   0.977 -1.8825 -0.4449  0.2373
   77MOL0     H10389   2.597   9.954   1.249 -1.4005 -2.6577 -2.1781
   77MOL0     H10390   2.602  10.139   1.227  2.3161 -0.5905 -2.0495
   77MOL0     H10391   2.237  10.055   1.048  0.1104  2.1483 -0.4071
   77MOL0     H10392   2.982   9.839   1.395 -1.0102  2.0714  0.5781
   77MOL0     H10393   3.170   9.693   1.658  0.0402  0.8990 -0.3491
   77MOL0     H10394   3.022   9.668   1.570 -0.5038  1.4937 -1.0315
   77MOL0     H10395   3.166   9.579   1.524 -0.8062 -0.7972 -0.6186
   78MOL0     O10396   1.580   7.187   8.445 -0.2698  0.7060  0.5900
   78MOL0     C10397   1.590   7.102   8.358 -0.3955  0.5366 -0.4118
   78MOL0     O10398   1.711   7.046   8.317 -0.1741 -0.3784  0.2789
   78MOL0     C10399   1.821   7.122   8.338  0.3217  0.2411  0.0919
   78MOL0     C10400   1.888   7.168   8.219  0.0748 -0.1729  0.5896
   78MOL0     C10401   2.012   7.242   8.233  0.4263 -0.0028  0.3236
   78MOL0     C10402   2.059   7.259   8.359 -0.9086 -0.5249 -0.1281
   78MOL0     O10403   2.182   7.315   8.370  0.1373 -0.0101  0.0266
   78MOL0     C10404   2.177   7.456   8.402  1.0536 -0.9616 -0.0335
   78MOL0     C10405   2.296   7.489   8.496 -0.8022 -1.0676 -0.4640
   78MOL0     C10406   2.427   7.468   8.424 -0.5848 -0.1047 -0.2008
   78MOL0     C10407   2.545   7.499   8.520  0.3298  0.0693 -0.2852
   78MOL0     C10408   2.677   7.483   8.449 -0.2358  0.1927  0.4163
   78MOL0     C10409   2.787   7.469   8.555 -0.1117 -0.3975 -0.3675
   78MOL0     C10410   2.926   7.458   8.483  0.6231 -0.0563 -0.7749
   78MOL0     C10411   3.040   7.440   8.582  1.0503  0.8443 -0.3899
   78MOL0     N10412   3.170   7.420   8.517  0.3795 -0.1431  0.0060
   78MOL0     C10413   3.190   7.327   8.411  0.7978 -0.5352 -0.3188
   78MOL0     C10414   3.318   7.313   8.402 -0.7149 -0.8646  0.8799
   78MOL0     C10415   3.388   7.219   8.306  0.0354  0.7639 -0.0926
   78MOL0     C10416   3.535   7.205   8.347  0.2076  0.0874  0.2347
   78MOL0     C10417   3.558   7.103   8.450 -0.0370 -0.8227  0.0789
   78MOL0     C10418   3.710   7.105   8.500 -0.1941 -0.6955 -0.5157
   78MOL0     O10419   3.798   7.046   8.405  0.0947 -0.1051 -0.1600
   78MOL0     C10420   3.927   7.056   8.460 -0.2347  0.3427 -0.3296
   78MOL0     C10421   3.992   6.944   8.504 -0.1803  1.0052 -0.0378
   78MOL0     C10422   4.120   6.953   8.562 -0.1271  0.5478 -0.1993
   78MOL0     C10423   4.176   7.079   8.589  0.4197 -0.0524 -0.4078
   78MOL0     C10424   4.300   7.095   8.664 -0.0062 -1.1405  0.2189
   78MOL0     O10425   4.344   7.224   8.691 -0.7162 -0.0746  0.3389
   78MOL0     C10426   4.470   7.234   8.760  0.0906 -0.1580  0.5009
   78MOL0     C10427   4.589   7.192   8.694 -0.0385 -0.5516  0.4143
   78MOL0     C10428   4.712   7.237   8.760  0.7893  0.0307 -0.5786
   78MOL0     C10429   4.714   7.294   8.890  0.0441  0.3377  0.1501
   78MOL0     O10430   4.829   7.308   8.962  0.7720 -0.8099  0.6699
   78MOL0     C10431   4.844   7.413   9.059  0.1691  0.5397  0.3371
   78MOL0     C10432   4.986   7.429   9.086 -0.4415  0.0453  0.1364
   78MOL0     C10433   5.068   7.298   9.096 -0.4337 -0.1400  1.0218
   78MOL0     C10434   5.202   7.318   9.160 -0.2587 -0.2891  0.1291
   78MOL0     C10435   5.305   7.210   9.114  0.9169 -0.6658 -0.1278
   78MOL0     C10436   5.440   7.252   9.166 -0.4855  0.1749  0.7847
   78MOL0     C10437   5.560   7.165   9.120  0.2709  0.0630 -0.0222
   78MOL0     C10438   5.700   7.215   9.148 -0.1952  0.1788 -0.4189
   78MOL0    Cl10439   5.732   7.362   9.049 -0.4513  0.2467 -0.3932
   78MOL0     C10440   4.594   7.335   8.944 -0.5037 -0.3796  0.1856
   78MOL0     C10441   4.475   7.299   8.887 -0.0266  0.1050  0.0329
   78MOL0     O10442   4.347   6.990   8.700  0.5934  0.1906 -0.5568
   78MOL0     C10443   4.108   7.190   8.542  0.3198 -1.1401  0.4503
   78MOL0     C10444   3.987   7.184   8.475  0.2604  0.0494  0.5931
   78MOL0     N10445   3.381   7.393   8.497  0.1145 -0.5708 -0.2504
   78MOL0     N10446   3.296   7.460   8.559 -0.6870  0.1702  0.2232
   78MOL0     C10447   1.991   7.219   8.476 -0.0324 -1.0218 -0.7101
   78MOL0     C10448   1.867   7.153   8.461 -1.3477 -0.0848  0.1674
   78MOL0     C10449   1.473   7.058   8.279 -1.4975 -0.5735 -0.0245
   78MOL0     C10450   1.467   6.923   8.234 -0.8363  0.0677  0.0864
   78MOL0     C10451   1.360   6.879   8.174 -0.0771  0.5846  0.4751
   78MOL0     C10452   1.245   6.961   8.148 -0.9148  0.4217  0.0105
   78MOL0     O10453   1.140   6.913   8.082  0.2180  0.1598 -0.1766
   78MOL0     C10454   1.086   6.792   8.145  0.0365  0.4445  0.2386
   78MOL0     C10455   0.932   6.780   8.146 -1.4032  0.1670  0.0140
   78MOL0     C10456   0.856   6.905   8.189 -0.1741 -0.1027 -0.3990
   78MOL0     C10457   0.698   6.885   8.188 -0.5485  0.6057 -0.2215
   78MOL0     C10458   0.650   6.865   8.322 -0.3153  0.5045  0.4499
   78MOL0     C10459   0.606   6.848   8.438 -0.5367 -0.6119 -0.3461
   78MOL0     C10460   1.253   7.097   8.192 -0.1786 -0.2141  0.3541
   78MOL0     C10461   1.360   7.149   8.259  0.5791  0.2727  0.4334
   78MOL0     C10462   1.358   7.300   8.286 -0.0776  1.5712  0.5409
   78MOL0     H10463   1.842   7.142   8.124  0.3728 -0.5398  0.5420
   78MOL0     H10464   2.066   7.269   8.143 -3.2838  3.3033 -1.2197
   78MOL0     H10465   2.185   7.513   8.309  0.4639  2.3714  1.7628
   78MOL0     H10466   2.087   7.496   8.450  1.5365  0.4537 -0.2645
   78MOL0     H10467   2.284   7.418   8.578  1.2904 -1.1535 -0.1601
   78MOL0     H10468   2.294   7.587   8.545 -1.2250 -2.0875  1.6732
   78MOL0     H10469   2.431   7.543   8.344  1.7442 -0.5093 -0.5383
   78MOL0     H10470   2.435   7.365   8.390  0.9440  0.4205 -1.6019
   78MOL0     H10471   2.550   7.599   8.563  0.8106  0.1925 -0.6195
   78MOL0     H10472   2.536   7.438   8.611 -1.0277  1.3750  0.5041
   78MOL0     H10473   2.682   7.393   8.388  1.5261  1.6445 -1.7674
   78MOL0     H10474   2.688   7.573   8.388 -0.5595  0.3324  0.5634
   78MOL0     H10475   2.780   7.553   8.626 -0.0050 -2.2528  1.9736
   78MOL0     H10476   2.768   7.377   8.611 -1.2872  0.6608  1.0646
   78MOL0     H10477   2.940   7.550   8.424  1.3618  0.1711 -0.2567
   78MOL0     H10478   2.915   7.377   8.411  0.1193  0.2061 -1.0003
   78MOL0     H10479   3.045   7.523   8.652  0.9471 -1.1814  2.1599
   78MOL0     H10480   3.010   7.353   8.641 -1.5837  1.7640 -0.2473
   78MOL0     H10481   3.119   7.285   8.341  1.4704  1.6269 -2.4205
   78MOL0     H10482   3.329   7.127   8.305  0.6187  0.3616  0.7777
   78MOL0     H10483   3.391   7.256   8.204 -0.9065 -1.2680 -0.9095
   78MOL0     H10484   3.576   7.163   8.254 -3.2566  1.1947 -1.9945
   78MOL0     H10485   3.578   7.302   8.374 -0.9112  0.1582  1.8428
   78MOL0     H10486   3.535   7.008   8.401 -2.0084 -0.2629 -0.1542
   78MOL0     H10487   3.489   7.123   8.533 -1.1559  0.2053 -1.0801
   78MOL0     H10488   3.723   7.053   8.596  1.4140  1.1127  0.3113
   78MOL0     H10489   3.732   7.211   8.514 -0.3222 -0.5845 -1.1494
   78MOL0     H10490   3.954   6.844   8.491  2.7345 -0.3096  0.8055
   78MOL0     H10491   4.165   6.865   8.607 -0.1371  1.9590  2.7958
   78MOL0     H10492   4.583   7.143   8.597 -0.8517  0.0143  0.1802
   78MOL0     H10493   4.807   7.211   8.715  0.4588 -3.3663  0.3827
   78MOL0     H10494   4.799   7.507   9.026  0.2119  0.6732  0.6524
   78MOL0     H10495   4.786   7.388   9.148  1.2905 -0.2721  0.8651
   78MOL0     H10496   5.025   7.496   9.009 -1.0906 -1.2306 -1.3336
   78MOL0     H10497   4.990   7.476   9.185 -2.1367 -0.3981  0.4577
   78MOL0     H10498   5.022   7.223   9.162  1.7877 -2.3085  0.2724
   78MOL0     H10499   5.088   7.249   9.001  0.1511 -1.0809  1.6096
   78MOL0     H10500   5.179   7.325   9.266 -0.3704  0.2075  0.0725
   78MOL0     H10501   5.245   7.416   9.135 -1.8608 -0.0122 -1.7262
   78MOL0     H10502   5.303   7.200   9.005  1.4611  2.3766 -0.5183
   78MOL0     H10503   5.283   7.109   9.148 -0.4105  0.1844  1.7674
   78MOL0     H10504   5.455   7.358   9.142 -0.9075  0.1459  0.3844
   78MOL0     H10505   5.437   7.249   9.275  1.2750 -3.7151  0.8834
   78MOL0     H10506   5.550   7.167   9.011 -0.2521 -1.2674 -0.0198
   78MOL0     H10507   5.554   7.066   9.166 -1.0386  0.7900  1.4714
   78MOL0     H10508   5.714   7.230   9.255  0.2359 -1.2383 -0.2477
   78MOL0     H10509   5.768   7.136   9.115 -0.7524 -0.6488  0.3314
   78MOL0     H10510   4.581   7.379   9.043 -0.0627 -1.0118  0.5268
   78MOL0     H10511   4.385   7.321   8.944 -1.1935 -1.2273 -1.2172
   78MOL0     H10512   4.153   7.287   8.560 -3.5927  0.8112  0.7753
   78MOL0     H10513   3.939   7.275   8.442 -1.2623  0.4222  3.5032
   78MOL0     H10514   2.038   7.222   8.573 -0.0601 -3.9454 -0.5402
   78MOL0     H10515   1.806   7.116   8.543 -1.8566 -1.8473 -0.9416
   78MOL0     H10516   1.549   6.852   8.245 -0.1399  0.6443 -1.2559
   78MOL0     H10517   1.352   6.778   8.135  1.1215  1.0506 -1.0689
   78MOL0     H10518   1.121   6.800   8.248 -0.6306  0.9615  0.4281
   78MOL0     H10519   1.131   6.704   8.097  1.1991  0.8948  0.4667
   78MOL0     H10520   0.901   6.697   8.209  2.3560  0.9273  3.3424
   78MOL0     H10521   0.898   6.753   8.046  0.5817 -0.1150 -0.6278
   78MOL0     H10522   0.873   6.974   8.106  0.7273 -2.5672 -2.4238
   78MOL0     H10523   0.885   6.940   8.288 -0.8702 -0.3910 -0.0885
   78MOL0     H10524   0.644   6.973   8.151 -0.8922  1.1779  1.5173
   78MOL0     H10525   0.673   6.803   8.121 -2.0150  2.9310 -2.7370
   78MOL0     H10526   0.553   6.849   8.531  1.4494  0.5197  0.8389
   78MOL0     H10527   1.168   7.160   8.168  1.1221  1.7776  0.7651
   78MOL0     H10528   1.384   7.312   8.391 -1.1726  2.1965  0.7504
   78MOL0     H10529   1.427   7.357   8.222  1.5671  0.3225  1.1207
   78MOL0     H10530   1.252   7.325   8.276 -0.2677  0.7696  0.4564
   79MOL0     O10531   2.151   7.793   8.970 -0.8147  0.5886 -0.4242
   79MOL0     C10532   2.092   7.836   8.871  0.1088 -0.0337 -0.0859
   79MOL0     O10533   2.143   7.898   8.762 -0.7239  0.7020 -0.1458
   79MOL0     C10534   2.276   7.889   8.727  0.1259 -0.3102  0.5300
   79MOL0     C10535   2.396   7.892   8.804 -0.4233  1.7388 -0.2258
   79MOL0     C10536   2.526   7.868   8.751  0.1562 -0.1528 -0.4905
   79MOL0     C10537   2.533   7.862   8.610 -0.5268 -0.2013  0.9472
   79MOL0     O10538   2.646   7.835   8.549 -0.1035  0.6517  0.3933
   79MOL0     C10539   2.773   7.847   8.617  0.2802 -0.6178 -0.1522
   79MOL0     C10540   2.886   7.851   8.516 -0.3601 -0.3801 -0.3175
   79MOL0     C10541   3.024   7.892   8.561  0.3775  0.1023 -0.0299
   79MOL0     C10542   3.112   7.866   8.447 -0.6391 -0.0365 -0.2077
   79MOL0     C10543   3.259   7.881   8.483 -0.1422  0.2292  1.1207
   79MOL0     C10544   3.302   8.026   8.487 -0.1125 -0.4783 -0.8042
   79MOL0     C10545   3.448   8.053   8.447  0.0382  0.0937 -0.0774
   79MOL0     C10546   3.558   7.970   8.528 -0.5206 -0.5229  0.1803
   79MOL0     N10547   3.686   8.051   8.540 -0.8695 -0.0634 -0.2057
   79MOL0     C10548   3.764   8.111   8.440  1.1316 -0.1479 -0.0048
   79MOL0     C10549   3.866   8.170   8.502 -0.2976  0.6088  0.5261
   79MOL0     C10550   3.964   8.246   8.420  0.4968 -0.3521  0.1173
   79MOL0     C10551   4.103   8.190   8.445 -0.5083  0.8447 -0.2553
   79MOL0     C10552   4.211   8.254   8.356  0.1482 -0.1965 -0.2698
   79MOL0     C10553   4.342   8.195   8.397 -0.5330  0.4567 -0.4437
   79MOL0     O10554   4.442   8.217   8.295 -0.7894  0.3344 -0.4670
   79MOL0     C10555   4.567   8.167   8.304 -0.4816 -0.4836 -0.3025
   79MOL0     C10556   4.607   8.079   8.411 -0.9857 -0.2952 -0.6185
   79MOL0     C10557   4.745   8.057   8.421  0.0844  0.3966  0.6384
   79MOL0     C10558   4.838   8.109   8.334 -0.1896  0.6096  0.2836
   79MOL0     C10559   4.984   8.078   8.362 -0.3372 -0.0674  0.0781
   79MOL0     O10560   5.023   8.014   8.473  0.3977  0.7479 -0.4039
   79MOL0     C10561   5.157   8.015   8.504 -0.0325 -0.3224  0.0393
   79MOL0     C10562   5.252   7.949   8.423 -0.8578  0.3874 -0.3590
   79MOL0     C10563   5.384   7.954   8.455  0.1825 -0.8724  0.5693
   79MOL0     C10564   5.428   8.026   8.569  0.1264  0.4064 -0.1044
   79MOL0     O10565   5.559   8.043   8.594 -0.6262 -0.5775  0.3778
   79MOL0     C10566   5.659   7.974   8.525 -0.9279  0.1701  0.2942
   79MOL0     C10567   5.808   7.986   8.583 -0.6085  0.2954 -0.4207
   79MOL0     C10568   5.920   7.896   8.517  0.1082  1.1778  0.0835
   79MOL0     C10569   6.060   7.966   8.516  0.5766 -0.4603 -1.0245
   79MOL0     C10570   6.168   7.857   8.480 -0.1970  0.4163  0.5983
   79MOL0     C10571   6.308   7.917   8.479 -0.4450  0.1291  0.1264
   79MOL0     C10572   6.424   7.816   8.438  0.4819 -0.0419 -0.3339
   79MOL0     C10573   6.557   7.881   8.433  0.1497 -0.5294  0.2730
   79MOL0    Cl10574   6.675   7.753   8.406  0.0470 -0.0696  0.0256
   79MOL0     C10575   5.341   8.087   8.659  0.2836 -0.0593 -0.2118
   79MOL0     C10576   5.193   8.081   8.626 -0.9382 -0.2047 -0.4984
   79MOL0     O10577   5.057   8.108   8.268 -0.1092 -0.1732 -0.0346
   79MOL0     C10578   4.793   8.175   8.212  0.7627  0.4131  0.8333
   79MOL0     C10579   4.656   8.200   8.201 -0.5453  0.0613  0.6252
   79MOL0     N10580   3.861   8.154   8.638  0.1630 -0.4327  0.4098
   79MOL0     N10581   3.758   8.083   8.658  0.2301 -0.0871  0.0125
   79MOL0     C10582   2.414   7.877   8.533  0.3767  0.3232  0.7465
   79MOL0     C10583   2.289   7.891   8.592  0.2334  0.7993  0.1634
   79MOL0     C10584   1.942   7.838   8.883 -0.6587  0.6797 -0.5465
   79MOL0     C10585   1.868   7.816   8.764  0.6377 -0.6086 -0.1501
   79MOL0     C10586   1.733   7.800   8.781  0.0735  1.1532  0.6419
   79MOL0     C10587   1.661   7.803   8.903  0.0263 -0.7142 -0.0186
   79MOL0     O10588   1.528   7.780   8.907  0.6328  0.4879  0.1760
   79MOL0     C10589   1.452   7.871   8.824  0.6745  0.3573  0.3870
   79MOL0     C10590   1.305   7.852   8.852  0.4802 -0.1464 -0.7331
   79MOL0     C10591   1.218   7.897   8.736 -0.4574  0.3625 -0.1204
   79MOL0     C10592   1.204   8.050   8.715  0.8572 -0.5323 -0.3131
   79MOL0     C10593   1.188   8.130   8.833 -0.1975 -0.3049 -0.1149
   79MOL0     C10594   1.185   8.193   8.940  0.4006  0.2960  0.8408
   79MOL0     C10595   1.736   7.826   9.016 -0.1917 -0.3859 -0.2773
   79MOL0     C10596   1.874   7.848   9.010  0.1063 -0.1921  0.2144
   79MOL0     C10597   1.944   7.890   9.144  0.5199 -0.5750 -0.0163
   79MOL0     H10598   2.377   7.887   8.911 -2.8863 -1.1260 -0.6642
   79MOL0     H10599   2.610   7.850   8.817  1.8109  1.3408 -2.0569
   79MOL0     H10600   2.780   7.937   8.679  4.2168  0.1224 -1.3958
   79MOL0     H10601   2.786   7.757   8.678  2.0412 -0.4130 -0.1799
   79MOL0     H10602   2.851   7.920   8.439 -2.6309 -0.1666  0.8331
   79MOL0     H10603   2.886   7.748   8.480  0.9016 -0.0426 -1.3864
   79MOL0     H10604   3.048   7.843   8.656 -1.1139  4.2098  2.7574
   79MOL0     H10605   3.031   7.996   8.596 -0.9969 -0.0777  0.8173
   79MOL0     H10606   3.100   7.761   8.418  1.7482 -0.9905  1.9030
   79MOL0     H10607   3.079   7.932   8.366  0.1791  1.5825  0.7272
   79MOL0     H10608   3.282   7.838   8.580  5.7765 -1.2423 -0.5248
   79MOL0     H10609   3.316   7.826   8.406 -0.3932  0.2741  0.9007
   79MOL0     H10610   3.242   8.081   8.415 -0.2558 -0.6119 -0.7861
   79MOL0     H10611   3.277   8.064   8.586  1.1043 -0.4762 -0.4806
   79MOL0     H10612   3.472   8.159   8.459 -1.2397  0.8988 -3.5391
   79MOL0     H10613   3.450   8.040   8.338  1.0285  1.2572 -0.2240
   79MOL0     H10614   3.526   7.954   8.632  0.6665  1.9138  0.9919
   79MOL0     H10615   3.560   7.873   8.478 -1.8251  0.9491 -2.9751
   79MOL0     H10616   3.745   8.101   8.334  1.0507  1.6212 -0.1880
   79MOL0     H10617   3.941   8.248   8.313 -0.8820  1.0440  0.4017
   79MOL0     H10618   3.954   8.350   8.454 -1.4496  0.5946 -2.9870
   79MOL0     H10619   4.124   8.207   8.551 -0.8488 -0.4774  0.0452
   79MOL0     H10620   4.094   8.083   8.427  0.9452  0.5834  0.4604
   79MOL0     H10621   4.214   8.364   8.351  0.6021 -0.1988 -0.0680
   79MOL0     H10622   4.184   8.239   8.252  0.3441 -1.2612 -0.1774
   79MOL0     H10623   4.329   8.092   8.431 -1.1153  0.4210 -0.7661
   79MOL0     H10624   4.364   8.252   8.488 -2.9416  1.1384 -0.2305
   79MOL0     H10625   4.531   8.042   8.479 -0.1488  1.1498  1.1663
   79MOL0     H10626   4.788   7.994   8.499 -0.5153 -0.4731  0.2882
   79MOL0     H10627   5.223   7.902   8.329  1.8052 -1.4486 -0.3515
   79MOL0     H10628   5.456   7.908   8.389 -0.3769  1.1681 -1.6105
   79MOL0     H10629   5.637   7.867   8.519  2.9806 -0.7401 -1.3857
   79MOL0     H10630   5.658   8.013   8.423 -1.5631 -0.0805  0.2012
   79MOL0     H10631   5.835   8.091   8.585  0.0535  0.1296  0.9331
   79MOL0     H10632   5.806   7.955   8.688 -0.2447 -0.1120 -0.5294
   79MOL0     H10633   5.918   7.806   8.578 -2.3840  0.5879 -0.7446
   79MOL0     H10634   5.886   7.880   8.414 -0.7065 -0.6252  0.6072
   79MOL0     H10635   6.079   8.006   8.616 -0.0156  0.6296 -1.3203
   79MOL0     H10636   6.056   8.050   8.446 -0.3330  0.2408 -0.1719
   79MOL0     H10637   6.156   7.822   8.377 -1.5864 -1.5947  1.3671
   79MOL0     H10638   6.160   7.773   8.551 -0.2603  0.3936  0.5638
   79MOL0     H10639   6.302   8.003   8.412  0.0225  0.7694  0.8959
   79MOL0     H10640   6.322   7.964   8.576 -0.5680  2.0048 -0.7319
   79MOL0     H10641   6.408   7.793   8.332 -0.0506 -2.3102  0.1827
   79MOL0     H10642   6.423   7.728   8.503  3.8976 -0.4153 -0.5895
   79MOL0     H10643   6.568   7.940   8.342  1.1621 -2.5957 -1.0148
   79MOL0     H10644   6.581   7.951   8.514  3.8125  1.0508 -1.9069
   79MOL0     H10645   5.376   8.142   8.747  0.4372  1.7328 -1.3329
   79MOL0     H10646   5.135   8.145   8.691  3.0669  1.9022  1.3283
   79MOL0     H10647   4.863   8.189   8.130 -0.8080 -3.5529 -1.4767
   79MOL0     H10648   4.627   8.259   8.114  1.1583  0.0108 -0.0071
   79MOL0     H10649   2.423   7.874   8.425  0.0132 -0.1696  0.7263
   79MOL0     H10650   2.199   7.899   8.532 -0.4734 -2.4965  0.5947
   79MOL0     H10651   1.916   7.801   8.668 -1.1114  1.3173 -1.3992
   79MOL0     H10652   1.679   7.770   8.692 -1.5677 -3.5253  2.8696
   79MOL0     H10653   1.469   7.856   8.717  0.1240  2.6104 -0.0708
   79MOL0     H10654   1.483   7.969   8.862 -0.6019  0.4318  1.3166
   79MOL0     H10655   1.287   7.903   8.947  2.0622  0.2127 -0.6129
   79MOL0     H10656   1.294   7.744   8.869  0.4692 -0.2810 -1.5636
   79MOL0     H10657   1.118   7.857   8.752 -0.4016  0.8603  1.7696
   79MOL0     H10658   1.254   7.853   8.642  1.7789  0.5864  0.5811
   79MOL0     H10659   1.298   8.082   8.669 -0.2566  3.8435  0.0679
   79MOL0     H10660   1.115   8.065   8.653  0.5627  2.2064  0.6694
   79MOL0     H10661   1.177   8.243   9.035 -2.4541  4.1895 -1.1759
   79MOL0     H10662   1.680   7.834   9.109 -1.2139 -1.0067 -0.8287
   79MOL0     H10663   2.053   7.882   9.152  0.7154  1.3187 -0.2025
   79MOL0     H10664   1.925   7.994   9.173  4.3391  0.1755  0.2651
   79MOL0     H10665   1.900   7.822   9.217 -0.1229  0.7977  0.8964
   80MOL0     O10666   8.618   1.271   7.137 -0.0664  0.2150 -0.0025
   80MOL0     C10667   8.526   1.360   7.119 -0.3771  0.3091 -0.7274
   80MOL0     O10668   8.551   1.490   7.132  0.8732 -0.7443 -0.6968
   80MOL0     C10669   8.670   1.529   7.175  0.5810 -1.1084 -0.7893
   80MOL0     C10670   8.689   1.581   7.305 -0.8136  0.7521  0.3608
   80MOL0     C10671   8.815   1.630   7.338  0.2630 -0.6769  1.6219
   80MOL0     C10672   8.926   1.632   7.250  0.4755  0.3177  0.6118
   80MOL0     O10673   9.049   1.683   7.284 -0.3815  0.4801  1.0048
   80MOL0     C10674   9.053   1.792   7.379 -0.1549 -0.4044 -0.4848
   80MOL0     C10675   9.140   1.908   7.334 -0.1284  0.3420  0.4609
   80MOL0     C10676   9.286   1.853   7.314  0.6868  0.4790 -0.0060
   80MOL0     C10677   9.379   1.965   7.288 -0.2192 -0.1991  0.6913
   80MOL0     C10678   9.521   1.908   7.276 -0.7490  0.8131 -0.3225
   80MOL0     C10679   9.610   2.008   7.210 -0.9993 -0.2341 -0.3619
   80MOL0     C10680   9.764   1.969   7.218 -0.7628 -0.0703 -0.0978
   80MOL0     C10681   9.856   2.084   7.158  0.7694  0.3639  0.2491
   80MOL0     N10682   9.991   2.043   7.165 -0.1132 -0.1962 -0.8435
   80MOL0     C10683  10.039   1.919   7.144  0.5498 -0.0243  0.3501
   80MOL0     C10684  10.156   1.907   7.200 -0.9663  0.5918 -0.7643
   80MOL0     C10685  10.260   1.790   7.200  0.3014  0.3323 -0.5511
   80MOL0     C10686  10.335   1.760   7.066  0.3661  0.6361 -0.2353
   80MOL0     C10687  10.404   1.626   7.064 -0.1546 -0.1656 -0.4594
   80MOL0     C10688  10.528   1.636   7.157 -0.7815  0.6912 -0.0132
   80MOL0     O10689  10.632   1.711   7.094  0.5986  0.5927 -0.2382
   80MOL0     C10690  10.749   1.738   7.147  0.2343 -0.3724  1.0135
   80MOL0     C10691  10.770   1.755   7.285 -0.2605  0.4537  1.0186
   80MOL0     C10692  10.889   1.812   7.329 -0.1774 -0.0676 -0.3352
   80MOL0     C10693  10.990   1.840   7.238 -0.5563  0.1166  0.9683
   80MOL0     C10694  11.124   1.887   7.286 -0.3881  0.3008 -0.2158
   80MOL0     O10695  11.125   1.935   7.413  0.4800  0.3254  0.1675
   80MOL0     C10696  11.238   1.979   7.476  0.0067 -1.4102 -0.2485
   80MOL0     C10697  11.366   1.941   7.448 -0.2152  0.3851 -0.4127
   80MOL0     C10698  11.473   1.979   7.529  0.4896 -0.8774 -0.1639
   80MOL0     C10699  11.456   2.080   7.627  0.2796  0.2539 -0.1149
   80MOL0     O10700  11.569   2.111   7.694 -0.0384  0.1642 -0.2427
   80MOL0     C10701  11.575   2.203   7.804  0.7765  0.0749 -0.2830
   80MOL0     C10702  11.666   2.133   7.914  0.0701 -0.4856  0.2214
   80MOL0     C10703  11.806   2.111   7.856  0.2504 -0.3761  0.3285
   80MOL0     C10704  11.905   2.097   7.964 -0.1548  0.0380 -0.2738
   80MOL0     C10705  12.049   2.130   7.916  0.5692  0.5993  0.3388
   80MOL0     C10706  12.155   2.055   7.999 -0.1289 -0.5590 -0.0092
   80MOL0     C10707  12.288   2.076   7.924 -0.1478 -0.0431  0.4779
   80MOL0     C10708  12.402   2.024   7.997 -0.3263  0.7333 -0.0792
   80MOL0    Cl10709  12.547   2.076   7.920  0.1995 -0.5601 -0.0545
   80MOL0     C10710  11.324   2.122   7.655 -0.0451 -0.6756 -1.0051
   80MOL0     C10711  11.219   2.066   7.583  0.5733 -1.0622  0.1466
   80MOL0     O10712  11.218   1.863   7.210 -0.1710  0.0230  0.4595
   80MOL0     C10713  10.977   1.817   7.105  0.7041  0.5110 -0.8599
   80MOL0     C10714  10.847   1.778   7.058  0.3673 -0.3874  0.4164
   80MOL0     N10715  10.185   2.028   7.246 -0.0052 -0.0643  0.8105
   80MOL0     N10716  10.084   2.112   7.223  0.1979 -0.2988  0.3381
   80MOL0     C10717   8.902   1.577   7.120  0.2676 -0.2660  0.7840
   80MOL0     C10718   8.776   1.532   7.079 -0.0862  0.4097 -0.0430
   80MOL0     C10719   8.389   1.316   7.094 -0.3273  0.5065  0.4679
   80MOL0     C10720   8.378   1.190   7.031 -0.3992  0.5113 -0.0845
   80MOL0     C10721   8.253   1.122   7.015 -0.1354  0.5246 -0.0035
   80MOL0     C10722   8.132   1.195   7.043  0.0696  0.5798  0.2278
   80MOL0     O10723   8.009   1.136   7.016  0.8910 -0.4828  0.0716
   80MOL0     C10724   7.892   1.217   6.997 -0.4113 -0.3139  0.7654
   80MOL0     C10725   7.803   1.166   6.883  0.6956 -0.1193  1.3930
   80MOL0     C10726   7.768   1.015   6.877 -0.5670  0.4120 -0.3445
   80MOL0     C10727   7.689   0.970   6.997 -0.3066  0.0174 -0.0010
   80MOL0     C10728   7.691   0.821   6.982 -0.2399 -0.1718 -0.1022
   80MOL0     C10729   7.695   0.703   6.971  0.4137 -0.2399 -0.0217
   80MOL0     C10730   8.145   1.319   7.105 -0.0378  0.0452 -0.0865
   80MOL0     C10731   8.272   1.381   7.134 -0.2406 -0.2161  0.4502
   80MOL0     C10732   8.282   1.509   7.226  0.7693 -0.4533 -0.2241
   80MOL0     H10733   8.611   1.583   7.380  1.0014  1.6676  2.3269
   80MOL0     H10734   8.826   1.679   7.434 -1.7285  1.6011  0.7961
   80MOL0     H10735   8.956   1.836   7.402 -0.3431 -0.3461 -1.3363
   80MOL0     H10736   9.089   1.754   7.475 -2.0345  1.0091  0.8485
   80MOL0     H10737   9.137   1.987   7.410 -1.9630  1.8951 -1.1146
   80MOL0     H10738   9.110   1.949   7.237 -0.2664  2.0324  1.1877
   80MOL0     H10739   9.280   1.793   7.223 -1.1389  1.5601 -0.6433
   80MOL0     H10740   9.307   1.790   7.401  3.0634 -2.5451 -2.5558
   80MOL0     H10741   9.329   1.999   7.197 -0.1533 -0.7865  0.4278
   80MOL0     H10742   9.382   2.037   7.370  1.7767  0.0029  0.4963
   80MOL0     H10743   9.557   1.885   7.377 -0.0412  0.8689 -0.5583
   80MOL0     H10744   9.528   1.818   7.215  2.9400  0.9778 -0.3156
   80MOL0     H10745   9.588   2.028   7.105 -0.3784 -0.3555 -0.5128
   80MOL0     H10746   9.599   2.101   7.267  1.1904 -0.7583  1.0219
   80MOL0     H10747   9.780   1.877   7.161 -1.9347  0.4848 -1.3941
   80MOL0     H10748   9.782   1.948   7.324  1.8457 -1.4358 -0.7225
   80MOL0     H10749   9.829   2.125   7.060  1.4494  0.8797  0.2680
   80MOL0     H10750   9.846   2.175   7.218  1.5321  1.5479 -1.3503
   80MOL0     H10751   9.996   1.842   7.080  1.7594 -0.0366 -0.4733
   80MOL0     H10752  10.331   1.818   7.279  0.9844  2.0379 -1.7101
   80MOL0     H10753  10.213   1.696   7.230  0.4654  0.7421  1.1236
   80MOL0     H10754  10.257   1.750   6.990  0.8649  0.7967 -0.7787
   80MOL0     H10755  10.402   1.843   7.041  2.2372 -0.7451 -0.0040
   80MOL0     H10756  10.442   1.606   6.964  0.6177 -3.1950  0.3381
   80MOL0     H10757  10.344   1.540   7.093  2.3181 -1.9265 -0.2754
   80MOL0     H10758  10.570   1.536   7.169 -2.0756  0.4055  2.9995
   80MOL0     H10759  10.508   1.682   7.254  2.5747  1.8951  0.2502
   80MOL0     H10760  10.690   1.729   7.354  0.0418  0.4488  1.3712
   80MOL0     H10761  10.897   1.840   7.433  0.7695 -0.3296 -0.3275
   80MOL0     H10762  11.389   1.876   7.364  1.9648  3.4451 -2.3929
   80MOL0     H10763  11.573   1.941   7.515 -0.1217 -2.1412 -1.2908
   80MOL0     H10764  11.621   2.299   7.779  3.0222 -0.8850 -0.0593
   80MOL0     H10765  11.477   2.227   7.846 -0.4569  1.1266 -3.4451
   80MOL0     H10766  11.665   2.202   7.999  2.5232  1.6853 -1.3629
   80MOL0     H10767  11.629   2.034   7.942 -1.0386 -0.4338 -0.9630
   80MOL0     H10768  11.801   2.032   7.781  1.4069  1.4217 -1.7718
   80MOL0     H10769  11.836   2.192   7.789 -2.2560 -0.3520 -0.8912
   80MOL0     H10770  11.891   1.997   8.006 -1.9970 -0.2066 -1.3657
   80MOL0     H10771  11.888   2.166   8.046  0.6148 -0.5153  0.3626
   80MOL0     H10772  12.060   2.238   7.931  2.1557  0.2491  2.1959
   80MOL0     H10773  12.042   2.104   7.810 -0.1421 -4.1623  1.3132
   80MOL0     H10774  12.157   2.097   8.100 -2.4541 -1.3863  0.4210
   80MOL0     H10775  12.137   1.948   7.991  1.3907 -0.8235 -0.2025
   80MOL0     H10776  12.293   2.181   7.892  0.2378 -0.1125  0.3019
   80MOL0     H10777  12.287   2.019   7.830  0.7220  1.4741 -0.5070
   80MOL0     H10778  12.403   2.059   8.100  0.5621 -0.2799  0.2779
   80MOL0     H10779  12.401   1.914   7.993  2.1398  0.6758 -0.4822
   80MOL0     H10780  11.307   2.203   7.725  2.5880 -1.6943  0.9914
   80MOL0     H10781  11.121   2.105   7.609  0.8557 -0.9389  1.0275
   80MOL0     H10782  11.049   1.845   7.029  1.0506  2.8743  0.2505
   80MOL0     H10783  10.828   1.772   6.952 -3.3647 -0.9677  0.9903
   80MOL0     H10784   8.991   1.567   7.058 -0.9085 -2.3685 -0.7078
   80MOL0     H10785   8.776   1.482   6.983 -1.7526 -1.5883  0.9303
   80MOL0     H10786   8.466   1.132   7.005 -2.1120 -1.6473 -1.4969
   80MOL0     H10787   8.243   1.027   6.963  2.4982 -0.6905  1.5329
   80MOL0     H10788   7.922   1.317   6.965 -1.9685  0.4527  1.6204
   80MOL0     H10789   7.833   1.220   7.089 -2.1478  0.8061 -0.3383
   80MOL0     H10790   7.859   1.184   6.790 -1.3714 -0.9690 -0.0948
   80MOL0     H10791   7.706   1.216   6.876  0.0220 -1.4645  0.7602
   80MOL0     H10792   7.864   0.961   6.878 -0.7579  0.0734  0.7222
   80MOL0     H10793   7.709   0.980   6.792  0.4121 -1.6189 -0.2594
   80MOL0     H10794   7.734   0.996   7.094 -1.3811  0.8573  0.2961
   80MOL0     H10795   7.587   1.011   6.999 -1.1216 -1.9103  0.3089
   80MOL0     H10796   7.719   0.601   6.944  3.3150  0.5258 -0.7644
   80MOL0     H10797   8.058   1.375   7.137  0.3457 -0.1496  1.3769
   80MOL0     H10798   8.329   1.582   7.160  1.4650 -0.2735  0.4732
   80MOL0     H10799   8.177   1.535   7.246  0.2751 -1.1620 -1.7249
   80MOL0     H10800   8.329   1.482   7.321  1.4024  0.9831 -0.1143
   81MOL0     O10801   9.484  10.509  10.187  0.0257  0.0887  0.5770
   81MOL0     C10802   9.487  10.580  10.283  0.3866  0.2273 -1.0302
   81MOL0     O10803   9.588  10.603  10.364 -0.2637  0.1520  0.1472
   81MOL0     C10804   9.714  10.566  10.323 -0.2767 -0.7720  0.6426
   81MOL0     C10805   9.812  10.667  10.345  0.0581  0.6056  0.7658
   81MOL0     C10806   9.942  10.649  10.301  0.2632  0.8451 -0.2879
   81MOL0     C10807   9.979  10.524  10.237  0.6325  0.0303 -0.1650
   81MOL0     O10808  10.102  10.494  10.205 -0.4225 -0.0233  0.0407
   81MOL0     C10809  10.191  10.597  10.166  0.2484  0.0642  0.2313
   81MOL0     C10810  10.291  10.623  10.276 -0.3105  0.8313 -0.3991
   81MOL0     C10811  10.388  10.509  10.294 -0.8604  0.3026  0.0740
   81MOL0     C10812  10.515  10.515  10.191  1.3894 -1.0152 -0.7273
   81MOL0     C10813  10.607  10.410  10.232 -0.8649 -0.4961  0.4959
   81MOL0     C10814  10.710  10.396  10.120  0.2400  0.0556 -0.0990
   81MOL0     C10815  10.838  10.326  10.151 -0.2666 -0.2789 -0.7249
   81MOL0     C10816  10.944  10.363  10.043  0.3223  0.6894 -0.4868
   81MOL0     N10817  11.069  10.287  10.060 -0.2411  0.1010  0.8291
   81MOL0     C10818  11.124  10.213   9.960  0.8820 -0.3831  0.0385
   81MOL0     C10819  11.230  10.141   9.996 -0.4654  0.0160  0.0496
   81MOL0     C10820  11.332  10.057   9.927  0.5389 -0.2373 -0.0689
   81MOL0     C10821  11.449  10.135   9.862 -0.7593 -0.3693 -0.4701
   81MOL0     C10822  11.524  10.212   9.970  0.1267  0.2101 -0.1556
   81MOL0     C10823  11.639  10.287   9.918 -0.1718 -0.6501  0.4981
   81MOL0     O10824  11.726  10.209   9.846  0.7279 -0.0757 -0.2374
   81MOL0     C10825  11.858  10.206   9.885 -1.4273 -0.2832  0.4794
   81MOL0     C10826  11.910  10.216  10.013 -0.9660  0.1141 -1.0274
   81MOL0     C10827  12.039  10.199  10.051  0.0247 -0.0814  0.1267
   81MOL0     C10828  12.131  10.189   9.951 -0.1879  0.0634 -0.1498
   81MOL0     C10829  12.274  10.178   9.986 -0.4403 -0.5615  0.7472
   81MOL0     O10830  12.353  10.218   9.879 -0.3706 -0.4900 -0.2085
   81MOL0     C10831  12.489  10.226   9.904  1.0880 -0.5371  0.2927
   81MOL0     C10832  12.578  10.141   9.840 -0.0659  0.0367  0.0699
   81MOL0     C10833  12.715  10.135   9.874  0.5063  0.3915 -0.3178
   81MOL0     C10834  12.764  10.236   9.965  0.4032  0.0827 -0.1768
   81MOL0     O10835  12.899  10.255  10.003 -1.0423  0.6503 -0.5066
   81MOL0     C10836  12.986  10.186   9.905 -0.2245 -0.1778  0.8887
   81MOL0     C10837  13.133  10.227   9.935 -0.9392 -0.4682 -0.0535
   81MOL0     C10838  13.231  10.152   9.847  0.6789 -0.1977  0.6487
   81MOL0     C10839  13.369  10.216   9.867  0.3598 -0.3431 -0.2112
   81MOL0     C10840  13.472  10.140   9.776  0.3448 -0.1685 -0.0701
   81MOL0     C10841  13.614  10.175   9.812 -1.0705  0.0829 -0.3063
   81MOL0     C10842  13.712  10.100   9.719 -0.3414  0.0655  0.3556
   81MOL0     C10843  13.836  10.081   9.807  0.6379  0.3517 -0.3873
   81MOL0    Cl10844  13.954  10.022   9.698 -0.0860 -0.0904 -0.3565
   81MOL0     C10845  12.675  10.325  10.023  0.0424 -0.7672  0.0978
   81MOL0     C10846  12.544  10.321   9.994  0.7831 -0.1156 -0.3147
   81MOL0     O10847  12.318  10.140  10.095  0.7421  0.3117  0.1299
   81MOL0     C10848  12.086  10.178   9.816 -0.0460  0.4984 -0.4769
   81MOL0     C10849  11.951  10.180   9.783  0.2118 -0.3255 -0.3586
   81MOL0     N10850  11.239  10.178  10.125  0.7883 -0.0320 -0.5344
   81MOL0     N10851  11.152  10.268  10.163  0.1124  1.5813  0.4452
   81MOL0     C10852   9.883  10.426  10.225  1.1308  0.4493 -0.4358
   81MOL0     C10853   9.751  10.443  10.270  0.5528 -0.1261  0.4109
   81MOL0     C10854   9.359  10.663  10.315 -0.2529 -0.6512  0.2057
   81MOL0     C10855   9.370  10.784  10.385 -0.5579 -0.0871 -0.2531
   81MOL0     C10856   9.260  10.851  10.428  0.2366 -0.4294 -1.0350
   81MOL0     C10857   9.129  10.810  10.391  0.1066  0.0068 -0.2872
   81MOL0     O10858   9.026  10.892  10.436  0.2853  0.7320  0.0800
   81MOL0     C10859   8.895  10.834  10.455 -0.2761  0.2389  0.0060
   81MOL0     C10860   8.788  10.937  10.484  0.2534  0.6740 -0.4539
   81MOL0     C10861   8.766  11.007  10.346 -0.0237  0.0807 -0.2009
   81MOL0     C10862   8.667  11.126  10.363 -0.1766  0.5100 -0.5358
   81MOL0     C10863   8.534  11.065  10.353 -0.0255  0.2639 -0.2146
   81MOL0     C10864   8.418  11.023  10.337 -0.3897  0.0499 -0.2919
   81MOL0     C10865   9.117  10.693  10.317  0.0127  1.1174  0.4343
   81MOL0     C10866   9.227  10.614  10.276  0.1337  0.0487  0.5348
   81MOL0     C10867   9.200  10.489  10.209  0.1000 -0.2562 -0.1781
   81MOL0     H10868   9.783  10.766  10.379  3.5855  1.6742  1.0371
   81MOL0     H10869  10.022  10.720  10.318  0.5402  0.3317  0.6222
   81MOL0     H10870  10.250  10.564  10.080 -0.2934  1.0724 -0.5464
   81MOL0     H10871  10.131  10.685  10.140  0.5763  1.6730  4.2624
   81MOL0     H10872  10.243  10.642  10.373  0.2701 -1.5873  0.4337
   81MOL0     H10873  10.340  10.717  10.248 -2.2364  1.9865 -0.1287
   81MOL0     H10874  10.337  10.415  10.273 -0.2493  0.4467 -2.3420
   81MOL0     H10875  10.426  10.488  10.395 -2.0799 -0.5476  0.3854
   81MOL0     H10876  10.472  10.489  10.094 -0.5730 -2.0640  0.3572
   81MOL0     H10877  10.570  10.610  10.193 -0.5379  0.1873  2.5735
   81MOL0     H10878  10.646  10.426  10.333 -1.8462 -2.7947  1.3066
   81MOL0     H10879  10.561  10.311  10.237  0.8127 -1.3045  0.6434
   81MOL0     H10880  10.668  10.353  10.028  2.1668  2.0683 -2.0232
   81MOL0     H10881  10.741  10.493  10.079 -2.8747 -0.1038 -3.3952
   81MOL0     H10882  10.825  10.218  10.155  1.9719 -0.6178 -1.3558
   81MOL0     H10883  10.866  10.357  10.252  0.5635  0.8015 -1.2643
   81MOL0     H10884  10.895  10.333   9.950  0.4352  0.6456 -0.5308
   81MOL0     H10885  10.962  10.469  10.062  1.4206  0.1517  1.7878
   81MOL0     H10886  11.081  10.209   9.860  0.0402  4.5650 -0.0569
   81MOL0     H10887  11.372   9.982   9.996 -1.1172 -2.3944 -1.2846
   81MOL0     H10888  11.282   9.997   9.850  1.6228 -1.7103  0.3189
   81MOL0     H10889  11.518  10.064   9.816 -1.8804 -1.7558 -0.1078
   81MOL0     H10890  11.406  10.208   9.793 -1.8018 -0.0794  0.4724
   81MOL0     H10891  11.563  10.138  10.040 -0.7527  0.1519  0.2910
   81MOL0     H10892  11.452  10.279  10.019 -0.4765 -1.1397  0.8763
   81MOL0     H10893  11.687  10.336  10.003  1.5944  0.5480 -1.1018
   81MOL0     H10894  11.592  10.365   9.857 -1.7086 -0.4073  1.9080
   81MOL0     H10895  11.842  10.235  10.096  0.7559  0.0165  0.4618
   81MOL0     H10896  12.080  10.189  10.151 -0.6317 -0.0366  0.4065
   81MOL0     H10897  12.538  10.075   9.763  0.2301 -0.2265  0.1361
   81MOL0     H10898  12.779  10.067   9.818 -2.3273 -1.3267 -1.6978
   81MOL0     H10899  12.974  10.078   9.910 -0.0686 -0.1599  2.0860
   81MOL0     H10900  12.959  10.229   9.808  2.5899  3.3335  1.4576
   81MOL0     H10901  13.150  10.335   9.925  0.8812 -0.6682  0.5240
   81MOL0     H10902  13.157  10.209  10.040  0.5866 -2.1203 -0.6280
   81MOL0     H10903  13.246  10.052   9.889  1.5390 -0.2481  0.2524
   81MOL0     H10904  13.205  10.151   9.740  1.9672 -2.9366  0.2615
   81MOL0     H10905  13.401  10.232   9.970  2.3230  0.4298 -0.8762
   81MOL0     H10906  13.354  10.321   9.841 -1.7190 -0.0498  1.8349
   81MOL0     H10907  13.462  10.187   9.678  4.0769  1.5064  0.2041
   81MOL0     H10908  13.446  10.034   9.780 -1.5043  0.1521 -1.8060
   81MOL0     H10909  13.641  10.281   9.804 -0.4315 -0.1567 -1.7480
   81MOL0     H10910  13.615  10.154   9.919  0.5032  3.6144  0.5109
   81MOL0     H10911  13.719  10.170   9.635  1.0019 -1.8115 -1.1682
   81MOL0     H10912  13.666  10.006   9.687 -1.8095  1.8464 -3.2854
   81MOL0     H10913  13.865  10.173   9.858 -1.2488  0.5331  0.4106
   81MOL0     H10914  13.811  10.007   9.883 -0.1031  0.8340 -0.1519
   81MOL0     H10915  12.722  10.402  10.083 -2.1595  0.9857 -0.3005
   81MOL0     H10916  12.474  10.387  10.045 -0.5405 -1.8445  0.2158
   81MOL0     H10917  12.160  10.146   9.744  0.5187  2.1782 -0.6816
   81MOL0     H10918  11.907  10.153   9.688  2.2377  1.1693 -1.8158
   81MOL0     H10919   9.919  10.327  10.197 -1.0539 -0.9163  1.2605
   81MOL0     H10920   9.675  10.368  10.253  0.1358  0.4832 -0.5110
   81MOL0     H10921   9.468  10.816  10.420 -0.7239  0.5418 -0.3657
   81MOL0     H10922   9.271  10.944  10.484  0.1247 -0.9924 -0.0635
   81MOL0     H10923   8.910  10.760  10.534 -1.3783 -0.5948 -0.5432
   81MOL0     H10924   8.871  10.775  10.366  0.3990  0.1382 -0.1168
   81MOL0     H10925   8.811  11.005  10.566  0.4654 -0.4311  0.4226
   81MOL0     H10926   8.695  10.887  10.512  1.0517 -0.8304 -0.3624
   81MOL0     H10927   8.729  10.938  10.270  0.8310 -1.5385  0.8053
   81MOL0     H10928   8.861  11.052  10.314 -0.1788  1.6337  1.3594
   81MOL0     H10929   8.686  11.170  10.462 -1.5915  2.8338 -1.2236
   81MOL0     H10930   8.680  11.201  10.286  0.8955  1.6332  0.6918
   81MOL0     H10931   8.328  10.979  10.299  0.7844 -2.4459 -0.3367
   81MOL0     H10932   9.020  10.663  10.279 -0.0632  0.7941  0.8695
   81MOL0     H10933   9.234  10.404  10.268 -0.8044  0.9981  2.2897
   81MOL0     H10934   9.092  10.474  10.198 -0.1707  2.3510 -2.2608
   81MOL0     H10935   9.242  10.497  10.108  3.8707  1.0781  1.3236
   82MOL0     O10936   4.903   3.326  10.986 -0.1016 -0.4475 -0.2765
   82MOL0     C10937   4.805   3.302  11.050  0.4516 -0.4812 -0.3477
   82MOL0     O10938   4.797   3.275  11.189 -0.0309 -0.8027  0.1160
   82MOL0     C10939   4.921   3.247  11.254  0.4821  0.3108 -0.5386
   82MOL0     C10940   5.016   3.343  11.284  0.5718 -0.2044 -0.0790
   82MOL0     C10941   5.144   3.310  11.328  0.2563 -0.4587 -0.6980
   82MOL0     C10942   5.179   3.176  11.353 -0.5826 -0.3849 -0.6874
   82MOL0     O10943   5.311   3.153  11.386 -0.1629  0.1554  0.4667
   82MOL0     C10944   5.336   3.037  11.469 -0.3739  0.2542  0.1696
   82MOL0     C10945   5.481   3.031  11.531 -0.1308 -1.0282 -0.2750
   82MOL0     C10946   5.511   3.155  11.618  0.2473 -0.2308  0.4155
   82MOL0     C10947   5.617   3.139  11.719  0.3354 -0.3703 -0.3488
   82MOL0     C10948   5.753   3.121  11.657 -0.0851  0.7487  0.5661
   82MOL0     C10949   5.869   3.097  11.759  0.1935  0.1272  0.2636
   82MOL0     C10950   6.010   3.084  11.698 -0.5162  0.3200  0.2798
   82MOL0     C10951   6.074   3.207  11.626  0.5120  0.0650  0.9819
   82MOL0     N10952   6.209   3.180  11.581 -0.0448  0.0798  0.3474
   82MOL0     C10953   6.314   3.133  11.658 -0.1287 -0.9080  0.0287
   82MOL0     C10954   6.428   3.118  11.585 -0.2225  0.0597 -0.4336
   82MOL0     C10955   6.553   3.064  11.653  0.1541 -0.4923  0.9381
   82MOL0     C10956   6.624   3.174  11.726 -0.0323 -0.1158  0.4609
   82MOL0     C10957   6.696   3.262  11.629 -0.0566 -0.1191  0.1287
   82MOL0     C10958   6.786   3.368  11.708 -0.3666  0.0986  0.6512
   82MOL0     O10959   6.870   3.312  11.810 -0.0206 -0.5411  0.8849
   82MOL0     C10960   7.003   3.289  11.788  0.5306  0.6041  0.2638
   82MOL0     C10961   7.086   3.290  11.898 -0.4465  0.0826  0.0784
   82MOL0     C10962   7.222   3.296  11.888 -0.7582  0.3289  0.0417
   82MOL0     C10963   7.298   3.280  11.768  0.5877 -0.0294  0.4676
   82MOL0     C10964   7.437   3.280  11.754  0.5202 -1.0795 -0.5060
   82MOL0     O10965   7.507   3.313  11.872  0.2392  0.0338  0.3748
   82MOL0     C10966   7.640   3.344  11.875 -1.2382 -0.7318 -0.6074
   82MOL0     C10967   7.693   3.479  11.859  0.4599 -1.1556 -0.8876
   82MOL0     C10968   7.832   3.500  11.864 -0.0203  0.5621  0.3676
   82MOL0     C10969   7.919   3.392  11.880  0.5030  0.2695 -0.5410
   82MOL0     O10970   8.056   3.393  11.865 -0.7466  0.6091  0.1929
   82MOL0     C10971   8.123   3.504  11.925 -0.1521  0.4809 -0.0091
   82MOL0     C10972   8.253   3.452  11.988  0.5963 -0.0035  1.1311
   82MOL0     C10973   8.354   3.559  12.000  0.7474  0.3462  0.6502
   82MOL0     C10974   8.486   3.529  12.064 -0.0604 -0.2057 -0.2490
   82MOL0     C10975   8.573   3.657  12.067  0.1833 -0.0086 -0.0593
   82MOL0     C10976   8.700   3.625  12.140 -0.5094 -0.0746 -0.3388
   82MOL0     C10977   8.782   3.757  12.166  0.3280  0.1454 -0.2396
   82MOL0     C10978   8.836   3.824  12.042 -0.4760 -0.5432  0.0379
   82MOL0    Cl10979   9.016   3.795  12.022  0.4716 -0.2516 -0.1417
   82MOL0     C10980   7.862   3.268  11.907  0.5767  0.2667  0.0394
   82MOL0     C10981   7.723   3.237  11.893 -0.2733 -0.3097 -0.6319
   82MOL0     O10982   7.484   3.264  11.645  0.1309 -0.2415  0.2287
   82MOL0     C10983   7.211   3.270  11.660  0.9057  0.4400  0.5595
   82MOL0     C10984   7.074   3.277  11.672 -0.1364 -0.5683  0.2755
   82MOL0     N10985   6.390   3.156  11.457 -0.7523  0.3308 -0.4292
   82MOL0     N10986   6.262   3.182  11.461  0.7624  0.3071  0.6473
   82MOL0     C10987   5.082   3.083  11.331  0.2369  0.6449 -0.5510
   82MOL0     C10988   4.955   3.111  11.280 -0.0174  0.0125  0.1886
   82MOL0     C10989   4.679   3.312  10.979  1.5887  0.2405  0.2899
   82MOL0     C10990   4.562   3.299  11.056 -0.0833  0.1814  0.2974
   82MOL0     C10991   4.433   3.312  11.004  0.1595 -0.0243 -0.5274
   82MOL0     C10992   4.421   3.334  10.861 -0.1729 -1.0776 -0.2871
   82MOL0     O10993   4.305   3.335  10.795  0.1639  0.6239 -0.1838
   82MOL0     C10994   4.195   3.264  10.843  0.7786 -0.5457  0.4768
   82MOL0     C10995   4.085   3.265  10.733 -0.0812  0.3614 -0.3104
   82MOL0     C10996   3.959   3.197  10.769  0.1349  0.5746 -0.1201
   82MOL0     C10997   3.864   3.191  10.639 -0.4932  0.1778 -1.0842
   82MOL0     C10998   3.735   3.137  10.679  0.0896 -0.2119  0.0688
   82MOL0     C10999   3.629   3.077  10.681 -0.1204  0.2178  0.4795
   82MOL0     C11000   4.529   3.350  10.783 -0.5542  0.4093 -0.1118
   82MOL0     C11001   4.660   3.341  10.834 -1.0527 -0.3342  0.2175
   82MOL0     C11002   4.768   3.339  10.734 -0.1944  0.1384  0.0101
   82MOL0     H11003   4.998   3.450  11.275  2.4893  0.4071  2.4525
   82MOL0     H11004   5.213   3.391  11.350  0.7804 -1.3113  1.0205
   82MOL0     H11005   5.252   3.030  11.539 -0.1313 -0.1415  0.4228
   82MOL0     H11006   5.349   2.954  11.398  1.7824 -1.1076  2.0215
   82MOL0     H11007   5.555   3.028  11.450 -2.1678  0.8241 -2.3470
   82MOL0     H11008   5.488   2.936  11.584 -0.1680 -1.3435 -0.8276
   82MOL0     H11009   5.421   3.165  11.680 -0.4698  2.7526 -0.9520
   82MOL0     H11010   5.526   3.248  11.564  1.2155 -0.2639  0.6155
   82MOL0     H11011   5.609   3.228  11.781  0.4296 -0.8265  0.3319
   82MOL0     H11012   5.593   3.052  11.780 -1.0597 -1.5838 -2.4745
   82MOL0     H11013   5.753   3.038  11.586  2.4895  1.5234 -0.4673
   82MOL0     H11014   5.774   3.210  11.597  1.1270  0.2595  0.2172
   82MOL0     H11015   5.861   3.183  11.826  1.0303  2.4103 -2.3533
   82MOL0     H11016   5.841   3.010  11.819 -1.5051  0.6612  0.3006
   82MOL0     H11017   6.001   3.000  11.629 -1.1971  0.6173 -0.0039
   82MOL0     H11018   6.069   3.062  11.787  1.5855  3.8553 -0.0215
   82MOL0     H11019   6.021   3.227  11.533  1.4291  0.8148  0.6054
   82MOL0     H11020   6.074   3.295  11.691  0.5228  1.0788 -0.3602
   82MOL0     H11021   6.311   3.121  11.766 -0.0691 -0.9310  0.0278
   82MOL0     H11022   6.521   2.984  11.721  0.0356 -1.2999 -0.0521
   82MOL0     H11023   6.614   3.020  11.573  1.4826 -1.9338  2.6612
   82MOL0     H11024   6.550   3.227  11.787 -1.8430 -1.7029 -0.2279
   82MOL0     H11025   6.697   3.125  11.792  3.0689  0.7873 -2.0554
   82MOL0     H11026   6.622   3.319  11.572 -0.9589 -0.6080  0.7845
   82MOL0     H11027   6.755   3.193  11.568 -1.3968 -0.7578 -0.5017
   82MOL0     H11028   6.707   3.426  11.758  0.8794  3.7652 -1.2660
   82MOL0     H11029   6.843   3.429  11.638  0.3494 -2.8812 -1.5765
   82MOL0     H11030   7.043   3.303  11.997  2.6037 -3.2632  2.0891
   82MOL0     H11031   7.264   3.303  11.988 -0.4347 -1.6177  0.0746
   82MOL0     H11032   7.617   3.554  11.840 -0.0671 -1.5723 -0.4646
   82MOL0     H11033   7.869   3.599  11.839 -1.2681  1.1871  0.8988
   82MOL0     H11034   8.135   3.584  11.852  0.6120  1.9987  1.6797
   82MOL0     H11035   8.068   3.541  12.012  1.5618  1.9486  0.5227
   82MOL0     H11036   8.227   3.405  12.083 -2.1080  0.5623  0.7694
   82MOL0     H11037   8.293   3.367  11.932  0.5323 -0.8098  2.2798
   82MOL0     H11038   8.369   3.604  11.901 -2.8636 -2.0266 -1.1736
   82MOL0     H11039   8.301   3.635  12.058  0.4856  0.0235  0.8364
   82MOL0     H11040   8.535   3.448  12.009 -0.6829  0.8468 -2.4944
   82MOL0     H11041   8.458   3.496  12.164 -0.7365  0.1362 -0.3169
   82MOL0     H11042   8.528   3.744  12.117  1.1324  0.8557 -0.6722
   82MOL0     H11043   8.604   3.687  11.967 -0.1339  2.1677  0.4303
   82MOL0     H11044   8.680   3.586  12.240 -0.5247  0.7512 -0.0133
   82MOL0     H11045   8.766   3.560  12.081  0.1471  0.2873 -0.0172
   82MOL0     H11046   8.868   3.747  12.232 -0.0806 -0.8865  0.1713
   82MOL0     H11047   8.716   3.825  12.222 -1.5527 -1.9336  0.2392
   82MOL0     H11048   8.793   3.797  11.945  1.9781  0.2452 -1.3509
   82MOL0     H11049   8.824   3.932  12.057  0.8640 -0.3131 -0.4379
   82MOL0     H11050   7.938   3.191  11.914  0.2003 -0.0096  1.5397
   82MOL0     H11051   7.687   3.136  11.909  0.2995 -1.0359 -3.3810
   82MOL0     H11052   7.253   3.264  11.560  0.3570  2.0740  0.1914
   82MOL0     H11053   7.019   3.272  11.579  0.4500  2.3003 -0.3189
   82MOL0     H11054   5.107   2.979  11.351  0.3430  0.0946 -3.2226
   82MOL0     H11055   4.883   3.029  11.274 -2.0533  1.4972  2.4571
   82MOL0     H11056   4.575   3.271  11.160 -0.6347 -2.6238 -0.3093
   82MOL0     H11057   4.345   3.296  11.067 -0.0076  1.1926 -0.4168
   82MOL0     H11058   4.161   3.315  10.933  2.5720 -0.5783  1.2105
   82MOL0     H11059   4.216   3.157  10.852 -1.6279 -0.9682  2.0579
   82MOL0     H11060   4.125   3.212  10.646 -2.0919 -1.7240 -0.0691
   82MOL0     H11061   4.065   3.371  10.715 -1.1895  0.3035  0.4687
   82MOL0     H11062   3.921   3.253  10.855 -0.3685  2.7705 -1.6928
   82MOL0     H11063   3.979   3.097  10.809  0.8334  0.3186 -1.0770
   82MOL0     H11064   3.866   3.289  10.590  2.7034  1.9642  2.1628
   82MOL0     H11065   3.897   3.121  10.562 -1.4115 -0.5847 -0.8077
   82MOL0     H11066   3.537   3.022  10.683 -0.7550  1.2377  2.0313
   82MOL0     H11067   4.519   3.366  10.676 -2.7799 -0.5357 -0.0974
   82MOL0     H11068   4.727   3.345  10.632  0.4113  2.7355 -0.1517
   82MOL0     H11069   4.827   3.431  10.739 -1.9777  1.2803  1.0541
   82MOL0     H11070   4.836   3.254  10.739  1.0478  0.8479 -2.7413
   83MOL0     O11071   6.872   7.150   4.769  0.0108 -0.8734 -0.7265
   83MOL0     C11072   6.788   7.139   4.855  1.1346  0.0257  0.1368
   83MOL0     O11073   6.817   7.140   4.984 -0.8829 -0.0086 -0.6284
   83MOL0     C11074   6.942   7.186   5.024  0.0799  0.3790 -0.4290
   83MOL0     C11075   7.025   7.108   5.110  0.3924  1.1675 -0.0096
   83MOL0     C11076   7.145   7.156   5.153 -0.3535  0.2269  0.3873
   83MOL0     C11077   7.192   7.284   5.117 -0.8464  0.6266 -0.0116
   83MOL0     O11078   7.309   7.319   5.172 -0.1530  0.2510  0.1837
   83MOL0     C11079   7.369   7.439   5.126  0.0799  0.0804  0.4666
   83MOL0     C11080   7.523   7.408   5.117 -0.3293  0.4315 -0.0380
   83MOL0     C11081   7.598   7.537   5.082 -0.4402 -0.7253  0.5252
   83MOL0     C11082   7.750   7.529   5.102  0.1819  0.0842 -0.6114
   83MOL0     C11083   7.818   7.657   5.044  0.2866  0.1905  0.0820
   83MOL0     C11084   7.960   7.662   5.106  0.0935  1.0474 -0.7992
   83MOL0     C11085   8.034   7.758   5.022 -1.1500 -1.4704 -0.5444
   83MOL0     C11086   8.169   7.817   5.085 -0.5800  0.6371 -0.0381
   83MOL0     N11087   8.235   7.906   4.987  0.7896  0.8077  1.1109
   83MOL0     C11088   8.188   8.032   4.958  0.0266  0.8666  0.6458
   83MOL0     C11089   8.277   8.078   4.866  0.4676  0.2016  0.2148
   83MOL0     C11090   8.270   8.215   4.811  0.4232  0.4658 -0.5251
   83MOL0     C11091   8.327   8.238   4.677  0.1829 -0.5808  0.2302
   83MOL0     C11092   8.293   8.379   4.644  0.1935  0.8439 -0.3602
   83MOL0     C11093   8.339   8.414   4.501  0.6933 -1.2906  0.3928
   83MOL0     O11094   8.272   8.343   4.395  0.2224 -0.4262  0.1168
   83MOL0     C11095   8.137   8.365   4.388  0.4422 -0.4714  0.2097
   83MOL0     C11096   8.061   8.282   4.314  0.5325 -0.8186  0.3914
   83MOL0     C11097   7.925   8.286   4.293 -0.2901 -0.0690 -0.4850
   83MOL0     C11098   7.850   8.390   4.355 -0.3512 -0.0537  0.7602
   83MOL0     C11099   7.705   8.402   4.347 -0.0321  0.6403  0.0340
   83MOL0     O11100   7.641   8.517   4.403  0.5360  0.5729 -0.5454
   83MOL0     C11101   7.501   8.514   4.424 -0.2973  0.4203  0.1070
   83MOL0     C11102   7.416   8.395   4.428 -0.5477  0.3524 -0.5442
   83MOL0     C11103   7.286   8.404   4.477 -0.8782  0.0114 -0.1984
   83MOL0     C11104   7.219   8.527   4.499  0.2110 -0.2132  0.0149
   83MOL0     O11105   7.087   8.547   4.534 -0.1169 -0.0545 -0.9409
   83MOL0     C11106   7.000   8.436   4.542 -0.5404  0.0042 -0.2691
   83MOL0     C11107   6.949   8.398   4.405 -0.7213  0.1067 -0.0286
   83MOL0     C11108   6.895   8.258   4.393  0.1206 -0.4843  0.5268
   83MOL0     C11109   6.771   8.231   4.481  0.2419  0.4674  0.5046
   83MOL0     C11110   6.720   8.098   4.451  0.5599  0.0763 -0.7721
   83MOL0     C11111   6.585   8.100   4.521  0.4541  0.9139  0.3787
   83MOL0     C11112   6.509   7.960   4.500 -0.0568 -0.8832  0.1578
   83MOL0     C11113   6.422   7.927   4.623  0.3306 -0.3596 -0.1023
   83MOL0    Cl11114   6.529   7.873   4.755 -0.2086 -0.1414  0.1425
   83MOL0     C11115   7.297   8.644   4.482  0.5241 -0.2129 -0.1878
   83MOL0     C11116   7.435   8.640   4.448  0.5034 -0.1251 -0.4073
   83MOL0     O11117   7.648   8.318   4.279 -0.2709  0.0922  0.4445
   83MOL0     C11118   7.927   8.499   4.409  0.0593  0.6740 -0.1679
   83MOL0     C11119   8.066   8.480   4.431 -0.2970  0.2377 -0.2613
   83MOL0     N11120   8.373   7.980   4.833  1.1559  0.0376  0.2887
   83MOL0     N11121   8.344   7.877   4.904  0.0740  0.1403 -0.5719
   83MOL0     C11122   7.115   7.363   5.033  0.4208 -0.6262 -0.1073
   83MOL0     C11123   6.986   7.317   4.996  0.2757 -0.5949  0.4240
   83MOL0     C11124   6.650   7.088   4.823 -0.2403 -0.8607  0.2508
   83MOL0     C11125   6.564   7.070   4.928  1.0784 -0.9300 -0.1750
   83MOL0     C11126   6.433   7.030   4.911 -0.0993 -0.2690 -0.2997
   83MOL0     C11127   6.384   7.006   4.782 -0.3457 -0.4027 -0.0220
   83MOL0     O11128   6.250   6.978   4.741 -0.6965  0.2890 -0.2587
   83MOL0     C11129   6.157   6.918   4.840  0.0043  0.0644  0.7102
   83MOL0     C11130   6.023   6.995   4.842  0.4637  0.1360  0.2663
   83MOL0     C11131   6.022   7.126   4.925 -0.2909  0.5477 -0.5675
   83MOL0     C11132   5.900   7.204   4.900  0.1932  0.0121  0.5869
   83MOL0     C11133   5.875   7.334   4.959  0.5939 -0.5310  0.0718
   83MOL0     C11134   5.874   7.442   5.009 -0.6369 -0.0747  0.5689
   83MOL0     C11135   6.464   7.033   4.672 -0.1508  0.2128  0.4999
   83MOL0     C11136   6.595   7.077   4.693 -0.3669  0.0310  0.0316
   83MOL0     C11137   6.667   7.098   4.564  0.4340  0.2127 -0.5165
   83MOL0     H11138   6.986   7.013   5.146  1.6104  0.1193 -1.3694
   83MOL0     H11139   7.188   7.088   5.226 -2.8589 -1.4916  0.3960
   83MOL0     H11140   7.345   7.480   5.027  3.2238 -1.4260 -1.0646
   83MOL0     H11141   7.349   7.513   5.204 -0.7745 -1.5632  1.8643
   83MOL0     H11142   7.543   7.342   5.032  1.7993  0.2219  0.5631
   83MOL0     H11143   7.558   7.366   5.212  0.3229 -2.3713 -1.4188
   83MOL0     H11144   7.561   7.619   5.144  1.9857 -0.7561  2.1405
   83MOL0     H11145   7.568   7.564   4.981 -3.0015  0.1374  1.4457
   83MOL0     H11146   7.772   7.515   5.208 -0.5227 -3.0831 -0.7703
   83MOL0     H11147   7.776   7.431   5.061 -0.5337  0.0226 -0.9322
   83MOL0     H11148   7.828   7.648   4.936 -1.1341  0.6411 -0.1039
   83MOL0     H11149   7.766   7.750   5.069  0.7178  0.3427  0.4357
   83MOL0     H11150   7.955   7.682   5.213 -0.7810  0.1946 -0.6731
   83MOL0     H11151   8.007   7.564   5.093  1.2189  1.3308  0.8764
   83MOL0     H11152   7.971   7.845   5.002 -1.4653 -1.4186  0.5879
   83MOL0     H11153   8.063   7.704   4.932 -0.9062  2.4442 -3.0560
   83MOL0     H11154   8.153   7.868   5.180 -0.1757  0.4311  0.1449
   83MOL0     H11155   8.237   7.731   5.095 -3.0612 -1.8391 -2.5375
   83MOL0     H11156   8.107   8.086   5.005  0.9073 -0.1768  3.5435
   83MOL0     H11157   8.166   8.241   4.832  0.3038 -0.2769 -0.1691
   83MOL0     H11158   8.330   8.273   4.882  2.3117 -0.9575 -0.8860
   83MOL0     H11159   8.435   8.218   4.677 -0.0078 -1.6986 -1.0261
   83MOL0     H11160   8.284   8.173   4.601  0.7872 -0.2739 -0.3829
   83MOL0     H11161   8.343   8.439   4.720 -0.4288 -0.5540  1.2031
   83MOL0     H11162   8.185   8.397   4.647  0.2068  0.8227  0.2791
   83MOL0     H11163   8.446   8.392   4.501  1.2946  1.1302  3.3198
   83MOL0     H11164   8.327   8.522   4.492  0.4057 -1.1866  1.8777
   83MOL0     H11165   8.113   8.208   4.255 -0.3241 -1.1301  0.0076
   83MOL0     H11166   7.885   8.209   4.228  1.5815 -0.5821 -1.1111
   83MOL0     H11167   7.456   8.295   4.415 -5.2781 -2.0519  1.1025
   83MOL0     H11168   7.232   8.310   4.480 -0.0592 -0.4563  1.5215
   83MOL0     H11169   7.051   8.358   4.601 -0.1218  0.7283  0.3403
   83MOL0     H11170   6.916   8.464   4.606 -0.2903 -0.7093  0.4005
   83MOL0     H11171   6.884   8.478   4.369 -1.1558  0.1350  0.7906
   83MOL0     H11172   7.025   8.392   4.327 -0.7910  0.6014 -0.1337
   83MOL0     H11173   6.863   8.249   4.289  1.7654  0.1800 -0.0675
   83MOL0     H11174   6.976   8.185   4.406  2.7203  2.4132  1.8995
   83MOL0     H11175   6.701   8.311   4.457  0.0151  0.3063  0.6188
   83MOL0     H11176   6.789   8.244   4.589  0.3002  1.8047  0.3521
   83MOL0     H11177   6.789   8.020   4.484  2.5963  1.2253 -2.0659
   83MOL0     H11178   6.710   8.080   4.344 -0.3789  2.2535 -1.1043
   83MOL0     H11179   6.598   8.113   4.629 -1.3502  0.1408  0.7270
   83MOL0     H11180   6.535   8.185   4.476 -1.2412  0.2549  0.9420
   83MOL0     H11181   6.574   7.877   4.471 -0.9578 -1.2610 -0.8516
   83MOL0     H11182   6.435   7.973   4.421  0.0137 -2.8176 -0.2801
   83MOL0     H11183   6.357   8.007   4.658  0.3838 -0.9720  1.4579
   83MOL0     H11184   6.367   7.838   4.592  1.4917 -0.8560 -0.8308
   83MOL0     H11185   7.242   8.737   4.494 -0.4090 -0.6939 -0.7318
   83MOL0     H11186   7.491   8.733   4.453  0.7496 -0.2865 -0.1414
   83MOL0     H11187   7.881   8.588   4.451 -0.9825 -1.1234  2.8096
   83MOL0     H11188   8.116   8.553   4.494 -2.5100 -1.7998  4.2610
   83MOL0     H11189   7.128   7.463   4.993 -1.5969  0.4093  1.6522
   83MOL0     H11190   6.914   7.378   4.943  1.2565  0.7116  0.5532
   83MOL0     H11191   6.589   7.066   5.034  0.6340  1.0270  0.0372
   83MOL0     H11192   6.360   7.011   4.990 -2.2409  0.2827 -2.0346
   83MOL0     H11193   6.199   6.917   4.941  2.8257  3.0235 -0.2690
   83MOL0     H11194   6.123   6.824   4.797 -2.4847  1.8294 -1.5666
   83MOL0     H11195   5.952   6.927   4.891 -0.9515  1.3029 -0.0901
   83MOL0     H11196   5.985   7.021   4.742 -1.7018  1.5216  1.3687
   83MOL0     H11197   6.113   7.183   4.905 -0.1075  0.2009 -0.7298
   83MOL0     H11198   6.028   7.094   5.030  2.1002 -1.1811 -1.1498
   83MOL0     H11199   5.894   7.211   4.791 -0.9155  0.3857  0.6576
   83MOL0     H11200   5.824   7.137   4.940  2.8233 -3.1206  0.7237
   83MOL0     H11201   5.852   7.542   5.039  1.4552  1.0294 -1.2631
   83MOL0     H11202   6.421   7.005   4.576  1.2336 -0.7521  0.1244
   83MOL0     H11203   6.685   7.206   4.552 -0.3582  0.6836  1.9152
   83MOL0     H11204   6.759   7.040   4.570  1.4039  1.6635 -0.6279
   83MOL0     H11205   6.620   7.053   4.476 -1.2373 -0.4974  0.6780
   84MOL0     O11206   6.593   8.526   0.946 -0.6569 -0.0961  0.0784
   84MOL0     C11207   6.564   8.404   0.954  0.6988  0.3093 -0.1688
   84MOL0     O11208   6.649   8.301   0.969 -0.1547  0.6946  0.0606
   84MOL0     C11209   6.770   8.341   1.025  0.4166 -0.5755 -0.3963
   84MOL0     C11210   6.881   8.383   0.948 -0.6419 -1.1890 -0.2038
   84MOL0     C11211   6.995   8.428   1.012  0.5731  0.2187  0.9427
   84MOL0     C11212   7.004   8.438   1.145 -0.3879  0.2007  0.2362
   84MOL0     O11213   7.111   8.505   1.209 -0.4371 -0.0134 -0.6246
   84MOL0     C11214   7.240   8.468   1.166 -0.4952 -0.0880 -0.2719
   84MOL0     C11215   7.335   8.534   1.264 -0.0253 -0.1146 -1.1178
   84MOL0     C11216   7.484   8.528   1.213  0.2216 -0.8614  0.5993
   84MOL0     C11217   7.589   8.606   1.293  0.6053  0.1726 -0.1161
   84MOL0     C11218   7.701   8.657   1.205  0.0580  0.8318 -0.5302
   84MOL0     C11219   7.831   8.598   1.261 -0.0780  0.3068  0.3520
   84MOL0     C11220   7.946   8.665   1.200 -0.1438 -0.0629  0.2170
   84MOL0     C11221   8.080   8.599   1.239 -0.2640  0.1453  0.1804
   84MOL0     N11222   8.193   8.694   1.238  0.1097 -0.5293 -0.0616
   84MOL0     C11223   8.215   8.783   1.136  0.0789  1.0612 -0.0780
   84MOL0     C11224   8.298   8.877   1.194 -0.0331  0.9498  0.1801
   84MOL0     C11225   8.344   9.003   1.120 -0.8175 -0.0183 -0.2967
   84MOL0     C11226   8.234   9.064   1.038  0.3156 -0.8713 -0.2061
   84MOL0     C11227   8.293   9.203   1.001 -0.0972  0.3470 -0.2008
   84MOL0     C11228   8.212   9.276   0.897  0.1338 -0.4383 -0.3184
   84MOL0     O11229   8.244   9.414   0.901 -0.2794  0.1925 -0.0672
   84MOL0     C11230   8.362   9.452   0.847 -1.1850 -0.7521 -0.4577
   84MOL0     C11231   8.427   9.563   0.911  0.3287 -0.3846 -0.7711
   84MOL0     C11232   8.550   9.614   0.866  0.1810  0.5682  0.1429
   84MOL0     C11233   8.620   9.543   0.760  0.2627  0.0600  0.0629
   84MOL0     C11234   8.754   9.580   0.716 -0.1055  0.1097 -0.8811
   84MOL0     O11235   8.808   9.670   0.804 -0.1310 -0.4218 -0.0548
   84MOL0     C11236   8.929   9.724   0.775 -0.0987 -0.3833 -0.0207
   84MOL0     C11237   8.976   9.766   0.650 -0.2025 -0.2155  0.4598
   84MOL0     C11238   9.109   9.811   0.642  0.7787  0.0079  1.5634
   84MOL0     C11239   9.191   9.823   0.754  0.1643 -0.4345  0.2943
   84MOL0     O11240   9.314   9.878   0.757  0.3109 -0.0760 -0.2125
   84MOL0     C11241   9.376   9.923   0.638  0.5246 -0.7052 -0.3693
   84MOL0     C11242   9.526   9.956   0.668 -0.1424 -0.2880  0.4817
   84MOL0     C11243   9.601   9.830   0.712  0.0126 -0.3754 -0.1745
   84MOL0     C11244   9.746   9.844   0.769 -0.2470 -0.2827  1.3526
   84MOL0     C11245   9.827   9.714   0.769 -1.1686 -0.4764 -0.6117
   84MOL0     C11246   9.928   9.693   0.886 -0.6393 -0.0870  0.3499
   84MOL0     C11247  10.041   9.802   0.875 -0.0748 -0.5837 -0.2986
   84MOL0     C11248  10.148   9.772   0.986  0.2952 -0.6120 -0.6427
   84MOL0    Cl11249  10.274   9.904   0.999  0.1878  0.2203 -0.2195
   84MOL0     C11250   9.138   9.791   0.880  0.0770 -1.1710 -0.0086
   84MOL0     C11251   9.017   9.727   0.882 -0.2995 -0.2177 -0.6407
   84MOL0     O11252   8.806   9.525   0.622  1.3884 -0.4778  0.3127
   84MOL0     C11253   8.564   9.424   0.705  0.0616 -0.4846 -0.7536
   84MOL0     C11254   8.436   9.384   0.746 -0.1235  0.0880  0.1527
   84MOL0     N11255   8.330   8.828   1.321  0.2110  0.1691  0.0405
   84MOL0     N11256   8.272   8.716   1.349  0.0903 -0.6281 -0.4964
   84MOL0     C11257   6.907   8.377   1.224 -0.3407 -0.1328 -0.1161
   84MOL0     C11258   6.783   8.333   1.168  0.7560 -0.0807 -0.6115
   84MOL0     C11259   6.419   8.370   0.922 -0.2991 -0.7104  0.5023
   84MOL0     C11260   6.381   8.241   0.896  0.3788  0.0579  1.1449
   84MOL0     C11261   6.258   8.200   0.858  0.1679  0.5551  0.8823
   84MOL0     C11262   6.150   8.292   0.846  0.5201  0.3147 -0.2271
   84MOL0     O11263   6.019   8.267   0.826  0.3229  0.6882  0.4891
   84MOL0     C11264   5.978   8.140   0.784  1.0412  0.0779  0.0189
   84MOL0     C11265   5.972   8.032   0.893  0.2936  0.0283  0.0346
   84MOL0     C11266   5.906   8.095   1.017  0.1518  0.4690  0.4301
   84MOL0     C11267   5.862   8.005   1.132  0.0985  0.1172  0.2897
   84MOL0     C11268   5.977   7.980   1.216 -0.2221 -0.4655  0.0819
   84MOL0     C11269   6.080   7.951   1.268  0.6502 -0.4144 -0.1962
   84MOL0     C11270   6.181   8.424   0.873  0.2125  0.1734  0.2039
   84MOL0     C11271   6.308   8.471   0.911  0.4553 -0.1302 -0.6727
   84MOL0     C11272   6.317   8.613   0.949 -0.0089  0.6616  0.0492
   84MOL0     H11273   6.871   8.402   0.841 -1.5305  0.6600  0.1699
   84MOL0     H11274   7.062   8.479   0.943 -1.6075  1.9887 -0.0175
   84MOL0     H11275   7.261   8.360   1.164  1.3326  0.2333 -0.9176
   84MOL0     H11276   7.254   8.498   1.062  1.4126 -1.7708 -0.5756
   84MOL0     H11277   7.332   8.480   1.359  2.4027  0.6566 -0.5062
   84MOL0     H11278   7.310   8.640   1.262  1.8103  0.3568 -0.9411
   84MOL0     H11279   7.475   8.566   1.111 -0.1785  2.3248  1.7179
   84MOL0     H11280   7.525   8.426   1.214  0.5455 -0.7968  3.6776
   84MOL0     H11281   7.543   8.692   1.343  0.0198 -0.1446 -0.1024
   84MOL0     H11282   7.632   8.540   1.368 -1.1015  0.3550  1.0863
   84MOL0     H11283   7.692   8.625   1.101 -3.1641  2.6345 -0.9720
   84MOL0     H11284   7.700   8.767   1.212  0.9342  0.7951  0.2764
   84MOL0     H11285   7.844   8.609   1.369  2.6333  0.9743  0.0203
   84MOL0     H11286   7.840   8.496   1.224 -1.7383  1.0834 -2.5685
   84MOL0     H11287   7.939   8.768   1.236  2.9507 -0.5913  2.7025
   84MOL0     H11288   7.945   8.658   1.090  0.0557  2.0512  0.0319
   84MOL0     H11289   8.066   8.568   1.343 -2.5756 -0.2212 -0.1910
   84MOL0     H11290   8.091   8.509   1.178 -1.6968 -2.2615  3.2017
   84MOL0     H11291   8.173   8.775   1.037  1.3147 -0.4651 -0.5221
   84MOL0     H11292   8.382   9.073   1.195  0.0935 -0.2361 -0.5417
   84MOL0     H11293   8.421   8.977   1.047 -3.9001 -2.4785 -2.9481
   84MOL0     H11294   8.221   9.000   0.950 -0.7826 -0.2799 -0.4890
   84MOL0     H11295   8.149   9.074   1.106  1.7709 -0.3370  1.6367
   84MOL0     H11296   8.395   9.186   0.965  0.0639 -2.6775  1.4023
   84MOL0     H11297   8.288   9.261   1.094  0.8321  1.1163 -0.6092
   84MOL0     H11298   8.106   9.265   0.924  1.1123  1.3105  5.6572
   84MOL0     H11299   8.234   9.226   0.802  0.9747 -0.2237 -0.2469
   84MOL0     H11300   8.372   9.613   0.990  1.1031  1.1120 -1.1354
   84MOL0     H11301   8.593   9.694   0.925 -1.0214 -1.1368  3.5766
   84MOL0     H11302   8.929   9.749   0.554 -0.9742 -0.9842  0.9636
   84MOL0     H11303   9.146   9.850   0.548 -0.4890  3.2016  2.2674
   84MOL0     H11304   9.369   9.850   0.557 -0.3695 -0.5556 -0.4391
   84MOL0     H11305   9.328  10.017   0.611  1.1557 -0.6043 -1.1941
   84MOL0     H11306   9.568   9.987   0.573  0.5966  0.1294  0.9354
   84MOL0     H11307   9.532  10.050   0.725 -2.7056  1.2161 -1.5111
   84MOL0     H11308   9.552   9.769   0.788  5.2729 -0.9229  3.3150
   84MOL0     H11309   9.619   9.769   0.623 -0.4434  0.6127 -0.9721
   84MOL0     H11310   9.743   9.893   0.867  0.5421  1.1234  0.7127
   84MOL0     H11311   9.812   9.906   0.706 -0.8686 -0.7866  0.1770
   84MOL0     H11312   9.870   9.697   0.670  0.7428  1.5204 -0.1945
   84MOL0     H11313   9.761   9.628   0.780  2.2016 -3.5408 -2.1770
   84MOL0     H11314   9.870   9.696   0.979 -1.5927  0.9539 -0.2522
   84MOL0     H11315   9.973   9.593   0.881  1.4875  0.8204  0.3142
   84MOL0     H11316  10.009   9.904   0.897  0.1301 -0.7375  0.7483
   84MOL0     H11317  10.081   9.793   0.773 -1.4926  1.6424 -1.1220
   84MOL0     H11318  10.101   9.773   1.085  1.9555 -1.1547  0.1726
   84MOL0     H11319  10.196   9.680   0.952  0.7139 -0.5661 -0.1852
   84MOL0     H11320   9.198   9.820   0.965 -0.4022 -0.1275 -0.0115
   84MOL0     H11321   8.983   9.692   0.979 -2.3191 -1.1403 -1.6247
   84MOL0     H11322   8.614   9.369   0.626 -1.7922 -0.6149 -1.8882
   84MOL0     H11323   8.386   9.299   0.700 -4.8460  2.4001  0.4437
   84MOL0     H11324   6.912   8.377   1.333  1.3158  0.2298 -0.1744
   84MOL0     H11325   6.709   8.292   1.235  1.1894 -0.8036 -0.5754
   84MOL0     H11326   6.447   8.155   0.898  1.0432  0.5215  0.2591
   84MOL0     H11327   6.245   8.095   0.832 -1.1444  0.8307  0.3290
   84MOL0     H11328   6.056   8.102   0.718  1.3905 -0.4472  0.7156
   84MOL0     H11329   5.879   8.147   0.737  0.7530  2.0054  0.8106
   84MOL0     H11330   6.077   8.013   0.919  0.7964  3.3499  0.9118
   84MOL0     H11331   5.920   7.944   0.852 -1.6199  1.8453 -1.6733
   84MOL0     H11332   5.819   8.155   0.992  1.2283  1.3923 -1.2900
   84MOL0     H11333   5.980   8.167   1.054 -0.1005  2.6182 -2.8797
   84MOL0     H11334   5.783   8.061   1.182 -1.4303 -0.5226 -1.3284
   84MOL0     H11335   5.825   7.910   1.091  1.7438 -1.8505  2.9927
   84MOL0     H11336   6.172   7.928   1.317  0.8224  0.1483 -0.2482
   84MOL0     H11337   6.101   8.497   0.874 -0.0752 -0.1425  1.0821
   84MOL0     H11338   6.386   8.653   0.874  0.5332  0.3389  0.3680
   84MOL0     H11339   6.219   8.661   0.956  0.3762  1.4605  0.0924
   84MOL0     H11340   6.368   8.617   1.046  2.6261 -1.7854 -1.1023
   85MOL0     O11341   3.677   1.500   7.648  0.4990  1.1273 -0.0116
   85MOL0     C11342   3.684   1.411   7.563  0.1797 -0.5484  0.4594
   85MOL0     O11343   3.797   1.333   7.546  0.3620  0.3297  0.6344
   85MOL0     C11344   3.887   1.337   7.648 -0.0898  0.1063  0.2433
   85MOL0     C11345   3.869   1.258   7.766  0.0335  0.4587 -0.2313
   85MOL0     C11346   3.970   1.256   7.863  0.0055 -0.4860  0.0617
   85MOL0     C11347   4.080   1.338   7.854 -0.3186 -0.0620  0.2435
   85MOL0     O11348   4.166   1.357   7.953  0.7072 -0.9971 -0.9582
   85MOL0     C11349   4.225   1.235   8.007  0.6336  0.4034 -0.8845
   85MOL0     C11350   4.322   1.277   8.120 -0.6688 -0.5147 -0.1847
   85MOL0     C11351   4.442   1.339   8.060  0.0319  0.5799 -0.2862
   85MOL0     C11352   4.570   1.325   8.150  0.6261  0.0793  0.7614
   85MOL0     C11353   4.560   1.421   8.267  0.0461 -0.0504 -0.5546
   85MOL0     C11354   4.671   1.415   8.373  0.7397 -0.0190 -1.6117
   85MOL0     C11355   4.621   1.485   8.502 -0.2525 -0.1887 -0.4560
   85MOL0     C11356   4.716   1.474   8.619  1.0448 -0.6369 -1.2920
   85MOL0     N11357   4.836   1.559   8.605 -0.9458 -0.3611 -0.4983
   85MOL0     C11358   4.831   1.688   8.648 -0.8942 -1.2171 -0.1248
   85MOL0     C11359   4.958   1.731   8.625  0.4305  0.7916 -0.3025
   85MOL0     C11360   5.004   1.873   8.650 -0.0303 -0.4835 -0.0920
   85MOL0     C11361   5.156   1.892   8.624  0.4229 -0.5226 -0.1194
   85MOL0     C11362   5.204   2.041   8.635 -0.3982 -0.5053 -0.2344
   85MOL0     C11363   5.169   2.101   8.772 -0.5994 -0.1429 -0.1281
   85MOL0     O11364   5.212   2.238   8.768  0.1588 -0.4468 -0.1408
   85MOL0     C11365   5.123   2.342   8.770 -0.7369  0.5095  0.2143
   85MOL0     C11366   5.164   2.463   8.832 -0.1193  0.6575  0.3428
   85MOL0     C11367   5.078   2.573   8.829 -0.5523 -0.9064  0.0254
   85MOL0     C11368   4.949   2.567   8.767 -0.6057  0.2915  0.0338
   85MOL0     C11369   4.860   2.686   8.750 -0.2281 -0.1238 -0.0209
   85MOL0     O11370   4.914   2.800   8.786 -0.5151 -0.3662 -0.5134
   85MOL0     C11371   4.862   2.923   8.757 -0.8697  0.0549  0.5308
   85MOL0     C11372   4.797   2.961   8.634 -0.6477  0.8367  0.2774
   85MOL0     C11373   4.749   3.083   8.593 -0.1226  0.0782  0.6912
   85MOL0     C11374   4.769   3.193   8.681 -0.4444  0.2150  0.1002
   85MOL0     O11375   4.736   3.324   8.663  0.2516  0.1910  0.1224
   85MOL0     C11376   4.652   3.348   8.551  0.4175 -0.0284 -0.2065
   85MOL0     C11377   4.571   3.472   8.595  0.2898  0.1954  0.4987
   85MOL0     C11378   4.477   3.513   8.477 -0.2239 -0.1106  0.2071
   85MOL0     C11379   4.364   3.604   8.501  0.0691 -0.0696 -0.1902
   85MOL0     C11380   4.251   3.604   8.401  0.9129 -0.1026  0.2461
   85MOL0     C11381   4.288   3.666   8.271 -0.4753 -0.2085 -0.4141
   85MOL0     C11382   4.163   3.718   8.191  0.3241 -0.0196 -0.1223
   85MOL0     C11383   4.185   3.776   8.052  0.0677  0.6193 -0.1947
   85MOL0    Cl11384   4.037   3.835   7.974 -0.7283 -0.0057  0.3326
   85MOL0     C11385   4.835   3.167   8.800  0.2258 -0.3367 -0.5351
   85MOL0     C11386   4.879   3.039   8.839  0.5057  0.5253  0.4836
   85MOL0     O11387   4.742   2.676   8.708  0.3200 -0.1783 -0.6160
   85MOL0     C11388   4.915   2.447   8.698  0.3126  0.0226 -0.9563
   85MOL0     C11389   4.998   2.337   8.702 -0.7746  1.6850 -0.4649
   85MOL0     N11390   5.034   1.631   8.579 -0.4278  0.1481 -0.0361
   85MOL0     N11391   4.965   1.525   8.570  0.9140 -0.2860 -1.0039
   85MOL0     C11392   4.094   1.426   7.743 -0.5859  0.0697  0.1534
   85MOL0     C11393   3.999   1.417   7.638 -0.0937  0.3790  0.5481
   85MOL0     C11394   3.571   1.393   7.471 -0.0348 -0.2071  0.8940
   85MOL0     C11395   3.466   1.489   7.478  0.6748  0.6488  0.4056
   85MOL0     C11396   3.347   1.467   7.414  0.1230 -0.4834 -0.3091
   85MOL0     C11397   3.337   1.352   7.342 -0.0429  0.1314 -0.4943
   85MOL0     O11398   3.211   1.313   7.293 -0.0364  0.2770  0.1973
   85MOL0     C11399   3.208   1.291   7.155  0.0522  0.5628  0.3268
   85MOL0     C11400   3.063   1.283   7.102 -0.1276  0.5242 -0.0638
   85MOL0     C11401   2.977   1.388   7.162 -0.0208 -0.3246 -0.3949
   85MOL0     C11402   2.838   1.357   7.110 -1.2486  0.3975  0.1037
   85MOL0     C11403   2.735   1.445   7.176  0.6496 -0.0037  0.0380
   85MOL0     C11404   2.654   1.524   7.223 -0.5549 -0.3115 -0.7178
   85MOL0     C11405   3.440   1.259   7.323  0.1941 -0.2436  0.3845
   85MOL0     C11406   3.558   1.281   7.386 -0.0246 -0.2420 -0.1567
   85MOL0     C11407   3.662   1.171   7.380 -0.4918  0.6433  0.7246
   85MOL0     H11408   3.784   1.192   7.781  0.0052 -0.1042 -2.3988
   85MOL0     H11409   3.953   1.190   7.948  2.0113  0.2849  1.1386
   85MOL0     H11410   4.146   1.168   8.042  0.6924  1.8220  2.3721
   85MOL0     H11411   4.274   1.193   7.919 -1.1895 -1.0393 -1.2630
   85MOL0     H11412   4.344   1.186   8.176 -1.7129 -0.7941 -0.2101
   85MOL0     H11413   4.274   1.352   8.183 -1.0424 -1.8028  1.1045
   85MOL0     H11414   4.428   1.447   8.051  1.0551  0.8540  1.1554
   85MOL0     H11415   4.471   1.304   7.960 -0.0115  1.0239 -0.4562
   85MOL0     H11416   4.572   1.226   8.197  2.3091  0.1661  0.9175
   85MOL0     H11417   4.656   1.360   8.093  0.3778 -0.7453 -0.1451
   85MOL0     H11418   4.563   1.519   8.218 -0.6642 -0.7139 -2.0112
   85MOL0     H11419   4.464   1.417   8.321  1.5586 -0.2982  2.2959
   85MOL0     H11420   4.683   1.306   8.384 -0.0343 -0.0257 -0.6532
   85MOL0     H11421   4.763   1.449   8.327  3.6032 -4.7722 -0.1478
   85MOL0     H11422   4.527   1.438   8.533 -0.2663  1.0338  1.5586
   85MOL0     H11423   4.586   1.588   8.491  0.4738  0.4424  2.2456
   85MOL0     H11424   4.657   1.514   8.702  2.6242 -0.1380 -0.3512
   85MOL0     H11425   4.732   1.370   8.646 -1.0086  0.0931  3.8605
   85MOL0     H11426   4.745   1.747   8.675  0.9715  0.4797  2.5597
   85MOL0     H11427   4.953   1.938   8.578  2.6024  0.8278 -0.9007
   85MOL0     H11428   4.982   1.909   8.750 -0.1538  0.4500 -0.4481
   85MOL0     H11429   5.200   1.832   8.705  0.0679 -0.5648  0.0473
   85MOL0     H11430   5.184   1.854   8.526  3.0729 -0.7199  0.6334
   85MOL0     H11431   5.151   2.097   8.557 -2.2524 -0.7820  0.7629
   85MOL0     H11432   5.311   2.054   8.620 -0.4998  2.4083  0.8377
   85MOL0     H11433   5.226   2.051   8.851  2.3059  1.5892 -0.9530
   85MOL0     H11434   5.064   2.101   8.800 -0.3146  2.9706  1.3852
   85MOL0     H11435   5.261   2.483   8.876  0.3260 -0.4311 -0.1106
   85MOL0     H11436   5.120   2.665   8.869  1.0200 -2.6796  2.7152
   85MOL0     H11437   4.766   2.885   8.563 -0.1370  0.5673  0.3369
   85MOL0     H11438   4.699   3.097   8.498 -0.3854  2.8571  1.1567
   85MOL0     H11439   4.710   3.373   8.462 -1.8255  0.4638 -1.6061
   85MOL0     H11440   4.587   3.263   8.531  1.2255 -0.7316  0.1279
   85MOL0     H11441   4.507   3.444   8.679  0.9645  2.0750  1.6937
   85MOL0     H11442   4.627   3.563   8.615  0.0098  0.4602  0.1112
   85MOL0     H11443   4.532   3.551   8.390 -0.3324 -0.9994 -0.2555
   85MOL0     H11444   4.428   3.421   8.444 -1.3099  1.0229 -1.5068
   85MOL0     H11445   4.410   3.703   8.500  1.0128 -0.4857 -1.6929
   85MOL0     H11446   4.334   3.576   8.602  1.6378 -2.0639 -0.1909
   85MOL0     H11447   4.168   3.663   8.441  0.0725 -1.4594  0.5992
   85MOL0     H11448   4.203   3.505   8.399  1.3212 -0.3266  1.1518
   85MOL0     H11449   4.359   3.748   8.289  0.3437 -1.0148  0.1082
   85MOL0     H11450   4.344   3.593   8.213  2.8299  1.0226  0.9730
   85MOL0     H11451   4.123   3.805   8.244 -0.8017  0.1268 -1.1709
   85MOL0     H11452   4.087   3.639   8.194 -1.4619  1.6297  0.5236
   85MOL0     H11453   4.256   3.860   8.058  1.0239 -0.2121  0.5216
   85MOL0     H11454   4.224   3.698   7.987  1.1930  0.0937  1.0549
   85MOL0     H11455   4.850   3.251   8.867  0.1301 -0.7449  0.0085
   85MOL0     H11456   4.924   3.018   8.935  0.3161  1.0088  0.6805
   85MOL0     H11457   4.817   2.444   8.650 -0.1035  0.1616 -0.1412
   85MOL0     H11458   4.963   2.243   8.660 -0.3094  1.0148  0.6042
   85MOL0     H11459   4.177   1.495   7.730  0.8242 -1.7803 -1.1765
   85MOL0     H11460   4.005   1.473   7.545  3.3248 -2.1535 -0.9847
   85MOL0     H11461   3.472   1.570   7.549  0.2588  0.3185  0.8225
   85MOL0     H11462   3.262   1.534   7.410 -0.9142 -1.7658 -0.5415
   85MOL0     H11463   3.255   1.194   7.133 -0.9209  0.6745 -2.7958
   85MOL0     H11464   3.266   1.365   7.098  4.5054 -2.4976  0.3868
   85MOL0     H11465   3.019   1.189   7.138 -0.5861  0.8434  0.2276
   85MOL0     H11466   3.057   1.290   6.993  0.1151  0.2465 -0.0963
   85MOL0     H11467   3.019   1.483   7.129  2.2266 -1.0521  0.1697
   85MOL0     H11468   2.989   1.385   7.271  1.0607 -4.8480 -0.4285
   85MOL0     H11469   2.834   1.365   7.001 -0.3822 -0.2741  0.0093
   85MOL0     H11470   2.809   1.256   7.140 -0.0306 -0.1022 -0.3528
   85MOL0     H11471   2.591   1.580   7.289  0.5562 -2.8468  2.7870
   85MOL0     H11472   3.415   1.165   7.274 -1.7841  0.1248  0.5963
   85MOL0     H11473   3.750   1.206   7.325 -0.2172  0.5701  1.1132
   85MOL0     H11474   3.689   1.125   7.476 -0.5521  0.5522  0.6984
   85MOL0     H11475   3.618   1.087   7.326 -2.5799  0.8596  1.9924
   86MOL0     O11476   0.105   3.922   9.855 -0.2240  0.4777 -0.0554
   86MOL0     C11477   0.153   3.931   9.966 -0.3404  1.0634  0.8611
   86MOL0     O11478   0.285   3.951   9.999 -0.3444 -0.3631 -0.6384
   86MOL0     C11479   0.387   3.931   9.910  0.7572 -0.5149 -0.3673
   86MOL0     C11480   0.385   3.855   9.791 -0.2030  0.1775  0.1337
   86MOL0     C11481   0.499   3.868   9.710 -0.5237  0.2675  0.5340
   86MOL0     C11482   0.615   3.930   9.745  0.8539 -0.5881 -0.6965
   86MOL0     O11483   0.727   3.943   9.666  0.1292 -0.1750 -0.0140
   86MOL0     C11484   0.721   3.883   9.535 -0.1893  0.0524 -0.0687
   86MOL0     C11485   0.867   3.891   9.489 -0.3750  0.5576 -0.6103
   86MOL0     C11486   0.963   3.797   9.565 -0.4701  0.0215  0.5408
   86MOL0     C11487   1.096   3.794   9.499  0.9729  0.7725 -0.5432
   86MOL0     C11488   1.198   3.736   9.607  0.7354  0.2939 -0.4775
   86MOL0     C11489   1.331   3.698   9.552 -0.4856 -0.4478 -0.3183
   86MOL0     C11490   1.421   3.623   9.651 -0.4860 -0.7884  1.4266
   86MOL0     C11491   1.390   3.476   9.686 -0.0937 -0.0194  0.3561
   86MOL0     N11492   1.412   3.383   9.566 -0.3514  0.1690 -0.3970
   86MOL0     C11493   1.532   3.331   9.523  0.2758 -0.4235  0.1299
   86MOL0     C11494   1.507   3.270   9.407 -0.5672  0.5412 -0.9619
   86MOL0     C11495   1.609   3.189   9.330  0.5637 -1.0330  0.1386
   86MOL0     C11496   1.721   3.280   9.276  0.9123  0.3309 -0.0846
   86MOL0     C11497   1.800   3.211   9.163  0.2557  0.6719  0.3039
   86MOL0     C11498   1.896   3.100   9.208 -0.5629  0.3437  0.1506
   86MOL0     O11499   1.928   2.997   9.106 -0.1685 -0.1246  0.4382
   86MOL0     C11500   2.058   2.999   9.051 -0.1485 -1.2242 -0.1217
   86MOL0     C11501   2.086   3.078   8.940  0.3230  0.2484 -0.9459
   86MOL0     C11502   2.214   3.078   8.883  0.1161 -0.5186  0.1891
   86MOL0     C11503   2.323   3.002   8.935 -0.1705 -0.3167  0.4607
   86MOL0     C11504   2.450   3.003   8.866 -0.1664 -0.5219  0.6645
   86MOL0     O11505   2.466   3.077   8.753  0.0137 -0.1331  0.8147
   86MOL0     C11506   2.581   3.087   8.677 -0.6481 -0.8765 -0.5203
   86MOL0     C11507   2.629   3.221   8.645 -0.4092  0.7700  0.2361
   86MOL0     C11508   2.749   3.233   8.580  0.3866 -0.2686 -0.0661
   86MOL0     C11509   2.834   3.128   8.551 -0.6531  0.8116 -0.0880
   86MOL0     O11510   2.951   3.136   8.476 -0.0177  0.0571 -0.4721
   86MOL0     C11511   3.027   3.261   8.500 -0.0121  0.3824  0.1071
   86MOL0     C11512   3.173   3.219   8.501  0.6665  0.3851 -0.3158
   86MOL0     C11513   3.208   3.109   8.603  0.0827  0.6441  0.9208
   86MOL0     C11514   3.338   3.039   8.558 -0.5670 -0.2779  0.4283
   86MOL0     C11515   3.459   3.131   8.588  0.0491 -0.2081  0.7809
   86MOL0     C11516   3.586   3.075   8.524 -0.2523  1.0261  0.1530
   86MOL0     C11517   3.705   3.179   8.530 -0.0834 -0.2085  0.6375
   86MOL0     C11518   3.852   3.134   8.494  0.2285  0.0577  0.1993
   86MOL0    Cl11519   3.861   3.091   8.321  0.0996 -0.2302  0.1526
   86MOL0     C11520   2.787   2.992   8.582 -0.3723 -0.4720 -0.1342
   86MOL0     C11521   2.658   2.973   8.643 -0.6413 -0.3393 -0.8760
   86MOL0     O11522   2.542   2.926   8.909 -0.1526 -0.8171 -1.3866
   86MOL0     C11523   2.290   2.923   9.052  0.5160 -0.0505 -0.1068
   86MOL0     C11524   2.162   2.924   9.105  0.8400  0.0552  0.1117
   86MOL0     N11525   1.367   3.274   9.387 -1.0997 -0.0257 -0.6854
   86MOL0     N11526   1.317   3.348   9.477  0.5791 -0.2369 -0.0695
   86MOL0     C11527   0.624   3.989   9.878 -0.2110  0.8428 -0.4279
   86MOL0     C11528   0.508   3.990   9.956  0.1353 -1.0424  0.2772
   86MOL0     C11529   0.055   3.947  10.076  0.0856 -0.2373  0.0989
   86MOL0     C11530   0.118   3.977  10.200 -0.0217 -0.3526  0.0223
   86MOL0     C11531   0.038   4.001  10.310 -0.4980  0.0846 -0.6179
   86MOL0     C11532  -0.098   3.997  10.309  0.6093 -0.2382  0.4052
   86MOL0     O11533  -0.167   4.018  10.430 -0.5473  0.1884  0.4355
   86MOL0     C11534  -0.300   3.978  10.439  0.4359 -0.8248 -0.3940
   86MOL0     C11535  -0.360   4.053  10.561 -0.9616 -0.3976 -0.2410
   86MOL0     C11536  -0.511   4.063  10.556  1.2985 -0.7716 -0.0395
   86MOL0     C11537  -0.561   4.162  10.667  1.0343 -0.6086 -0.8138
   86MOL0     C11538  -0.711   4.153  10.678  0.8967  0.3674  0.5561
   86MOL0     C11539  -0.834   4.143  10.678  0.6706 -0.8122 -0.0628
   86MOL0     C11540  -0.162   3.965  10.190 -0.2764 -0.0464  0.9766
   86MOL0     C11541  -0.085   3.931  10.068 -0.5610  0.2872  1.0451
   86MOL0     C11542  -0.164   3.911   9.933  0.2130  0.6846 -0.9241
   86MOL0     H11543   0.298   3.796   9.763 -0.1134  0.0037  0.2196
   86MOL0     H11544   0.495   3.812   9.617  0.3682 -0.2203  0.7789
   86MOL0     H11545   0.700   3.775   9.541  2.9411 -0.6949 -0.8865
   86MOL0     H11546   0.655   3.940   9.470 -1.1678  0.1937  1.0126
   86MOL0     H11547   0.900   3.994   9.509  0.9795 -0.3960  2.7705
   86MOL0     H11548   0.861   3.869   9.382 -1.6497 -3.3334  0.1278
   86MOL0     H11549   0.927   3.695   9.580 -1.4960  0.2944  0.0203
   86MOL0     H11550   0.972   3.844   9.664  2.4611  0.5949  0.1006
   86MOL0     H11551   1.084   3.731   9.410 -2.5182 -0.6616  0.7792
   86MOL0     H11552   1.113   3.899   9.474 -0.3231  0.9253 -0.8378
   86MOL0     H11553   1.201   3.808   9.689  0.4685 -2.3228  1.9691
   86MOL0     H11554   1.146   3.649   9.649  2.3131 -0.8110 -0.7081
   86MOL0     H11555   1.322   3.645   9.457  3.0005 -0.3791 -0.7985
   86MOL0     H11556   1.386   3.789   9.526  0.7833 -0.7470  1.1427
   86MOL0     H11557   1.413   3.683   9.742 -2.0090 -1.7818  1.9803
   86MOL0     H11558   1.521   3.621   9.605 -1.7458  0.9185 -1.6859
   86MOL0     H11559   1.451   3.452   9.774  1.1934  1.8025  0.0398
   86MOL0     H11560   1.285   3.464   9.714 -0.6059  1.3457 -0.8461
   86MOL0     H11561   1.632   3.326   9.565 -1.1233 -1.5361  3.7642
   86MOL0     H11562   1.664   3.117   9.392  0.8402 -1.0573 -0.1307
   86MOL0     H11563   1.557   3.136   9.249 -3.4382  0.9480  1.1507
   86MOL0     H11564   1.672   3.364   9.227 -0.4577 -0.2109  0.3256
   86MOL0     H11565   1.783   3.315   9.359 -1.2423 -0.3287  1.9217
   86MOL0     H11566   1.864   3.283   9.112  0.3574  0.3892  0.0349
   86MOL0     H11567   1.729   3.175   9.089 -0.2950  1.2919  0.5106
   86MOL0     H11568   1.851   3.044   9.290  0.5888 -0.5404  0.2034
   86MOL0     H11569   1.992   3.144   9.236  0.5881 -2.2732  0.6059
   86MOL0     H11570   2.004   3.141   8.905  0.8711  2.0520  0.8307
   86MOL0     H11571   2.232   3.128   8.789 -1.6649 -1.8981 -0.9530
   86MOL0     H11572   2.559   3.301   8.666 -0.7420  1.2185 -2.2544
   86MOL0     H11573   2.784   3.332   8.553 -0.3724  0.4398  1.4107
   86MOL0     H11574   3.008   3.330   8.417  1.2851 -1.5466 -1.9035
   86MOL0     H11575   3.017   3.311   8.597 -0.2277  2.6762 -1.0382
   86MOL0     H11576   3.186   3.188   8.397  0.0848  0.4624 -0.4131
   86MOL0     H11577   3.235   3.307   8.522  2.9891 -0.3527 -3.3347
   86MOL0     H11578   3.221   3.155   8.701  3.4443 -1.7157  1.7340
   86MOL0     H11579   3.135   3.032   8.629  0.8994  0.3929  2.6053
   86MOL0     H11580   3.334   3.013   8.452 -0.1295 -0.0280  0.3462
   86MOL0     H11581   3.357   2.949   8.617  1.7067  0.6434  1.2453
   86MOL0     H11582   3.464   3.151   8.695  1.3605  0.3083  0.6449
   86MOL0     H11583   3.440   3.226   8.537  3.3349 -0.3304 -0.9573
   86MOL0     H11584   3.601   2.987   8.588 -1.5260  2.0323  1.9461
   86MOL0     H11585   3.566   3.045   8.421  2.1608  1.2709 -0.4409
   86MOL0     H11586   3.700   3.217   8.632 -0.0522  1.3543  0.0757
   86MOL0     H11587   3.684   3.256   8.455  0.2499 -1.1052 -0.4027
   86MOL0     H11588   3.924   3.214   8.510 -0.7280  1.0264 -0.2505
   86MOL0     H11589   3.886   3.053   8.560 -1.8906 -0.8874  0.2173
   86MOL0     H11590   2.845   2.906   8.547 -1.2274 -0.8857 -0.5702
   86MOL0     H11591   2.618   2.877   8.674 -3.5632  0.7218 -1.0489
   86MOL0     H11592   2.363   2.853   9.093  0.2114  0.4251  1.3002
   86MOL0     H11593   2.138   2.861   9.190  1.7546 -1.3982 -0.6644
   86MOL0     H11594   0.721   4.030   9.906  1.1672 -1.0320 -2.1332
   86MOL0     H11595   0.512   4.032  10.056  1.6557  0.9700 -0.5563
   86MOL0     H11596   0.225   3.965  10.210  0.1012 -0.8040 -1.4926
   86MOL0     H11597   0.091   4.038  10.397 -0.3573  1.2471 -1.1794
   86MOL0     H11598  -0.314   3.869  10.446 -0.0421 -0.8721 -1.9062
   86MOL0     H11599  -0.361   4.019  10.359  0.3474  1.6827  0.8803
   86MOL0     H11600  -0.331   4.159  10.563 -1.3161 -0.3073  0.2154
   86MOL0     H11601  -0.336   4.005  10.656 -0.9713  0.2377  0.0898
   86MOL0     H11602  -0.574   3.974  10.567 -0.0040  0.0818 -0.3567
   86MOL0     H11603  -0.550   4.104  10.462 -2.0670 -0.7894  1.2021
   86MOL0     H11604  -0.516   4.147  10.766  0.7775  0.5690 -0.4934
   86MOL0     H11605  -0.545   4.264  10.631 -0.3247 -1.1378 -3.0694
   86MOL0     H11606  -0.940   4.139  10.693  0.9346  0.0344  2.5319
   86MOL0     H11607  -0.270   3.964  10.186 -0.3389  2.5581  0.0720
   86MOL0     H11608  -0.144   3.818   9.879 -1.2472  0.9825 -2.0351
   86MOL0     H11609  -0.271   3.921   9.957  0.2169  1.9587 -1.3536
   86MOL0     H11610  -0.142   3.997   9.869  2.2336  0.8194 -0.1006
   87MOL0     O11611   3.221  10.153   7.577 -0.3778 -0.0020  0.1773
   87MOL0     C11612   3.205  10.208   7.685 -0.0579 -0.3994  0.1281
   87MOL0     O11613   3.289  10.195   7.791  0.5866 -0.2335  0.2955
   87MOL0     C11614   3.408  10.124   7.791  0.6736 -0.5769  0.4607
   87MOL0     C11615   3.421   9.999   7.729 -0.1081  0.7897 -0.1179
   87MOL0     C11616   3.544   9.928   7.761  0.5296  0.3322 -0.2202
   87MOL0     C11617   3.648   9.984   7.841  0.4558 -0.4817  0.3056
   87MOL0     O11618   3.751   9.902   7.873  0.1632 -0.1372 -0.5265
   87MOL0     C11619   3.874   9.963   7.921  0.1698  0.3062  0.0270
   87MOL0     C11620   3.994   9.871   7.946 -0.0405  0.3652 -0.0730
   87MOL0     C11621   4.126   9.953   7.960 -0.9654 -1.2235  0.6580
   87MOL0     C11622   4.245   9.861   8.002 -0.0343 -0.2817 -0.0384
   87MOL0     C11623   4.361   9.931   8.079 -0.2278  0.0681 -0.6166
   87MOL0     C11624   4.481   9.833   8.102 -0.6806 -0.3360  0.0792
   87MOL0     C11625   4.613   9.890   8.158 -1.0111  0.1984  0.1307
   87MOL0     C11626   4.720   9.774   8.151 -0.4418 -0.2995 -0.2748
   87MOL0     N11627   4.842   9.843   8.189  0.5057  0.5877 -0.5525
   87MOL0     C11628   4.867   9.855   8.321  0.3087  0.1655 -0.1007
   87MOL0     C11629   4.963   9.944   8.328  0.7886 -0.1087 -0.3599
   87MOL0     C11630   5.012  10.016   8.456 -0.0826 -0.5970  0.1958
   87MOL0     C11631   4.920  10.128   8.516  0.1469 -0.1569  0.1250
   87MOL0     C11632   4.793  10.090   8.595 -0.1843  0.2736 -0.0192
   87MOL0     C11633   4.666  10.177   8.583 -0.2386  0.5189  0.5792
   87MOL0     O11634   4.630  10.178   8.449 -0.1170 -0.2883  0.9934
   87MOL0     C11635   4.503  10.222   8.402  0.0310  0.4550  0.7665
   87MOL0     C11636   4.487  10.221   8.259 -0.8803  0.5420 -0.5523
   87MOL0     C11637   4.360  10.251   8.210 -1.5840  0.0251 -0.1519
   87MOL0     C11638   4.250  10.285   8.294  0.3712  0.4651  0.1093
   87MOL0     C11639   4.113  10.302   8.244 -0.3191 -0.8599  0.0104
   87MOL0     O11640   4.026  10.369   8.329  0.2704 -0.2669 -0.1285
   87MOL0     C11641   3.894  10.381   8.291  0.9865 -0.0166 -0.0903
   87MOL0     C11642   3.844  10.505   8.272  0.1833 -0.3166 -0.8831
   87MOL0     C11643   3.703  10.522   8.245  0.0219  0.3902 -0.7904
   87MOL0     C11644   3.620  10.409   8.222 -0.1690 -0.1987  0.3098
   87MOL0     O11645   3.491  10.404   8.191 -0.4181 -0.5419  0.8279
   87MOL0     C11646   3.415  10.528   8.183 -0.4981  0.4400 -0.5019
   87MOL0     C11647   3.262  10.498   8.202  0.7576 -0.3955  0.4546
   87MOL0     C11648   3.181  10.618   8.166  0.0293 -0.2776 -0.1736
   87MOL0     C11649   3.031  10.580   8.184  0.0193  0.2874  0.8681
   87MOL0     C11650   2.927  10.691   8.133 -0.1225 -0.5443 -0.4325
   87MOL0     C11651   2.783  10.635   8.152 -0.7470 -0.3088  0.8428
   87MOL0     C11652   2.678  10.730   8.092 -0.5509  0.3883 -0.3708
   87MOL0     C11653   2.540  10.679   8.118 -0.1226  0.5354  0.5191
   87MOL0    Cl11654   2.430  10.765   8.025  0.2605 -0.1703  0.1499
   87MOL0     C11655   3.676  10.281   8.231 -0.4694  1.1394 -0.3142
   87MOL0     C11656   3.807  10.272   8.282  1.1233  0.0018  1.2488
   87MOL0     O11657   4.082  10.253   8.140 -0.2409  0.6795  0.6459
   87MOL0     C11658   4.274  10.297   8.432  0.3759  0.4895 -0.2735
   87MOL0     C11659   4.398  10.265   8.486  0.2074 -0.3669 -0.2274
   87MOL0     N11660   5.007   9.966   8.195 -0.0668 -0.1552  0.2214
   87MOL0     N11661   4.939   9.896   8.110  0.1336 -0.0953  0.3542
   87MOL0     C11662   3.627  10.112   7.902  0.1296 -0.3477  0.9325
   87MOL0     C11663   3.506  10.176   7.878  0.7274 -0.8273  1.3818
   87MOL0     C11664   3.082  10.294   7.686 -1.3226  0.2724  0.6595
   87MOL0     C11665   3.079  10.399   7.780 -0.3628 -0.0340  0.2716
   87MOL0     C11666   2.967  10.480   7.800  0.5884  0.4693 -0.2041
   87MOL0     C11667   2.864  10.463   7.710 -0.1918 -0.2664  0.2117
   87MOL0     O11668   2.762  10.561   7.724 -0.3104 -0.3865 -0.1341
   87MOL0     C11669   2.647  10.562   7.632 -0.1348 -0.1564  0.3781
   87MOL0     C11670   2.572  10.699   7.637 -0.0029  0.3576 -0.3264
   87MOL0     C11671   2.590  10.781   7.510 -0.3672 -1.2531  0.2815
   87MOL0     C11672   2.518  10.723   7.382  0.2870 -0.3559 -0.2380
   87MOL0     C11673   2.541  10.817   7.269 -0.1398 -0.3923 -0.1430
   87MOL0     C11674   2.553  10.906   7.180  0.0177  0.5549 -0.6914
   87MOL0     C11675   2.854  10.356   7.623  0.1082 -0.0235  0.0365
   87MOL0     C11676   2.966  10.266   7.613  0.6110  0.0525 -0.9957
   87MOL0     C11677   2.945  10.154   7.517 -0.1314  0.5921 -0.4086
   87MOL0     H11678   3.353   9.940   7.668 -0.2429 -0.5662  1.2825
   87MOL0     H11679   3.558   9.829   7.719  0.5008 -0.5278  1.6947
   87MOL0     H11680   3.908  10.027   7.839  2.8370 -0.4347  0.4425
   87MOL0     H11681   3.860  10.032   8.005 -4.0650  0.1610 -0.3701
   87MOL0     H11682   4.004   9.810   7.856 -0.6320  2.1125 -1.3752
   87MOL0     H11683   3.983   9.814   8.039  2.3735 -0.6033 -0.3009
   87MOL0     H11684   4.118  10.016   8.049  0.2435  0.2202 -0.2031
   87MOL0     H11685   4.157  10.018   7.878  0.0220 -0.7000  1.4202
   87MOL0     H11686   4.208   9.783   8.070  1.2709 -0.6843  0.2340
   87MOL0     H11687   4.277   9.828   7.903  1.0131  1.1866 -0.2155
   87MOL0     H11688   4.400  10.017   8.023  1.1357  0.6469  1.1236
   87MOL0     H11689   4.328   9.983   8.170  1.5978  2.2840 -1.1285
   87MOL0     H11690   4.445   9.758   8.173 -3.1069 -1.3861 -2.1008
   87MOL0     H11691   4.494   9.788   8.004 -0.3964 -1.0838  0.4540
   87MOL0     H11692   4.591   9.918   8.262  1.5141 -0.1645  0.8288
   87MOL0     H11693   4.645   9.986   8.115 -2.7089  2.2471  3.0448
   87MOL0     H11694   4.693   9.692   8.217  0.3093 -0.4970 -0.2057
   87MOL0     H11695   4.725   9.743   8.046  1.7313 -2.4013  0.3812
   87MOL0     H11696   4.816   9.822   8.410  0.0497  1.4380  0.2480
   87MOL0     H11697   5.043   9.943   8.531  1.7063  0.6656  0.7756
   87MOL0     H11698   5.107  10.059   8.420 -0.3007 -2.3398 -2.7690
   87MOL0     H11699   4.978  10.190   8.585 -4.3197  2.5509  1.8772
   87MOL0     H11700   4.888  10.181   8.427  1.8537  0.3748 -0.1963
   87MOL0     H11701   4.825  10.076   8.698  2.8493 -4.0270 -1.2525
   87MOL0     H11702   4.761   9.988   8.570 -0.4561  0.3452  0.0283
   87MOL0     H11703   4.687  10.280   8.613 -0.2805  1.2339 -1.6831
   87MOL0     H11704   4.586  10.130   8.641 -2.3557  1.1479 -1.6772
   87MOL0     H11705   4.571  10.197   8.196 -1.1548 -1.2386 -0.2961
   87MOL0     H11706   4.342  10.250   8.103 -1.9044 -0.5395 -0.0948
   87MOL0     H11707   3.914  10.588   8.278  0.2778 -0.4411 -0.1226
   87MOL0     H11708   3.653  10.618   8.248  0.2010  0.4946 -1.0587
   87MOL0     H11709   3.450  10.598   8.259  2.2822  3.8279 -4.4640
   87MOL0     H11710   3.431  10.579   8.087  2.1104  0.1168 -0.3128
   87MOL0     H11711   3.229  10.415   8.138 -0.4972 -1.2589  2.1278
   87MOL0     H11712   3.240  10.470   8.306  1.9328 -0.5093  0.6869
   87MOL0     H11713   3.209  10.705   8.226  2.2495 -0.8461 -0.2969
   87MOL0     H11714   3.199  10.655   8.064  1.2547  1.0670  0.5064
   87MOL0     H11715   3.014  10.553   8.289 -0.0304 -2.4500  0.2275
   87MOL0     H11716   3.009  10.495   8.120  0.8458  0.6331  0.0929
   87MOL0     H11717   2.941  10.701   8.024 -2.0368 -1.2819 -0.7846
   87MOL0     H11718   2.945  10.786   8.184  1.7740 -0.5756 -0.9927
   87MOL0     H11719   2.752  10.547   8.095 -2.2448  0.1761  0.8800
   87MOL0     H11720   2.760  10.615   8.257  2.1665  0.8208  1.8024
   87MOL0     H11721   2.682  10.740   7.984 -1.1911  0.5269 -0.3877
   87MOL0     H11722   2.687  10.829   8.137 -4.6566  0.7411  0.0720
   87MOL0     H11723   2.532  10.572   8.103 -0.3439  0.8151 -1.5862
   87MOL0     H11724   2.517  10.699   8.224 -2.0753 -1.7629  0.6009
   87MOL0     H11725   3.622  10.189   8.214  1.4938 -0.3210  1.0096
   87MOL0     H11726   3.852  10.173   8.281  2.1516  0.4601  1.0814
   87MOL0     H11727   4.198  10.336   8.498  1.8459 -1.7599  3.0666
   87MOL0     H11728   4.420  10.275   8.591 -1.8743  1.3916  0.0979
   87MOL0     H11729   3.698  10.157   7.970  0.0863  3.2578 -1.1711
   87MOL0     H11730   3.477  10.256   7.945  0.8080 -0.7319  1.3017
   87MOL0     H11731   3.164  10.422   7.843  0.1551 -0.4077 -0.2847
   87MOL0     H11732   2.978  10.564   7.868  0.1268  0.9603 -0.7275
   87MOL0     H11733   2.583  10.483   7.672  0.2821 -1.5800 -1.5706
   87MOL0     H11734   2.672  10.530   7.530 -0.3393 -1.8870  0.8439
   87MOL0     H11735   2.607  10.753   7.725 -1.3226  2.5230 -1.0560
   87MOL0     H11736   2.466  10.674   7.643  0.6412 -2.7436 -0.3075
   87MOL0     H11737   2.693  10.808   7.486 -0.1795  1.8095  3.6340
   87MOL0     H11738   2.544  10.877   7.535  0.4506 -1.6487  3.9635
   87MOL0     H11739   2.552  10.623   7.355 -0.6347 -0.5008 -0.9044
   87MOL0     H11740   2.409  10.724   7.388  0.3146 -0.6726  0.3729
   87MOL0     H11741   2.569  10.980   7.104  1.4753  0.7378 -0.2395
   87MOL0     H11742   2.772  10.331   7.556  0.4195  1.3358 -0.8912
   87MOL0     H11743   2.995  10.061   7.543 -0.5921  0.6954  0.9230
   87MOL0     H11744   2.837  10.135   7.507  0.0387  0.3863 -2.3584
   87MOL0     H11745   2.985  10.198   7.425  2.7022 -1.0436 -0.0614
   88MOL0     O11746   8.764   1.471   7.779  0.0298 -0.5576 -0.4147
   88MOL0     C11747   8.778   1.369   7.711  0.0624 -0.2020  0.2634
   88MOL0     O11748   8.897   1.312   7.671 -0.1122 -0.0570 -0.5106
   88MOL0     C11749   9.003   1.375   7.727 -0.8082 -0.2151  0.5475
   88MOL0     C11750   9.042   1.343   7.863  1.1653  0.5495  0.3126
   88MOL0     C11751   9.148   1.412   7.918  0.5929 -0.1865  0.0245
   88MOL0     C11752   9.221   1.509   7.848  0.3965  0.8099  0.7798
   88MOL0     O11753   9.325   1.565   7.907  0.5009 -0.1547 -1.0107
   88MOL0     C11754   9.440   1.588   7.820  0.3004  0.5306 -0.2805
   88MOL0     C11755   9.566   1.613   7.910 -0.0332 -0.1904 -0.2212
   88MOL0     C11756   9.556   1.747   7.978  0.3071 -0.1275  0.6605
   88MOL0     C11757   9.685   1.820   7.958 -0.1789 -0.0071 -0.3101
   88MOL0     C11758   9.811   1.755   8.022 -0.4815  0.8779  0.4794
   88MOL0     C11759   9.911   1.862   8.052 -0.2949  0.0417  0.1837
   88MOL0     C11760  10.021   1.814   8.149 -0.5861  0.6036 -0.4695
   88MOL0     C11761   9.976   1.807   8.302 -0.1779  0.8913 -0.3231
   88MOL0     N11762  10.085   1.732   8.361  0.2426 -0.1462 -0.3180
   88MOL0     C11763  10.107   1.598   8.337 -0.4441 -0.1388  0.7262
   88MOL0     C11764  10.220   1.565   8.405 -0.9777  0.5207 -0.2503
   88MOL0     C11765  10.266   1.423   8.416  0.4588  0.2441  0.1875
   88MOL0     C11766  10.418   1.421   8.413  0.1410  0.0067  0.5085
   88MOL0     C11767  10.468   1.422   8.553  0.1430 -0.7057  0.0772
   88MOL0     C11768  10.614   1.379   8.545 -0.4728  0.2578  0.3448
   88MOL0     O11769  10.681   1.399   8.668 -0.6730  0.2144  0.0108
   88MOL0     C11770  10.781   1.498   8.683  0.3333  0.8522 -0.1774
   88MOL0     C11771  10.767   1.589   8.784 -0.0274  0.4559  0.9993
   88MOL0     C11772  10.863   1.685   8.815  0.7636  0.3813  0.0231
   88MOL0     C11773  10.977   1.699   8.729  0.6619 -0.4675 -0.1563
   88MOL0     C11774  11.075   1.808   8.744  0.5308 -0.2530  0.6887
   88MOL0     O11775  11.195   1.798   8.686 -0.3727  0.8759  0.1580
   88MOL0     C11776  11.283   1.903   8.700 -0.6890 -0.9038 -0.2826
   88MOL0     C11777  11.415   1.863   8.743 -0.0142  0.5769 -0.7247
   88MOL0     C11778  11.528   1.948   8.732 -0.5030 -0.1428 -0.7888
   88MOL0     C11779  11.504   2.086   8.701 -0.3867 -0.2503  0.7024
   88MOL0     O11780  11.599   2.181   8.680 -0.0026 -0.5172  0.6873
   88MOL0     C11781  11.711   2.172   8.763 -1.1085  0.1916 -0.3776
   88MOL0     C11782  11.761   2.303   8.817 -0.0315  0.7635 -0.9642
   88MOL0     C11783  11.646   2.387   8.885  0.7349 -0.8597  0.2528
   88MOL0     C11784  11.567   2.303   8.987  0.2941 -0.1513 -0.4476
   88MOL0     C11785  11.471   2.390   9.076 -0.8966  0.1625  0.2359
   88MOL0     C11786  11.367   2.474   9.001 -0.2236  0.7775  0.0554
   88MOL0     C11787  11.250   2.392   8.942  0.0992 -0.0266  0.7993
   88MOL0     C11788  11.157   2.470   8.855 -0.3945  0.1592  1.0173
   88MOL0    Cl11789  11.036   2.562   8.940 -0.3442 -0.2142 -0.0872
   88MOL0     C11790  11.369   2.121   8.657 -0.6509 -0.2867  0.2627
   88MOL0     C11791  11.265   2.036   8.665  0.0674  0.3295  0.0775
   88MOL0     O11792  11.037   1.902   8.817  0.1991 -0.4030  0.1528
   88MOL0     C11793  10.992   1.602   8.626  0.8191  0.3827 -0.3564
   88MOL0     C11794  10.898   1.494   8.608 -0.2297 -0.6282 -0.0109
   88MOL0     N11795  10.265   1.676   8.473 -0.5926  0.1057  0.1781
   88MOL0     N11796  10.186   1.775   8.436 -0.5336  0.8119  0.0448
   88MOL0     C11797   9.163   1.557   7.725  0.3766 -0.3597 -0.4675
   88MOL0     C11798   9.056   1.493   7.664  0.6045  1.2198 -0.5947
   88MOL0     C11799   8.664   1.313   7.649 -0.1300 -0.7927  0.1241
   88MOL0     C11800   8.671   1.278   7.508 -0.8179  0.1838 -0.8647
   88MOL0     C11801   8.566   1.211   7.448 -0.4306 -0.0325 -0.2006
   88MOL0     C11802   8.454   1.181   7.515  0.1421 -0.8238  0.0487
   88MOL0     O11803   8.352   1.109   7.460 -0.0130 -0.0581 -0.9853
   88MOL0     C11804   8.221   1.132   7.514  0.3007 -0.1301 -0.0010
   88MOL0     C11805   8.119   1.096   7.402 -0.2166  0.1666  1.2620
   88MOL0     C11806   7.988   1.041   7.454  0.2741  0.1893  0.2291
   88MOL0     C11807   7.884   1.014   7.341 -0.7341  0.7751  1.0048
   88MOL0     C11808   7.750   0.973   7.389 -0.0853  0.1678  0.3043
   88MOL0     C11809   7.655   0.908   7.424  0.4497  0.2435 -0.2196
   88MOL0     C11810   8.446   1.226   7.652  0.5084 -0.1002  0.3389
   88MOL0     C11811   8.543   1.294   7.715 -0.0145  0.0481  0.8095
   88MOL0     C11812   8.516   1.323   7.863  0.1271 -0.3481  0.3768
   88MOL0     H11813   9.004   1.254   7.912 -0.3689 -1.4861 -3.9917
   88MOL0     H11814   9.183   1.389   8.019 -0.1662 -1.5638 -0.0188
   88MOL0     H11815   9.460   1.501   7.756 -1.2836 -0.9721  1.1545
   88MOL0     H11816   9.418   1.678   7.762 -0.8441 -1.1185 -2.5506
   88MOL0     H11817   9.648   1.610   7.838 -2.5208 -0.7982 -3.2446
   88MOL0     H11818   9.574   1.527   7.977  1.2543  0.3382  0.3249
   88MOL0     H11819   9.530   1.730   8.082 -2.7157 -3.2857 -0.4185
   88MOL0     H11820   9.472   1.809   7.945  1.3786  1.0224 -0.0179
   88MOL0     H11821   9.694   1.836   7.851 -0.9149  1.7869 -0.1606
   88MOL0     H11822   9.661   1.918   8.002 -2.0735 -0.5376 -0.0366
   88MOL0     H11823   9.776   1.693   8.105 -1.9864  2.8003  1.3743
   88MOL0     H11824   9.859   1.689   7.949 -1.4006 -0.2620  0.8685
   88MOL0     H11825   9.945   1.898   7.954 -1.0243  0.1216 -0.0417
   88MOL0     H11826   9.854   1.940   8.103 -2.5547 -1.3909 -0.0533
   88MOL0     H11827  10.100   1.887   8.131 -0.0828 -0.6014 -4.0273
   88MOL0     H11828  10.061   1.717   8.118 -3.3786 -1.7788  2.6656
   88MOL0     H11829   9.968   1.903   8.352 -0.3901 -0.1150  1.6876
   88MOL0     H11830   9.883   1.755   8.326 -0.1702  1.1333  0.2307
   88MOL0     H11831  10.038   1.533   8.285 -0.3436 -1.7978  2.5411
   88MOL0     H11832  10.237   1.378   8.511 -0.1027 -1.2080 -0.6254
   88MOL0     H11833  10.214   1.365   8.338 -0.2385  1.3207 -0.1782
   88MOL0     H11834  10.462   1.338   8.359  0.5188  1.0559 -0.8551
   88MOL0     H11835  10.444   1.511   8.356  1.5993 -1.2331 -0.8295
   88MOL0     H11836  10.418   1.351   8.618 -1.1079  0.1062  0.0356
   88MOL0     H11837  10.455   1.522   8.597  0.1583 -0.5725 -0.2184
   88MOL0     H11838  10.672   1.442   8.477  0.3391  1.0443  1.7195
   88MOL0     H11839  10.629   1.275   8.513  2.9037  1.2058 -1.6472
   88MOL0     H11840  10.671   1.579   8.834 -3.5675  0.3576 -4.8803
   88MOL0     H11841  10.844   1.755   8.896  2.9996 -1.9952  2.8414
   88MOL0     H11842  11.432   1.760   8.775  0.1390  0.4109 -1.3142
   88MOL0     H11843  11.622   1.897   8.748 -0.7989 -0.7106 -0.8546
   88MOL0     H11844  11.703   2.117   8.857 -0.2341  1.9678  0.8105
   88MOL0     H11845  11.791   2.121   8.709 -0.8004 -0.0715  0.3124
   88MOL0     H11846  11.830   2.287   8.901 -2.3729  0.1063  0.9337
   88MOL0     H11847  11.809   2.353   8.732  0.8026 -1.3571 -1.8230
   88MOL0     H11848  11.686   2.474   8.938  2.4699 -1.4816  0.0241
   88MOL0     H11849  11.588   2.422   8.799  1.6503 -2.1675 -0.9443
   88MOL0     H11850  11.641   2.245   9.043 -3.1776 -2.5766  2.1075
   88MOL0     H11851  11.506   2.230   8.933  1.1210 -0.6241 -0.7657
   88MOL0     H11852  11.536   2.447   9.143  1.0681 -2.5699  0.7907
   88MOL0     H11853  11.418   2.322   9.143  1.3527 -1.9700  0.0047
   88MOL0     H11854  11.327   2.554   9.064  0.4376  2.1202 -1.1618
   88MOL0     H11855  11.416   2.531   8.921  1.2034 -1.1894 -0.5601
   88MOL0     H11856  11.202   2.335   9.022 -0.0552  0.0511  0.7635
   88MOL0     H11857  11.296   2.313   8.882  0.1233  0.4938  0.1257
   88MOL0     H11858  11.215   2.537   8.791 -1.2214 -1.0517 -1.1129
   88MOL0     H11859  11.102   2.401   8.790 -0.4639  0.7430  0.4461
   88MOL0     H11860  11.355   2.226   8.638  0.8209 -0.0413  0.4225
   88MOL0     H11861  11.168   2.066   8.628  0.4594  0.4675 -0.8777
   88MOL0     H11862  11.084   1.608   8.569  0.1521  0.5335 -1.4438
   88MOL0     H11863  10.913   1.409   8.541 -2.2287 -0.8458 -0.2422
   88MOL0     H11864   9.194   1.650   7.677  2.4228 -0.8034 -0.0983
   88MOL0     H11865   9.014   1.525   7.570 -0.5236 -0.2718 -0.6407
   88MOL0     H11866   8.764   1.296   7.454  1.8075  0.2736  3.1926
   88MOL0     H11867   8.581   1.177   7.346  2.3893  0.4779 -0.0346
   88MOL0     H11868   8.205   1.236   7.541 -1.4196 -0.7917  1.7402
   88MOL0     H11869   8.195   1.068   7.599 -0.3751  0.9137  0.5995
   88MOL0     H11870   8.166   1.023   7.334 -0.4692  1.7340 -0.6987
   88MOL0     H11871   8.095   1.189   7.350 -3.2626 -0.7805  0.8251
   88MOL0     H11872   7.944   1.109   7.527  1.6864  0.3074  0.9865
   88MOL0     H11873   7.998   0.946   7.507  1.6167  1.1781  1.8406
   88MOL0     H11874   7.877   1.106   7.282  0.2853  1.0521  1.2863
   88MOL0     H11875   7.928   0.945   7.268  1.3633  2.9235  0.1206
   88MOL0     H11876   7.578   0.843   7.459  0.4412  0.5754  0.3946
   88MOL0     H11877   8.350   1.216   7.703 -0.0289 -0.3518 -0.6775
   88MOL0     H11878   8.408   1.309   7.876  0.3540 -1.0718  1.6548
   88MOL0     H11879   8.566   1.247   7.924 -0.9499 -0.4756  1.1160
   88MOL0     H11880   8.542   1.418   7.909 -0.2029  1.3030 -2.5556
   89MOL0     O11881   3.670   4.659   0.977  0.2702 -0.6782  0.0514
   89MOL0     C11882   3.560   4.717   0.987 -0.4310  0.8127  0.8413
   89MOL0     O11883   3.544   4.848   0.964  0.5236  0.2456  0.2771
   89MOL0     C11884   3.660   4.930   0.984  0.5065  0.9010  0.0443
   89MOL0     C11885   3.719   4.931   1.106  0.0907  0.1572  1.1720
   89MOL0     C11886   3.813   5.032   1.127  0.3824  0.0494 -0.8261
   89MOL0     C11887   3.848   5.125   1.030  0.1765 -0.1345  0.7460
   89MOL0     O11888   3.940   5.221   1.063  0.2660  0.0916 -0.1028
   89MOL0     C11889   4.010   5.290   0.956 -0.0184  0.0666 -0.0453
   89MOL0     C11890   4.120   5.202   0.894 -0.0091  0.5886 -0.0718
   89MOL0     C11891   4.235   5.174   0.992  0.4947 -0.3298  0.6679
   89MOL0     C11892   4.215   5.045   1.067  0.7241 -0.1869  0.2894
   89MOL0     C11893   4.335   4.997   1.143 -0.1872 -0.2137 -0.0219
   89MOL0     C11894   4.394   5.090   1.247  0.3465  0.0935  0.0384
   89MOL0     C11895   4.295   5.139   1.349  0.2056  0.3588 -0.1387
   89MOL0     C11896   4.207   5.026   1.420  0.2806  0.9542  0.0098
   89MOL0     N11897   4.298   4.945   1.506  0.8697  0.0797 -0.4692
   89MOL0     C11898   4.300   4.807   1.490 -0.7041  0.0160 -0.2692
   89MOL0     C11899   4.413   4.773   1.561 -0.1817  0.2741 -0.6466
   89MOL0     C11900   4.465   4.634   1.580 -0.1776 -0.1139  0.2062
   89MOL0     C11901   4.558   4.595   1.473 -0.3257  1.3406  0.1080
   89MOL0     C11902   4.632   4.462   1.502 -0.0904 -0.2218  0.0110
   89MOL0     C11903   4.726   4.430   1.390 -0.4615 -0.5764 -0.4523
   89MOL0     O11904   4.795   4.302   1.416  0.2972  0.1382  0.3551
   89MOL0     C11905   4.865   4.250   1.301 -0.9251  0.4274 -0.8896
   89MOL0     C11906   4.836   4.117   1.271  0.5173 -0.3992 -0.0623
   89MOL0     C11907   4.892   4.060   1.159  0.4444  0.3933  0.8024
   89MOL0     C11908   4.976   4.126   1.076 -1.0378  0.4207  0.8988
   89MOL0     C11909   5.026   4.061   0.949  0.1769  0.1910 -0.4080
   89MOL0     O11910   4.944   3.973   0.888  0.7375  0.2958 -0.6314
   89MOL0     C11911   4.974   3.915   0.762  0.0157  0.1036  1.0699
   89MOL0     C11912   5.051   3.983   0.655 -0.2562 -0.0383 -0.7045
   89MOL0     C11913   5.054   3.926   0.527 -0.3999 -0.5851  1.0446
   89MOL0     C11914   4.998   3.804   0.495  0.2878  0.1806  0.4847
   89MOL0     O11915   5.001   3.754   0.365 -0.3311  1.4007  0.1543
   89MOL0     C11916   4.979   3.827   0.243  0.1774 -0.0033  0.8680
   89MOL0     C11917   5.095   3.831   0.145  0.3474 -0.0691  0.0575
   89MOL0     C11918   5.220   3.910   0.192  0.5550  0.1971 -0.3682
   89MOL0     C11919   5.310   3.940   0.066  0.9381  0.2962 -0.3854
   89MOL0     C11920   5.435   4.002   0.119  0.3723  0.1164 -0.1011
   89MOL0     C11921   5.527   4.035  -0.000 -0.3119  0.4150  1.2265
   89MOL0     C11922   5.643   4.120   0.039 -0.7497 -1.0363  0.0849
   89MOL0     C11923   5.691   4.197  -0.083 -0.3854  0.3973 -0.3009
   89MOL0    Cl11924   5.825   4.304  -0.038 -0.1275 -0.2091  0.1846
   89MOL0     C11925   4.938   3.736   0.599 -0.0054 -0.4191  0.0950
   89MOL0     C11926   4.920   3.792   0.726  0.0815  0.9397 -0.2160
   89MOL0     O11927   5.137   4.104   0.902 -0.1162  0.2815 -0.4222
   89MOL0     C11928   5.002   4.261   1.104 -0.0064 -0.4815 -0.4338
   89MOL0     C11929   4.945   4.323   1.213 -0.0206 -0.1352  0.3189
   89MOL0     N11930   4.471   4.892   1.612 -0.7046  0.5817 -0.4593
   89MOL0     N11931   4.398   4.996   1.580  0.4352  0.2669 -0.0519
   89MOL0     C11932   3.784   5.121   0.905  0.0899 -0.5496  0.1805
   89MOL0     C11933   3.689   5.022   0.889 -0.6274 -0.5870 -0.6941
   89MOL0     C11934   3.440   4.639   1.023  0.0919 -0.3781 -0.1443
   89MOL0     C11935   3.444   4.499   1.000  0.9410 -0.6768 -0.6847
   89MOL0     C11936   3.334   4.413   1.004 -0.6863  0.2322 -0.2204
   89MOL0     C11937   3.210   4.461   1.044  0.1788 -0.0858  0.0862
   89MOL0     O11938   3.107   4.372   1.049 -0.0717 -0.5137 -0.1299
   89MOL0     C11939   2.972   4.412   1.033  0.3835  0.0214  0.7015
   89MOL0     C11940   2.908   4.452   1.165  0.0290  0.1478 -0.4712
   89MOL0     C11941   2.758   4.418   1.168 -0.0260  0.2165  0.3691
   89MOL0     C11942   2.698   4.447   1.310  0.1869  1.1318  0.4400
   89MOL0     C11943   2.564   4.404   1.339  0.1136  1.0193 -0.9694
   89MOL0     C11944   2.453   4.362   1.354  0.1564  0.2126  0.1830
   89MOL0     C11945   3.199   4.593   1.075  0.0576 -0.6037  0.2120
   89MOL0     C11946   3.308   4.690   1.061 -0.4648 -0.1669  0.4431
   89MOL0     C11947   3.270   4.826   1.097 -0.6540 -0.6747  0.1372
   89MOL0     H11948   3.684   4.867   1.188 -0.5864  0.2898  0.9897
   89MOL0     H11949   3.841   5.056   1.229  0.6499 -2.5494 -0.2315
   89MOL0     H11950   3.947   5.334   0.879 -1.6049  0.4889  1.4211
   89MOL0     H11951   4.059   5.369   1.013  2.4183 -2.1846  1.2099
   89MOL0     H11952   4.161   5.254   0.808  0.7702 -0.4109 -0.3184
   89MOL0     H11953   4.083   5.107   0.854  2.2423  0.3089 -1.6794
   89MOL0     H11954   4.238   5.260   1.060 -0.4832  1.5943 -1.5888
   89MOL0     H11955   4.327   5.172   0.933 -1.7174  0.6747 -3.1038
   89MOL0     H11956   4.132   5.052   1.138 -0.2718  0.4454 -0.8977
   89MOL0     H11957   4.180   4.967   0.999  3.2905 -2.9632  1.8666
   89MOL0     H11958   4.313   4.904   1.197 -0.0336 -0.5943 -0.6030
   89MOL0     H11959   4.407   4.968   1.066 -0.4144 -3.4336  0.8334
   89MOL0     H11960   4.477   5.042   1.301  2.0769  0.7171 -1.9193
   89MOL0     H11961   4.447   5.169   1.194 -2.1144  0.3748 -2.2212
   89MOL0     H11962   4.231   5.213   1.299  1.1736  1.4229  0.1360
   89MOL0     H11963   4.352   5.190   1.428  1.6614 -1.9775  0.4113
   89MOL0     H11964   4.127   5.070   1.481 -1.9750 -2.7877  0.0161
   89MOL0     H11965   4.157   4.977   1.337  3.1256  1.8298 -2.4205
   89MOL0     H11966   4.226   4.744   1.442 -1.6240 -2.0109  3.4006
   89MOL0     H11967   4.520   4.631   1.675  1.9993 -0.1029 -0.9930
   89MOL0     H11968   4.387   4.558   1.592  0.9742 -1.1905  1.0521
   89MOL0     H11969   4.507   4.589   1.377 -1.2336 -1.3335  0.6600
   89MOL0     H11970   4.634   4.673   1.474  2.7426 -1.3955 -0.9073
   89MOL0     H11971   4.559   4.381   1.510  1.2992 -1.2960  5.3199
   89MOL0     H11972   4.691   4.469   1.594  0.7861 -3.5307 -0.1633
   89MOL0     H11973   4.805   4.505   1.399  2.2051 -3.2249 -0.5115
   89MOL0     H11974   4.691   4.437   1.287  2.1652  0.1890 -1.3723
   89MOL0     H11975   4.765   4.062   1.332 -0.5200 -0.3608 -1.1930
   89MOL0     H11976   4.869   3.964   1.113  0.1098 -0.4533  2.6302
   89MOL0     H11977   5.077   4.087   0.672 -4.1114  0.9264  0.3713
   89MOL0     H11978   5.092   3.982   0.441 -2.4140  1.5127  1.4277
   89MOL0     H11979   4.898   3.777   0.189  0.8362  1.5534 -1.7356
   89MOL0     H11980   4.948   3.930   0.264  0.1172  0.3892 -1.0404
   89MOL0     H11981   5.125   3.727   0.129 -2.5904 -1.2482  1.5353
   89MOL0     H11982   5.056   3.881   0.056  0.8259  0.8860  0.3665
   89MOL0     H11983   5.180   4.002   0.235 -0.0174  0.6689 -1.8564
   89MOL0     H11984   5.276   3.846   0.261 -1.4501 -1.4412 -0.1549
   89MOL0     H11985   5.260   4.001  -0.009  2.0050  1.4707 -0.1928
   89MOL0     H11986   5.332   3.843   0.021 -1.7037 -1.7318  2.2930
   89MOL0     H11987   5.485   3.936   0.190  0.9790  0.7317  0.0565
   89MOL0     H11988   5.418   4.090   0.181  1.3059 -1.7222  2.9870
   89MOL0     H11989   5.559   3.942  -0.049  0.7874  0.8558  1.0820
   89MOL0     H11990   5.471   4.094  -0.073 -2.3785 -1.5611  1.0697
   89MOL0     H11991   5.720   4.063   0.092 -0.2527  0.3795  0.9488
   89MOL0     H11992   5.610   4.195   0.112  2.2773  1.7811 -1.1646
   89MOL0     H11993   5.713   4.119  -0.156 -1.6815 -0.8376  0.5805
   89MOL0     H11994   5.611   4.260  -0.124 -0.2687  1.9979  1.7539
   89MOL0     H11995   4.887   3.642   0.581 -0.9501  0.1244 -0.0860
   89MOL0     H11996   4.865   3.735   0.801  3.9198  1.5131  3.4139
   89MOL0     H11997   5.061   4.327   1.041 -1.2066  1.4958  0.3999
   89MOL0     H11998   4.973   4.426   1.229 -0.0177  0.0559 -0.8250
   89MOL0     H11999   3.807   5.192   0.826  0.4571  1.2907  1.8594
   89MOL0     H12000   3.645   4.999   0.792 -3.6008 -2.7914  1.0095
   89MOL0     H12001   3.540   4.452   0.981  0.7433 -1.7404  0.7991
   89MOL0     H12002   3.352   4.308   0.981  0.9798  0.0935  1.4406
   89MOL0     H12003   2.906   4.333   0.994  0.3166  0.3723  0.1028
   89MOL0     H12004   2.973   4.492   0.959  1.0240 -1.1453 -0.5945
   89MOL0     H12005   2.907   4.559   1.185 -2.4889 -0.4393  3.6542
   89MOL0     H12006   2.963   4.414   1.252  2.2378  0.1603 -1.7800
   89MOL0     H12007   2.739   4.312   1.150 -1.6489  0.4703  0.4814
   89MOL0     H12008   2.702   4.470   1.089  1.6349 -0.6755 -1.5086
   89MOL0     H12009   2.758   4.379   1.372  1.6360  0.9928 -1.0471
   89MOL0     H12010   2.711   4.552   1.336 -0.2073  1.5474 -0.9995
   89MOL0     H12011   2.359   4.314   1.374  1.5003 -1.9786  1.7371
   89MOL0     H12012   3.103   4.626   1.112  0.4308  1.6398 -0.6268
   89MOL0     H12013   3.161   4.831   1.106 -0.6358  0.7174 -0.1537
   89MOL0     H12014   3.315   4.848   1.195  2.9316 -1.7963 -1.1211
   89MOL0     H12015   3.306   4.883   1.011 -1.6081 -2.3236 -1.4105
   90MOL0     O12016   5.133   7.703   8.066  0.0964 -0.5130  0.3630
   90MOL0     C12017   5.032   7.635   8.090 -0.2975 -0.9892  0.4094
   90MOL0     O12018   5.023   7.510   8.150 -0.5953 -0.8340 -0.2584
   90MOL0     C12019   5.140   7.469   8.210 -0.4501 -0.1646 -0.3350
   90MOL0     C12020   5.175   7.518   8.337  0.5400 -0.3735 -0.0121
   90MOL0     C12021   5.282   7.459   8.406 -0.0937  0.0769 -0.4462
   90MOL0     C12022   5.355   7.353   8.352  0.2400  0.2815  0.5888
   90MOL0     O12023   5.455   7.287   8.417 -0.4665 -0.0874  0.1298
   90MOL0     C12024   5.443   7.269   8.562  0.9113 -0.6244  0.0783
   90MOL0     C12025   5.533   7.374   8.626 -1.3544  0.3194 -0.2612
   90MOL0     C12026   5.681   7.338   8.648  0.8304 -0.3911  0.3553
   90MOL0     C12027   5.770   7.447   8.602 -0.1469  0.0563  0.5414
   90MOL0     C12028   5.920   7.411   8.609 -0.1871 -0.5518  0.1585
   90MOL0     C12029   5.990   7.490   8.720  0.3113  0.2868 -0.3859
   90MOL0     C12030   6.123   7.428   8.771 -0.2853  0.8119 -0.2866
   90MOL0     C12031   6.220   7.414   8.662 -0.5309  0.3307 -0.2078
   90MOL0     N12032   6.360   7.386   8.707  0.6293  1.1290  0.7857
   90MOL0     C12033   6.482   7.418   8.646  0.2199  0.1563  1.0356
   90MOL0     C12034   6.577   7.370   8.726 -0.5959 -0.5888  0.3601
   90MOL0     C12035   6.731   7.378   8.711 -0.3040  0.3423  0.0433
   90MOL0     C12036   6.787   7.519   8.664 -0.1372 -0.4187 -0.2660
   90MOL0     C12037   6.780   7.618   8.777  0.2691 -0.0072 -0.6388
   90MOL0     C12038   6.878   7.740   8.740  0.6915  0.2474 -0.2211
   90MOL0     O12039   7.006   7.687   8.692  0.2989 -0.1616 -0.2332
   90MOL0     C12040   7.124   7.744   8.735  0.1959  0.0544 -0.7523
   90MOL0     C12041   7.135   7.880   8.760 -0.7365  0.2953  0.0314
   90MOL0     C12042   7.257   7.935   8.797 -1.2606  0.1969  0.1156
   90MOL0     C12043   7.372   7.852   8.797 -0.5858 -0.1564 -0.8073
   90MOL0     C12044   7.507   7.910   8.841 -0.0620  0.4188  0.1327
   90MOL0     O12045   7.513   8.039   8.832 -0.0745 -0.4715 -0.9602
   90MOL0     C12046   7.632   8.097   8.878 -0.0024 -0.4400  0.0898
   90MOL0     C12047   7.649   8.146   9.008 -0.8940 -0.5253 -0.5771
   90MOL0     C12048   7.762   8.217   9.051 -0.0351 -0.7247  0.9406
   90MOL0     C12049   7.879   8.234   8.965 -0.0538  0.5978  0.2943
   90MOL0     O12050   7.995   8.289   9.016  0.0709  0.0407  0.1403
   90MOL0     C12051   8.112   8.318   8.934 -0.1043 -0.0559  0.1662
   90MOL0     C12052   8.174   8.452   8.972 -0.2537 -0.7242  0.0433
   90MOL0     C12053   8.233   8.441   9.111 -0.1467  0.1795 -0.3007
   90MOL0     C12054   8.380   8.390   9.098  0.5857  0.5317  0.2036
   90MOL0     C12055   8.459   8.406   9.234  0.3509 -0.2035 -0.6559
   90MOL0     C12056   8.608   8.376   9.230 -0.5330  0.2170  0.2355
   90MOL0     C12057   8.682   8.411   9.361  0.2878 -1.2710  0.3384
   90MOL0     C12058   8.834   8.396   9.346 -0.6580  0.2258  0.4416
   90MOL0    Cl12059   8.901   8.526   9.243  0.0085 -0.1266 -0.2579
   90MOL0     C12060   7.858   8.180   8.837 -0.2668 -0.7229  0.7897
   90MOL0     C12061   7.741   8.117   8.798 -1.3417 -0.1387 -0.4524
   90MOL0     O12062   7.592   7.838   8.895  0.3598 -0.0499  0.0720
   90MOL0     C12063   7.361   7.718   8.758 -0.4538 -0.6798 -0.3734
   90MOL0     C12064   7.239   7.668   8.723 -0.2296 -0.7085  0.5369
   90MOL0     N12065   6.515   7.323   8.848 -0.6169  1.0915 -0.5223
   90MOL0     N12066   6.383   7.333   8.831 -0.1525  0.9385 -0.0816
   90MOL0     C12067   5.320   7.308   8.222  0.1970  0.0726  0.5633
   90MOL0     C12068   5.204   7.356   8.154 -0.0218  0.1785 -0.7307
   90MOL0     C12069   4.901   7.682   8.040 -1.5200  0.1991  0.1822
   90MOL0     C12070   4.861   7.812   8.069 -0.7257 -0.0763  0.8305
   90MOL0     C12071   4.735   7.857   8.044  0.6223 -0.0672 -0.6606
   90MOL0     C12072   4.646   7.774   7.980  0.2209  0.0533  0.1907
   90MOL0     O12073   4.512   7.806   7.954  0.0225 -1.1856 -0.0429
   90MOL0     C12074   4.456   7.894   8.059 -0.0128  0.1803  0.7480
   90MOL0     C12075   4.312   7.857   8.069  0.0159  0.0365 -0.0328
   90MOL0     C12076   4.233   7.911   7.951 -0.3865  0.0761  0.3940
   90MOL0     C12077   4.082   7.876   7.958  0.5965  0.0442 -0.8051
   90MOL0     C12078   4.012   7.946   8.068  0.1569  0.5299 -0.0716
   90MOL0     C12079   3.960   7.974   8.169  0.8389  0.6632  0.2469
   90MOL0     C12080   4.690   7.651   7.933  0.3806  1.0916  0.2361
   90MOL0     C12081   4.820   7.609   7.951 -0.4410 -0.1416 -0.1284
   90MOL0     C12082   4.841   7.472   7.888 -0.1729  0.0740 -0.0710
   90MOL0     H12083   5.103   7.581   8.389 -1.0187 -2.4444  0.4956
   90MOL0     H12084   5.299   7.486   8.510  0.5085 -0.2435 -0.4581
   90MOL0     H12085   5.337   7.282   8.587  0.8157  1.9498 -1.3934
   90MOL0     H12086   5.482   7.173   8.598  1.2797  0.6171  3.3854
   90MOL0     H12087   5.492   7.391   8.727  1.2144 -0.3909  0.9781
   90MOL0     H12088   5.519   7.466   8.569 -2.7658 -0.8289 -1.8588
   90MOL0     H12089   5.701   7.250   8.586  0.1285 -0.0911 -0.3212
   90MOL0     H12090   5.696   7.310   8.753  1.1495  2.6793  1.2221
   90MOL0     H12091   5.749   7.459   8.495  0.3739  0.1694  0.4478
   90MOL0     H12092   5.744   7.536   8.660 -0.5482 -0.0834  0.5737
   90MOL0     H12093   5.934   7.303   8.625  0.4608 -1.2585 -3.9784
   90MOL0     H12094   5.973   7.420   8.514 -3.3409 -1.8108 -1.9120
   90MOL0     H12095   6.009   7.592   8.685  0.1038  0.0451 -1.2118
   90MOL0     H12096   5.922   7.497   8.806 -2.3629  0.2742 -2.3867
   90MOL0     H12097   6.098   7.331   8.813  0.6893  1.0159  0.8031
   90MOL0     H12098   6.158   7.490   8.854  1.5152 -1.4656  0.7528
   90MOL0     H12099   6.192   7.335   8.592  2.5723  0.0857 -1.3308
   90MOL0     H12100   6.213   7.512   8.613  1.6234  1.8867  2.3161
   90MOL0     H12101   6.507   7.468   8.553 -1.0796  0.2281  0.7109
   90MOL0     H12102   6.780   7.341   8.801  1.1261  0.7532 -0.5206
   90MOL0     H12103   6.760   7.303   8.637  0.1623 -0.7312  1.2925
   90MOL0     H12104   6.891   7.497   8.637 -0.0175 -1.7286  1.1808
   90MOL0     H12105   6.727   7.556   8.580 -3.5230 -0.4380  1.9759
   90MOL0     H12106   6.810   7.566   8.869 -0.5262  2.8710  1.3717
   90MOL0     H12107   6.678   7.657   8.783  0.6349  0.6824  2.7093
   90MOL0     H12108   6.888   7.798   8.832  1.2048 -1.8474  1.1088
   90MOL0     H12109   6.826   7.801   8.666  0.0367  0.3597  0.3226
   90MOL0     H12110   7.051   7.949   8.763 -0.5531  0.5656 -0.6639
   90MOL0     H12111   7.260   8.043   8.789 -1.8654  0.1623 -0.6519
   90MOL0     H12112   7.578   8.128   9.089  0.9629  1.5631  1.6677
   90MOL0     H12113   7.763   8.254   9.153  0.2172 -0.8253  0.9761
   90MOL0     H12114   8.176   8.231   8.952 -1.3763 -1.6863 -2.6148
   90MOL0     H12115   8.080   8.335   8.831 -1.3635  1.3128  0.7425
   90MOL0     H12116   8.241   8.494   8.896  1.0825 -2.3583  0.2726
   90MOL0     H12117   8.086   8.518   8.969 -0.2187 -0.7104 -1.5041
   90MOL0     H12118   8.237   8.543   9.149 -2.8703 -0.1762  1.2143
   90MOL0     H12119   8.174   8.376   9.176  1.6810 -1.3405 -0.0853
   90MOL0     H12120   8.425   8.442   9.013  0.4623 -0.1009 -0.2551
   90MOL0     H12121   8.379   8.283   9.074  2.1499  0.4286  0.4842
   90MOL0     H12122   8.406   8.340   9.303  0.6981  1.3225  1.1522
   90MOL0     H12123   8.444   8.510   9.265 -1.8396 -0.4635 -0.6690
   90MOL0     H12124   8.607   8.267   9.223 -2.2048  0.3283 -2.6593
   90MOL0     H12125   8.659   8.411   9.140 -2.6024  0.1688 -0.9978
   90MOL0     H12126   8.647   8.350   9.445  0.6772  0.6131  1.9701
   90MOL0     H12127   8.656   8.515   9.385  0.0063 -0.6703 -2.2458
   90MOL0     H12128   8.880   8.399   9.445  1.6397 -1.2432 -0.5002
   90MOL0     H12129   8.858   8.295   9.311 -0.1174 -0.2940  2.2061
   90MOL0     H12130   7.938   8.157   8.768  0.9329 -1.5125  2.3674
   90MOL0     H12131   7.731   8.090   8.694  1.4483  1.4955 -1.2360
   90MOL0     H12132   7.457   7.669   8.748 -0.8144 -1.3222 -0.7833
   90MOL0     H12133   7.246   7.565   8.689 -0.7045 -0.1454 -1.3866
   90MOL0     H12134   5.370   7.218   8.188  0.1130  0.2442 -0.0156
   90MOL0     H12135   5.168   7.321   8.058 -1.1496  2.9466 -1.4146
   90MOL0     H12136   4.925   7.883   8.121 -2.0174 -0.3021  2.8788
   90MOL0     H12137   4.714   7.961   8.067  3.0289  0.2935  0.2402
   90MOL0     H12138   4.464   7.994   8.014  0.1107  0.0336  0.4390
   90MOL0     H12139   4.506   7.885   8.155  1.1960 -1.6599  0.0073
   90MOL0     H12140   4.270   7.900   8.161 -0.3051 -1.6770  0.6618
   90MOL0     H12141   4.312   7.748   8.065 -0.9213  0.0660 -2.2124
   90MOL0     H12142   4.266   7.857   7.862  1.6561  2.4471 -0.4083
   90MOL0     H12143   4.263   8.015   7.931  2.0344 -0.6123  0.1499
   90MOL0     H12144   4.036   7.906   7.863  2.4445  0.2325 -1.6696
   90MOL0     H12145   4.068   7.768   7.969  1.0379 -0.1761 -2.1937
   90MOL0     H12146   3.908   7.997   8.259 -0.2283  1.4319 -0.5324
   90MOL0     H12147   4.625   7.583   7.880  1.7919 -0.5525  0.5127
   90MOL0     H12148   4.923   7.482   7.816 -1.7452  1.5393 -1.7584
   90MOL0     H12149   4.858   7.394   7.962  0.1448 -0.8873 -1.1316
   90MOL0     H12150   4.761   7.437   7.823  1.0573  0.7771 -2.0574
   91MOL0     O12151   0.398  11.171   0.303 -0.3863 -0.0044 -0.3464
   91MOL0     C12152   0.391  11.275   0.247 -0.2810 -0.6604  0.0704
   91MOL0     O12153   0.478  11.313   0.148  0.0176 -0.2017 -0.4658
   91MOL0     C12154   0.606  11.279   0.167 -1.0383 -0.2116  0.2903
   91MOL0     C12155   0.684  11.221   0.063  0.1239  0.2116 -0.3281
   91MOL0     C12156   0.822  11.212   0.067  0.3947 -0.4172 -0.4174
   91MOL0     C12157   0.892  11.254   0.178 -0.4958  1.0040  0.4037
   91MOL0     O12158   1.024  11.233   0.170 -0.5371 -0.2726  0.2632
   91MOL0     C12159   1.105  11.243   0.287 -0.1189  0.5338  0.0958
   91MOL0     C12160   1.261  11.254   0.248  0.2623 -0.8839 -0.8361
   91MOL0     C12161   1.344  11.290   0.377  0.2650  0.4353  0.3217
   91MOL0     C12162   1.315  11.426   0.437 -0.5537  0.0669  0.6511
   91MOL0     C12163   1.398  11.440   0.563 -0.4840 -0.6546  0.0019
   91MOL0     C12164   1.345  11.568   0.636  0.1903  0.1067  0.3291
   91MOL0     C12165   1.438  11.605   0.755  0.1523  1.1399  0.6278
   91MOL0     C12166   1.380  11.718   0.831  0.6705 -0.3718 -0.1427
   91MOL0     N12167   1.461  11.774   0.939  0.0780 -0.1901 -0.6725
   91MOL0     C12168   1.579  11.727   0.988 -0.1822 -0.4243  0.4037
   91MOL0     C12169   1.630  11.830   1.060 -0.0193  0.1108 -0.2792
   91MOL0     C12170   1.758  11.817   1.138  0.0078 -0.8744 -0.0055
   91MOL0     C12171   1.892  11.775   1.063 -0.0538 -0.4232 -0.2701
   91MOL0     C12172   1.913  11.627   1.018  0.0394 -0.3800 -0.9213
   91MOL0     C12173   2.055  11.576   1.013 -0.2936 -0.5548  0.9566
   91MOL0     O12174   2.124  11.637   0.894 -0.0979  0.4385 -0.6417
   91MOL0     C12175   2.253  11.680   0.922  0.9240 -0.2815  0.4536
   91MOL0     C12176   2.365  11.616   0.867  0.8953 -0.0537  0.1622
   91MOL0     C12177   2.496  11.663   0.881  0.3602  0.8052  0.5023
   91MOL0     C12178   2.521  11.766   0.970  0.0996 -0.5848  0.5899
   91MOL0     C12179   2.659  11.828   0.978  0.5828 -0.3309 -0.3681
   91MOL0     O12180   2.751  11.786   0.895 -0.4732  0.0789  1.2935
   91MOL0     C12181   2.875  11.824   0.929 -0.2038 -0.0811 -0.7354
   91MOL0     C12182   2.933  11.947   0.889 -1.4685 -0.0071  0.5414
   91MOL0     C12183   3.052  11.978   0.949  0.2041  0.0650  0.6013
   91MOL0     C12184   3.121  11.897   1.036  0.4464  0.6215  0.6635
   91MOL0     O12185   3.247  11.936   1.070 -0.6186 -0.4793  0.0621
   91MOL0     C12186   3.368  11.851   1.067 -0.9334  2.1075  0.9060
   91MOL0     C12187   3.493  11.936   1.080  0.1541  0.3189 -0.1067
   91MOL0     C12188   3.618  11.843   1.102  0.2052 -0.2180  0.1005
   91MOL0     C12189   3.750  11.923   1.125 -0.1750 -0.0133  0.9625
   91MOL0     C12190   3.867  11.832   1.162 -0.4377 -0.2933 -0.6042
   91MOL0     C12191   3.985  11.929   1.197 -0.8554 -0.1639  0.2623
   91MOL0     C12192   4.122  11.856   1.212  0.3060  0.3650  0.2006
   91MOL0     C12193   4.243  11.946   1.229 -0.5268 -0.0014  0.0423
   91MOL0    Cl12194   4.260  12.057   1.089 -0.5696 -0.4964  0.1154
   91MOL0     C12195   3.074  11.772   1.062 -1.2720 -0.1127  0.1951
   91MOL0     C12196   2.947  11.733   1.008  0.1783  0.2217 -0.1645
   91MOL0     O12197   2.677  11.909   1.074  0.4914  0.0752 -0.0243
   91MOL0     C12198   2.413  11.827   1.030  0.9632 -1.1460 -0.2293
   91MOL0     C12199   2.279  11.779   1.012 -0.3305 -0.6144  0.4698
   91MOL0     N12200   1.542  11.934   1.061  0.4965  0.0372 -0.3630
   91MOL0     N12201   1.450  11.903   0.981  0.4658 -0.2579 -0.4500
   91MOL0     C12202   0.815  11.303   0.287 -0.2601  0.5154 -0.0666
   91MOL0     C12203   0.678  11.313   0.285 -0.2233 -0.2331  0.1474
   91MOL0     C12204   0.275  11.361   0.269  0.3751  0.2064  0.4429
   91MOL0     C12205   0.267  11.493   0.211 -0.8742  0.4668 -0.7180
   91MOL0     C12206   0.166  11.572   0.236  0.4443  0.2155  0.9615
   91MOL0     C12207   0.058  11.541   0.314  0.3879  0.5628  0.3428
   91MOL0     O12208  -0.048  11.627   0.311  0.5922 -0.9818 -0.2509
   91MOL0     C12209  -0.174  11.602   0.381 -0.2096  0.2808  0.2299
   91MOL0     C12210  -0.276  11.694   0.330 -0.0372 -0.0814  0.5716
   91MOL0     C12211  -0.407  11.680   0.405  0.4113 -0.0053 -0.1439
   91MOL0     C12212  -0.489  11.817   0.395 -0.7195  0.5717  0.3358
   91MOL0     C12213  -0.623  11.787   0.423  1.5900 -0.0648  0.1698
   91MOL0     C12214  -0.742  11.766   0.453 -0.4036 -0.1785 -0.2906
   91MOL0     C12215   0.055  11.414   0.371 -0.9270  0.2766 -1.2206
   91MOL0     C12216   0.155  11.322   0.344  0.3651  0.1344 -0.0020
   91MOL0     C12217   0.127  11.183   0.411  0.2250  0.3470  0.0548
   91MOL0     H12218   0.637  11.180  -0.026 -0.2750 -3.7690  1.5175
   91MOL0     H12219   0.882  11.165  -0.010  1.8084  0.2324  0.2412
   91MOL0     H12220   1.096  11.346   0.321  2.2952  0.7205  0.3824
   91MOL0     H12221   1.081  11.164   0.359  0.9135  0.0442 -0.0664
   91MOL0     H12222   1.283  11.313   0.159 -0.3949 -2.6683 -2.2490
   91MOL0     H12223   1.301  11.156   0.218  2.6871  0.2989 -1.7574
   91MOL0     H12224   1.453  11.287   0.361  0.3466 -2.5407  0.8452
   91MOL0     H12225   1.328  11.213   0.454  2.3654  2.0171  2.4970
   91MOL0     H12226   1.335  11.507   0.367 -0.0366  0.2605  1.0170
   91MOL0     H12227   1.207  11.430   0.455 -1.0881 -0.6867 -1.9565
   91MOL0     H12228   1.382  11.357   0.633 -1.3601 -1.4410 -1.0862
   91MOL0     H12229   1.505  11.445   0.541 -0.2616  0.1012  1.1556
   91MOL0     H12230   1.341  11.654   0.569  0.2368 -0.4920 -0.4597
   91MOL0     H12231   1.244  11.550   0.672  0.0116  0.8156  0.2028
   91MOL0     H12232   1.543  11.614   0.725  0.8952 -2.5432  1.5686
   91MOL0     H12233   1.445  11.518   0.821 -0.4617 -0.5974 -1.4733
   91MOL0     H12234   1.366  11.809   0.771  1.4843  1.0505  1.7219
   91MOL0     H12235   1.284  11.684   0.871  3.5184 -4.4537  4.3745
   91MOL0     H12236   1.635  11.638   0.962  1.7764  0.8535  0.0375
   91MOL0     H12237   1.782  11.909   1.192  2.0012  0.1014 -2.3237
   91MOL0     H12238   1.749  11.740   1.215  0.1025  1.0398  2.0156
   91MOL0     H12239   1.911  11.831   0.971  0.9244 -0.7283 -0.2676
   91MOL0     H12240   1.982  11.797   1.122  0.1265 -1.9017  0.0372
   91MOL0     H12241   1.852  11.595   0.933  2.1808 -1.2900 -2.1999
   91MOL0     H12242   1.864  11.566   1.094 -1.0958  2.0120  0.4062
   91MOL0     H12243   2.050  11.467   1.009  0.0156 -0.6166  1.9249
   91MOL0     H12244   2.114  11.598   1.103  1.1765 -3.5161  0.8547
   91MOL0     H12245   2.340  11.528   0.809  0.4557 -0.8563  1.5164
   91MOL0     H12246   2.568  11.607   0.822 -2.3859  0.8033 -3.2556
   91MOL0     H12247   2.883  12.016   0.821  0.7812 -0.5769 -1.8729
   91MOL0     H12248   3.097  12.070   0.914  1.0800 -0.8860 -0.8806
   91MOL0     H12249   3.358  11.781   1.150  0.0286 -0.5672 -1.0620
   91MOL0     H12250   3.392  11.792   0.978  1.7141 -1.3644  3.6203
   91MOL0     H12251   3.518  11.998   0.993 -1.1126  2.0446  0.6879
   91MOL0     H12252   3.474  12.001   1.166 -0.3013  1.1390 -0.8078
   91MOL0     H12253   3.604  11.761   1.174  0.6456 -1.8440 -1.5767
   91MOL0     H12254   3.633  11.786   1.010  3.0773 -1.2768  1.1316
   91MOL0     H12255   3.729  12.006   1.193 -3.3658  0.2367 -0.1510
   91MOL0     H12256   3.783  11.973   1.033  3.2536  0.3819  2.2368
   91MOL0     H12257   3.900  11.763   1.084  2.8383 -0.9979  1.1962
   91MOL0     H12258   3.852  11.781   1.258  1.6467  1.2725  0.6563
   91MOL0     H12259   4.001  11.997   1.113  2.7950 -2.1184 -0.8564
   91MOL0     H12260   3.956  11.993   1.280 -2.0377 -0.6988  0.2750
   91MOL0     H12261   4.140  11.804   1.118 -0.3533 -1.8737  1.2402
   91MOL0     H12262   4.125  11.776   1.287 -0.4195 -0.3720 -0.5373
   91MOL0     H12263   4.216  11.998   1.322  0.1277 -0.1726  0.3335
   91MOL0     H12264   4.332  11.887   1.252 -0.3107  0.8206  1.4413
   91MOL0     H12265   3.133  11.700   1.118 -0.6817  0.5093  0.3861
   91MOL0     H12266   2.909  11.633   1.029  0.1956  0.2532  0.0153
   91MOL0     H12267   2.422  11.911   1.099 -1.0724 -1.5579  0.6054
   91MOL0     H12268   2.197  11.835   1.055 -1.9595 -0.9032 -2.0664
   91MOL0     H12269   0.866  11.345   0.373  0.8816  3.7512 -2.1651
   91MOL0     H12270   0.628  11.364   0.367 -1.7698  0.1153 -0.9612
   91MOL0     H12271   0.354  11.537   0.163 -1.3277  1.0857 -0.9791
   91MOL0     H12272   0.166  11.662   0.175 -0.6439 -0.8241 -0.6377
   91MOL0     H12273  -0.159  11.612   0.489 -1.7621  0.8418  0.4169
   91MOL0     H12274  -0.206  11.501   0.354  1.4590  0.6058 -3.6714
   91MOL0     H12275  -0.297  11.695   0.222 -1.5548  5.5500  0.5849
   91MOL0     H12276  -0.234  11.794   0.349 -1.6465  0.8644 -0.5599
   91MOL0     H12277  -0.391  11.657   0.511  1.1245 -0.0492 -0.2538
   91MOL0     H12278  -0.468  11.593   0.378 -0.2056  0.1113  0.8237
   91MOL0     H12279  -0.452  11.903   0.452  0.5056  0.6807 -0.5706
   91MOL0     H12280  -0.487  11.834   0.287  0.1185  1.8764  0.5257
   91MOL0     H12281  -0.846  11.746   0.468 -0.6847  1.9633  1.0837
   91MOL0     H12282  -0.035  11.387   0.425  1.6721  0.1350  3.5628
   91MOL0     H12283   0.204  11.160   0.485 -0.3046  0.8083  0.7704
   91MOL0     H12284   0.033  11.182   0.468 -0.6143  2.1302 -1.1998
   91MOL0     H12285   0.123  11.108   0.332  0.8546  1.8168 -1.4259
   92MOL0     O12286   8.305   3.143   5.331 -0.2337 -0.5508 -0.6340
   92MOL0     C12287   8.310   3.031   5.291 -0.2542 -0.6590  0.2044
   92MOL0     O12288   8.417   2.952   5.276  0.3553 -0.8320 -0.1862
   92MOL0     C12289   8.541   3.004   5.319 -0.0434 -0.2959  0.0687
   92MOL0     C12290   8.644   3.018   5.227 -0.2879 -1.2131  0.6564
   92MOL0     C12291   8.770   3.074   5.271  0.9602  0.4105  0.0864
   92MOL0     C12292   8.796   3.100   5.410 -0.5782  0.4320  0.0819
   92MOL0     O12293   8.916   3.143   5.469 -0.0641 -0.7181 -0.3052
   92MOL0     C12294   9.029   3.099   5.390 -0.6699  0.0745  0.4372
   92MOL0     C12295   9.155   3.085   5.482  0.2183 -0.4315 -0.0672
   92MOL0     C12296   9.151   2.980   5.593 -0.0305  0.2032  0.6360
   92MOL0     C12297   9.260   3.006   5.694  0.3042  0.0528  0.0714
   92MOL0     C12298   9.249   2.910   5.819  0.8246  0.2016  1.0235
   92MOL0     C12299   9.353   2.939   5.929  0.5621  0.0852 -0.7204
   92MOL0     C12300   9.496   2.963   5.887 -0.6809  0.3657  1.1103
   92MOL0     C12301   9.549   2.838   5.803  0.3738 -0.1188  0.2201
   92MOL0     N12302   9.693   2.832   5.805  0.4398  0.5295  0.6717
   92MOL0     C12303   9.759   2.761   5.905 -0.0736  0.1476 -0.2894
   92MOL0     C12304   9.886   2.784   5.878  0.2505  0.3518  0.4601
   92MOL0     C12305  10.006   2.718   5.953  0.1499  0.6899  1.2023
   92MOL0     C12306  10.142   2.787   5.933  1.0150 -0.1483 -0.0824
   92MOL0     C12307  10.215   2.755   5.794 -0.0813 -0.1225 -0.2815
   92MOL0     C12308  10.292   2.875   5.741  0.4444  0.8313  0.2139
   92MOL0     O12309  10.393   2.920   5.828  0.0706  0.6092  0.5674
   92MOL0     C12310  10.524   2.880   5.812 -0.2377  1.0174 -0.2165
   92MOL0     C12311  10.622   2.928   5.901  0.5371  0.3276  1.0645
   92MOL0     C12312  10.752   2.897   5.875  0.2563 -0.5394 -0.3801
   92MOL0     C12313  10.796   2.808   5.779 -0.2203  0.0036  0.4861
   92MOL0     C12314  10.941   2.784   5.752 -0.7377 -1.1338  0.1623
   92MOL0     O12315  11.027   2.889   5.771 -0.5785 -0.1774 -0.6126
   92MOL0     C12316  11.159   2.874   5.728  0.6178  0.8251  0.2943
   92MOL0     C12317  11.202   2.843   5.604 -0.3907 -0.5212  0.5015
   92MOL0     C12318  11.347   2.841   5.577  0.0884  0.3150  0.0515
   92MOL0     C12319  11.440   2.881   5.674 -0.3764 -0.3746  0.5931
   92MOL0     O12320  11.575   2.896   5.637 -0.2695  0.1159 -0.9349
   92MOL0     C12321  11.656   2.798   5.696 -0.6589  0.5127  0.2390
   92MOL0     C12322  11.648   2.674   5.610 -0.3465  0.7419 -0.5085
   92MOL0     C12323  11.748   2.562   5.652 -0.3358  0.3011 -0.3884
   92MOL0     C12324  11.744   2.451   5.546  0.0447 -0.4108  0.1838
   92MOL0     C12325  11.868   2.365   5.556  0.7028 -0.3495 -0.5040
   92MOL0     C12326  11.826   2.254   5.464  0.4713 -0.0695  0.7185
   92MOL0     C12327  11.927   2.146   5.470 -0.8998 -0.1511 -0.0653
   92MOL0     C12328  11.949   2.077   5.616 -0.0647 -0.5846 -0.1485
   92MOL0    Cl12329  11.785   2.045   5.679  0.6237  0.0340  0.0564
   92MOL0     C12330  11.393   2.915   5.796  0.2238 -0.0699 -0.4055
   92MOL0     C12331  11.250   2.910   5.829 -0.7036  0.0185  1.0093
   92MOL0     O12332  10.971   2.682   5.691 -0.1154 -0.0082  1.0128
   92MOL0     C12333  10.701   2.741   5.709  0.5263 -0.1733  0.1284
   92MOL0     C12334  10.561   2.778   5.724 -0.6764  0.0751 -0.1082
   92MOL0     N12335   9.894   2.879   5.775 -0.3828  0.1117 -0.0820
   92MOL0     N12336   9.781   2.909   5.735  0.0020 -0.7912 -0.2153
   92MOL0     C12337   8.691   3.060   5.502 -0.2691 -0.8674  1.7038
   92MOL0     C12338   8.567   3.024   5.454  0.3911  0.0752  0.5750
   92MOL0     C12339   8.177   2.976   5.262  0.2484  0.3756 -0.8849
   92MOL0     C12340   8.069   3.052   5.291 -0.1244 -0.6356 -0.2402
   92MOL0     C12341   7.940   2.996   5.266 -0.0261 -0.9058 -0.1593
   92MOL0     C12342   7.909   2.867   5.206  0.8150 -0.0678 -0.4553
   92MOL0     O12343   7.793   2.802   5.199 -1.0984  0.9175 -0.6609
   92MOL0     C12344   7.671   2.855   5.246  0.5235 -0.3493 -0.1850
   92MOL0     C12345   7.566   2.789   5.166 -0.2879 -0.8077 -0.4317
   92MOL0     C12346   7.427   2.852   5.172 -0.3841 -0.1997 -0.8461
   92MOL0     C12347   7.339   2.783   5.071  1.1433  0.9954 -0.1736
   92MOL0     C12348   7.198   2.816   5.092  1.0348 -0.1629  0.5674
   92MOL0     C12349   7.078   2.838   5.111 -0.1569 -0.3251 -0.4004
   92MOL0     C12350   8.025   2.804   5.171  0.2994  0.4959 -0.5246
   92MOL0     C12351   8.150   2.854   5.198 -0.1925 -0.2792 -0.0049
   92MOL0     C12352   8.261   2.763   5.139  0.3446 -0.2925 -0.7714
   92MOL0     H12353   8.619   3.017   5.121  0.3853 -0.9354  0.4932
   92MOL0     H12354   8.842   3.102   5.195  3.8996  0.5640  2.6758
   92MOL0     H12355   9.010   3.003   5.341 -1.1717  2.0391 -3.6481
   92MOL0     H12356   9.057   3.169   5.311 -3.4442  1.1757  0.2977
   92MOL0     H12357   9.162   3.183   5.529 -2.1806 -1.1740  2.0695
   92MOL0     H12358   9.245   3.074   5.421 -0.8447 -0.0506 -1.7839
   92MOL0     H12359   9.162   2.884   5.543  0.2899  0.6054 -0.0762
   92MOL0     H12360   9.054   2.977   5.644 -2.7991  1.0253 -3.9430
   92MOL0     H12361   9.360   3.004   5.649  0.0667  0.6580 -0.4878
   92MOL0     H12362   9.245   3.104   5.740  0.2087  0.0197  0.1099
   92MOL0     H12363   9.145   2.903   5.850 -0.3298 -1.0785 -2.5916
   92MOL0     H12364   9.275   2.812   5.778 -1.1656 -0.1778  0.5649
   92MOL0     H12365   9.318   3.036   5.965 -2.2643 -1.3985  0.9313
   92MOL0     H12366   9.346   2.872   6.015  3.2679 -0.8519 -1.1359
   92MOL0     H12367   9.563   2.967   5.974  0.9531 -1.2320 -0.0217
   92MOL0     H12368   9.517   3.051   5.826  1.9786 -1.6911 -1.2305
   92MOL0     H12369   9.521   2.741   5.844  1.4311 -0.2906  0.5787
   92MOL0     H12370   9.505   2.834   5.702  0.1977  0.0121  0.2920
   92MOL0     H12371   9.721   2.700   5.987  2.6268  0.4793  1.3449
   92MOL0     H12372   9.981   2.722   6.060  2.2408 -0.6411  1.7956
   92MOL0     H12373  10.023   2.612   5.938  2.8665  0.8770  2.4749
   92MOL0     H12374  10.107   2.890   5.924 -2.5480 -1.2965 -0.9390
   92MOL0     H12375  10.202   2.759   6.021  0.2316  0.1494  0.5623
   92MOL0     H12376  10.152   2.718   5.712 -1.1705 -0.4158  0.6589
   92MOL0     H12377  10.285   2.673   5.812 -0.6821 -0.5502  0.1640
   92MOL0     H12378  10.223   2.958   5.724 -0.1212  0.3159 -0.0494
   92MOL0     H12379  10.329   2.856   5.640 -1.0305  0.0387 -0.2024
   92MOL0     H12380  10.605   2.998   5.982  3.0658  2.2540  0.0727
   92MOL0     H12381  10.828   2.920   5.949 -0.0266 -0.0640 -0.2347
   92MOL0     H12382  11.131   2.822   5.524 -4.7105  1.2310  3.5025
   92MOL0     H12383  11.383   2.821   5.477  0.6541  1.3951  0.0258
   92MOL0     H12384  11.761   2.829   5.693 -0.9657  1.5021 -1.8989
   92MOL0     H12385  11.623   2.768   5.796  1.5340 -3.2087  0.0134
   92MOL0     H12386  11.551   2.626   5.618  0.6870 -2.1117 -3.1765
   92MOL0     H12387  11.666   2.709   5.508 -0.0042 -3.8713 -2.2801
   92MOL0     H12388  11.844   2.610   5.674 -1.4535  1.4534  2.4563
   92MOL0     H12389  11.712   2.521   5.746  0.5857  0.3883  0.0123
   92MOL0     H12390  11.728   2.491   5.446  0.4167  0.3162  0.4103
   92MOL0     H12391  11.650   2.400   5.569 -0.5094 -0.9638 -2.8770
   92MOL0     H12392  11.882   2.332   5.659  0.2903  1.0913  0.0323
   92MOL0     H12393  11.953   2.418   5.513  0.3599 -0.4957 -1.3932
   92MOL0     H12394  11.734   2.200   5.485  0.6958 -2.9718 -4.1183
   92MOL0     H12395  11.817   2.300   5.365  0.8331  0.9570  1.1531
   92MOL0     H12396  12.021   2.181   5.426 -1.1597 -0.5966 -1.0212
   92MOL0     H12397  11.912   2.067   5.395  1.5077 -0.7153 -0.0495
   92MOL0     H12398  12.000   1.981   5.610  0.7497 -0.0909 -2.0886
   92MOL0     H12399  11.997   2.148   5.684 -0.8019  0.3576 -0.5804
   92MOL0     H12400  11.459   2.939   5.879  4.5631 -2.9472 -2.6114
   92MOL0     H12401  11.210   2.952   5.921  2.5715  1.8803  1.7334
   92MOL0     H12402  10.731   2.667   5.636 -0.9987  0.1332 -0.8580
   92MOL0     H12403  10.491   2.724   5.661 -1.0806 -1.6370  1.7044
   92MOL0     H12404   8.712   3.075   5.608  1.6085  2.7271  0.9611
   92MOL0     H12405   8.501   2.987   5.531  0.8427 -1.7072  0.1479
   92MOL0     H12406   8.079   3.151   5.335 -3.4093 -0.7258  1.0266
   92MOL0     H12407   7.861   3.070   5.279  0.0137 -0.5752 -1.5840
   92MOL0     H12408   7.673   2.963   5.232 -1.2092 -0.1264  0.9720
   92MOL0     H12409   7.653   2.839   5.353 -0.6908  0.1751 -0.2970
   92MOL0     H12410   7.576   2.685   5.201  2.2719 -0.4843  0.0469
   92MOL0     H12411   7.599   2.784   5.062 -1.1257 -1.7145 -0.6721
   92MOL0     H12412   7.433   2.960   5.161  0.6633  0.0369  1.4347
   92MOL0     H12413   7.394   2.834   5.275  1.6129  0.8169  0.0190
   92MOL0     H12414   7.365   2.814   4.969 -3.1795 -2.3706 -2.6699
   92MOL0     H12415   7.354   2.675   5.070 -2.2649  0.3958 -1.3749
   92MOL0     H12416   6.978   2.845   5.150 -0.4648 -1.4821 -0.9323
   92MOL0     H12417   8.001   2.707   5.129 -1.1406  1.4001 -1.8839
   92MOL0     H12418   8.339   2.818   5.087 -0.3791  0.7321 -0.8007
   92MOL0     H12419   8.308   2.727   5.230  0.9012 -0.7787 -1.2421
   92MOL0     H12420   8.219   2.677   5.085 -1.0871 -0.3183  0.3048
   93MOL0     O12421   2.649   6.716   5.058 -0.4310  0.6473 -0.4399
   93MOL0     C12422   2.582   6.767   5.152 -0.9838  0.3906 -0.1087
   93MOL0     O12423   2.631   6.802   5.277  0.0366 -0.0114 -0.0506
   93MOL0     C12424   2.766   6.778   5.297  0.0691  0.6077  0.0203
   93MOL0     C12425   2.859   6.879   5.273  0.5471  0.0237 -0.2467
   93MOL0     C12426   2.994   6.877   5.312  0.3172 -0.2259 -0.5248
   93MOL0     C12427   3.036   6.748   5.360 -0.7636  0.4891  0.1693
   93MOL0     O12428   3.171   6.734   5.395  0.8359 -0.0967 -0.4794
   93MOL0     C12429   3.226   6.850   5.466  0.0798 -0.1121  0.0103
   93MOL0     C12430   3.339   6.789   5.542 -0.0230  1.0628 -0.1275
   93MOL0     C12431   3.436   6.892   5.602  0.4644  0.3305  0.2181
   93MOL0     C12432   3.498   6.980   5.494  0.4751 -0.3747 -0.7775
   93MOL0     C12433   3.645   7.018   5.529 -0.5623 -0.3875 -0.4471
   93MOL0     C12434   3.664   7.115   5.646  0.5007  0.5112  0.0988
   93MOL0     C12435   3.792   7.196   5.632  0.1860 -0.7546 -0.5081
   93MOL0     C12436   3.820   7.276   5.764 -0.6712  0.1559  0.4262
   93MOL0     N12437   3.925   7.196   5.837  0.4126 -1.6179 -0.5120
   93MOL0     C12438   3.940   7.057   5.848  0.2609 -0.9247  0.3360
   93MOL0     C12439   4.047   7.035   5.932  0.8536  0.2010  0.0641
   93MOL0     C12440   4.118   6.909   5.973  0.1825  0.5605  1.4558
   93MOL0     C12441   4.274   6.919   5.949 -0.4321 -0.9974 -0.1556
   93MOL0     C12442   4.349   6.800   6.005  0.1085  0.7265 -0.2329
   93MOL0     C12443   4.506   6.804   5.995 -0.0938 -0.2956  0.4170
   93MOL0     O12444   4.549   6.671   6.017  0.3419 -0.3103 -0.1065
   93MOL0     C12445   4.687   6.648   6.023 -0.4657 -0.8613 -0.5576
   93MOL0     C12446   4.785   6.751   6.012 -0.3284  0.2231  0.5524
   93MOL0     C12447   4.923   6.723   6.020 -0.1594 -0.4422 -0.2908
   93MOL0     C12448   4.965   6.590   6.036  0.1285 -0.2246 -0.2497
   93MOL0     C12449   5.109   6.556   6.062 -0.1815 -0.6548 -0.4090
   93MOL0     O12450   5.199   6.670   6.064 -0.0655  0.4880 -0.9693
   93MOL0     C12451   5.337   6.652   6.064  0.1415  0.6930 -0.5665
   93MOL0     C12452   5.400   6.548   6.128 -0.3574 -0.4294 -0.2350
   93MOL0     C12453   5.536   6.516   6.103 -0.1679  1.1836 -0.0611
   93MOL0     C12454   5.616   6.603   6.025  0.1109 -0.0422  0.0418
   93MOL0     O12455   5.748   6.580   6.010 -0.1219  0.4426 -0.3926
   93MOL0     C12456   5.837   6.673   5.949 -0.4842 -0.6454 -0.3785
   93MOL0     C12457   5.981   6.630   5.958 -0.6141  0.5669 -0.4639
   93MOL0     C12458   6.010   6.583   6.106 -0.0080  0.1088  0.2472
   93MOL0     C12459   6.155   6.532   6.109  0.4618  0.2637 -0.9909
   93MOL0     C12460   6.209   6.515   6.253 -0.1461  0.7028  0.3297
   93MOL0     C12461   6.359   6.497   6.241 -0.2790  0.4317 -0.1992
   93MOL0     C12462   6.413   6.513   6.379  1.3608 -0.9048  0.4350
   93MOL0     C12463   6.547   6.442   6.394  0.6767  0.0797  0.2732
   93MOL0    Cl12464   6.652   6.514   6.267  0.2250  0.1534 -0.0922
   93MOL0     C12465   5.549   6.720   5.968 -0.9803  0.4791  0.5589
   93MOL0     C12466   5.412   6.729   5.975  0.5173 -0.0260  0.2432
   93MOL0     O12467   5.144   6.438   6.054  0.1086 -0.4825  0.4581
   93MOL0     C12468   4.871   6.490   6.037  0.5736 -0.6428  0.1111
   93MOL0     C12469   4.731   6.520   6.027 -0.5828  0.3789  0.5515
   93MOL0     N12470   4.081   7.169   5.982 -0.4448  0.3286  0.5548
   93MOL0     N12471   4.016   7.258   5.921  0.1102 -0.8760 -0.9047
   93MOL0     C12472   2.942   6.648   5.381  0.0778  0.4354  0.8290
   93MOL0     C12473   2.806   6.661   5.351 -0.1893  0.4741  0.1275
   93MOL0     C12474   2.448   6.806   5.118  0.3246 -0.4596 -0.2248
   93MOL0     C12475   2.354   6.823   5.223 -0.8863  0.4636  0.4126
   93MOL0     C12476   2.224   6.862   5.192 -0.1681  0.4498 -0.4811
   93MOL0     C12477   2.172   6.893   5.066 -0.3641  0.2331 -0.0853
   93MOL0     O12478   2.042   6.910   5.033  0.9362  0.1155 -0.2993
   93MOL0     C12479   1.936   6.910   5.135  0.4675 -0.1336 -0.4687
   93MOL0     C12480   1.807   6.947   5.054  0.7401 -0.2356  0.1860
   93MOL0     C12481   1.671   6.944   5.130 -0.5952 -0.1990  0.2557
   93MOL0     C12482   1.565   6.991   5.026 -0.4628 -0.6732 -0.3682
   93MOL0     C12483   1.432   6.959   5.078  0.2590 -1.0498  0.0198
   93MOL0     C12484   1.324   6.916   5.112 -0.1934 -0.3708 -0.1439
   93MOL0     C12485   2.266   6.877   4.966  0.8693  0.4888 -0.7194
   93MOL0     C12486   2.400   6.841   4.989 -0.5953 -0.0811  0.5998
   93MOL0     C12487   2.486   6.838   4.867  0.5611  0.1427 -0.1530
   93MOL0     H12488   2.827   6.968   5.220 -0.2197 -1.9838 -3.4099
   93MOL0     H12489   3.054   6.966   5.299  2.4005 -1.1097  1.9653
   93MOL0     H12490   3.265   6.916   5.388  0.9279 -0.9949 -0.3186
   93MOL0     H12491   3.152   6.899   5.530  0.0450 -1.0606  0.7170
   93MOL0     H12492   3.400   6.730   5.473 -0.2673 -2.1034  2.1559
   93MOL0     H12493   3.305   6.723   5.623 -2.6276  0.1149 -1.8537
   93MOL0     H12494   3.510   6.825   5.647 -0.5441 -1.2701 -0.4195
   93MOL0     H12495   3.374   6.941   5.677 -0.8968  0.4988 -0.9893
   93MOL0     H12496   3.502   6.936   5.394  1.8204  1.9050 -1.8076
   93MOL0     H12497   3.438   7.071   5.483  0.3421 -0.0888  1.7139
   93MOL0     H12498   3.707   6.932   5.554  0.2833  0.6380  1.1126
   93MOL0     H12499   3.679   7.069   5.438  5.0784  0.2773  1.6796
   93MOL0     H12500   3.576   7.180   5.634 -1.2334 -1.9620 -1.5055
   93MOL0     H12501   3.655   7.058   5.739 -0.7345  0.9246  0.2568
   93MOL0     H12502   3.782   7.255   5.541 -0.7031 -2.2134 -1.3834
   93MOL0     H12503   3.881   7.138   5.605  1.3959  0.6001  0.4402
   93MOL0     H12504   3.847   7.379   5.740  0.3192 -0.5048 -1.5050
   93MOL0     H12505   3.738   7.270   5.837 -1.1515  0.9948 -0.0257
   93MOL0     H12506   3.889   6.981   5.789  0.0339  3.1486 -5.6007
   93MOL0     H12507   4.094   6.889   6.078  0.5858  0.0474  1.4543
   93MOL0     H12508   4.080   6.823   5.916  0.2090  2.1784 -1.1636
   93MOL0     H12509   4.293   6.922   5.842 -0.5896  0.7063 -0.1592
   93MOL0     H12510   4.306   7.008   6.004 -0.2676 -0.5236 -1.0009
   93MOL0     H12511   4.321   6.712   5.947  2.0091 -0.9599  1.2707
   93MOL0     H12512   4.325   6.788   6.111 -1.8362  1.5180 -0.5428
   93MOL0     H12513   4.540   6.877   6.068 -2.6753  1.1617  0.2832
   93MOL0     H12514   4.550   6.832   5.899  1.1080 -2.3221  0.3122
   93MOL0     H12515   4.770   6.859   6.012  1.2364  0.4720 -0.4594
   93MOL0     H12516   4.987   6.809   6.038 -0.4179 -0.4040  0.4782
   93MOL0     H12517   5.354   6.476   6.195  0.4605 -1.2324 -0.5234
   93MOL0     H12518   5.595   6.436   6.148  4.6463  4.0524 -0.5573
   93MOL0     H12519   5.806   6.691   5.845 -0.6542  5.1534  0.3536
   93MOL0     H12520   5.823   6.769   5.998  2.5445 -0.8851  1.2099
   93MOL0     H12521   6.009   6.552   5.888 -1.4649  1.3551 -1.7187
   93MOL0     H12522   6.026   6.723   5.922 -0.5342  1.2098  1.1713
   93MOL0     H12523   6.004   6.666   6.178 -0.2685 -1.0523  1.6003
   93MOL0     H12524   5.945   6.505   6.146  1.4135  0.4998  3.7177
   93MOL0     H12525   6.209   6.615   6.062 -1.1708  1.9406 -0.0905
   93MOL0     H12526   6.144   6.441   6.051  0.4197 -0.2362 -0.2078
   93MOL0     H12527   6.168   6.421   6.292 -2.8278  1.8400  0.4203
   93MOL0     H12528   6.184   6.594   6.324  0.6557  1.1178  0.1555
   93MOL0     H12529   6.388   6.407   6.187 -0.7666  0.7387 -0.9796
   93MOL0     H12530   6.401   6.577   6.180  2.9917 -1.9192 -1.3149
   93MOL0     H12531   6.343   6.479   6.455  1.2487  1.5224  1.5161
   93MOL0     H12532   6.425   6.621   6.397  0.5216 -1.1015  2.4456
   93MOL0     H12533   6.588   6.472   6.491 -1.2691  1.4368  0.7341
   93MOL0     H12534   6.541   6.334   6.382  0.7242  0.0300  0.6915
   93MOL0     H12535   5.607   6.785   5.904 -1.4275  1.4120  1.0809
   93MOL0     H12536   5.359   6.806   5.920 -1.3432 -1.6687 -0.3844
   93MOL0     H12537   4.895   6.387   6.064 -2.0447 -0.3037  4.8830
   93MOL0     H12538   4.668   6.431   6.022 -2.0652  1.4109  0.2013
   93MOL0     H12539   2.974   6.550   5.413 -2.6722 -1.6257 -2.1392
   93MOL0     H12540   2.734   6.582   5.372 -0.6322  1.5192  3.1993
   93MOL0     H12541   2.376   6.810   5.328  1.7507  0.1143 -0.1126
   93MOL0     H12542   2.161   6.867   5.281  4.1289 -0.9062  3.0189
   93MOL0     H12543   1.956   6.980   5.217 -1.2764 -0.9006  0.6890
   93MOL0     H12544   1.926   6.810   5.179 -0.5276 -0.8595 -2.2702
   93MOL0     H12545   1.797   6.887   4.963 -1.8048 -0.2063  0.3787
   93MOL0     H12546   1.814   7.054   5.033  0.1020 -0.2051  0.1097
   93MOL0     H12547   1.667   7.007   5.219 -2.8155 -2.1761  1.6903
   93MOL0     H12548   1.650   6.845   5.171 -0.2076 -0.1094  0.6800
   93MOL0     H12549   1.574   7.097   5.000  1.7791 -0.8364 -0.4015
   93MOL0     H12550   1.576   6.935   4.933  2.5826 -0.9497  0.0670
   93MOL0     H12551   1.223   6.880   5.123 -0.0190 -0.7496  0.2794
   93MOL0     H12552   2.214   6.889   4.872 -2.9715  1.7650  1.3193
   93MOL0     H12553   2.585   6.883   4.880 -0.3538  2.4899 -0.8625
   93MOL0     H12554   2.491   6.733   4.837  2.2002  0.6116 -1.6917
   93MOL0     H12555   2.447   6.894   4.782 -1.7287 -3.8467 -2.0383
   94MOL0     O12556   0.273   3.427   2.382 -0.1073 -0.0496 -0.5010
   94MOL0     C12557   0.240   3.536   2.423 -0.9796  0.4260 -0.7363
   94MOL0     O12558   0.329   3.637   2.451 -0.5943  1.1129  0.4783
   94MOL0     C12559   0.465   3.618   2.466  0.2755  0.0829  0.3711
   94MOL0     C12560   0.547   3.556   2.375 -0.7703  0.6695  1.0024
   94MOL0     C12561   0.683   3.561   2.395  0.0553  0.2803  0.4502
   94MOL0     C12562   0.729   3.627   2.504 -0.5051 -0.1946 -0.4899
   94MOL0     O12563   0.865   3.630   2.519 -0.4404 -0.0576  0.2528
   94MOL0     C12564   0.920   3.521   2.592  0.4008  0.0830  0.1459
   94MOL0     C12565   1.074   3.525   2.600 -0.4782  0.7699  0.6318
   94MOL0     C12566   1.123   3.385   2.637  0.7183  0.1617  0.5025
   94MOL0     C12567   1.270   3.385   2.686 -0.1730  0.3048  0.7968
   94MOL0     C12568   1.300   3.244   2.728 -0.7628  0.6221 -0.2744
   94MOL0     C12569   1.452   3.207   2.743  0.2597 -0.2449  0.2289
   94MOL0     C12570   1.461   3.074   2.814 -0.5825  0.2352 -0.1073
   94MOL0     C12571   1.598   3.048   2.866  0.5534  0.3862 -0.3820
   94MOL0     N12572   1.693   3.056   2.758 -0.5020  0.6991  0.5635
   94MOL0     C12573   1.762   3.171   2.725 -0.7623 -0.0880 -0.3622
   94MOL0     C12574   1.851   3.137   2.632  0.8259  0.4166 -0.1911
   94MOL0     C12575   1.960   3.224   2.573  0.4632 -0.1457 -0.8881
   94MOL0     C12576   2.074   3.134   2.538 -0.0876  0.3988 -0.8685
   94MOL0     C12577   2.195   3.210   2.485  0.3411  0.3103  0.5089
   94MOL0     C12578   2.307   3.119   2.435  0.0138  0.2651  0.7534
   94MOL0     O12579   2.363   3.049   2.545 -0.7936  0.6463  0.4660
   94MOL0     C12580   2.467   3.106   2.622  0.4894 -0.6055  0.5906
   94MOL0     C12581   2.485   3.057   2.751 -0.6998  0.9634 -0.5392
   94MOL0     C12582   2.594   3.096   2.835  0.3024  0.0494 -0.2547
   94MOL0     C12583   2.684   3.194   2.786  0.1827 -0.7501 -0.6674
   94MOL0     C12584   2.806   3.218   2.867  0.3854  0.1339 -0.6291
   94MOL0     O12585   2.815   3.162   2.992  0.5105  0.1552  0.1495
   94MOL0     C12586   2.932   3.174   3.067  0.0220  0.1839 -0.1686
   94MOL0     C12587   2.909   3.112   3.198  0.0631 -0.1533 -0.2251
   94MOL0     C12588   3.017   3.111   3.291  0.0985  0.0250 -0.1797
   94MOL0     C12589   3.136   3.173   3.260 -0.4459  0.2377 -0.6750
   94MOL0     O12590   3.234   3.160   3.358 -0.3068 -0.0061 -0.8291
   94MOL0     C12591   3.324   3.270   3.382  0.3932  0.0774 -0.1604
   94MOL0     C12592   3.446   3.222   3.450  0.2523  0.1822  0.3716
   94MOL0     C12593   3.543   3.336   3.478 -0.4189  0.2433  0.3155
   94MOL0     C12594   3.672   3.277   3.557  0.5368  0.0514 -0.0648
   94MOL0     C12595   3.763   3.389   3.591 -0.7433 -0.0865 -0.2476
   94MOL0     C12596   3.830   3.465   3.483  0.3942 -0.2754 -0.5245
   94MOL0     C12597   3.931   3.573   3.515 -0.0117  0.5648  0.7303
   94MOL0     C12598   3.857   3.707   3.512  0.4691  0.0593 -0.0753
   94MOL0    Cl12599   3.969   3.834   3.547 -0.0703 -0.2953 -0.1139
   94MOL0     C12600   3.151   3.241   3.139  0.1892 -0.6582  0.1257
   94MOL0     C12601   3.055   3.234   3.043  0.1017 -0.0886  0.7503
   94MOL0     O12602   2.889   3.294   2.817  0.3379 -0.3266 -0.1355
   94MOL0     C12603   2.664   3.256   2.666  0.0169  0.1390  0.0400
   94MOL0     C12604   2.555   3.215   2.587 -0.2079  0.3480  0.2481
   94MOL0     N12605   1.825   3.000   2.602 -0.4736 -0.4820 -0.0995
   94MOL0     N12606   1.735   2.953   2.685 -0.2243  0.1182  1.2383
   94MOL0     C12607   0.649   3.693   2.599  0.0989 -0.2139  0.0798
   94MOL0     C12608   0.518   3.688   2.570  0.6528  0.0127 -0.9559
   94MOL0     C12609   0.095   3.568   2.443 -0.1852 -0.1743 -0.4243
   94MOL0     C12610   0.060   3.698   2.490  0.2179 -0.3877  0.3171
   94MOL0     C12611  -0.072   3.733   2.492 -0.3995  0.0897 -1.0447
   94MOL0     C12612  -0.177   3.647   2.458 -0.4856  0.4187  0.9077
   94MOL0     O12613  -0.305   3.680   2.460  0.0690 -0.3126 -0.0809
   94MOL0     C12614  -0.350   3.815   2.494 -0.2013  0.2356  0.4329
   94MOL0     C12615  -0.357   3.905   2.365 -0.2362 -0.4457 -0.8573
   94MOL0     C12616  -0.436   3.847   2.240  0.7908 -0.9784 -0.9642
   94MOL0     C12617  -0.462   3.961   2.140 -0.2690 -0.2745 -0.7247
   94MOL0     C12618  -0.600   4.016   2.147  0.2114 -0.2636  0.6365
   94MOL0     C12619  -0.714   4.055   2.146 -1.1400  0.2025  0.1259
   94MOL0     C12620  -0.143   3.521   2.415 -0.8713  0.8769  0.0433
   94MOL0     C12621  -0.012   3.481   2.411 -0.5522  0.2048  0.4483
   94MOL0     C12622   0.013   3.335   2.358  1.0811 -0.2772 -0.1238
   94MOL0     H12623   0.503   3.508   2.288  0.3251 -1.5224  1.6088
   94MOL0     H12624   0.761   3.522   2.331 -0.6721  0.9969 -0.9032
   94MOL0     H12625   0.881   3.515   2.694  2.5477 -2.8878  0.9369
   94MOL0     H12626   0.895   3.425   2.545  2.3358 -0.6372  0.4568
   94MOL0     H12627   1.090   3.583   2.692  0.7687 -0.0004  0.9171
   94MOL0     H12628   1.126   3.568   2.514  3.1387  0.9880  2.7212
   94MOL0     H12629   1.107   3.323   2.548 -2.2456 -0.6338  1.4801
   94MOL0     H12630   1.052   3.335   2.703  1.0946 -4.0903 -1.9691
   94MOL0     H12631   1.336   3.415   2.603 -2.2154  0.0187 -1.0165
   94MOL0     H12632   1.280   3.453   2.771 -3.1048 -0.4748  1.8909
   94MOL0     H12633   1.242   3.227   2.819 -0.3886  2.0339  0.2525
   94MOL0     H12634   1.253   3.179   2.653 -3.8174  0.4260  1.6118
   94MOL0     H12635   1.500   3.201   2.645  1.0967 -2.3321  0.7198
   94MOL0     H12636   1.493   3.290   2.802 -0.0980 -0.7830  1.2577
   94MOL0     H12637   1.435   2.992   2.747  1.0298  0.0125 -0.4956
   94MOL0     H12638   1.391   3.085   2.897  0.1582  4.4427  0.1695
   94MOL0     H12639   1.627   3.121   2.942  0.3417 -2.7935  3.0378
   94MOL0     H12640   1.601   2.948   2.910 -0.9880  0.9302  1.0441
   94MOL0     H12641   1.757   3.271   2.767 -1.4817 -0.6850  1.0386
   94MOL0     H12642   1.931   3.289   2.490 -0.1865  0.1518 -0.4341
   94MOL0     H12643   1.990   3.285   2.659 -1.7454 -0.0805 -0.0888
   94MOL0     H12644   2.106   3.082   2.629 -3.5474 -0.9949 -0.2731
   94MOL0     H12645   2.046   3.059   2.463  0.9602  1.2288 -2.1399
   94MOL0     H12646   2.231   3.282   2.559 -1.0953  2.2031 -0.5323
   94MOL0     H12647   2.150   3.262   2.399  1.2068  0.2634  0.0083
   94MOL0     H12648   2.384   3.179   2.387  2.1897 -3.0693 -0.2298
   94MOL0     H12649   2.261   3.050   2.364  0.7945  0.2884  0.2181
   94MOL0     H12650   2.427   2.974   2.790  0.8437  0.0210 -0.1720
   94MOL0     H12651   2.609   3.043   2.928 -0.1356  0.3957  0.0238
   94MOL0     H12652   2.819   3.060   3.226 -1.4049  1.2457 -2.0846
   94MOL0     H12653   2.996   3.068   3.388  2.1695 -4.1106 -1.3352
   94MOL0     H12654   3.346   3.328   3.291 -1.9826  2.7965  0.8386
   94MOL0     H12655   3.270   3.339   3.448 -1.5172 -0.8305 -0.7024
   94MOL0     H12656   3.426   3.175   3.547 -3.4591 -1.3509 -0.9783
   94MOL0     H12657   3.495   3.153   3.380 -0.4667 -0.2518  0.2921
   94MOL0     H12658   3.568   3.384   3.382  0.8732 -0.4378  0.2909
   94MOL0     H12659   3.491   3.412   3.536 -4.8403 -0.2628 -2.4266
   94MOL0     H12660   3.728   3.214   3.487 -0.5581 -0.5629 -0.4114
   94MOL0     H12661   3.646   3.225   3.649  0.4650 -1.3570 -0.8603
   94MOL0     H12662   3.840   3.333   3.645 -0.7186 -1.4807 -1.6630
   94MOL0     H12663   3.715   3.452   3.667  0.8381  1.4241 -0.4288
   94MOL0     H12664   3.883   3.389   3.425  1.8224 -1.8086  2.5497
   94MOL0     H12665   3.755   3.514   3.420 -0.4179 -0.2871  0.4049
   94MOL0     H12666   4.016   3.561   3.448 -0.5877  0.9998 -0.0905
   94MOL0     H12667   3.969   3.563   3.617  2.1512 -0.8683 -0.1404
   94MOL0     H12668   3.810   3.720   3.414  1.2272 -1.4417 -0.6726
   94MOL0     H12669   3.783   3.718   3.591 -0.0581  1.6346 -0.7532
   94MOL0     H12670   3.249   3.277   3.109 -0.5523  0.1917 -1.3748
   94MOL0     H12671   3.075   3.286   2.950 -2.5040  0.1265  0.2568
   94MOL0     H12672   2.735   3.327   2.625  1.9188 -1.2921  0.7035
   94MOL0     H12673   2.535   3.269   2.495 -1.9680 -2.3805 -1.1186
   94MOL0     H12674   0.686   3.743   2.688 -0.6740 -0.5637  0.6077
   94MOL0     H12675   0.448   3.739   2.636  1.7352  1.2822 -0.7568
   94MOL0     H12676   0.129   3.781   2.505  0.7080 -0.5605 -0.8156
   94MOL0     H12677  -0.083   3.832   2.536  0.8439  0.1892 -0.8990
   94MOL0     H12678  -0.287   3.865   2.568  0.7316  1.2282 -0.9747
   94MOL0     H12679  -0.454   3.804   2.525 -0.5369 -1.1801 -1.0476
   94MOL0     H12680  -0.253   3.910   2.331 -0.1476  0.0610 -0.5232
   94MOL0     H12681  -0.392   4.005   2.390 -0.4905 -1.0195  1.3544
   94MOL0     H12682  -0.524   3.808   2.291  1.5389  0.5857  1.7179
   94MOL0     H12683  -0.390   3.764   2.186 -0.5150 -1.9085 -0.6996
   94MOL0     H12684  -0.399   4.050   2.149 -1.0245  0.1772  0.4161
   94MOL0     H12685  -0.448   3.917   2.041 -0.9760  0.8083 -1.3306
   94MOL0     H12686  -0.809   4.100   2.170 -0.8287  1.1513 -0.3651
   94MOL0     H12687  -0.211   3.442   2.384  0.3699 -0.0200 -0.4713
   94MOL0     H12688  -0.081   3.279   2.347  0.8329  0.2939 -1.0552
   94MOL0     H12689   0.043   3.342   2.253 -1.1205 -0.3314 -0.8056
   94MOL0     H12690   0.086   3.272   2.411 -0.6846 -0.7977  1.8169
   95MOL0     O12691   2.104   9.901   9.539  0.1108  0.0574  0.3111
   95MOL0     C12692   2.058   9.935   9.432  0.2314  0.0107 -0.5147
   95MOL0     O12693   2.128   9.951   9.321 -0.7159  0.3687  0.4301
   95MOL0     C12694   2.261   9.933   9.323 -1.2183 -0.5262 -0.7416
   95MOL0     C12695   2.345  10.021   9.390 -0.3620  0.0499 -0.2928
   95MOL0     C12696   2.483  10.006   9.398 -0.6456  0.3866 -0.6708
   95MOL0     C12697   2.543   9.893   9.338 -0.0947  0.1089 -0.3831
   95MOL0     O12698   2.678   9.871   9.346  0.5761 -0.1552 -0.2090
   95MOL0     C12699   2.721   9.736   9.336 -0.9187 -0.0710  0.7415
   95MOL0     C12700   2.870   9.756   9.362  0.5030  0.3832 -0.0240
   95MOL0     C12701   2.951   9.631   9.374 -0.3683  0.1221  0.0537
   95MOL0     C12702   2.955   9.560   9.244  0.5262  0.1792 -0.6533
   95MOL0     C12703   2.973   9.413   9.255 -0.0843  0.2070 -0.3471
   95MOL0     C12704   2.962   9.349   9.115  0.1010  0.3130  1.3018
   95MOL0     C12705   3.076   9.256   9.086 -0.6002 -0.0062  0.2088
   95MOL0     C12706   3.208   9.332   9.055 -0.1037  1.1301 -0.6712
   95MOL0     N12707   3.305   9.230   9.010  0.3855 -0.5302  0.2390
   95MOL0     C12708   3.412   9.185   9.079 -0.5848  0.5580  0.0681
   95MOL0     C12709   3.473   9.095   8.994 -0.8232  0.0267 -0.7125
   95MOL0     C12710   3.598   9.016   9.034  0.0473  0.2550 -0.0402
   95MOL0     C12711   3.736   9.077   9.042  0.2257 -0.2628  0.5674
   95MOL0     C12712   3.763   9.130   8.891  0.5844 -0.0995 -0.0704
   95MOL0     C12713   3.905   9.182   8.878 -0.1121 -0.7282 -0.5045
   95MOL0     O12714   3.945   9.273   8.990  0.4007 -0.0635 -0.3006
   95MOL0     C12715   4.078   9.306   9.008  0.5276 -0.8701  0.3358
   95MOL0     C12716   4.171   9.262   8.909 -0.4144 -0.5481 -0.3176
   95MOL0     C12717   4.302   9.309   8.932  0.9161  1.0468 -0.2448
   95MOL0     C12718   4.343   9.363   9.056  0.5784  0.3090  0.7164
   95MOL0     C12719   4.483   9.369   9.094 -1.1607 -0.0524 -0.1805
   95MOL0     O12720   4.520   9.464   9.185 -0.4736 -0.4511 -0.5611
   95MOL0     C12721   4.660   9.466   9.211  0.4224  0.5232 -0.8811
   95MOL0     C12722   4.723   9.592   9.186 -0.0321 -0.6135 -0.0844
   95MOL0     C12723   4.854   9.620   9.215  0.5480  0.4434  0.2965
   95MOL0     C12724   4.928   9.515   9.280 -0.4473 -0.1540 -0.1129
   95MOL0     O12725   5.064   9.532   9.300  0.6062 -0.2872  0.6449
   95MOL0     C12726   5.135   9.427   9.369 -0.3017 -0.0852 -0.2444
   95MOL0     C12727   5.281   9.469   9.385 -0.3359 -0.3090 -0.4433
   95MOL0     C12728   5.368   9.350   9.439 -0.2067  0.4661 -0.7193
   95MOL0     C12729   5.512   9.386   9.471 -0.2455 -1.1033  0.0842
   95MOL0     C12730   5.605   9.272   9.492  0.6533 -0.6779 -0.2068
   95MOL0     C12731   5.751   9.308   9.511 -0.1306 -0.4308  0.6806
   95MOL0     C12732   5.834   9.183   9.554  0.2522 -0.4040 -0.2763
   95MOL0     C12733   5.991   9.216   9.560  0.0558 -0.7803  0.2693
   95MOL0    Cl12734   6.023   9.323   9.705  0.1376 -0.3493  0.0520
   95MOL0     C12735   4.867   9.394   9.304 -0.1541 -0.1774  0.4860
   95MOL0     C12736   4.734   9.368   9.276  0.4534 -0.2946 -0.2805
   95MOL0     O12737   4.557   9.285   9.051 -0.3656  0.2491 -0.0090
   95MOL0     C12738   4.251   9.408   9.149  0.1346  0.5416 -0.5183
   95MOL0     C12739   4.110   9.377   9.126 -0.0774  0.2449  0.0908
   95MOL0     N12740   3.397   9.072   8.889 -0.0563  0.8236  0.8111
   95MOL0     N12741   3.302   9.161   8.892  0.0969  0.0950 -0.1901
   95MOL0     C12742   2.455   9.802   9.263 -0.1743 -0.4790 -0.0037
   95MOL0     C12743   2.319   9.826   9.265  0.1952 -0.6526  0.6112
   95MOL0     C12744   1.913   9.971   9.416 -0.2901 -0.3933 -0.2576
   95MOL0     C12745   1.874  10.010   9.285  0.4899 -0.4569  0.0426
   95MOL0     C12746   1.742  10.043   9.259 -0.1365 -0.1133  0.0684
   95MOL0     C12747   1.642  10.036   9.357  0.6012  0.2558 -0.5525
   95MOL0     O12748   1.512  10.079   9.325 -0.5133  0.7803  0.5626
   95MOL0     C12749   1.414  10.095   9.430  0.2270  0.0554  0.2311
   95MOL0     C12750   1.280  10.168   9.387 -0.2580  0.7802 -0.1010
   95MOL0     C12751   1.295  10.324   9.377  0.3311 -1.2087  0.2125
   95MOL0     C12752   1.166  10.412   9.353 -0.4955 -0.1196  0.3868
   95MOL0     C12753   1.072  10.379   9.464  0.5981  0.8533 -0.4173
   95MOL0     C12754   1.000  10.345   9.560 -0.6448  0.2162  1.2737
   95MOL0     C12755   1.679   9.993   9.487  0.3093  0.1073 -0.6495
   95MOL0     C12756   1.810   9.955   9.510 -0.2637 -0.0466 -0.2646
   95MOL0     C12757   1.833   9.894   9.639  0.0264 -0.5053 -0.6348
   95MOL0     H12758   2.294  10.099   9.445 -0.1014 -1.1518  1.7768
   95MOL0     H12759   2.545  10.076   9.452 -1.9589 -0.8239  2.6309
   95MOL0     H12760   2.678   9.659   9.402  0.9543 -2.5301 -0.7121
   95MOL0     H12761   2.713   9.712   9.230  0.7704 -0.1313  0.6039
   95MOL0     H12762   2.876   9.791   9.465  2.3625  0.9980 -0.2964
   95MOL0     H12763   2.918   9.832   9.299 -0.7283  0.0269 -1.4477
   95MOL0     H12764   2.908   9.561   9.447 -1.0546  1.9215  1.4423
   95MOL0     H12765   3.050   9.651   9.416 -1.7849  2.9765  2.4496
   95MOL0     H12766   2.857   9.554   9.196 -0.3809 -1.2269  1.2328
   95MOL0     H12767   3.035   9.599   9.181  1.4741 -0.8380 -0.1044
   95MOL0     H12768   3.071   9.393   9.299 -1.5509  1.3728  3.8626
   95MOL0     H12769   2.901   9.377   9.329  0.8096 -0.7624  0.0734
   95MOL0     H12770   2.867   9.298   9.095  1.1246 -0.7314 -1.4428
   95MOL0     H12771   2.958   9.429   9.041 -0.2498 -2.0284 -1.3601
   95MOL0     H12772   3.044   9.187   9.008 -0.5272  0.2090 -0.0125
   95MOL0     H12773   3.098   9.194   9.174  2.9445 -2.4384 -2.1120
   95MOL0     H12774   3.191   9.417   8.988  0.6283  2.2596  0.5334
   95MOL0     H12775   3.235   9.367   9.155 -1.2703  1.4095 -0.4451
   95MOL0     H12776   3.442   9.212   9.180  1.2114  0.8029 -0.4970
   95MOL0     H12777   3.568   8.976   9.131 -1.3786 -0.4974 -0.7627
   95MOL0     H12778   3.609   8.939   8.957  0.3522  1.6414 -1.4471
   95MOL0     H12779   3.733   9.156   9.118  0.8525 -1.8968  2.3661
   95MOL0     H12780   3.816   9.013   9.081 -0.2430  0.0352  2.0896
   95MOL0     H12781   3.694   9.213   8.875  1.6774  0.6724 -0.9597
   95MOL0     H12782   3.748   9.052   8.815 -1.2690  0.1101  0.0397
   95MOL0     H12783   3.915   9.239   8.785 -2.2466  1.6970  0.6288
   95MOL0     H12784   3.976   9.099   8.881  2.6091  1.3418 -2.4821
   95MOL0     H12785   4.150   9.211   8.816 -0.2551  1.3847 -1.4695
   95MOL0     H12786   4.377   9.281   8.859  1.4981 -1.5510  1.2179
   95MOL0     H12787   4.665   9.668   9.134 -2.0297 -0.1333  2.6013
   95MOL0     H12788   4.897   9.718   9.202  1.1355  0.2291  0.6074
   95MOL0     H12789   5.095   9.406   9.469 -0.1548  0.4524 -0.0714
   95MOL0     H12790   5.125   9.334   9.312 -0.3388 -0.4732  0.3842
   95MOL0     H12791   5.319   9.508   9.289 -2.2467 -1.4185 -1.7096
   95MOL0     H12792   5.294   9.552   9.455  0.6401  0.0381 -1.0040
   95MOL0     H12793   5.320   9.306   9.527  1.1381 -0.0292 -0.2012
   95MOL0     H12794   5.366   9.263   9.373 -3.2051 -1.4825  1.6667
   95MOL0     H12795   5.518   9.454   9.557  1.1701  2.1838 -2.3810
   95MOL0     H12796   5.559   9.446   9.393  0.3942  0.8817  1.8905
   95MOL0     H12797   5.601   9.206   9.405 -2.6399 -2.1785  0.9211
   95MOL0     H12798   5.565   9.218   9.579 -1.4787 -2.1121 -1.9649
   95MOL0     H12799   5.790   9.360   9.423 -1.2732 -0.3233  0.2242
   95MOL0     H12800   5.765   9.387   9.586  1.0293  1.6932 -1.6186
   95MOL0     H12801   5.803   9.098   9.491 -0.4993 -1.0145  0.8887
   95MOL0     H12802   5.797   9.163   9.655 -0.8351  1.6745 -0.2246
   95MOL0     H12803   6.051   9.125   9.574 -0.2253 -0.8695  0.9290
   95MOL0     H12804   6.020   9.272   9.471  1.6793 -1.6179  0.2348
   95MOL0     H12805   4.921   9.311   9.350 -0.2305  0.2129  1.3047
   95MOL0     H12806   4.686   9.271   9.284  1.3011 -0.7091 -0.0007
   95MOL0     H12807   4.279   9.451   9.245 -1.3249  1.3177 -0.4008
   95MOL0     H12808   4.021   9.404   9.181 -0.6929  3.0309 -2.0672
   95MOL0     H12809   2.493   9.709   9.222  0.0488 -0.7090  0.7008
   95MOL0     H12810   2.241   9.762   9.225 -1.6989  0.7141  1.9408
   95MOL0     H12811   1.942  10.033   9.204  2.8104  1.7200  2.4064
   95MOL0     H12812   1.718  10.075   9.158 -0.1145 -3.6588 -1.2106
   95MOL0     H12813   1.457  10.146   9.516  3.0776 -1.2240 -0.3204
   95MOL0     H12814   1.387   9.997   9.470 -1.0376  0.0272 -0.6345
   95MOL0     H12815   1.213  10.137   9.468  3.2367 -3.8163  1.4524
   95MOL0     H12816   1.254  10.110   9.299  1.6860 -1.3053  0.6096
   95MOL0     H12817   1.374  10.349   9.306  0.5466 -1.8109  0.2314
   95MOL0     H12818   1.334  10.347   9.477  0.4263  1.6588 -0.4232
   95MOL0     H12819   1.185  10.520   9.351 -1.1004 -0.0121 -1.5407
   95MOL0     H12820   1.116  10.395   9.257  2.7570  1.0212 -1.6573
   95MOL0     H12821   0.963  10.318   9.656 -0.3015 -1.3155  1.0011
   95MOL0     H12822   1.609   9.995   9.570 -0.4410  2.0831 -1.2568
   95MOL0     H12823   1.888   9.800   9.626  0.3148 -0.6336  1.2130
   95MOL0     H12824   1.891   9.965   9.698 -0.2450 -1.1285  0.4071
   95MOL0     H12825   1.736   9.871   9.683  0.2417 -0.4833 -0.1319
   96MOL0     O12826   3.332   3.273   0.498 -0.3423  0.4633 -0.3476
   96MOL0     C12827   3.253   3.330   0.579 -0.3514 -0.4701  0.8997
   96MOL0     O12828   3.275   3.327   0.717  0.5865  0.8852  0.6085
   96MOL0     C12829   3.396   3.320   0.777  0.6111  0.7928  0.4887
   96MOL0     C12830   3.422   3.242   0.889  0.1499  0.3336  0.1488
   96MOL0     C12831   3.547   3.227   0.949 -1.0584 -0.1186 -0.3160
   96MOL0     C12832   3.657   3.295   0.904  0.1268  0.3844  0.1681
   96MOL0     O12833   3.777   3.273   0.969  0.3041 -0.5854 -0.1480
   96MOL0     C12834   3.870   3.187   0.904  0.3375 -0.3916 -0.5233
   96MOL0     C12835   3.999   3.183   0.988  0.0811  0.3178 -0.3568
   96MOL0     C12836   3.952   3.136   1.129 -0.1345 -0.2503  0.8744
   96MOL0     C12837   4.079   3.091   1.203  0.9997 -0.2026  0.3220
   96MOL0     C12838   4.054   3.038   1.338  0.1183 -0.7484  0.1983
   96MOL0     C12839   4.172   2.970   1.405 -0.0934  0.5518 -1.5558
   96MOL0     C12840   4.295   3.051   1.446  0.0985  0.2412  0.0700
   96MOL0     C12841   4.256   3.151   1.550 -0.2118  0.4976 -1.0469
   96MOL0     N12842   4.366   3.248   1.581 -0.1372  0.7516 -0.3286
   96MOL0     C12843   4.475   3.212   1.652  0.0568 -0.2833  0.1233
   96MOL0     C12844   4.551   3.321   1.663 -0.9290 -0.2516 -0.3004
   96MOL0     C12845   4.675   3.320   1.742  0.0972  0.7545  0.1600
   96MOL0     C12846   4.653   3.414   1.860 -0.8947 -0.0213 -0.1069
   96MOL0     C12847   4.731   3.380   1.990  0.5674  0.6085  0.4604
   96MOL0     C12848   4.883   3.394   1.966  0.0157  0.3168  0.0032
   96MOL0     O12849   4.905   3.533   1.955 -0.3972 -0.0500 -0.2441
   96MOL0     C12850   5.027   3.588   1.952 -0.1771 -0.3234  0.7541
   96MOL0     C12851   5.161   3.526   1.963  0.2513  0.7467 -0.3500
   96MOL0     C12852   5.274   3.601   1.975  0.5590  0.1390 -0.5088
   96MOL0     C12853   5.273   3.743   1.959  0.3289  0.2416  0.7129
   96MOL0     C12854   5.397   3.825   1.965 -0.2496 -0.5907  0.0469
   96MOL0     O12855   5.387   3.958   1.917 -0.0159 -0.2145 -0.2722
   96MOL0     C12856   5.509   4.018   1.942 -0.1157 -0.3486 -0.2531
   96MOL0     C12857   5.518   4.075   2.060  0.4622  0.4446  0.0278
   96MOL0     C12858   5.635   4.132   2.106 -0.2301  0.5404  0.4686
   96MOL0     C12859   5.750   4.137   2.023  0.6133 -0.2486 -0.0941
   96MOL0     O12860   5.861   4.202   2.068 -0.4788  0.0144 -0.2099
   96MOL0     C12861   5.926   4.283   1.971 -0.2275  0.0431 -0.0701
   96MOL0     C12862   6.052   4.351   2.031  0.0137  0.5596 -0.6272
   96MOL0     C12863   6.131   4.448   1.948 -0.2030 -0.2320  0.3312
   96MOL0     C12864   6.258   4.483   2.020 -0.6668  0.0492 -0.1141
   96MOL0     C12865   6.331   4.618   1.980  0.2017 -0.6127  0.2801
   96MOL0     C12866   6.440   4.666   2.082 -0.6627  0.1980 -0.2793
   96MOL0     C12867   6.501   4.805   2.045  0.9274  0.1464  0.2806
   96MOL0     C12868   6.607   4.852   2.148  0.2151 -0.4650  0.4918
   96MOL0    Cl12869   6.741   4.729   2.128  0.5055  0.2902  0.0679
   96MOL0     C12870   5.736   4.080   1.891 -0.6179 -0.0604 -0.2192
   96MOL0     C12871   5.621   4.018   1.854  0.0626  0.1315  0.0898
   96MOL0     O12872   5.494   3.783   2.019 -0.4877 -1.3099 -1.2174
   96MOL0     C12873   5.148   3.797   1.930 -0.5986  0.0325  0.1502
   96MOL0     C12874   5.028   3.723   1.928 -0.0111  0.2050  0.8282
   96MOL0     N12875   4.499   3.418   1.588  0.0914 -0.2769  0.1569
   96MOL0     N12876   4.378   3.378   1.540 -0.2600 -0.5295  0.3197
   96MOL0     C12877   3.643   3.366   0.786 -0.0698 -0.4195 -0.9426
   96MOL0     C12878   3.513   3.379   0.726 -1.1300 -0.5915  0.0076
   96MOL0     C12879   3.122   3.382   0.531  1.2772  0.1870 -0.8312
   96MOL0     C12880   3.022   3.425   0.615  0.1170 -0.0813 -0.0470
   96MOL0     C12881   2.896   3.470   0.571  1.1171 -0.5587  0.2174
   96MOL0     C12882   2.860   3.469   0.432 -0.8243 -0.8608  0.5079
   96MOL0     O12883   2.758   3.531   0.372 -0.0896  0.0285 -0.7520
   96MOL0     C12884   2.678   3.618   0.453  0.0596 -0.2837  0.4117
   96MOL0     C12885   2.579   3.665   0.349 -0.9107 -0.6070 -0.7251
   96MOL0     C12886   2.465   3.740   0.417  0.2040 -0.2860 -0.2632
   96MOL0     C12887   2.353   3.751   0.312  0.3573 -0.5484  0.5261
   96MOL0     C12888   2.232   3.809   0.375  0.2101 -0.3712  0.1002
   96MOL0     C12889   2.117   3.830   0.407  0.0708  0.3899 -0.6011
   96MOL0     C12890   2.949   3.414   0.349 -0.2660  0.0601  0.4949
   96MOL0     C12891   3.078   3.380   0.394  0.0008  0.3067  0.0987
   96MOL0     C12892   3.172   3.347   0.279  0.0376 -0.0401 -0.0317
   96MOL0     H12893   3.343   3.183   0.933 -0.2866  0.8505  0.0668
   96MOL0     H12894   3.541   3.162   1.036 -1.1866  1.6032  1.0147
   96MOL0     H12895   3.821   3.089   0.900 -1.9922  0.4622  2.8779
   96MOL0     H12896   3.886   3.228   0.804 -3.0810  0.8073 -0.7235
   96MOL0     H12897   4.054   3.278   0.984  3.9144 -1.6971 -0.4740
   96MOL0     H12898   4.066   3.111   0.940  1.0754  2.0413 -1.7123
   96MOL0     H12899   3.875   3.060   1.117 -0.7987  0.4621  0.4959
   96MOL0     H12900   3.917   3.229   1.174  1.5729  1.3177 -0.8471
   96MOL0     H12901   4.132   3.013   1.147  3.1424  0.0973  1.7831
   96MOL0     H12902   4.145   3.178   1.215 -0.2931  0.5914  2.2718
   96MOL0     H12903   3.992   3.095   1.408 -1.3239 -2.1573  0.1157
   96MOL0     H12904   3.988   2.952   1.324  0.0122 -0.6262 -0.0706
   96MOL0     H12905   4.128   2.918   1.491  1.2818 -0.7549 -1.6099
   96MOL0     H12906   4.216   2.893   1.341  0.2732 -0.2249 -0.3944
   96MOL0     H12907   4.331   3.102   1.357 -1.1888 -1.0537 -1.2486
   96MOL0     H12908   4.368   2.980   1.485 -3.7725 -2.1185  4.1103
   96MOL0     H12909   4.169   3.210   1.520 -0.6216  0.8107  0.6951
   96MOL0     H12910   4.230   3.107   1.647 -0.5493 -1.7252 -2.0712
   96MOL0     H12911   4.508   3.119   1.697  0.8328  0.6184  1.4926
   96MOL0     H12912   4.695   3.219   1.779 -0.9463  0.8677  1.1024
   96MOL0     H12913   4.761   3.361   1.688 -0.0093 -1.2591 -1.6675
   96MOL0     H12914   4.673   3.519   1.835  1.9616 -0.2944  0.7386
   96MOL0     H12915   4.553   3.422   1.904 -0.0831  5.5269  1.4781
   96MOL0     H12916   4.710   3.279   2.026 -4.6526  0.9590 -0.8511
   96MOL0     H12917   4.695   3.451   2.065  0.6894  1.9731 -0.7337
   96MOL0     H12918   4.924   3.325   1.891  1.7955 -0.7497  1.8707
   96MOL0     H12919   4.943   3.362   2.052 -1.1274  2.7701  1.8311
   96MOL0     H12920   5.179   3.420   1.972  1.2320  1.0348  1.5203
   96MOL0     H12921   5.367   3.549   1.998  0.2359 -0.0374  0.4520
   96MOL0     H12922   5.432   4.075   2.126  1.7654  0.2163  1.8208
   96MOL0     H12923   5.624   4.175   2.205  0.6455 -0.1199  0.8620
   96MOL0     H12924   5.956   4.226   1.883  2.8633  0.2387  0.7434
   96MOL0     H12925   5.854   4.360   1.940 -3.7005 -2.3194  1.5319
   96MOL0     H12926   6.023   4.400   2.125 -0.0681 -1.8754  0.6923
   96MOL0     H12927   6.109   4.267   2.071 -1.8900  0.4389  2.2160
   96MOL0     H12928   6.156   4.403   1.851 -2.4215  0.7086 -0.7413
   96MOL0     H12929   6.075   4.541   1.941 -0.4920 -0.0644  3.4112
   96MOL0     H12930   6.329   4.400   2.009 -0.9056 -0.7398  3.1821
   96MOL0     H12931   6.245   4.499   2.128  2.3331  1.5677  0.1531
   96MOL0     H12932   6.261   4.701   1.966  0.5400 -0.0994  1.4951
   96MOL0     H12933   6.369   4.617   1.877 -0.7477  0.5645 -0.1034
   96MOL0     H12934   6.393   4.679   2.180 -0.6122  0.6294 -0.3133
   96MOL0     H12935   6.512   4.584   2.083 -0.4150  0.3776 -1.5652
   96MOL0     H12936   6.416   4.874   2.041 -0.2927 -1.3527 -0.8785
   96MOL0     H12937   6.548   4.806   1.947  0.9121 -2.4697  0.1748
   96MOL0     H12938   6.641   4.956   2.141 -1.1668 -0.0203 -0.0315
   96MOL0     H12939   6.561   4.851   2.247 -2.6119  1.7794 -0.6466
   96MOL0     H12940   5.812   4.075   1.814  0.5933 -0.1073  0.9457
   96MOL0     H12941   5.602   3.973   1.757 -1.3284  0.1455  0.3349
   96MOL0     H12942   5.137   3.904   1.912 -2.9271  0.5062  3.4975
   96MOL0     H12943   4.932   3.764   1.899  0.5138  1.4661  0.7893
   96MOL0     H12944   3.739   3.403   0.750 -0.5155  1.7136 -0.1407
   96MOL0     H12945   3.514   3.444   0.640  1.3107  1.9399  1.7404
   96MOL0     H12946   3.045   3.435   0.721 -0.8027  0.8465  0.0846
   96MOL0     H12947   2.832   3.513   0.647 -2.4220 -1.6004 -1.9052
   96MOL0     H12948   2.738   3.702   0.489  1.4047 -0.3063 -1.5719
   96MOL0     H12949   2.629   3.567   0.536 -1.2006 -0.8059 -0.6192
   96MOL0     H12950   2.542   3.573   0.303 -0.4160 -1.4985  0.5917
   96MOL0     H12951   2.638   3.722   0.278  1.7176 -0.6610  1.2772
   96MOL0     H12952   2.487   3.842   0.449 -0.8044  0.7950 -2.7659
   96MOL0     H12953   2.432   3.682   0.504  1.3715 -0.8065 -0.1580
   96MOL0     H12954   2.384   3.821   0.234  1.2367  0.8821  2.0956
   96MOL0     H12955   2.329   3.654   0.268 -0.8198 -0.2875  0.5579
   96MOL0     H12956   2.014   3.838   0.432 -0.1836 -1.5058 -0.8801
   96MOL0     H12957   2.914   3.394   0.248 -2.5418 -2.2975  1.6205
   96MOL0     H12958   3.127   3.374   0.183  0.9645 -0.6361 -0.6541
   96MOL0     H12959   3.269   3.396   0.296 -0.4485  0.4988  1.3416
   96MOL0     H12960   3.187   3.239   0.272  0.2826 -0.0742  0.8546
   97MOL0     O12961  10.068   7.540   6.419 -0.3356 -0.3622  0.2038
   97MOL0     C12962  10.099   7.437   6.362 -0.4100  0.2760 -0.0549
   97MOL0     O12963  10.234   7.399   6.331  1.0553 -0.0182 -0.2044
   97MOL0     C12964  10.334   7.491   6.353  0.7501  0.1932 -0.1886
   97MOL0     C12965  10.349   7.545   6.488 -0.1355  0.2385  0.3561
   97MOL0     C12966  10.444   7.646   6.505 -0.3188  0.1779 -0.4929
   97MOL0     C12967  10.523   7.693   6.392  0.4657 -0.1509  1.0031
   97MOL0     O12968  10.605   7.802   6.409  0.2555  0.4286  0.2025
   97MOL0     C12969  10.719   7.775   6.493  0.1370  0.2758 -0.6530
   97MOL0     C12970  10.749   7.892   6.590 -0.0134  0.4771  0.3608
   97MOL0     C12971  10.884   7.873   6.656  0.2025  0.0957  0.3101
   97MOL0     C12972  10.911   7.970   6.774  0.4224  0.5144 -0.0400
   97MOL0     C12973  11.045   7.930   6.849 -0.8412 -0.1373  0.2004
   97MOL0     C12974  11.159   8.021   6.796  0.7488  1.1809 -0.6225
   97MOL0     C12975  11.289   7.973   6.862  0.2700  0.6503 -0.2736
   97MOL0     C12976  11.413   8.037   6.783  0.0661  0.0917 -0.7116
   97MOL0     N12977  11.538   7.971   6.829  0.0608 -0.3343  0.1419
   97MOL0     C12978  11.565   7.852   6.765 -0.1094  0.5636 -0.3900
   97MOL0     C12979  11.682   7.813   6.815 -0.5812  0.0380 -0.4542
   97MOL0     C12980  11.754   7.697   6.752 -0.2214 -0.1764  0.3451
   97MOL0     C12981  11.896   7.680   6.812  0.3101  0.2332 -0.2853
   97MOL0     C12982  11.965   7.573   6.726 -0.2340 -0.1463  0.1945
   97MOL0     C12983  12.119   7.565   6.757  0.3128 -0.2905  0.0358
   97MOL0     O12984  12.156   7.617   6.892  0.1768  0.3898  0.4684
   97MOL0     C12985  12.282   7.601   6.937 -0.3707  0.4556  0.5928
   97MOL0     C12986  12.390   7.539   6.864  0.2678 -0.4560 -0.3182
   97MOL0     C12987  12.515   7.527   6.924 -0.0269 -0.4053  0.3341
   97MOL0     C12988  12.541   7.580   7.055  0.6702  0.7421 -0.1568
   97MOL0     C12989  12.672   7.573   7.110 -0.3441 -0.9080 -0.2555
   97MOL0     O12990  12.694   7.560   7.247 -0.1023 -0.6736 -0.6277
   97MOL0     C12991  12.826   7.582   7.281 -0.4905 -1.2539 -0.0237
   97MOL0     C12992  12.919   7.481   7.297  0.4118 -0.4244  0.3287
   97MOL0     C12993  13.053   7.509   7.320  0.0537 -0.1313 -0.4167
   97MOL0     C12994  13.094   7.644   7.325 -0.0200  0.3835  0.1305
   97MOL0     O12995  13.224   7.670   7.345 -0.4142  0.1231 -0.3684
   97MOL0     C12996  13.281   7.788   7.295  0.0889  0.1317  0.0825
   97MOL0     C12997  13.438   7.763   7.304 -0.6483 -0.4515  0.4099
   97MOL0     C12998  13.519   7.880   7.234  1.1661 -0.0372  0.1558
   97MOL0     C12999  13.669   7.871   7.266  0.5325  0.7910  0.1442
   97MOL0     C13000  13.737   7.760   7.194  0.9334 -0.0151  0.1455
   97MOL0     C13001  13.892   7.774   7.209 -0.0042 -0.7022 -0.5008
   97MOL0     C13002  13.952   7.915   7.176  0.6846 -0.7254 -0.4311
   97MOL0     C13003  14.107   7.916   7.161 -0.0647  0.6947  0.5495
   97MOL0    Cl13004  14.172   7.871   7.312  0.2332 -0.0796 -0.3251
   97MOL0     C13005  13.001   7.747   7.324 -0.5409 -0.3096 -0.5044
   97MOL0     C13006  12.869   7.718   7.301 -0.3161  0.0366  0.3017
   97MOL0     O13007  12.757   7.607   7.028 -0.7830  0.6800  0.3064
   97MOL0     C13008  12.431   7.630   7.127 -0.5001  0.0257 -0.0895
   97MOL0     C13009  12.307   7.641   7.067  1.2768 -0.0924  0.3071
   97MOL0     N13010  11.730   7.915   6.898 -0.6124 -0.7064  0.2738
   97MOL0     N13011  11.632   8.000   6.917  0.0372 -0.3890  0.5484
   97MOL0     C13012  10.511   7.628   6.269 -0.2683  0.3911  0.6345
   97MOL0     C13013  10.418   7.528   6.250 -0.6247  0.1529  0.7546
   97MOL0     C13014   9.989   7.355   6.306 -0.3141  0.8319 -0.7824
   97MOL0     C13015  10.033   7.256   6.215  0.0814  0.4035  1.0159
   97MOL0     C13016   9.942   7.170   6.158  0.4652  0.0004 -0.1157
   97MOL0     C13017   9.804   7.187   6.166  0.2131 -0.1830 -0.6232
   97MOL0     O13018   9.725   7.108   6.081  0.4943  0.5348  0.0738
   97MOL0     C13019   9.582   7.105   6.103 -0.1185 -0.3647  0.2523
   97MOL0     C13020   9.523   6.969   6.096  0.3331 -0.2610 -0.0141
   97MOL0     C13021   9.568   6.877   6.204 -0.2276  0.3728 -0.5190
   97MOL0     C13022   9.499   6.746   6.195  0.4646  0.1616  0.5636
   97MOL0     C13023   9.534   6.652   6.302 -0.4613 -0.4509 -0.2336
   97MOL0     C13024   9.529   6.567   6.385 -0.2014  0.7272 -1.5787
   97MOL0     C13025   9.762   7.293   6.244 -0.5492  0.4613  0.1532
   97MOL0     C13026   9.853   7.376   6.317  1.0661 -0.2365  0.4176
   97MOL0     C13027   9.792   7.482   6.403  0.7184 -0.2075  0.3786
   97MOL0     H13028  10.291   7.508   6.572  0.8919  2.1579  1.9945
   97MOL0     H13029  10.435   7.696   6.601 -3.3661 -0.8166 -0.1366
   97MOL0     H13030  10.703   7.684   6.552  1.9514  0.0761 -0.4151
   97MOL0     H13031  10.806   7.761   6.428  0.1590 -0.5102 -0.4657
   97MOL0     H13032  10.662   7.900   6.657 -1.1317  1.3896 -1.1334
   97MOL0     H13033  10.757   7.984   6.532 -2.1247  1.6048  1.6998
   97MOL0     H13034  10.959   7.896   6.580  0.5310 -0.7025  0.3863
   97MOL0     H13035  10.897   7.769   6.687  0.3023 -0.5995 -1.8430
   97MOL0     H13036  10.897   8.074   6.742  1.4881  0.8691  0.5632
   97MOL0     H13037  10.827   7.955   6.842  0.6801 -0.7800  0.0121
   97MOL0     H13038  11.032   7.941   6.957 -1.1696  0.3357  0.1141
   97MOL0     H13039  11.073   7.826   6.832 -1.4727  0.0902 -2.7196
   97MOL0     H13040  11.166   8.004   6.688  1.8199  0.2092 -0.4250
   97MOL0     H13041  11.129   8.125   6.815 -1.3338  0.7107 -1.1709
   97MOL0     H13042  11.304   7.866   6.846 -0.6994  0.5872 -0.8404
   97MOL0     H13043  11.284   7.993   6.969  1.0450  4.1912 -0.7979
   97MOL0     H13044  11.407   8.026   6.674 -1.1330 -1.4952 -0.5255
   97MOL0     H13045  11.431   8.144   6.797  2.2794 -0.1579 -1.2463
   97MOL0     H13046  11.517   7.807   6.679  1.0880 -0.4015 -0.5828
   97MOL0     H13047  11.693   7.607   6.765  0.6813 -1.3968 -2.9573
   97MOL0     H13048  11.762   7.716   6.645 -0.8027  2.0157  0.6306
   97MOL0     H13049  11.951   7.775   6.815 -0.1698  0.5024  0.5441
   97MOL0     H13050  11.887   7.643   6.915 -1.0281  2.1116  0.3401
   97MOL0     H13051  11.956   7.590   6.619 -4.3226  1.9061  0.6888
   97MOL0     H13052  11.917   7.479   6.755  2.7411 -1.4812  1.3143
   97MOL0     H13053  12.163   7.623   6.676  0.3737 -0.5782 -0.1381
   97MOL0     H13054  12.143   7.459   6.744  0.7080 -0.0016 -1.7698
   97MOL0     H13055  12.376   7.509   6.760  2.3152 -2.8332 -0.0195
   97MOL0     H13056  12.602   7.492   6.870 -1.0287 -1.8394 -0.4221
   97MOL0     H13057  12.867   7.386   7.305 -3.4430  1.5579  1.3645
   97MOL0     H13058  13.126   7.432   7.342  2.3713  2.3827  1.4646
   97MOL0     H13059  13.251   7.796   7.191 -0.1175 -0.9584  0.0430
   97MOL0     H13060  13.249   7.875   7.354 -2.4175 -0.0989 -0.8336
   97MOL0     H13061  13.465   7.774   7.409 -0.9407 -0.0019  0.4380
   97MOL0     H13062  13.465   7.664   7.265  0.9024  0.3671 -0.6940
   97MOL0     H13063  13.508   7.862   7.126 -0.4283 -1.4611  0.5039
   97MOL0     H13064  13.486   7.981   7.259  2.2555  0.2288  0.5480
   97MOL0     H13065  13.681   7.849   7.373 -1.3291 -0.4812  0.1289
   97MOL0     H13066  13.709   7.971   7.247 -2.7109  1.3828 -6.2578
   97MOL0     H13067  13.707   7.770   7.089  2.7752 -0.0375 -0.4135
   97MOL0     H13068  13.710   7.666   7.242 -2.2781  0.9923  0.5341
   97MOL0     H13069  13.918   7.753   7.313 -1.1257  1.5672  0.2980
   97MOL0     H13070  13.945   7.697   7.151  0.5365  0.1191 -1.1165
   97MOL0     H13071  13.921   7.974   7.262 -0.9133  0.3858 -1.7241
   97MOL0     H13072  13.913   7.964   7.087  2.0497  1.0613 -0.0940
   97MOL0     H13073  14.153   7.860   7.080  0.7911  0.2284  1.3402
   97MOL0     H13074  14.139   8.014   7.125  0.7280  0.0949 -0.4154
   97MOL0     H13075  13.035   7.849   7.338  3.2688 -1.0460 -2.7644
   97MOL0     H13076  12.796   7.798   7.307 -2.8059 -1.9628 -1.3150
   97MOL0     H13077  12.436   7.666   7.229 -0.1225 -2.1659  0.7143
   97MOL0     H13078  12.226   7.690   7.120 -1.2585 -2.0941 -1.4783
   97MOL0     H13079  10.575   7.666   6.190 -1.0545 -1.3788 -0.9461
   97MOL0     H13080  10.406   7.492   6.148  2.1231  1.2009 -0.0245
   97MOL0     H13081  10.137   7.234   6.192 -0.2428  0.0904 -0.1874
   97MOL0     H13082   9.990   7.095   6.096  1.1318 -1.8125  2.4448
   97MOL0     H13083   9.528   7.166   6.031 -1.5080 -0.5676  1.0826
   97MOL0     H13084   9.560   7.133   6.207  0.5682 -2.7503  1.1203
   97MOL0     H13085   9.560   6.945   5.996  0.1367  0.6495 -0.3119
   97MOL0     H13086   9.414   6.979   6.099  0.4913  2.1208  0.0817
   97MOL0     H13087   9.548   6.926   6.300  2.4185  0.5419  0.0171
   97MOL0     H13088   9.676   6.864   6.196 -0.4148 -0.1654 -3.3251
   97MOL0     H13089   9.391   6.755   6.208  0.4753 -1.2487  1.8375
   97MOL0     H13090   9.517   6.697   6.099  2.0733 -3.4581  2.5166
   97MOL0     H13091   9.529   6.511   6.477 -0.7388  1.3918 -1.1577
   97MOL0     H13092   9.657   7.321   6.242 -0.5785  1.1460  4.1878
   97MOL0     H13093   9.819   7.581   6.364 -1.2410  0.0147 -0.5422
   97MOL0     H13094   9.684   7.483   6.387  0.7830  4.1246 -1.1938
   97MOL0     H13095   9.814   7.467   6.509 -0.9519  0.0637  0.7867
   98MOL0     O13096   7.702   3.245   0.960 -0.1574  0.0862  0.3419
   98MOL0     C13097   7.724   3.365   0.963  0.4146  0.3931 -0.0399
   98MOL0     O13098   7.841   3.427   0.982 -0.1330  0.4980  0.1242
   98MOL0     C13099   7.970   3.370   0.998  0.1074 -0.2603  0.0491
   98MOL0     C13100   7.997   3.236   0.953 -0.2306  0.7996  0.0720
   98MOL0     C13101   8.121   3.176   0.974  1.2193  0.7932  0.3021
   98MOL0     C13102   8.223   3.243   1.044 -1.6474 -0.1950 -0.5974
   98MOL0     O13103   8.343   3.178   1.073  0.4081 -0.2723 -0.1457
   98MOL0     C13104   8.457   3.253   1.092 -0.3474  0.6536 -0.0162
   98MOL0     C13105   8.572   3.155   1.060  0.3264  0.4413  0.4778
   98MOL0     C13106   8.716   3.195   1.082 -0.7683  0.6119  0.5866
   98MOL0     C13107   8.770   3.301   0.983  0.8265 -0.0141 -0.9453
   98MOL0     C13108   8.915   3.338   1.020 -0.3303 -0.2975 -0.2320
   98MOL0     C13109   9.008   3.225   1.014 -0.4039 -0.6399 -0.2460
   98MOL0     C13110   9.150   3.256   0.990 -0.3405 -0.2323 -0.9159
   98MOL0     C13111   9.234   3.132   0.986  0.5579  1.1366  1.4350
   98MOL0     N13112   9.240   3.069   1.124  0.8697  0.5632 -0.5722
   98MOL0     C13113   9.307   3.128   1.231 -0.4854  0.8694  0.2738
   98MOL0     C13114   9.292   3.047   1.333 -1.1010  0.4428  0.2295
   98MOL0     C13115   9.375   3.079   1.455 -0.4581 -0.0412 -0.7501
   98MOL0     C13116   9.525   3.039   1.440 -0.6331 -0.0477  0.6872
   98MOL0     C13117   9.590   3.063   1.569  1.3350  0.3670 -0.4835
   98MOL0     C13118   9.744   3.066   1.565  0.3133  0.1274  0.4451
   98MOL0     O13119   9.805   2.946   1.515  1.0440  0.2624 -0.0725
   98MOL0     C13120   9.936   2.928   1.557 -1.1514 -0.1512  0.1403
   98MOL0     C13121  10.030   3.021   1.608 -0.0578  0.2230 -0.1880
   98MOL0     C13122  10.160   2.981   1.647  0.5074 -0.2540  0.0745
   98MOL0     C13123  10.197   2.847   1.645 -0.0376  0.2154 -0.6620
   98MOL0     C13124  10.327   2.803   1.688  0.3657 -0.1962  0.4562
   98MOL0     O13125  10.404   2.888   1.755  0.3964 -0.2116  0.2858
   98MOL0     C13126  10.526   2.855   1.797  0.6728  0.9257 -0.5402
   98MOL0     C13127  10.554   2.778   1.910  0.2960 -0.3081  0.1367
   98MOL0     C13128  10.686   2.752   1.953  0.3678  0.0089  0.1558
   98MOL0     C13129  10.792   2.784   1.868  0.6944  0.2867  0.2574
   98MOL0     O13130  10.921   2.743   1.876 -0.2609  0.4263  0.8924
   98MOL0     C13131  10.953   2.644   1.978 -0.2391 -0.5851 -0.0333
   98MOL0     C13132  10.987   2.721   2.106  0.5046 -0.1037 -0.0791
   98MOL0     C13133  11.110   2.823   2.095  0.1008  0.0839 -0.8527
   98MOL0     C13134  11.243   2.751   2.077 -1.2433  0.0948  0.2090
   98MOL0     C13135  11.330   2.848   2.005  0.0274 -0.0402 -0.4035
   98MOL0     C13136  11.476   2.793   1.995  0.7278  0.2281 -0.1762
   98MOL0     C13137  11.569   2.901   1.936 -0.0516  0.9631  0.3371
   98MOL0     C13138  11.714   2.874   1.917 -0.6412  0.4068 -0.0681
   98MOL0    Cl13139  11.757   2.737   2.019  0.1147  0.2393 -0.4216
   98MOL0     C13140  10.764   2.861   1.756  0.1925  0.2931  0.8268
   98MOL0     C13141  10.637   2.900   1.723 -0.1038 -0.3049 -0.0638
   98MOL0     O13142  10.343   2.686   1.685  0.0334 -0.8987  0.1022
   98MOL0     C13143  10.105   2.754   1.595 -0.1296 -0.5422 -0.2974
   98MOL0     C13144   9.978   2.796   1.545  0.0747  0.1876  0.2697
   98MOL0     N13145   9.210   2.939   1.292 -0.0639  0.0271  0.5767
   98MOL0     N13146   9.179   2.959   1.168 -0.5551  0.3833 -0.2713
   98MOL0     C13147   8.196   3.376   1.087 -0.4216  1.0184 -0.0903
   98MOL0     C13148   8.070   3.439   1.066 -0.4713 -0.0507  0.3734
   98MOL0     C13149   7.598   3.451   0.936  0.3411 -0.1104  0.0504
   98MOL0     C13150   7.619   3.580   0.875 -0.3194 -0.0712 -0.4833
   98MOL0     C13151   7.503   3.656   0.840  0.2924  0.3375 -0.4819
   98MOL0     C13152   7.369   3.617   0.868 -0.3861 -0.2045  0.3846
   98MOL0     O13153   7.275   3.716   0.848  0.5926  0.2911 -0.5580
   98MOL0     C13154   7.143   3.680   0.810  0.1571  0.0098  0.6515
   98MOL0     C13155   7.143   3.654   0.665 -0.2469  0.0010 -0.3949
   98MOL0     C13156   7.001   3.636   0.609  0.1659 -0.2590 -0.1130
   98MOL0     C13157   6.924   3.767   0.596 -0.0169 -0.0446  0.2390
   98MOL0     C13158   6.782   3.751   0.567  0.5256 -0.4033  0.6642
   98MOL0     C13159   6.662   3.745   0.551 -0.3180  0.1553  0.0539
   98MOL0     C13160   7.352   3.487   0.924  0.1889  0.7191 -0.8725
   98MOL0     C13161   7.461   3.407   0.962  0.2319 -0.1265 -0.5362
   98MOL0     C13162   7.421   3.271   1.020  0.0859 -0.5708 -0.8602
   98MOL0     H13163   7.926   3.177   0.897  0.9904  1.0406 -1.8244
   98MOL0     H13164   8.138   3.077   0.935 -0.4033  0.2973  0.7770
   98MOL0     H13165   8.456   3.333   1.018 -0.1440  1.3026  0.6779
   98MOL0     H13166   8.458   3.296   1.192 -0.3532 -0.4676  0.4898
   98MOL0     H13167   8.572   3.117   0.957  3.2473  0.2699  0.4631
   98MOL0     H13168   8.563   3.073   1.132 -0.5326 -0.0919 -0.2023
   98MOL0     H13169   8.776   3.104   1.071  0.5105  0.8751  4.0633
   98MOL0     H13170   8.726   3.219   1.189  3.9908 -2.8863  1.2568
   98MOL0     H13171   8.769   3.257   0.882 -0.9415  0.6616 -1.2449
   98MOL0     H13172   8.698   3.383   0.983  1.2736  0.3850 -0.2407
   98MOL0     H13173   8.956   3.418   0.958  2.5887 -0.9480  0.6811
   98MOL0     H13174   8.925   3.380   1.121 -0.1098  2.9193 -1.4718
   98MOL0     H13175   8.994   3.173   1.109  0.8049  0.4115  0.5282
   98MOL0     H13176   8.969   3.157   0.937  0.9278  0.2878 -1.8275
   98MOL0     H13177   9.185   3.317   1.074 -2.4844  0.2984 -0.3468
   98MOL0     H13178   9.155   3.322   0.903  0.3171 -0.7126 -1.2555
   98MOL0     H13179   9.181   3.067   0.916  1.7649 -0.9892  2.3748
   98MOL0     H13180   9.329   3.165   0.943 -0.5425 -0.3295 -2.5673
   98MOL0     H13181   9.363   3.220   1.235 -1.9785  1.8168  0.4426
   98MOL0     H13182   9.362   3.181   1.492  0.2874 -0.6800  1.4687
   98MOL0     H13183   9.335   3.019   1.537 -2.6937  2.4795  0.1501
   98MOL0     H13184   9.547   2.937   1.406  1.9149 -0.0454  2.1458
   98MOL0     H13185   9.578   3.105   1.370 -0.6837 -2.9769 -2.4050
   98MOL0     H13186   9.557   2.982   1.635 -2.4382  1.6519 -0.6210
   98MOL0     H13187   9.561   3.159   1.612  1.7191  1.2739 -2.1446
   98MOL0     H13188   9.783   3.092   1.664  2.6672  2.7142 -1.0067
   98MOL0     H13189   9.772   3.153   1.505 -0.5008 -0.6052 -1.0329
   98MOL0     H13190  10.009   3.127   1.613 -2.6649 -0.1877 -1.2146
   98MOL0     H13191  10.234   3.059   1.663 -0.1223 -0.1644  2.9830
   98MOL0     H13192  10.469   2.747   1.969  0.8944 -1.1792  0.5486
   98MOL0     H13193  10.696   2.700   2.048 -0.8569 -1.9474 -0.7366
   98MOL0     H13194  10.862   2.586   1.995 -1.5030  1.5656  0.9462
   98MOL0     H13195  11.029   2.569   1.951 -2.0287 -2.0068 -1.3690
   98MOL0     H13196  10.906   2.788   2.137  2.1939  3.1347 -2.1218
   98MOL0     H13197  11.005   2.643   2.180 -1.0494  0.7556  1.2878
   98MOL0     H13198  11.088   2.892   2.013 -0.5945  0.8079 -0.0768
   98MOL0     H13199  11.119   2.891   2.180 -0.0681  3.3897 -3.2927
   98MOL0     H13200  11.233   2.664   2.011  1.2645 -1.1324  1.2995
   98MOL0     H13201  11.271   2.712   2.176  0.0245 -0.4012 -0.3141
   98MOL0     H13202  11.334   2.938   2.067  0.4241 -0.8671  0.7990
   98MOL0     H13203  11.283   2.876   1.910 -1.9968 -1.6844  0.0273
   98MOL0     H13204  11.502   2.761   2.096  0.6773  1.9649  0.4156
   98MOL0     H13205  11.491   2.706   1.930  4.0040  0.6176 -0.1084
   98MOL0     H13206  11.557   2.990   1.998  0.4380  2.2712 -1.3847
   98MOL0     H13207  11.529   2.927   1.837 -1.2843  0.2922  0.6321
   98MOL0     H13208  11.731   2.859   1.810  1.3126 -2.5728  0.5462
   98MOL0     H13209  11.767   2.962   1.954  0.5605 -0.2006 -0.2984
   98MOL0     H13210  10.841   2.885   1.684  1.8724 -2.0190  1.7329
   98MOL0     H13211  10.620   2.967   1.639  3.2468  0.1944 -0.4586
   98MOL0     H13212  10.135   2.650   1.596 -0.2742 -0.5844  0.6107
   98MOL0     H13213   9.902   2.723   1.518 -1.1992  1.2028  0.9718
   98MOL0     H13214   8.274   3.416   1.150 -1.2376  1.6168  0.5726
   98MOL0     H13215   8.058   3.543   1.096  1.4295  1.0117 -2.1653
   98MOL0     H13216   7.718   3.616   0.853 -1.4431  3.1614 -0.7943
   98MOL0     H13217   7.515   3.750   0.787  0.2837  0.0112 -1.0714
   98MOL0     H13218   7.076   3.766   0.820 -2.4064 -1.3356 -2.7592
   98MOL0     H13219   7.105   3.599   0.873 -0.5512 -0.8048 -0.7633
   98MOL0     H13220   7.216   3.575   0.644  0.7467  0.2568  1.8695
   98MOL0     H13221   7.181   3.746   0.619 -1.4936 -0.0318 -1.5462
   98MOL0     H13222   6.948   3.564   0.672 -1.0322 -2.5185 -3.4338
   98MOL0     H13223   7.004   3.579   0.516 -0.6786 -4.1140  1.9899
   98MOL0     H13224   6.942   3.827   0.685  1.8165 -0.0472 -0.0860
   98MOL0     H13225   6.960   3.815   0.504 -2.4409  0.3893 -0.5736
   98MOL0     H13226   6.555   3.739   0.558 -0.2853 -0.7362 -0.0780
   98MOL0     H13227   7.252   3.451   0.946 -1.1109  3.7720 -1.2458
   98MOL0     H13228   7.430   3.197   0.940  2.2269 -2.9121  1.3616
   98MOL0     H13229   7.491   3.232   1.094 -3.8207  1.6561  4.6142
   98MOL0     H13230   7.323   3.257   1.065  0.4158  0.0418  0.0704
   99MOL0     O13231   6.910   1.745  11.086  0.5624  0.3574 -0.0198
   99MOL0     C13232   6.980   1.744  11.180 -0.9444  0.4764 -1.0835
   99MOL0     O13233   7.109   1.777  11.179 -0.4672  0.3997 -0.1501
   99MOL0     C13234   7.196   1.748  11.070 -0.7555  0.4620 -0.3316
   99MOL0     C13235   7.163   1.676  10.957 -0.7921 -0.1239  0.2933
   99MOL0     C13236   7.259   1.656  10.854 -0.1711  0.4251 -0.8415
   99MOL0     C13237   7.382   1.710  10.854 -0.1010  0.7341  0.0201
   99MOL0     O13238   7.461   1.669  10.753 -0.1950 -0.1699  0.5098
   99MOL0     C13239   7.596   1.721  10.755  0.0365  0.1684  0.0443
   99MOL0     C13240   7.684   1.646  10.656 -0.2408  0.2523 -0.1724
   99MOL0     C13241   7.662   1.678  10.512 -0.0163  0.6569  0.9682
   99MOL0     C13242   7.739   1.600  10.418 -0.1011  0.3515  0.1015
   99MOL0     C13243   7.670   1.587  10.279 -0.9648 -0.5912  0.4173
   99MOL0     C13244   7.552   1.486  10.262 -0.0471  0.0638 -1.0254
   99MOL0     C13245   7.499   1.500  10.116 -0.4040 -0.5506 -0.8925
   99MOL0     C13246   7.554   1.386  10.018 -0.0551 -0.4881  0.4623
   99MOL0     N13247   7.695   1.372  10.006  0.2036  0.0712 -0.3484
   99MOL0     C13248   7.775   1.435   9.916 -0.2261 -0.7862 -0.5505
   99MOL0     C13249   7.900   1.396   9.946  0.6695  0.1108 -0.0211
   99MOL0     C13250   8.029   1.450   9.891  0.1985  0.3461  0.5802
   99MOL0     C13251   8.134   1.459  10.000 -0.5086 -0.8916  0.4390
   99MOL0     C13252   8.261   1.520   9.946 -0.3259 -0.8843  0.2861
   99MOL0     C13253   8.354   1.529  10.070 -0.6148 -0.1175  0.3068
   99MOL0     O13254   8.452   1.631  10.046  0.0238 -0.1433 -0.7451
   99MOL0     C13255   8.549   1.608   9.953 -0.5700 -0.0219 -0.4403
   99MOL0     C13256   8.580   1.489   9.891  0.3162 -0.3561  0.8902
   99MOL0     C13257   8.679   1.495   9.789 -0.3773  1.4998  1.0746
   99MOL0     C13258   8.746   1.611   9.747  0.1220  0.0321  0.0220
   99MOL0     C13259   8.848   1.614   9.634  0.2133 -0.1276  0.2535
   99MOL0     O13260   8.852   1.731   9.563 -0.0864  0.2113 -0.2445
   99MOL0     C13261   8.953   1.746   9.481  0.4355  0.0010  0.2873
   99MOL0     C13262   9.022   1.862   9.488  0.4761 -0.4857  0.4533
   99MOL0     C13263   9.133   1.892   9.410 -0.1083  0.3212 -0.0141
   99MOL0     C13264   9.180   1.796   9.327 -0.4410  0.3968  0.6397
   99MOL0     O13265   9.288   1.810   9.240 -0.6159 -0.2831 -0.5380
   99MOL0     C13266   9.347   1.943   9.241 -0.3181 -0.0059  0.4064
   99MOL0     C13267   9.477   1.915   9.158  0.4529  0.1015 -0.9258
   99MOL0     C13268   9.569   2.042   9.156  0.3749 -0.5203 -0.0679
   99MOL0     C13269   9.710   2.000   9.147  0.0487  0.6256 -0.2018
   99MOL0     C13270   9.807   2.101   9.105 -0.4852 -0.7471  0.4032
   99MOL0     C13271   9.958   2.079   9.117  0.6236 -0.2757 -0.1446
   99MOL0     C13272   9.999   2.098   9.263  0.5036  1.0690  0.3461
   99MOL0     C13273  10.140   2.123   9.276 -1.3278 -0.0306  0.8424
   99MOL0    Cl13274  10.224   1.980   9.208 -0.0308 -0.2465  0.4027
   99MOL0     C13275   9.107   1.678   9.314  0.6579  0.0463  0.3557
   99MOL0     C13276   8.986   1.657   9.380 -0.6755  0.6442 -0.7650
   99MOL0     O13277   8.913   1.512   9.608  0.7826  0.2710 -0.8893
   99MOL0     C13278   8.716   1.722   9.819  0.0544 -0.6920  0.4020
   99MOL0     C13279   8.625   1.724   9.921  0.5557  0.1239  0.2515
   99MOL0     N13280   7.891   1.293  10.043 -0.1517  0.2042  0.7873
   99MOL0     N13281   7.764   1.283  10.079 -0.1629  0.3579 -0.0451
   99MOL0     C13282   7.417   1.783  10.965  0.4510 -0.6119  0.0854
   99MOL0     C13283   7.323   1.804  11.069  0.1971 -0.1885 -0.9311
   99MOL0     C13284   6.920   1.692  11.310 -0.4672 -0.0711  0.1628
   99MOL0     C13285   7.005   1.627  11.401  0.2601  0.1955  0.2836
   99MOL0     C13286   6.953   1.575  11.517 -0.0458 -0.4677 -0.6679
   99MOL0     C13287   6.815   1.571  11.540 -0.1407  0.7070 -0.7357
   99MOL0     O13288   6.785   1.477  11.636 -0.6370  0.4619  0.1332
   99MOL0     C13289   6.648   1.445  11.663 -0.3090  0.2403 -0.7239
   99MOL0     C13290   6.639   1.329  11.766 -0.8870 -0.6525  0.7192
   99MOL0     C13291   6.503   1.262  11.772 -0.8518  0.2574  0.0824
   99MOL0     C13292   6.507   1.169  11.891  0.3537 -0.7009 -0.3809
   99MOL0     C13293   6.379   1.106  11.891 -0.1695  0.3810 -0.2085
   99MOL0     C13294   6.270   1.054  11.897  1.0040  1.1021 -0.1611
   99MOL0     C13295   6.734   1.640  11.452  0.1874 -0.0179 -0.1117
   99MOL0     C13296   6.783   1.713  11.345  0.5269  0.1914 -0.6511
   99MOL0     C13297   6.692   1.781  11.256 -0.1706  0.1115 -0.1214
   99MOL0     H13298   7.070   1.620  10.954 -0.0533 -1.4444  1.0197
   99MOL0     H13299   7.234   1.579  10.781 -1.0105 -1.9321  1.7447
   99MOL0     H13300   7.602   1.826  10.725 -0.3482  0.6914  1.6833
   99MOL0     H13301   7.642   1.705  10.853 -1.7161  0.1432  0.9039
   99MOL0     H13302   7.672   1.538  10.674 -0.7818  0.3275 -0.0566
   99MOL0     H13303   7.787   1.666  10.684  0.3264 -1.4653 -0.8749
   99MOL0     H13304   7.698   1.779  10.488 -0.2056  0.1372 -1.7929
   99MOL0     H13305   7.556   1.666  10.488 -0.2144  0.3695  1.9486
   99MOL0     H13306   7.842   1.635  10.413  0.5398 -1.2425  1.0894
   99MOL0     H13307   7.744   1.494  10.444 -0.3869  0.5342  0.9131
   99MOL0     H13308   7.634   1.679  10.232 -0.1426 -0.3486  0.2426
   99MOL0     H13309   7.755   1.558  10.217 -0.4760  1.8108 -0.1375
   99MOL0     H13310   7.591   1.387  10.287 -1.2104  0.1940  1.5439
   99MOL0     H13311   7.477   1.509  10.338  0.7199 -0.0275 -0.2198
   99MOL0     H13312   7.525   1.599  10.078  1.2516  0.3358  2.2159
   99MOL0     H13313   7.390   1.500  10.111 -0.5541 -0.8494  1.3050
   99MOL0     H13314   7.515   1.293  10.059  0.6205 -0.9861 -0.0035
   99MOL0     H13315   7.522   1.405   9.915  1.9915  0.2610 -0.0920
   99MOL0     H13316   7.750   1.504   9.837  0.9142 -0.0746 -0.3154
   99MOL0     H13317   8.064   1.370   9.824  0.1476  0.4322  0.4501
   99MOL0     H13318   8.025   1.547   9.840 -0.9698 -0.5957 -1.2394
   99MOL0     H13319   8.095   1.514  10.086  1.9319  0.7630  0.6033
   99MOL0     H13320   8.156   1.357  10.032  0.8286 -0.6326  0.3907
   99MOL0     H13321   8.248   1.622   9.909  0.4153 -0.3477  1.4195
   99MOL0     H13322   8.294   1.447   9.872  0.0799  0.3137 -0.7466
   99MOL0     H13323   8.394   1.429  10.086 -1.5778 -0.9263 -1.9401
   99MOL0     H13324   8.292   1.563  10.154 -2.5170 -0.5062 -0.8879
   99MOL0     H13325   8.527   1.399   9.922  0.5194  0.1328  2.7636
   99MOL0     H13326   8.697   1.399   9.740 -1.1294  2.4986 -1.3244
   99MOL0     H13327   8.987   1.935   9.560 -1.5262 -0.2646 -0.6678
   99MOL0     H13328   9.174   1.993   9.413 -1.4530  1.0051 -2.1394
   99MOL0     H13329   9.284   2.019   9.193  0.0039 -0.1702 -0.2792
   99MOL0     H13330   9.376   1.986   9.338  2.5051  1.8093 -1.0944
   99MOL0     H13331   9.538   1.840   9.209  0.0643  1.7600  2.2296
   99MOL0     H13332   9.458   1.875   9.058  2.4644  1.8048 -2.0717
   99MOL0     H13333   9.529   2.107   9.077 -2.7531 -2.4765 -0.2808
   99MOL0     H13334   9.563   2.102   9.247  1.1996 -0.7629  0.1581
   99MOL0     H13335   9.715   1.916   9.077  0.9113  0.1245  0.4365
   99MOL0     H13336   9.737   1.965   9.247  0.8271 -1.2263 -1.0058
   99MOL0     H13337   9.775   2.192   9.157 -1.8517 -0.3922 -0.9813
   99MOL0     H13338   9.796   2.121   8.998  0.9574 -0.3190  0.3117
   99MOL0     H13339  10.003   1.987   9.078 -0.8037 -1.7210  1.4690
   99MOL0     H13340  10.003   2.159   9.058  1.0926  0.2956  0.9708
   99MOL0     H13341   9.971   2.012   9.325  0.4407 -1.1443 -2.5525
   99MOL0     H13342   9.952   2.189   9.302  0.4988  1.1104  0.2430
   99MOL0     H13343  10.169   2.215   9.224  0.6847 -1.3080 -0.4468
   99MOL0     H13344  10.168   2.145   9.379 -0.9706 -0.5076  0.8532
   99MOL0     H13345   9.136   1.620   9.227 -0.0173  0.6077 -0.2543
   99MOL0     H13346   8.932   1.563   9.375  0.1024  0.1002  0.4643
   99MOL0     H13347   8.756   1.818   9.785  3.5548 -1.5693  1.6157
   99MOL0     H13348   8.606   1.819   9.970 -0.0391 -0.6883  1.6428
   99MOL0     H13349   7.513   1.832  10.976 -0.0499  0.2848  0.5715
   99MOL0     H13350   7.339   1.872  11.153 -1.1567 -1.5798  0.5327
   99MOL0     H13351   7.113   1.622  11.393  0.1986  0.4108 -0.8105
   99MOL0     H13352   7.019   1.520  11.583 -3.1108 -1.4420  1.8375
   99MOL0     H13353   6.607   1.420  11.565  1.5278 -1.1317 -1.2120
   99MOL0     H13354   6.591   1.534  11.691  0.1947  0.5529 -0.6746
   99MOL0     H13355   6.661   1.380  11.861  0.1878  1.1368 -0.4289
   99MOL0     H13356   6.712   1.250  11.746  1.1760 -0.2091  5.1566
   99MOL0     H13357   6.494   1.202  11.681  1.6238  0.6247 -0.4682
   99MOL0     H13358   6.424   1.338  11.772  0.2818  1.5026  0.9917
   99MOL0     H13359   6.591   1.099  11.883  0.8700 -0.2380  0.7436
   99MOL0     H13360   6.519   1.228  11.982 -0.5575  0.3657 -0.9259
   99MOL0     H13361   6.174   1.007  11.905  0.7024  1.5406 -0.9923
   99MOL0     H13362   6.627   1.634  11.463 -0.4018 -0.4482 -4.4793
   99MOL0     H13363   6.595   1.806  11.300 -0.0559 -0.6946  0.6059
   99MOL0     H13364   6.739   1.874  11.223 -0.0188  1.1689  2.7587
   99MOL0     H13365   6.676   1.722  11.166 -0.5004 -0.4605  0.3066
  100MOL0     O13366   9.616   9.326   6.960  0.9415 -0.0764  0.4924
  100MOL0     C13367   9.555   9.303   6.854  0.3341 -0.3573 -0.3306
  100MOL0     O13368   9.596   9.319   6.719 -0.1069 -0.4370 -1.0699
  100MOL0     C13369   9.726   9.352   6.701  0.8454 -1.0294  0.5572
  100MOL0     C13370   9.829   9.262   6.717 -0.5188 -0.4223  0.0154
  100MOL0     C13371   9.962   9.305   6.680 -0.1636 -0.9771  0.2427
  100MOL0     C13372   9.995   9.437   6.645  0.8105  0.0465 -0.1257
  100MOL0     O13373  10.119   9.475   6.606 -0.2491 -0.5817  0.5769
  100MOL0     C13374  10.226   9.382   6.599  0.1974  0.9807 -0.7284
  100MOL0     C13375  10.344   9.471   6.616 -0.0401 -1.2296 -0.3848
  100MOL0     C13376  10.471   9.401   6.644 -0.1396 -0.2886 -0.2379
  100MOL0     C13377  10.574   9.492   6.718 -0.0382 -0.2033  0.6328
  100MOL0     C13378  10.711   9.429   6.717  0.4245  0.7443  0.1077
  100MOL0     C13379  10.811   9.533   6.728 -1.1526 -0.3616 -0.4426
  100MOL0     C13380  10.852   9.595   6.586  0.4752 -0.0260 -0.5318
  100MOL0     C13381  10.960   9.707   6.604 -0.1112 -0.3534  0.6003
  100MOL0     N13382  11.091   9.648   6.626 -0.0857  0.2118 -0.0935
  100MOL0     C13383  11.175   9.658   6.517  0.1140  0.6442 -0.1184
  100MOL0     C13384  11.302   9.670   6.580  0.4316 -0.1489 -0.1900
  100MOL0     C13385  11.428   9.686   6.498  0.1814  0.0640 -0.4881
  100MOL0     C13386  11.520   9.561   6.526 -0.0957  0.0305 -0.8467
  100MOL0     C13387  11.637   9.575   6.425 -0.0476  0.3891 -0.6369
  100MOL0     C13388  11.737   9.462   6.425 -0.1326  0.2619  0.5835
  100MOL0     O13389  11.831   9.493   6.332 -0.6113 -0.7767  0.4595
  100MOL0     C13390  11.950   9.425   6.331  0.1577 -0.4701 -0.4018
  100MOL0     C13391  11.968   9.300   6.400 -0.0976 -0.4477 -0.5118
  100MOL0     C13392  12.088   9.230   6.394 -0.0191 -0.4841  0.1150
  100MOL0     C13393  12.196   9.292   6.334 -0.7087 -0.1055 -0.7719
  100MOL0     C13394  12.328   9.231   6.330  0.2491  0.5947  0.4368
  100MOL0     O13395  12.336   9.098   6.369 -0.4012 -0.5061 -0.1397
  100MOL0     C13396  12.444   9.022   6.336  0.0199  0.4329  1.2610
  100MOL0     C13397  12.572   9.052   6.375 -0.4303 -0.0007 -0.4434
  100MOL0     C13398  12.679   8.979   6.337 -0.2144  0.5644 -0.1501
  100MOL0     C13399  12.668   8.875   6.239  1.1554 -0.5254 -0.3219
  100MOL0     O13400  12.782   8.812   6.190 -0.6346  0.1933  0.2317
  100MOL0     C13401  12.773   8.710   6.092 -0.3395  0.0627 -0.0719
  100MOL0     C13402  12.916   8.669   6.048 -0.9004 -0.1828  0.6688
  100MOL0     C13403  12.978   8.598   6.176 -0.3406 -0.6065 -0.2379
  100MOL0     C13404  13.134   8.610   6.180 -0.3801 -0.5279 -0.5163
  100MOL0     C13405  13.202   8.542   6.298 -0.1785  0.0816  0.5116
  100MOL0     C13406  13.188   8.603   6.433 -0.6431 -0.9355 -0.7265
  100MOL0     C13407  13.218   8.759   6.441  0.0864  0.7046  0.6583
  100MOL0     C13408  13.207   8.817   6.581  0.3474 -0.0783 -0.4924
  100MOL0    Cl13409  13.206   9.002   6.559 -0.0887 -0.1301 -0.0604
  100MOL0     C13410  12.532   8.840   6.200  0.2467  0.3608 -1.5391
  100MOL0     C13411  12.421   8.910   6.251  0.4817  0.3221 -0.2334
  100MOL0     O13412  12.421   9.298   6.285 -0.0535  0.1795 -0.4063
  100MOL0     C13413  12.182   9.413   6.271  0.3825  0.2872  0.4122
  100MOL0     C13414  12.062   9.482   6.273 -0.1137  0.4730  0.1160
  100MOL0     N13415  11.276   9.679   6.718 -0.6936  0.1012  0.3406
  100MOL0     N13416  11.154   9.652   6.744 -0.6395 -0.9391 -0.5716
  100MOL0     C13417   9.883   9.525   6.639  0.0250 -0.3358  0.5001
  100MOL0     C13418   9.755   9.486   6.672  0.2093  0.3707 -0.1187
  100MOL0     C13419   9.410   9.280   6.868 -0.4410  0.7835 -0.4566
  100MOL0     C13420   9.347   9.187   6.786  0.5331 -0.1236  0.8233
  100MOL0     C13421   9.207   9.156   6.793  0.3793 -0.4138  0.0455
  100MOL0     C13422   9.130   9.224   6.882 -0.3569  0.2576 -0.2633
  100MOL0     O13423   8.996   9.195   6.888 -0.1228 -0.4933 -0.8127
  100MOL0     C13424   8.905   9.260   6.980 -0.3225  0.1641 -0.3478
  100MOL0     C13425   8.766   9.261   6.921 -0.0128 -0.2205 -1.0606
  100MOL0     C13426   8.665   9.317   7.028 -0.4792  0.4255  0.1338
  100MOL0     C13427   8.582   9.206   7.089  0.4093  0.0396  0.4273
  100MOL0     C13428   8.649   9.087   7.125 -0.8311 -0.3036 -1.0725
  100MOL0     C13429   8.701   8.985   7.166 -0.5884  0.0008  0.4601
  100MOL0     C13430   9.193   9.321   6.966  0.4160 -0.0243 -0.0957
  100MOL0     C13431   9.330   9.352   6.959 -0.1184 -0.2261  0.0438
  100MOL0     C13432   9.395   9.446   7.069  0.1736  0.9310  0.0956
  100MOL0     H13433   9.793   9.167   6.754 -0.1910 -0.5477  0.0108
  100MOL0     H13434  10.033   9.223   6.683  0.4223 -0.4702  0.5086
  100MOL0     H13435  10.222   9.304   6.676 -2.6847  1.9801  0.2756
  100MOL0     H13436  10.236   9.336   6.500 -2.7201  1.4414 -1.3281
  100MOL0     H13437  10.327   9.538   6.702 -0.3064 -1.5134 -0.2158
  100MOL0     H13438  10.362   9.535   6.529  1.1941 -0.2266  0.5679
  100MOL0     H13439  10.517   9.363   6.552  2.7256  0.6298  0.7348
  100MOL0     H13440  10.451   9.310   6.701  1.0039  0.0407  0.7144
  100MOL0     H13441  10.579   9.587   6.665  0.5280 -1.3378 -1.4990
  100MOL0     H13442  10.538   9.509   6.820 -1.7980 -0.2458  0.0589
  100MOL0     H13443  10.719   9.352   6.794 -1.2963 -0.4275 -0.8280
  100MOL0     H13444  10.731   9.377   6.623 -0.0607 -1.0634  0.9617
  100MOL0     H13445  10.775   9.613   6.793  0.7556  0.2811 -0.1132
  100MOL0     H13446  10.898   9.485   6.775 -2.7755 -1.9378  1.0886
  100MOL0     H13447  10.768   9.647   6.540  1.4895  1.0195 -1.2485
  100MOL0     H13448  10.881   9.510   6.524  0.5779 -0.4969  0.1480
  100MOL0     H13449  10.962   9.768   6.513  0.1107  0.7390  1.3263
  100MOL0     H13450  10.938   9.770   6.690 -1.7772 -0.3745  0.2127
  100MOL0     H13451  11.146   9.647   6.413 -1.9279 -1.5266  0.5657
  100MOL0     H13452  11.413   9.695   6.390  0.0609 -0.2853 -0.5028
  100MOL0     H13453  11.487   9.775   6.523 -2.0518  1.3981  0.2429
  100MOL0     H13454  11.539   9.571   6.633  3.2239  0.9589 -1.3975
  100MOL0     H13455  11.463   9.471   6.500  0.0662 -0.6091  0.8916
  100MOL0     H13456  11.682   9.672   6.446 -1.9835  0.8963  1.4670
  100MOL0     H13457  11.591   9.580   6.326 -0.5025  2.5545 -0.3521
  100MOL0     H13458  11.691   9.367   6.395  2.6679 -0.9608 -0.2011
  100MOL0     H13459  11.778   9.446   6.526  2.2279  2.8673  0.1369
  100MOL0     H13460  11.890   9.239   6.446 -0.4431 -1.6256 -2.5456
  100MOL0     H13461  12.093   9.126   6.424  1.0770  0.1713  2.4322
  100MOL0     H13462  12.583   9.128   6.451 -0.1663 -2.1137  1.7614
  100MOL0     H13463  12.778   8.995   6.379  0.7996  1.8001 -2.7780
  100MOL0     H13464  12.720   8.624   6.133 -0.9279  0.2098 -0.5091
  100MOL0     H13465  12.731   8.740   5.995 -1.9004 -0.1296  0.5288
  100MOL0     H13466  12.928   8.609   5.958  1.0970  0.1436  0.6745
  100MOL0     H13467  12.971   8.763   6.033 -0.0710 -0.4335  1.9428
  100MOL0     H13468  12.946   8.646   6.269 -0.8520  0.4319 -0.9372
  100MOL0     H13469  12.942   8.494   6.174  0.7334 -0.9824 -0.9457
  100MOL0     H13470  13.168   8.714   6.181 -3.0290  0.3926 -0.1663
  100MOL0     H13471  13.162   8.567   6.083 -3.0448 -1.0851 -1.1050
  100MOL0     H13472  13.308   8.550   6.274 -0.6530  0.9066 -1.6040
  100MOL0     H13473  13.182   8.435   6.296  2.4935 -0.4937  0.7915
  100MOL0     H13474  13.092   8.575   6.477  0.7109  0.2617  3.4730
  100MOL0     H13475  13.256   8.552   6.502  1.2233  1.5088 -0.6223
  100MOL0     H13476  13.150   8.816   6.377  1.0461 -0.1223 -1.1531
  100MOL0     H13477  13.313   8.783   6.393 -0.5125  2.0571  0.1010
  100MOL0     H13478  13.120   8.775   6.631  0.6792 -0.8954 -0.5867
  100MOL0     H13479  13.284   8.775   6.645  0.7084  0.5747 -0.4873
  100MOL0     H13480  12.500   8.749   6.150 -2.6444 -0.0024  0.7235
  100MOL0     H13481  12.323   8.866   6.232  0.6193  0.2681 -0.8529
  100MOL0     H13482  12.260   9.459   6.210 -0.9277 -0.3347 -1.8261
  100MOL0     H13483  12.061   9.574   6.216 -2.7923 -0.6108 -1.8046
  100MOL0     H13484   9.898   9.628   6.610 -2.7986  0.4059  1.3070
  100MOL0     H13485   9.674   9.557   6.658  0.1669  0.4958  0.6956
  100MOL0     H13486   9.396   9.144   6.700 -2.9410  0.0102 -1.4261
  100MOL0     H13487   9.152   9.099   6.719 -0.4648 -1.1664  1.2182
  100MOL0     H13488   8.935   9.363   7.002 -0.5567  0.2774 -0.5473
  100MOL0     H13489   8.902   9.211   7.077 -2.3731 -2.5263 -1.6539
  100MOL0     H13490   8.737   9.160   6.892 -1.1426 -0.7064  1.5260
  100MOL0     H13491   8.770   9.330   6.836 -0.4169  3.3539  1.5722
  100MOL0     H13492   8.599   9.383   6.971 -0.2771  0.5000 -0.0127
  100MOL0     H13493   8.714   9.380   7.103  0.9764 -0.1430 -0.3085
  100MOL0     H13494   8.524   9.251   7.170  0.4466  0.3569  0.2781
  100MOL0     H13495   8.502   9.167   7.026  0.4605  0.5257  0.0638
  100MOL0     H13496   8.756   8.904   7.210 -0.8936 -1.1140 -1.1156
  100MOL0     H13497   9.132   9.381   7.033  0.3437 -1.2230  0.9526
  100MOL0     H13498   9.442   9.383   7.145  0.8324  0.7262 -0.4655
  100MOL0     H13499   9.453   9.528   7.025  0.4896 -0.0683 -1.4215
  100MOL0     H13500   9.316   9.498   7.123  1.1723  0.4977  2.0565
  101MOL0     O13501   7.593   4.620   9.743  0.1935 -0.6836  0.0784
  101MOL0     C13502   7.594   4.598   9.866  0.6618 -0.2579  0.1042
  101MOL0     O13503   7.704   4.568   9.947  0.3179  0.0125 -0.0545
  101MOL0     C13504   7.830   4.609   9.915  0.1740 -0.2588 -0.4460
  101MOL0     C13505   7.861   4.710   9.832 -0.2064  0.4700  0.0180
  101MOL0     C13506   7.992   4.744   9.796  0.2559  0.5378  0.1775
  101MOL0     C13507   8.099   4.675   9.856 -0.7353  0.0479 -0.1227
  101MOL0     O13508   8.218   4.733   9.835  0.1943 -0.3981 -0.0348
  101MOL0     C13509   8.337   4.696   9.910  0.3414  0.2811  0.2322
  101MOL0     C13510   8.465   4.776   9.875  0.0967  0.4074  0.0057
  101MOL0     C13511   8.442   4.922   9.912  0.2259  0.0158 -0.1410
  101MOL0     C13512   8.549   5.009   9.863  0.5340  0.1861 -0.1128
  101MOL0     C13513   8.676   4.997   9.944  0.5402 -0.0525  0.6169
  101MOL0     C13514   8.787   5.096   9.891 -0.2630 -0.3283 -0.2462
  101MOL0     C13515   8.917   5.060   9.957 -0.3922 -0.2883 -0.3459
  101MOL0     C13516   9.031   5.157   9.918  0.4053 -0.3291 -0.1521
  101MOL0     N13517   9.154   5.129   9.989 -0.4099 -0.6506  0.3747
  101MOL0     C13518   9.171   5.183  10.114 -0.9100 -0.0428  0.3077
  101MOL0     C13519   9.290   5.127  10.155 -1.3869  0.0786 -0.2787
  101MOL0     C13520   9.377   5.134  10.283  0.4655 -0.5860  0.0851
  101MOL0     C13521   9.451   5.270  10.292  0.5585 -0.5233  0.7834
  101MOL0     C13522   9.542   5.283  10.417  0.0190 -0.5712 -0.8045
  101MOL0     C13523   9.636   5.410  10.424  0.0350  0.2765  0.4527
  101MOL0     O13524   9.751   5.396  10.335  0.2140 -0.0246  0.3583
  101MOL0     C13525   9.861   5.316  10.356  0.5502  0.3461 -0.4259
  101MOL0     C13526   9.889   5.239  10.475  0.3871  0.0295  0.4994
  101MOL0     C13527  10.004   5.159  10.482  0.9743 -0.5015 -0.3622
  101MOL0     C13528  10.094   5.158  10.372 -0.7320  0.0800  0.1848
  101MOL0     C13529  10.220   5.086  10.390  0.0735 -0.3487  0.1635
  101MOL0     O13530  10.263   5.069  10.510 -0.0648  0.0062  0.4339
  101MOL0     C13531  10.371   4.988  10.530 -0.4940  0.2723  1.0243
  101MOL0     C13532  10.494   5.011  10.466 -0.2289  0.0802  0.2743
  101MOL0     C13533  10.601   4.923  10.483 -0.0856 -0.2790 -0.0578
  101MOL0     C13534  10.591   4.816  10.577  0.1308 -0.3639 -0.1807
  101MOL0     O13535  10.703   4.736  10.588  0.0120  0.2420 -0.0162
  101MOL0     C13536  10.708   4.636  10.685  0.1777 -0.3526  0.4159
  101MOL0     C13537  10.840   4.554  10.676 -0.1949 -0.9568 -0.9011
  101MOL0     C13538  10.969   4.637  10.698 -0.1078 -0.0700  0.5993
  101MOL0     C13539  11.089   4.550  10.692 -0.5196 -1.0407 -0.0865
  101MOL0     C13540  11.220   4.629  10.711  0.4395  0.1063 -0.5417
  101MOL0     C13541  11.331   4.528  10.705 -0.6367 -0.1376 -0.9050
  101MOL0     C13542  11.469   4.577  10.744 -0.1720  0.0528 -0.4208
  101MOL0     C13543  11.573   4.495  10.683  0.1017  0.2723 -0.0217
  101MOL0    Cl13544  11.728   4.553  10.739  0.3984 -0.7373  0.1756
  101MOL0     C13545  10.472   4.793  10.642 -0.3003 -0.9740 -0.4303
  101MOL0     C13546  10.366   4.880  10.620  0.0399  0.9540 -0.5179
  101MOL0     O13547  10.279   5.050  10.292  0.4704 -0.3401 -0.1963
  101MOL0     C13548  10.069   5.227  10.258 -0.7171 -0.8831  0.3714
  101MOL0     C13549   9.960   5.312  10.255  0.2552 -0.2400 -0.3749
  101MOL0     N13550   9.325   5.037  10.055  0.1067  0.1914  0.4032
  101MOL0     N13551   9.244   5.040   9.951  0.1845 -0.2576 -0.9032
  101MOL0     C13552   8.074   4.574   9.943  0.3232 -0.2570 -0.2415
  101MOL0     C13553   7.938   4.540   9.971 -0.5580  0.4019  0.3501
  101MOL0     C13554   7.459   4.568   9.932  0.0859 -0.5079  0.4633
  101MOL0     C13555   7.342   4.627   9.878 -0.0590  0.0407 -0.0567
  101MOL0     C13556   7.220   4.605   9.931  0.0850  0.4741  0.0385
  101MOL0     C13557   7.205   4.535  10.053  0.4297  0.3113 -0.6836
  101MOL0     O13558   7.085   4.494  10.109 -0.1342  0.1271  0.3436
  101MOL0     C13559   6.967   4.516  10.034 -0.5038  0.1294 -0.3656
  101MOL0     C13560   6.845   4.465  10.122  0.1283 -0.6768 -0.7158
  101MOL0     C13561   6.714   4.510  10.058 -0.1821 -0.2680 -0.0626
  101MOL0     C13562   6.593   4.464  10.137 -0.0451 -0.3092 -0.4670
  101MOL0     C13563   6.479   4.442  10.049  0.2989 -0.5133 -0.1830
  101MOL0     C13564   6.375   4.428   9.994  0.2364 -0.4014  0.5370
  101MOL0     C13565   7.320   4.487  10.117  0.4308  0.1029 -0.3108
  101MOL0     C13566   7.446   4.495  10.057  0.1397 -0.7528 -0.5482
  101MOL0     C13567   7.570   4.435  10.133 -0.5959 -0.5890  0.5864
  101MOL0     H13568   7.776   4.772   9.805 -0.7023 -0.5837 -0.9045
  101MOL0     H13569   8.018   4.831   9.736  1.1749  1.9717  2.5423
  101MOL0     H13570   8.321   4.701  10.018  2.0689 -0.6263  0.5705
  101MOL0     H13571   8.344   4.593   9.872 -2.9799  0.5172 -1.2839
  101MOL0     H13572   8.472   4.750   9.769 -1.1879 -3.8294  0.7684
  101MOL0     H13573   8.553   4.736   9.927 -0.9157  0.2371  1.6696
  101MOL0     H13574   8.426   4.931  10.020 -1.0300 -4.2294  0.2175
  101MOL0     H13575   8.350   4.947   9.857  0.5114 -2.3804 -1.8828
  101MOL0     H13576   8.569   4.976   9.761  0.7560 -0.8724  0.2654
  101MOL0     H13577   8.525   5.115   9.852 -0.4881 -0.2372 -2.4500
  101MOL0     H13578   8.657   5.025  10.048  2.8271 -0.8146  1.2953
  101MOL0     H13579   8.722   4.898   9.933 -0.3852 -0.3763 -0.5546
  101MOL0     H13580   8.803   5.075   9.785  1.2552  0.8761 -0.3036
  101MOL0     H13581   8.760   5.198   9.920 -0.7740 -1.3735  3.4883
  101MOL0     H13582   8.951   4.957   9.942 -0.0109 -0.0656 -1.0357
  101MOL0     H13583   8.907   5.073  10.065  0.9361  0.9018 -0.3423
  101MOL0     H13584   9.043   5.132   9.812 -1.5714 -2.5104  0.0516
  101MOL0     H13585   8.992   5.258   9.933 -1.3377 -1.2260  1.8461
  101MOL0     H13586   9.113   5.258  10.166 -2.7412 -0.4148 -1.0718
  101MOL0     H13587   9.318   5.117  10.374  0.2235  3.1088  0.7872
  101MOL0     H13588   9.452   5.054  10.281 -0.2625 -1.3529  1.5860
  101MOL0     H13589   9.512   5.277  10.201  0.2912  1.8915  0.7185
  101MOL0     H13590   9.375   5.349  10.292  0.6329 -0.4509  0.9333
  101MOL0     H13591   9.605   5.194  10.430  0.0828 -0.4339 -0.1317
  101MOL0     H13592   9.482   5.293  10.507 -0.5080 -1.7342 -1.0200
  101MOL0     H13593   9.666   5.434  10.526  2.7121 -0.5228 -0.0656
  101MOL0     H13594   9.571   5.486  10.378 -0.3462 -0.2336  0.1414
  101MOL0     H13595   9.814   5.221  10.552  0.1710  2.3125  0.8820
  101MOL0     H13596  10.030   5.106  10.573 -1.3383 -0.2851  0.4896
  101MOL0     H13597  10.502   5.098  10.401 -0.3527 -0.8899 -1.0934
  101MOL0     H13598  10.695   4.940  10.432 -0.0889 -1.3236 -0.4225
  101MOL0     H13599  10.683   4.688  10.778 -3.6354  1.0239 -1.1513
  101MOL0     H13600  10.633   4.558  10.668 -1.8733  2.0743 -2.7361
  101MOL0     H13601  10.832   4.472  10.748 -2.4402  0.2789  0.3429
  101MOL0     H13602  10.846   4.492  10.586  3.1390 -2.1421 -0.0115
  101MOL0     H13603  10.970   4.723  10.630 -1.1958  0.2898  1.0055
  101MOL0     H13604  10.966   4.682  10.798 -0.1238  0.4267  0.3808
  101MOL0     H13605  11.098   4.505  10.592  1.6936  1.3633 -1.0894
  101MOL0     H13606  11.075   4.477  10.772 -4.7708  0.1437  0.4835
  101MOL0     H13607  11.219   4.677  10.809  2.1264  1.2418 -1.0470
  101MOL0     H13608  11.236   4.707  10.636  1.2791  0.3623 -0.1078
  101MOL0     H13609  11.297   4.446  10.769 -2.1006 -0.1909 -1.6985
  101MOL0     H13610  11.331   4.496  10.601  3.2134  0.6706 -1.2913
  101MOL0     H13611  11.477   4.573  10.853 -1.4626  2.1837 -0.1809
  101MOL0     H13612  11.481   4.681  10.713 -1.7079 -0.9475 -5.1541
  101MOL0     H13613  11.561   4.392  10.716  1.6389 -0.0854 -0.4959
  101MOL0     H13614  11.558   4.491  10.575 -0.9276 -1.3680  0.1535
  101MOL0     H13615  10.464   4.705  10.705  3.8548 -0.8359  0.5949
  101MOL0     H13616  10.276   4.863  10.678  0.8104 -0.1415  0.3973
  101MOL0     H13617  10.139   5.228  10.175 -1.4582  1.4140 -0.2891
  101MOL0     H13618   9.962   5.377  10.169 -1.5326 -1.5864 -1.5128
  101MOL0     H13619   8.152   4.526  10.001 -1.0323  1.0032  2.9069
  101MOL0     H13620   7.920   4.471  10.053  0.9391  2.0902  2.2274
  101MOL0     H13621   7.349   4.689   9.789 -0.3619  1.6761  1.0253
  101MOL0     H13622   7.138   4.650   9.876 -0.2156 -1.9924 -1.6867
  101MOL0     H13623   6.964   4.461   9.939  2.6630  0.1559 -0.5648
  101MOL0     H13624   6.947   4.622  10.018 -0.2439  0.1626 -0.4682
  101MOL0     H13625   6.850   4.504  10.224  1.7364 -3.4265  0.3793
  101MOL0     H13626   6.858   4.356  10.128  2.9444 -0.3633  1.1773
  101MOL0     H13627   6.720   4.475   9.954 -0.0987 -0.2572 -0.0606
  101MOL0     H13628   6.721   4.619  10.051 -0.0888 -0.1551  1.4900
  101MOL0     H13629   6.613   4.380  10.203 -1.3317  0.7607  1.3909
  101MOL0     H13630   6.567   4.547  10.204 -0.2165  0.4079 -1.3868
  101MOL0     H13631   6.282   4.438   9.941 -0.4971  3.5991  2.2207
  101MOL0     H13632   7.312   4.443  10.216  1.0208 -0.2170 -0.4049
  101MOL0     H13633   7.640   4.380  10.070  2.0879  1.2967  1.7593
  101MOL0     H13634   7.626   4.513  10.186  0.8283 -0.2899 -1.2506
  101MOL0     H13635   7.531   4.358  10.200  1.2235 -2.8793 -0.8649
  102MOL0     O13636   0.450   8.312   9.513  0.0777  0.2585 -0.1868
  102MOL0     C13637   0.454   8.374   9.407  0.3036  0.6188  0.2665
  102MOL0     O13638   0.453   8.508   9.391  0.7963 -0.1324 -0.3238
  102MOL0     C13639   0.401   8.597   9.485 -0.3028 -0.0498  0.1776
  102MOL0     C13640   0.436   8.738   9.472  0.1972 -0.2705 -0.3854
  102MOL0     C13641   0.396   8.833   9.569 -0.3668  0.0513 -1.0140
  102MOL0     C13642   0.313   8.790   9.673  0.4819  0.2797 -0.3551
  102MOL0     O13643   0.257   8.896   9.754  0.1005 -0.5568  0.6986
  102MOL0     C13644   0.147   8.871   9.842 -0.1956  0.7159  0.2839
  102MOL0     C13645   0.124   9.001   9.924  0.3327 -0.3187  0.2877
  102MOL0     C13646   0.233   9.034  10.015 -0.4040  0.6391  0.1493
  102MOL0     C13647   0.194   9.158  10.093 -0.3014 -0.0902 -0.0375
  102MOL0     C13648   0.299   9.168  10.204 -0.1184  0.6970 -0.5760
  102MOL0     C13649   0.270   9.286  10.293  0.2772 -0.3246 -0.0227
  102MOL0     C13650   0.394   9.332  10.373 -0.4783 -0.8287  0.6461
  102MOL0     C13651   0.507   9.378  10.286  0.2468  0.0806  0.0091
  102MOL0     N13652   0.584   9.479  10.335 -0.7946 -0.4217  0.5488
  102MOL0     C13653   0.668   9.466  10.443 -0.8813 -0.5115 -0.5046
  102MOL0     C13654   0.753   9.576  10.438 -0.3056 -0.4266  0.1492
  102MOL0     C13655   0.879   9.570  10.520  0.1632  0.2195 -0.0535
  102MOL0     C13656   1.002   9.506  10.446  0.3425 -0.8875 -0.1785
  102MOL0     C13657   1.121   9.482  10.556  0.4250 -0.2193 -0.1643
  102MOL0     C13658   1.243   9.434  10.477  0.0764  0.1675  0.6257
  102MOL0     O13659   1.285   9.524  10.368  0.1814  0.5496 -0.4130
  102MOL0     C13660   1.412   9.499  10.328 -0.7996 -0.1851 -0.1663
  102MOL0     C13661   1.452   9.375  10.281  0.3196 -0.1465  0.1343
  102MOL0     C13662   1.576   9.362  10.231  0.6363  0.1759  0.1728
  102MOL0     C13663   1.668   9.469  10.224 -0.7401 -0.5612 -0.1037
  102MOL0     C13664   1.807   9.457  10.155 -0.2141 -0.4537 -0.1176
  102MOL0     O13665   1.865   9.572  10.110  0.1547  0.3428  0.4294
  102MOL0     C13666   1.977   9.570  10.029  0.5385 -1.0808 -0.1000
  102MOL0     C13667   1.976   9.621   9.901  0.5135 -0.5586  0.0670
  102MOL0     C13668   2.090   9.608   9.816  0.2094  0.2683  0.6446
  102MOL0     C13669   2.209   9.558   9.865 -0.3408  0.0019  0.5042
  102MOL0     O13670   2.329   9.569   9.799  0.8377  0.5348 -0.6213
  102MOL0     C13671   2.382   9.701   9.797  0.3304 -0.6090 -0.0628
  102MOL0     C13672   2.519   9.704   9.715  0.6747 -0.6679  0.5556
  102MOL0     C13673   2.628   9.618   9.792 -0.9491 -0.3421  0.0789
  102MOL0     C13674   2.758   9.640   9.708 -0.1315  0.3215 -0.5853
  102MOL0     C13675   2.874   9.563   9.771  0.7757 -0.4040  0.3125
  102MOL0     C13676   2.852   9.409   9.760 -0.0007 -0.4608 -0.1924
  102MOL0     C13677   2.969   9.330   9.807  0.0389  0.2227 -0.8225
  102MOL0     C13678   3.078   9.323   9.703 -0.2639  0.1069  0.0159
  102MOL0    Cl13679   3.219   9.267   9.785 -0.2101 -0.4523 -0.0392
  102MOL0     C13680   2.209   9.512   9.993 -1.3776  0.6492  0.0205
  102MOL0     C13681   2.092   9.514  10.080 -0.0585  0.3741  0.7419
  102MOL0     O13682   1.847   9.343  10.139  0.4521 -0.1852 -0.1010
  102MOL0     C13683   1.617   9.588  10.257 -0.0215 -1.2141 -0.1603
  102MOL0     C13684   1.489   9.610  10.306  0.4698  0.4943  0.0150
  102MOL0     N13685   0.733   9.643  10.315  0.3536 -0.1570  0.4216
  102MOL0     N13686   0.628   9.588  10.260  0.0028 -0.0200 -0.7653
  102MOL0     C13687   0.281   8.656   9.688 -0.8655 -0.4534 -0.8659
  102MOL0     C13688   0.321   8.558   9.597 -0.3690  0.0995  0.2358
  102MOL0     C13689   0.471   8.298   9.275  0.0352 -0.6255 -0.4245
  102MOL0     C13690   0.485   8.376   9.159 -0.3979 -0.0667  0.6473
  102MOL0     C13691   0.512   8.312   9.034  0.5225 -0.5688 -0.9197
  102MOL0     C13692   0.516   8.175   9.020  0.5486 -0.0305  0.2246
  102MOL0     O13693   0.526   8.124   8.890 -0.3771 -0.1160  1.2833
  102MOL0     C13694   0.656   8.137   8.826 -0.7137 -0.3484  0.0476
  102MOL0     C13695   0.781   8.065   8.885 -0.1263  0.2206 -0.4239
  102MOL0     C13696   0.759   7.913   8.909 -0.6251  0.5498 -0.9719
  102MOL0     C13697   0.709   7.828   8.792 -0.2854 -0.7009 -0.3905
  102MOL0     C13698   0.808   7.847   8.683 -0.2455 -0.1643  0.1917
  102MOL0     C13699   0.866   7.854   8.573  0.9443 -0.9007  0.0510
  102MOL0     C13700   0.505   8.091   9.127 -0.0160 -0.1292  0.3281
  102MOL0     C13701   0.475   8.155   9.257 -0.0878 -0.1115  0.0529
  102MOL0     C13702   0.441   8.062   9.370  1.1462 -0.3366 -0.5831
  102MOL0     H13703   0.498   8.767   9.388 -1.5854  0.4488 -1.5038
  102MOL0     H13704   0.426   8.934   9.541  1.9811 -0.8205 -1.8547
  102MOL0     H13705   0.069   8.846   9.770 -0.4544 -0.5573  0.9729
  102MOL0     H13706   0.164   8.779   9.899 -1.1736  0.2815 -0.1055
  102MOL0     H13707   0.030   8.992   9.979  0.4643  0.0964  0.5915
  102MOL0     H13708   0.112   9.084   9.854 -0.6727 -1.3039 -0.7514
  102MOL0     H13709   0.325   9.047   9.956 -1.1966 -2.5496 -2.0358
  102MOL0     H13710   0.257   8.947  10.077 -1.6356 -0.0559 -0.3191
  102MOL0     H13711   0.201   9.249  10.033 -1.1813 -0.2519 -0.3876
  102MOL0     H13712   0.102   9.151  10.151  0.4555 -1.8266  1.0559
  102MOL0     H13713   0.300   9.074  10.260  0.8222  1.4917  0.7821
  102MOL0     H13714   0.395   9.181  10.152 -0.2821  1.6320 -0.6641
  102MOL0     H13715   0.229   9.370  10.235  2.1099  0.8445  0.2961
  102MOL0     H13716   0.191   9.253  10.361  0.8573 -3.7824 -0.8646
  102MOL0     H13717   0.441   9.249  10.428  0.8405 -1.1171 -0.8352
  102MOL0     H13718   0.362   9.413  10.439  2.0070 -0.5091  1.5742
  102MOL0     H13719   0.575   9.292  10.278 -0.5295 -0.4518 -1.0773
  102MOL0     H13720   0.462   9.403  10.190 -0.9424 -0.5346  0.3925
  102MOL0     H13721   0.670   9.385  10.515 -0.5732  2.0578  2.5875
  102MOL0     H13722   0.896   9.673  10.553 -1.2043  0.9150 -1.4462
  102MOL0     H13723   0.864   9.511  10.611  1.8329  0.4504  0.4138
  102MOL0     H13724   0.974   9.415  10.393 -1.3216 -0.1490 -0.6163
  102MOL0     H13725   1.034   9.578  10.370  2.5558 -1.0407  0.5145
  102MOL0     H13726   1.092   9.405  10.628  2.3886 -0.7011  0.1681
  102MOL0     H13727   1.144   9.577  10.607 -0.3099 -0.5737  0.8652
  102MOL0     H13728   1.215   9.334  10.444 -0.6466  0.4077  0.4755
  102MOL0     H13729   1.326   9.424  10.547  0.5216  0.7492  0.1858
  102MOL0     H13730   1.381   9.293  10.286 -0.6924  0.6554 -0.6976
  102MOL0     H13731   1.595   9.266  10.183  2.7235  0.3903  0.4798
  102MOL0     H13732   1.882   9.659   9.861 -0.0546 -2.1786 -0.1996
  102MOL0     H13733   2.085   9.630   9.710 -0.9820 -0.0553  0.6179
  102MOL0     H13734   2.318   9.772   9.744  1.1766 -0.3251 -0.7248
  102MOL0     H13735   2.392   9.745   9.897 -1.5022  0.4240 -0.3001
  102MOL0     H13736   2.507   9.651   9.620 -0.7368 -1.2099  1.0085
  102MOL0     H13737   2.559   9.805   9.706 -1.4763  0.0454 -2.3029
  102MOL0     H13738   2.651   9.664   9.888 -2.6884  1.4241 -0.2682
  102MOL0     H13739   2.593   9.515   9.806  0.3895 -0.5343  2.5961
  102MOL0     H13740   2.781   9.747   9.713 -0.2115  0.2794  1.8628
  102MOL0     H13741   2.750   9.620   9.600 -1.8030  2.3185 -0.8864
  102MOL0     H13742   2.879   9.597   9.876  1.3341  0.5243  0.0033
  102MOL0     H13743   2.958   9.593   9.708  0.3444  2.5971  0.9914
  102MOL0     H13744   2.764   9.372   9.812  0.2185 -1.3225 -0.4299
  102MOL0     H13745   2.833   9.392   9.654 -1.3010  1.3214 -0.2916
  102MOL0     H13746   2.934   9.227   9.819  0.3282  0.3389  1.3438
  102MOL0     H13747   3.001   9.367   9.905  1.5615 -1.2228 -0.7255
  102MOL0     H13748   3.046   9.256   9.622  1.5067  0.5843 -1.1350
  102MOL0     H13749   3.103   9.421   9.662  1.1910  0.0264  0.6813
  102MOL0     H13750   2.300   9.464  10.025 -1.0553  0.4934 -1.0682
  102MOL0     H13751   2.096   9.476  10.181 -2.3544  1.2551  1.2154
  102MOL0     H13752   1.677   9.678  10.242  0.3233 -0.8412  2.9180
  102MOL0     H13753   1.448   9.706  10.335  2.5107  2.7747 -3.7938
  102MOL0     H13754   0.215   8.634   9.772  0.2033  0.1788  0.1746
  102MOL0     H13755   0.294   8.456   9.620 -1.2787  0.6780  1.9727
  102MOL0     H13756   0.489   8.484   9.158 -0.1004 -0.0692  1.2585
  102MOL0     H13757   0.514   8.374   8.945  0.5490  1.3117  0.3207
  102MOL0     H13758   0.695   8.239   8.819 -1.2367 -0.2355 -1.6256
  102MOL0     H13759   0.629   8.099   8.727  0.5767 -2.1557  0.3226
  102MOL0     H13760   0.808   8.116   8.978 -1.2534  0.6926 -0.3342
  102MOL0     H13761   0.864   8.086   8.818  0.3906 -0.6001 -0.0534
  102MOL0     H13762   0.680   7.909   8.985  0.1918 -0.8059 -0.1584
  102MOL0     H13763   0.852   7.866   8.942 -0.6142  0.3133 -1.3423
  102MOL0     H13764   0.707   7.723   8.825  2.0886 -1.2326 -1.7085
  102MOL0     H13765   0.607   7.853   8.763 -0.1522  0.7671  0.3051
  102MOL0     H13766   0.926   7.846   8.485 -0.0262 -0.7324 -0.6425
  102MOL0     H13767   0.508   7.983   9.118 -1.6091 -0.1312 -0.6991
  102MOL0     H13768   0.506   8.070   9.458  2.3268  4.7156 -1.5599
  102MOL0     H13769   0.341   8.087   9.407  0.8988 -0.7203 -0.9821
  102MOL0     H13770   0.435   7.958   9.338  1.5024 -0.8229  0.8340
  103MOL0     O13771   8.944   4.914   2.266  0.0378 -0.2495  0.1112
  103MOL0     C13772   8.839   4.842   2.288 -0.6546  0.8400  0.6393
  103MOL0     O13773   8.833   4.739   2.384 -0.4594  0.3418  0.7378
  103MOL0     C13774   8.953   4.689   2.423  0.2613 -0.4804  0.4153
  103MOL0     C13775   8.987   4.572   2.375  0.3894  0.1568 -0.0883
  103MOL0     C13776   9.111   4.510   2.416  0.2755  0.0295  1.1644
  103MOL0     C13777   9.194   4.567   2.511 -0.4040 -0.2778  0.3543
  103MOL0     O13778   9.317   4.519   2.558 -0.3385 -0.3449 -0.4750
  103MOL0     C13779   9.352   4.386   2.506  0.2541  0.3367 -1.0408
  103MOL0     C13780   9.485   4.328   2.558  0.0398 -0.5545  1.0887
  103MOL0     C13781   9.604   4.416   2.525  0.2671 -0.0166  0.6353
  103MOL0     C13782   9.736   4.343   2.558 -0.1852 -0.4386 -0.2686
  103MOL0     C13783   9.843   4.442   2.528  0.0962 -1.0954 -0.5891
  103MOL0     C13784   9.987   4.374   2.560 -0.5612 -0.0004 -0.4883
  103MOL0     C13785  10.110   4.478   2.535  0.0857 -0.4008  0.1309
  103MOL0     C13786  10.250   4.434   2.584 -0.5135 -0.3207  0.4519
  103MOL0     N13787  10.230   4.371   2.710  0.7775  1.1374 -0.5662
  103MOL0     C13788  10.185   4.437   2.823  0.0991 -0.9698 -0.5619
  103MOL0     C13789  10.154   4.346   2.914 -0.1332 -0.0672 -0.4236
  103MOL0     C13790  10.112   4.347   3.059 -0.6695 -0.5960 -0.4328
  103MOL0     C13791   9.971   4.371   3.092  0.6628 -0.7362  0.5196
  103MOL0     C13792   9.870   4.273   3.033 -0.0184 -0.0723 -0.1965
  103MOL0     C13793   9.720   4.309   3.064 -0.6358 -0.2063  1.1589
  103MOL0     O13794   9.688   4.422   2.986 -0.9080 -0.1838 -0.1465
  103MOL0     C13795   9.559   4.458   2.976  0.4492 -0.9570 -0.5261
  103MOL0     C13796   9.527   4.570   2.889 -0.4165 -0.0254 -0.5567
  103MOL0     C13797   9.397   4.619   2.882 -0.5385 -0.6351 -0.2458
  103MOL0     C13798   9.294   4.561   2.963  0.0462 -0.1170  0.8100
  103MOL0     C13799   9.151   4.621   2.951 -0.1906  0.2540 -0.0958
  103MOL0     O13800   9.042   4.543   2.989  0.0816 -0.6047  0.2050
  103MOL0     C13801   8.907   4.579   2.992 -0.1586  0.6821 -0.1315
  103MOL0     C13802   8.855   4.683   2.912 -0.2198 -0.1562  0.0962
  103MOL0     C13803   8.719   4.723   2.923  0.0386 -0.0705 -0.5123
  103MOL0     C13804   8.635   4.665   3.021  0.4654  0.0001  0.2100
  103MOL0     O13805   8.508   4.697   3.047 -0.4507 -0.2927  0.2977
  103MOL0     C13806   8.451   4.818   2.988 -0.2345 -0.2851 -0.5523
  103MOL0     C13807   8.309   4.815   3.032  0.0727 -0.4055 -0.4708
  103MOL0     C13808   8.244   4.678   2.992 -0.3134  0.0280 -0.2002
  103MOL0     C13809   8.117   4.649   3.064  0.5382 -0.1117 -0.0700
  103MOL0     C13810   8.044   4.542   2.985  0.6960  0.1613  0.0319
  103MOL0     C13811   7.897   4.521   3.032  0.2186 -0.4422  0.6988
  103MOL0     C13812   7.823   4.443   2.922  0.0360  0.4607 -0.1036
  103MOL0     C13813   7.668   4.433   2.934 -0.4167 -0.1891 -0.2481
  103MOL0    Cl13814   7.593   4.567   2.846 -0.2244 -0.0640 -0.0321
  103MOL0     C13815   8.701   4.570   3.103  1.5116 -0.8334  1.1265
  103MOL0     C13816   8.821   4.517   3.084  0.1954 -0.1873 -0.0036
  103MOL0     O13817   9.142   4.734   2.898 -0.1096 -0.1550 -0.3640
  103MOL0     C13818   9.320   4.445   3.035 -0.1719  0.5965 -0.1240
  103MOL0     C13819   9.446   4.393   3.039  0.0165 -0.4954 -0.0384
  103MOL0     N13820  10.183   4.220   2.854 -0.6694  0.1189 -0.7934
  103MOL0     N13821  10.214   4.245   2.731  0.2387  0.2332 -0.3814
  103MOL0     C13822   9.157   4.691   2.553 -0.1909 -0.3828 -0.1845
  103MOL0     C13823   9.043   4.761   2.507  0.2901 -0.2366 -0.8619
  103MOL0     C13824   8.704   4.890   2.249 -0.1245 -0.3984  0.0211
  103MOL0     C13825   8.589   4.847   2.325  0.9558 -1.1481 -0.6740
  103MOL0     C13826   8.461   4.899   2.307  0.1744 -0.1598 -0.4860
  103MOL0     C13827   8.444   5.002   2.215  0.5270  0.1464  0.2005
  103MOL0     O13828   8.321   5.071   2.193  0.1204  0.3603  0.3801
  103MOL0     C13829   8.241   5.102   2.304 -0.4478 -0.2761 -0.6158
  103MOL0     C13830   8.128   5.007   2.321 -0.0428  0.5411 -0.7473
  103MOL0     C13831   8.030   5.058   2.426 -0.1715  1.0776  0.3188
  103MOL0     C13832   8.042   5.005   2.569  1.0155 -0.2784  0.5603
  103MOL0     C13833   8.177   5.047   2.629  0.5392 -0.4482 -0.2404
  103MOL0     C13834   8.291   5.077   2.675 -0.4252  0.3755 -0.0987
  103MOL0     C13835   8.555   5.038   2.143  0.5349  0.4873 -0.3966
  103MOL0     C13836   8.682   4.985   2.152 -0.5994 -1.0030  0.5509
  103MOL0     C13837   8.803   5.033   2.055  0.0675  0.4949  0.3252
  103MOL0     H13838   8.915   4.524   2.310  0.0853  3.3169 -2.3084
  103MOL0     H13839   9.122   4.411   2.372 -3.4470  0.6230 -1.6853
  103MOL0     H13840   9.268   4.324   2.537  0.0231  1.3324  0.4441
  103MOL0     H13841   9.356   4.401   2.398 -1.4285  2.3812 -0.8949
  103MOL0     H13842   9.494   4.229   2.513  2.3051 -0.2435  0.7408
  103MOL0     H13843   9.464   4.310   2.664 -0.0165 -1.0681  0.9883
  103MOL0     H13844   9.594   4.517   2.566 -1.2223 -0.9433  2.6838
  103MOL0     H13845   9.605   4.433   2.416  1.2829 -1.6512  0.3593
  103MOL0     H13846   9.735   4.307   2.661 -3.0899  1.0545  0.3144
  103MOL0     H13847   9.753   4.252   2.499  1.4953 -1.7382  2.0387
  103MOL0     H13848   9.841   4.462   2.420 -0.5862 -1.7948 -0.7189
  103MOL0     H13849   9.838   4.539   2.579  4.1955  0.1747 -2.2165
  103MOL0     H13850   9.992   4.337   2.663  1.7501 -1.5733 -1.0876
  103MOL0     H13851   9.995   4.284   2.498 -3.6808 -0.3514 -0.5766
  103MOL0     H13852  10.090   4.578   2.574  2.3254 -0.6861  2.2089
  103MOL0     H13853  10.115   4.492   2.426 -2.2140 -2.7899 -0.3837
  103MOL0     H13854  10.290   4.356   2.519 -1.9234  1.0731 -2.2447
  103MOL0     H13855  10.319   4.519   2.595  1.7478 -1.7661 -1.7531
  103MOL0     H13856  10.168   4.543   2.835  2.0178 -0.7901  1.2498
  103MOL0     H13857  10.143   4.257   3.113  0.1097  1.2575  2.3738
  103MOL0     H13858  10.170   4.431   3.097 -0.1087  0.4501 -3.2881
  103MOL0     H13859   9.962   4.367   3.201  1.0907 -0.1619  0.5752
  103MOL0     H13860   9.942   4.474   3.072  0.3761 -0.3712  2.5685
  103MOL0     H13861   9.885   4.174   3.078  0.3667  0.6676  1.3399
  103MOL0     H13862   9.894   4.263   2.926  0.4854  1.8526 -0.3007
  103MOL0     H13863   9.703   4.339   3.168 -0.6355 -0.4155  1.2218
  103MOL0     H13864   9.660   4.218   3.045  1.9686 -1.7581 -0.1658
  103MOL0     H13865   9.608   4.622   2.839  2.9637 -1.7627  2.6033
  103MOL0     H13866   9.383   4.717   2.839  3.4282 -0.5704 -1.8692
  103MOL0     H13867   8.915   4.710   2.826 -0.5044 -0.0681 -0.0754
  103MOL0     H13868   8.683   4.802   2.858 -0.8599 -0.8278 -0.9632
  103MOL0     H13869   8.508   4.904   3.023  0.5826 -0.7478 -0.6919
  103MOL0     H13870   8.462   4.818   2.879 -0.2513  1.6052 -0.5729
  103MOL0     H13871   8.305   4.831   3.140  1.3989 -1.8174 -0.1897
  103MOL0     H13872   8.242   4.889   2.986 -1.8577 -1.8661 -0.1390
  103MOL0     H13873   8.237   4.682   2.883  0.7550 -0.0638 -0.2871
  103MOL0     H13874   8.301   4.588   3.016  1.7080  2.0886  3.7094
  103MOL0     H13875   8.051   4.736   3.073  1.6204  0.8106 -0.7522
  103MOL0     H13876   8.138   4.621   3.168  1.5339  0.9022  0.0316
  103MOL0     H13877   8.096   4.446   2.999 -0.0615 -0.5509 -1.6908
  103MOL0     H13878   8.044   4.567   2.879 -1.9996  1.5380  0.2701
  103MOL0     H13879   7.897   4.461   3.124  0.4751 -2.5334 -0.6219
  103MOL0     H13880   7.855   4.621   3.051  3.1420  0.8409  0.9400
  103MOL0     H13881   7.849   4.338   2.933 -2.6311 -0.1866  0.6185
  103MOL0     H13882   7.862   4.465   2.822 -1.9015  0.0120 -0.9940
  103MOL0     H13883   7.656   4.335   2.887  2.1874 -0.8362  0.2823
  103MOL0     H13884   7.622   4.424   3.033 -2.6721 -0.4138 -1.2678
  103MOL0     H13885   8.638   4.531   3.182  0.3856  0.0748  0.7051
  103MOL0     H13886   8.847   4.432   3.147  2.0828 -0.9448 -1.7099
  103MOL0     H13887   9.237   4.401   3.089  0.2586  2.1130  1.8826
  103MOL0     H13888   9.459   4.297   3.089  1.1598  0.4261  1.5107
  103MOL0     H13889   9.225   4.739   2.623  0.9995  1.0902 -2.2474
  103MOL0     H13890   9.027   4.862   2.544 -0.9851 -1.1013  1.1127
  103MOL0     H13891   8.606   4.761   2.389  1.0445 -1.5819 -1.2679
  103MOL0     H13892   8.372   4.859   2.353 -0.6846  0.3638 -1.6377
  103MOL0     H13893   8.205   5.203   2.286 -0.8964 -0.2939  0.1366
  103MOL0     H13894   8.302   5.113   2.394 -0.5647  1.1368 -0.6809
  103MOL0     H13895   8.172   4.910   2.348  2.4127  2.1468  1.5730
  103MOL0     H13896   8.078   4.994   2.225 -0.7614  0.5021 -0.3742
  103MOL0     H13897   7.932   5.019   2.398  0.0907 -0.6629  1.5919
  103MOL0     H13898   8.035   5.166   2.409  1.4176  0.5404 -3.6813
  103MOL0     H13899   7.958   5.040   2.629 -0.4629 -1.6110 -0.6459
  103MOL0     H13900   8.047   4.896   2.563  0.9833 -0.2177 -0.9266
  103MOL0     H13901   8.385   5.108   2.715  0.1018 -1.9208  0.5790
  103MOL0     H13902   8.540   5.112   2.065  0.2016 -0.2574 -1.0536
  103MOL0     H13903   8.886   5.082   2.109  0.0490  0.7828  0.0946
  103MOL0     H13904   8.838   4.954   1.988 -1.0572 -0.2183  0.5633
  103MOL0     H13905   8.764   5.119   1.999 -0.5982 -0.2360 -0.3469
  104MOL0     O13906  11.174   4.554   7.949 -0.4973 -0.5769 -0.6633
  104MOL0     C13907  11.150   4.521   7.840  0.2297 -0.4367  0.1500
  104MOL0     O13908  11.234   4.447   7.773 -0.1181 -0.5991  0.6706
  104MOL0     C13909  11.343   4.401   7.840 -0.0184  0.2691  0.4212
  104MOL0     C13910  11.468   4.426   7.779 -0.0406 -0.5115 -2.1606
  104MOL0     C13911  11.583   4.368   7.839 -0.1002 -1.5242  0.6242
  104MOL0     C13912  11.576   4.302   7.962  0.1299 -0.2322 -0.1272
  104MOL0     O13913  11.681   4.262   8.028 -0.4115  0.7795  0.0789
  104MOL0     C13914  11.802   4.322   7.984 -0.1737 -0.9281 -0.5251
  104MOL0     C13915  11.890   4.274   8.097 -0.0985  0.4824  0.1597
  104MOL0     C13916  12.035   4.337   8.080  0.2407 -0.0410 -0.1765
  104MOL0     C13917  12.135   4.222   8.065  0.6218 -0.0418 -0.0326
  104MOL0     C13918  12.275   4.276   8.033  0.2976 -0.5405 -0.3187
  104MOL0     C13919  12.365   4.144   8.022  0.9244 -0.5981  0.1608
  104MOL0     C13920  12.518   4.167   8.005 -0.4589  1.2323  0.4897
  104MOL0     C13921  12.561   4.225   7.861 -0.5133  0.3504 -0.3766
  104MOL0     N13922  12.709   4.208   7.849  0.3425  0.5228 -0.1460
  104MOL0     C13923  12.772   4.097   7.795  0.4643 -0.1483 -0.8413
  104MOL0     C13924  12.903   4.136   7.786 -0.1627 -0.2437  0.5784
  104MOL0     C13925  13.018   4.050   7.743  0.0045 -0.0817 -0.7645
  104MOL0     C13926  13.150   4.115   7.783 -0.1337 -0.1079 -0.0135
  104MOL0     C13927  13.262   4.009   7.753  0.1515  0.3253  0.6717
  104MOL0     C13928  13.404   4.056   7.811  0.6714 -0.3715 -0.1500
  104MOL0     O13929  13.499   3.948   7.819 -0.0381 -0.4415 -0.1706
  104MOL0     C13930  13.591   3.940   7.718  0.9098  0.2051 -0.6984
  104MOL0     C13931  13.575   3.858   7.612 -0.9558  0.4714  0.8709
  104MOL0     C13932  13.680   3.848   7.515  0.6386 -0.1496 -0.3202
  104MOL0     C13933  13.799   3.921   7.535 -0.2295  0.5751 -0.2570
  104MOL0     C13934  13.898   3.901   7.440 -0.1139  0.2379  0.8499
  104MOL0     O13935  14.006   3.977   7.457  0.0584 -0.9921  0.2361
  104MOL0     C13936  14.101   3.987   7.361  0.2136  0.3796 -1.1502
  104MOL0     C13937  14.097   4.088   7.274 -0.1708 -1.1704 -0.4724
  104MOL0     C13938  14.202   4.105   7.182 -0.1793  0.7549  0.4461
  104MOL0     C13939  14.315   4.016   7.171  0.1174 -0.2958 -0.6009
  104MOL0     O13940  14.411   4.046   7.073 -0.5877  0.0567 -0.0723
  104MOL0     C13941  14.556   4.025   7.099 -1.4688 -0.4931 -1.2396
  104MOL0     C13942  14.637   4.089   6.979 -0.1971 -0.0711  0.3651
  104MOL0     C13943  14.592   4.010   6.853 -0.5623  0.2213 -0.4074
  104MOL0     C13944  14.655   3.866   6.842 -0.4525  0.1600  0.6525
  104MOL0     C13945  14.623   3.812   6.703  0.2803 -0.4778  1.1879
  104MOL0     C13946  14.585   3.662   6.707 -0.7441 -0.8032 -0.0474
  104MOL0     C13947  14.555   3.615   6.562 -0.0365  0.1706  0.0581
  104MOL0     C13948  14.481   3.485   6.574  0.2798 -0.3837  0.8197
  104MOL0    Cl13949  14.400   3.457   6.413 -0.2637 -0.0181  0.0763
  104MOL0     C13950  14.320   3.915   7.264  0.8959  0.0596  0.1286
  104MOL0     C13951  14.215   3.899   7.362  0.4864 -0.2538  0.6686
  104MOL0     O13952  13.886   3.814   7.355  0.1326 -0.3725  0.4185
  104MOL0     C13953  13.803   4.010   7.646 -0.4380  0.0504 -0.5265
  104MOL0     C13954  13.704   4.021   7.735 -0.1690  0.0277  0.5118
  104MOL0     N13955  12.918   4.271   7.822  0.2870 -0.9870  0.7136
  104MOL0     N13956  12.800   4.308   7.866 -0.0282 -0.1859 -0.2300
  104MOL0     C13957  11.453   4.276   8.022 -0.1682 -0.0034  0.9476
  104MOL0     C13958  11.335   4.320   7.957  0.3513 -0.0044  0.1424
  104MOL0     C13959  11.027   4.556   7.771  0.1703  0.2976 -0.7689
  104MOL0     C13960  10.910   4.556   7.849 -0.6137 -0.2180  0.6950
  104MOL0     C13961  10.786   4.577   7.791 -0.1853 -0.5620 -0.3886
  104MOL0     C13962  10.773   4.608   7.655  0.3230  1.5058 -0.4000
  104MOL0     O13963  10.638   4.622   7.612 -0.1379  0.6496  0.2550
  104MOL0     C13964  10.603   4.660   7.480 -0.0572  0.1303  0.0254
  104MOL0     C13965  10.537   4.540   7.400  1.4406 -0.0998 -0.3928
  104MOL0     C13966  10.409   4.492   7.475 -0.4893 -0.3787 -0.3662
  104MOL0     C13967  10.295   4.436   7.384 -1.0938  0.4277  0.9719
  104MOL0     C13968  10.164   4.430   7.454  0.7165  0.1879  0.5040
  104MOL0     C13969  10.056   4.426   7.505 -0.2493 -0.4524  0.1965
  104MOL0     C13970  10.891   4.594   7.582  0.3682 -0.6516  0.8489
  104MOL0     C13971  11.014   4.574   7.635 -0.5918 -0.1041  0.1215
  104MOL0     C13972  11.131   4.577   7.540  0.1809 -0.6534 -0.3504
  104MOL0     H13973  11.462   4.480   7.685 -2.2423 -1.0537 -2.3914
  104MOL0     H13974  11.676   4.389   7.787 -1.4379 -1.3630 -1.8546
  104MOL0     H13975  11.844   4.288   7.888  2.3293 -2.1969  0.9076
  104MOL0     H13976  11.802   4.431   7.990  1.0773 -0.9119 -0.6156
  104MOL0     H13977  11.900   4.168   8.073  1.1995  0.0860  2.1331
  104MOL0     H13978  11.844   4.282   8.196 -2.6465  0.2768 -0.9372
  104MOL0     H13979  12.054   4.403   8.165 -0.9449 -0.4216  0.3954
  104MOL0     H13980  12.033   4.403   7.992  1.8142  3.0845  1.9660
  104MOL0     H13981  12.148   4.170   8.160  0.3771 -1.2038 -0.6266
  104MOL0     H13982  12.105   4.153   7.986  1.1005 -0.4861  0.1690
  104MOL0     H13983  12.272   4.336   7.942  0.1078 -0.7842 -0.4765
  104MOL0     H13984  12.304   4.346   8.112 -2.0883  0.8485 -0.6176
  104MOL0     H13985  12.349   4.091   8.117 -2.4346  2.1555  1.3353
  104MOL0     H13986  12.330   4.083   7.938  2.2963 -0.5846 -0.4407
  104MOL0     H13987  12.558   4.066   8.020 -4.4354 -1.0334 -2.3333
  104MOL0     H13988  12.556   4.230   8.085  4.0151 -0.0265 -0.3736
  104MOL0     H13989  12.513   4.165   7.783 -2.4796  0.9710  0.2914
  104MOL0     H13990  12.528   4.327   7.839  2.5385  1.2827 -1.0271
  104MOL0     H13991  12.724   4.001   7.778  0.3332 -0.1299 -0.5735
  104MOL0     H13992  13.012   3.953   7.794 -0.6299  0.5597  0.4178
  104MOL0     H13993  13.003   4.029   7.637  0.5460  1.7688 -1.2311
  104MOL0     H13994  13.167   4.211   7.732  2.6886 -0.9160 -0.8071
  104MOL0     H13995  13.146   4.139   7.890  0.6535  0.2929 -0.0581
  104MOL0     H13996  13.280   3.975   7.651 -0.2482 -0.8245  0.9645
  104MOL0     H13997  13.225   3.926   7.814 -1.6631  1.4849  1.2255
  104MOL0     H13998  13.390   4.094   7.913 -2.1408 -0.9584 -0.2385
  104MOL0     H13999  13.439   4.139   7.748  0.0712 -0.9189 -1.2201
  104MOL0     H14000  13.485   3.799   7.619 -0.8306 -0.1371 -1.7403
  104MOL0     H14001  13.659   3.774   7.438  0.9638 -3.8400  2.8031
  104MOL0     H14002  14.019   4.163   7.268  1.5598  0.7999  0.4262
  104MOL0     H14003  14.198   4.195   7.122  1.6987  1.0035  0.6124
  104MOL0     H14004  14.590   4.090   7.181  0.0596  0.5149 -2.6039
  104MOL0     H14005  14.589   3.923   7.121 -2.2735 -0.4934  0.0983
  104MOL0     H14006  14.609   4.193   6.960 -0.0072  0.2552  1.7860
  104MOL0     H14007  14.745   4.091   6.995 -0.3754  0.7460  1.6262
  104MOL0     H14008  14.485   3.989   6.846 -0.1471 -2.4679  0.1150
  104MOL0     H14009  14.617   4.076   6.770 -1.0814  1.2663  0.2455
  104MOL0     H14010  14.623   3.800   6.923 -2.1748  0.6393  0.3986
  104MOL0     H14011  14.764   3.868   6.851 -0.5492  0.4007  1.8634
  104MOL0     H14012  14.702   3.819   6.628 -1.1094 -0.1063 -0.3108
  104MOL0     H14013  14.542   3.872   6.661  0.2422 -1.3989 -0.1009
  104MOL0     H14014  14.675   3.611   6.742  0.0489  0.4727 -0.1718
  104MOL0     H14015  14.500   3.653   6.777 -0.3004  1.2394  0.8397
  104MOL0     H14016  14.641   3.602   6.496 -2.5961 -1.2330 -3.3202
  104MOL0     H14017  14.490   3.693   6.521 -1.8319 -0.7084  1.0751
  104MOL0     H14018  14.548   3.402   6.600 -0.9488 -1.6137  0.1959
  104MOL0     H14019  14.408   3.483   6.656 -1.5555 -1.3785 -0.7514
  104MOL0     H14020  14.399   3.840   7.262 -0.6820 -1.7071  1.1396
  104MOL0     H14021  14.216   3.817   7.433  0.3787 -0.1405  0.8002
  104MOL0     H14022  13.890   4.071   7.670  0.2115 -1.7356  2.0427
  104MOL0     H14023  13.712   4.088   7.820 -2.3539 -0.5514  1.2311
  104MOL0     H14024  11.469   4.212   8.109  0.9385  0.4820  1.1195
  104MOL0     H14025  11.239   4.303   8.003  0.8681 -2.1389  0.5038
  104MOL0     H14026  10.915   4.539   7.956  1.1352  1.4762  0.9199
  104MOL0     H14027  10.697   4.573   7.854  0.9055 -0.5300  1.2052
  104MOL0     H14028  10.690   4.699   7.424 -0.0099 -1.1923 -0.8649
  104MOL0     H14029  10.532   4.742   7.494  0.5650  0.4051  1.7553
  104MOL0     H14030  10.610   4.460   7.380 -0.6589 -2.1657 -0.1807
  104MOL0     H14031  10.509   4.578   7.301  0.3907  1.3249  0.4088
  104MOL0     H14032  10.372   4.575   7.535  2.4313  0.8743 -0.1068
  104MOL0     H14033  10.430   4.416   7.550 -2.8834 -1.6020 -0.8376
  104MOL0     H14034  10.292   4.511   7.304  3.0974  0.6717  0.8477
  104MOL0     H14035  10.330   4.339   7.346  0.4194  1.1055  0.5599
  104MOL0     H14036   9.962   4.413   7.556 -0.2931 -2.0093 -0.2159
  104MOL0     H14037  10.871   4.598   7.475  1.2804  0.2306  0.7027
  104MOL0     H14038  11.166   4.476   7.518  0.4612 -0.4218 -1.0018
  104MOL0     H14039  11.101   4.622   7.445 -0.6545  1.6318  0.9173
  104MOL0     H14040  11.218   4.627   7.583  0.9872 -1.9640 -0.3919
  105MOL0     O14041   5.613   2.921   1.913  0.5830  0.1049 -0.1387
  105MOL0     C14042   5.600   2.816   1.841  0.6447 -0.0722  0.2143
  105MOL0     O14043   5.692   2.765   1.750  0.0560 -0.2266 -0.3321
  105MOL0     C14044   5.810   2.836   1.738 -1.0157  0.7053 -0.1574
  105MOL0     C14045   5.822   2.930   1.639  0.7403  0.1785 -0.7899
  105MOL0     C14046   5.942   3.001   1.623  0.6414 -0.1688 -0.0323
  105MOL0     C14047   6.059   2.970   1.706  0.1697  0.4834 -0.3839
  105MOL0     O14048   6.178   3.031   1.680  1.1655 -0.4652  0.4133
  105MOL0     C14049   6.286   3.056   1.777  0.3371 -0.1411 -0.1817
  105MOL0     C14050   6.252   3.161   1.881  0.1097  0.9270  0.9932
  105MOL0     C14051   6.374   3.208   1.953 -0.6169 -0.7943  0.5187
  105MOL0     C14052   6.459   3.314   1.868  0.7436  0.2098 -0.6915
  105MOL0     C14053   6.582   3.367   1.947  1.2892  0.1492 -0.3075
  105MOL0     C14054   6.651   3.467   1.869 -0.4263  0.3231  0.0234
  105MOL0     C14055   6.784   3.506   1.932 -0.0395 -0.9668  0.5293
  105MOL0     C14056   6.767   3.575   2.070 -0.0915  0.4369 -0.2156
  105MOL0     N14057   6.880   3.657   2.110  0.0660  0.5475  0.1536
  105MOL0     C14058   6.887   3.793   2.088 -0.2375 -0.4566 -0.6316
  105MOL0     C14059   7.017   3.824   2.125  0.3394  1.1929 -0.5698
  105MOL0     C14060   7.092   3.951   2.116  0.0312 -0.2813 -0.2952
  105MOL0     C14061   7.118   3.985   1.967 -0.3418 -0.7223  0.0162
  105MOL0     C14062   7.183   3.873   1.895 -0.5765 -1.3788  0.3092
  105MOL0     C14063   7.231   3.927   1.759 -0.3890 -0.8393 -0.4159
  105MOL0     O14064   7.371   3.888   1.740  0.0053  0.4101 -0.0568
  105MOL0     C14065   7.473   3.976   1.740  0.0746 -0.1309  0.0874
  105MOL0     C14066   7.465   4.080   1.831  0.1710  0.1052 -0.0388
  105MOL0     C14067   7.551   4.190   1.819 -0.2331  0.0577 -0.3147
  105MOL0     C14068   7.650   4.194   1.718  0.9537  0.0039 -0.1516
  105MOL0     C14069   7.744   4.313   1.705  0.2017 -0.3873 -0.3702
  105MOL0     O14070   7.818   4.322   1.590 -0.6636 -0.4623  0.2876
  105MOL0     C14071   7.923   4.418   1.596  0.0389 -0.9083  0.2621
  105MOL0     C14072   8.026   4.403   1.687  0.9556 -0.2773 -0.3666
  105MOL0     C14073   8.133   4.495   1.694 -0.0067  0.0407 -0.0132
  105MOL0     C14074   8.138   4.594   1.598  0.9649  0.2374  0.3806
  105MOL0     O14075   8.251   4.675   1.593  0.0318 -0.2954 -0.1681
  105MOL0     C14076   8.328   4.664   1.463  0.1722 -0.3421 -0.9453
  105MOL0     C14077   8.461   4.600   1.498  0.2311  0.0594  0.1396
  105MOL0     C14078   8.559   4.617   1.384  0.3822  0.3562  1.5835
  105MOL0     C14079   8.664   4.504   1.409 -0.7677  0.0612  0.6040
  105MOL0     C14080   8.775   4.519   1.302  0.9279 -0.8322  0.5745
  105MOL0     C14081   8.886   4.419   1.296  0.3783 -0.0145 -0.3745
  105MOL0     C14082   8.966   4.409   1.430  0.1770 -0.4502  0.4513
  105MOL0     C14083   9.057   4.290   1.414  0.0824  0.7869 -0.6408
  105MOL0    Cl14084   9.155   4.292   1.255 -0.0328  0.0416 -0.6345
  105MOL0     C14085   8.034   4.603   1.508 -0.4628  0.9091 -0.0425
  105MOL0     C14086   7.924   4.519   1.505 -0.7872 -0.9644  0.0157
  105MOL0     O14087   7.753   4.393   1.804 -0.5255  0.0732 -0.5719
  105MOL0     C14088   7.655   4.090   1.622 -0.5507 -0.1344  0.2145
  105MOL0     C14089   7.560   3.990   1.631 -0.5656  0.8378  0.1461
  105MOL0     N14090   7.076   3.703   2.164 -0.3307  0.2764 -0.2620
  105MOL0     N14091   6.995   3.603   2.153 -0.3384  0.5322 -0.8341
  105MOL0     C14092   6.040   2.874   1.806  0.0079 -0.3395 -0.3432
  105MOL0     C14093   5.922   2.809   1.822 -0.1054  0.2181 -0.1564
  105MOL0     C14094   5.475   2.745   1.851  0.4677  0.1544  0.5699
  105MOL0     C14095   5.358   2.816   1.839  0.2220  0.3826 -0.1297
  105MOL0     C14096   5.235   2.760   1.847  0.8178  0.2947  1.2551
  105MOL0     C14097   5.217   2.626   1.868 -0.5067  0.7100  0.3914
  105MOL0     O14098   5.096   2.573   1.870  0.1716  0.0197  0.0408
  105MOL0     C14099   5.089   2.436   1.817  0.8005  0.2341 -0.1561
  105MOL0     C14100   4.947   2.409   1.764  0.0598 -0.2909 -0.1374
  105MOL0     C14101   4.936   2.450   1.616  0.9062  0.4137  0.4351
  105MOL0     C14102   4.801   2.414   1.556  0.2524 -0.1095  0.2593
  105MOL0     C14103   4.768   2.271   1.550 -0.3766  0.4029 -0.0163
  105MOL0     C14104   4.737   2.154   1.543  0.0015 -0.2588 -0.0409
  105MOL0     C14105   5.337   2.552   1.876  0.0144 -0.0198  0.1269
  105MOL0     C14106   5.464   2.606   1.871 -0.4027 -0.7561 -0.2601
  105MOL0     C14107   5.585   2.515   1.896 -0.6109 -0.1203  0.2153
  105MOL0     H14108   5.743   2.952   1.567  1.7878 -0.4670 -2.1778
  105MOL0     H14109   5.954   3.077   1.547 -1.2022 -1.3677 -1.6118
  105MOL0     H14110   6.308   2.959   1.823  1.0550 -0.0007 -0.2202
  105MOL0     H14111   6.376   3.089   1.724  1.3597  0.7675  1.9870
  105MOL0     H14112   6.182   3.125   1.958  0.7269  0.8683  1.5347
  105MOL0     H14113   6.206   3.245   1.827  0.3655  0.1032 -0.5627
  105MOL0     H14114   6.443   3.125   1.973  2.1948  1.1725 -0.4179
  105MOL0     H14115   6.352   3.253   2.050  3.1972 -1.7116  1.9918
  105MOL0     H14116   6.503   3.266   1.780  1.9649 -0.1270  0.0824
  105MOL0     H14117   6.392   3.395   1.837  2.1029  1.6425 -0.0250
  105MOL0     H14118   6.544   3.413   2.039  1.7019 -1.8447  0.9078
  105MOL0     H14119   6.653   3.289   1.974 -0.9766 -1.7531  0.4387
  105MOL0     H14120   6.669   3.419   1.772  3.0438 -3.6021  2.2927
  105MOL0     H14121   6.589   3.555   1.849 -2.2336 -1.0125 -0.5079
  105MOL0     H14122   6.845   3.575   1.873 -0.1640  0.3997  1.9505
  105MOL0     H14123   6.849   3.418   1.943  2.5976  0.0781 -3.9635
  105MOL0     H14124   6.677   3.637   2.074  1.1381  2.2315  1.4294
  105MOL0     H14125   6.763   3.503   2.152 -2.8875  5.0868  4.3102
  105MOL0     H14126   6.802   3.845   2.046 -0.8380  0.4113  1.5493
  105MOL0     H14127   7.036   4.031   2.165  1.3979  0.9541 -0.6922
  105MOL0     H14128   7.182   3.931   2.173 -0.7907 -0.7745  0.8723
  105MOL0     H14129   7.027   4.018   1.916  1.0746  0.0559 -2.1694
  105MOL0     H14130   7.184   4.072   1.972 -2.1011  0.6094  1.1345
  105MOL0     H14131   7.107   3.796   1.878 -0.1688 -1.9219  0.9090
  105MOL0     H14132   7.270   3.840   1.953  1.8452  2.9154 -0.4797
  105MOL0     H14133   7.223   4.035   1.745  0.5433 -0.9024 -1.6083
  105MOL0     H14134   7.169   3.878   1.683  0.3560 -0.8844 -1.0090
  105MOL0     H14135   7.396   4.073   1.914  0.9667  0.2129  0.6539
  105MOL0     H14136   7.559   4.270   1.892  0.3129 -0.3035  0.0261
  105MOL0     H14137   8.023   4.316   1.751  1.7486 -1.5664 -1.9909
  105MOL0     H14138   8.195   4.474   1.780 -0.3623 -2.6531 -0.3152
  105MOL0     H14139   8.264   4.610   1.393 -2.7988 -1.6599  2.4436
  105MOL0     H14140   8.342   4.764   1.422  0.5576 -0.4328 -1.0375
  105MOL0     H14141   8.501   4.643   1.590  1.0076  1.3818 -0.7918
  105MOL0     H14142   8.441   4.494   1.520  1.2799 -0.5081 -1.4418
  105MOL0     H14143   8.499   4.597   1.294 -0.2981 -0.9302  2.2912
  105MOL0     H14144   8.596   4.719   1.383  0.4324  0.3453  2.0843
  105MOL0     H14145   8.620   4.405   1.395 -0.6157  0.2328 -1.2869
  105MOL0     H14146   8.719   4.511   1.503  4.9318 -1.8520 -2.1144
  105MOL0     H14147   8.826   4.615   1.311 -1.7520  0.7817 -0.3291
  105MOL0     H14148   8.737   4.531   1.201 -2.4325 -3.8213  1.2682
  105MOL0     H14149   8.859   4.318   1.266  2.0604 -0.8839  0.8618
  105MOL0     H14150   8.952   4.458   1.218 -0.3919  0.4496 -0.8041
  105MOL0     H14151   8.909   4.390   1.522  1.6696 -2.3616  1.0629
  105MOL0     H14152   9.027   4.498   1.451  0.7473 -1.0675  1.5001
  105MOL0     H14153   9.137   4.295   1.488 -0.6156 -0.7521  0.2762
  105MOL0     H14154   8.997   4.198   1.424  1.2621 -0.2552 -2.5759
  105MOL0     H14155   8.040   4.680   1.432 -0.1206  1.2067  0.2760
  105MOL0     H14156   7.842   4.527   1.434 -1.4815 -0.2664  0.8696
  105MOL0     H14157   7.739   4.085   1.554 -0.8684  0.8171 -0.2507
  105MOL0     H14158   7.567   3.911   1.557  2.3857 -0.6764  1.8723
  105MOL0     H14159   6.126   2.849   1.868  0.4700 -0.6070 -1.0823
  105MOL0     H14160   5.913   2.732   1.898 -0.4285  0.3697 -0.0389
  105MOL0     H14161   5.355   2.924   1.833 -1.8624  0.6959  3.6919
  105MOL0     H14162   5.147   2.822   1.837  0.5761 -0.2956 -0.6537
  105MOL0     H14163   5.120   2.362   1.891 -0.8823  0.1186  0.4816
  105MOL0     H14164   5.159   2.427   1.734  1.7217  1.3147  0.4657
  105MOL0     H14165   4.871   2.461   1.824  0.0279 -1.9788  1.3555
  105MOL0     H14166   4.925   2.303   1.782 -0.0119 -0.5477 -1.5872
  105MOL0     H14167   5.010   2.393   1.559  0.0779  0.4240 -0.6974
  105MOL0     H14168   4.970   2.553   1.611 -0.0281  0.8647  2.5059
  105MOL0     H14169   4.721   2.468   1.606  0.2355  1.0802 -1.0106
  105MOL0     H14170   4.816   2.444   1.452 -0.7565 -0.3537  0.0306
  105MOL0     H14171   4.696   2.055   1.533 -0.7668  0.2598 -3.1415
  105MOL0     H14172   5.339   2.444   1.886  3.1389 -0.3031 -1.8582
  105MOL0     H14173   5.561   2.410   1.914  0.0473 -0.3445 -0.1737
  105MOL0     H14174   5.657   2.513   1.814 -0.4130  2.9273  0.1998
  105MOL0     H14175   5.642   2.548   1.983 -1.1497  1.9167 -0.1522
  106MOL0     O14176   1.387  10.871  11.262  0.4197 -0.2792  0.2831
  106MOL0     C14177   1.369  10.838  11.144 -0.0889  0.2091 -0.5134
  106MOL0     O14178   1.457  10.760  11.076  0.3423  0.2858  0.3871
  106MOL0     C14179   1.569  10.702  11.135  0.1430  0.4487  0.2356
  106MOL0     C14180   1.626  10.599  11.056  0.1946 -0.0508 -0.7929
  106MOL0     C14181   1.754  10.554  11.081  1.1160  0.6874 -0.8764
  106MOL0     C14182   1.834  10.602  11.191 -0.1472  0.2726  0.2864
  106MOL0     O14183   1.961  10.574  11.227  0.5286 -0.5116 -1.0063
  106MOL0     C14184   2.011  10.456  11.173 -0.6101  0.8577 -0.4926
  106MOL0     C14185   2.103  10.374  11.263 -0.1358  0.1121 -1.0093
  106MOL0     C14186   2.237  10.454  11.270  0.6086 -0.7552  0.0920
  106MOL0     C14187   2.347  10.377  11.358  1.2534 -0.1509  0.4874
  106MOL0     C14188   2.444  10.311  11.266 -0.2739 -0.6836  0.4028
  106MOL0     C14189   2.568  10.258  11.333  0.4054 -0.9500 -0.1154
  106MOL0     C14190   2.689  10.249  11.241 -0.1840  0.0357  0.1584
  106MOL0     C14191   2.817  10.183  11.291 -1.0906  0.0832 -0.0368
  106MOL0     N14192   2.904  10.285  11.360  0.0778 -0.1937 -0.3844
  106MOL0     C14193   2.874  10.330  11.483 -0.6160 -0.0387 -0.2183
  106MOL0     C14194   2.962  10.439  11.495 -0.1951 -0.1145 -0.5921
  106MOL0     C14195   2.954  10.530  11.613  0.0230  0.0536 -0.9207
  106MOL0     C14196   3.052  10.481  11.730  0.5572  0.0822  0.0705
  106MOL0     C14197   3.194  10.462  11.673  1.6010 -0.4975 -0.3424
  106MOL0     C14198   3.294  10.446  11.776 -0.4543  0.0956 -0.0222
  106MOL0     O14199   3.300  10.553  11.872 -0.3778 -0.3504  0.3581
  106MOL0     C14200   3.413  10.551  11.958  0.4727 -1.0046 -0.0979
  106MOL0     C14201   3.483  10.437  11.981  0.2852 -1.0908  0.3172
  106MOL0     C14202   3.597  10.435  12.054 -0.6000  0.6596  0.1154
  106MOL0     C14203   3.643  10.557  12.111 -0.5487  0.8863  1.1329
  106MOL0     C14204   3.776  10.556  12.184  0.0264 -0.5678 -0.7547
  106MOL0     O14205   3.844  10.433  12.197 -0.4576 -0.2542  0.6623
  106MOL0     C14206   3.932  10.409  12.302 -0.5536 -0.3927  0.0341
  106MOL0     C14207   3.981  10.498  12.396 -0.2981 -0.0708 -0.3314
  106MOL0     C14208   4.079  10.459  12.489  0.3385 -0.3673 -0.0174
  106MOL0     C14209   4.116  10.326  12.500 -0.2192 -0.2836  0.0249
  106MOL0     O14210   4.194  10.291  12.609 -0.4552  0.3124  0.3151
  106MOL0     C14211   4.224  10.153  12.621  0.3080  0.8201 -0.0627
  106MOL0     C14212   4.288  10.141  12.757 -0.5034  0.1295  0.0102
  106MOL0     C14213   4.443  10.136  12.746  0.3161 -0.2436  0.5801
  106MOL0     C14214   4.514  10.133  12.871  0.0225 -0.2715  0.1162
  106MOL0     C14215   4.664  10.096  12.851 -0.3436  0.3365  0.0541
  106MOL0     C14216   4.740  10.083  12.986 -0.3948  0.0781  0.1387
  106MOL0     C14217   4.700   9.962  13.061  1.1837 -0.6751 -0.0667
  106MOL0     C14218   4.803   9.907  13.161 -0.2634 -0.4447  0.7384
  106MOL0    Cl14219   4.748   9.746  13.215  0.3455 -0.3974  0.0458
  106MOL0     C14220   4.063  10.236  12.408  0.5059  0.4655 -0.1293
  106MOL0     C14221   3.968  10.277  12.306  0.0524  0.3584 -0.0233
  106MOL0     O14222   3.808  10.667  12.231 -0.5451 -0.8800 -0.7624
  106MOL0     C14223   3.575  10.674  12.075 -0.3009  0.4701  0.0364
  106MOL0     C14224   3.460  10.676  12.000  1.4673  0.1431  0.2243
  106MOL0     N14225   3.037  10.455  11.376  0.0491  0.1130 -0.1054
  106MOL0     N14226   3.013  10.350  11.303  0.8303 -1.0718  0.0657
  106MOL0     C14227   1.771  10.692  11.278 -0.1472  0.4344  0.2846
  106MOL0     C14228   1.645  10.749  11.243 -0.5989  0.5258 -0.1885
  106MOL0     C14229   1.239  10.877  11.071 -0.4498  0.5084 -0.8938
  106MOL0     C14230   1.259  10.864  10.935  0.6901 -0.7130 -0.2324
  106MOL0     C14231   1.151  10.899  10.847  0.3414 -0.0140  0.8688
  106MOL0     C14232   1.031  10.958  10.897  1.1112  0.7354 -0.4861
  106MOL0     O14233   0.942  11.001  10.800 -0.0709 -0.1866  0.1832
  106MOL0     C14234   0.888  11.136  10.824 -0.1542 -0.1051 -0.5366
  106MOL0     C14235   0.730  11.136  10.848  0.0885 -0.3304 -0.6126
  106MOL0     C14236   0.674  11.280  10.854  0.0007 -0.8412  0.1840
  106MOL0     C14237   0.541  11.283  10.937  0.4041 -0.2916  0.3541
  106MOL0     C14238   0.508  11.420  10.991  0.0731  0.0361 -0.4756
  106MOL0     C14239   0.465  11.522  11.042  0.1412 -0.2590  0.7980
  106MOL0     C14240   1.008  10.973  11.036 -0.6107  0.5540 -0.2908
  106MOL0     C14241   1.116  10.930  11.125  0.3275 -0.0123 -0.6311
  106MOL0     C14242   1.083  10.931  11.276  0.1857  1.3080 -0.4144
  106MOL0     H14243   1.566  10.572  10.969 -0.3192  0.6082 -0.6516
  106MOL0     H14244   1.800  10.479  11.018  1.3991 -1.0837  1.2957
  106MOL0     H14245   1.930  10.385  11.154 -1.8421  1.5174  1.9016
  106MOL0     H14246   2.065  10.474  11.080  0.9376  0.2213  0.2271
  106MOL0     H14247   2.117  10.275  11.218 -1.7899  0.4478 -2.3591
  106MOL0     H14248   2.065  10.369  11.365  1.5090  1.0894 -0.3023
  106MOL0     H14249   2.225  10.556  11.308 -1.2985 -1.1035  0.5238
  106MOL0     H14250   2.271  10.469  11.167  1.5384  0.1309  0.5105
  106MOL0     H14251   2.396  10.454  11.419 -1.2752 -0.4835  3.2299
  106MOL0     H14252   2.291  10.304  11.418 -1.8191 -1.1579 -3.2191
  106MOL0     H14253   2.393  10.234  11.207 -0.0394 -1.3138  1.0046
  106MOL0     H14254   2.482  10.394  11.205  1.0452 -1.5233  0.0439
  106MOL0     H14255   2.590  10.317  11.423  1.2130 -3.2053  1.2294
  106MOL0     H14256   2.552  10.155  11.364  2.9692 -1.5227 -0.4684
  106MOL0     H14257   2.715  10.350  11.210 -0.6597  0.0455 -0.2168
  106MOL0     H14258   2.660  10.204  11.146 -0.3289  0.3088  0.0746
  106MOL0     H14259   2.796  10.104  11.364 -0.8371  0.3332  0.3092
  106MOL0     H14260   2.874  10.139  11.209  0.0053  0.9809  0.2156
  106MOL0     H14261   2.791  10.298  11.545  0.1632  1.1740  1.5469
  106MOL0     H14262   2.993  10.629  11.588  1.4887  0.1251  1.2699
  106MOL0     H14263   2.854  10.544  11.655  0.5429 -1.0320  0.7904
  106MOL0     H14264   3.059  10.545  11.818  2.3195  0.6186 -0.4104
  106MOL0     H14265   3.015  10.391  11.780 -0.3225 -0.1316 -0.9282
  106MOL0     H14266   3.216  10.541  11.601  0.4867 -0.7207 -0.9697
  106MOL0     H14267   3.184  10.364  11.624 -1.0626  0.1610 -1.2993
  106MOL0     H14268   3.392  10.413  11.740 -0.8212  0.3765 -1.3253
  106MOL0     H14269   3.256  10.363  11.837  2.1175  0.3964  2.1934
  106MOL0     H14270   3.442  10.340  11.953 -1.1769 -0.9707  1.8688
  106MOL0     H14271   3.646  10.343  12.082  0.9009  1.3212 -0.2299
  106MOL0     H14272   3.954  10.602  12.408  0.8197  0.3938 -1.5445
  106MOL0     H14273   4.132  10.528  12.553  1.9273 -3.4016  2.2012
  106MOL0     H14274   4.132  10.094  12.631  0.9613 -0.7592 -2.4411
  106MOL0     H14275   4.284  10.109  12.541 -0.4725  3.2395 -2.1143
  106MOL0     H14276   4.258  10.221  12.826 -0.1724  1.3228 -1.1896
  106MOL0     H14277   4.262  10.044  12.800  0.1890  0.3694  0.9984
  106MOL0     H14278   4.465  10.049  12.683 -0.6924  0.2988 -0.5699
  106MOL0     H14279   4.465  10.223  12.683  1.4091 -2.0470 -1.7120
  106MOL0     H14280   4.471  10.066  12.946 -0.1979  2.0186  2.1678
  106MOL0     H14281   4.509  10.234  12.913 -1.4809 -0.5800  0.7547
  106MOL0     H14282   4.706  10.171  12.783 -2.4856  1.0808 -0.5042
  106MOL0     H14283   4.675  10.001  12.798  1.5219  1.0948 -1.0170
  106MOL0     H14284   4.848  10.081  12.969  0.2614  1.4038  3.4219
  106MOL0     H14285   4.724  10.175  13.043 -0.6365 -0.9120  1.7155
  106MOL0     H14286   4.675   9.880  12.993  2.2521 -0.2752 -0.9767
  106MOL0     H14287   4.611   9.978  13.122  1.0510 -2.5705  0.3132
  106MOL0     H14288   4.900   9.901  13.109 -1.3563  1.2129 -1.6827
  106MOL0     H14289   4.825   9.979  13.240  1.8817  0.4019 -0.5232
  106MOL0     H14290   4.072  10.128  12.408 -0.5474  0.2865  2.8825
  106MOL0     H14291   3.929  10.206  12.234  2.0144  1.5384 -2.3762
  106MOL0     H14292   3.615  10.768  12.113 -0.1199 -0.4536  2.2655
  106MOL0     H14293   3.411  10.770  11.977  3.0801  0.7671 -0.8140
  106MOL0     H14294   1.839  10.723  11.357  0.5639 -2.1554  0.7914
  106MOL0     H14295   1.615  10.830  11.308  0.2687 -1.2389  2.5524
  106MOL0     H14296   1.346  10.828  10.880 -0.0063 -0.6266 -1.4455
  106MOL0     H14297   1.172  10.885  10.741  0.9571  0.5552  0.9107
  106MOL0     H14298   0.906  11.197  10.735  0.4549  2.5833  1.3269
  106MOL0     H14299   0.940  11.196  10.898  0.0209 -2.6021  1.5125
  106MOL0     H14300   0.723  11.073  10.938  1.7763 -0.5419 -0.5853
  106MOL0     H14301   0.676  11.086  10.767 -0.7811 -2.3817  1.1323
  106MOL0     H14302   0.678  11.322  10.753  1.0061  1.4545  1.1196
  106MOL0     H14303   0.750  11.338  10.908 -0.1283  0.3491 -0.8635
  106MOL0     H14304   0.459  11.261  10.868  0.0505  1.0177  0.3267
  106MOL0     H14305   0.543  11.214  11.022 -0.8210  0.6236  1.1544
  106MOL0     H14306   0.415  11.607  11.083 -0.2481  1.5758 -3.1185
  106MOL0     H14307   0.911  11.007  11.071  0.1658  2.5846  0.0059
  106MOL0     H14308   1.065  10.835  11.326 -0.7106  0.3626 -2.4316
  106MOL0     H14309   1.163  10.980  11.331  0.2864 -1.0122  1.6952
  106MOL0     H14310   1.001  10.999  11.299 -1.8142 -1.3384  0.7415
  107MOL0     O14311   5.456  10.141   0.314  0.3422  0.6852 -0.1354
  107MOL0     C14312   5.377  10.233   0.335 -0.5260  0.2482  0.8271
  107MOL0     O14313   5.416  10.370   0.366  0.8284  0.4176  0.6615
  107MOL0     C14314   5.537  10.375   0.411 -0.3585  0.4699 -0.7989
  107MOL0     C14315   5.553  10.323   0.542  0.0954 -0.2891  0.5147
  107MOL0     C14316   5.681  10.331   0.608  0.8233 -0.2239 -0.8692
  107MOL0     C14317   5.783  10.406   0.541 -0.3563 -0.0499 -0.1030
  107MOL0     O14318   5.895  10.425   0.615  0.6956  0.2430 -0.2874
  107MOL0     C14319   6.025  10.422   0.559  0.2057 -0.0809  0.2887
  107MOL0     C14320   6.079  10.567   0.571  0.0704 -1.1426  0.6825
  107MOL0     C14321   6.198  10.584   0.468 -0.1231 -0.3879  0.4948
  107MOL0     C14322   6.218  10.739   0.458 -0.3839  0.2239  0.1870
  107MOL0     C14323   6.354  10.768   0.393  0.7292 -0.6320  0.2836
  107MOL0     C14324   6.362  10.906   0.331 -0.1542 -0.2371  0.4677
  107MOL0     C14325   6.439  10.925   0.208  0.4473 -0.0101 -1.4067
  107MOL0     C14326   6.402  11.066   0.154 -0.4223  0.0241  0.3042
  107MOL0     N14327   6.462  11.183   0.227  0.6856 -0.2907  0.3155
  107MOL0     C14328   6.586  11.176   0.286 -0.8210  0.0795  0.2014
  107MOL0     C14329   6.594  11.271   0.386 -0.1850  0.1303 -0.1632
  107MOL0     C14330   6.715  11.308   0.474 -0.5224 -0.6374 -0.3494
  107MOL0     C14331   6.801  11.427   0.433  0.2188 -0.4043 -0.5822
  107MOL0     C14332   6.756  11.556   0.512 -0.3080  0.7594 -0.2020
  107MOL0     C14333   6.816  11.569   0.654 -0.4935 -1.3568  0.7071
  107MOL0     O14334   6.804  11.454   0.727  0.0043 -0.2599 -0.3230
  107MOL0     C14335   6.686  11.429   0.804 -0.1177 -0.1883  0.2031
  107MOL0     C14336   6.706  11.317   0.882  1.4003 -0.9061 -0.0928
  107MOL0     C14337   6.596  11.277   0.973  0.2265 -0.7311 -0.1686
  107MOL0     C14338   6.471  11.344   0.974 -0.3227  0.3681 -0.5669
  107MOL0     C14339   6.357  11.289   1.058  0.1264  0.3178  0.1159
  107MOL0     O14340   6.375  11.166   1.120 -0.3743 -0.3952  0.1280
  107MOL0     C14341   6.261  11.100   1.163 -0.5875 -0.9227  0.4123
  107MOL0     C14342   6.161  11.157   1.238  0.2928 -0.3810 -0.1033
  107MOL0     C14343   6.040  11.088   1.255  0.1760  1.5118 -0.6031
  107MOL0     C14344   6.022  10.963   1.210  0.1845  0.6423  0.5577
  107MOL0     O14345   5.899  10.894   1.215 -0.3193  0.8789 -0.9091
  107MOL0     C14346   5.774  10.959   1.247 -0.0972  0.0939  0.6283
  107MOL0     C14347   5.658  10.859   1.242 -0.5038  0.9525  0.6608
  107MOL0     C14348   5.534  10.933   1.283 -0.5481 -0.4862  0.2551
  107MOL0     C14349   5.414  10.842   1.285  0.0286 -0.0043  0.1548
  107MOL0     C14350   5.291  10.920   1.341 -0.5192 -0.2014 -0.1321
  107MOL0     C14351   5.170  10.840   1.357 -0.7314 -0.0452 -0.1533
  107MOL0     C14352   5.105  10.774   1.235 -0.6447 -0.3679  1.2956
  107MOL0     C14353   5.071  10.627   1.249  0.2366  0.2183 -0.0417
  107MOL0    Cl14354   5.225  10.542   1.287 -0.2410 -0.3099  0.1002
  107MOL0     C14355   6.128  10.901   1.138 -0.0916  0.9567  0.0984
  107MOL0     C14356   6.242  10.976   1.110 -0.8663  0.4790 -0.4161
  107MOL0     O14357   6.254  11.351   1.052  0.4216  0.4486  0.3733
  107MOL0     C14358   6.453  11.449   0.888  0.0906 -1.0003 -0.0214
  107MOL0     C14359   6.560  11.490   0.809  0.8063  0.2855 -0.1700
  107MOL0     N14360   6.466  11.326   0.384 -0.0551  0.1872  0.3005
  107MOL0     N14361   6.386  11.270   0.295  0.0600  0.1466 -0.4347
  107MOL0     C14362   5.766  10.467   0.416 -0.7211 -0.1209 -1.0240
  107MOL0     C14363   5.647  10.435   0.348  0.5830  0.4964 -0.2435
  107MOL0     C14364   5.241  10.214   0.282 -0.2628  1.2160 -0.1252
  107MOL0     C14365   5.190  10.311   0.193 -0.3815  0.3746 -0.7251
  107MOL0     C14366   5.068  10.290   0.125 -0.3984  0.0183 -0.0921
  107MOL0     C14367   4.997  10.170   0.159 -0.0829  0.6042  0.5196
  107MOL0     O14368   4.873  10.131   0.106 -0.2465 -0.6351 -0.5522
  107MOL0     C14369   4.816  10.229   0.008 -0.3366  1.3001  0.4586
  107MOL0     C14370   4.685  10.184  -0.041  0.0640 -0.0288  0.2070
  107MOL0     C14371   4.585  10.149   0.080 -1.0637  0.3036  0.8180
  107MOL0     C14372   4.443  10.126   0.029  0.8558 -0.3856 -0.0485
  107MOL0     C14373   4.426  10.007  -0.042  0.8614  0.7156  0.1708
  107MOL0     C14374   4.419   9.909  -0.112 -0.1707 -0.3163 -0.3245
  107MOL0     C14375   5.044  10.079   0.255  0.4659 -0.2303  0.0731
  107MOL0     C14376   5.168  10.096   0.312 -0.1606 -0.0881  0.0703
  107MOL0     C14377   5.230   9.990   0.398  0.0122 -0.2160 -0.2952
  107MOL0     H14378   5.469  10.266   0.580  0.5996 -0.4788  1.3607
  107MOL0     H14379   5.689  10.294   0.710  0.5461  3.6381  0.7330
  107MOL0     H14380   6.087  10.351   0.616  0.4191  1.4748  2.0702
  107MOL0     H14381   6.018  10.394   0.453 -3.5569 -0.4657  0.5063
  107MOL0     H14382   6.123  10.584   0.670  1.2733 -0.5079  0.0550
  107MOL0     H14383   6.004  10.644   0.550  2.1026  1.2485  1.6393
  107MOL0     H14384   6.175  10.543   0.369 -0.1463  2.1137 -0.5933
  107MOL0     H14385   6.283  10.524   0.502 -0.0928 -1.3636 -1.1856
  107MOL0     H14386   6.134  10.791   0.411  0.6606 -0.1992 -2.2692
  107MOL0     H14387   6.224  10.777   0.560 -0.8354  2.4624 -0.5620
  107MOL0     H14388   6.428  10.771   0.473  0.2383  1.5083  0.7456
  107MOL0     H14389   6.380  10.696   0.315  1.8008  0.1934 -0.1450
  107MOL0     H14390   6.257  10.931   0.317 -0.6227 -3.0371 -2.1255
  107MOL0     H14391   6.415  10.964   0.408 -0.4819 -0.0473  0.5484
  107MOL0     H14392   6.414  10.843   0.140  0.1468  0.5558 -1.9862
  107MOL0     H14393   6.547  10.919   0.224  0.2935  1.7287  0.8041
  107MOL0     H14394   6.436  11.076   0.051 -0.9794 -0.5156  0.0573
  107MOL0     H14395   6.294  11.078   0.139 -0.4487 -0.7623 -0.1753
  107MOL0     H14396   6.665  11.106   0.260 -1.1620  0.4668 -2.1470
  107MOL0     H14397   6.684  11.306   0.579 -0.0461  1.8731 -0.1108
  107MOL0     H14398   6.777  11.219   0.459  2.6808  1.4125 -0.0926
  107MOL0     H14399   6.909  11.417   0.451  0.2682 -0.6452 -1.0164
  107MOL0     H14400   6.790  11.455   0.328  2.4576  0.6798 -0.5861
  107MOL0     H14401   6.647  11.552   0.499 -0.3603  1.6096 -0.0717
  107MOL0     H14402   6.788  11.640   0.450  0.8417 -2.7211 -4.8990
  107MOL0     H14403   6.771  11.652   0.709  5.2110  0.5103  3.3548
  107MOL0     H14404   6.922  11.592   0.640 -1.2253  1.1699 -1.7979
  107MOL0     H14405   6.801  11.264   0.874  0.8771 -2.2654  1.9280
  107MOL0     H14406   6.607  11.187   1.032  0.0575  0.0184  1.0356
  107MOL0     H14407   6.163  11.261   1.269  0.7170  0.5322 -2.8398
  107MOL0     H14408   5.963  11.120   1.324 -1.1419 -1.6596 -0.4379
  107MOL0     H14409   5.786  11.006   1.344 -0.7861 -2.3800  2.0168
  107MOL0     H14410   5.755  11.038   1.174 -3.2116  1.3269  2.5443
  107MOL0     H14411   5.645  10.831   1.137  2.3777  0.7309  0.2814
  107MOL0     H14412   5.673  10.771   1.305  0.4768 -0.4859 -1.4375
  107MOL0     H14413   5.552  10.984   1.378 -5.7130  2.3687  0.0639
  107MOL0     H14414   5.518  11.024   1.224  0.9024  1.1691  2.2289
  107MOL0     H14415   5.430  10.753   1.346  1.3612  1.0756  1.4332
  107MOL0     H14416   5.386  10.820   1.181 -1.8531  2.1877  0.1323
  107MOL0     H14417   5.272  10.999   1.267 -0.8555 -1.8557 -1.8974
  107MOL0     H14418   5.310  10.961   1.440  1.7917  2.4059 -1.5119
  107MOL0     H14419   5.180  10.765   1.436 -0.8319 -0.1252 -0.2167
  107MOL0     H14420   5.098  10.915   1.393  1.0554  1.2500  0.8700
  107MOL0     H14421   5.148  10.785   1.135 -4.6850 -0.4654 -0.6255
  107MOL0     H14422   5.014  10.832   1.221  0.6212  1.1435 -1.3665
  107MOL0     H14423   4.993  10.611   1.323 -0.8744 -0.4363 -1.3147
  107MOL0     H14424   5.024  10.588   1.159  0.9153 -0.2505 -0.2065
  107MOL0     H14425   6.113  10.808   1.085 -1.7824  0.9999  0.4482
  107MOL0     H14426   6.310  10.931   1.038 -0.5502 -0.8982  0.7101
  107MOL0     H14427   6.354  11.493   0.885  0.0912 -1.0246 -0.6626
  107MOL0     H14428   6.555  11.583   0.754  3.1860  0.8677  0.4889
  107MOL0     H14429   5.835  10.528   0.359  0.1876  0.8216  1.0015
  107MOL0     H14430   5.626  10.484   0.254 -1.1535  0.1014 -0.0888
  107MOL0     H14431   5.242  10.404   0.173 -0.7595  1.6090  3.1893
  107MOL0     H14432   5.030  10.366   0.058 -0.1123  0.7186  0.5256
  107MOL0     H14433   4.888  10.214  -0.073  1.7033 -3.0034  2.7705
  107MOL0     H14434   4.810  10.323   0.065  0.4266  0.0519  2.6997
  107MOL0     H14435   4.703  10.097  -0.106 -0.2968  2.4321 -3.5096
  107MOL0     H14436   4.641  10.252  -0.114  2.0458  1.1341  0.0325
  107MOL0     H14437   4.593  10.230   0.153  0.6522  1.2884 -0.4018
  107MOL0     H14438   4.626  10.057   0.122  0.3834  0.0183 -1.1125
  107MOL0     H14439   4.375  10.124   0.115 -1.8123 -0.6696 -2.0299
  107MOL0     H14440   4.409  10.208  -0.035 -2.0830 -0.8917  0.7365
  107MOL0     H14441   4.408   9.817  -0.167 -1.4383 -0.8936  0.8335
  107MOL0     H14442   4.990   9.987   0.276 -2.4753  1.7780  2.2289
  107MOL0     H14443   5.306   9.931   0.348 -1.4722 -0.5709 -2.2327
  107MOL0     H14444   5.272  10.026   0.493  1.0452 -0.8680 -0.4901
  107MOL0     H14445   5.148   9.919   0.411 -0.1303 -0.1993 -1.0882
  108MOL0     O14446  11.241   7.345  10.933  0.2100 -0.1661 -0.4519
  108MOL0     C14447  11.179   7.340  11.036 -0.3508  0.5250  0.7021
  108MOL0     O14448  11.228   7.337  11.160  0.1398  0.0564  0.1514
  108MOL0     C14449  11.366   7.348  11.180 -0.2661  0.3359  0.2487
  108MOL0     C14450  11.444   7.252  11.251  0.4806  0.2860 -0.1987
  108MOL0     C14451  11.579   7.263  11.266 -0.3380 -0.3330  0.1506
  108MOL0     C14452  11.653   7.367  11.204  0.3478  0.5996  0.9554
  108MOL0     O14453  11.787   7.365  11.224 -0.0331 -0.3156  0.2867
  108MOL0     C14454  11.877   7.441  11.139 -0.2716  0.1866 -0.4019
  108MOL0     C14455  12.014   7.435  11.196  0.3390 -0.0447 -0.1548
  108MOL0     C14456  12.104   7.534  11.125  0.2088 -0.3987  0.0603
  108MOL0     C14457  12.246   7.516  11.176 -0.1696 -0.4195 -0.1252
  108MOL0     C14458  12.347   7.583  11.087  0.2683 -0.1840  0.2185
  108MOL0     C14459  12.490   7.545  11.129  0.4799  0.2125 -0.6879
  108MOL0     C14460  12.588   7.564  11.014 -0.0826 -0.2018  0.3001
  108MOL0     C14461  12.641   7.705  11.011 -0.3809  0.0272 -0.1439
  108MOL0     N14462  12.772   7.711  11.071 -0.8511  0.2248 -0.4271
  108MOL0     C14463  12.878   7.643  11.012  0.8020 -0.2496 -1.0277
  108MOL0     C14464  12.989   7.703  11.065  1.1380  0.0100 -0.3405
  108MOL0     C14465  13.122   7.663  11.038 -0.3671 -0.7509 -0.1010
  108MOL0     C14466  13.217   7.661  11.151  0.2119  0.0834  0.1063
  108MOL0     C14467  13.357   7.597  11.117  0.7007 -0.1047  0.1732
  108MOL0     C14468  13.410   7.646  10.979 -0.0365 -0.4006 -0.1238
  108MOL0     O14469  13.541   7.595  10.972 -0.0255  0.3389 -0.2269
  108MOL0     C14470  13.620   7.609  10.857  0.0870 -0.5857 -1.2927
  108MOL0     C14471  13.577   7.676  10.741  0.2590 -0.3315 -0.6033
  108MOL0     C14472  13.668   7.700  10.635 -0.1639  0.1992  1.0653
  108MOL0     C14473  13.793   7.639  10.633  0.2460 -0.3783 -0.4718
  108MOL0     C14474  13.883   7.655  10.518 -0.5812 -0.8589 -0.1118
  108MOL0     O14475  13.835   7.711  10.410  0.9484 -0.0902  0.0935
  108MOL0     C14476  13.922   7.735  10.308  0.2932  0.1399 -0.0431
  108MOL0     C14477  13.978   7.628  10.237 -0.0069 -0.0599  0.8554
  108MOL0     C14478  14.076   7.649  10.134 -0.2788 -1.0003  0.0862
  108MOL0     C14479  14.118   7.781  10.097  0.5937  0.2361  0.3087
  108MOL0     O14480  14.208   7.781   9.994  0.3086 -0.1558  0.3013
  108MOL0     C14481  14.291   7.896   9.976 -0.5982 -0.3908 -0.0945
  108MOL0     C14482  14.389   7.869   9.868 -0.0975  0.2468 -0.2392
  108MOL0     C14483  14.469   7.744   9.890  0.1858  0.1029  0.0902
  108MOL0     C14484  14.529   7.686   9.762 -0.7176  0.0151  0.4024
  108MOL0     C14485  14.607   7.554   9.790  0.1642  0.0292 -0.3367
  108MOL0     C14486  14.702   7.521   9.674 -0.1530 -0.4475 -0.4183
  108MOL0     C14487  14.773   7.390   9.696 -0.1725  0.2349 -0.7272
  108MOL0     C14488  14.925   7.393   9.729 -0.4363 -0.7890 -0.7801
  108MOL0    Cl14489  14.996   7.223   9.699 -0.7826  0.0559 -0.0953
  108MOL0     C14490  14.065   7.887  10.168 -0.5776  0.6838 -0.3333
  108MOL0     C14491  13.963   7.867  10.270 -0.5500 -0.6719 -0.3550
  108MOL0     O14492  13.999   7.622  10.527 -0.2260  0.1102 -0.5091
  108MOL0     C14493  13.835   7.577  10.758  0.1772 -0.7517  0.0918
  108MOL0     C14494  13.750   7.562  10.869  0.8354 -0.7113  0.1326
  108MOL0     N14495  12.950   7.802  11.150  0.3432 -0.0646 -0.2886
  108MOL0     N14496  12.823   7.812  11.150 -0.3593  0.6637 -0.0311
  108MOL0     C14497  11.584   7.464  11.136 -0.1414 -0.1321  0.2001
  108MOL0     C14498  11.445   7.448  11.124 -0.1129  0.7174 -0.6607
  108MOL0     C14499  11.036   7.328  11.024 -0.1507 -0.4273  0.0147
  108MOL0     C14500  10.962   7.328  11.143  0.6638  0.2437 -0.1327
  108MOL0     C14501  10.817   7.333  11.139 -0.3786  0.2786  0.0766
  108MOL0     C14502  10.747   7.341  11.022  0.0889 -0.1353 -0.2479
  108MOL0     O14503  10.611   7.349  11.029  0.0625 -0.0322 -0.5588
  108MOL0     C14504  10.530   7.378  10.908 -0.8269 -0.3048 -0.8003
  108MOL0     C14505  10.507   7.245  10.826 -0.3549  0.0934  0.0467
  108MOL0     C14506  10.432   7.266  10.703 -0.3748  0.0428  0.0696
  108MOL0     C14507  10.279   7.287  10.724 -0.0353 -0.6095 -0.0645
  108MOL0     C14508  10.211   7.179  10.789  0.0390 -0.6639  0.2203
  108MOL0     C14509  10.142   7.104  10.852 -0.1891 -0.7877 -0.2119
  108MOL0     C14510  10.825   7.351  10.908 -0.2724  0.3896  0.1205
  108MOL0     C14511  10.962   7.340  10.904 -0.7521  1.0162  0.5917
  108MOL0     C14512  11.021   7.336  10.760 -0.8391 -0.0428 -0.6598
  108MOL0     H14513  11.392   7.162  11.282 -1.1981 -0.2224 -3.9855
  108MOL0     H14514  11.627   7.183  11.321  3.1486  0.5616 -1.3289
  108MOL0     H14515  11.888   7.399  11.039  2.0131  3.2290 -1.5650
  108MOL0     H14516  11.849   7.547  11.140 -0.7517  0.0819  1.0431
  108MOL0     H14517  12.058   7.337  11.182  1.5565  0.1901  1.7321
  108MOL0     H14518  12.004   7.452  11.303  0.2781  2.0613 -0.4483
  108MOL0     H14519  12.075   7.639  11.135  3.0619  0.3339  1.7425
  108MOL0     H14520  12.105   7.509  11.018 -3.2934 -0.8536 -0.0053
  108MOL0     H14521  12.262   7.542  11.281  0.6747  0.9984 -0.5686
  108MOL0     H14522  12.271   7.410  11.163 -0.7486 -0.5605 -0.0998
  108MOL0     H14523  12.341   7.535  10.989  1.0147 -1.2660  0.6779
  108MOL0     H14524  12.337   7.692  11.083  1.0915 -0.1198 -0.3868
  108MOL0     H14525  12.518   7.603  11.217 -0.5068 -0.0196 -0.2075
  108MOL0     H14526  12.493   7.438  11.153 -2.1762  0.1996 -0.1399
  108MOL0     H14527  12.553   7.533  10.915  2.4766  1.1186 -1.1130
  108MOL0     H14528  12.671   7.495  11.033 -0.1187 -0.5175 -0.6383
  108MOL0     H14529  12.643   7.730  10.904  2.5155  0.5940 -0.0385
  108MOL0     H14530  12.580   7.777  11.066  1.8426  0.7118  1.5592
  108MOL0     H14531  12.868   7.570  10.932  0.5633 -0.0811 -1.1538
  108MOL0     H14532  13.128   7.567  10.986 -0.0458 -0.4553 -0.6194
  108MOL0     H14533  13.158   7.735  10.965 -2.6807 -0.8704 -1.4541
  108MOL0     H14534  13.227   7.757  11.203  0.3411 -1.1716  2.5692
  108MOL0     H14535  13.171   7.599  11.229 -1.4257  3.6288  2.1986
  108MOL0     H14536  13.336   7.490  11.108  1.1690 -0.1026 -1.1038
  108MOL0     H14537  13.432   7.609  11.196 -0.2006  2.3372  0.7653
  108MOL0     H14538  13.410   7.755  10.979  1.0882 -0.3561 -2.3801
  108MOL0     H14539  13.356   7.606  10.893 -0.4720 -2.0160  0.8420
  108MOL0     H14540  13.477   7.715  10.726  0.8227  0.7102 -1.9456
  108MOL0     H14541  13.640   7.772  10.558 -0.0575 -0.1284  0.7132
  108MOL0     H14542  13.947   7.524  10.237 -1.3131  0.1711 -3.0756
  108MOL0     H14543  14.117   7.562  10.084 -1.5650 -2.0994  0.8629
  108MOL0     H14544  14.234   7.983   9.946 -0.6633 -0.5227 -0.3564
  108MOL0     H14545  14.339   7.915  10.073 -1.6568 -1.8114  0.7622
  108MOL0     H14546  14.342   7.860   9.770  0.3495  2.0961 -0.6673
  108MOL0     H14547  14.458   7.954   9.866 -0.0595  0.2554  0.7394
  108MOL0     H14548  14.553   7.761   9.958 -0.5472 -0.2813  1.1178
  108MOL0     H14549  14.407   7.671   9.942  0.0158  0.9808  1.1502
  108MOL0     H14550  14.588   7.764   9.712 -2.1964  1.3464  0.6581
  108MOL0     H14551  14.440   7.669   9.701 -0.2157 -0.3956 -0.2202
  108MOL0     H14552  14.538   7.471   9.806 -0.0196  0.1379 -0.5672
  108MOL0     H14553  14.661   7.565   9.885 -0.3369 -0.3881  0.0005
  108MOL0     H14554  14.644   7.520   9.581 -0.2319  3.3815 -0.5506
  108MOL0     H14555  14.776   7.601   9.680 -3.5816  2.8891  3.1235
  108MOL0     H14556  14.766   7.339   9.600  0.2471  2.0627 -1.7683
  108MOL0     H14557  14.715   7.327   9.765  0.2908 -1.7008 -2.0193
  108MOL0     H14558  14.964   7.467   9.658 -2.1282  0.9335  0.0046
  108MOL0     H14559  14.948   7.423   9.831  3.0602 -2.4835 -0.9057
  108MOL0     H14560  14.092   7.988  10.138  2.1161 -0.2312 -1.2754
  108MOL0     H14561  13.911   7.950  10.315 -3.5503 -2.6598  0.1743
  108MOL0     H14562  13.937   7.541  10.759 -0.0714 -1.5334 -0.7294
  108MOL0     H14563  13.778   7.510  10.960  1.5184  1.4369  1.2001
  108MOL0     H14564  11.628   7.551  11.088  2.4689 -0.6603  1.4438
  108MOL0     H14565  11.395   7.519  11.059  0.1321  1.9884  0.5032
  108MOL0     H14566  10.991   7.318  11.247 -1.7140 -1.6065  0.4535
  108MOL0     H14567  10.759   7.333  11.231  0.0494 -0.2879  0.3515
  108MOL0     H14568  10.588   7.455  10.855  0.6992 -0.4015  0.6396
  108MOL0     H14569  10.438   7.420  10.950 -0.7247 -1.9329  1.1917
  108MOL0     H14570  10.452   7.178  10.892 -0.1779  0.6936  0.8112
  108MOL0     H14571  10.605   7.198  10.811 -0.0945  0.2163  1.2617
  108MOL0     H14572  10.452   7.176  10.644  0.4853 -0.3819  0.9814
  108MOL0     H14573  10.470   7.349  10.643  1.6874 -1.4532 -0.8345
  108MOL0     H14574  10.273   7.368  10.798  2.8920  1.0396 -1.4486
  108MOL0     H14575  10.222   7.303  10.632 -1.9242  1.1324  1.3279
  108MOL0     H14576  10.081   7.040  10.913 -2.9316 -1.2463 -3.2207
  108MOL0     H14577  10.772   7.362  10.814 -0.4927 -1.7998 -0.0830
  108MOL0     H14578  11.081   7.427  10.746  0.4792 -0.8073 -0.2027
  108MOL0     H14579  11.073   7.240  10.755 -0.2515  0.2030  0.3951
  108MOL0     H14580  10.949   7.344  10.678  0.5578  0.0098 -1.9432
  109MOL0     O14581   3.114   9.670  11.134  0.3903  0.0596  0.3804
  109MOL0     C14582   3.097   9.556  11.160  0.2687  0.4583 -0.7886
  109MOL0     O14583   3.198   9.459  11.172  0.5281  1.0017  0.6050
  109MOL0     C14584   3.326   9.487  11.127 -0.0497 -0.0881 -1.0444
  109MOL0     C14585   3.359   9.584  11.040 -0.2430 -0.9212  0.3922
  109MOL0     C14586   3.494   9.606  11.008  0.3424 -0.2241 -0.5304
  109MOL0     C14587   3.596   9.520  11.061  0.3746 -0.1970  0.5513
  109MOL0     O14588   3.730   9.542  11.037  0.0716  0.4511  0.0696
  109MOL0     C14589   3.768   9.538  10.900 -0.8419  0.0551  0.2428
  109MOL0     C14590   3.923   9.537  10.877 -0.5946 -0.6596 -0.3155
  109MOL0     C14591   3.996   9.669  10.905 -0.5958  0.0011 -0.2455
  109MOL0     C14592   4.141   9.647  10.944 -0.0563  0.1065  1.0739
  109MOL0     C14593   4.227   9.600  10.838 -0.4614  0.5547  0.5463
  109MOL0     C14594   4.381   9.618  10.883  0.0868 -0.5563  0.4135
  109MOL0     C14595   4.478   9.546  10.790 -0.3642  0.2158  0.1289
  109MOL0     C14596   4.607   9.505  10.841  0.5872 -0.6993 -0.3978
  109MOL0     N14597   4.698   9.469  10.732  0.1811 -0.7273  0.5407
  109MOL0     C14598   4.819   9.530  10.695  0.8270 -0.6297 -0.8718
  109MOL0     C14599   4.858   9.474  10.581 -1.0450  0.4213  0.1765
  109MOL0     C14600   4.988   9.504  10.500 -0.5691 -0.3682  0.2678
  109MOL0     C14601   5.124   9.512  10.572 -0.0075 -0.3170 -0.6365
  109MOL0     C14602   5.219   9.612  10.502  0.5670  0.6359 -0.0225
  109MOL0     C14603   5.366   9.631  10.548 -0.1756  0.1526  0.0505
  109MOL0     O14604   5.353   9.651  10.684  0.3932  0.0690  0.5065
  109MOL0     C14605   5.462   9.695  10.750  0.5647  0.9354  0.2171
  109MOL0     C14606   5.549   9.600  10.795 -0.3663  0.3068  0.6858
  109MOL0     C14607   5.662   9.630  10.862  0.1298 -1.2741  0.4773
  109MOL0     C14608   5.695   9.766  10.876  0.7691 -0.2391  0.1795
  109MOL0     C14609   5.827   9.803  10.933  0.2813  0.2619  0.9912
  109MOL0     O14610   5.861   9.938  10.946 -0.1757 -0.6607 -0.1024
  109MOL0     C14611   5.990   9.970  10.962 -0.3357  0.1183 -0.0111
  109MOL0     C14612   6.104   9.916  10.896  1.2012  0.5847 -0.0349
  109MOL0     C14613   6.224   9.982  10.902  0.1502  0.0508 -0.7793
  109MOL0     C14614   6.250  10.090  10.988 -0.0049 -0.3986 -0.2090
  109MOL0     O14615   6.362  10.167  10.983 -0.1600  0.3324  0.1598
  109MOL0     C14616   6.440  10.168  10.859  0.0382  0.1472 -0.8079
  109MOL0     C14617   6.557  10.262  10.876 -0.1937 -0.3592 -1.0637
  109MOL0     C14618   6.634  10.299  10.749  0.3255 -0.1286 -0.2642
  109MOL0     C14619   6.749  10.402  10.784 -0.2645 -0.3438  0.2943
  109MOL0     C14620   6.796  10.491  10.670  0.3302 -0.4556  0.4881
  109MOL0     C14621   6.874  10.612  10.715  0.1105 -0.1788  0.3625
  109MOL0     C14622   6.923  10.689  10.594  0.3714  0.6060 -0.2843
  109MOL0     C14623   6.946  10.838  10.632  0.9384 -0.2680 -0.0447
  109MOL0    Cl14624   7.100  10.871  10.712 -0.1990  0.0410 -0.6138
  109MOL0     C14625   6.144  10.137  11.067 -1.1001  0.7625 -0.1710
  109MOL0     C14626   6.017  10.079  11.047 -0.3642  0.7686 -0.2689
  109MOL0     O14627   5.898   9.710  10.959  0.4820  0.1963  0.2065
  109MOL0     C14628   5.612   9.864  10.820  0.7318 -0.0781 -1.0453
  109MOL0     C14629   5.489   9.828  10.754  0.0087  0.3423 -1.3246
  109MOL0     N14630   4.774   9.372  10.547  0.4965  0.3055 -0.8585
  109MOL0     N14631   4.673   9.379  10.630 -0.2274  0.1057  0.6655
  109MOL0     C14632   3.561   9.418  11.144 -0.2807  0.8709 -0.9181
  109MOL0     C14633   3.428   9.412  11.187 -0.1104  0.1046  0.3116
  109MOL0     C14634   2.968   9.528  11.230 -0.6771  0.5390  0.0265
  109MOL0     C14635   2.973   9.453  11.350  0.7131 -0.0124  0.2240
  109MOL0     C14636   2.861   9.410  11.426  0.1478 -0.4882 -0.0541
  109MOL0     C14637   2.733   9.463  11.390  0.5189 -0.1734 -1.1690
  109MOL0     O14638   2.610   9.448  11.452 -0.2510  0.1147 -0.0628
  109MOL0     C14639   2.601   9.393  11.583  0.0171 -0.4499 -0.9782
  109MOL0     C14640   2.571   9.241  11.576  0.2697  0.5019 -0.9078
  109MOL0     C14641   2.533   9.191  11.716 -0.2922  0.1473  0.4478
  109MOL0     C14642   2.615   9.248  11.830 -0.9219  0.1680 -0.2383
  109MOL0     C14643   2.761   9.222  11.824 -0.5110 -0.0526  0.6550
  109MOL0     C14644   2.879   9.200  11.817 -0.5823 -0.1374 -0.3702
  109MOL0     C14645   2.729   9.544  11.268  0.2206  0.3318  0.2140
  109MOL0     C14646   2.846   9.567  11.184 -0.8302 -0.3144 -0.2150
  109MOL0     C14647   2.818   9.640  11.055 -0.2074 -0.6804  0.3497
  109MOL0     H14648   3.287   9.650  10.993  0.0960 -0.5523  0.3771
  109MOL0     H14649   3.516   9.698  10.954 -3.3922  2.3890  1.9234
  109MOL0     H14650   3.726   9.451  10.849 -0.2083  0.5187 -1.1299
  109MOL0     H14651   3.729   9.622  10.841  2.7025  3.8778  2.7660
  109MOL0     H14652   3.936   9.502  10.774 -3.9383  0.7913 -1.3630
  109MOL0     H14653   3.957   9.466  10.953 -2.3498  0.6378  1.7978
  109MOL0     H14654   3.968   9.733  10.989  2.4726  2.0746 -0.6492
  109MOL0     H14655   3.998   9.726  10.812 -0.4623  0.6662  0.1573
  109MOL0     H14656   4.183   9.745  10.970  0.2194  0.3414 -0.2045
  109MOL0     H14657   4.147   9.576  11.027 -1.7293  1.2664  2.2423
  109MOL0     H14658   4.213   9.495  10.811 -2.4636  1.2357 -1.3277
  109MOL0     H14659   4.210   9.659  10.748 -0.3165 -1.0616 -0.5993
  109MOL0     H14660   4.407   9.723  10.896  0.5268 -0.5136 -0.7532
  109MOL0     H14661   4.383   9.574  10.984  0.6319  2.0667  1.6313
  109MOL0     H14662   4.490   9.623  10.713  0.3972  1.8814  1.8234
  109MOL0     H14663   4.430   9.452  10.763 -1.6586  1.0626 -0.6267
  109MOL0     H14664   4.649   9.597  10.884 -2.9858  0.4592  1.0075
  109MOL0     H14665   4.597   9.421  10.909 -1.7153  0.2295  0.4834
  109MOL0     H14666   4.859   9.614  10.750  0.8777 -1.0764 -0.2145
  109MOL0     H14667   5.008   9.431  10.421  1.3115  0.1186  0.2527
  109MOL0     H14668   4.963   9.597  10.448 -2.7199  0.0515  1.8883
  109MOL0     H14669   5.116   9.531  10.679  0.5012  1.3364 -0.8539
  109MOL0     H14670   5.163   9.410  10.566 -1.7366 -0.9830 -1.1995
  109MOL0     H14671   5.175   9.713  10.502  0.3082  0.5968 -2.3998
  109MOL0     H14672   5.222   9.595  10.394 -0.3486 -1.7438  0.2602
  109MOL0     H14673   5.426   9.714  10.511  3.7088 -2.0032  0.9721
  109MOL0     H14674   5.421   9.538  10.529 -1.7490 -1.2537  1.9619
  109MOL0     H14675   5.526   9.495  10.782  0.4519  0.3587 -1.4951
  109MOL0     H14676   5.726   9.551  10.897 -0.4768 -1.4628  1.1846
  109MOL0     H14677   6.093   9.836  10.823  0.5179  1.3920 -0.8258
  109MOL0     H14678   6.299   9.933  10.841 -0.9133  0.3688 -2.4347
  109MOL0     H14679   6.476  10.071  10.824 -0.6563 -0.3093 -0.2866
  109MOL0     H14680   6.381  10.212  10.779 -1.7717 -0.0362  0.3633
  109MOL0     H14681   6.502  10.352  10.901  0.3125  0.3606 -2.4352
  109MOL0     H14682   6.624  10.228  10.956  1.0063  2.4870 -0.7308
  109MOL0     H14683   6.678  10.214  10.696 -0.8905  1.2502 -3.7547
  109MOL0     H14684   6.556  10.347  10.690 -1.4892 -0.6638  1.5823
  109MOL0     H14685   6.828  10.347  10.835 -1.0322 -0.8892  0.9150
  109MOL0     H14686   6.713  10.469  10.862  0.2498  0.9079 -0.4974
  109MOL0     H14687   6.712  10.525  10.609 -0.4851 -0.0999  1.7594
  109MOL0     H14688   6.861  10.431  10.606 -0.7782 -0.9536 -0.2131
  109MOL0     H14689   6.802  10.666  10.778 -1.5676 -1.5786 -0.2711
  109MOL0     H14690   6.964  10.581  10.767  1.9232  2.9243 -0.6890
  109MOL0     H14691   6.846  10.688  10.516 -1.9660 -0.3641  1.8878
  109MOL0     H14692   7.016  10.640  10.562 -0.3748 -1.0348 -0.0277
  109MOL0     H14693   6.942  10.899  10.541  2.5260  0.9200  0.6488
  109MOL0     H14694   6.864  10.873  10.696 -0.5679  1.5305 -2.7441
  109MOL0     H14695   6.174  10.219  11.132  0.5439 -0.0056  0.0831
  109MOL0     H14696   5.936  10.111  11.111  1.0511  0.0427  2.0205
  109MOL0     H14697   5.640   9.968  10.839 -1.7993  0.4528  0.1472
  109MOL0     H14698   5.410   9.893  10.717  0.2614  1.2291 -0.3637
  109MOL0     H14699   3.640   9.357  11.187 -1.5298 -2.1394 -2.5319
  109MOL0     H14700   3.408   9.333  11.258 -0.2368 -0.0062  0.1532
  109MOL0     H14701   3.067   9.410  11.382  0.6284  0.2006  0.7824
  109MOL0     H14702   2.869   9.342  11.510 -0.2958 -2.5492 -1.6018
  109MOL0     H14703   2.516   9.433  11.639 -2.3128 -1.3953 -3.6067
  109MOL0     H14704   2.692   9.409  11.641 -0.9365  0.7726  0.2729
  109MOL0     H14705   2.660   9.186  11.545 -1.2751 -1.9749 -1.2394
  109MOL0     H14706   2.489   9.216  11.507 -0.4785  1.2040 -0.2861
  109MOL0     H14707   2.525   9.082  11.710 -1.0052  0.0643  2.3820
  109MOL0     H14708   2.432   9.224  11.740 -0.9179 -1.0927 -0.3374
  109MOL0     H14709   2.600   9.355  11.842 -0.3992  0.1730  0.4405
  109MOL0     H14710   2.580   9.191  11.917 -2.0696  1.0839 -0.0853
  109MOL0     H14711   2.986   9.196  11.805 -0.4816  0.8367  0.1055
  109MOL0     H14712   2.630   9.574  11.236  0.4957 -0.5252 -1.5694
  109MOL0     H14713   2.774   9.734  11.089 -2.2990 -2.1796  2.0464
  109MOL0     H14714   2.909   9.678  11.007 -1.1776  0.0141 -1.0074
  109MOL0     H14715   2.751   9.598  10.979 -2.7434  4.5993 -0.7660
  110MOL0     O14716   4.122  11.073   2.076  0.2707  0.6686  0.0041
  110MOL0     C14717   4.018  11.133   2.052 -0.0515  0.8692 -0.1944
  110MOL0     O14718   4.012  11.271   2.044 -0.2590  0.3091 -0.1544
  110MOL0     C14719   4.133  11.344   2.049  0.5567 -0.2159  0.2557
  110MOL0     C14720   4.239  11.322   1.959  0.6167  0.7329 -0.2931
  110MOL0     C14721   4.346  11.405   1.948  0.1820  0.1402 -0.3198
  110MOL0     C14722   4.369  11.505   2.039  0.1177 -0.4517 -0.5610
  110MOL0     O14723   4.477  11.584   2.016 -0.6359 -0.5063  0.4907
  110MOL0     C14724   4.519  11.669   2.118  0.2826 -0.9608 -0.0957
  110MOL0     C14725   4.664  11.710   2.096  0.8576  0.4164 -0.0738
  110MOL0     C14726   4.711  11.809   2.199  0.2716 -0.1370  0.5691
  110MOL0     C14727   4.857  11.843   2.174 -0.6391  0.5660 -0.6803
  110MOL0     C14728   4.905  11.956   2.265 -0.1802 -0.1227  0.0353
  110MOL0     C14729   5.055  11.975   2.273  0.6236  0.6263 -0.5410
  110MOL0     C14730   5.097  12.090   2.374 -0.3384  0.8110 -0.0851
  110MOL0     C14731   5.245  12.112   2.386  0.2837  0.4390  0.3971
  110MOL0     N14732   5.330  12.018   2.457 -0.0208  0.3943 -0.1150
  110MOL0     C14733   5.379  11.897   2.394 -0.0704  0.1877  0.2459
  110MOL0     C14734   5.463  11.847   2.489 -0.0790  0.3918 -0.4694
  110MOL0     C14735   5.544  11.723   2.466  0.7663 -0.1035  0.6243
  110MOL0     C14736   5.692  11.756   2.490  0.3413  0.4322  0.2269
  110MOL0     C14737   5.785  11.643   2.460  0.8339 -0.4871 -0.4895
  110MOL0     C14738   5.934  11.672   2.488 -0.0247  0.3213  0.9435
  110MOL0     O14739   5.939  11.709   2.630 -0.1810  0.0755  0.2171
  110MOL0     C14740   6.059  11.769   2.673  1.0895 -0.3559  0.0843
  110MOL0     C14741   6.185  11.773   2.608 -0.3195  0.1460 -0.0714
  110MOL0     C14742   6.303  11.828   2.660  0.0900 -0.6070 -0.3544
  110MOL0     C14743   6.293  11.895   2.787 -0.1125 -0.0201  0.0318
  110MOL0     C14744   6.412  11.957   2.840  0.5456 -0.1212  0.0216
  110MOL0     O14745   6.536  11.930   2.775  0.0682  0.3496  0.2420
  110MOL0     C14746   6.660  11.924   2.839 -0.9076 -0.3802  0.1741
  110MOL0     C14747   6.780  11.905   2.766 -0.0142  0.0347 -0.5802
  110MOL0     C14748   6.906  11.916   2.821 -0.0601  0.0295 -0.2643
  110MOL0     C14749   6.915  11.935   2.962  0.3337 -0.4940 -0.0602
  110MOL0     O14750   7.037  11.946   3.021 -0.1378  0.1151 -0.2193
  110MOL0     C14751   7.066  11.831   3.100 -1.1423 -0.3092  0.3289
  110MOL0     C14752   7.192  11.763   3.051  0.3672  0.2235 -0.5286
  110MOL0     C14753   7.304  11.866   3.039 -0.9562 -0.3968 -0.2630
  110MOL0     C14754   7.441  11.793   3.002  0.9997  0.4654  0.2362
  110MOL0     C14755   7.553  11.891   3.003 -0.0761  0.1082  0.0477
  110MOL0     C14756   7.672  11.864   2.907 -0.2398 -0.2767 -0.5177
  110MOL0     C14757   7.761  11.748   2.955 -0.2115 -0.5691  0.2120
  110MOL0     C14758   7.877  11.717   2.848 -0.1845  0.1508 -0.7034
  110MOL0    Cl14759   7.957  11.875   2.811  0.4998  0.0397 -0.0058
  110MOL0     C14760   6.802  11.946   3.042  0.3876 -0.5832 -0.4025
  110MOL0     C14761   6.674  11.946   2.980 -0.0032  0.6201  0.2669
  110MOL0     O14762   6.401  12.035   2.934 -0.1394  0.2967 -0.4608
  110MOL0     C14763   6.171  11.897   2.855 -0.0184 -0.4996  0.3157
  110MOL0     C14764   6.056  11.828   2.798  0.2016  0.0507 -0.5316
  110MOL0     N14765   5.450  11.932   2.602  0.5495 -0.2187 -0.6968
  110MOL0     N14766   5.373  12.035   2.579 -0.0423  0.0759  0.0583
  110MOL0     C14767   4.270  11.521   2.138 -0.5177 -0.3949 -0.2346
  110MOL0     C14768   4.149  11.453   2.140  0.9737  0.1386  0.1392
  110MOL0     C14769   3.894  11.061   2.022  0.7119 -0.0954 -0.0392
  110MOL0     C14770   3.779  11.136   2.023  0.1177  0.1906 -0.8844
  110MOL0     C14771   3.648  11.084   2.001  0.6310 -0.2358  0.4783
  110MOL0     C14772   3.633  10.948   1.974  0.1006 -0.4236 -0.3305
  110MOL0     O14773   3.512  10.890   1.951 -0.2799 -0.3065  0.1969
  110MOL0     C14774   3.392  10.948   2.002  0.2989 -0.8669  0.3677
  110MOL0     C14775   3.273  10.847   2.011  0.1048 -0.1273  0.2900
  110MOL0     C14776   3.310  10.711   2.068  0.2720 -0.4584  0.1680
  110MOL0     C14777   3.376  10.715   2.208 -0.3271 -0.0644  0.8200
  110MOL0     C14778   3.336  10.605   2.295 -1.1256  0.2819 -0.2055
  110MOL0     C14779   3.309  10.511   2.373 -0.3332 -0.0104 -0.4313
  110MOL0     C14780   3.749  10.878   1.958  0.9310 -0.1481  0.5275
  110MOL0     C14781   3.879  10.926   1.981 -1.0824  0.6593 -0.8005
  110MOL0     C14782   3.986  10.820   1.974  0.3562  0.4810  1.0215
  110MOL0     H14783   4.226  11.242   1.886 -1.0657 -2.2867  3.0395
  110MOL0     H14784   4.408  11.387   1.861  2.2554 -3.7624  1.7169
  110MOL0     H14785   4.455  11.757   2.113  0.9261 -0.5659 -2.7684
  110MOL0     H14786   4.522  11.621   2.217  0.4189  0.0123  0.3861
  110MOL0     H14787   4.672  11.746   1.993 -0.2192 -0.3644 -0.4432
  110MOL0     H14788   4.732  11.625   2.095 -1.6489 -1.7037 -1.7135
  110MOL0     H14789   4.696  11.750   2.291 -0.0344 -0.8023  0.1037
  110MOL0     H14790   4.645  11.895   2.190 -0.7252 -0.7309  1.8042
  110MOL0     H14791   4.907  11.749   2.199 -0.0246  0.9886 -0.2604
  110MOL0     H14792   4.870  11.865   2.068 -1.3336 -3.4097 -1.7245
  110MOL0     H14793   4.868  12.053   2.230  1.9976  0.0054 -2.1801
  110MOL0     H14794   4.875  11.946   2.370 -1.6866  0.1439 -0.3465
  110MOL0     H14795   5.117  11.890   2.302  0.2231  0.2019 -0.9267
  110MOL0     H14796   5.079  12.006   2.171 -1.6465  1.6754 -0.8293
  110MOL0     H14797   5.063  12.059   2.474 -0.3084  1.7001  0.2126
  110MOL0     H14798   5.059  12.191   2.355 -0.1041  0.9728  0.3056
  110MOL0     H14799   5.282  12.120   2.284 -1.2269 -2.1484 -0.4272
  110MOL0     H14800   5.247  12.201   2.450  1.6519  0.5394  0.2547
  110MOL0     H14801   5.372  11.859   2.293  2.9072 -1.3751  0.5444
  110MOL0     H14802   5.503  11.640   2.524 -2.3546  0.1729 -0.9552
  110MOL0     H14803   5.533  11.699   2.360  1.1483  0.5631  0.4311
  110MOL0     H14804   5.728  11.842   2.433 -0.2887 -1.4702 -3.3410
  110MOL0     H14805   5.697  11.771   2.598 -1.5884 -1.6681  0.6969
  110MOL0     H14806   5.782  11.629   2.351  1.2882  0.1149 -0.5799
  110MOL0     H14807   5.745  11.546   2.490 -0.0488 -1.1437 -3.4429
  110MOL0     H14808   5.977  11.749   2.424  3.3398 -0.5023  2.0198
  110MOL0     H14809   6.012  11.596   2.476  3.2398  3.2924  1.4866
  110MOL0     H14810   6.204  11.725   2.512 -1.5080  2.1105 -1.3685
  110MOL0     H14811   6.390  11.813   2.597  0.7915 -0.6657  0.6025
  110MOL0     H14812   6.786  11.886   2.659 -1.1416  1.1487 -0.8578
  110MOL0     H14813   6.989  11.903   2.753 -1.4013 -0.1815 -1.9413
  110MOL0     H14814   7.072  11.871   3.201 -3.8394 -0.9841  0.8312
  110MOL0     H14815   6.986  11.756   3.095 -3.7090  2.2969 -0.8307
  110MOL0     H14816   7.216  11.688   3.127 -0.6200  1.6916  1.3251
  110MOL0     H14817   7.181  11.709   2.957 -0.7374 -0.0283 -0.2711
  110MOL0     H14818   7.282  11.941   2.962  1.4253  0.9891  0.3151
  110MOL0     H14819   7.313  11.920   3.133 -1.5597 -2.2593  0.9136
  110MOL0     H14820   7.433  11.744   2.904  2.2400  1.9780 -0.6663
  110MOL0     H14821   7.454  11.712   3.074 -2.2052  0.7443  1.3067
  110MOL0     H14822   7.590  11.896   3.106 -3.9822 -0.2994  1.6695
  110MOL0     H14823   7.523  11.993   2.975 -0.4848  0.8433  2.8620
  110MOL0     H14824   7.637  11.844   2.806  0.4408 -0.1619 -0.7848
  110MOL0     H14825   7.724  11.961   2.899 -2.5451  1.0617 -0.1569
  110MOL0     H14826   7.699  11.659   2.946  0.2966 -0.8348 -0.6677
  110MOL0     H14827   7.793  11.759   3.060 -4.0039  1.5336  1.3679
  110MOL0     H14828   7.941  11.635   2.881  1.1142  0.7027 -1.7506
  110MOL0     H14829   7.821  11.678   2.762 -4.0202 -0.6348  1.8965
  110MOL0     H14830   6.805  11.956   3.150 -2.2285 -1.4470 -0.1935
  110MOL0     H14831   6.584  11.940   3.040 -1.5068 -2.1953 -1.9878
  110MOL0     H14832   6.154  11.960   2.941 -0.6912  0.1755 -0.3071
  110MOL0     H14833   5.966  11.814   2.857 -0.2599  1.0044 -0.9879
  110MOL0     H14834   4.275  11.608   2.202  1.9353 -1.6656  1.4828
  110MOL0     H14835   4.071  11.477   2.211  1.6776  2.7080  0.1555
  110MOL0     H14836   3.782  11.243   2.040  2.2126 -0.0384  0.5854
  110MOL0     H14837   3.559  11.146   1.997 -1.1922 -2.5341  2.3697
  110MOL0     H14838   3.362  11.032   1.939 -1.0079 -2.4337 -1.2111
  110MOL0     H14839   3.429  10.984   2.099 -1.2238 -1.4754  1.2088
  110MOL0     H14840   3.243  10.825   1.908  2.5586 -0.3038 -0.4483
  110MOL0     H14841   3.189  10.891   2.066  1.3255  0.9639  1.3489
  110MOL0     H14842   3.382  10.661   2.002  0.7988  0.7492 -0.1916
  110MOL0     H14843   3.223  10.645   2.072  0.3946 -0.6634 -0.3439
  110MOL0     H14844   3.485  10.717   2.200 -0.4468  3.1264 -3.2504
  110MOL0     H14845   3.350  10.808   2.260 -0.4912 -0.3111  1.1835
  110MOL0     H14846   3.297  10.422   2.431  1.3736 -1.9147 -2.8060
  110MOL0     H14847   3.731  10.772   1.944 -0.0656  0.0241  0.4772
  110MOL0     H14848   4.067  10.863   1.914 -1.4125 -0.0450 -1.9801
  110MOL0     H14849   4.020  10.790   2.073  1.3020 -1.4705  0.1763
  110MOL0     H14850   3.953  10.726   1.929 -2.8345  3.1263 -2.9280
  111MOL0     O14851   5.508   0.387   0.554  1.4017  0.3249 -0.2367
  111MOL0     C14852   5.484   0.266   0.542 -0.5679  0.0354  0.5281
  111MOL0     O14853   5.578   0.170   0.508  0.6265 -0.1319  0.0022
  111MOL0     C14854   5.706   0.209   0.493 -0.2378  0.3608  0.0361
  111MOL0     C14855   5.744   0.297   0.397 -0.0618  0.2561  0.2241
  111MOL0     C14856   5.876   0.341   0.385  0.0721  0.6801 -0.0463
  111MOL0     C14857   5.976   0.282   0.452 -0.1197  0.3158 -0.4830
  111MOL0     O14858   6.104   0.310   0.407 -0.7726  0.7150 -0.4189
  111MOL0     C14859   6.217   0.239   0.460  0.3101  0.0341 -0.0151
  111MOL0     C14860   6.269   0.316   0.574  0.1167 -0.1984 -0.6079
  111MOL0     C14861   6.346   0.439   0.515 -0.1615 -0.2293 -0.2803
  111MOL0     C14862   6.383   0.526   0.629  0.2184 -0.5685  0.7108
  111MOL0     C14863   6.485   0.626   0.572  0.4344  0.0587  0.7261
  111MOL0     C14864   6.429   0.720   0.460 -0.7051 -0.1479 -0.5600
  111MOL0     C14865   6.517   0.842   0.440 -0.3233 -0.2768 -0.1975
  111MOL0     C14866   6.639   0.825   0.340  0.1880 -0.5461 -0.5190
  111MOL0     N14867   6.730   0.947   0.343  0.4203  0.3240  0.4645
  111MOL0     C14868   6.759   1.034   0.239  0.1362  0.1961 -0.8593
  111MOL0     C14869   6.862   1.110   0.281 -0.8689 -0.8979  0.2698
  111MOL0     C14870   6.949   1.198   0.199  0.1918 -0.0547  0.8804
  111MOL0     C14871   7.080   1.133   0.172  0.0304  0.0828 -0.6156
  111MOL0     C14872   7.172   1.224   0.082  0.5974  0.4205 -0.0422
  111MOL0     C14873   7.252   1.326   0.161  0.4068  0.4158 -0.6415
  111MOL0     O14874   7.287   1.430   0.081  0.0289 -0.0062  0.4308
  111MOL0     C14875   7.413   1.423   0.022  0.2038  0.2305 -0.0435
  111MOL0     C14876   7.538   1.407   0.091  1.1040  0.4360 -0.0145
  111MOL0     C14877   7.662   1.411   0.022  1.4432 -0.4646 -0.8819
  111MOL0     C14878   7.663   1.428  -0.115 -0.3693  0.0348  1.1818
  111MOL0     C14879   7.788   1.447  -0.189 -1.2723  0.2500  0.3337
  111MOL0     O14880   7.897   1.392  -0.118  0.6620  0.9643  0.6223
  111MOL0     C14881   8.017   1.403  -0.178 -0.0358  0.1536 -0.1125
  111MOL0     C14882   8.042   1.377  -0.314  0.4696  1.0553  0.0452
  111MOL0     C14883   8.170   1.384  -0.373 -0.0187 -0.1004 -0.0898
  111MOL0     C14884   8.279   1.395  -0.293 -0.2204 -0.1349  0.7780
  111MOL0     O14885   8.401   1.381  -0.353 -0.8665 -0.5010 -0.0651
  111MOL0     C14886   8.512   1.377  -0.265 -0.5212 -0.5418 -0.0038
  111MOL0     C14887   8.634   1.395  -0.350  0.3836 -0.6479  0.8790
  111MOL0     C14888   8.750   1.358  -0.265  0.0178  1.6055 -0.3620
  111MOL0     C14889   8.885   1.374  -0.324 -0.4152  0.8569 -0.1853
  111MOL0     C14890   8.989   1.298  -0.245 -0.7128  0.0298  0.0151
  111MOL0     C14891   9.129   1.303  -0.326 -0.2051  0.2615 -0.5982
  111MOL0     C14892   9.149   1.175  -0.410 -0.3872 -0.4125  0.1401
  111MOL0     C14893   9.295   1.172  -0.466 -0.3931  0.0543 -0.1401
  111MOL0    Cl14894   9.435   1.186  -0.353  0.1783  0.4736 -0.4056
  111MOL0     C14895   8.251   1.410  -0.157 -0.5183  0.6856  0.4078
  111MOL0     C14896   8.125   1.418  -0.099  0.2732 -0.1775 -0.3833
  111MOL0     O14897   7.787   1.501  -0.300 -0.1962  0.4813  0.0013
  111MOL0     C14898   7.541   1.447  -0.190  0.2093  0.5019  0.0168
  111MOL0     C14899   7.417   1.436  -0.113 -0.8733 -0.8021 -0.4130
  111MOL0     N14900   6.892   1.075   0.416 -0.4070  0.1188 -0.1532
  111MOL0     N14901   6.812   0.982   0.444  0.6978  0.6126 -0.0078
  111MOL0     C14902   5.937   0.188   0.551 -0.2759  0.6258  0.5315
  111MOL0     C14903   5.803   0.150   0.571  0.1034 -0.3919 -0.3163
  111MOL0     C14904   5.346   0.220   0.543 -0.8429 -1.2222  0.3024
  111MOL0     C14905   5.324   0.086   0.566 -0.2243 -0.1275  0.0204
  111MOL0     C14906   5.201   0.019   0.558  0.4611 -0.0662  0.1794
  111MOL0     C14907   5.090   0.090   0.514  0.8190  0.3416  0.5000
  111MOL0     O14908   4.968   0.027   0.501 -0.2600 -0.1748  0.3095
  111MOL0     C14909   4.900   0.048   0.379 -0.0814  0.1649  0.0679
  111MOL0     C14910   4.867  -0.088   0.327  0.1996 -0.4246 -0.0192
  111MOL0     C14911   4.766  -0.170   0.409  0.6420  0.3368 -0.0332
  111MOL0     C14912   4.619  -0.114   0.427 -0.1664  0.5128 -0.0977
  111MOL0     C14913   4.547  -0.142   0.300 -0.0989  1.0710 -0.0721
  111MOL0     C14914   4.510  -0.167   0.193  0.4205 -0.1267 -0.9431
  111MOL0     C14915   5.107   0.228   0.500 -0.3170  0.1533  0.0682
  111MOL0     C14916   5.235   0.289   0.512  0.3419  0.1664  0.0074
  111MOL0     C14917   5.230   0.436   0.493  0.0922 -0.7391 -0.1067
  111MOL0     H14918   5.674   0.346   0.330 -3.3113  1.3785  4.0203
  111MOL0     H14919   5.911   0.407   0.306  2.5339  0.5415  0.8437
  111MOL0     H14920   6.196   0.134   0.483  0.5874 -0.2012 -0.8077
  111MOL0     H14921   6.287   0.229   0.377  0.7112 -1.0622  0.4362
  111MOL0     H14922   6.339   0.252   0.628  1.3209  1.7298  0.2515
  111MOL0     H14923   6.194   0.359   0.642  2.5686  1.4210  1.2827
  111MOL0     H14924   6.297   0.498   0.437 -0.1491  2.2632  1.4538
  111MOL0     H14925   6.435   0.405   0.463 -2.4713 -3.0403 -2.7701
  111MOL0     H14926   6.296   0.582   0.665 -0.1006 -0.0371 -0.8382
  111MOL0     H14927   6.424   0.472   0.715  0.3762 -1.8409 -0.1490
  111MOL0     H14928   6.523   0.689   0.653  1.7140 -0.6105  0.6712
  111MOL0     H14929   6.567   0.566   0.531  0.2748 -0.2075  0.7963
  111MOL0     H14930   6.428   0.656   0.372  0.8536 -2.3235  0.9134
  111MOL0     H14931   6.326   0.747   0.484 -0.5264  1.8849 -1.8107
  111MOL0     H14932   6.561   0.876   0.535  1.3108  2.4727 -1.8224
  111MOL0     H14933   6.454   0.923   0.405 -1.5226 -0.8632  0.5175
  111MOL0     H14934   6.703   0.743   0.374  0.0454 -0.0263  1.1073
  111MOL0     H14935   6.603   0.804   0.239  2.6062 -0.7341 -1.4248
  111MOL0     H14936   6.711   1.028   0.142  0.5961  0.3631 -1.1015
  111MOL0     H14937   6.890   1.218   0.109  1.7428 -0.0114 -0.1530
  111MOL0     H14938   6.978   1.288   0.253 -1.7493 -0.0281  1.9993
  111MOL0     H14939   7.137   1.103   0.260 -0.7638  0.3632 -0.0009
  111MOL0     H14940   7.073   1.035   0.124  0.0266 -0.1504 -0.1442
  111MOL0     H14941   7.119   1.271  -0.001  0.8451  0.4333 -0.1940
  111MOL0     H14942   7.240   1.156   0.029 -1.4795 -1.7508 -0.1152
  111MOL0     H14943   7.336   1.272   0.204 -1.6410 -0.9745  1.9515
  111MOL0     H14944   7.203   1.374   0.247  0.4868  0.0171 -0.3734
  111MOL0     H14945   7.554   1.396   0.198  0.0926 -0.3379  0.0678
  111MOL0     H14946   7.749   1.405   0.087 -0.2751  2.7408  2.0163
  111MOL0     H14947   7.962   1.346  -0.380 -1.3934 -2.5904  3.6121
  111MOL0     H14948   8.182   1.376  -0.481  2.3509 -0.8392  0.1666
  111MOL0     H14949   8.514   1.462  -0.197  0.8584 -1.7605  1.5814
  111MOL0     H14950   8.516   1.286  -0.203  3.1823 -0.2301  0.4702
  111MOL0     H14951   8.623   1.329  -0.437  1.2889  1.2308 -0.7447
  111MOL0     H14952   8.642   1.499  -0.385  1.8782 -1.1335 -0.3271
  111MOL0     H14953   8.739   1.416  -0.173 -3.4874  0.0108  0.3886
  111MOL0     H14954   8.731   1.255  -0.233 -1.1430  0.9839 -2.8624
  111MOL0     H14955   8.918   1.479  -0.324 -2.3123  1.4910 -0.2970
  111MOL0     H14956   8.881   1.342  -0.428 -0.2003 -0.2788  0.1407
  111MOL0     H14957   8.951   1.198  -0.223  2.0678 -1.1818 -0.2668
  111MOL0     H14958   9.006   1.349  -0.150 -0.9949  1.4292 -0.6557
  111MOL0     H14959   9.136   1.386  -0.396 -0.5321  1.0394  0.2710
  111MOL0     H14960   9.205   1.313  -0.248 -2.3523 -0.7071  1.7385
  111MOL0     H14961   9.084   1.186  -0.498 -2.7925 -2.9401  1.4357
  111MOL0     H14962   9.112   1.084  -0.361  0.2727 -1.5242 -1.3679
  111MOL0     H14963   9.306   1.080  -0.524 -1.1927 -0.3682  0.3468
  111MOL0     H14964   9.302   1.251  -0.541 -3.8493 -0.8044 -1.5927
  111MOL0     H14965   8.336   1.432  -0.094  1.1354 -0.4859 -1.3152
  111MOL0     H14966   8.103   1.415   0.007 -0.1812 -2.5722 -0.4995
  111MOL0     H14967   7.526   1.476  -0.293 -0.9894 -0.4901 -0.1102
  111MOL0     H14968   7.319   1.450  -0.157 -0.3204  1.3564 -1.0997
  111MOL0     H14969   6.005   0.134   0.616 -3.2849 -0.4003  3.0781
  111MOL0     H14970   5.770   0.076   0.643  0.8617 -2.6043 -2.1161
  111MOL0     H14971   5.404   0.017   0.592 -0.9740 -0.5177  1.3987
  111MOL0     H14972   5.192  -0.086   0.583  2.0226 -0.6718 -1.5877
  111MOL0     H14973   4.961   0.098   0.303  2.6375  1.6480  2.9828
  111MOL0     H14974   4.811   0.107   0.398  0.2071  1.0776 -1.3073
  111MOL0     H14975   4.956  -0.149   0.313 -0.0642 -0.6971 -0.5434
  111MOL0     H14976   4.826  -0.075   0.226  0.8809 -0.6999 -0.3396
  111MOL0     H14977   4.808  -0.161   0.510  0.3272  1.2968  0.0162
  111MOL0     H14978   4.769  -0.278   0.388  0.0289  0.3987 -0.4592
  111MOL0     H14979   4.564  -0.161   0.509 -2.0654  2.3565 -0.2283
  111MOL0     H14980   4.612  -0.011   0.461  3.1046  1.0236 -0.6788
  111MOL0     H14981   4.479  -0.186   0.092  2.1591 -0.1289 -1.5077
  111MOL0     H14982   5.027   0.296   0.471  0.7373  1.0026 -0.9215
  111MOL0     H14983   5.133   0.475   0.459 -0.8165 -0.5388  2.4537
  111MOL0     H14984   5.261   0.481   0.588  1.5145 -0.6849 -0.5803
  111MOL0     H14985   5.299   0.470   0.416  0.1581  0.1130  0.3216
  112MOL0     O14986   5.955   8.787   2.993  0.5353 -0.1550  1.1441
  112MOL0     C14987   5.891   8.849   2.907 -0.4758 -0.4536  0.2466
  112MOL0     O14988   5.930   8.952   2.824  0.7149 -0.8795 -0.3024
  112MOL0     C14989   6.043   9.028   2.822 -0.5471  0.3184 -0.2974
  112MOL0     C14990   6.134   9.034   2.935 -0.2655  0.7862  0.4316
  112MOL0     C14991   6.260   9.095   2.915 -0.1221  0.3291  0.6463
  112MOL0     C14992   6.298   9.154   2.793  0.8004 -0.3003 -0.4763
  112MOL0     O14993   6.418   9.228   2.792  0.0926 -0.2382 -0.0032
  112MOL0     C14994   6.481   9.270   2.672  0.7379  0.2398  0.7099
  112MOL0     C14995   6.589   9.359   2.722 -0.1177  0.1111 -0.1450
  112MOL0     C14996   6.661   9.407   2.602 -0.1621 -0.5553  0.1837
  112MOL0     C14997   6.782   9.474   2.661 -0.6530  0.5395  0.4694
  112MOL0     C14998   6.871   9.544   2.554  0.4883  1.0602 -0.0349
  112MOL0     C14999   6.984   9.622   2.628 -0.1854  0.2774  0.2864
  112MOL0     C15000   7.105   9.659   2.539 -0.2579  0.2935  0.4851
  112MOL0     C15001   7.053   9.748   2.423 -0.7390 -0.2828  0.1415
  112MOL0     N15002   7.163   9.805   2.342 -0.1625  0.9107  0.8516
  112MOL0     C15003   7.260   9.901   2.370  0.1873  0.2845  0.2006
  112MOL0     C15004   7.349   9.904   2.270  0.1722 -0.1992  0.2612
  112MOL0     C15005   7.460  10.011   2.274 -0.0892  0.7110 -0.5133
  112MOL0     C15006   7.568   9.976   2.182  0.0773 -0.0499 -0.0235
  112MOL0     C15007   7.534  10.024   2.036 -0.5918  0.2346  0.8462
  112MOL0     C15008   7.633   9.971   1.941 -1.2096 -0.3696  0.1208
  112MOL0     O15009   7.770  10.025   1.962  0.1561  0.5575  0.4254
  112MOL0     C15010   7.857   9.978   1.862 -0.1253  0.1144  0.4200
  112MOL0     C15011   7.836   9.887   1.757  0.1570 -1.0695 -0.8389
  112MOL0     C15012   7.944   9.849   1.667  0.0801 -0.4947 -0.0870
  112MOL0     C15013   8.074   9.898   1.678 -0.5246  0.1591  0.3287
  112MOL0     C15014   8.185   9.856   1.593  1.2906  0.1588  0.6238
  112MOL0     O15015   8.163   9.774   1.489  0.0808 -0.5556 -0.8725
  112MOL0     C15016   8.275   9.737   1.423  0.0470  0.3408 -0.3254
  112MOL0     C15017   8.397   9.805   1.401  0.2477 -0.0625  0.7754
  112MOL0     C15018   8.496   9.738   1.330  0.4465  0.2877 -0.0375
  112MOL0     C15019   8.483   9.613   1.265  0.1673  0.1021 -0.6605
  112MOL0     O15020   8.588   9.569   1.191  0.2215  0.1649  0.8369
  112MOL0     C15021   8.585   9.429   1.180  0.2867 -0.5533  0.0894
  112MOL0     C15022   8.724   9.380   1.110 -0.2384  0.1506 -0.3794
  112MOL0     C15023   8.804   9.266   1.168 -0.3057  0.8251 -0.2009
  112MOL0     C15024   8.725   9.133   1.183  0.4917  0.8853  0.1689
  112MOL0     C15025   8.816   9.022   1.251 -0.3441  0.3289 -0.2372
  112MOL0     C15026   8.739   8.894   1.285 -0.0295 -0.7146 -0.4024
  112MOL0     C15027   8.824   8.783   1.361 -0.0590 -0.2519 -0.4488
  112MOL0     C15028   8.722   8.669   1.394  0.5314  0.0518 -0.0454
  112MOL0    Cl15029   8.778   8.544   1.510 -0.2493 -0.2355 -0.2205
  112MOL0     C15030   8.362   9.548   1.291 -0.6140 -0.6303  0.5318
  112MOL0     C15031   8.266   9.606   1.372  0.4197  0.4740  0.9085
  112MOL0     O15032   8.291   9.881   1.643 -0.1385  0.5207  0.1407
  112MOL0     C15033   8.098   9.988   1.789 -0.4568  0.9957 -0.5726
  112MOL0     C15034   7.993  10.022   1.873 -0.1845 -0.2812 -0.3483
  112MOL0     N15035   7.294   9.817   2.174  0.1198 -1.5774  0.0554
  112MOL0     N15036   7.181   9.762   2.210  0.2744 -0.7260 -0.0779
  112MOL0     C15037   6.208   9.142   2.681 -0.3708  0.7793  0.0540
  112MOL0     C15038   6.086   9.076   2.697  0.6152  0.6101 -0.5349
  112MOL0     C15039   5.748   8.805   2.878 -0.8063  0.2241 -1.0831
  112MOL0     C15040   5.690   8.821   2.749 -0.2815 -0.5212  0.0222
  112MOL0     C15041   5.559   8.779   2.728 -0.1382 -0.3695  0.6557
  112MOL0     C15042   5.480   8.717   2.823  0.1164 -0.0385 -0.1341
  112MOL0     O15043   5.359   8.651   2.805  0.7597  0.0763  0.1275
  112MOL0     C15044   5.296   8.674   2.676  0.1960 -0.1314 -1.2035
  112MOL0     C15045   5.177   8.583   2.648  0.5918 -0.7636 -0.6722
  112MOL0     C15046   5.054   8.635   2.717 -0.0412 -1.3699  0.5251
  112MOL0     C15047   4.928   8.558   2.697  0.4786  0.1470  0.0601
  112MOL0     C15048   4.872   8.596   2.562 -0.8611  0.0494 -0.6963
  112MOL0     C15049   4.826   8.626   2.452 -0.2469  0.9573  0.3342
  112MOL0     C15050   5.538   8.706   2.946 -0.0829  0.2443 -0.5674
  112MOL0     C15051   5.669   8.741   2.980  0.0871 -0.1096 -0.7697
  112MOL0     C15052   5.714   8.717   3.125 -0.2704  0.9169  0.4635
  112MOL0     H15053   6.110   8.989   3.031  2.7110 -0.3254  0.7373
  112MOL0     H15054   6.321   9.124   3.000  1.3505  2.8787 -1.1414
  112MOL0     H15055   6.535   9.187   2.626  1.1052  0.5198  0.6241
  112MOL0     H15056   6.421   9.325   2.600  0.2583  0.1452  1.0329
  112MOL0     H15057   6.654   9.303   2.789  1.6299  1.5766 -0.5469
  112MOL0     H15058   6.549   9.447   2.773  2.0682  1.6038 -0.9155
  112MOL0     H15059   6.604   9.488   2.556 -0.1577  0.8458  2.4770
  112MOL0     H15060   6.683   9.321   2.539 -0.9899  0.7692 -2.0071
  112MOL0     H15061   6.759   9.549   2.738 -1.4580 -1.0807  1.8843
  112MOL0     H15062   6.848   9.394   2.697  0.5857 -0.7763 -4.0769
  112MOL0     H15063   6.895   9.466   2.482 -0.0398 -0.1756  1.0895
  112MOL0     H15064   6.812   9.613   2.493 -0.1524  0.0790 -0.5371
  112MOL0     H15065   6.951   9.718   2.668  0.7343  0.0597  1.6447
  112MOL0     H15066   7.019   9.560   2.711  3.9376 -0.3871 -1.6755
  112MOL0     H15067   7.148   9.568   2.495 -0.9776  0.1209  0.1169
  112MOL0     H15068   7.185   9.710   2.593  0.9372 -2.4005  1.4044
  112MOL0     H15069   6.986   9.693   2.355  2.2846 -3.1028 -0.8204
  112MOL0     H15070   7.005   9.842   2.452 -0.0700  1.8512 -4.6940
  112MOL0     H15071   7.270   9.961   2.459 -1.6692 -0.4564  0.9547
  112MOL0     H15072   7.402  10.101   2.250 -0.5607  0.0833 -1.8410
  112MOL0     H15073   7.494  10.019   2.377 -0.1661 -0.4757 -0.3823
  112MOL0     H15074   7.657  10.030   2.216 -0.5413  0.0154  1.5827
  112MOL0     H15075   7.588   9.869   2.173  3.3181  0.0274  3.5714
  112MOL0     H15076   7.537  10.134   2.030  1.2038  0.1584 -1.2361
  112MOL0     H15077   7.435   9.996   2.001 -0.4183  0.1538  0.4117
  112MOL0     H15078   7.607   9.998   1.839  0.8894 -2.1269 -0.9750
  112MOL0     H15079   7.637   9.863   1.954  1.5798 -0.5567 -1.4293
  112MOL0     H15080   7.737   9.852   1.730 -0.9831 -0.4519  2.1747
  112MOL0     H15081   7.899   9.785   1.591 -1.9690  0.3308  0.3751
  112MOL0     H15082   8.409   9.905   1.440 -1.5302  0.2624  0.5782
  112MOL0     H15083   8.592   9.787   1.312  0.9734 -0.5970  0.2818
  112MOL0     H15084   8.564   9.378   1.274 -3.1511  2.2327  1.0621
  112MOL0     H15085   8.512   9.394   1.107  2.0451  1.0107 -2.6248
  112MOL0     H15086   8.713   9.366   1.002  1.4401 -2.5711 -0.2716
  112MOL0     H15087   8.795   9.463   1.114 -2.5187  2.1724  0.5697
  112MOL0     H15088   8.891   9.244   1.105 -0.4128  0.1494 -0.1200
  112MOL0     H15089   8.845   9.285   1.268  0.7045 -1.6922 -0.0483
  112MOL0     H15090   8.694   9.080   1.093  1.0465 -0.9948  1.0282
  112MOL0     H15091   8.640   9.158   1.247  0.5135  2.7808 -0.4868
  112MOL0     H15092   8.865   9.054   1.343 -1.4119 -1.9568  1.2237
  112MOL0     H15093   8.897   8.988   1.186 -1.2406 -3.5875  0.4157
  112MOL0     H15094   8.662   8.925   1.356  2.9525 -0.3352  2.9629
  112MOL0     H15095   8.696   8.859   1.191  0.3356 -0.1612 -0.7787
  112MOL0     H15096   8.865   8.818   1.456 -2.7929  0.6698  0.4788
  112MOL0     H15097   8.902   8.737   1.300 -1.4670  0.5288 -2.9753
  112MOL0     H15098   8.624   8.712   1.415 -0.1073 -0.5259 -1.7150
  112MOL0     H15099   8.714   8.624   1.295  4.1277  1.7888 -1.3150
  112MOL0     H15100   8.338   9.446   1.261 -0.3048 -0.9714  1.4274
  112MOL0     H15101   8.168   9.560   1.380 -0.2083  1.0469 -2.1206
  112MOL0     H15102   8.192  10.033   1.818 -1.1262  2.5577 -0.7215
  112MOL0     H15103   8.012  10.088   1.956 -4.8194  0.3174  0.5505
  112MOL0     H15104   6.239   9.180   2.584  2.4643 -3.2959 -0.9158
  112MOL0     H15105   6.021   9.062   2.611 -0.4505  0.8998  0.1974
  112MOL0     H15106   5.750   8.870   2.673  0.0078  0.3610  0.7980
  112MOL0     H15107   5.530   8.776   2.624 -0.4915  0.8384  0.7118
  112MOL0     H15108   5.374   8.650   2.604  1.4640 -2.1692  0.7370
  112MOL0     H15109   5.275   8.781   2.663  1.5282  0.1100 -1.4327
  112MOL0     H15110   5.189   8.480   2.684 -2.4486 -0.7868  0.4837
  112MOL0     H15111   5.162   8.564   2.541 -1.2235 -0.8876 -0.4121
  112MOL0     H15112   5.041   8.738   2.683 -1.6439 -1.8279 -0.3322
  112MOL0     H15113   5.077   8.634   2.824  3.4460 -1.2323 -0.0903
  112MOL0     H15114   4.942   8.450   2.706 -1.5173 -0.2319 -0.7631
  112MOL0     H15115   4.854   8.587   2.773 -0.8900 -0.7034 -0.8928
  112MOL0     H15116   4.798   8.633   2.348  0.6414  1.2090  0.1012
  112MOL0     H15117   5.484   8.662   3.029  0.4976 -1.7290 -1.2040
  112MOL0     H15118   5.624   8.696   3.184 -0.0783 -1.3337  0.0448
  112MOL0     H15119   5.778   8.629   3.137  0.2970  1.3757  0.8448
  112MOL0     H15120   5.777   8.797   3.164  0.9729  0.7730 -1.1643
  113MOL0     O15121   3.941   9.387   7.557  0.0937 -0.0146  0.1227
  113MOL0     C15122   3.935   9.499   7.605 -0.3509 -0.7126  0.9397
  113MOL0     O15123   4.005   9.548   7.705  0.6054 -0.5472  0.1031
  113MOL0     C15124   4.142   9.520   7.722 -0.1143  0.5448  0.4742
  113MOL0     C15125   4.218   9.485   7.611 -0.2585 -0.6167 -0.2220
  113MOL0     C15126   4.356   9.461   7.626  0.5398  0.2533  0.4118
  113MOL0     C15127   4.413   9.449   7.751  0.1755  0.7471 -0.0819
  113MOL0     O15128   4.546   9.402   7.738  0.0635  0.0615  0.2627
  113MOL0     C15129   4.633   9.429   7.851  0.1821 -0.4246  0.6225
  113MOL0     C15130   4.768   9.370   7.812  0.3645  0.1431  0.2912
  113MOL0     C15131   4.878   9.393   7.913 -0.4506 -0.0787 -0.2183
  113MOL0     C15132   4.932   9.533   7.914  0.1124  0.8473 -0.3167
  113MOL0     C15133   5.047   9.563   8.018 -0.3239  0.1052  0.6660
  113MOL0     C15134   5.183   9.501   7.988 -0.0834  0.1500  0.1614
  113MOL0     C15135   5.294   9.533   8.094 -0.4363  0.0829 -0.0598
  113MOL0     C15136   5.430   9.502   8.026  0.4001  0.7429  0.7717
  113MOL0     N15137   5.540   9.556   8.099  0.3430  0.5482  0.7331
  113MOL0     C15138   5.633   9.492   8.176  0.2558  0.4353  0.2109
  113MOL0     C15139   5.740   9.579   8.193  0.6359 -0.4744  0.8816
  113MOL0     C15140   5.866   9.547   8.264 -0.7732 -0.5551 -0.4289
  113MOL0     C15141   5.972   9.649   8.211  0.6651  0.2679 -0.1407
  113MOL0     C15142   6.038   9.601   8.077  0.6253  0.7960 -0.3128
  113MOL0     C15143   6.145   9.697   8.035  0.0487  0.0689 -0.0749
  113MOL0     O15144   6.248   9.696   8.140  0.2364  0.2791  0.6495
  113MOL0     C15145   6.380   9.720   8.095 -0.6733  0.9704  0.4470
  113MOL0     C15146   6.408   9.788   7.975 -1.0027  0.0408 -0.3082
  113MOL0     C15147   6.541   9.819   7.940 -0.1059 -0.8752 -0.1636
  113MOL0     C15148   6.643   9.773   8.025  0.1107 -0.1186  0.0760
  113MOL0     C15149   6.781   9.815   7.995 -0.1247 -0.1222  0.1479
  113MOL0     O15150   6.882   9.757   8.064  0.4365  0.5130  0.7295
  113MOL0     C15151   7.014   9.789   8.030  1.6454 -0.2129  0.3814
  113MOL0     C15152   7.104   9.798   8.144  0.1817 -0.3564  0.9800
  113MOL0     C15153   7.238   9.830   8.125  0.1529 -0.7785  0.4318
  113MOL0     C15154   7.285   9.856   7.997 -0.0310 -0.4328 -1.1513
  113MOL0     O15155   7.410   9.912   7.987 -0.0114 -0.9963 -0.1008
  113MOL0     C15156   7.482   9.902   7.868  0.4590  0.8109 -0.1386
  113MOL0     C15157   7.611   9.832   7.906  0.8433 -0.3335  0.0464
  113MOL0     C15158   7.706   9.917   7.996  0.7578  0.6968  0.4861
  113MOL0     C15159   7.856   9.862   8.014 -0.8238 -1.3686 -0.1578
  113MOL0     C15160   7.940   9.948   8.113 -0.5479  0.1850  0.2608
  113MOL0     C15161   7.973  10.085   8.046  0.5365  0.9423  0.0247
  113MOL0     C15162   8.078  10.156   8.118  0.2849  0.2566 -0.0252
  113MOL0     C15163   8.049  10.212   8.262  0.7445  0.3529  0.0672
  113MOL0    Cl15164   8.203  10.275   8.335  0.2028 -0.4591  0.2364
  113MOL0     C15165   7.196   9.845   7.890 -0.6056  0.5165 -1.2406
  113MOL0     C15166   7.063   9.808   7.906 -0.4896 -0.1902  1.0492
  113MOL0     O15167   6.796   9.915   7.925  0.5474 -0.2763  0.1145
  113MOL0     C15168   6.608   9.691   8.133 -0.1369  0.3252 -0.1820
  113MOL0     C15169   6.485   9.664   8.171 -0.7964 -0.3462 -0.1902
  113MOL0     N15170   5.696   9.701   8.131 -0.3881 -0.3411 -0.5417
  113MOL0     N15171   5.580   9.679   8.071  0.0476 -0.0931 -0.6830
  113MOL0     C15172   4.337   9.489   7.865 -0.1609  0.0672  0.1625
  113MOL0     C15173   4.204   9.523   7.854  1.4521 -0.7582 -0.0974
  113MOL0     C15174   3.841   9.597   7.539  0.2710  0.3467 -0.8327
  113MOL0     C15175   3.842   9.734   7.578 -0.5226  0.9475 -0.3513
  113MOL0     C15176   3.747   9.823   7.534 -0.5412 -0.4104  0.2320
  113MOL0     C15177   3.656   9.785   7.436 -0.8028  0.1153  0.7750
  113MOL0     O15178   3.563   9.880   7.388  0.2247  0.1223 -0.7629
  113MOL0     C15179   3.427   9.837   7.356 -0.2817  0.2130 -0.2021
  113MOL0     C15180   3.335   9.952   7.297 -0.1527 -0.0827  0.4590
  113MOL0     C15181   3.185   9.916   7.299 -0.1139  0.9152  0.0440
  113MOL0     C15182   3.116  10.010   7.197  0.2834  0.7066  0.2518
  113MOL0     C15183   2.969   9.964   7.185  0.0989 -0.5345 -0.0218
  113MOL0     C15184   2.855   9.928   7.164 -0.0354  0.0786  0.3893
  113MOL0     C15185   3.656   9.651   7.392 -0.0848  0.3760 -1.2769
  113MOL0     C15186   3.742   9.551   7.444  0.6072 -0.2671 -0.4359
  113MOL0     C15187   3.707   9.409   7.404 -0.1171  0.3892  0.3220
  113MOL0     H15188   4.172   9.485   7.513  1.9752 -1.9198 -1.3517
  113MOL0     H15189   4.423   9.446   7.542  0.6492  1.3445  0.2844
  113MOL0     H15190   4.644   9.537   7.865 -0.9851  0.2487 -2.5933
  113MOL0     H15191   4.605   9.401   7.953  2.5658  4.5578  2.9991
  113MOL0     H15192   4.795   9.408   7.713 -0.0593 -2.9487 -1.1319
  113MOL0     H15193   4.749   9.264   7.792  0.9485  0.4631 -2.2377
  113MOL0     H15194   4.953   9.313   7.905 -0.4849  0.0434 -2.3795
  113MOL0     H15195   4.826   9.369   8.006 -0.2838  0.3360 -0.0166
  113MOL0     H15196   4.977   9.568   7.820  1.0273  1.2991  0.2722
  113MOL0     H15197   4.841   9.593   7.921 -0.5061  0.0293 -1.1009
  113MOL0     H15198   5.067   9.671   8.024  1.6368  0.0313 -2.4152
  113MOL0     H15199   5.006   9.529   8.114 -1.3778 -0.0816  0.1627
  113MOL0     H15200   5.175   9.393   7.973  0.7159  0.2637 -1.3088
  113MOL0     H15201   5.224   9.543   7.896  1.1460  0.0948  0.6718
  113MOL0     H15202   5.277   9.474   8.184 -1.3260 -1.0122 -0.9035
  113MOL0     H15203   5.290   9.636   8.130 -0.0617  0.2019 -0.3434
  113MOL0     H15204   5.437   9.393   8.016 -1.4023  0.7138 -0.9590
  113MOL0     H15205   5.439   9.545   7.926 -0.6822  0.5946  0.5875
  113MOL0     H15206   5.628   9.397   8.228 -2.2287  2.7177  4.7147
  113MOL0     H15207   5.848   9.555   8.372  2.3454 -0.8006  0.1841
  113MOL0     H15208   5.901   9.446   8.240 -0.5651 -0.1425 -1.9234
  113MOL0     H15209   5.930   9.749   8.198 -0.0872 -0.1966 -1.5122
  113MOL0     H15210   6.053   9.666   8.283 -1.2373 -1.1261  2.5275
  113MOL0     H15211   5.966   9.583   7.997  0.8887  1.0620 -0.6114
  113MOL0     H15212   6.083   9.502   8.092 -0.4990  0.0952 -1.3601
  113MOL0     H15213   6.112   9.800   8.027  1.6026  0.6082  0.0855
  113MOL0     H15214   6.184   9.653   7.942  1.3031 -1.8834  1.2788
  113MOL0     H15215   6.326   9.841   7.927 -0.2222  1.4411 -0.1518
  113MOL0     H15216   6.566   9.891   7.863  3.2560  1.2919  2.6528
  113MOL0     H15217   7.063   9.789   8.244  0.4313  0.6606  1.1798
  113MOL0     H15218   7.312   9.852   8.202  2.5316  0.9510 -2.1336
  113MOL0     H15219   7.436   9.840   7.791  3.7269 -0.3179 -1.3719
  113MOL0     H15220   7.491  10.000   7.820  1.6765 -0.1712 -2.0107
  113MOL0     H15221   7.591   9.737   7.955 -1.0256  1.0990  2.2618
  113MOL0     H15222   7.668   9.808   7.815 -1.9744 -0.3259 -1.8773
  113MOL0     H15223   7.701  10.018   7.954 -0.5435  0.0828 -0.9120
  113MOL0     H15224   7.666   9.919   8.098 -0.8410  1.1452 -0.1258
  113MOL0     H15225   7.904   9.884   7.919  0.2372  0.5278  0.7478
  113MOL0     H15226   7.856   9.755   8.039  0.3196 -1.2252  0.5204
  113MOL0     H15227   8.035   9.895   8.126 -0.1468  0.7396 -0.3252
  113MOL0     H15228   7.893   9.960   8.211 -0.9970  1.8151 -0.1194
  113MOL0     H15229   8.017  10.053   7.952 -1.9759 -5.3696  0.5384
  113MOL0     H15230   7.889  10.155   8.036 -0.2821 -0.0039  0.1287
  113MOL0     H15231   8.111  10.243   8.061 -0.2622  0.3805 -0.1568
  113MOL0     H15232   8.163  10.088   8.133  1.0738  1.0933 -0.6361
  113MOL0     H15233   7.977  10.293   8.249  1.2263  0.6304 -1.0164
  113MOL0     H15234   8.008  10.132   8.323  1.2452  0.3272  0.3809
  113MOL0     H15235   7.231   9.881   7.794  3.3665  0.7472  0.1290
  113MOL0     H15236   6.999   9.808   7.818  1.3374 -0.8953 -0.3544
  113MOL0     H15237   6.689   9.655   8.197  0.0184  1.6343  0.3771
  113MOL0     H15238   6.466   9.616   8.267 -0.7247 -2.8800 -1.3766
  113MOL0     H15239   4.384   9.493   7.963 -1.7419  2.2135  0.9201
  113MOL0     H15240   4.140   9.553   7.936  0.3234  2.0370 -1.8368
  113MOL0     H15241   3.915   9.765   7.652  1.5363 -3.9774  0.0786
  113MOL0     H15242   3.736   9.925   7.569 -0.3923 -0.2562 -0.1627
  113MOL0     H15243   3.383   9.804   7.451 -2.4482  1.6691 -0.6145
  113MOL0     H15244   3.427   9.742   7.302 -0.7747 -0.0132  0.1914
  113MOL0     H15245   3.369   9.982   7.197 -0.4770 -1.6561 -0.1489
  113MOL0     H15246   3.345  10.040   7.361 -1.2878 -0.8455  1.7338
  113MOL0     H15247   3.147   9.948   7.397  1.0458 -0.1958  0.8780
  113MOL0     H15248   3.160   9.813   7.270  1.2467  0.8404 -0.9670
  113MOL0     H15249   3.119  10.113   7.235 -0.7378  0.3274  1.4145
  113MOL0     H15250   3.155   9.998   7.095 -1.3766 -1.3806 -0.2179
  113MOL0     H15251   2.761   9.889   7.131  0.2063  1.7693 -2.6781
  113MOL0     H15252   3.584   9.622   7.316 -1.1651  0.0027 -0.1496
  113MOL0     H15253   3.627   9.405   7.329  0.0286 -0.3203  0.2016
  113MOL0     H15254   3.791   9.351   7.365 -0.3965 -0.5273  1.0493
  113MOL0     H15255   3.659   9.365   7.492 -1.2305  0.4619 -0.2331
  114MOL0     O15256   4.410   6.401   4.202  0.0835  0.2208  0.7302
  114MOL0     C15257   4.343   6.409   4.096  0.3531 -0.1980 -0.2176
  114MOL0     O15258   4.388   6.371   3.970 -0.6187 -0.2777 -0.4415
  114MOL0     C15259   4.520   6.334   3.936  0.2293 -0.1623 -0.3410
  114MOL0     C15260   4.531   6.297   3.806 -0.3463 -0.0219  0.5946
  114MOL0     C15261   4.653   6.278   3.744  0.0960  0.6228 -0.0869
  114MOL0     C15262   4.772   6.282   3.817  0.1501 -0.7657  0.5005
  114MOL0     O15263   4.895   6.251   3.772 -0.0993 -0.0330 -0.0086
  114MOL0     C15264   4.922   6.248   3.635 -0.2021  0.1748  0.1366
  114MOL0     C15265   4.961   6.381   3.579 -0.2712  0.4915  0.5857
  114MOL0     C15266   4.867   6.501   3.612  0.6081 -0.7426  0.7872
  114MOL0     C15267   4.936   6.633   3.581 -0.3540  0.2473  1.2007
  114MOL0     C15268   4.950   6.650   3.426  0.0694  0.2974  0.2102
  114MOL0     C15269   5.022   6.781   3.403  0.1752  0.3640  0.6706
  114MOL0     C15270   5.075   6.791   3.255  0.9925 -0.2247 -0.5972
  114MOL0     C15271   5.124   6.930   3.222 -0.3959  0.4498  0.2898
  114MOL0     N15272   5.253   6.970   3.274  0.4344 -0.9931  0.0390
  114MOL0     C15273   5.346   7.028   3.194 -0.0053 -0.0454 -0.1138
  114MOL0     C15274   5.455   7.032   3.269 -0.5318 -0.5426 -0.4459
  114MOL0     C15275   5.580   7.088   3.221 -1.0647  0.0556  0.0144
  114MOL0     C15276   5.699   7.096   3.319 -0.4245 -0.6482  0.0115
  114MOL0     C15277   5.676   7.205   3.420  0.1380  0.0051 -0.0541
  114MOL0     C15278   5.801   7.226   3.500  0.3331 -0.7968 -0.1782
  114MOL0     O15279   5.918   7.251   3.423  0.4029  0.1030  0.3019
  114MOL0     C15280   6.047   7.268   3.474  0.4144  0.2658  0.6070
  114MOL0     C15281   6.152   7.303   3.392  0.4004  0.3819  0.3061
  114MOL0     C15282   6.285   7.328   3.443 -0.2116 -0.4058  0.9593
  114MOL0     C15283   6.309   7.319   3.577 -0.3026 -0.2856  0.2761
  114MOL0     C15284   6.445   7.348   3.626  0.5897  1.2698 -0.4346
  114MOL0     O15285   6.451   7.352   3.764 -0.0704 -0.0568  0.0742
  114MOL0     C15286   6.578   7.368   3.808  0.3338 -0.5775  0.7663
  114MOL0     C15287   6.643   7.257   3.852 -0.5426 -0.0315  0.8324
  114MOL0     C15288   6.776   7.269   3.906  1.2564 -0.7657  0.4712
  114MOL0     C15289   6.839   7.397   3.924  0.4946  0.3434 -0.4405
  114MOL0     O15290   6.968   7.398   3.972  0.0505  0.0988 -0.9435
  114MOL0     C15291   7.060   7.315   3.895  0.7305 -0.7498  0.0681
  114MOL0     C15292   7.171   7.262   3.980 -0.3818  0.2358 -0.2280
  114MOL0     C15293   7.251   7.361   4.059 -0.0401 -0.5716  0.7031
  114MOL0     C15294   7.331   7.290   4.166  0.1140 -0.5511 -0.5210
  114MOL0     C15295   7.452   7.376   4.231  0.3006  0.6093  0.8180
  114MOL0     C15296   7.573   7.295   4.280  0.0421  0.5366  0.3801
  114MOL0     C15297   7.690   7.291   4.181 -0.0570  1.4916 -0.1444
  114MOL0     C15298   7.782   7.176   4.230 -0.2492 -0.2313  0.3218
  114MOL0    Cl15299   7.920   7.163   4.113  0.0688 -0.2657  0.5183
  114MOL0     C15300   6.762   7.507   3.878  0.6273  0.0560 -0.1976
  114MOL0     C15301   6.637   7.498   3.820 -0.3561 -0.6003 -0.0109
  114MOL0     O15302   6.535   7.371   3.544 -0.1068  0.1191 -0.2203
  114MOL0     C15303   6.210   7.280   3.656  0.3521  0.2011 -0.6915
  114MOL0     C15304   6.077   7.258   3.603 -0.8701 -0.0101  0.0131
  114MOL0     N15305   5.434   6.976   3.397 -0.4557  0.5899  0.4992
  114MOL0     N15306   5.311   6.944   3.394 -0.1028  0.8452 -0.2239
  114MOL0     C15307   4.766   6.321   3.948 -0.1275  0.8959  0.2218
  114MOL0     C15308   4.642   6.333   4.009  1.1726 -0.3070 -0.0143
  114MOL0     C15309   4.202   6.460   4.096  0.1887 -0.2442  0.7032
  114MOL0     C15310   4.146   6.489   3.968  0.2216  0.0567 -0.2136
  114MOL0     C15311   4.016   6.535   3.971 -0.3162 -0.1333  0.2639
  114MOL0     C15312   3.946   6.562   4.089  0.7803 -0.1048  0.6522
  114MOL0     O15313   3.813   6.605   4.073 -0.1455 -0.3649 -0.2651
  114MOL0     C15314   3.757   6.672   4.185  0.2258 -0.2895  0.7544
  114MOL0     C15315   3.642   6.748   4.127  0.5489 -0.1733  0.0322
  114MOL0     C15316   3.550   6.791   4.243  0.0184 -0.7798  0.2546
  114MOL0     C15317   3.455   6.910   4.209  0.2749  0.8566 -0.8686
  114MOL0     C15318   3.362   6.936   4.325 -0.8140 -0.2150  0.2585
  114MOL0     C15319   3.278   6.964   4.405 -0.3458 -0.0551  0.1884
  114MOL0     C15320   4.004   6.536   4.210  0.0394 -0.3753 -0.1820
  114MOL0     C15321   4.136   6.495   4.217  0.4817  0.2572 -0.1282
  114MOL0     C15322   4.188   6.479   4.356  0.3893 -0.5108  0.2290
  114MOL0     H15323   4.452   6.296   3.732  1.7324  3.6375 -2.0862
  114MOL0     H15324   4.646   6.254   3.638  0.6331 -0.2952  0.0763
  114MOL0     H15325   5.004   6.178   3.614  0.1653  1.0832 -1.6121
  114MOL0     H15326   4.836   6.206   3.583 -5.1014  1.8604  5.8092
  114MOL0     H15327   4.975   6.380   3.471  1.5582  2.9122  0.7077
  114MOL0     H15328   5.059   6.401   3.624 -0.0431  2.6886 -0.7548
  114MOL0     H15329   4.834   6.507   3.716 -0.5352  0.9093  0.3559
  114MOL0     H15330   4.773   6.498   3.557  0.6713 -1.3732  0.7104
  114MOL0     H15331   4.877   6.709   3.634  0.5114  0.4957  1.8369
  114MOL0     H15332   5.035   6.634   3.629 -0.0795  2.2449  0.6827
  114MOL0     H15333   5.023   6.577   3.391  0.9746  2.1172 -1.9632
  114MOL0     H15334   4.856   6.640   3.371  0.6774  1.9159 -1.2067
  114MOL0     H15335   4.952   6.863   3.421  0.9171  0.9861  0.7800
  114MOL0     H15336   5.110   6.800   3.466 -0.2974  1.1444  1.0972
  114MOL0     H15337   4.988   6.772   3.191 -1.1197  5.8131 -0.1490
  114MOL0     H15338   5.148   6.711   3.236 -1.0118 -2.7849  1.6664
  114MOL0     H15339   5.130   6.934   3.112 -0.9909 -2.0946  0.1092
  114MOL0     H15340   5.056   6.997   3.276  2.5866  0.2500  4.7373
  114MOL0     H15341   5.323   7.061   3.093 -0.5882 -0.4471 -0.1191
  114MOL0     H15342   5.612   7.028   3.136 -2.8556 -0.7592 -0.1189
  114MOL0     H15343   5.568   7.192   3.189  0.3834  0.8781  1.8940
  114MOL0     H15344   5.707   7.000   3.372  0.9851  0.7182  2.4504
  114MOL0     H15345   5.792   7.108   3.263 -0.4904  0.7962  0.1707
  114MOL0     H15346   5.591   7.175   3.482 -0.7338  1.0776 -0.6660
  114MOL0     H15347   5.648   7.302   3.377  3.9976  1.3959  0.2064
  114MOL0     H15348   5.813   7.140   3.566 -0.2757 -2.1057 -1.7211
  114MOL0     H15349   5.788   7.317   3.559  1.6108 -0.2412 -0.7083
  114MOL0     H15350   6.133   7.313   3.285 -1.3589 -1.0169  0.4385
  114MOL0     H15351   6.359   7.352   3.368 -2.1351 -0.0374 -0.9478
  114MOL0     H15352   6.591   7.163   3.841 -1.2558  0.5429 -1.0154
  114MOL0     H15353   6.821   7.183   3.954 -1.9694 -1.7542  2.0254
  114MOL0     H15354   7.010   7.238   3.836  0.0314  0.4507 -0.9651
  114MOL0     H15355   7.103   7.386   3.823 -1.2634 -0.3816 -0.8383
  114MOL0     H15356   7.126   7.181   4.038 -3.5783 -0.1511 -2.9567
  114MOL0     H15357   7.239   7.208   3.914 -2.6485 -3.3261  0.1003
  114MOL0     H15358   7.327   7.416   4.004  0.9829 -1.2518  1.3949
  114MOL0     H15359   7.177   7.421   4.113 -1.0685 -1.5684  0.4334
  114MOL0     H15360   7.379   7.198   4.130  3.1482  0.0369  1.5861
  114MOL0     H15361   7.261   7.266   4.246  0.3710  1.9159  0.5212
  114MOL0     H15362   7.404   7.424   4.316 -3.2960 -0.2809 -0.5151
  114MOL0     H15363   7.481   7.456   4.162 -2.1739 -0.6043 -1.8867
  114MOL0     H15364   7.604   7.335   4.377  1.5065 -2.5048  1.2973
  114MOL0     H15365   7.539   7.192   4.298  2.9338 -0.5014  0.3664
  114MOL0     H15366   7.745   7.384   4.192 -1.9917  2.9995 -2.2704
  114MOL0     H15367   7.663   7.267   4.078 -1.1127  1.1109  0.2063
  114MOL0     H15368   7.828   7.187   4.329  1.5332 -0.1909 -0.4756
  114MOL0     H15369   7.722   7.086   4.225  1.5189 -1.5601  1.6638
  114MOL0     H15370   6.796   7.610   3.875  0.2948  0.3295  2.7063
  114MOL0     H15371   6.574   7.581   3.794 -0.2286 -0.4644  0.1091
  114MOL0     H15372   6.226   7.276   3.763  0.8303  2.9254 -0.5954
  114MOL0     H15373   5.999   7.243   3.677 -3.5072 -1.0655 -2.7865
  114MOL0     H15374   4.863   6.331   3.995 -0.5704  2.4102  0.8717
  114MOL0     H15375   4.629   6.366   4.111  0.1425  1.1437 -0.5736
  114MOL0     H15376   4.186   6.490   3.867  0.9376  1.3186  0.0728
  114MOL0     H15377   3.957   6.557   3.883  1.4311  1.3070 -0.6085
  114MOL0     H15378   3.822   6.743   4.237 -0.7071  1.2944 -0.1812
  114MOL0     H15379   3.726   6.601   4.263  0.4492 -2.3544 -0.9437
  114MOL0     H15380   3.591   6.687   4.052  1.1930 -0.0825 -0.4906
  114MOL0     H15381   3.684   6.832   4.072 -1.2388  0.7670  0.0396
  114MOL0     H15382   3.606   6.811   4.335  0.4658  2.0319 -0.5114
  114MOL0     H15383   3.487   6.703   4.255 -0.6601 -0.3077  0.2464
  114MOL0     H15384   3.510   6.998   4.174  0.4907  1.0187 -0.1432
  114MOL0     H15385   3.386   6.885   4.129  1.1861  0.1611 -1.4437
  114MOL0     H15386   3.199   7.001   4.466 -1.0924  2.1632 -1.9558
  114MOL0     H15387   3.953   6.547   4.305  1.0035 -2.3981  0.6191
  114MOL0     H15388   4.122   6.502   4.440  0.2502 -0.5109  0.1194
  114MOL0     H15389   4.207   6.373   4.374  1.3702 -0.3826  0.0222
  114MOL0     H15390   4.282   6.533   4.371 -0.6996  0.8672  2.6765
  115MOL0     O15391   4.419   1.402   8.753  0.1191 -0.4611 -0.0314
  115MOL0     C15392   4.326   1.326   8.724  0.8404  0.4459  0.0562
  115MOL0     O15393   4.339   1.189   8.729  0.4407  0.4807  0.4056
  115MOL0     C15394   4.467   1.151   8.703  0.1728 -0.3209 -0.5494
  115MOL0     C15395   4.483   1.113   8.569 -1.1599 -0.3205  0.5159
  115MOL0     C15396   4.610   1.085   8.517  0.1504 -0.0631  0.2023
  115MOL0     C15397   4.726   1.082   8.598  0.3386  0.1052  0.2489
  115MOL0     O15398   4.845   1.046   8.542  0.1639 -1.0933 -0.3141
  115MOL0     C15399   4.969   1.074   8.610 -0.0237  0.2090 -0.2727
  115MOL0     C15400   5.081   1.064   8.506 -0.5512 -0.3077  0.3742
  115MOL0     C15401   5.089   1.201   8.428 -0.0423  0.0852  0.6664
  115MOL0     C15402   5.226   1.266   8.464 -0.1129 -0.5604  0.2121
  115MOL0     C15403   5.252   1.408   8.396  0.2633 -0.7015 -0.3351
  115MOL0     C15404   5.360   1.479   8.475  0.3341  0.2917 -0.1435
  115MOL0     C15405   5.390   1.609   8.397  0.1696 -0.0641 -0.5486
  115MOL0     C15406   5.441   1.733   8.483 -0.0080 -0.2267 -0.9488
  115MOL0     N15407   5.578   1.700   8.521  0.0472  0.6733 -0.7258
  115MOL0     C15408   5.687   1.681   8.450 -0.0339  0.6900  0.5124
  115MOL0     C15409   5.788   1.634   8.531  0.0779  0.0413 -0.1633
  115MOL0     C15410   5.917   1.587   8.475  0.9055 -0.4548  0.0262
  115MOL0     C15411   5.937   1.437   8.474  0.4144  0.0311 -0.6809
  115MOL0     C15412   5.835   1.353   8.378  0.1870  0.2389  0.3725
  115MOL0     C15413   5.857   1.376   8.225  0.3706 -0.1730  0.1556
  115MOL0     O15414   5.765   1.467   8.163  0.1948  0.0960  0.6213
  115MOL0     C15415   5.639   1.423   8.134  0.9931  0.1231  0.1046
  115MOL0     C15416   5.571   1.506   8.047  0.6562  0.6441 -0.0611
  115MOL0     C15417   5.439   1.467   7.998  0.6700  0.1705  0.0468
  115MOL0     C15418   5.386   1.339   8.033  0.3482  0.1492  0.4374
  115MOL0     C15419   5.248   1.297   8.004 -0.3376  0.5911 -0.1930
  115MOL0     O15420   5.168   1.399   7.951 -0.6899  0.3256  0.3351
  115MOL0     C15421   5.050   1.371   7.890  0.3624  0.3225 -0.4756
  115MOL0     C15422   4.951   1.293   7.951 -0.3571  0.1465 -0.1365
  115MOL0     C15423   4.837   1.259   7.880 -0.4193  0.1146 -0.1531
  115MOL0     C15424   4.818   1.307   7.750  0.0757  0.1291  0.1442
  115MOL0     O15425   4.701   1.296   7.683  0.7073  1.1203 -0.1224
  115MOL0     C15426   4.611   1.409   7.703 -0.0259  0.4810  0.2882
  115MOL0     C15427   4.469   1.397   7.648 -0.3092 -0.0053  0.4877
  115MOL0     C15428   4.463   1.395   7.493 -0.4746 -0.2946 -0.2844
  115MOL0     C15429   4.320   1.380   7.447  0.2909  0.0987 -0.0818
  115MOL0     C15430   4.317   1.397   7.293 -0.4654 -0.2199 -0.1407
  115MOL0     C15431   4.202   1.325   7.221  0.2011  0.3938 -0.0273
  115MOL0     C15432   4.071   1.367   7.271  0.1559  0.0051  0.5734
  115MOL0     C15433   4.048   1.514   7.251 -0.5843  0.0141  0.1983
  115MOL0    Cl15434   3.883   1.565   7.298 -0.0571 -0.1912 -0.1255
  115MOL0     C15435   4.912   1.393   7.696  0.0117 -0.9394 -0.2031
  115MOL0     C15436   5.028   1.415   7.761 -0.2356 -0.0586 -0.7145
  115MOL0     O15437   5.224   1.177   8.010 -0.2754  0.9215 -0.1879
  115MOL0     C15438   5.466   1.251   8.112  0.9811 -0.5307  0.1577
  115MOL0     C15439   5.588   1.294   8.160 -0.2603 -0.6968  1.4195
  115MOL0     N15440   5.740   1.631   8.660  0.2130  0.9441 -0.1261
  115MOL0     N15441   5.624   1.678   8.654  0.3154  0.2308  1.0497
  115MOL0     C15442   4.706   1.111   8.740  0.1140  0.3857  0.3486
  115MOL0     C15443   4.581   1.139   8.782 -0.0610  0.0614 -0.9279
  115MOL0     C15444   4.191   1.373   8.677  0.0177 -0.1930  0.1074
  115MOL0     C15445   4.076   1.293   8.695  0.1926  0.0027 -0.2765
  115MOL0     C15446   3.940   1.345   8.688 -0.4843 -0.0374  0.9210
  115MOL0     C15447   3.920   1.479   8.661  0.3780 -0.3916  0.9288
  115MOL0     O15448   3.789   1.539   8.636 -0.4450  0.1013  0.2337
  115MOL0     C15449   3.668   1.459   8.642  0.3686 -0.9310  0.2343
  115MOL0     C15450   3.604   1.457   8.785 -0.1225  0.2971 -0.6335
  115MOL0     C15451   3.458   1.475   8.790  0.8832  0.0097  0.0409
  115MOL0     C15452   3.372   1.367   8.721 -0.1711 -0.0934 -0.1614
  115MOL0     C15453   3.255   1.411   8.649  0.7311 -0.7616  0.3338
  115MOL0     C15454   3.162   1.451   8.586 -0.6497 -0.4964  0.0429
  115MOL0     C15455   4.030   1.555   8.626  0.6141 -0.3047 -0.2520
  115MOL0     C15456   4.162   1.510   8.642 -0.6272  0.4466  0.6661
  115MOL0     C15457   4.257   1.605   8.593 -0.7162 -0.1358 -0.3923
  115MOL0     H15458   4.407   1.102   8.493  0.6790 -2.8488 -1.1256
  115MOL0     H15459   4.632   1.048   8.418 -0.1256  0.7805 -0.1833
  115MOL0     H15460   4.966   1.172   8.658 -0.2263  1.2055 -2.2265
  115MOL0     H15461   4.976   0.997   8.688 -1.0687  0.1650 -0.2009
  115MOL0     H15462   5.051   0.994   8.428  1.7196 -0.8502 -0.0930
  115MOL0     H15463   5.178   1.039   8.551 -0.6764  0.6884  1.2288
  115MOL0     H15464   5.012   1.274   8.455  0.1591  0.7978 -0.5897
  115MOL0     H15465   5.085   1.188   8.319 -2.0011 -0.8731  0.8045
  115MOL0     H15466   5.232   1.273   8.573 -1.0350  0.0370  0.2410
  115MOL0     H15467   5.309   1.198   8.444 -2.1892 -2.7719 -1.5755
  115MOL0     H15468   5.296   1.380   8.300 -2.2470 -0.6700 -1.5725
  115MOL0     H15469   5.158   1.462   8.378  0.5606 -0.2573 -0.5641
  115MOL0     H15470   5.306   1.496   8.569 -0.5261 -3.9541  0.3158
  115MOL0     H15471   5.445   1.411   8.487 -0.4590 -0.9565 -1.3563
  115MOL0     H15472   5.292   1.647   8.367 -0.5295  2.4819  4.0616
  115MOL0     H15473   5.456   1.587   8.312  2.3114 -1.5080  1.3742
  115MOL0     H15474   5.446   1.828   8.429  0.7307  2.1597  2.9442
  115MOL0     H15475   5.372   1.748   8.566  0.8834 -1.5715  0.0714
  115MOL0     H15476   5.696   1.684   8.342  1.0270  0.4267  0.5793
  115MOL0     H15477   5.934   1.641   8.381  1.2221 -0.6958 -0.0577
  115MOL0     H15478   5.990   1.632   8.542 -0.2227  2.4639 -0.5300
  115MOL0     H15479   6.041   1.421   8.444  1.3810  0.6149  2.1003
  115MOL0     H15480   5.918   1.399   8.575 -4.4954  0.0562 -1.3503
  115MOL0     H15481   5.733   1.377   8.410 -0.6814  0.0344 -2.0303
  115MOL0     H15482   5.850   1.247   8.400  0.8249  0.5009  1.2804
  115MOL0     H15483   5.862   1.285   8.165 -2.9142  0.5484 -1.4131
  115MOL0     H15484   5.957   1.420   8.220  0.3579 -0.0539  0.7754
  115MOL0     H15485   5.621   1.602   8.037  0.6186  0.8703  1.5975
  115MOL0     H15486   5.376   1.531   7.936 -0.0542 -0.3142  0.2745
  115MOL0     H15487   4.965   1.266   8.055  3.5143  2.5405  0.1751
  115MOL0     H15488   4.760   1.192   7.920  2.4382 -1.6615  2.9106
  115MOL0     H15489   4.608   1.425   7.811  0.2634  3.1487 -0.0190
  115MOL0     H15490   4.653   1.500   7.657  1.0387  1.6216  3.2734
  115MOL0     H15491   4.419   1.304   7.676 -2.2663  0.2446 -1.7980
  115MOL0     H15492   4.405   1.474   7.690 -1.6538 -0.9689  0.2678
  115MOL0     H15493   4.500   1.492   7.458  2.6309 -0.9486  0.8410
  115MOL0     H15494   4.520   1.310   7.454 -1.5812 -2.1653  1.9309
  115MOL0     H15495   4.254   1.450   7.500 -1.9344  0.1646 -2.7177
  115MOL0     H15496   4.276   1.282   7.466 -0.8115  0.8438  1.3912
  115MOL0     H15497   4.409   1.362   7.246 -0.0547  0.9502 -0.2422
  115MOL0     H15498   4.322   1.503   7.268  0.4135  0.4228  2.4614
  115MOL0     H15499   4.213   1.338   7.113  0.8000 -0.9235 -0.1492
  115MOL0     H15500   4.215   1.218   7.237 -0.9405  0.2631  0.0808
  115MOL0     H15501   4.063   1.343   7.377 -1.9850  3.6263  1.3785
  115MOL0     H15502   3.994   1.311   7.216  1.2787 -2.4247  1.3432
  115MOL0     H15503   4.117   1.572   7.313  2.5796 -0.7485 -2.3363
  115MOL0     H15504   4.066   1.555   7.151 -1.0360  1.0323  0.5253
  115MOL0     H15505   4.904   1.437   7.597 -0.8972 -0.1665  0.1956
  115MOL0     H15506   5.116   1.463   7.719  0.8757 -1.9937 -0.7002
  115MOL0     H15507   5.428   1.151   8.128 -1.8837  0.6780  1.8530
  115MOL0     H15508   5.635   1.227   8.231 -0.8533 -0.1506  2.3409
  115MOL0     H15509   4.793   1.112   8.805 -0.6809  0.6105  1.4363
  115MOL0     H15510   4.570   1.165   8.887 -0.8665 -3.2468 -0.0973
  115MOL0     H15511   4.078   1.187   8.719 -3.6857 -0.3052 -0.6831
  115MOL0     H15512   3.869   1.263   8.699  1.0347 -1.9822 -2.2360
  115MOL0     H15513   3.674   1.358   8.600  0.0605 -0.5117 -0.8797
  115MOL0     H15514   3.594   1.511   8.580  1.0319  0.5882  0.6586
  115MOL0     H15515   3.652   1.535   8.845  0.5308 -1.3480  1.0633
  115MOL0     H15516   3.639   1.363   8.828 -0.2738  0.7756  0.5911
  115MOL0     H15517   3.442   1.567   8.734 -0.2034  1.5747  2.7296
  115MOL0     H15518   3.423   1.496   8.891 -1.0013 -0.3314 -0.5057
  115MOL0     H15519   3.424   1.300   8.652 -1.2406 -1.1166 -0.0212
  115MOL0     H15520   3.340   1.300   8.802 -1.0701  1.3925  0.7602
  115MOL0     H15521   3.082   1.487   8.524 -1.1196 -0.0163  0.9197
  115MOL0     H15522   4.023   1.658   8.592  2.8926 -0.6092 -1.9000
  115MOL0     H15523   4.221   1.709   8.595 -0.2810  0.0116  0.8005
  115MOL0     H15524   4.337   1.609   8.668 -3.6971  1.7566  3.0515
  115MOL0     H15525   4.293   1.579   8.493 -0.7508 -1.7621 -0.0036
  116MOL0     O15526   7.985   1.022   4.349  0.2569  0.3035  0.0582
  116MOL0     C15527   8.064   0.979   4.263 -0.0700 -1.2355 -0.3557
  116MOL0     O15528   8.029   0.898   4.158  0.1632  0.0741  0.1661
  116MOL0     C15529   7.904   0.854   4.142 -0.7475  0.4217  0.8394
  116MOL0     C15530   7.882   0.736   4.060 -0.0415 -0.3728  0.1158
  116MOL0     C15531   7.759   0.674   4.045  0.1122  0.5132  0.6685
  116MOL0     C15532   7.648   0.730   4.109  0.0100  0.9600 -0.2762
  116MOL0     O15533   7.528   0.668   4.110  0.0343  0.0306  0.5233
  116MOL0     C15534   7.526   0.526   4.079  0.0823  0.5611 -0.8874
  116MOL0     C15535   7.386   0.481   4.086  0.2722 -0.0854  0.7425
  116MOL0     C15536   7.315   0.475   4.219  0.2960 -0.2478 -0.5161
  116MOL0     C15537   7.159   0.456   4.197  0.6425  0.2890  0.9669
  116MOL0     C15538   7.089   0.465   4.329 -0.3887 -0.3052 -0.6530
  116MOL0     C15539   7.100   0.332   4.416  0.5044 -0.3092  0.3385
  116MOL0     C15540   7.022   0.344   4.545  0.6433 -0.3179 -0.3724
  116MOL0     C15541   6.970   0.203   4.610 -0.5276  0.3202  0.4412
  116MOL0     N15542   7.084   0.114   4.638 -0.6984  0.7455 -0.1854
  116MOL0     C15543   7.208   0.153   4.693  0.4955 -0.4335 -0.2669
  116MOL0     C15544   7.280   0.042   4.700  0.2909 -0.6465  0.2655
  116MOL0     C15545   7.417   0.044   4.766  0.0090  0.5764 -0.0789
  116MOL0     C15546   7.516   0.031   4.653  0.2997  0.2062 -0.5071
  116MOL0     C15547   7.657   0.056   4.707  0.4881 -0.7026 -0.4381
  116MOL0     C15548   7.769   0.040   4.601 -0.5752  0.1933  0.1932
  116MOL0     O15549   7.892   0.101   4.633 -0.2497  0.0858 -0.3175
  116MOL0     C15550   7.982   0.102   4.532  1.0434  0.6531  0.2438
  116MOL0     C15551   8.085   0.196   4.544  0.2996 -0.0517 -0.1497
  116MOL0     C15552   8.197   0.182   4.468  0.2646 -0.8098  0.0366
  116MOL0     C15553   8.209   0.082   4.376  0.7751 -0.5036  1.1390
  116MOL0     C15554   8.318   0.078   4.275 -0.0389  0.0137  0.3577
  116MOL0     O15555   8.375   0.194   4.244  0.1447  0.3995 -0.0544
  116MOL0     C15556   8.482   0.197   4.159 -0.1629 -0.2354 -0.1207
  116MOL0     C15557   8.599   0.240   4.213  0.6187 -0.3885 -0.6361
  116MOL0     C15558   8.721   0.246   4.133 -0.0428  0.6221  0.0605
  116MOL0     C15559   8.717   0.228   3.991  0.3432  0.1815 -0.4721
  116MOL0     O15560   8.829   0.251   3.915  0.6357  0.0980 -0.8017
  116MOL0     C15561   8.819   0.260   3.772  0.0346 -0.1036 -0.9569
  116MOL0     C15562   8.943   0.325   3.719  0.5068  0.2739 -0.6894
  116MOL0     C15563   9.064   0.226   3.714  0.3560  0.0571  0.4909
  116MOL0     C15564   9.191   0.289   3.645  0.4278  0.3387 -0.2349
  116MOL0     C15565   9.315   0.204   3.676 -0.1910 -0.4827  1.0623
  116MOL0     C15566   9.374   0.255   3.807  0.8280  0.1795  0.0192
  116MOL0     C15567   9.497   0.174   3.831 -0.3052 -0.9559  0.9954
  116MOL0     C15568   9.558   0.189   3.967  1.1128  0.2266 -0.2468
  116MOL0    Cl15569   9.729   0.136   3.979 -0.4678  0.1456 -0.0696
  116MOL0     C15570   8.594   0.200   3.942 -0.0785  0.5204 -0.7078
  116MOL0     C15571   8.484   0.164   4.021 -0.5270  0.5598 -0.2293
  116MOL0     O15572   8.328  -0.024   4.204  0.5292 -0.3099 -0.6333
  116MOL0     C15573   8.098  -0.009   4.358  0.4136 -0.5643 -0.1079
  116MOL0     C15574   7.988   0.006   4.440  0.5310  0.0893 -0.0034
  116MOL0     N15575   7.209  -0.057   4.640  0.1628  0.4412 -0.0519
  116MOL0     N15576   7.095  -0.014   4.599 -0.1285  0.4585 -0.5179
  116MOL0     C15577   7.669   0.839   4.189 -0.0699 -0.0356 -0.5703
  116MOL0     C15578   7.790   0.905   4.196 -0.6995 -1.0173 -0.1822
  116MOL0     C15579   8.210   1.020   4.271 -0.4018  0.3063  0.0875
  116MOL0     C15580   8.297   0.958   4.184 -0.2361  0.6505 -0.4684
  116MOL0     C15581   8.439   0.981   4.177 -0.0402  0.2388 -0.0292
  116MOL0     C15582   8.487   1.077   4.262  0.2408 -0.5885  0.3981
  116MOL0     O15583   8.625   1.114   4.256  0.5423  0.5747 -0.1371
  116MOL0     C15584   8.724   1.036   4.185  0.5574 -0.7004  0.0844
  116MOL0     C15585   8.867   1.066   4.241 -0.4118 -0.1891  0.2720
  116MOL0     C15586   8.952   1.143   4.140 -0.8275  0.0060 -0.3956
  116MOL0     C15587   8.895   1.280   4.123  0.2279 -0.1031  0.1314
  116MOL0     C15588   8.996   1.385   4.110  0.5388 -0.7533 -0.1706
  116MOL0     C15589   9.076   1.469   4.083 -0.0850 -0.4737  0.1091
  116MOL0     C15590   8.404   1.151   4.347 -0.5451 -1.0087  0.3355
  116MOL0     C15591   8.269   1.128   4.349  0.9156  0.1371  0.0432
  116MOL0     C15592   8.190   1.215   4.444  0.4717  0.0099  0.5899
  116MOL0     H15593   7.971   0.693   4.015  0.5830  0.3336  0.6441
  116MOL0     H15594   7.752   0.592   3.975  1.1744  0.2454  0.8545
  116MOL0     H15595   7.562   0.501   3.979  2.7547 -0.0398  0.1550
  116MOL0     H15596   7.580   0.467   4.153 -1.9219 -1.7208 -1.1494
  116MOL0     H15597   7.385   0.377   4.053  2.7296  0.0490  0.0766
  116MOL0     H15598   7.326   0.531   4.009  0.0045  1.4795  1.9324
  116MOL0     H15599   7.330   0.570   4.272 -1.3741 -0.2260 -0.0450
  116MOL0     H15600   7.351   0.396   4.285 -1.3721 -0.2093  0.5107
  116MOL0     H15601   7.121   0.535   4.132 -1.7737 -1.6043 -0.0804
  116MOL0     H15602   7.152   0.363   4.140 -0.5112  2.6234 -3.1434
  116MOL0     H15603   7.122   0.548   4.393 -2.5835 -2.0353  3.0173
  116MOL0     H15604   6.987   0.486   4.296 -0.2472 -1.4895 -1.9465
  116MOL0     H15605   7.057   0.247   4.362  2.3671 -1.5212  0.6600
  116MOL0     H15606   7.204   0.299   4.420  0.8565  0.1297 -2.7386
  116MOL0     H15607   6.929   0.400   4.527 -0.1075 -1.4352 -0.0703
  116MOL0     H15608   7.086   0.401   4.613  0.7033 -0.3993 -0.3617
  116MOL0     H15609   6.921   0.233   4.704  0.9201  0.3699  1.2039
  116MOL0     H15610   6.900   0.142   4.552 -0.2150 -1.2777  1.6615
  116MOL0     H15611   7.227   0.245   4.748 -1.3857 -0.0784 -0.1673
  116MOL0     H15612   7.435   0.142   4.813 -0.3076  1.1239 -1.0788
  116MOL0     H15613   7.413  -0.037   4.840 -3.4330  0.0901 -0.6485
  116MOL0     H15614   7.514  -0.069   4.609 -0.0325  1.5531 -3.8515
  116MOL0     H15615   7.490   0.102   4.574  2.7434  1.0675 -0.6147
  116MOL0     H15616   7.662  -0.012   4.793  1.1819  0.0088  0.0940
  116MOL0     H15617   7.671   0.160   4.739 -1.5447 -0.2275 -0.8997
  116MOL0     H15618   7.735   0.084   4.506  2.7922  3.0335  0.0996
  116MOL0     H15619   7.786  -0.068   4.596 -0.5388  0.2484 -1.5441
  116MOL0     H15620   8.090   0.275   4.619  3.2889 -0.2742 -0.0151
  116MOL0     H15621   8.277   0.255   4.478 -0.3504  0.3537 -2.7059
  116MOL0     H15622   8.596   0.267   4.318  0.4240  0.5223 -0.8743
  116MOL0     H15623   8.819   0.265   4.176  0.7104  1.0079 -1.6961
  116MOL0     H15624   8.810   0.157   3.734  0.3673 -0.6586  0.4132
  116MOL0     H15625   8.742   0.326   3.733 -0.0383  0.8253  0.7019
  116MOL0     H15626   8.917   0.361   3.619 -1.6451  0.8142 -0.0022
  116MOL0     H15627   8.960   0.416   3.776  0.1988  0.4463 -0.8703
  116MOL0     H15628   9.099   0.203   3.815  1.0834  2.4675  0.8686
  116MOL0     H15629   9.040   0.138   3.654 -1.4080  1.1060 -0.4370
  116MOL0     H15630   9.212   0.394   3.665  0.8767  0.4810 -1.3573
  116MOL0     H15631   9.172   0.291   3.537 -0.1773 -0.0412 -0.1408
  116MOL0     H15632   9.387   0.197   3.594  0.4563 -1.9416  1.7203
  116MOL0     H15633   9.281   0.103   3.698 -2.8123  0.1203  0.0899
  116MOL0     H15634   9.402   0.361   3.805  0.9147  0.2006  1.3586
  116MOL0     H15635   9.304   0.248   3.891 -1.3397 -1.0979 -1.7826
  116MOL0     H15636   9.567   0.220   3.760  0.5849 -1.8724  1.2567
  116MOL0     H15637   9.492   0.070   3.799  0.4804 -0.9868  0.9511
  116MOL0     H15638   9.553   0.295   3.989 -1.4670  0.3528 -1.1577
  116MOL0     H15639   9.497   0.133   4.038  1.5693 -0.6069 -0.4906
  116MOL0     H15640   8.584   0.177   3.836 -2.2470 -0.5562 -0.3157
  116MOL0     H15641   8.389   0.146   3.971 -0.1589  0.2550 -0.8280
  116MOL0     H15642   8.084  -0.088   4.286 -1.2871 -0.9218  0.5567
  116MOL0     H15643   7.912  -0.072   4.436 -0.3866  0.9478  0.2891
  116MOL0     H15644   7.576   0.874   4.233 -1.3077 -1.4809 -1.8891
  116MOL0     H15645   7.791   0.996   4.255  2.0716 -0.5842 -0.7692
  116MOL0     H15646   8.269   0.871   4.124  4.3617 -1.4104 -0.0562
  116MOL0     H15647   8.500   0.930   4.103 -0.7753  1.3813 -1.4711
  116MOL0     H15648   8.710   1.058   4.079  2.0904 -0.2377 -0.0446
  116MOL0     H15649   8.697   0.930   4.197 -0.3371 -0.3804  1.0244
  116MOL0     H15650   8.915   0.968   4.256  2.1364  1.2591  2.6871
  116MOL0     H15651   8.855   1.115   4.338 -1.5943  2.8224 -1.2669
  116MOL0     H15652   8.961   1.101   4.039  1.8568 -0.0729 -0.1712
  116MOL0     H15653   9.057   1.151   4.169 -0.0175  0.7525 -3.1714
  116MOL0     H15654   8.826   1.274   4.038  0.8214 -0.2643 -0.3509
  116MOL0     H15655   8.837   1.312   4.209 -0.3534  0.8616 -0.5982
  116MOL0     H15656   9.144   1.552   4.085 -0.7917  0.1196  1.6743
  116MOL0     H15657   8.446   1.231   4.406 -1.5211 -1.3691  1.5611
  116MOL0     H15658   8.184   1.156   4.536 -1.7404  0.8860  1.0862
  116MOL0     H15659   8.244   1.307   4.469  2.0774 -0.6531 -0.2628
  116MOL0     H15660   8.094   1.246   4.401  1.0128  0.4302 -0.3382
  117MOL0     O15661  10.260   0.403   8.539  0.6079 -0.9812 -0.5170
  117MOL0     C15662  10.240   0.527   8.548  0.2992  0.6940  0.4073
  117MOL0     O15663  10.338   0.622   8.529  0.2043  0.0182  0.3655
  117MOL0     C15664  10.460   0.572   8.496  0.1977 -0.5144 -0.2524
  117MOL0     C15665  10.548   0.559   8.600  0.6949  0.3962  0.0368
  117MOL0     C15666  10.668   0.491   8.584 -0.0027 -0.1070 -0.2231
  117MOL0     C15667  10.706   0.453   8.460  0.9471 -1.0655  0.5008
  117MOL0     O15668  10.831   0.400   8.431 -0.0925  0.2478 -0.4024
  117MOL0     C15669  10.924   0.366   8.530  0.0026 -0.5163  0.7964
  117MOL0     C15670  11.061   0.330   8.471  0.2326 -0.2282  0.2464
  117MOL0     C15671  11.054   0.251   8.329 -0.3825  0.1544 -0.4915
  117MOL0     C15672  10.986   0.115   8.345  0.5690 -0.8990 -0.4832
  117MOL0     C15673  11.010   0.024   8.221  0.0205 -0.4151  0.0381
  117MOL0     C15674  10.946  -0.114   8.250 -0.6070 -0.6220  0.3580
  117MOL0     C15675  10.919  -0.209   8.129  0.7639  0.3855 -0.8831
  117MOL0     C15676  10.779  -0.171   8.067 -0.3574 -0.7638  0.3724
  117MOL0     N15677  10.668  -0.243   8.121  0.2889  0.4913 -0.1489
  117MOL0     C15678  10.615  -0.236   8.252  0.3118 -0.0321  0.3624
  117MOL0     C15679  10.523  -0.330   8.254  0.2314 -0.2632  0.1638
  117MOL0     C15680  10.435  -0.363   8.370 -0.6343 -0.4717 -0.1056
  117MOL0     C15681  10.289  -0.336   8.329  0.1402 -0.9390 -0.4696
  117MOL0     C15682  10.199  -0.386   8.450  0.1149 -0.3554 -0.9029
  117MOL0     C15683  10.054  -0.355   8.434  0.0623 -0.0696  0.0858
  117MOL0     O15684  10.012  -0.399   8.301  0.4476 -0.0331  0.0107
  117MOL0     C15685   9.877  -0.385   8.279  0.0805  0.4888 -0.2083
  117MOL0     C15686   9.793  -0.314   8.357  0.3564 -0.6786 -0.4074
  117MOL0     C15687   9.658  -0.299   8.329 -0.5793 -0.2144  0.2761
  117MOL0     C15688   9.607  -0.365   8.219 -0.2591 -0.0767  0.8725
  117MOL0     C15689   9.465  -0.358   8.189  0.4496  0.1157  0.0488
  117MOL0     O15690   9.380  -0.334   8.291  0.0133 -0.1403 -0.7745
  117MOL0     C15691   9.241  -0.333   8.272  0.4777  0.5424 -0.1263
  117MOL0     C15692   9.170  -0.278   8.375  0.8659  0.5648  0.0797
  117MOL0     C15693   9.033  -0.261   8.378  0.0975  0.1806  0.2485
  117MOL0     C15694   8.958  -0.305   8.266 -0.5615  0.1937 -0.4553
  117MOL0     O15695   8.817  -0.296   8.259 -0.1481 -0.2176 -0.4701
  117MOL0     C15696   8.747  -0.376   8.162 -0.0518  0.1047  0.0459
  117MOL0     C15697   8.596  -0.374   8.174  0.1219 -0.3586  0.6965
  117MOL0     C15698   8.524  -0.504   8.128 -0.8287  0.0936  0.5779
  117MOL0     C15699   8.376  -0.487   8.106  0.0398 -0.8530 -0.7085
  117MOL0     C15700   8.300  -0.620   8.078 -0.2059  0.1572 -0.0182
  117MOL0     C15701   8.152  -0.600   8.044 -0.0431  0.0968 -0.1897
  117MOL0     C15702   8.064  -0.722   8.050  0.6272 -0.6212  0.1697
  117MOL0     C15703   7.948  -0.707   7.956 -0.3100 -0.1602  0.1575
  117MOL0    Cl15704   7.822  -0.831   7.997  0.0946  0.0787  0.5634
  117MOL0     C15705   9.026  -0.366   8.158  0.2568 -0.5766 -0.0072
  117MOL0     C15706   9.164  -0.378   8.163 -0.4841  0.6520  0.0959
  117MOL0     O15707   9.429  -0.395   8.080  0.1512 -0.1679 -0.3648
  117MOL0     C15708   9.693  -0.424   8.127  0.3537  0.6209 -0.0577
  117MOL0     C15709   9.827  -0.434   8.152 -0.5429  0.5357 -0.0597
  117MOL0     N15710  10.515  -0.399   8.134 -0.5089 -0.4201  0.5645
  117MOL0     N15711  10.603  -0.345   8.055 -0.7631  0.4572  0.1091
  117MOL0     C15712  10.629   0.487   8.348  0.0120  0.2496  0.6316
  117MOL0     C15713  10.502   0.545   8.367 -0.4887 -0.1296 -0.0148
  117MOL0     C15714  10.104   0.586   8.566 -0.5317  0.0933 -0.7188
  117MOL0     C15715  10.093   0.724   8.558  0.8400 -0.1514 -0.4389
  117MOL0     C15716   9.973   0.792   8.569  0.9087  0.4125 -0.3943
  117MOL0     C15717   9.852   0.726   8.605  0.1365  0.0635  0.4097
  117MOL0     O15718   9.734   0.788   8.629 -0.1295 -0.0924 -0.4492
  117MOL0     C15719   9.725   0.920   8.580  0.1712  0.4971  0.5802
  117MOL0     C15720   9.589   0.974   8.606  0.2542  0.1400  0.8593
  117MOL0     C15721   9.482   0.892   8.527 -0.0144  0.7204 -0.3367
  117MOL0     C15722   9.346   0.958   8.541 -1.0233  0.1178 -0.1861
  117MOL0     C15723   9.302   0.936   8.679  0.2289  0.4530 -0.2912
  117MOL0     C15724   9.259   0.916   8.787  0.1563  0.6082  0.0714
  117MOL0     C15725   9.863   0.587   8.608  1.0917 -0.0380  0.2448
  117MOL0     C15726   9.984   0.514   8.601  0.3793  0.7613  0.1637
  117MOL0     C15727   9.982   0.366   8.644  0.3069  0.2973 -0.3961
  117MOL0     H15728  10.519   0.600   8.696  3.5317  1.3998  0.5331
  117MOL0     H15729  10.729   0.460   8.668  1.9937 -0.3843 -1.7125
  117MOL0     H15730  10.934   0.451   8.597 -2.3092  1.6450 -1.3854
  117MOL0     H15731  10.877   0.281   8.581 -1.1658 -1.5136 -1.7471
  117MOL0     H15732  11.122   0.285   8.550  0.4618  1.7844  1.2735
  117MOL0     H15733  11.109   0.425   8.447  0.0440 -0.2513 -0.2285
  117MOL0     H15734  11.156   0.231   8.295 -0.9206 -0.9905 -1.5152
  117MOL0     H15735  11.003   0.317   8.259  0.3197  0.9766 -0.2396
  117MOL0     H15736  11.037   0.064   8.428  3.3521 -0.8143 -2.0265
  117MOL0     H15737  10.885   0.123   8.385  1.8400 -1.4448  3.2253
  117MOL0     H15738  10.957   0.065   8.134  2.1362 -0.2778 -1.2493
  117MOL0     H15739  11.116   0.022   8.196 -0.1407 -0.0019 -0.6933
  117MOL0     H15740  11.012  -0.167   8.320  0.8455  1.6559  0.8207
  117MOL0     H15741  10.850  -0.094   8.298 -1.8346  0.2378 -2.3038
  117MOL0     H15742  10.932  -0.313   8.159  3.6798  0.8291 -0.3603
  117MOL0     H15743  10.990  -0.200   8.046 -0.1224  0.7667 -1.6238
  117MOL0     H15744  10.765  -0.063   8.074  2.2242 -0.1751 -1.9150
  117MOL0     H15745  10.789  -0.183   7.959  1.8000 -1.9469  0.6293
  117MOL0     H15746  10.648  -0.175   8.335  1.7031 -0.4069  0.1168
  117MOL0     H15747  10.450  -0.468   8.396  1.6315 -0.7989 -2.3347
  117MOL0     H15748  10.466  -0.294   8.449  0.9957 -1.4172  0.1332
  117MOL0     H15749  10.264  -0.230   8.326  2.0389 -0.4323 -0.1587
  117MOL0     H15750  10.262  -0.384   8.235 -2.3386  1.6551 -1.2309
  117MOL0     H15751  10.233  -0.331   8.538  0.5443  0.1031 -1.3473
  117MOL0     H15752  10.222  -0.488   8.483  0.3832 -0.1211 -0.3461
  117MOL0     H15753  10.043  -0.246   8.433 -0.1448 -0.0895 -0.1253
  117MOL0     H15754   9.995  -0.405   8.511 -1.0947 -0.5779 -1.0926
  117MOL0     H15755   9.824  -0.263   8.447  1.0986  0.8856 -1.4938
  117MOL0     H15756   9.600  -0.241   8.400 -0.5330  0.4495 -0.2198
  117MOL0     H15757   9.233  -0.238   8.454  1.7068 -0.0664 -0.2497
  117MOL0     H15758   8.981  -0.210   8.458 -0.6348  1.2599 -0.8754
  117MOL0     H15759   8.774  -0.352   8.059 -0.2178 -0.3615 -0.1104
  117MOL0     H15760   8.777  -0.479   8.185 -1.2445  0.1640  2.0682
  117MOL0     H15761   8.561  -0.350   8.275 -0.7549 -1.8453  0.7728
  117MOL0     H15762   8.555  -0.294   8.113 -0.1923 -1.6864 -0.9052
  117MOL0     H15763   8.559  -0.541   8.031 -3.1270 -0.7014  0.0085
  117MOL0     H15764   8.549  -0.589   8.192  0.2969  0.1034  0.1792
  117MOL0     H15765   8.352  -0.411   8.031  1.4375 -0.6064 -0.9508
  117MOL0     H15766   8.337  -0.448   8.200  3.0508  0.8187 -0.0057
  117MOL0     H15767   8.299  -0.682   8.168  0.1139  1.6193  1.0383
  117MOL0     H15768   8.345  -0.673   7.993 -1.2652  1.0415 -1.1695
  117MOL0     H15769   8.107  -0.534   8.119  1.5015 -1.9225  2.7135
  117MOL0     H15770   8.163  -0.567   7.940  0.0588 -4.6649 -1.9145
  117MOL0     H15771   8.026  -0.746   8.150 -1.0215 -1.7248 -0.6992
  117MOL0     H15772   8.120  -0.805   8.006  0.1468 -0.3204 -1.0424
  117MOL0     H15773   7.898  -0.610   7.962 -1.0789 -0.2667 -2.8542
  117MOL0     H15774   7.991  -0.721   7.856 -1.5585 -0.3019 -0.3797
  117MOL0     H15775   8.973  -0.381   8.065  3.9872  1.3218 -2.6960
  117MOL0     H15776   9.199  -0.428   8.073 -2.0296  1.6704 -1.1371
  117MOL0     H15777   9.663  -0.466   8.032  2.2374 -0.5605 -0.1741
  117MOL0     H15778   9.886  -0.501   8.090  0.6382 -0.4030  2.0024
  117MOL0     H15779  10.667   0.478   8.246 -0.6072  2.5983  0.1483
  117MOL0     H15780  10.434   0.570   8.287  2.4255 -0.2638 -2.7650
  117MOL0     H15781  10.173   0.793   8.534  0.1316  0.4546 -1.1100
  117MOL0     H15782   9.992   0.899   8.570  2.3440  0.2446 -2.6509
  117MOL0     H15783   9.743   0.909   8.473  0.4098 -1.1396  0.7645
  117MOL0     H15784   9.797   0.988   8.626  1.0937 -0.4164  0.5261
  117MOL0     H15785   9.595   1.078   8.572  2.6627 -0.2500 -0.1397
  117MOL0     H15786   9.559   0.974   8.711  0.5978  2.2748  1.0086
  117MOL0     H15787   9.472   0.788   8.559 -0.5392  1.5156  2.3603
  117MOL0     H15788   9.507   0.882   8.421 -1.3050 -0.6683 -0.5502
  117MOL0     H15789   9.338   1.067   8.526 -1.6209 -0.1787 -2.4895
  117MOL0     H15790   9.274   0.912   8.473  1.0217 -5.6913  0.9919
  117MOL0     H15791   9.209   0.899   8.880 -0.0132 -3.4115 -0.5722
  117MOL0     H15792   9.769   0.539   8.635 -0.4969  2.2934 -0.7664
  117MOL0     H15793  10.073   0.334   8.697 -2.0069 -1.9273  2.5469
  117MOL0     H15794   9.899   0.349   8.712  0.0477  0.7166 -0.6052
  117MOL0     H15795   9.978   0.310   8.550  1.4300 -1.6409  0.6424
  118MOL0     O15796   4.852   1.934   9.698  0.4452  0.0841 -0.0977
  118MOL0     C15797   4.777   1.860   9.635 -0.3841 -0.1816  0.2935
  118MOL0     O15798   4.819   1.760   9.555 -0.4365 -0.4246  0.3740
  118MOL0     C15799   4.937   1.703   9.584 -0.6079 -0.5117 -0.1183
  118MOL0     C15800   5.053   1.739   9.504  0.9626 -0.1669  0.7762
  118MOL0     C15801   5.174   1.669   9.513  0.0953  0.1206  0.0465
  118MOL0     C15802   5.187   1.568   9.606 -0.0108 -0.3372  0.1664
  118MOL0     O15803   5.305   1.497   9.603  0.6620 -0.1674 -0.3063
  118MOL0     C15804   5.338   1.431   9.729 -0.3923 -0.2769 -0.7780
  118MOL0     C15805   5.485   1.440   9.748 -0.3002  0.1686  0.0644
  118MOL0     C15806   5.522   1.585   9.762 -0.0354 -0.7582  0.5006
  118MOL0     C15807   5.670   1.588   9.796  0.7109  0.3331  0.2655
  118MOL0     C15808   5.727   1.727   9.791  0.3262  0.1742 -0.4490
  118MOL0     C15809   5.877   1.717   9.818  0.7710  0.1249 -0.8785
  118MOL0     C15810   5.934   1.817   9.920  0.7068  0.0406 -0.9270
  118MOL0     C15811   5.950   1.962   9.871 -0.0473  0.1815 -0.4372
  118MOL0     N15812   5.978   2.055   9.983  0.0468 -0.3161  0.4728
  118MOL0     C15813   6.072   2.049  10.082 -0.7990 -0.0847 -0.2778
  118MOL0     C15814   6.056   2.165  10.145  0.2353  0.5768  0.3915
  118MOL0     C15815   6.133   2.197  10.273 -0.5801  0.0224  0.4021
  118MOL0     C15816   6.231   2.317  10.249 -0.2413 -0.3031  0.9153
  118MOL0     C15817   6.305   2.368  10.373 -0.2001 -0.1524 -0.6318
  118MOL0     C15818   6.410   2.468  10.343 -0.6200  0.0172  0.2609
  118MOL0     O15819   6.438   2.535  10.465  0.3568 -0.2587 -0.0616
  118MOL0     C15820   6.544   2.622  10.476  0.0440 -0.2805 -0.6222
  118MOL0     C15821   6.640   2.654  10.383  0.5182  0.2483 -0.7334
  118MOL0     C15822   6.736   2.748  10.415 -0.3643 -0.4726  0.2980
  118MOL0     C15823   6.766   2.787  10.546  0.2136 -0.0330  0.3116
  118MOL0     C15824   6.885   2.884  10.566  0.1867 -0.0296 -0.3348
  118MOL0     O15825   6.962   2.919  10.460  0.3575  0.2595  0.1654
  118MOL0     C15826   7.071   2.999  10.464 -0.0987  0.1083  0.2479
  118MOL0     C15827   7.166   3.002  10.568 -0.6384  0.6722 -0.2397
  118MOL0     C15828   7.287   3.068  10.554 -0.1466  0.6758  0.0818
  118MOL0     C15829   7.313   3.155  10.450 -0.3494 -0.1442  0.6614
  118MOL0     O15830   7.422   3.227  10.464 -0.1377 -0.3439  0.0184
  118MOL0     C15831   7.454   3.304  10.354 -1.0435 -1.1794 -0.2431
  118MOL0     C15832   7.591   3.374  10.372 -0.0573  0.8218  0.0287
  118MOL0     C15833   7.709   3.284  10.317  0.0521  0.2618  0.1043
  118MOL0     C15834   7.838   3.325  10.381 -0.2639 -0.2338  0.1454
  118MOL0     C15835   7.952   3.283  10.288  0.5863  0.3350 -0.2765
  118MOL0     C15836   8.100   3.281  10.352  0.7237  0.6108 -0.3869
  118MOL0     C15837   8.202   3.214  10.263 -0.9209  0.6446  0.2433
  118MOL0     C15838   8.337   3.202  10.341 -0.0407 -0.0597 -0.0372
  118MOL0    Cl15839   8.416   3.357  10.349  0.3048  0.0198  0.1582
  118MOL0     C15840   7.215   3.151  10.336  0.4371  0.7921 -1.2289
  118MOL0     C15841   7.105   3.074  10.348  0.3896  1.1792  0.6595
  118MOL0     O15842   6.901   2.923  10.682 -0.0734  0.6935 -0.4240
  118MOL0     C15843   6.672   2.754  10.639 -0.2550  0.3985 -0.6124
  118MOL0     C15844   6.565   2.676  10.606 -0.3373 -0.2852 -0.1558
  118MOL0     N15845   5.949   2.229  10.095  0.5995 -0.7665  0.0674
  118MOL0     N15846   5.896   2.163   9.999  0.0044 -0.2438 -0.2916
  118MOL0     C15847   5.071   1.527   9.680 -0.1151  0.1718  0.5616
  118MOL0     C15848   4.948   1.594   9.666 -0.5545  0.6917  0.0528
  118MOL0     C15849   4.629   1.887   9.620  1.2504 -0.4216  0.7840
  118MOL0     C15850   4.549   1.820   9.519 -0.5727 -0.1658 -0.4054
  118MOL0     C15851   4.408   1.839   9.508 -0.5155  0.3470 -0.7649
  118MOL0     C15852   4.339   1.904   9.612 -1.1417 -0.0459  1.1003
  118MOL0     O15853   4.203   1.923   9.597  0.3093 -0.1748  0.5827
  118MOL0     C15854   4.144   2.026   9.671 -0.8983  0.3808  0.3794
  118MOL0     C15855   3.994   2.043   9.643  0.7356 -0.5848 -0.2911
  118MOL0     C15856   3.918   1.912   9.669  0.1332  0.0081 -0.5232
  118MOL0     C15857   3.805   1.922   9.569 -0.2587  0.0781 -0.5813
  118MOL0     C15858   3.717   1.799   9.574 -1.0733  0.6456 -0.8524
  118MOL0     C15859   3.643   1.706   9.592 -0.8469  0.1084  0.1680
  118MOL0     C15860   4.416   1.968   9.701 -0.7095  0.8404 -0.5282
  118MOL0     C15861   4.553   1.961   9.713 -0.5548  0.4525  0.6105
  118MOL0     C15862   4.608   2.029   9.835 -0.2469  0.3210 -0.1560
  118MOL0     H15863   5.044   1.821   9.434  0.9062  2.8458  4.0175
  118MOL0     H15864   5.260   1.708   9.459 -0.1595 -1.3020 -1.4610
  118MOL0     H15865   5.272   1.467   9.808  1.4222 -0.8037  1.0775
  118MOL0     H15866   5.314   1.326   9.711  3.0930 -1.0400 -1.7652
  118MOL0     H15867   5.535   1.391   9.664  0.4266  0.4244  0.3313
  118MOL0     H15868   5.515   1.383   9.838 -0.1854 -0.1268 -0.1577
  118MOL0     H15869   5.460   1.632   9.839 -2.3634 -2.9767  0.1300
  118MOL0     H15870   5.503   1.639   9.669 -2.0830  1.2391  1.9733
  118MOL0     H15871   5.676   1.565   9.903  1.3087 -0.8191 -0.0029
  118MOL0     H15872   5.723   1.517   9.732 -1.9605 -0.1108 -1.5921
  118MOL0     H15873   5.719   1.780   9.695 -0.0302  2.3876  0.7320
  118MOL0     H15874   5.678   1.792   9.864 -0.1964 -0.7588  0.0578
  118MOL0     H15875   5.888   1.619   9.865  0.2806  0.8588  0.8302
  118MOL0     H15876   5.932   1.726   9.724  0.8705 -0.8355 -0.9263
  118MOL0     H15877   6.026   1.766   9.949 -0.4635 -1.4157  0.4299
  118MOL0     H15878   5.867   1.821  10.007 -1.0817 -0.5394 -2.2100
  118MOL0     H15879   6.027   1.983   9.797  0.6417  2.8692  0.9175
  118MOL0     H15880   5.850   1.972   9.828 -0.4185 -0.4192  0.2574
  118MOL0     H15881   6.133   1.964  10.111  0.8456  1.2357  0.2623
  118MOL0     H15882   6.066   2.218  10.357 -2.8398  1.6536 -1.6803
  118MOL0     H15883   6.197   2.113  10.301  1.8120  1.1630 -1.2887
  118MOL0     H15884   6.300   2.286  10.170 -1.9568 -0.2321 -0.6726
  118MOL0     H15885   6.175   2.406  10.217 -1.9520 -1.6757 -0.0690
  118MOL0     H15886   6.353   2.279  10.414  0.4644  0.7238  0.5663
  118MOL0     H15887   6.223   2.401  10.438 -1.3486 -5.1475  0.8745
  118MOL0     H15888   6.365   2.549  10.284 -0.3672  0.1390  0.2348
  118MOL0     H15889   6.493   2.416  10.296  0.0457 -0.1256  1.5477
  118MOL0     H15890   6.635   2.611  10.283 -1.9546  1.0293 -1.0157
  118MOL0     H15891   6.793   2.780  10.329 -2.2025  0.1314 -0.7582
  118MOL0     H15892   7.141   2.948  10.659 -0.7181  0.9666 -0.0843
  118MOL0     H15893   7.357   3.064  10.637 -4.0211  0.5742  3.6815
  118MOL0     H15894   7.455   3.250  10.260  1.8655  0.3047 -1.2168
  118MOL0     H15895   7.372   3.377  10.352 -1.1179 -1.1917  1.1565
  118MOL0     H15896   7.597   3.463  10.307  0.3706  1.0898  0.4313
  118MOL0     H15897   7.610   3.405  10.475  0.2010  0.1306  0.1904
  118MOL0     H15898   7.683   3.178  10.326  0.7667 -0.3075 -3.1849
  118MOL0     H15899   7.729   3.307  10.212  1.8079  2.5245  0.8350
  118MOL0     H15900   7.851   3.272  10.476  2.0223 -1.8636 -0.9804
  118MOL0     H15901   7.838   3.433  10.397  3.0365  0.1092 -1.3286
  118MOL0     H15902   7.954   3.350  10.202  0.0362  2.8189  1.5264
  118MOL0     H15903   7.933   3.179  10.262 -0.0687  0.4328 -0.1927
  118MOL0     H15904   8.130   3.382  10.380  0.9830  0.1977  0.9309
  118MOL0     H15905   8.087   3.223  10.444  0.8907  1.8390  0.4332
  118MOL0     H15906   8.227   3.271  10.173  1.3927 -1.1613 -0.3616
  118MOL0     H15907   8.161   3.115  10.244  0.1205  0.5093 -1.4705
  118MOL0     H15908   8.319   3.151  10.436  0.1728  1.4948  0.8812
  118MOL0     H15909   8.401   3.132  10.287 -1.6751  0.0576 -2.2277
  118MOL0     H15910   7.231   3.217  10.251 -0.6160  0.5222 -1.6594
  118MOL0     H15911   7.035   3.077  10.266  0.1514  1.2569  0.8639
  118MOL0     H15912   6.710   2.771  10.739  0.1070 -4.5933  0.3573
  118MOL0     H15913   6.499   2.633  10.680  1.6496 -3.0599  0.1548
  118MOL0     H15914   5.068   1.434   9.736 -0.8747 -0.4832 -0.5269
  118MOL0     H15915   4.855   1.575   9.720 -1.0793  2.8563  0.0066
  118MOL0     H15916   4.605   1.753   9.454 -1.0034  0.3715 -1.3562
  118MOL0     H15917   4.349   1.788   9.433 -0.4726  1.7503 -1.8033
  118MOL0     H15918   4.203   2.118   9.664  1.2856 -0.8983  1.1714
  118MOL0     H15919   4.144   2.005   9.778 -0.7664  1.2766  0.5642
  118MOL0     H15920   3.979   2.081   9.541 -0.0978  0.0995  0.0697
  118MOL0     H15921   3.955   2.118   9.713  1.7683 -2.2299  2.1925
  118MOL0     H15922   3.878   1.902   9.770 -0.3551 -2.2425 -0.8819
  118MOL0     H15923   3.972   1.820   9.648  0.2138  0.0001 -0.2801
  118MOL0     H15924   3.739   2.005   9.596  0.1211  0.4076 -0.6667
  118MOL0     H15925   3.842   1.928   9.467  0.5799  1.1112 -0.2340
  118MOL0     H15926   3.570   1.629   9.606  0.0611 -0.4989  1.8213
  118MOL0     H15927   4.375   2.030   9.780  2.5002  0.9735  1.2036
  118MOL0     H15928   4.534   2.047   9.914  0.4715 -1.1154  0.8745
  118MOL0     H15929   4.687   1.963   9.870 -0.6814 -1.3225 -2.1239
  118MOL0     H15930   4.651   2.125   9.804 -0.6415  0.0497 -1.6279
  119MOL0     O15931   8.655   0.520   2.309  0.2194 -0.0911 -0.5654
  119MOL0     C15932   8.639   0.461   2.195  0.0998 -0.8755  1.0772
  119MOL0     O15933   8.740   0.429   2.100 -0.2715 -0.5493 -0.0513
  119MOL0     C15934   8.877   0.450   2.127  0.0732  0.3776  0.6704
  119MOL0     C15935   8.940   0.540   2.039 -0.1921  0.4059 -0.4083
  119MOL0     C15936   9.074   0.561   2.054  0.0058  0.0077  0.0981
  119MOL0     C15937   9.144   0.502   2.163  0.0794  0.7135 -1.5607
  119MOL0     O15938   9.280   0.532   2.193 -0.3298  0.7986  0.1210
  119MOL0     C15939   9.353   0.602   2.097  0.1652 -0.0229  0.2759
  119MOL0     C15940   9.494   0.626   2.147  0.1411  0.2519 -0.1597
  119MOL0     C15941   9.498   0.721   2.264 -0.0238  0.6627 -1.3386
  119MOL0     C15942   9.649   0.754   2.291  0.1828  0.2980  0.5583
  119MOL0     C15943   9.668   0.826   2.424  0.0720 -0.1939 -0.6275
  119MOL0     C15944   9.770   0.932   2.424 -0.3202 -0.1231  0.0014
  119MOL0     C15945   9.914   0.864   2.425  0.6180 -0.4271 -0.3307
  119MOL0     C15946  10.019   0.965   2.387 -1.1836 -0.2234 -0.2616
  119MOL0     N15947  10.041   1.075   2.487 -0.5864  0.1638 -0.0599
  119MOL0     C15948  10.109   1.065   2.603 -0.2123  0.3037  0.2747
  119MOL0     C15949  10.090   1.182   2.667 -1.1536 -0.0534 -0.2408
  119MOL0     C15950  10.147   1.225   2.802  0.2789 -0.6391 -0.0123
  119MOL0     C15951  10.285   1.285   2.801 -0.6728 -0.0287  0.4328
  119MOL0     C15952  10.275   1.429   2.750  0.9723  0.5481  0.0204
  119MOL0     C15953  10.414   1.493   2.738  0.1595  0.5128 -0.4703
  119MOL0     O15954  10.451   1.525   2.876 -0.0298 -0.1272  0.5041
  119MOL0     C15955  10.580   1.568   2.900  0.0125  0.6532  0.6535
  119MOL0     C15956  10.677   1.555   2.798  0.3576 -0.9324  0.3195
  119MOL0     C15957  10.809   1.587   2.826 -0.1308  0.9879  0.5421
  119MOL0     C15958  10.854   1.621   2.949  0.2967 -0.5177 -1.2431
  119MOL0     C15959  10.993   1.644   2.979  0.3228  0.1846 -0.8011
  119MOL0     O15960  11.070   1.646   2.871 -0.3707 -0.1392  0.0033
  119MOL0     C15961  11.200   1.695   2.890 -0.3645  0.3997  0.7038
  119MOL0     C15962  11.294   1.628   2.968 -0.2855 -0.1242 -0.5589
  119MOL0     C15963  11.424   1.670   2.978  0.0955 -0.6700 -0.3519
  119MOL0     C15964  11.475   1.772   2.902 -0.1897 -0.1892  0.7415
  119MOL0     O15965  11.607   1.812   2.903  0.7585 -0.6199 -0.4621
  119MOL0     C15966  11.697   1.748   2.993 -0.1813 -0.0497 -0.6494
  119MOL0     C15967  11.838   1.821   3.003  0.7097  0.8009  0.0817
  119MOL0     C15968  11.931   1.746   3.099 -0.3638  0.2304 -1.1626
  119MOL0     C15969  11.905   1.778   3.256 -0.5623 -0.7016  0.6154
  119MOL0     C15970  12.013   1.709   3.331 -0.0308 -0.1147  0.8895
  119MOL0     C15971  11.989   1.709   3.484  0.0394  0.6062  0.4268
  119MOL0     C15972  12.110   1.663   3.578 -0.1768  0.7361 -0.2232
  119MOL0     C15973  12.179   1.532   3.530  0.3307  0.0017  1.1924
  119MOL0    Cl15974  12.321   1.485   3.625  0.2261 -0.5731 -0.6100
  119MOL0     C15975  11.376   1.848   2.820 -0.0030  1.0197 -0.6582
  119MOL0     C15976  11.245   1.798   2.809  0.5342 -0.1593 -0.2219
  119MOL0     O15977  11.036   1.661   3.098 -0.6560  0.4219  0.1581
  119MOL0     C15978  10.755   1.653   3.045 -0.6319 -0.4082  0.2108
  119MOL0     C15979  10.617   1.635   3.019 -1.0847  0.2134 -0.0387
  119MOL0     N15980  10.015   1.260   2.585  1.0355 -0.2826  0.2387
  119MOL0     N15981   9.980   1.195   2.476 -0.7191 -0.3094  0.4642
  119MOL0     C15982   9.078   0.400   2.247 -0.2225 -0.7534  1.1177
  119MOL0     C15983   8.939   0.382   2.229 -0.3334 -0.2601 -0.4199
  119MOL0     C15984   8.501   0.433   2.146  0.2314  0.1016 -0.2021
  119MOL0     C15985   8.488   0.324   2.059  0.1320  0.5863  0.0458
  119MOL0     C15986   8.362   0.289   1.998  0.2428 -0.1381  0.1281
  119MOL0     C15987   8.243   0.353   2.039 -0.0359 -0.1347 -0.2598
  119MOL0     O15988   8.114   0.325   1.996 -0.4803  0.4190 -0.2533
  119MOL0     C15989   8.092   0.190   1.957  0.1790  0.1517  0.0860
  119MOL0     C15990   7.951   0.142   1.991 -0.4367  0.0977  0.7028
  119MOL0     C15991   7.832   0.216   1.930 -0.2536 -0.0517  0.8065
  119MOL0     C15992   7.703   0.195   2.013 -1.1726 -0.3112 -0.2922
  119MOL0     C15993   7.585   0.247   1.939  0.0239 -1.0310 -0.1318
  119MOL0     C15994   7.484   0.277   1.876  0.9831 -0.3873 -0.4984
  119MOL0     C15995   8.257   0.459   2.128 -0.2475 -0.8832  0.5244
  119MOL0     C15996   8.381   0.503   2.184 -0.6538 -0.5814 -0.5011
  119MOL0     C15997   8.366   0.630   2.259 -0.0791  0.2942  0.4343
  119MOL0     H15998   8.888   0.592   1.959  1.0450  4.6595  1.2371
  119MOL0     H15999   9.122   0.632   1.987 -0.0343 -1.0305 -1.0792
  119MOL0     H16000   9.371   0.547   2.004  0.7314  2.5764 -1.2621
  119MOL0     H16001   9.302   0.697   2.076  0.3029  0.2057  0.9783
  119MOL0     H16002   9.550   0.660   2.059  0.2707 -2.8340 -1.3863
  119MOL0     H16003   9.547   0.531   2.160 -0.4633 -0.0179  0.3683
  119MOL0     H16004   9.454   0.672   2.350  0.6612  2.2063 -0.0534
  119MOL0     H16005   9.444   0.812   2.236 -2.6109 -1.0152 -2.1802
  119MOL0     H16006   9.703   0.660   2.299 -1.1135 -0.4516  0.7895
  119MOL0     H16007   9.708   0.812   2.219  2.8663 -2.1100  0.6675
  119MOL0     H16008   9.573   0.866   2.462  0.9238  1.0652  0.2748
  119MOL0     H16009   9.706   0.759   2.502 -0.4182 -1.5751 -1.5560
  119MOL0     H16010   9.748   0.995   2.336 -0.3596  0.7600  0.6279
  119MOL0     H16011   9.766   1.005   2.505  5.7570  1.8329 -0.9464
  119MOL0     H16012   9.918   0.780   2.355 -0.4010 -0.0524 -0.8484
  119MOL0     H16013   9.928   0.821   2.525 -1.2771  2.8393  1.5391
  119MOL0     H16014  10.115   0.917   2.366  0.6947  3.5354 -1.2049
  119MOL0     H16015   9.995   1.005   2.288 -2.3756 -1.4975 -0.5302
  119MOL0     H16016  10.172   0.980   2.628 -0.8391 -0.2185  0.0804
  119MOL0     H16017  10.076   1.299   2.841 -2.4137 -2.1130 -1.7800
  119MOL0     H16018  10.143   1.141   2.871 -0.5331  0.4883  1.3715
  119MOL0     H16019  10.334   1.281   2.899  1.5751  0.1092 -0.6249
  119MOL0     H16020  10.352   1.238   2.729 -2.0633  1.1814 -1.7658
  119MOL0     H16021  10.204   1.485   2.811  2.3348  0.2858  1.9002
  119MOL0     H16022  10.226   1.423   2.652 -3.8206 -2.4105  2.2010
  119MOL0     H16023  10.410   1.581   2.673  3.5694 -1.5247 -3.8146
  119MOL0     H16024  10.471   1.411   2.692 -2.4781 -1.7724  0.0660
  119MOL0     H16025  10.658   1.524   2.696  1.0362 -2.2496  0.5777
  119MOL0     H16026  10.882   1.570   2.748  0.2557  0.0934  1.0796
  119MOL0     H16027  11.265   1.534   3.013 -1.7058  1.4710  2.0696
  119MOL0     H16028  11.491   1.608   3.037 -0.6422 -0.5091  0.6649
  119MOL0     H16029  11.660   1.745   3.096 -0.5033  0.1443 -0.7600
  119MOL0     H16030  11.698   1.644   2.959 -0.1380 -0.6310  1.0229
  119MOL0     H16031  11.870   1.838   2.900 -1.0680  3.0847 -0.1604
  119MOL0     H16032  11.816   1.921   3.043 -2.0532  0.7042 -0.9857
  119MOL0     H16033  11.917   1.640   3.078 -2.0576  0.6564 -2.3476
  119MOL0     H16034  12.032   1.771   3.065  0.8679 -2.5098  0.1832
  119MOL0     H16035  11.804   1.745   3.279 -1.8437 -1.1846 -4.5479
  119MOL0     H16036  11.914   1.886   3.269 -1.8480 -0.5907  0.6885
  119MOL0     H16037  12.102   1.771   3.320 -0.6792  0.9816  1.6704
  119MOL0     H16038  12.033   1.606   3.300  0.2221 -1.2511  4.4443
  119MOL0     H16039  11.974   1.815   3.506 -2.8296  0.3680  0.0868
  119MOL0     H16040  11.891   1.663   3.502 -1.4542  3.8674  1.3855
  119MOL0     H16041  12.067   1.652   3.678  1.7689 -1.2165  0.4598
  119MOL0     H16042  12.190   1.737   3.581  1.2624 -0.7645 -0.4444
  119MOL0     H16043  12.114   1.446   3.544  1.5059 -0.7579  2.1432
  119MOL0     H16044  12.204   1.531   3.424  1.7743 -2.2669  1.4731
  119MOL0     H16045  11.409   1.927   2.753 -4.0540  1.7658 -2.0266
  119MOL0     H16046  11.193   1.851   2.730 -0.4900 -1.8765 -0.7659
  119MOL0     H16047  10.784   1.685   3.145 -1.1355 -0.9121  0.5230
  119MOL0     H16048  10.540   1.664   3.090 -2.1191  1.1066 -1.4663
  119MOL0     H16049   9.142   0.348   2.318 -3.2265 -3.1514  2.2806
  119MOL0     H16050   8.893   0.308   2.293  0.8477 -0.7756 -0.1254
  119MOL0     H16051   8.576   0.272   2.023 -1.0519  0.3089 -2.7963
  119MOL0     H16052   8.362   0.216   1.918 -2.2285  0.1293 -0.1978
  119MOL0     H16053   8.163   0.127   2.011 -1.6589 -2.0703  0.0818
  119MOL0     H16054   8.097   0.171   1.849  2.2330  1.0008 -0.0087
  119MOL0     H16055   7.930   0.144   2.099 -2.3903 -0.7644  0.3795
  119MOL0     H16056   7.949   0.036   1.965 -1.2593  0.6397 -1.6685
  119MOL0     H16057   7.811   0.191   1.826  1.1579  1.6893  0.0596
  119MOL0     H16058   7.840   0.325   1.926 -1.8470  0.2397  3.2338
  119MOL0     H16059   7.694   0.087   2.031  1.2438 -0.6791 -0.8817
  119MOL0     H16060   7.709   0.237   2.114 -1.0664  1.7068 -1.1087
  119MOL0     H16061   7.394   0.307   1.826 -0.8811 -0.2744  2.6346
  119MOL0     H16062   8.169   0.515   2.157 -0.1830  0.0805 -1.0491
  119MOL0     H16063   8.291   0.700   2.221  1.7606  1.7218 -0.7552
  119MOL0     H16064   8.340   0.593   2.358 -2.1707  1.1159  0.2314
  119MOL0     H16065   8.453   0.696   2.268 -0.2584  0.3482  2.0177
  120MOL0     O16066   3.341   2.079   8.916  0.2350  0.5997  0.4446
  120MOL0     C16067   3.337   2.017   8.813 -0.2429 -0.2086  0.4437
  120MOL0     O16068   3.452   1.981   8.740 -0.2028  0.2558  0.1108
  120MOL0     C16069   3.568   1.981   8.811  0.0432  0.1666 -0.0193
  120MOL0     C16070   3.616   2.098   8.870 -1.3119  0.1078  0.5445
  120MOL0     C16071   3.739   2.095   8.937  0.4484  0.1802  0.4326
  120MOL0     C16072   3.823   1.986   8.932  0.9864 -0.1824  0.5477
  120MOL0     O16073   3.952   1.997   8.976  0.3774  0.3236 -0.3469
  120MOL0     C16074   3.971   1.940   9.106 -0.3943 -0.5764 -0.6510
  120MOL0     C16075   4.106   1.993   9.163 -0.4878 -0.4051  0.5138
  120MOL0     C16076   4.228   1.905   9.144 -0.6635 -0.1861  0.5861
  120MOL0     C16077   4.368   1.987   9.176 -0.3235  0.1195 -0.2017
  120MOL0     C16078   4.498   1.911   9.127 -0.1383  0.3433  0.7145
  120MOL0     C16079   4.624   1.997   9.142  0.4352 -0.0266 -0.1641
  120MOL0     C16080   4.752   1.925   9.100 -0.0910 -0.1865  0.0656
  120MOL0     C16081   4.883   2.003   9.121  0.2400  0.0281 -0.3367
  120MOL0     N16082   5.006   1.934   9.083  0.1723 -0.0752  0.5802
  120MOL0     C16083   5.025   1.799   9.065 -0.8336  0.1450  0.2927
  120MOL0     C16084   5.164   1.780   9.048  0.5318  0.3884  0.2809
  120MOL0     C16085   5.245   1.654   9.022 -0.2465 -0.0814 -0.5248
  120MOL0     C16086   5.222   1.590   8.886  0.5629  0.0322 -0.8964
  120MOL0     C16087   5.132   1.463   8.904 -0.2144 -0.4534 -0.4830
  120MOL0     C16088   4.985   1.494   8.939  0.8037 -0.3423 -0.4239
  120MOL0     O16089   4.953   1.487   9.083  0.1539  0.4626  0.3121
  120MOL0     C16090   4.814   1.497   9.105 -0.2040  0.6851 -0.7388
  120MOL0     C16091   4.715   1.526   9.005  0.3674 -0.2129  0.2407
  120MOL0     C16092   4.575   1.533   9.033 -0.5771  0.2102  0.3290
  120MOL0     C16093   4.525   1.517   9.160  0.0586  0.3922  0.5063
  120MOL0     C16094   4.379   1.529   9.201  0.3505 -0.3866  0.7639
  120MOL0     O16095   4.286   1.561   9.101 -0.7115 -0.0541 -0.1468
  120MOL0     C16096   4.148   1.575   9.114 -0.6319  0.6049 -0.0321
  120MOL0     C16097   4.080   1.586   9.236 -0.1921 -0.9057 -1.0205
  120MOL0     C16098   3.939   1.575   9.241  0.1522 -0.5284  0.0671
  120MOL0     C16099   3.867   1.570   9.122  0.3733  0.6174  0.4556
  120MOL0     O16100   3.732   1.587   9.111  0.2886 -0.1213  0.6706
  120MOL0     C16101   3.667   1.653   9.218 -0.6085  0.3427  0.2608
  120MOL0     C16102   3.530   1.708   9.184 -0.5657  0.3700 -0.3554
  120MOL0     C16103   3.418   1.598   9.197 -0.3009  0.7561  0.1683
  120MOL0     C16104   3.287   1.636   9.119 -0.4720 -0.3699  0.1179
  120MOL0     C16105   3.194   1.509   9.119  0.4963  0.2864  0.2178
  120MOL0     C16106   3.045   1.541   9.084 -0.0025  0.1740 -0.1857
  120MOL0     C16107   3.038   1.606   8.943 -0.0342  0.3558 -0.1674
  120MOL0     C16108   2.898   1.628   8.896  0.1473  0.7672 -0.5810
  120MOL0    Cl16109   2.826   1.753   9.010  0.0595 -0.3903  0.1417
  120MOL0     C16110   3.937   1.562   8.997 -0.6116  0.2693  0.3537
  120MOL0     C16111   4.079   1.572   8.993 -0.1902 -0.0973 -0.1145
  120MOL0     O16112   4.354   1.529   9.316  0.3474  0.6779 -0.5201
  120MOL0     C16113   4.619   1.495   9.265 -0.4388  0.6996 -0.2912
  120MOL0     C16114   4.758   1.479   9.234  0.8979 -0.3064 -0.8090
  120MOL0     N16115   5.220   1.899   9.060 -1.2499 -0.6777 -0.3706
  120MOL0     N16116   5.127   1.992   9.076 -0.8096  0.2151 -0.4143
  120MOL0     C16117   3.775   1.860   8.876  0.0805 -0.3507  0.7976
  120MOL0     C16118   3.651   1.866   8.813  0.9711  0.7282  0.0749
  120MOL0     C16119   3.203   1.964   8.758 -0.0273 -0.6852  0.2146
  120MOL0     C16120   3.210   1.880   8.648 -0.0211 -0.0785  0.1376
  120MOL0     C16121   3.091   1.823   8.592 -0.6949 -0.4088  0.3189
  120MOL0     C16122   2.970   1.866   8.634  0.7920 -0.5683 -0.5839
  120MOL0     O16123   2.850   1.827   8.579 -0.1221  0.4539  0.0089
  120MOL0     C16124   2.844   1.735   8.472 -0.5941 -0.3428  0.1617
  120MOL0     C16125   2.698   1.702   8.432  0.3257  0.7213 -0.9241
  120MOL0     C16126   2.598   1.807   8.408  0.8540 -0.1018 -0.0303
  120MOL0     C16127   2.456   1.747   8.366 -0.4682  0.3942 -0.2513
  120MOL0     C16128   2.352   1.848   8.334 -0.3412 -0.2051 -0.0589
  120MOL0     C16129   2.274   1.933   8.315  0.2208 -0.2911  0.0057
  120MOL0     C16130   2.950   1.954   8.741 -0.4129 -0.5290 -0.1187
  120MOL0     C16131   3.069   2.011   8.801 -0.4781 -0.1775  0.1588
  120MOL0     C16132   3.052   2.115   8.913 -0.5691  0.1668 -0.9037
  120MOL0     H16133   3.568   2.195   8.858 -0.7141  0.2649 -0.7182
  120MOL0     H16134   3.768   2.183   8.994  1.8132 -0.0438  0.1041
  120MOL0     H16135   3.898   1.968   9.182  0.6958  2.8331 -0.6988
  120MOL0     H16136   3.965   1.831   9.099  0.9216 -0.5826 -2.1507
  120MOL0     H16137   4.105   2.005   9.272  1.0356 -1.8829  0.7373
  120MOL0     H16138   4.125   2.088   9.112  2.5187 -0.4160  1.4518
  120MOL0     H16139   4.229   1.865   9.043  1.3434  0.2378  0.4007
  120MOL0     H16140   4.229   1.822   9.216  2.3730 -0.0574  0.8106
  120MOL0     H16141   4.362   2.088   9.133 -3.4986  0.0078 -0.2983
  120MOL0     H16142   4.387   2.012   9.281 -0.2781  1.2058 -0.4527
  120MOL0     H16143   4.498   1.830   9.200  1.8149  1.9178  2.5613
  120MOL0     H16144   4.486   1.877   9.023 -0.9932 -0.6191  1.1069
  120MOL0     H16145   4.614   2.094   9.093 -0.2230 -0.7219 -1.4431
  120MOL0     H16146   4.632   2.013   9.250 -2.3900 -0.5689  0.1869
  120MOL0     H16147   4.751   1.914   8.991  1.0771  1.4465 -0.1596
  120MOL0     H16148   4.762   1.832   9.156  2.5488 -1.2538 -1.9960
  120MOL0     H16149   4.877   2.101   9.072  2.2871  0.2891 -0.1378
  120MOL0     H16150   4.887   2.027   9.227 -0.7512 -1.9996  0.2171
  120MOL0     H16151   4.948   1.724   9.077 -0.6269 -0.5263 -2.1791
  120MOL0     H16152   5.348   1.691   9.019 -0.8569  1.8770  0.5193
  120MOL0     H16153   5.237   1.582   9.104  0.1173  1.2085  0.6699
  120MOL0     H16154   5.169   1.665   8.827  0.4707  1.7301  1.2222
  120MOL0     H16155   5.310   1.554   8.833 -1.1934 -2.7881 -2.1683
  120MOL0     H16156   5.175   1.389   8.973 -3.1538 -1.0652  0.8897
  120MOL0     H16157   5.135   1.406   8.811  1.1634 -1.6249  0.2377
  120MOL0     H16158   4.931   1.424   8.874  1.2592 -2.2528  1.1563
  120MOL0     H16159   4.969   1.600   8.915  1.0519 -0.7055 -2.3872
  120MOL0     H16160   4.745   1.551   8.903 -0.1711  2.7970  0.7511
  120MOL0     H16161   4.497   1.566   8.965 -0.7304 -1.7669 -0.5090
  120MOL0     H16162   4.129   1.595   9.332  0.2190 -1.7181 -1.1433
  120MOL0     H16163   3.882   1.586   9.332 -2.2344 -0.4555 -1.3323
  120MOL0     H16164   3.653   1.593   9.308 -0.8247 -0.2324 -0.1443
  120MOL0     H16165   3.724   1.737   9.258  0.8181 -0.6423  0.3971
  120MOL0     H16166   3.497   1.779   9.260 -0.8455 -2.4007  2.2588
  120MOL0     H16167   3.530   1.759   9.087 -0.6331 -0.4149 -0.7786
  120MOL0     H16168   3.460   1.505   9.157  1.4720  1.7988 -0.4924
  120MOL0     H16169   3.394   1.582   9.303 -1.2016  0.7404 -0.0249
  120MOL0     H16170   3.302   1.681   9.021 -1.0170  2.1056  1.1073
  120MOL0     H16171   3.241   1.711   9.184  2.0123  1.4178 -0.0426
  120MOL0     H16172   3.200   1.461   9.217 -2.5587 -4.0511 -1.4303
  120MOL0     H16173   3.230   1.439   9.043 -1.3940  0.9687 -1.3938
  120MOL0     H16174   2.992   1.446   9.097  1.5308 -0.4642  2.0659
  120MOL0     H16175   3.015   1.613   9.161  1.3766 -2.5278  3.1270
  120MOL0     H16176   3.096   1.546   8.872 -1.6956 -0.8380 -0.5977
  120MOL0     H16177   3.091   1.701   8.946  0.6702 -0.0050 -0.8149
  120MOL0     H16178   2.910   1.670   8.795  1.6245  0.8116 -0.4017
  120MOL0     H16179   2.849   1.530   8.894  2.0847 -0.2787  0.5237
  120MOL0     H16180   3.892   1.563   8.899  0.0790 -0.1875  0.0245
  120MOL0     H16181   4.131   1.574   8.898  2.0808  2.8875  1.0678
  120MOL0     H16182   4.582   1.513   9.365 -1.8095 -0.1184 -0.6331
  120MOL0     H16183   4.817   1.470   9.324  4.0583  4.5262 -2.0082
  120MOL0     H16184   3.840   1.774   8.863  0.4600  0.2202 -1.6453
  120MOL0     H16185   3.607   1.775   8.771  0.6013  0.7305  0.4517
  120MOL0     H16186   3.306   1.845   8.611 -0.9614 -0.0532 -2.4886
  120MOL0     H16187   3.103   1.742   8.521  1.4590 -0.0479  0.2104
  120MOL0     H16188   2.898   1.645   8.500  0.2381  0.0786 -0.0604
  120MOL0     H16189   2.901   1.769   8.385  1.7531  2.3327  2.5078
  120MOL0     H16190   2.656   1.642   8.513 -1.5624  3.6211  0.3918
  120MOL0     H16191   2.701   1.635   8.345 -0.0991  1.6908 -1.7070
  120MOL0     H16192   2.632   1.866   8.323  1.0055 -1.1063 -0.6826
  120MOL0     H16193   2.603   1.886   8.484  3.7377  0.5717 -0.8003
  120MOL0     H16194   2.463   1.674   8.285  0.0036 -2.1967  1.9642
  120MOL0     H16195   2.428   1.692   8.456  1.5861  0.7671  0.6674
  120MOL0     H16196   2.203   2.013   8.305  1.7220  0.8879 -1.9448
  120MOL0     H16197   2.848   1.988   8.760 -1.5653 -1.1970 -4.1855
  120MOL0     H16198   2.946   2.129   8.936 -0.6379 -0.5715 -0.7221
  120MOL0     H16199   3.098   2.071   9.002 -0.3458  0.8288 -0.6888
  120MOL0     H16200   3.093   2.214   8.893 -1.9236  0.9974  0.2985
  121MOL0     O16201   4.185   2.763  10.881 -0.0495 -0.8774 -0.4836
  121MOL0     C16202   4.157   2.648  10.911  0.7226  0.8992 -0.6972
  121MOL0     O16203   4.206   2.575  11.019  0.0955 -0.5292 -0.1778
  121MOL0     C16204   4.294   2.635  11.101 -0.2080  0.0449  0.4296
  121MOL0     C16205   4.246   2.710  11.205  0.0160 -0.5659 -0.4451
  121MOL0     C16206   4.336   2.772  11.300  0.4969  0.1374  0.0449
  121MOL0     C16207   4.473   2.764  11.284  0.1448 -0.3510 -0.4824
  121MOL0     O16208   4.550   2.822  11.387  1.0064 -0.1298 -0.0969
  121MOL0     C16209   4.687   2.782  11.400  0.4847 -0.4202  0.5685
  121MOL0     C16210   4.751   2.861  11.514 -0.2167 -0.6567  0.2825
  121MOL0     C16211   4.880   2.796  11.554  0.1228 -0.9348 -1.3753
  121MOL0     C16212   4.940   2.860  11.674 -0.8163 -0.6775 -0.9731
  121MOL0     C16213   5.092   2.823  11.705  0.5842 -0.1758  0.1230
  121MOL0     C16214   5.155   2.919  11.808  0.4582  0.6182  0.4334
  121MOL0     C16215   5.089   2.925  11.943 -0.5891 -0.0060  0.5362
  121MOL0     C16216   5.163   3.023  12.023 -1.1543 -0.4439 -0.7575
  121MOL0     N16217   5.307   2.990  12.044  0.0248  0.3442  0.2157
  121MOL0     C16218   5.342   2.881  12.125  0.4856 -0.6077  0.4812
  121MOL0     C16219   5.474   2.886  12.129 -0.5532  0.0992 -0.0501
  121MOL0     C16220   5.564   2.800  12.212 -0.4084  0.0515  0.1809
  121MOL0     C16221   5.687   2.867  12.283 -0.4215 -0.0992  0.0236
  121MOL0     C16222   5.796   2.894  12.188  0.0672 -0.3707 -0.5876
  121MOL0     C16223   5.932   2.882  12.248 -0.9694  0.4300  0.5271
  121MOL0     O16224   5.935   2.933  12.385 -0.0537 -0.1014  1.0369
  121MOL0     C16225   6.055   2.950  12.444  0.1334  0.1850 -0.6093
  121MOL0     C16226   6.176   2.910  12.382  0.3344 -0.8569 -0.5949
  121MOL0     C16227   6.298   2.949  12.437  0.0404 -0.9642  0.2147
  121MOL0     C16228   6.300   3.031  12.556 -0.2526  0.5260  0.3264
  121MOL0     C16229   6.428   3.064  12.608 -0.4503  0.5928  0.0027
  121MOL0     O16230   6.444   3.038  12.744  0.5453  0.0445  0.1739
  121MOL0     C16231   6.560   3.081  12.803  0.4766  0.0725 -0.0354
  121MOL0     C16232   6.624   3.195  12.767  0.4155 -0.0721 -0.8367
  121MOL0     C16233   6.744   3.236  12.834 -0.4086 -0.3797  0.4383
  121MOL0     C16234   6.792   3.159  12.941 -0.0921 -0.0606 -0.8624
  121MOL0     O16235   6.891   3.193  13.022  0.0237 -0.5107  0.2716
  121MOL0     C16236   6.972   3.306  13.001 -0.3161 -0.3049 -0.1351
  121MOL0     C16237   7.088   3.303  13.098 -0.7863 -0.0873  0.4708
  121MOL0     C16238   7.171   3.429  13.077  1.0146 -0.0262 -0.3338
  121MOL0     C16239   7.300   3.420  13.161 -0.3996 -0.4120 -0.2868
  121MOL0     C16240   7.409   3.525  13.121  0.4631  0.8186 -0.0694
  121MOL0     C16241   7.527   3.510  13.216 -0.5442 -0.6106 -0.4339
  121MOL0     C16242   7.617   3.624  13.185 -0.8872 -0.9194  0.0461
  121MOL0     C16243   7.758   3.595  13.239  0.5055  0.3109  0.6609
  121MOL0    Cl16244   7.864   3.732  13.203  0.1511  0.2708  0.2968
  121MOL0     C16245   6.726   3.044  12.989 -0.0767  1.1597  0.3022
  121MOL0     C16246   6.613   3.004  12.913 -0.4367 -0.3774  0.2843
  121MOL0     O16247   6.512   3.097  12.526 -0.4748  0.0975 -0.5416
  121MOL0     C16248   6.181   3.064  12.619 -0.7209 -0.0752 -0.2343
  121MOL0     C16249   6.058   3.023  12.562 -0.4220 -0.1603 -0.3622
  121MOL0     N16250   5.515   2.991  12.053 -0.7675  0.2817 -0.0824
  121MOL0     N16251   5.419   3.054  11.998 -0.2237 -0.4413  0.0504
  121MOL0     C16252   4.518   2.676  11.180 -0.1786 -0.8554  0.2094
  121MOL0     C16253   4.437   2.617  11.084 -0.8449 -0.0144 -0.2993
  121MOL0     C16254   4.045   2.574  10.834 -1.0168  0.2728  0.2170
  121MOL0     C16255   4.037   2.434  10.850  0.7687 -0.7691  0.2314
  121MOL0     C16256   3.934   2.361  10.782  0.5416  0.0626 -0.1497
  121MOL0     C16257   3.843   2.423  10.696 -0.5596 -0.0813  0.0263
  121MOL0     O16258   3.755   2.344  10.637  1.2713 -0.4785  0.1391
  121MOL0     C16259   3.631   2.348  10.715  0.4770 -0.0661  0.1568
  121MOL0     C16260   3.527   2.249  10.675  0.4993 -0.1366  0.2723
  121MOL0     C16261   3.418   2.226  10.794  0.2289 -0.3615  0.8459
  121MOL0     C16262   3.339   2.101  10.767  0.4567  1.1479 -0.0587
  121MOL0     C16263   3.222   2.122  10.675 -0.0716 -0.6754 -0.5996
  121MOL0     C16264   3.125   2.160  10.617 -0.1457  0.1861  0.3185
  121MOL0     C16265   3.852   2.558  10.689 -1.0877 -0.1109  0.3434
  121MOL0     C16266   3.945   2.640  10.754 -0.2207 -0.1059  1.1671
  121MOL0     C16267   3.938   2.791  10.743  0.4225 -0.8260  0.9556
  121MOL0     H16268   4.139   2.719  11.222 -0.3397 -4.4924  0.4143
  121MOL0     H16269   4.301   2.821  11.390 -2.4703 -1.2084 -0.2640
  121MOL0     H16270   4.685   2.676  11.427  0.4482 -0.3016  1.0395
  121MOL0     H16271   4.748   2.791  11.310  1.1253  0.5366  1.0705
  121MOL0     H16272   4.687   2.875  11.602  0.2756 -0.1469  0.5665
  121MOL0     H16273   4.772   2.965  11.488  0.4868 -0.2844  2.1553
  121MOL0     H16274   4.946   2.807  11.468  1.0487 -0.4197 -0.6229
  121MOL0     H16275   4.866   2.690  11.579  0.8779 -0.4296  1.5282
  121MOL0     H16276   4.943   2.965  11.645  1.6969 -0.6178 -0.6657
  121MOL0     H16277   4.877   2.853  11.763  1.3754 -0.6115  0.6488
  121MOL0     H16278   5.101   2.716  11.728  1.9074 -0.4591 -1.5024
  121MOL0     H16279   5.142   2.834  11.608  0.5657  0.9206  0.2323
  121MOL0     H16280   5.259   2.887  11.821 -0.3182 -2.2757  0.3145
  121MOL0     H16281   5.154   3.016  11.758  0.5046  0.0518 -0.7248
  121MOL0     H16282   5.084   2.827  11.991  1.9681  0.5059  2.0408
  121MOL0     H16283   4.985   2.961  11.939 -1.5528 -2.3546  2.0685
  121MOL0     H16284   5.152   3.122  11.978 -1.1262  0.3991  0.9727
  121MOL0     H16285   5.110   3.025  12.119 -0.8308  0.7008 -0.5865
  121MOL0     H16286   5.275   2.820  12.184  1.7514 -0.8358  1.7422
  121MOL0     H16287   5.501   2.753  12.288  3.6690 -4.0080  1.5270
  121MOL0     H16288   5.590   2.715  12.148  1.3180 -0.3555  1.3431
  121MOL0     H16289   5.665   2.958  12.340  0.1354 -1.2840  2.2935
  121MOL0     H16290   5.730   2.794  12.353  1.3437 -0.3478 -1.2496
  121MOL0     H16291   5.785   2.996  12.149  0.1755  0.2978  1.0668
  121MOL0     H16292   5.788   2.828  12.101  0.6906  0.2952 -1.1651
  121MOL0     H16293   5.998   2.947  12.191  1.9212 -2.6869  0.0075
  121MOL0     H16294   5.980   2.785  12.233  2.1951  2.3921 -5.5901
  121MOL0     H16295   6.175   2.838  12.300  0.5470 -0.3625 -1.0352
  121MOL0     H16296   6.388   2.920  12.384 -2.1166 -3.3798 -2.4545
  121MOL0     H16297   6.577   3.264  12.698 -0.1889 -1.3949 -1.7788
  121MOL0     H16298   6.789   3.323  12.786 -0.6808 -0.7408 -0.5013
  121MOL0     H16299   7.014   3.306  12.900 -0.4212  1.2348 -0.1994
  121MOL0     H16300   6.918   3.399  13.019 -0.5008 -0.4403  0.0179
  121MOL0     H16301   7.049   3.299  13.200 -1.1364 -0.4187  0.3260
  121MOL0     H16302   7.151   3.216  13.080  2.7775  2.1459  1.0911
  121MOL0     H16303   7.195   3.439  12.971  2.8346 -1.6778 -0.1385
  121MOL0     H16304   7.125   3.524  13.107 -0.6668 -1.6775  2.8287
  121MOL0     H16305   7.347   3.323  13.140 -0.7896 -0.2944 -1.8979
  121MOL0     H16306   7.273   3.430  13.266  3.2541 -0.2353  0.7748
  121MOL0     H16307   7.363   3.622  13.142  0.6686  1.0460 -0.6797
  121MOL0     H16308   7.424   3.521  13.013  1.4447 -0.7819  0.0984
  121MOL0     H16309   7.490   3.509  13.319 -3.2409 -0.2775 -1.3365
  121MOL0     H16310   7.573   3.414  13.190 -0.7387 -0.8105 -0.0369
  121MOL0     H16311   7.570   3.709  13.236 -1.4024 -1.7297  0.9563
  121MOL0     H16312   7.613   3.657  13.081 -0.6454 -2.1988 -0.3854
  121MOL0     H16313   7.754   3.578  13.347  0.5271  1.3536  0.8336
  121MOL0     H16314   7.796   3.505  13.189 -0.5977  0.5164 -0.6130
  121MOL0     H16315   6.776   2.983  13.064 -1.5426 -1.1970 -0.5085
  121MOL0     H16316   6.567   2.910  12.942  3.0946 -1.8204  1.7016
  121MOL0     H16317   6.183   3.127  12.707  1.2823  0.9518 -0.9701
  121MOL0     H16318   5.970   3.055  12.616  0.6171  0.7416  0.8596
  121MOL0     H16319   4.624   2.658  11.164 -0.8817 -1.9411 -5.1360
  121MOL0     H16320   4.487   2.562  11.005 -0.3725 -0.4032  0.2580
  121MOL0     H16321   4.104   2.385  10.920  0.6592 -0.8874  0.2534
  121MOL0     H16322   3.924   2.255  10.803  0.3307  0.0216 -0.4672
  121MOL0     H16323   3.593   2.451  10.716  2.6531  0.7887  0.5518
  121MOL0     H16324   3.661   2.331  10.819 -1.3895  2.0283  1.1416
  121MOL0     H16325   3.580   2.153  10.667 -2.9328 -2.1867  0.2037
  121MOL0     H16326   3.483   2.281  10.580  2.8046  0.6601 -0.5932
  121MOL0     H16327   3.352   2.312  10.809 -1.2226 -1.1246 -0.8131
  121MOL0     H16328   3.477   2.209  10.884  0.1130  1.3301  1.2747
  121MOL0     H16329   3.401   2.019  10.730 -1.2917  0.4761 -1.7037
  121MOL0     H16330   3.298   2.077  10.866 -3.7823 -2.1194 -2.2496
  121MOL0     H16331   3.033   2.195  10.575 -0.6118 -1.3920 -0.0252
  121MOL0     H16332   3.775   2.611  10.634  0.7431  3.3506  0.8747
  121MOL0     H16333   3.959   2.837  10.839 -0.2757 -1.8275  1.6123
  121MOL0     H16334   4.004   2.832  10.666  0.1454 -1.9464  0.0956
  121MOL0     H16335   3.838   2.818  10.707  2.1240  1.5569 -2.6022
  122MOL0     O16336  10.170   1.027   0.714 -0.4029 -0.3121 -0.4710
  122MOL0     C16337  10.144   0.914   0.674 -0.3481  0.5710  0.0781
  122MOL0     O16338  10.237   0.825   0.635 -0.3157  0.5628  0.8761
  122MOL0     C16339  10.370   0.864   0.612 -0.6165  0.1714 -0.8325
  122MOL0     C16340  10.417   0.978   0.551  0.6301  0.0017 -0.3459
  122MOL0     C16341  10.553   1.010   0.535  0.5186 -1.0801 -0.5112
  122MOL0     C16342  10.644   0.915   0.573 -0.0635 -0.0026 -0.8567
  122MOL0     O16343  10.777   0.925   0.551  0.0717 -0.1163 -0.1170
  122MOL0     C16344  10.837   1.044   0.500  0.7212 -0.4195  0.3778
  122MOL0     C16345  10.985   1.040   0.530  0.9167 -0.1096  0.1902
  122MOL0     C16346  11.056   0.935   0.438 -0.0145 -0.2637  0.3782
  122MOL0     C16347  11.213   0.933   0.439  0.1627 -0.0476  0.0344
  122MOL0     C16348  11.272   0.825   0.348 -0.1205 -0.2791  0.0782
  122MOL0     C16349  11.427   0.838   0.367 -0.1648 -0.1109  0.5480
  122MOL0     C16350  11.508   0.724   0.309 -0.2969 -0.2283 -0.1133
  122MOL0     C16351  11.659   0.753   0.324 -0.2385  0.0664  0.3552
  122MOL0     N16352  11.724   0.627   0.288  0.5653 -0.4532  0.4995
  122MOL0     C16353  11.731   0.577   0.160 -0.4762  0.1407 -0.5298
  122MOL0     C16354  11.816   0.474   0.165 -1.4446 -0.5549 -0.6239
  122MOL0     C16355  11.867   0.405   0.044  0.6030  0.5053  0.2474
  122MOL0     C16356  12.022   0.413   0.022  0.5611  0.0625 -0.6727
  122MOL0     C16357  12.061   0.319  -0.099  0.0993  0.1833 -0.0644
  122MOL0     C16358  12.212   0.305  -0.109 -0.3539 -0.3588  0.0780
  122MOL0     O16359  12.245   0.218  -0.219 -0.0760 -0.4341 -0.3729
  122MOL0     C16360  12.369   0.175  -0.230 -0.3179  0.3586  0.8446
  122MOL0     C16361  12.444   0.128  -0.127 -0.3528  0.0054  0.8240
  122MOL0     C16362  12.572   0.071  -0.146  0.2498 -0.8943  0.5603
  122MOL0     C16363  12.625   0.044  -0.281 -0.9122 -0.1571 -0.0612
  122MOL0     C16364  12.755  -0.020  -0.299  0.5927 -0.1551 -0.0046
  122MOL0     O16365  12.838  -0.019  -0.192 -0.0349  0.7392 -0.1594
  122MOL0     C16366  12.948  -0.105  -0.206  0.3642 -0.6798  0.1063
  122MOL0     C16367  12.938  -0.240  -0.244 -0.4301  0.4657 -0.7687
  122MOL0     C16368  13.054  -0.308  -0.292 -0.7957 -0.1312  0.2958
  122MOL0     C16369  13.183  -0.247  -0.298  0.2210  0.1821  0.0427
  122MOL0     O16370  13.305  -0.312  -0.333  0.7150 -0.1734 -0.6665
  122MOL0     C16371  13.304  -0.451  -0.296  0.3263 -0.7752 -0.7681
  122MOL0     C16372  13.434  -0.520  -0.288  0.2954  0.0874  0.0306
  122MOL0     C16373  13.530  -0.451  -0.203  0.4477  0.8314  0.3512
  122MOL0     C16374  13.671  -0.509  -0.216  0.0065 -0.1073  0.7198
  122MOL0     C16375  13.757  -0.431  -0.114  0.3912 -0.3960  0.8905
  122MOL0     C16376  13.865  -0.511  -0.047 -0.4136 -0.3001 -0.7535
  122MOL0     C16377  13.940  -0.440   0.077  0.2486 -0.5916  0.5116
  122MOL0     C16378  14.093  -0.473   0.099  0.5106 -0.2061 -0.2043
  122MOL0    Cl16379  14.143  -0.420   0.263 -0.3069  0.1313 -0.4111
  122MOL0     C16380  13.191  -0.115  -0.261 -0.0016  0.5558  0.7248
  122MOL0     C16381  13.084  -0.047  -0.204 -0.6544 -0.1488 -0.0375
  122MOL0     O16382  12.793  -0.050  -0.412  0.7535 -0.5220  0.2653
  122MOL0     C16383  12.545   0.102  -0.388 -0.4091 -0.0836  0.1916
  122MOL0     C16384  12.423   0.166  -0.361 -0.1167 -0.1807  0.3992
  122MOL0     N16385  11.858   0.454   0.294 -0.5095 -1.0648 -0.2128
  122MOL0     N16386  11.810   0.552   0.364  0.7646  0.2439 -0.7018
  122MOL0     C16387  10.604   0.808   0.650 -0.3752  0.7398 -0.3441
  122MOL0     C16388  10.470   0.783   0.674  0.7364 -0.0319  0.9886
  122MOL0     C16389  10.004   0.866   0.664 -0.5154  0.1464  0.2782
  122MOL0     C16390   9.979   0.756   0.577 -0.2666  0.5998 -0.5006
  122MOL0     C16391   9.856   0.700   0.556  0.1759 -0.5727 -0.1500
  122MOL0     C16392   9.746   0.750   0.618  0.9247  1.5355  0.4497
  122MOL0     O16393   9.629   0.689   0.588  0.6223 -0.1995 -0.4849
  122MOL0     C16394   9.504   0.757   0.616  0.0304  0.3334 -0.4719
  122MOL0     C16395   9.408   0.716   0.509 -0.0559 -0.4922 -0.3367
  122MOL0     C16396   9.287   0.812   0.519 -0.3794 -0.8855  0.5922
  122MOL0     C16397   9.200   0.787   0.394 -0.4275  0.7324 -0.4762
  122MOL0     C16398   9.080   0.870   0.400  0.0267 -0.3666  0.8968
  122MOL0     C16399   8.978   0.934   0.392 -0.6732  0.8039  0.8213
  122MOL0     C16400   9.765   0.851   0.713 -0.2403 -0.6614 -0.3215
  122MOL0     C16401   9.892   0.914   0.735 -0.6878  0.0182  0.2059
  122MOL0     C16402   9.903   1.032   0.825 -0.2289  0.4777 -0.9918
  122MOL0     H16403  10.340   1.050   0.524  1.1526  2.1371  3.1824
  122MOL0     H16404  10.583   1.104   0.491 -0.2756  0.4616  2.0127
  122MOL0     H16405  10.810   1.058   0.395 -2.1405 -2.8346  0.6632
  122MOL0     H16406  10.799   1.131   0.554  0.8450 -0.3978  0.4333
  122MOL0     H16407  10.999   1.004   0.633 -1.5013 -1.5330  0.0874
  122MOL0     H16408  11.032   1.138   0.519  1.6671 -0.4706  0.1253
  122MOL0     H16409  11.026   0.955   0.335 -0.2695  0.7199  0.6227
  122MOL0     H16410  11.018   0.836   0.464 -3.0305  0.5650 -0.3756
  122MOL0     H16411  11.248   1.035   0.417 -2.0562  0.8596  0.3677
  122MOL0     H16412  11.252   0.900   0.536  0.9677 -0.8531 -0.5604
  122MOL0     H16413  11.233   0.727   0.379  4.1350 -1.8586  1.1249
  122MOL0     H16414  11.245   0.855   0.246  3.0297  0.7587 -0.5638
  122MOL0     H16415  11.462   0.930   0.318  1.3514 -0.5538  0.7413
  122MOL0     H16416  11.443   0.837   0.475 -3.1149 -0.5191  1.0672
  122MOL0     H16417  11.475   0.714   0.205 -0.8659 -0.9789  0.1373
  122MOL0     H16418  11.477   0.628   0.348  1.1113  0.2504  2.3953
  122MOL0     H16419  11.694   0.833   0.259  1.5482  0.2087  1.4270
  122MOL0     H16420  11.678   0.781   0.428 -1.6660 -1.0540  0.9569
  122MOL0     H16421  11.691   0.625   0.071  1.3260  0.8742 -0.9949
  122MOL0     H16422  11.844   0.298   0.049  3.2498 -0.1015  1.4878
  122MOL0     H16423  11.821   0.456  -0.041  0.8004  1.1608  0.5274
  122MOL0     H16424  12.048   0.518   0.011 -1.6863  0.5007 -2.3759
  122MOL0     H16425  12.068   0.370   0.111 -0.0303 -2.4740 -1.5108
  122MOL0     H16426  12.024   0.375  -0.185 -1.5958  0.4753  0.7921
  122MOL0     H16427  12.011   0.223  -0.083  0.2724  0.1635  0.3900
  122MOL0     H16428  12.246   0.265  -0.013 -0.9035 -1.1997 -0.0696
  122MOL0     H16429  12.247   0.408  -0.125  2.9754 -1.6153 -1.7524
  122MOL0     H16430  12.399   0.126  -0.028 -0.9977  2.3313  0.6419
  122MOL0     H16431  12.624   0.029  -0.060  0.1854  0.6232  1.3688
  122MOL0     H16432  12.842  -0.290  -0.239 -0.4077  0.5321  0.4155
  122MOL0     H16433  13.050  -0.415  -0.310 -0.6988 -0.5707  2.6527
  122MOL0     H16434  13.266  -0.455  -0.193 -0.5624  1.2940 -0.9605
  122MOL0     H16435  13.236  -0.506  -0.362  0.9308 -0.0318 -2.0510
  122MOL0     H16436  13.432  -0.627  -0.267 -0.3894 -0.0600 -0.7435
  122MOL0     H16437  13.473  -0.516  -0.390  0.8612 -1.3554  0.1623
  122MOL0     H16438  13.536  -0.349  -0.239 -0.9404  0.7746 -0.1093
  122MOL0     H16439  13.494  -0.453  -0.100 -2.1113 -1.6722 -0.4578
  122MOL0     H16440  13.714  -0.487  -0.314 -2.7425 -0.4934 -0.6611
  122MOL0     H16441  13.675  -0.617  -0.199 -1.9620 -0.2426  0.5691
  122MOL0     H16442  13.700  -0.397  -0.027 -1.6839 -1.4638  0.0175
  122MOL0     H16443  13.801  -0.346  -0.167 -0.4484  0.2414  1.1979
  122MOL0     H16444  13.823  -0.601  -0.002 -1.7113  1.4489  1.7829
  122MOL0     H16445  13.936  -0.537  -0.127 -2.0384  0.6505 -2.5771
  122MOL0     H16446  13.876  -0.469   0.161 -1.6085  0.8400 -0.3383
  122MOL0     H16447  13.933  -0.331   0.069 -2.0773 -0.7633 -0.4600
  122MOL0     H16448  14.102  -0.581   0.091 -0.1560 -0.5231  2.3214
  122MOL0     H16449  14.146  -0.431   0.013  0.1600  0.4820 -0.0942
  122MOL0     H16450  13.288  -0.065  -0.262  1.0089 -1.3115 -0.4965
  122MOL0     H16451  13.092   0.059  -0.182 -1.7639  0.4099 -2.0605
  122MOL0     H16452  12.582   0.098  -0.490  1.0708 -0.9582  0.7260
  122MOL0     H16453  12.364   0.191  -0.449 -0.0331 -1.7257 -0.1187
  122MOL0     H16454  10.688   0.748   0.683 -0.6531  0.7102  0.3104
  122MOL0     H16455  10.437   0.711   0.748 -1.9450 -0.0291 -0.1059
  122MOL0     H16456  10.061   0.716   0.519  0.1957  2.0505 -0.9012
  122MOL0     H16457   9.844   0.622   0.481 -0.1025 -1.6760  1.0161
  122MOL0     H16458   9.510   0.866   0.623 -0.5742  0.3819 -0.6753
  122MOL0     H16459   9.474   0.718   0.714  0.0793 -2.6221 -1.5291
  122MOL0     H16460   9.380   0.613   0.533  1.5403 -1.0512 -0.7858
  122MOL0     H16461   9.465   0.711   0.416  0.4766 -0.1470 -0.0335
  122MOL0     H16462   9.314   0.918   0.520 -1.4022 -0.4956 -2.5095
  122MOL0     H16463   9.227   0.791   0.608 -0.9365 -1.8962 -0.0048
  122MOL0     H16464   9.270   0.805   0.312  2.7253 -1.4226  1.5275
  122MOL0     H16465   9.157   0.686   0.388  1.9675 -0.4225  0.5182
  122MOL0     H16466   8.884   0.981   0.412 -0.6784  0.1469  2.5123
  122MOL0     H16467   9.682   0.884   0.775  1.1780  2.1017  0.2206
  122MOL0     H16468   9.988   1.004   0.889 -1.6844  1.8698  1.6953
  122MOL0     H16469   9.923   1.122   0.765 -1.7055 -0.8151 -3.6155
  122MOL0     H16470   9.810   1.043   0.880  0.2596  0.4079 -0.1391
  123MOL0     O16471   0.287   8.873   8.791  0.0494  0.4969 -0.0365
  123MOL0     C16472   0.282   8.990   8.755 -0.4441 -0.4734  0.5862
  123MOL0     O16473   0.176   9.071   8.761  0.2101  0.4503  0.6151
  123MOL0     C16474   0.055   9.024   8.815  0.1046  1.6380 -0.3546
  123MOL0     C16475   0.040   8.966   8.945  0.0306  0.3723  0.3453
  123MOL0     C16476  -0.081   8.935   9.002 -0.0498  0.1598  0.5017
  123MOL0     C16477  -0.198   8.980   8.940  0.0749  0.4518 -1.0413
  123MOL0     O16478  -0.306   8.952   9.015 -0.0047  0.0872  0.1203
  123MOL0     C16479  -0.437   8.977   8.973  0.0078  0.2527  0.2137
  123MOL0     C16480  -0.541   8.973   9.092 -0.1578 -0.1791  0.3124
  123MOL0     C16481  -0.546   9.107   9.166  0.7448  0.3969  0.0497
  123MOL0     C16482  -0.512   9.087   9.313 -0.3121  0.2737 -0.7590
  123MOL0     C16483  -0.488   9.220   9.382 -0.3447  0.6937  0.4482
  123MOL0     C16484  -0.384   9.322   9.328 -0.0953 -0.1158  0.5289
  123MOL0     C16485  -0.381   9.455   9.411 -0.6372 -0.8320  0.2617
  123MOL0     C16486  -0.308   9.562   9.333 -0.5408 -0.0019  0.0111
  123MOL0     N16487  -0.160   9.536   9.342 -0.1684 -0.1743 -0.5284
  123MOL0     C16488  -0.096   9.450   9.252  0.1315 -0.2788  0.2080
  123MOL0     C16489   0.032   9.447   9.294 -0.1060 -0.1099 -0.8540
  123MOL0     C16490   0.151   9.370   9.232  0.7405 -0.7872 -0.1308
  123MOL0     C16491   0.231   9.460   9.137 -1.0520 -0.5608  0.1951
  123MOL0     C16492   0.333   9.564   9.209  0.2569  0.0181  0.0733
  123MOL0     C16493   0.446   9.622   9.119 -0.9327  0.8326 -0.1188
  123MOL0     O16494   0.531   9.504   9.086  0.5451 -0.2332 -0.2412
  123MOL0     C16495   0.639   9.525   8.989 -0.2905  0.2671 -0.0576
  123MOL0     C16496   0.653   9.631   8.898  0.4522 -0.3480  0.1052
  123MOL0     C16497   0.769   9.640   8.815  0.2064 -0.6610 -0.3115
  123MOL0     C16498   0.866   9.538   8.811 -0.2999  0.1485  0.4102
  123MOL0     C16499   0.983   9.540   8.721 -0.6367  0.4231  0.0600
  123MOL0     O16500   0.991   9.645   8.633  0.2320 -0.3633  0.1352
  123MOL0     C16501   1.064   9.625   8.522  0.0491 -0.6371  0.3947
  123MOL0     C16502   1.207   9.639   8.524  0.5624  0.5707 -0.1375
  123MOL0     C16503   1.272   9.617   8.403 -1.1370  0.4366 -0.0644
  123MOL0     C16504   1.217   9.580   8.279 -0.3191 -0.1524  0.3369
  123MOL0     O16505   1.293   9.542   8.169  0.4152  0.7837  0.3085
  123MOL0     C16506   1.430   9.566   8.165 -0.0375  0.1118  0.6399
  123MOL0     C16507   1.462   9.699   8.093  0.8820  0.0810  0.4026
  123MOL0     C16508   1.610   9.727   8.085  0.0678  0.4457 -0.3724
  123MOL0     C16509   1.650   9.846   7.996 -0.8636  0.8445  0.2747
  123MOL0     C16510   1.803   9.864   8.005 -0.3085 -0.2145 -0.1309
  123MOL0     C16511   1.842   9.975   7.902 -0.3171 -0.4671 -0.2410
  123MOL0     C16512   1.985  10.027   7.893  0.1172  1.7512  0.1936
  123MOL0     C16513   2.091   9.922   7.854 -0.2310  0.4294 -0.3803
  123MOL0    Cl16514   2.100   9.800   7.987 -0.2033 -0.3405  0.2199
  123MOL0     C16515   1.079   9.568   8.279 -0.7137 -0.1123  0.2366
  123MOL0     C16516   1.006   9.600   8.395 -0.0043 -0.4792 -0.0998
  123MOL0     O16517   1.071   9.453   8.734  0.1799  0.4988 -0.0035
  123MOL0     C16518   0.845   9.421   8.894  0.4393  0.6722 -0.8005
  123MOL0     C16519   0.735   9.419   8.990 -0.0618 -0.1578  0.4133
  123MOL0     N16520   0.051   9.526   9.404  0.1931  0.2568 -0.3303
  123MOL0     N16521  -0.063   9.580   9.431  0.2907 -0.0261  0.4176
  123MOL0     C16522  -0.194   9.047   8.819  0.7632  0.0012  0.3194
  123MOL0     C16523  -0.065   9.058   8.751 -0.8399 -0.1405 -0.1831
  123MOL0     C16524   0.413   9.049   8.702 -0.0226  0.6173  0.9569
  123MOL0     C16525   0.493   8.974   8.614 -0.0249 -0.1298  0.5827
  123MOL0     C16526   0.614   9.019   8.563  0.0348 -0.1569 -0.2564
  123MOL0     C16527   0.639   9.155   8.578 -0.2885  0.1101  0.7560
  123MOL0     O16528   0.748   9.220   8.523  0.0166 -0.8251 -0.3689
  123MOL0     C16529   0.787   9.154   8.407  0.2963  0.0712  0.2436
  123MOL0     C16530   0.902   9.228   8.331  0.0407 -0.3087  0.6458
  123MOL0     C16531   1.037   9.196   8.396  0.1158 -0.8566 -0.3970
  123MOL0     C16532   1.067   9.037   8.401 -0.5548 -0.8825  0.0476
  123MOL0     C16533   1.215   9.024   8.376 -0.0944  0.6573  0.0916
  123MOL0     C16534   1.332   9.023   8.378 -0.4918  0.4632 -0.2280
  123MOL0     C16535   0.563   9.236   8.665 -0.4797 -0.0428  0.3317
  123MOL0     C16536   0.457   9.177   8.736  0.6725 -0.7084  0.2189
  123MOL0     C16537   0.396   9.257   8.855 -0.4622  0.2522 -0.4681
  123MOL0     H16538   0.130   8.937   8.998 -1.3272  0.3593  2.8100
  123MOL0     H16539  -0.093   8.895   9.102 -0.7704  2.4702  1.4103
  123MOL0     H16540  -0.443   9.074   8.921 -2.4095 -0.0272 -0.1598
  123MOL0     H16541  -0.453   8.895   8.903  0.0613 -1.0147  1.6421
  123MOL0     H16542  -0.509   8.891   9.157  0.9606  0.7906  1.0118
  123MOL0     H16543  -0.636   8.957   9.039 -0.0880  4.0831 -1.4705
  123MOL0     H16544  -0.649   9.141   9.154  0.2401 -1.2347 -0.5609
  123MOL0     H16545  -0.474   9.179   9.127 -0.7150  1.5078 -0.6502
  123MOL0     H16546  -0.586   9.022   9.361  1.0733 -0.4279  0.5162
  123MOL0     H16547  -0.420   9.029   9.326 -2.9295 -3.6815  3.2120
  123MOL0     H16548  -0.583   9.275   9.380  0.0438  1.3686 -0.0875
  123MOL0     H16549  -0.458   9.195   9.484  0.7438  3.3481  0.8710
  123MOL0     H16550  -0.286   9.274   9.318 -0.5319 -1.1568  1.0766
  123MOL0     H16551  -0.408   9.353   9.226  3.0562 -0.3439 -0.3792
  123MOL0     H16552  -0.335   9.431   9.508  0.1894 -2.2390 -0.4443
  123MOL0     H16553  -0.484   9.490   9.426 -0.0753 -0.0488  2.7887
  123MOL0     H16554  -0.345   9.576   9.231  1.2322 -2.0838 -1.0131
  123MOL0     H16555  -0.330   9.652   9.391  0.6226  0.1214  0.2900
  123MOL0     H16556  -0.148   9.384   9.183 -1.1028 -0.5172  1.3311
  123MOL0     H16557   0.209   9.326   9.314 -0.6963 -1.4678  0.5632
  123MOL0     H16558   0.108   9.288   9.175  0.6275 -0.0516 -1.1331
  123MOL0     H16559   0.292   9.396   9.072 -1.1710 -0.5084  0.0318
  123MOL0     H16560   0.165   9.506   9.062 -1.3126  2.2379  1.9849
  123MOL0     H16561   0.373   9.519   9.301 -0.0219 -3.0043 -1.1721
  123MOL0     H16562   0.268   9.647   9.235  1.7614  0.8538  1.3379
  123MOL0     H16563   0.514   9.692   9.169  2.4834 -1.0817 -1.7158
  123MOL0     H16564   0.401   9.652   9.024 -4.1318  0.3191  1.1106
  123MOL0     H16565   0.572   9.703   8.890 -0.5645 -1.6834 -2.3391
  123MOL0     H16566   0.780   9.719   8.741 -0.2796 -2.1904 -2.1125
  123MOL0     H16567   1.242   9.664   8.624 -1.1160 -1.4792  1.0560
  123MOL0     H16568   1.377   9.645   8.411 -0.9387 -0.6238  1.7077
  123MOL0     H16569   1.477   9.553   8.263  0.1950  0.2400  0.5445
  123MOL0     H16570   1.474   9.481   8.112 -0.4666  0.1010  0.2889
  123MOL0     H16571   1.416   9.695   7.993 -2.2454  0.3075  1.7294
  123MOL0     H16572   1.401   9.775   8.142 -0.6365 -0.1735 -1.0118
  123MOL0     H16573   1.648   9.741   8.187 -0.7910  1.5531 -0.1954
  123MOL0     H16574   1.663   9.640   8.044 -1.1522 -0.3093 -0.4002
  123MOL0     H16575   1.594   9.936   8.024 -1.6107 -0.3835  3.0770
  123MOL0     H16576   1.632   9.829   7.890 -0.5369  1.5182  0.1020
  123MOL0     H16577   1.845   9.767   7.976  1.6414 -0.4282  2.8892
  123MOL0     H16578   1.837   9.883   8.107  0.1144 -6.0843  1.1931
  123MOL0     H16579   1.826   9.934   7.802  1.9989 -2.3796  0.0675
  123MOL0     H16580   1.772  10.059   7.904 -0.5152 -0.6397  0.2151
  123MOL0     H16581   1.996  10.071   7.992  0.6419 -1.3500  1.6566
  123MOL0     H16582   1.995  10.108   7.821  1.2703  1.2491 -0.2329
  123MOL0     H16583   2.061   9.876   7.760 -1.0971  0.1642  0.0154
  123MOL0     H16584   2.191   9.967   7.846 -0.1282  0.9602  2.6650
  123MOL0     H16585   1.030   9.532   8.188 -3.4111  0.6233  1.3004
  123MOL0     H16586   0.897   9.605   8.390  0.0952  1.1843 -1.8589
  123MOL0     H16587   0.914   9.338   8.905  2.0203  2.0756  0.5267
  123MOL0     H16588   0.731   9.339   9.063  1.0388  0.5217  1.2686
  123MOL0     H16589  -0.282   9.093   8.774  1.2911 -1.0343 -1.8749
  123MOL0     H16590  -0.059   9.112   8.657 -0.1407 -0.0330 -0.0789
  123MOL0     H16591   0.475   8.867   8.607 -0.1013 -0.0639 -0.2638
  123MOL0     H16592   0.669   8.946   8.504 -0.7918  0.9967 -2.5838
  123MOL0     H16593   0.697   9.160   8.345 -1.1632 -0.4642  2.2262
  123MOL0     H16594   0.824   9.052   8.422 -0.0577  0.1129  1.4763
  123MOL0     H16595   0.889   9.336   8.329 -2.7041 -0.5772 -1.8260
  123MOL0     H16596   0.920   9.183   8.234 -1.3631 -1.2808  0.8033
  123MOL0     H16597   1.032   9.231   8.500  0.2222  2.8086 -1.4735
  123MOL0     H16598   1.118   9.259   8.356 -1.3032  2.4978  1.5918
  123MOL0     H16599   1.033   8.995   8.496 -0.0936 -2.3076 -0.3833
  123MOL0     H16600   1.025   8.970   8.325  0.6703  0.2113 -1.6784
  123MOL0     H16601   1.438   9.032   8.391 -0.1914 -0.8272 -1.5304
  123MOL0     H16602   0.585   9.342   8.652  0.5125 -0.5922 -3.6553
  123MOL0     H16603   0.312   9.318   8.822 -3.2030 -1.6893  2.2989
  123MOL0     H16604   0.361   9.184   8.929 -1.1191  1.2917  0.2735
  123MOL0     H16605   0.473   9.318   8.903 -0.5283  0.5420 -0.7314
  124MOL0     O16606  11.147  10.705   5.204 -0.1320 -0.1237 -0.6089
  124MOL0     C16607  11.052  10.630   5.171 -0.2263 -1.0882  0.1658
  124MOL0     O16608  11.050  10.545   5.066  0.7573  0.1400 -0.3402
  124MOL0     C16609  11.171  10.484   5.030  0.8628  0.5809  0.3097
  124MOL0     C16610  11.282  10.473   5.117  0.3408 -0.8536  0.8102
  124MOL0     C16611  11.404  10.408   5.072  0.2153  0.2098 -1.0838
  124MOL0     C16612  11.410  10.343   4.946  1.1726 -0.2879 -0.1836
  124MOL0     O16613  11.509  10.260   4.900 -1.0953  0.2709  0.1261
  124MOL0     C16614  11.620  10.223   4.979 -0.0304  0.4076 -0.0080
  124MOL0     C16615  11.704  10.123   4.894 -0.4412  0.0193 -0.7260
  124MOL0     C16616  11.841  10.103   4.955  0.2920  0.2067  0.1023
  124MOL0     C16617  11.926   9.993   4.894 -0.4426  0.0337 -0.3567
  124MOL0     C16618  12.069   9.977   4.965  0.3041  0.5739  0.7772
  124MOL0     C16619  12.176  10.068   4.903 -0.0820 -0.2328 -0.0065
  124MOL0     C16620  12.314  10.022   4.937 -0.2328  1.6910 -0.3204
  124MOL0     C16621  12.354   9.876   4.898 -0.7178  0.0870 -0.7678
  124MOL0     N16622  12.504   9.854   4.898  0.3165 -0.8082 -0.1245
  124MOL0     C16623  12.603   9.918   4.825  0.2552 -0.4529 -0.0455
  124MOL0     C16624  12.720   9.871   4.865 -0.0255  0.1253 -0.2806
  124MOL0     C16625  12.851   9.912   4.811 -0.5051 -0.1424 -0.1626
  124MOL0     C16626  12.976   9.845   4.863  0.1330 -0.8003 -0.2071
  124MOL0     C16627  13.105   9.866   4.773 -0.6112  0.4244 -0.4261
  124MOL0     C16628  13.218   9.794   4.834 -0.9271 -0.1693 -0.1339
  124MOL0     O16629  13.337   9.832   4.770  0.7041 -0.2053 -0.0087
  124MOL0     C16630  13.458   9.795   4.819 -0.1894  0.4200 -0.0057
  124MOL0     C16631  13.570   9.836   4.743 -0.8383  0.3820  0.5396
  124MOL0     C16632  13.703   9.807   4.780  0.1603 -0.0820 -1.2902
  124MOL0     C16633  13.723   9.736   4.903  0.3074  0.7603  0.2690
  124MOL0     C16634  13.864   9.712   4.941 -0.3333  0.2067 -0.6243
  124MOL0     O16635  13.952   9.804   4.903 -1.0822 -0.2235 -0.4118
  124MOL0     C16636  14.084   9.795   4.930  0.3820 -0.3855 -0.0106
  124MOL0     C16637  14.161   9.683   4.889  0.4085 -0.4435  0.4185
  124MOL0     C16638  14.303   9.684   4.891  0.6284  1.0377 -0.2415
  124MOL0     C16639  14.372   9.791   4.954 -0.1262 -0.0075 -0.8709
  124MOL0     O16640  14.511   9.781   4.971  0.6055  0.2809  0.2227
  124MOL0     C16641  14.584   9.898   4.941 -0.0421 -0.0945 -0.0057
  124MOL0     C16642  14.735   9.870   4.908  0.1129  0.1683  0.3233
  124MOL0     C16643  14.835   9.980   4.950  0.5784 -0.3770 -0.3864
  124MOL0     C16644  14.985   9.936   4.958 -0.2484 -0.4029  0.1260
  124MOL0     C16645  15.082  10.044   4.942 -0.7309  0.2729 -0.5256
  124MOL0     C16646  15.226  10.001   4.990  0.4417  0.0320  0.1120
  124MOL0     C16647  15.323  10.125   4.982  0.2363 -0.6719  0.5855
  124MOL0     C16648  15.463  10.105   5.038  0.1271 -0.4716  0.2514
  124MOL0    Cl16649  15.549  10.264   5.021 -0.2476  0.1989  0.1193
  124MOL0     C16650  14.297   9.900   4.997 -0.5217 -0.2901  0.6178
  124MOL0     C16651  14.158   9.908   4.969  0.2652  0.5970 -0.4523
  124MOL0     O16652  13.888   9.611   5.001  0.1530  0.0935 -0.2925
  124MOL0     C16653  13.609   9.683   4.970 -0.0116  0.2311 -0.8750
  124MOL0     C16654  13.479   9.719   4.932  0.5545 -1.4466 -1.2401
  124MOL0     N16655  12.700   9.765   4.956  0.0069  0.3190  0.2735
  124MOL0     N16656  12.571   9.755   4.969  0.9375 -0.2607 -0.5284
  124MOL0     C16657  11.294  10.356   4.864  0.4084  0.1916 -0.4557
  124MOL0     C16658  11.172  10.425   4.909 -0.1078 -0.0901  0.6766
  124MOL0     C16659  10.927  10.644   5.248  0.3682 -0.0411 -0.3178
  124MOL0     C16660  10.892  10.770   5.304  0.1831  0.2443 -1.0760
  124MOL0     C16661  10.776  10.787   5.384 -0.1667 -0.3301  0.4122
  124MOL0     C16662  10.682  10.683   5.390  0.0683 -0.4545  0.0600
  124MOL0     O16663  10.569  10.702   5.459 -0.1281 -0.2262 -0.6484
  124MOL0     C16664  10.444  10.701   5.389 -0.0273 -0.3312  0.5615
  124MOL0     C16665  10.442  10.800   5.270  0.5412  1.1958 -0.0942
  124MOL0     C16666  10.310  10.780   5.194 -0.0476  0.2547 -0.6024
  124MOL0     C16667  10.291  10.909   5.103 -0.3966  0.5055 -0.0567
  124MOL0     C16668  10.367  10.884   4.982  0.1013  0.0398 -0.1058
  124MOL0     C16669  10.442  10.874   4.883 -0.1624  0.1113  0.3444
  124MOL0     C16670  10.715  10.555   5.342 -0.1040  0.6563 -0.0857
  124MOL0     C16671  10.837  10.533   5.270 -0.0321 -0.4008 -0.0163
  124MOL0     C16672  10.862  10.389   5.216  0.9162 -0.0917  0.1520
  124MOL0     H16673  11.281  10.501   5.222  0.6919 -0.3684  0.6850
  124MOL0     H16674  11.490  10.392   5.137  0.4225  1.8572 -0.9088
  124MOL0     H16675  11.673  10.311   5.016  0.4607  0.4790 -0.8653
  124MOL0     H16676  11.591  10.173   5.072  3.0528  0.9526  1.3682
  124MOL0     H16677  11.725  10.171   4.798  1.1625  1.1989  0.1509
  124MOL0     H16678  11.651  10.028   4.885  3.2000 -2.3493  0.4197
  124MOL0     H16679  11.830  10.094   5.063 -0.9485  2.1914  0.2045
  124MOL0     H16680  11.899  10.194   4.936  0.0654  0.3325  0.0048
  124MOL0     H16681  11.869   9.901   4.904 -0.6691  0.0069 -1.7444
  124MOL0     H16682  11.943  10.015   4.788 -0.0825  0.8323 -0.1455
  124MOL0     H16683  12.053  10.003   5.070 -1.9814 -0.4612  0.7595
  124MOL0     H16684  12.094   9.871   4.960  0.9270  0.7596 -0.0661
  124MOL0     H16685  12.162  10.066   4.795 -4.1055 -1.1456  0.3633
  124MOL0     H16686  12.163  10.174   4.929  4.7344  0.7429 -0.6505
  124MOL0     H16687  12.334  10.031   5.044 -0.2289 -5.1306  0.6715
  124MOL0     H16688  12.377  10.086   4.876 -0.4305 -0.2373 -2.6891
  124MOL0     H16689  12.308   9.802   4.965  2.8182 -2.3001 -0.6996
  124MOL0     H16690  12.316   9.855   4.798 -0.8186  2.4390 -1.2738
  124MOL0     H16691  12.586   9.989   4.745 -0.4708 -1.2448 -0.6188
  124MOL0     H16692  12.843   9.880   4.706 -0.7066 -3.7551  0.8313
  124MOL0     H16693  12.853  10.022   4.809 -0.3614 -0.1302  0.5255
  124MOL0     H16694  12.986   9.864   4.970 -1.9833 -4.0305  0.6754
  124MOL0     H16695  12.947   9.740   4.858 -0.1258 -0.7633  0.5175
  124MOL0     H16696  13.116   9.975   4.771  2.4167  0.2369  1.1390
  124MOL0     H16697  13.088   9.816   4.677  0.3829 -3.0199  1.0563
  124MOL0     H16698  13.206   9.685   4.828 -2.0034  0.0078 -1.9464
  124MOL0     H16699  13.222   9.828   4.938 -1.5354 -1.2210  0.2578
  124MOL0     H16700  13.554   9.917   4.673  3.3460  1.9765  1.1493
  124MOL0     H16701  13.776   9.854   4.715  1.2819 -0.1010 -0.0861
  124MOL0     H16702  14.115   9.597   4.843  0.6419 -0.1251 -0.4363
  124MOL0     H16703  14.360   9.604   4.846 -1.5849 -0.1304 -1.1044
  124MOL0     H16704  14.532   9.949   4.859 -2.1688  0.2349  1.4746
  124MOL0     H16705  14.587   9.967   5.026  1.9639 -0.3417  0.1822
  124MOL0     H16706  14.767   9.778   4.959 -0.1609 -1.2233 -1.8610
  124MOL0     H16707  14.738   9.852   4.800 -3.5880  1.3074 -0.1009
  124MOL0     H16708  14.828  10.069   4.886  0.4231  1.0406  1.5227
  124MOL0     H16709  14.806  10.009   5.051 -1.6191  0.2995 -1.1622
  124MOL0     H16710  15.000   9.865   4.876 -1.0547 -0.5328  0.0808
  124MOL0     H16711  15.007   9.887   5.053  0.1069 -0.5896 -0.0495
  124MOL0     H16712  15.044  10.133   4.993  0.8477  1.0316 -0.6309
  124MOL0     H16713  15.090  10.071   4.837  0.9319 -1.5275 -0.9316
  124MOL0     H16714  15.218   9.960   5.092 -3.0896  0.8236  0.2867
  124MOL0     H16715  15.267   9.922   4.927 -2.2175 -0.6625 -0.8807
  124MOL0     H16716  15.275  10.211   5.031 -1.0755  0.2841 -2.1017
  124MOL0     H16717  15.335  10.152   4.876  0.3765  0.4749  0.8791
  124MOL0     H16718  15.441  10.079   5.142  2.9411 -2.5199  0.4369
  124MOL0     H16719  15.521  10.027   4.989  0.6206 -1.3319  2.1230
  124MOL0     H16720  14.347   9.991   5.028  3.6141 -1.7569 -1.0266
  124MOL0     H16721  14.104   9.998   4.997 -0.0653  0.7056 -1.3961
  124MOL0     H16722  13.627   9.632   5.064 -0.1417  0.8369 -0.5185
  124MOL0     H16723  13.401   9.697   5.004 -0.0591  1.3737 -0.9561
  124MOL0     H16724  11.297  10.301   4.771 -2.0648 -2.4430  0.8774
  124MOL0     H16725  11.081  10.424   4.849 -2.2997  1.5037  3.7105
  124MOL0     H16726  10.946  10.864   5.294 -2.4831  1.9889 -0.2423
  124MOL0     H16727  10.747  10.886   5.419 -2.5858  0.1610 -2.4784
  124MOL0     H16728  10.360  10.720   5.457 -0.8572  0.6849 -0.7041
  124MOL0     H16729  10.428  10.604   5.341 -0.3027 -0.5644  1.1159
  124MOL0     H16730  10.524  10.782   5.201 -0.0764 -0.3090 -0.4817
  124MOL0     H16731  10.455  10.898   5.317 -2.9405  1.5284  0.4488
  124MOL0     H16732  10.223  10.783   5.260  0.6391 -0.3940  0.3460
  124MOL0     H16733  10.307  10.685   5.139 -3.3786 -0.4611  0.6009
  124MOL0     H16734  10.184  10.917   5.080 -0.4203  0.9733  0.2077
  124MOL0     H16735  10.329  10.997   5.155 -2.9561  1.9828 -0.5508
  124MOL0     H16736  10.510  10.872   4.801 -1.0755  0.4440 -0.4389
  124MOL0     H16737  10.646  10.474   5.363  1.1306 -0.6953 -0.9777
  124MOL0     H16738  10.840  10.377   5.110  0.2093 -2.1973  0.4767
  124MOL0     H16739  10.967  10.359   5.229  1.2744 -0.2057 -2.5384
  124MOL0     H16740  10.799  10.316   5.269 -2.8694  0.7174 -2.8205
  125MOL0     O16741   1.159   6.290   1.968  0.4950  0.5618 -0.0092
  125MOL0     C16742   1.099   6.393   1.999 -0.7041  0.8756  0.9315
  125MOL0     O16743   1.139   6.490   2.086 -0.0688  0.5279  0.4324
  125MOL0     C16744   1.245   6.468   2.169  0.0735  0.8914  1.1819
  125MOL0     C16745   1.374   6.487   2.126  0.4340  0.9617 -0.2017
  125MOL0     C16746   1.474   6.450   2.211 -0.1742  0.6507  0.3923
  125MOL0     C16747   1.456   6.390   2.336  0.3992 -0.1543 -0.0450
  125MOL0     O16748   1.552   6.364   2.432 -0.5561  0.1557  0.0701
  125MOL0     C16749   1.686   6.425   2.424 -0.9240 -0.7946  0.5809
  125MOL0     C16750   1.761   6.402   2.558  0.0617  0.2484  0.3717
  125MOL0     C16751   1.891   6.482   2.563 -0.8200  0.5093 -0.7096
  125MOL0     C16752   1.958   6.475   2.705  0.4667 -0.0465  0.0456
  125MOL0     C16753   2.104   6.509   2.695 -0.9838 -0.3362 -0.3354
  125MOL0     C16754   2.182   6.524   2.828 -0.7932  0.3349  1.4063
  125MOL0     C16755   2.340   6.542   2.807  1.1852 -0.5364  0.5958
  125MOL0     C16756   2.401   6.572   2.940  0.7088  0.3264 -0.8215
  125MOL0     N16757   2.552   6.574   2.936 -0.2872  1.5096  0.3257
  125MOL0     C16758   2.629   6.460   2.904  0.5534 -0.9950  0.3790
  125MOL0     C16759   2.758   6.494   2.940  0.1924  0.2190  0.1296
  125MOL0     C16760   2.874   6.394   2.945  0.0501 -0.7399 -0.5033
  125MOL0     C16761   2.871   6.280   2.839 -0.2563 -0.3966 -0.3980
  125MOL0     C16762   2.972   6.165   2.868  0.4680  0.0811 -0.4179
  125MOL0     C16763   2.998   6.077   2.748 -0.0818 -0.9707  0.5189
  125MOL0     O16764   3.080   5.965   2.783 -0.5105  0.2953  0.2545
  125MOL0     C16765   3.214   5.974   2.809  0.6217  0.0473 -0.5430
  125MOL0     C16766   3.306   6.083   2.791 -0.0079  0.3508 -0.7079
  125MOL0     C16767   3.440   6.066   2.827 -0.5349 -0.0484 -0.1922
  125MOL0     C16768   3.490   5.943   2.874  0.9208  0.3602  0.5758
  125MOL0     C16769   3.634   5.919   2.898  0.4415 -0.0197 -0.4898
  125MOL0     O16770   3.682   5.797   2.857  0.8333 -0.2474 -0.5044
  125MOL0     C16771   3.817   5.770   2.849 -0.8875 -0.3738  0.8626
  125MOL0     C16772   3.920   5.818   2.935  0.1085 -0.9464 -0.2399
  125MOL0     C16773   4.052   5.773   2.923  0.0302 -0.2527  0.7589
  125MOL0     C16774   4.087   5.690   2.824 -0.0626 -0.9864  0.6571
  125MOL0     O16775   4.221   5.650   2.798 -0.3361  0.4151  0.4499
  125MOL0     C16776   4.316   5.667   2.905 -0.6723 -0.0583  0.4416
  125MOL0     C16777   4.457   5.633   2.853 -0.2831 -0.1664  0.7218
  125MOL0     C16778   4.479   5.484   2.818 -0.1206  1.1035 -0.5703
  125MOL0     C16779   4.602   5.442   2.736  0.1187 -0.0978  0.1649
  125MOL0     C16780   4.594   5.300   2.684  0.9902  0.1761 -0.1993
  125MOL0     C16781   4.714   5.266   2.591 -0.0275  0.1187 -0.1568
  125MOL0     C16782   4.722   5.121   2.558  0.0590  0.7645  0.8148
  125MOL0     C16783   4.829   5.087   2.448 -0.2202  0.5254 -0.9856
  125MOL0    Cl16784   4.816   5.186   2.301 -0.3824  0.0949  0.2782
  125MOL0     C16785   3.996   5.646   2.729 -0.5077  0.3280 -0.0540
  125MOL0     C16786   3.861   5.678   2.746 -0.5918 -1.0196  0.3891
  125MOL0     O16787   3.703   6.013   2.935  0.0118  0.1704  0.2289
  125MOL0     C16788   3.398   5.836   2.892  0.5972  0.3859 -0.8455
  125MOL0     C16789   3.267   5.853   2.855  0.0001 -0.5806 -0.8883
  125MOL0     N16790   2.748   6.623   2.986 -0.0857  1.1015 -0.2664
  125MOL0     N16791   2.634   6.672   2.982 -0.3142 -0.6802  0.5495
  125MOL0     C16792   1.323   6.363   2.372 -0.2951  0.0983  0.6357
  125MOL0     C16793   1.215   6.402   2.288 -0.5866  0.0121  0.2213
  125MOL0     C16794   0.970   6.422   1.926  0.6867  0.4543 -0.1236
  125MOL0     C16795   0.901   6.531   1.979 -0.0945  0.4372  0.3715
  125MOL0     C16796   0.779   6.563   1.923 -0.3019  0.1267  0.2551
  125MOL0     C16797   0.727   6.500   1.809 -0.2729 -0.2435 -0.3100
  125MOL0     O16798   0.614   6.551   1.742 -1.0082 -0.2302  0.9293
  125MOL0     C16799   0.527   6.631   1.815 -0.1628 -0.3114  0.7899
  125MOL0     C16800   0.384   6.636   1.772 -0.5453 -0.0909 -0.7316
  125MOL0     C16801   0.362   6.659   1.624  0.3309  0.2790 -0.5948
  125MOL0     C16802   0.433   6.776   1.566 -0.6857 -0.6078 -0.5516
  125MOL0     C16803   0.424   6.904   1.636 -0.3932 -0.5409  0.1357
  125MOL0     C16804   0.423   7.011   1.702 -0.5155  0.7503  0.2524
  125MOL0     C16805   0.810   6.399   1.745  0.7055 -0.6467  0.4022
  125MOL0     C16806   0.926   6.351   1.810  0.0418 -1.1754  1.0847
  125MOL0     C16807   0.998   6.241   1.737  0.0974  0.4097 -0.0401
  125MOL0     H16808   1.398   6.529   2.029  1.7821  0.5756 -0.0618
  125MOL0     H16809   1.574   6.480   2.180 -0.7786  1.4984 -0.8286
  125MOL0     H16810   1.741   6.374   2.345 -1.9367 -0.6583 -0.2433
  125MOL0     H16811   1.682   6.532   2.405 -2.1441 -1.2353 -2.1344
  125MOL0     H16812   1.788   6.296   2.563  1.3293  0.5557  0.3178
  125MOL0     H16813   1.694   6.421   2.642  1.9366 -1.4446  2.3833
  125MOL0     H16814   1.874   6.589   2.546  0.2732  0.7511 -0.3682
  125MOL0     H16815   1.955   6.447   2.481 -2.3765 -3.6360 -0.3806
  125MOL0     H16816   1.905   6.532   2.781  2.1116 -0.0164  1.2054
  125MOL0     H16817   1.950   6.371   2.737 -1.0945 -1.0141 -3.0080
  125MOL0     H16818   2.159   6.430   2.644 -0.0376  0.1945 -0.1611
  125MOL0     H16819   2.114   6.601   2.637 -2.3825 -0.2042 -0.4163
  125MOL0     H16820   2.145   6.606   2.890 -0.6577 -0.9221  3.2581
  125MOL0     H16821   2.164   6.432   2.885 -2.3392  0.0477  0.4965
  125MOL0     H16822   2.361   6.634   2.751 -1.7045  1.4628  2.5406
  125MOL0     H16823   2.374   6.449   2.762  0.1049 -1.6945  2.0725
  125MOL0     H16824   2.374   6.676   2.960  0.6859 -0.3275  3.4734
  125MOL0     H16825   2.345   6.514   3.015 -1.8866  0.1143 -2.7865
  125MOL0     H16826   2.596   6.362   2.872 -0.9319  0.2641 -2.2162
  125MOL0     H16827   2.965   6.454   2.937 -1.6870  2.2537  0.4424
  125MOL0     H16828   2.864   6.343   3.041 -2.8355 -0.4875 -0.5785
  125MOL0     H16829   2.770   6.240   2.831  0.3633 -2.1480  0.1836
  125MOL0     H16830   2.893   6.312   2.736  0.9936  0.3292  0.0672
  125MOL0     H16831   2.945   6.114   2.961 -1.1790  0.8876 -0.4294
  125MOL0     H16832   3.067   6.216   2.888 -0.2034  1.8138 -1.4049
  125MOL0     H16833   3.059   6.138   2.680  1.5629 -0.7462  2.1340
  125MOL0     H16834   2.906   6.055   2.693 -0.2423  1.2922 -0.2100
  125MOL0     H16835   3.271   6.177   2.749  1.2366  1.1143 -0.1101
  125MOL0     H16836   3.504   6.154   2.820 -1.6574  0.9885  1.6583
  125MOL0     H16837   3.902   5.887   3.017  1.3178 -0.3311 -0.4676
  125MOL0     H16838   4.123   5.815   2.994 -0.9463  0.3908  1.3809
  125MOL0     H16839   4.323   5.774   2.924  1.5796 -0.1927  0.6475
  125MOL0     H16840   4.298   5.606   2.995  0.1723 -0.8179  0.1060
  125MOL0     H16841   4.469   5.694   2.762 -3.5865  0.6831  0.7392
  125MOL0     H16842   4.522   5.667   2.934 -1.7101  0.5173  1.6065
  125MOL0     H16843   4.471   5.435   2.915 -0.7225 -0.4241 -1.3532
  125MOL0     H16844   4.389   5.456   2.763  1.0581  0.5908 -2.3123
  125MOL0     H16845   4.692   5.473   2.790  0.1762 -0.3832  0.2341
  125MOL0     H16846   4.601   5.505   2.647 -1.7006 -1.1391 -0.6112
  125MOL0     H16847   4.501   5.290   2.627 -0.7941 -0.4694  2.6247
  125MOL0     H16848   4.595   5.234   2.772  1.0621  2.9495  1.9960
  125MOL0     H16849   4.699   5.324   2.499  0.8981 -0.9770 -1.0217
  125MOL0     H16850   4.807   5.301   2.636  0.7955 -1.4845 -0.5341
  125MOL0     H16851   4.626   5.078   2.530 -0.8560  2.6216  0.9586
  125MOL0     H16852   4.759   5.080   2.653  0.8208 -0.6810 -0.0570
  125MOL0     H16853   4.925   5.112   2.494 -1.3921  1.8350  0.9107
  125MOL0     H16854   4.824   4.980   2.424  1.6325  0.6998 -2.3840
  125MOL0     H16855   4.034   5.586   2.648 -0.7802 -0.1816  0.1879
  125MOL0     H16856   3.785   5.643   2.676 -1.5146  3.3056 -1.0612
  125MOL0     H16857   3.433   5.739   2.926  0.1365  0.2530 -0.7402
  125MOL0     H16858   3.197   5.770   2.855  0.0640 -0.6437 -1.7155
  125MOL0     H16859   1.298   6.324   2.470 -0.0002  2.0803  1.5435
  125MOL0     H16860   1.116   6.389   2.330  0.3330  2.1842  3.4710
  125MOL0     H16861   0.946   6.596   2.054 -0.1641  0.0411  0.7608
  125MOL0     H16862   0.737   6.656   1.961  2.4874  1.8113 -0.4663
  125MOL0     H16863   0.566   6.733   1.807 -1.5318  0.1426 -0.5537
  125MOL0     H16864   0.526   6.610   1.923  0.2158  0.7613  1.0212
  125MOL0     H16865   0.336   6.725   1.815 -0.5744 -0.0216 -0.9075
  125MOL0     H16866   0.329   6.548   1.804  0.0038 -1.0785 -2.4140
  125MOL0     H16867   0.254   6.678   1.622 -0.2446 -2.5906 -1.7447
  125MOL0     H16868   0.370   6.572   1.557 -0.4240 -0.9363  0.8249
  125MOL0     H16869   0.537   6.749   1.546 -0.7465 -1.2501 -0.0563
  125MOL0     H16870   0.375   6.794   1.475  0.9072 -1.9085 -1.8921
  125MOL0     H16871   0.425   7.101   1.760  2.1058  1.6100 -1.0454
  125MOL0     H16872   0.775   6.351   1.655  1.1846 -0.4987  0.1327
  125MOL0     H16873   0.938   6.193   1.660  0.5094 -0.3358  0.0886
  125MOL0     H16874   1.097   6.265   1.698  0.3193  2.7669  1.7231
  125MOL0     H16875   1.016   6.163   1.812 -0.2095 -0.9662 -1.3676
  126MOL0     O16876   3.222   2.775   4.787 -0.4348 -0.1638  0.7881
  126MOL0     C16877   3.171   2.891   4.769  0.3339 -0.2371  0.2994
  126MOL0     O16878   3.247   3.009   4.765  0.2911  0.0276 -0.2636
  126MOL0     C16879   3.377   2.987   4.794 -0.3005  0.7451  0.4478
  126MOL0     C16880   3.434   3.034   4.917 -0.0542  0.0856  0.2046
  126MOL0     C16881   3.564   2.991   4.944 -0.4958 -0.4599 -0.5361
  126MOL0     C16882   3.648   2.922   4.854  0.3991  0.1269  0.7625
  126MOL0     O16883   3.783   2.889   4.863 -0.1341  0.1798  0.4568
  126MOL0     C16884   3.850   2.909   4.988  0.4935  0.4331  0.2287
  126MOL0     C16885   4.002   2.864   4.996 -0.2185  0.1127 -0.4743
  126MOL0     C16886   4.048   2.900   5.146 -0.4020  0.0475  0.3532
  126MOL0     C16887   4.201   2.873   5.166 -0.6313  0.4395  0.5581
  126MOL0     C16888   4.257   2.960   5.284  0.2788  0.0292 -0.3194
  126MOL0     C16889   4.406   2.925   5.313 -0.0170  0.1253  0.0140
  126MOL0     C16890   4.462   3.028   5.412 -0.5717  0.9366 -0.2260
  126MOL0     C16891   4.595   2.970   5.478 -0.5963 -0.2952  0.4028
  126MOL0     N16892   4.702   2.935   5.384 -0.3455  0.5526  0.5859
  126MOL0     C16893   4.769   3.015   5.300 -0.4408 -0.5034  0.1323
  126MOL0     C16894   4.847   2.936   5.227  0.9750  0.4968 -0.2700
  126MOL0     C16895   4.938   2.981   5.120 -0.4362 -0.7038  0.3719
  126MOL0     C16896   5.075   3.036   5.180  0.7760  0.4803  0.4776
  126MOL0     C16897   5.173   3.059   5.072  1.2054 -0.6129 -0.1686
  126MOL0     C16898   5.263   2.939   5.047 -0.3520  0.2189 -0.1868
  126MOL0     O16899   5.351   2.909   5.157  0.0571  0.3325  0.2509
  126MOL0     C16900   5.482   2.908   5.112  0.2398  0.3892 -0.1841
  126MOL0     C16901   5.543   3.022   5.054  0.4212  0.0292  0.9615
  126MOL0     C16902   5.677   3.028   5.020 -0.3435  0.8824 -0.8772
  126MOL0     C16903   5.758   2.918   5.053  0.4063 -0.2912  0.7583
  126MOL0     C16904   5.900   2.914   5.032 -0.8024 -0.3108 -0.1273
  126MOL0     O16905   5.969   2.815   5.097 -0.5361 -0.2077 -0.3597
  126MOL0     C16906   6.104   2.794   5.076 -0.2561  0.6424 -0.5638
  126MOL0     C16907   6.172   2.725   5.170  0.5781 -0.7516  0.7151
  126MOL0     C16908   6.299   2.689   5.159 -0.1460 -0.4643 -0.9369
  126MOL0     C16909   6.376   2.719   5.038  0.4416 -0.4727  0.0408
  126MOL0     O16910   6.510   2.683   5.027  0.0557 -0.7333  0.3978
  126MOL0     C16911   6.585   2.802   5.046 -1.0969 -0.1227 -1.0064
  126MOL0     C16912   6.732   2.765   5.010 -0.4088 -0.1937  0.6435
  126MOL0     C16913   6.743   2.739   4.861  0.5316  0.2500 -0.0332
  126MOL0     C16914   6.868   2.652   4.829  0.4816 -0.0047 -0.0108
  126MOL0     C16915   6.887   2.670   4.679 -0.5412  0.2486  0.3848
  126MOL0     C16916   7.003   2.588   4.612  0.2670 -0.1027  0.5377
  126MOL0     C16917   7.044   2.646   4.472 -0.1490  0.3601  0.2862
  126MOL0     C16918   7.134   2.770   4.476  0.0721  0.3017 -0.2547
  126MOL0    Cl16919   7.262   2.758   4.590  0.0732  0.1574 -0.0643
  126MOL0     C16920   6.309   2.784   4.937  0.8298  0.1671 -0.2690
  126MOL0     C16921   6.174   2.824   4.955 -0.5838  0.7530  0.3301
  126MOL0     O16922   5.947   3.006   4.964  0.0101  0.1009 -0.2175
  126MOL0     C16923   5.696   2.807   5.121  0.2244 -0.3097 -0.0481
  126MOL0     C16924   5.564   2.802   5.154 -0.0670  0.4334  0.3841
  126MOL0     N16925   4.822   2.805   5.265 -0.5907 -0.5339  0.8029
  126MOL0     N16926   4.734   2.801   5.361  0.2347 -0.6424  0.0927
  126MOL0     C16927   3.593   2.892   4.729 -0.3242 -0.1785 -0.2088
  126MOL0     C16928   3.461   2.914   4.702 -0.2237 -0.5878  0.5397
  126MOL0     C16929   3.028   2.903   4.757  0.6514 -0.6645  0.6442
  126MOL0     C16930   2.968   3.020   4.717 -0.4059 -0.1822  0.0527
  126MOL0     C16931   2.828   3.039   4.694  0.6094  0.6242 -0.1097
  126MOL0     C16932   2.742   2.932   4.696  0.3582  0.2570  0.0172
  126MOL0     O16933   2.613   2.920   4.663  0.1438 -0.1333 -0.3851
  126MOL0     C16934   2.551   3.035   4.593  0.0790  0.0875 -0.8867
  126MOL0     C16935   2.402   3.034   4.620 -0.2905 -1.2451 -0.4102
  126MOL0     C16936   2.354   2.923   4.535  0.5600  0.7610 -0.5973
  126MOL0     C16937   2.203   2.894   4.550 -0.6868  0.1205 -0.9798
  126MOL0     C16938   2.177   2.755   4.555  1.2624 -0.0158 -0.3918
  126MOL0     C16939   2.145   2.641   4.545  0.2884 -0.5508 -0.2884
  126MOL0     C16940   2.805   2.810   4.735 -0.1857 -0.0315  0.0031
  126MOL0     C16941   2.937   2.789   4.775 -0.4782  0.0370  1.0120
  126MOL0     C16942   2.978   2.650   4.827  0.3161 -0.4759 -0.1913
  126MOL0     H16943   3.381   3.100   4.984  0.2025  0.4995  0.0047
  126MOL0     H16944   3.601   3.035   5.036  0.6774 -1.6306 -0.4164
  126MOL0     H16945   3.831   3.015   5.007  1.1747  0.6414 -0.2552
  126MOL0     H16946   3.788   2.853   5.059  0.8894 -0.2153  0.0645
  126MOL0     H16947   4.060   2.926   4.927  1.2106 -1.2950 -0.5906
  126MOL0     H16948   4.022   2.762   4.963  1.5818  0.9765 -2.2787
  126MOL0     H16949   3.985   2.836   5.209 -0.5236 -1.5599 -1.3255
  126MOL0     H16950   4.033   3.007   5.166 -0.7999  0.3879 -1.5127
  126MOL0     H16951   4.216   2.767   5.191 -1.0314  0.0427 -0.7804
  126MOL0     H16952   4.249   2.885   5.068  0.5725 -1.2094  0.9099
  126MOL0     H16953   4.251   3.066   5.258 -0.3859  0.2733  0.7541
  126MOL0     H16954   4.200   2.942   5.376 -1.1248 -0.6548 -1.3000
  126MOL0     H16955   4.432   2.822   5.339  0.2343 -0.5082 -2.4646
  126MOL0     H16956   4.453   2.928   5.214 -0.2324 -2.4378 -0.2194
  126MOL0     H16957   4.378   3.060   5.474 -1.6403  3.6817 -2.8136
  126MOL0     H16958   4.489   3.120   5.358  0.4258  1.6059  1.3588
  126MOL0     H16959   4.644   3.054   5.528  1.1778 -1.3436  0.5071
  126MOL0     H16960   4.562   2.887   5.541 -3.4585 -1.5903 -2.5572
  126MOL0     H16961   4.778   3.123   5.306  0.9288 -0.6523  1.6676
  126MOL0     H16962   4.954   2.895   5.055 -0.9748  1.5207 -2.9833
  126MOL0     H16963   4.910   3.068   5.059  2.3329  0.2215  0.2746
  126MOL0     H16964   5.053   3.131   5.231 -0.2159  0.2245  0.5444
  126MOL0     H16965   5.119   2.977   5.261 -3.4693  1.0526  3.5686
  126MOL0     H16966   5.235   3.146   5.096  2.0176 -1.5250  1.2495
  126MOL0     H16967   5.118   3.086   4.982  1.2773  1.2709  0.3100
  126MOL0     H16968   5.314   2.981   4.959  2.4530  2.7630  2.3817
  126MOL0     H16969   5.196   2.855   5.027  1.4720 -1.2795 -0.2823
  126MOL0     H16970   5.476   3.106   5.040 -3.4144 -2.7426  1.0919
  126MOL0     H16971   5.715   3.119   4.974 -2.6547  1.1158 -2.4877
  126MOL0     H16972   6.109   2.700   5.255  1.2956 -2.6619  0.7512
  126MOL0     H16973   6.348   2.636   5.240 -2.0881  0.0120  0.6063
  126MOL0     H16974   6.535   2.886   4.996  0.4729  1.5680  0.1545
  126MOL0     H16975   6.582   2.831   5.151 -0.7003  0.2919 -1.1039
  126MOL0     H16976   6.806   2.841   5.036 -1.2818  0.6644  0.6809
  126MOL0     H16977   6.759   2.670   5.056 -1.0873 -1.1267 -0.8417
  126MOL0     H16978   6.655   2.687   4.822  0.2871  1.8935 -1.8030
  126MOL0     H16979   6.748   2.836   4.811  0.6969  0.2193 -0.0770
  126MOL0     H16980   6.839   2.548   4.847 -1.5410  0.6754  0.9070
  126MOL0     H16981   6.953   2.686   4.888 -0.5609  2.9473 -0.0764
  126MOL0     H16982   6.909   2.776   4.663  1.5682  0.1514  2.1166
  126MOL0     H16983   6.799   2.633   4.625 -1.2809  1.0513  1.0170
  126MOL0     H16984   7.086   2.579   4.682  0.1852  1.7870  0.9451
  126MOL0     H16985   6.958   2.491   4.590 -1.4591  1.1986 -2.3409
  126MOL0     H16986   6.951   2.679   4.424  0.0134  3.1933  1.7312
  126MOL0     H16987   7.096   2.565   4.419 -4.0729 -0.2823 -3.1648
  126MOL0     H16988   7.178   2.794   4.379  1.2191 -0.0692  0.1584
  126MOL0     H16989   7.074   2.858   4.499  3.0784  3.0822 -2.2613
  126MOL0     H16990   6.360   2.809   4.845  0.6981  2.5881  0.2425
  126MOL0     H16991   6.144   2.894   4.878 -0.8420  0.6656  0.3505
  126MOL0     H16992   5.752   2.722   5.158 -2.7043 -1.5216  1.9591
  126MOL0     H16993   5.525   2.714   5.202  0.3378 -0.2530 -0.5110
  126MOL0     H16994   3.647   2.841   4.650 -0.5203  1.2939 -1.3363
  126MOL0     H16995   3.428   2.888   4.602 -0.2228 -0.5379  0.5262
  126MOL0     H16996   3.029   3.108   4.701  2.0187 -1.2337  2.6560
  126MOL0     H16997   2.802   3.139   4.660 -0.1159 -0.0414 -1.6163
  126MOL0     H16998   2.570   3.027   4.485  0.3223  0.0302 -0.8395
  126MOL0     H16999   2.583   3.128   4.640 -1.3528 -0.5786  1.5475
  126MOL0     H17000   2.347   3.125   4.593  1.3439 -0.0218  0.2136
  126MOL0     H17001   2.377   3.017   4.725  2.3878 -0.1126  0.4986
  126MOL0     H17002   2.407   2.833   4.566 -0.7556  0.1008 -0.2091
  126MOL0     H17003   2.374   2.946   4.430  1.0273 -2.9151 -1.4427
  126MOL0     H17004   2.155   2.943   4.635 -1.8829 -0.6736 -1.1746
  126MOL0     H17005   2.142   2.934   4.468 -2.0659  1.8892  0.7986
  126MOL0     H17006   2.112   2.540   4.534 -0.1616 -0.1900 -2.6785
  126MOL0     H17007   2.746   2.720   4.744  2.3833 -1.7094  1.0086
  126MOL0     H17008   3.057   2.649   4.903 -1.9879  2.6144  2.5144
  126MOL0     H17009   2.893   2.605   4.878  2.0300  0.2875  3.7641
  126MOL0     H17010   3.007   2.591   4.739  1.4859 -2.7127  1.5745
  127MOL0     O17011   3.057   1.887  11.277 -0.1064  0.0341 -0.0348
  127MOL0     C17012   3.005   1.778  11.301 -0.3756  0.4323 -0.1837
  127MOL0     O17013   3.051   1.653  11.258  0.0961  0.4563  0.3668
  127MOL0     C17014   3.167   1.655  11.185 -0.3856  0.8780  1.1614
  127MOL0     C17015   3.283   1.637  11.257 -0.3171 -0.8448 -0.0462
  127MOL0     C17016   3.396   1.653  11.181 -0.3449  0.4162  0.5270
  127MOL0     C17017   3.407   1.663  11.036  0.2968  0.3815 -0.1948
  127MOL0     O17018   3.532   1.655  10.985  0.5189 -0.0854  0.4393
  127MOL0     C17019   3.553   1.729  10.860  0.2347  0.3496 -0.1362
  127MOL0     C17020   3.699   1.734  10.830  0.3006 -0.6313 -0.0379
  127MOL0     C17021   3.737   1.866  10.748 -0.3154 -0.1347 -0.4838
  127MOL0     C17022   3.877   1.925  10.783  0.4611 -0.3321 -0.1898
  127MOL0     C17023   3.990   1.863  10.705  0.5936  0.2058  0.1479
  127MOL0     C17024   4.118   1.936  10.737 -0.6857  0.2021 -0.0125
  127MOL0     C17025   4.244   1.873  10.653  0.6262 -0.8022  0.6168
  127MOL0     C17026   4.375   1.949  10.654 -0.2172 -0.9596  0.2678
  127MOL0     N17027   4.427   1.968  10.792 -0.7303 -1.0001 -1.0145
  127MOL0     C17028   4.396   2.072  10.874  0.5063  0.6668 -1.4716
  127MOL0     C17029   4.487   2.054  10.979  0.2208  0.0892 -0.0418
  127MOL0     C17030   4.516   2.125  11.106  0.1427  0.8764  0.5759
  127MOL0     C17031   4.662   2.173  11.117 -0.2855 -1.1821 -0.3684
  127MOL0     C17032   4.669   2.272  11.231 -0.1283 -0.2068 -0.5100
  127MOL0     C17033   4.819   2.306  11.251  0.3178 -0.6149 -0.7499
  127MOL0     O17034   4.829   2.400  11.355  0.1317 -0.1392 -0.6018
  127MOL0     C17035   4.959   2.407  11.405  0.6434 -0.0509 -0.7002
  127MOL0     C17036   5.029   2.522  11.380 -0.1355  0.5316 -0.2588
  127MOL0     C17037   5.155   2.535  11.430 -0.6749  0.0269  0.0141
  127MOL0     C17038   5.218   2.432  11.505 -0.4972  0.2664  0.3998
  127MOL0     C17039   5.357   2.460  11.565  0.4383  0.5548  0.1151
  127MOL0     O17040   5.418   2.578  11.537 -0.6809  0.5708  0.7126
  127MOL0     C17041   5.535   2.608  11.600 -0.4354  0.1766  0.2072
  127MOL0     C17042   5.650   2.532  11.567 -0.1871 -0.2067 -0.4389
  127MOL0     C17043   5.777   2.568  11.625 -1.2875  0.5097  0.8302
  127MOL0     C17044   5.789   2.684  11.706 -0.0144  0.6038 -0.3152
  127MOL0     O17045   5.903   2.746  11.754  0.1825  0.5489 -0.1338
  127MOL0     C17046   6.019   2.662  11.764 -0.3735 -0.4167 -0.1365
  127MOL0     C17047   6.152   2.739  11.793 -0.1566  0.2638 -0.3230
  127MOL0     C17048   6.132   2.791  11.930 -0.1024  0.1720 -0.0083
  127MOL0     C17049   6.246   2.878  11.974 -0.7762  0.2899  0.0437
  127MOL0     C17050   6.371   2.794  12.004 -0.4932  0.3527 -0.4255
  127MOL0     C17051   6.481   2.882  12.071  0.7643 -0.5057  0.0785
  127MOL0     C17052   6.620   2.824  12.056  0.2856  0.1280 -0.6862
  127MOL0     C17053   6.670   2.834  11.914  0.2775 -0.0450  0.3446
  127MOL0    Cl17054   6.852   2.806  11.916 -0.3600 -0.1713 -0.3098
  127MOL0     C17055   5.671   2.753  11.734  0.1043  0.3806  0.3267
  127MOL0     C17056   5.540   2.712  11.685  0.3333 -0.4509  0.3826
  127MOL0     O17057   5.395   2.382  11.653 -0.2687  0.4191 -0.5071
  127MOL0     C17058   5.150   2.311  11.520  0.6715 -0.5285 -0.7582
  127MOL0     C17059   5.021   2.300  11.472  0.5545 -0.0860 -0.1635
  127MOL0     N17060   4.552   1.932  10.960  0.0076 -0.3434 -0.4394
  127MOL0     N17061   4.516   1.884  10.854 -0.9286 -0.0368 -0.4335
  127MOL0     C17062   3.288   1.686  10.965  0.1115  0.0824  0.3116
  127MOL0     C17063   3.167   1.684  11.047  0.0926 -0.1762 -0.1031
  127MOL0     C17064   2.881   1.776  11.390  0.5592  0.1896 -0.1435
  127MOL0     C17065   2.806   1.898  11.407  0.1531 -0.7593 -0.7573
  127MOL0     C17066   2.688   1.898  11.477  0.4255 -0.5332 -0.5390
  127MOL0     C17067   2.645   1.781  11.544 -0.0248 -0.4152 -0.4661
  127MOL0     O17068   2.543   1.776  11.631 -0.3118 -0.7550  0.0070
  127MOL0     C17069   2.469   1.894  11.649 -0.1568 -0.1543 -0.4010
  127MOL0     C17070   2.373   1.917  11.526  0.6713  0.6629 -0.0922
  127MOL0     C17071   2.268   2.026  11.523  0.5006 -0.1699 -0.3381
  127MOL0     C17072   2.338   2.164  11.556  0.0916  0.2803  0.5724
  127MOL0     C17073   2.436   2.195  11.454 -0.2666 -0.0652 -0.7126
  127MOL0     C17074   2.522   2.230  11.372  1.0252 -0.7072 -0.0897
  127MOL0     C17075   2.713   1.665  11.526  0.2977  0.4820  0.4045
  127MOL0     C17076   2.828   1.651  11.447  0.4670 -0.3262  0.1428
  127MOL0     C17077   2.894   1.516  11.435  0.8039  0.1724 -0.3405
  127MOL0     H17078   3.284   1.625  11.364  0.7657  1.2921  0.2498
  127MOL0     H17079   3.494   1.646  11.228  0.6182 -0.3101 -1.4726
  127MOL0     H17080   3.505   1.675  10.777 -0.2408 -0.7023  0.7985
  127MOL0     H17081   3.520   1.834  10.859  0.3420  0.3961  0.7428
  127MOL0     H17082   3.738   1.646  10.777  1.7440 -0.8520  1.2887
  127MOL0     H17083   3.758   1.746  10.922 -0.2523 -0.8066  0.3426
  127MOL0     H17084   3.661   1.944  10.752  1.0633  1.3020 -1.1344
  127MOL0     H17085   3.733   1.830  10.645  2.4756 -0.7820 -0.4507
  127MOL0     H17086   3.867   2.032  10.762 -0.4145 -0.6305 -1.4069
  127MOL0     H17087   3.889   1.918  10.891 -0.6500 -2.3521 -0.1452
  127MOL0     H17088   3.996   1.754  10.719 -2.4479  0.1159  1.4884
  127MOL0     H17089   3.970   1.881  10.599  3.7881 -1.0130 -0.7796
  127MOL0     H17090   4.101   2.040  10.708 -3.7627  0.1962  1.3282
  127MOL0     H17091   4.151   1.928  10.841  1.7990  0.0813 -0.7492
  127MOL0     H17092   4.219   1.869  10.547 -0.2706 -0.5569  0.8052
  127MOL0     H17093   4.258   1.768  10.683 -0.0761 -0.5659  1.8310
  127MOL0     H17094   4.453   1.896  10.598  1.4639  1.9413 -0.3618
  127MOL0     H17095   4.361   2.045  10.602  3.0034 -1.2280 -1.3295
  127MOL0     H17096   4.326   2.154  10.862 -2.4847 -1.0312  2.1447
  127MOL0     H17097   4.441   2.205  11.117 -1.8719 -0.9726  1.0170
  127MOL0     H17098   4.501   2.047  11.182 -0.2733  2.1571  1.8633
  127MOL0     H17099   4.726   2.087  11.133  1.5105  0.4773  2.2275
  127MOL0     H17100   4.695   2.223  11.026  1.8210 -0.3574  0.7667
  127MOL0     H17101   4.633   2.224  11.323  1.3419 -0.2881  0.0418
  127MOL0     H17102   4.610   2.361  11.206 -1.4286 -0.8229  0.2457
  127MOL0     H17103   4.856   2.354  11.160  0.1467 -0.1071 -0.5545
  127MOL0     H17104   4.872   2.211  11.252  0.7848 -0.4773 -3.3746
  127MOL0     H17105   4.996   2.606  11.319 -1.6830  0.2570  0.1499
  127MOL0     H17106   5.213   2.625  11.410  0.5131 -1.2420 -2.7609
  127MOL0     H17107   5.659   2.449  11.497  1.8285  0.4997 -1.0734
  127MOL0     H17108   5.869   2.517  11.599 -0.5799  1.6890  0.9780
  127MOL0     H17109   6.007   2.574  11.827 -1.4010 -0.3797 -0.2687
  127MOL0     H17110   6.037   2.625  11.663 -1.5540 -3.3144  0.6220
  127MOL0     H17111   6.240   2.674  11.796 -0.1417  0.2967  2.3236
  127MOL0     H17112   6.177   2.818  11.721  1.4698  0.5990  0.5547
  127MOL0     H17113   6.045   2.858  11.934 -1.4547 -1.4864 -0.4270
  127MOL0     H17114   6.114   2.705  11.996  1.2635 -0.0997  0.0393
  127MOL0     H17115   6.233   2.934  12.067  0.7251  0.8426 -0.0555
  127MOL0     H17116   6.272   2.953  11.899  2.0682  0.0444  0.6830
  127MOL0     H17117   6.406   2.750  11.910 -2.6381 -1.0014 -0.6459
  127MOL0     H17118   6.341   2.712  12.070  0.7775 -0.2037 -0.5156
  127MOL0     H17119   6.488   2.979  12.020  1.1619 -0.6870 -0.2199
  127MOL0     H17120   6.451   2.885  12.176 -2.2619 -0.5697 -0.6864
  127MOL0     H17121   6.625   2.724  12.100  3.9104  1.1722  1.6880
  127MOL0     H17122   6.680   2.890  12.120 -3.3031  1.4569  1.6321
  127MOL0     H17123   6.623   2.752  11.859  0.7924  0.0378 -0.2277
  127MOL0     H17124   6.651   2.926  11.857 -0.6179 -0.8530 -0.7011
  127MOL0     H17125   5.677   2.830  11.810  0.4803  1.2444 -0.5495
  127MOL0     H17126   5.442   2.748  11.716  0.7700 -0.2834  1.6481
  127MOL0     H17127   5.203   2.232  11.572  1.2516  1.5610  2.0719
  127MOL0     H17128   4.979   2.200  11.483  0.8155 -0.2139 -0.3191
  127MOL0     H17129   3.287   1.687  10.857 -1.4344 -1.3135  0.2866
  127MOL0     H17130   3.072   1.705  10.999 -0.1702 -0.0824  0.4503
  127MOL0     H17131   2.851   1.982  11.356 -0.7240 -1.0307 -2.0210
  127MOL0     H17132   2.634   1.992  11.487  1.1381 -0.3737  2.5433
  127MOL0     H17133   2.536   1.978  11.670  2.1377 -1.8537 -0.5467
  127MOL0     H17134   2.401   1.883  11.734 -1.5674 -0.0705 -1.4773
  127MOL0     H17135   2.321   1.820  11.521  1.5129  0.1306  0.9849
  127MOL0     H17136   2.435   1.919  11.437  0.0866 -0.8979 -0.5712
  127MOL0     H17137   2.194   2.004  11.601  1.1390  1.8621  0.9252
  127MOL0     H17138   2.215   2.029  11.427  0.7486 -1.3286 -0.5240
  127MOL0     H17139   2.272   2.249  11.574 -0.5566 -0.5946  2.6204
  127MOL0     H17140   2.385   2.163  11.654  5.6816 -0.0250 -1.7129
  127MOL0     H17141   2.593   2.251  11.295 -0.5162 -1.1960 -1.7202
  127MOL0     H17142   2.684   1.578  11.584  1.4479 -1.6912 -2.0634
  127MOL0     H17143   2.996   1.531  11.473 -0.1487  0.7207  2.1761
  127MOL0     H17144   2.854   1.444  11.507  1.5921  0.5277  0.4739
  127MOL0     H17145   2.892   1.473  11.334 -0.3752 -1.5384  0.3631
  128MOL0     O17146   2.006   1.038   3.494  0.3762  0.5637  0.9476
  128MOL0     C17147   1.953   0.926   3.479  0.6493  0.6407  0.3992
  128MOL0     O17148   2.001   0.812   3.540 -0.0212  0.6432  0.9401
  128MOL0     C17149   2.130   0.822   3.600 -0.7368 -0.1581 -0.3950
  128MOL0     C17150   2.240   0.864   3.521  0.2886  0.0922 -0.2897
  128MOL0     C17151   2.361   0.883   3.588 -0.6275  0.8011 -0.0306
  128MOL0     C17152   2.374   0.853   3.724  0.1120 -0.4726  0.1547
  128MOL0     O17153   2.493   0.870   3.796 -0.2907  0.5872 -0.2062
  128MOL0     C17154   2.611   0.811   3.725  0.1780 -0.0549 -0.2220
  128MOL0     C17155   2.736   0.802   3.810  0.2911  0.3336 -0.1613
  128MOL0     C17156   2.815   0.928   3.808 -0.0596 -0.1241 -0.7168
  128MOL0     C17157   2.935   0.920   3.901  0.5303  0.1831  0.4221
  128MOL0     C17158   3.021   1.046   3.896 -0.0473  0.0500 -0.5222
  128MOL0     C17159   3.144   1.010   3.982  0.2414 -0.5789  0.1519
  128MOL0     C17160   3.251   1.120   4.014  0.1690  0.6066 -0.3938
  128MOL0     C17161   3.349   1.061   4.119 -0.0125  0.0220 -0.2315
  128MOL0     N17162   3.460   1.156   4.155  0.6334 -0.7737  0.0273
  128MOL0     C17163   3.517   1.174   4.283  0.7353  0.0030  0.0281
  128MOL0     C17164   3.609   1.274   4.279  0.3132 -0.0490 -0.1963
  128MOL0     C17165   3.679   1.328   4.401  0.2352  0.3021  0.6440
  128MOL0     C17166   3.817   1.403   4.381  0.3880  0.5292 -0.1814
  128MOL0     C17167   3.927   1.308   4.336 -0.0183  0.4049  0.6522
  128MOL0     C17168   4.063   1.374   4.345  0.0004 -0.8018  0.1527
  128MOL0     O17169   4.158   1.293   4.270  0.6687 -0.5968 -0.0476
  128MOL0     C17170   4.287   1.333   4.282  0.8330 -0.4254  0.2313
  128MOL0     C17171   4.328   1.465   4.317  0.3493 -0.7319 -0.4914
  128MOL0     C17172   4.460   1.486   4.347  0.9277  0.3105  0.4521
  128MOL0     C17173   4.561   1.390   4.340 -0.1997  0.2207  0.3817
  128MOL0     C17174   4.704   1.414   4.374 -0.2723  0.5748  0.0683
  128MOL0     O17175   4.777   1.299   4.380 -0.2835  0.2685 -0.3033
  128MOL0     C17176   4.918   1.303   4.376 -0.4472  1.1979  0.3001
  128MOL0     C17177   4.997   1.397   4.308 -0.1897 -0.2064  0.1551
  128MOL0     C17178   5.146   1.391   4.301  0.4932  0.0940  0.2923
  128MOL0     C17179   5.203   1.282   4.382  0.0484 -0.7158 -0.1843
  128MOL0     O17180   5.342   1.277   4.388 -0.3824  0.3942 -0.3729
  128MOL0     C17181   5.401   1.242   4.516  0.0725 -0.8498 -0.5546
  128MOL0     C17182   5.536   1.300   4.510 -0.9316  0.4960 -0.2905
  128MOL0     C17183   5.560   1.443   4.463  0.0874 -0.0989 -0.1082
  128MOL0     C17184   5.705   1.491   4.458  0.6862  0.6446 -0.5154
  128MOL0     C17185   5.755   1.535   4.600 -0.4717 -0.8718 -0.9136
  128MOL0     C17186   5.905   1.560   4.580 -0.0080 -0.8352  0.1770
  128MOL0     C17187   5.982   1.607   4.703  0.3026  0.1941 -0.0109
  128MOL0     C17188   6.114   1.669   4.663  0.9409  0.3365  0.8381
  128MOL0    Cl17189   6.248   1.610   4.747  0.0900  0.4030 -0.0691
  128MOL0     C17190   5.124   1.187   4.442  0.5878  0.5447 -0.1812
  128MOL0     C17191   4.980   1.193   4.438 -1.2635  0.7065 -0.5632
  128MOL0     O17192   4.752   1.525   4.388  0.4605 -0.8233  0.4852
  128MOL0     C17193   4.518   1.258   4.298  0.1290  0.2232 -0.7269
  128MOL0     C17194   4.383   1.231   4.272  0.2001  0.5085  0.8245
  128MOL0     N17195   3.610   1.317   4.150  0.0756 -0.0374  0.0547
  128MOL0     N17196   3.522   1.245   4.075  0.6540 -0.7712 -0.0669
  128MOL0     C17197   2.266   0.798   3.798 -0.7961 -0.2730  0.3587
  128MOL0     C17198   2.151   0.780   3.732  0.4992  0.7702  0.3437
  128MOL0     C17199   1.820   0.913   3.402  0.1902 -1.5935 -0.1468
  128MOL0     C17200   1.754   0.789   3.418 -0.2030 -0.2756 -1.1159
  128MOL0     C17201   1.621   0.770   3.374 -0.4026  0.7886 -0.5760
  128MOL0     C17202   1.555   0.867   3.313  0.7712 -1.1753  0.3059
  128MOL0     O17203   1.430   0.829   3.263 -0.0799  0.1494 -0.7951
  128MOL0     C17204   1.331   0.928   3.230  0.0719 -0.1420 -0.3205
  128MOL0     C17205   1.188   0.899   3.279  0.2325  0.8745 -0.0671
  128MOL0     C17206   1.105   1.026   3.278  0.3215  0.6446 -0.1944
  128MOL0     C17207   0.956   0.979   3.288  0.0712 -0.0218  0.0799
  128MOL0     C17208   0.875   1.087   3.244 -0.5143 -1.0604  0.3293
  128MOL0     C17209   0.803   1.178   3.226  0.5630 -0.4949 -0.3351
  128MOL0     C17210   1.616   0.992   3.282  0.1311 -0.6632  0.8858
  128MOL0     C17211   1.753   1.010   3.319 -0.4309 -0.1009 -0.3333
  128MOL0     C17212   1.815   1.147   3.284  0.0998 -0.0836  0.2011
  128MOL0     H17213   2.223   0.894   3.418 -1.8736  3.9312  0.9543
  128MOL0     H17214   2.436   0.924   3.520 -1.4680 -0.3287 -1.6921
  128MOL0     H17215   2.569   0.710   3.712 -3.1263  0.3821  4.4304
  128MOL0     H17216   2.628   0.873   3.637  1.9851 -0.9973 -0.5748
  128MOL0     H17217   2.811   0.729   3.780  0.4822  0.6597 -0.4847
  128MOL0     H17218   2.698   0.783   3.911  0.1805  1.4899  0.0213
  128MOL0     H17219   2.747   1.007   3.840 -2.3754 -1.7330 -1.3642
  128MOL0     H17220   2.858   0.953   3.710  1.9040  3.9161  0.9235
  128MOL0     H17221   2.901   0.892   4.001 -1.0245 -2.2091 -0.6516
  128MOL0     H17222   3.001   0.835   3.883  0.5924  0.5105 -1.0364
  128MOL0     H17223   3.040   1.061   3.789 -2.1297 -0.7825 -1.0498
  128MOL0     H17224   2.964   1.128   3.940 -0.9924 -0.0933 -1.4518
  128MOL0     H17225   3.123   0.974   4.083  2.2267 -0.0779  0.7804
  128MOL0     H17226   3.196   0.926   3.936  0.6944  0.7399 -1.8674
  128MOL0     H17227   3.204   1.203   4.068  0.8168 -1.2008  3.2621
  128MOL0     H17228   3.299   1.153   3.921 -1.2559 -0.1529 -1.4493
  128MOL0     H17229   3.286   1.044   4.207 -0.9221 -0.4277 -0.9459
  128MOL0     H17230   3.407   0.975   4.085  2.3819  2.1652 -1.9710
  128MOL0     H17231   3.484   1.126   4.375  1.0285 -0.9284 -0.3401
  128MOL0     H17232   3.614   1.400   4.452  0.6205 -0.9532  3.0154
  128MOL0     H17233   3.699   1.244   4.468  1.7011  3.4245  4.5498
  128MOL0     H17234   3.798   1.477   4.303 -2.0634 -1.4242 -1.6209
  128MOL0     H17235   3.843   1.455   4.473 -1.0755 -0.2456  0.7213
  128MOL0     H17236   3.913   1.280   4.231  1.0099  2.8637 -0.2013
  128MOL0     H17237   3.939   1.215   4.392 -2.2135 -0.8674 -0.8241
  128MOL0     H17238   4.095   1.377   4.449 -0.4355 -0.3401  0.2766
  128MOL0     H17239   4.061   1.477   4.310  1.6444 -0.4130  1.1265
  128MOL0     H17240   4.266   1.551   4.343  3.1077  1.4354 -0.6826
  128MOL0     H17241   4.478   1.587   4.383  1.4815 -0.0007  1.0564
  128MOL0     H17242   4.948   1.478   4.254 -1.4398 -0.3485  1.0399
  128MOL0     H17243   5.203   1.468   4.249  0.9344 -0.0235  0.6005
  128MOL0     H17244   5.337   1.286   4.593 -0.4907 -2.0389 -0.3156
  128MOL0     H17245   5.414   1.136   4.542  1.5521 -0.0321  2.2905
  128MOL0     H17246   5.588   1.300   4.607  1.8181 -0.4155 -1.6518
  128MOL0     H17247   5.591   1.236   4.441  0.5486 -0.3229  1.5516
  128MOL0     H17248   5.528   1.445   4.358  0.1557  0.8045 -0.1117
  128MOL0     H17249   5.493   1.509   4.519  2.2084  1.4439  0.7191
  128MOL0     H17250   5.704   1.577   4.390 -1.3878  0.7120 -0.4464
  128MOL0     H17251   5.773   1.410   4.428 -0.9648 -1.7857  1.8723
  128MOL0     H17252   5.748   1.463   4.682  0.8601  1.8327  1.8218
  128MOL0     H17253   5.698   1.620   4.638  2.5612  0.1842  1.7951
  128MOL0     H17254   5.960   1.480   4.529  0.2382  0.4295 -1.6652
  128MOL0     H17255   5.910   1.644   4.510  0.5220 -1.1312 -0.1453
  128MOL0     H17256   5.998   1.523   4.771 -0.3724 -0.1359 -0.2561
  128MOL0     H17257   5.930   1.682   4.764  3.1984  2.1465  0.2613
  128MOL0     H17258   6.129   1.663   4.555 -2.2714  0.6791  0.2703
  128MOL0     H17259   6.119   1.777   4.677  0.7007  0.4984 -0.2856
  128MOL0     H17260   5.163   1.101   4.495  1.2928  1.1451  0.2898
  128MOL0     H17261   4.929   1.114   4.493  1.1319 -0.3237  0.3676
  128MOL0     H17262   4.584   1.172   4.292  1.2295  0.8888  1.1524
  128MOL0     H17263   4.367   1.128   4.242  2.3146 -0.1310  1.6991
  128MOL0     H17264   2.282   0.777   3.903 -0.6074 -0.9933  0.1938
  128MOL0     H17265   2.063   0.733   3.776 -0.0349  0.6849 -0.7803
  128MOL0     H17266   1.796   0.709   3.477  0.5948  0.1195 -1.1371
  128MOL0     H17267   1.576   0.673   3.391 -0.5407  0.9786  0.2255
  128MOL0     H17268   1.337   0.959   3.125 -0.1746 -0.8718 -0.5575
  128MOL0     H17269   1.362   1.018   3.285 -1.8259  0.7731 -0.6878
  128MOL0     H17270   1.208   0.857   3.378 -0.3161  1.4187  0.2860
  128MOL0     H17271   1.146   0.826   3.209 -1.4930  1.8577 -0.1195
  128MOL0     H17272   1.120   1.081   3.185  1.8731 -0.6819 -0.7804
  128MOL0     H17273   1.135   1.090   3.362  1.0821 -0.9802  0.8283
  128MOL0     H17274   0.945   0.886   3.231  2.7933  0.7434 -1.8993
  128MOL0     H17275   0.926   0.967   3.393 -1.1113  0.9319 -0.1296
  128MOL0     H17276   0.722   1.245   3.205  0.9373  0.4372  1.1143
  128MOL0     H17277   1.566   1.073   3.230 -0.4322 -1.7347 -0.2833
  128MOL0     H17278   1.920   1.158   3.314  0.4004 -2.8642  0.5060
  128MOL0     H17279   1.808   1.153   3.175  2.4252  0.2175  0.0140
  128MOL0     H17280   1.756   1.232   3.318  0.6889  0.0275  0.9844
  129MOL0     O17281   7.770   9.938   8.722  0.5812 -0.5949  0.2102
  129MOL0     C17282   7.754   9.985   8.606  0.1514  0.1766  0.2200
  129MOL0     O17283   7.852  10.031   8.525 -0.5057 -0.0874  0.1100
  129MOL0     C17284   7.977  10.035   8.581 -0.9176 -0.5698  0.9086
  129MOL0     C17285   8.022  10.156   8.640  0.3217 -0.2090 -0.4929
  129MOL0     C17286   8.157  10.166   8.684 -0.9272 -0.3801 -0.6998
  129MOL0     C17287   8.249  10.062   8.673  0.0014 -0.1206 -0.3530
  129MOL0     O17288   8.382  10.086   8.702 -0.2834 -0.2869 -0.1618
  129MOL0     C17289   8.483  10.053   8.603 -0.3605  0.8641 -0.8022
  129MOL0     C17290   8.606  10.133   8.625 -0.5668 -1.2136  0.7005
  129MOL0     C17291   8.719  10.074   8.535  0.9803  0.7696  0.5735
  129MOL0     C17292   8.852  10.153   8.545  0.0006  0.7600 -0.2759
  129MOL0     C17293   8.956  10.103   8.443  0.3569  0.2405  0.0054
  129MOL0     C17294   9.083  10.194   8.430  0.3068 -0.4979  0.8296
  129MOL0     C17295   9.180  10.143   8.331 -0.1067 -0.7315  1.1134
  129MOL0     C17296   9.264  10.032   8.402  0.1841 -0.5417  0.5978
  129MOL0     N17297   9.383  10.000   8.317  0.6748 -0.0339 -0.1668
  129MOL0     C17298   9.437  10.079   8.222  0.9526 -0.4189  0.0785
  129MOL0     C17299   9.533  10.022   8.159  0.6506 -0.8352 -0.6148
  129MOL0     C17300   9.632  10.093   8.071  0.4909 -0.0156  0.9941
  129MOL0     C17301   9.766  10.127   8.135  0.2493 -0.0234 -0.1771
  129MOL0     C17302   9.870  10.014   8.145  1.4032  0.2469  0.0711
  129MOL0     C17303   9.988  10.061   8.234  0.2049  0.1055  0.3168
  129MOL0     O17304  10.061  10.172   8.185 -0.7559  0.0130  0.3316
  129MOL0     C17305  10.168  10.144   8.100  0.7225  0.5910  0.0983
  129MOL0     C17306  10.242  10.252   8.055  0.2496  0.1260 -0.3054
  129MOL0     C17307  10.355  10.232   7.972 -0.1785 -0.0356  0.8245
  129MOL0     C17308  10.396  10.105   7.940  0.7762 -0.6336 -0.2770
  129MOL0     C17309  10.520  10.091   7.866  0.4816  0.0603  0.0779
  129MOL0     O17310  10.604  10.189   7.873 -0.1175  0.5184  0.1473
  129MOL0     C17311  10.711  10.210   7.789  0.4434  0.5475  0.1493
  129MOL0     C17312  10.830  10.242   7.843 -0.4202  0.1955 -1.2491
  129MOL0     C17313  10.950  10.261   7.771 -0.0697 -0.2671  0.8061
  129MOL0     C17314  10.953  10.241   7.638  0.7424 -0.4076 -0.3361
  129MOL0     O17315  11.061  10.265   7.555  0.0057 -0.7604 -0.1605
  129MOL0     C17316  11.189  10.304   7.617 -0.4121 -0.3939 -1.0439
  129MOL0     C17317  11.208  10.448   7.664  0.0466  0.6545  0.0720
  129MOL0     C17318  11.210  10.536   7.541  0.1251 -0.6261 -0.6193
  129MOL0     C17319  11.220  10.690   7.580  0.1511  0.5003 -0.5433
  129MOL0     C17320  11.208  10.788   7.457  0.4780 -0.5559 -0.6322
  129MOL0     C17321  11.296  10.764   7.346  0.0971  0.3308  0.9418
  129MOL0     C17322  11.286  10.882   7.246 -0.1853  0.3730 -0.2052
  129MOL0     C17323  11.389  10.854   7.132 -0.4036 -1.5142  0.0622
  129MOL0    Cl17324  11.562  10.819   7.190 -0.7994  0.1961  0.2755
  129MOL0     C17325  10.824  10.205   7.575 -0.2830  0.6976 -0.4649
  129MOL0     C17326  10.708  10.182   7.653 -0.7203  0.2706  0.7180
  129MOL0     O17327  10.533   9.985   7.801 -0.2092 -0.5289 -0.2531
  129MOL0     C17328  10.310  10.002   7.964  0.1253 -0.2814  0.5807
  129MOL0     C17329  10.200  10.014   8.048 -0.3647 -1.1215  0.8356
  129MOL0     N17330   9.559   9.908   8.231 -0.1543 -0.4786  0.0739
  129MOL0     N17331   9.467   9.894   8.316  0.6582  0.7861 -0.4257
  129MOL0     C17332   8.196   9.940   8.629  0.4492 -0.3235 -0.6291
  129MOL0     C17333   8.063   9.926   8.579  0.3015 -0.5793 -0.9681
  129MOL0     C17334   7.614   9.997   8.560 -0.3237  0.7478 -0.3086
  129MOL0     C17335   7.597   9.999   8.420  0.3209 -0.0702  0.9872
  129MOL0     C17336   7.478  10.040   8.354 -0.3746  0.7231 -0.2948
  129MOL0     C17337   7.371  10.076   8.438  0.0870  1.1181  0.4031
  129MOL0     O17338   7.257  10.132   8.394 -0.0479  0.2781  1.2061
  129MOL0     C17339   7.228  10.178   8.254 -0.6319 -0.3524  0.0960
  129MOL0     C17340   7.333  10.276   8.206  0.1167  0.0284  0.2319
  129MOL0     C17341   7.354  10.397   8.306 -1.1246  0.7463 -0.2007
  129MOL0     C17342   7.400  10.524   8.223 -0.1332 -0.7188 -0.4464
  129MOL0     C17343   7.281  10.589   8.159  0.5235  0.5101 -0.7238
  129MOL0     C17344   7.179  10.649   8.126 -0.6538 -0.1445 -0.5622
  129MOL0     C17345   7.381  10.056   8.576  0.2643 -0.4791 -0.2172
  129MOL0     C17346   7.498  10.012   8.634  0.5683 -0.0125 -0.3691
  129MOL0     C17347   7.492  10.002   8.788  0.3128 -1.3992  0.0930
  129MOL0     H17348   7.952  10.239   8.646  0.2438 -0.1089 -2.1618
  129MOL0     H17349   8.187  10.261   8.727  0.4284 -1.1999  0.2333
  129MOL0     H17350   8.508   9.946   8.604 -0.0187  0.9385  0.7760
  129MOL0     H17351   8.444  10.076   8.503 -0.9981 -1.4581 -1.1507
  129MOL0     H17352   8.638  10.127   8.729  1.9739 -2.9516 -0.0720
  129MOL0     H17353   8.580  10.238   8.605  1.2097 -1.1095 -1.6050
  129MOL0     H17354   8.688  10.074   8.430  0.1866 -0.7442  0.7774
  129MOL0     H17355   8.742   9.970   8.561  2.5994  0.6414 -1.1519
  129MOL0     H17356   8.835  10.259   8.523 -0.4404  1.1532  1.6907
  129MOL0     H17357   8.883  10.166   8.649 -0.8091  3.4282 -0.2887
  129MOL0     H17358   8.988  10.002   8.468 -2.2772 -0.6874 -0.0450
  129MOL0     H17359   8.900  10.095   8.350 -2.9952  0.2385  1.8482
  129MOL0     H17360   9.045  10.291   8.395 -2.1457 -1.1585  1.4423
  129MOL0     H17361   9.132  10.200   8.527  0.3190 -0.6786  0.8354
  129MOL0     H17362   9.243  10.230   8.310 -0.7390 -0.1260  1.6926
  129MOL0     H17363   9.140  10.104   8.237  1.1871  1.5725 -0.4974
  129MOL0     H17364   9.290  10.071   8.501  0.7617 -0.6518  0.4922
  129MOL0     H17365   9.204   9.942   8.417 -1.3297  0.5410  1.2985
  129MOL0     H17366   9.413  10.183   8.198  2.0631  0.3306  1.9893
  129MOL0     H17367   9.646  10.028   7.984 -2.1718  0.0172  0.4682
  129MOL0     H17368   9.585  10.185   8.034  2.0361  0.2714 -0.4126
  129MOL0     H17369   9.825  10.209   8.092 -0.9411  0.9473 -0.0151
  129MOL0     H17370   9.737  10.166   8.233 -2.9417  0.8166 -1.3563
  129MOL0     H17371   9.907  10.004   8.042  2.8007  1.7389  0.3940
  129MOL0     H17372   9.820   9.927   8.190  0.1462  1.7492  1.6970
  129MOL0     H17373  10.043   9.966   8.245 -0.4885 -0.4029 -0.5092
  129MOL0     H17374   9.951  10.097   8.331 -4.5359 -2.4449 -0.2159
  129MOL0     H17375  10.227  10.349   8.101  2.2941 -0.3202  1.4770
  129MOL0     H17376  10.409  10.325   7.957 -2.4472  1.1525 -0.5460
  129MOL0     H17377  10.852  10.255   7.948 -1.2349  0.4895 -1.1106
  129MOL0     H17378  11.034  10.283   7.836  1.0404 -0.9869 -0.3368
  129MOL0     H17379  11.197  10.244   7.708  0.2714 -0.8873 -1.4172
  129MOL0     H17380  11.275  10.277   7.555 -1.1982 -1.4424 -1.7110
  129MOL0     H17381  11.133  10.481   7.736 -0.7949  0.0355 -0.5057
  129MOL0     H17382  11.308  10.456   7.707  1.0690 -2.4752 -1.4413
  129MOL0     H17383  11.297  10.507   7.481  0.0774 -2.5882  0.2004
  129MOL0     H17384  11.116  10.519   7.486 -0.3301 -0.9169  0.2272
  129MOL0     H17385  11.313  10.713   7.632  0.3621  0.1126 -0.7413
  129MOL0     H17386  11.148  10.703   7.661  0.9881  2.0806 -0.0235
  129MOL0     H17387  11.231  10.886   7.499  1.7623 -1.8125  1.8063
  129MOL0     H17388  11.104  10.790   7.424  0.8865  0.5843 -1.9645
  129MOL0     H17389  11.400  10.763   7.378 -0.0322  1.1687  1.4302
  129MOL0     H17390  11.267  10.671   7.297  0.5042 -0.9374  2.9760
  129MOL0     H17391  11.304  10.978   7.297  4.6088  0.8413 -2.2902
  129MOL0     H17392  11.183  10.884   7.209  0.9938  0.6728 -3.8240
  129MOL0     H17393  11.355  10.765   7.079  0.1350 -1.3056 -0.6579
  129MOL0     H17394  11.386  10.952   7.082  2.4055 -0.2742  2.0184
  129MOL0     H17395  10.826  10.188   7.467 -0.8207 -0.6635 -0.2768
  129MOL0     H17396  10.621  10.149   7.596 -0.8323  1.7023  0.0110
  129MOL0     H17397  10.345   9.906   7.928  2.1658  0.6354 -0.0337
  129MOL0     H17398  10.136   9.928   8.063  1.8460 -2.5004  3.0676
  129MOL0     H17399   8.264   9.856   8.619 -0.9848 -1.6856  0.5190
  129MOL0     H17400   8.024   9.835   8.534  0.1140 -0.9208 -0.1280
  129MOL0     H17401   7.681   9.980   8.354 -0.8981 -2.1696 -0.0582
  129MOL0     H17402   7.479  10.039   8.245  0.2145 -1.5143 -0.3051
  129MOL0     H17403   7.134  10.233   8.267 -0.5965 -0.5066  1.0366
  129MOL0     H17404   7.220  10.089   8.190 -0.3758 -0.0888 -0.3160
  129MOL0     H17405   7.294  10.310   8.110  1.3938  0.8249 -0.0187
  129MOL0     H17406   7.429  10.226   8.189 -0.3597 -0.1983 -2.0987
  129MOL0     H17407   7.431  10.372   8.380 -1.7063  2.3516  0.9923
  129MOL0     H17408   7.260  10.414   8.358 -1.3959 -0.4671 -0.2737
  129MOL0     H17409   7.421  10.590   8.308  1.6948 -1.6764 -0.1030
  129MOL0     H17410   7.489  10.503   8.162  0.7283  1.5314 -0.0849
  129MOL0     H17411   7.098  10.711   8.094  0.6569  0.2218 -3.4949
  129MOL0     H17412   7.295  10.072   8.641  0.1100 -2.1008  0.0370
  129MOL0     H17413   7.553  10.082   8.832 -0.2718 -0.6798 -0.3875
  129MOL0     H17414   7.389  10.002   8.824  0.4370  2.2349  0.8376
  129MOL0     H17415   7.535   9.905   8.816  0.4042 -2.0158 -2.0386
  130MOL0     O17416   7.357   3.021   9.589 -0.0728 -0.1063  0.1837
  130MOL0     C17417   7.291   3.103   9.527  0.6452  0.1730  0.2041
  130MOL0     O17418   7.342   3.206   9.455 -0.1395  0.3696  0.2097
  130MOL0     C17419   7.475   3.200   9.426  0.5630  0.1522 -0.7179
  130MOL0     C17420   7.516   3.109   9.331  0.1068 -0.2314  0.3925
  130MOL0     C17421   7.650   3.096   9.314  0.1235  0.8859 -0.5912
  130MOL0     C17422   7.743   3.170   9.379 -0.0749  0.2232  0.6255
  130MOL0     O17423   7.874   3.142   9.354 -0.1836 -0.1630 -0.7206
  130MOL0     C17424   7.981   3.200   9.429 -0.4718 -1.1263 -0.0834
  130MOL0     C17425   8.112   3.151   9.375  0.3113  0.4475  0.5319
  130MOL0     C17426   8.236   3.163   9.471  0.0523 -0.2667  0.0831
  130MOL0     C17427   8.359   3.103   9.407  0.8771 -0.8998  0.4127
  130MOL0     C17428   8.345   2.957   9.411  0.4002  0.1835 -0.5704
  130MOL0     C17429   8.472   2.899   9.361 -0.3322 -0.1397  0.5337
  130MOL0     C17430   8.462   2.743   9.343  0.4774 -0.2368  0.1099
  130MOL0     C17431   8.465   2.700   9.196 -0.1814  0.1845 -0.5151
  130MOL0     N17432   8.592   2.738   9.141  0.2803  0.7658  0.3123
  130MOL0     C17433   8.721   2.700   9.187  0.0928  0.6462  0.3457
  130MOL0     C17434   8.803   2.773   9.117 -0.4620 -0.7476  0.4021
  130MOL0     C17435   8.960   2.766   9.107 -0.1415 -0.5785 -0.2593
  130MOL0     C17436   9.001   2.694   8.975 -0.6173 -0.5407 -0.1387
  130MOL0     C17437   9.135   2.639   9.001 -0.6653 -0.2785  0.0170
  130MOL0     C17438   9.202   2.593   8.881 -0.4635  0.1009  1.0027
  130MOL0     O17439   9.251   2.706   8.805 -0.0494  0.7576 -0.3043
  130MOL0     C17440   9.365   2.680   8.731  0.4052  0.0127 -0.3539
  130MOL0     C17441   9.472   2.626   8.794 -0.5352  1.1332  0.0171
  130MOL0     C17442   9.586   2.597   8.719 -0.9779  0.5659  0.3353
  130MOL0     C17443   9.585   2.611   8.583 -0.0613 -0.7579  0.3099
  130MOL0     C17444   9.698   2.571   8.498 -0.5255  0.3110  0.2538
  130MOL0     O17445   9.815   2.564   8.557 -0.2445  0.1466 -0.5529
  130MOL0     C17446   9.942   2.535   8.502 -0.5409  0.0942  0.4768
  130MOL0     C17447  10.045   2.472   8.574  0.4493  0.7534  0.1420
  130MOL0     C17448  10.175   2.448   8.531 -0.2256 -0.8701 -0.3884
  130MOL0     C17449  10.212   2.500   8.411  0.4330 -0.4647  0.6543
  130MOL0     O17450  10.339   2.508   8.348 -0.2757 -0.4015 -0.0957
  130MOL0     C17451  10.453   2.477   8.431  0.2914 -1.1600  0.5158
  130MOL0     C17452  10.567   2.438   8.337 -0.5843 -0.6667 -0.0461
  130MOL0     C17453  10.695   2.383   8.404  0.5012  0.4584  0.3525
  130MOL0     C17454  10.791   2.334   8.301 -0.3279 -0.6066 -0.3073
  130MOL0     C17455  10.936   2.302   8.350  0.0704  0.1245 -0.2959
  130MOL0     C17456  11.008   2.436   8.384 -0.4457 -0.6044  0.1736
  130MOL0     C17457  11.160   2.405   8.420  0.1529  0.9383  0.1886
  130MOL0     C17458  11.236   2.534   8.445 -0.3333 -0.0336 -0.6584
  130MOL0    Cl17459  11.371   2.494   8.552  0.1071  0.3799 -0.0367
  130MOL0     C17460  10.108   2.571   8.333 -0.1578  1.1751  0.0719
  130MOL0     C17461   9.976   2.577   8.372  0.2784  0.0114 -0.4638
  130MOL0     O17462   9.684   2.554   8.378 -0.4353 -0.2496 -0.1862
  130MOL0     C17463   9.466   2.654   8.522 -0.1567  0.0947 -0.0490
  130MOL0     C17464   9.356   2.694   8.595  0.0692 -0.7136  0.3812
  130MOL0     N17465   8.736   2.852   9.026  0.5157 -0.3629 -0.4303
  130MOL0     N17466   8.611   2.825   9.034  0.0691 -0.3071  0.6615
  130MOL0     C17467   7.701   3.274   9.464 -0.5579  0.0867  0.3754
  130MOL0     C17468   7.567   3.289   9.491  0.4192 -0.4367 -0.1279
  130MOL0     C17469   7.144   3.082   9.514  0.1508  0.1134  0.9686
  130MOL0     C17470   7.062   3.198   9.519  0.2996 -0.1528  0.9327
  130MOL0     C17471   6.922   3.194   9.529 -0.0671 -0.6339  0.5185
  130MOL0     C17472   6.855   3.071   9.529 -0.2810 -0.0567 -0.3705
  130MOL0     O17473   6.721   3.074   9.532  0.7019  0.1334 -0.0225
  130MOL0     C17474   6.654   2.944   9.559  0.3513 -1.1918 -0.5775
  130MOL0     C17475   6.510   2.965   9.599 -0.2854 -0.3969  0.2360
  130MOL0     C17476   6.421   3.024   9.484  0.2082  0.3208  0.2836
  130MOL0     C17477   6.396   2.933   9.366 -0.8039 -0.6802  0.1827
  130MOL0     C17478   6.295   2.834   9.408 -0.5393  0.1664  0.5852
  130MOL0     C17479   6.205   2.761   9.450 -0.6634 -0.3398  0.9910
  130MOL0     C17480   6.933   2.949   9.511 -0.8981 -0.1818 -0.2568
  130MOL0     C17481   7.078   2.957   9.506  0.7400 -0.5845  0.7615
  130MOL0     C17482   7.154   2.820   9.499  0.3372  0.0151  0.2269
  130MOL0     H17483   7.435   3.061   9.276 -1.4654  0.9084  1.6258
  130MOL0     H17484   7.671   3.014   9.246 -0.8764  0.6133 -0.5959
  130MOL0     H17485   7.989   3.308   9.416  0.0393 -1.0480  0.8712
  130MOL0     H17486   7.977   3.160   9.530  0.9257  1.5630  1.1295
  130MOL0     H17487   8.138   3.205   9.284  1.4633  0.1892  0.6810
  130MOL0     H17488   8.086   3.048   9.351 -1.7158  0.6451  1.6500
  130MOL0     H17489   8.222   3.109   9.565  2.3879 -1.4725 -0.1839
  130MOL0     H17490   8.243   3.271   9.482 -2.1749  0.2245 -2.2327
  130MOL0     H17491   8.376   3.129   9.302 -0.5381  1.4096  0.6893
  130MOL0     H17492   8.450   3.131   9.460  1.4821  0.6642 -1.3338
  130MOL0     H17493   8.315   2.922   9.511  1.2738 -1.4879 -0.8593
  130MOL0     H17494   8.270   2.930   9.337  0.4702 -0.3442 -0.4539
  130MOL0     H17495   8.509   2.946   9.270 -0.1216  0.3120  0.8478
  130MOL0     H17496   8.550   2.914   9.437 -1.5825 -0.2249  1.8878
  130MOL0     H17497   8.367   2.702   9.379  0.2796 -1.2081 -1.4108
  130MOL0     H17498   8.540   2.693   9.401  1.5510  0.0906 -1.0095
  130MOL0     H17499   8.454   2.591   9.198 -1.5419  0.3110  2.2747
  130MOL0     H17500   8.381   2.748   9.145 -1.3984  2.2158  3.0683
  130MOL0     H17501   8.748   2.625   9.261  0.1808 -1.8618 -2.0571
  130MOL0     H17502   9.001   2.867   9.113  2.0107 -1.4830  1.0243
  130MOL0     H17503   9.000   2.718   9.197 -0.3119  0.9083  0.6411
  130MOL0     H17504   8.923   2.619   8.963 -1.0104 -0.4109  1.4444
  130MOL0     H17505   9.008   2.756   8.885  1.2188 -2.4338 -1.4273
  130MOL0     H17506   9.131   2.558   9.074  0.0736 -1.3242 -1.0640
  130MOL0     H17507   9.190   2.726   9.039  1.2181 -1.2532 -0.3611
  130MOL0     H17508   9.128   2.540   8.820 -1.9270  3.1008 -0.0233
  130MOL0     H17509   9.278   2.528   8.926  0.0693 -1.3948 -1.7940
  130MOL0     H17510   9.474   2.608   8.901  3.3017  3.0014  0.4294
  130MOL0     H17511   9.676   2.559   8.766 -0.1963 -0.7558 -2.0292
  130MOL0     H17512  10.010   2.434   8.670 -2.4259 -0.1665 -1.1564
  130MOL0     H17513  10.256   2.397   8.581  0.9522 -1.5635 -2.8259
  130MOL0     H17514  10.485   2.566   8.486  1.2221 -0.8276 -0.5186
  130MOL0     H17515  10.429   2.389   8.491  0.5617 -2.1935 -0.8407
  130MOL0     H17516  10.536   2.361   8.267 -0.8588  1.5163 -2.4779
  130MOL0     H17517  10.588   2.526   8.274 -1.3267 -0.4740 -0.0297
  130MOL0     H17518  10.736   2.459   8.472 -2.4016  2.0094  0.5134
  130MOL0     H17519  10.663   2.299   8.466 -0.9266  1.5162  1.1116
  130MOL0     H17520  10.809   2.415   8.230 -2.0737  1.4754  1.5057
  130MOL0     H17521  10.769   2.242   8.245 -0.3424 -0.8736  0.1281
  130MOL0     H17522  11.009   2.256   8.283  1.4653 -0.5601  1.6130
  130MOL0     H17523  10.915   2.245   8.441 -2.0633 -0.1718 -0.9298
  130MOL0     H17524  11.020   2.502   8.298  1.3212 -1.1565 -0.0570
  130MOL0     H17525  10.966   2.485   8.472  0.3030 -0.0860  0.2550
  130MOL0     H17526  11.213   2.358   8.337 -1.5144  0.5217 -0.6954
  130MOL0     H17527  11.161   2.344   8.511 -2.4714  1.6551  0.7982
  130MOL0     H17528  11.284   2.576   8.356 -1.6520  2.4934 -0.2505
  130MOL0     H17529  11.164   2.604   8.487  0.1161 -1.2577  2.4931
  130MOL0     H17530  10.140   2.623   8.243  0.3407  0.5630 -0.1097
  130MOL0     H17531   9.911   2.642   8.314 -1.6273 -2.1726 -0.9308
  130MOL0     H17532   9.465   2.662   8.413 -0.3207 -3.5155 -0.4346
  130MOL0     H17533   9.259   2.732   8.564 -0.8472 -4.5614 -2.0193
  130MOL0     H17534   7.770   3.353   9.491 -1.1464  2.2461 -3.5800
  130MOL0     H17535   7.535   3.363   9.563 -1.7121 -0.4429 -0.9644
  130MOL0     H17536   7.111   3.295   9.514 -1.5270  0.7989 -2.7790
  130MOL0     H17537   6.856   3.278   9.509  1.8917  0.5430 -1.3706
  130MOL0     H17538   6.708   2.893   9.638 -1.7641 -0.8642  1.1856
  130MOL0     H17539   6.651   2.873   9.476 -3.9055 -2.3496  0.3069
  130MOL0     H17540   6.512   3.042   9.677  0.1159  2.6899 -2.5929
  130MOL0     H17541   6.469   2.871   9.635 -1.2582 -0.1087 -0.1037
  130MOL0     H17542   6.454   3.122   9.447  2.2073  0.9293  3.3243
  130MOL0     H17543   6.328   3.045   9.536  0.1990 -0.9360  0.7955
  130MOL0     H17544   6.354   2.993   9.284  0.6573 -0.6887 -0.5907
  130MOL0     H17545   6.490   2.894   9.326 -1.3894 -0.5227 -1.4605
  130MOL0     H17546   6.120   2.708   9.488 -2.1156  0.0766 -1.4629
  130MOL0     H17547   6.906   2.850   9.476  3.1195 -1.2154 -1.0180
  130MOL0     H17548   7.094   2.730   9.486  0.9989 -0.7488  2.1111
  130MOL0     H17549   7.218   2.828   9.410 -1.2030 -1.0028 -1.0158
  130MOL0     H17550   7.217   2.816   9.588  0.9954 -1.9861 -0.2689
  131MOL0     O17551   0.220   5.630   7.599 -0.2202  0.4020  0.7150
  131MOL0     C17552   0.290   5.620   7.493  0.1013 -0.1282 -0.6567
  131MOL0     O17553   0.423   5.607   7.489  0.1564  0.3833 -0.3629
  131MOL0     C17554   0.506   5.601   7.602 -0.0750 -0.1330  0.0505
  131MOL0     C17555   0.630   5.535   7.598 -0.4566  1.0881 -0.5547
  131MOL0     C17556   0.718   5.527   7.709  0.2597  0.0850 -0.1211
  131MOL0     C17557   0.675   5.596   7.825  0.0641 -0.2327 -0.8691
  131MOL0     O17558   0.755   5.618   7.932  0.4682 -0.5294  0.0068
  131MOL0     C17559   0.872   5.545   7.957  0.1679 -0.1689 -0.1835
  131MOL0     C17560   0.968   5.641   8.033  0.1195  0.3317 -0.3231
  131MOL0     C17561   1.108   5.567   8.051  0.3392 -0.1296  1.1999
  131MOL0     C17562   1.210   5.644   8.131 -0.2126 -0.0778 -0.5492
  131MOL0     C17563   1.299   5.543   8.188  0.1503 -0.3965 -0.3638
  131MOL0     C17564   1.421   5.623   8.257  0.6897 -0.4613  0.3687
  131MOL0     C17565   1.525   5.531   8.322  0.1380  1.4022 -0.2465
  131MOL0     C17566   1.463   5.408   8.389 -0.2633 -0.1348  0.9617
  131MOL0     N17567   1.565   5.333   8.455  0.7781  0.3161  0.8748
  131MOL0     C17568   1.590   5.347   8.588  0.1720 -0.1394  1.0502
  131MOL0     C17569   1.706   5.286   8.604  0.6050 -0.5883 -0.2925
  131MOL0     C17570   1.776   5.270   8.734 -0.1888 -0.0493  0.0618
  131MOL0     C17571   1.932   5.282   8.720  0.4311 -0.5897 -0.5050
  131MOL0     C17572   1.998   5.157   8.671  0.7331  0.7482 -0.4638
  131MOL0     C17573   2.147   5.148   8.675 -0.2215  0.3819  0.6137
  131MOL0     O17574   2.219   5.263   8.627 -0.1554  0.6641 -0.1797
  131MOL0     C17575   2.351   5.235   8.602  0.2220 -0.7226 -0.4770
  131MOL0     C17576   2.408   5.307   8.493  0.2716  0.3021  0.9480
  131MOL0     C17577   2.543   5.286   8.457  0.5600  0.3824 -0.8532
  131MOL0     C17578   2.620   5.182   8.516 -0.3007 -0.7752 -0.4436
  131MOL0     C17579   2.763   5.158   8.470  0.5736  0.3911 -0.2641
  131MOL0     O17580   2.811   5.234   8.374  0.1880 -0.4459 -0.1008
  131MOL0     C17581   2.941   5.217   8.349  0.1166 -0.0135 -0.7714
  131MOL0     C17582   2.973   5.133   8.249  0.2442  0.8310  1.2214
  131MOL0     C17583   3.103   5.120   8.216  0.1525  0.0483  0.1144
  131MOL0     C17584   3.208   5.181   8.286  1.0807 -0.1739  0.5085
  131MOL0     O17585   3.330   5.158   8.236 -0.0717 -0.0749 -0.6713
  131MOL0     C17586   3.443   5.142   8.327  0.5869  0.4322 -0.3939
  131MOL0     C17587   3.568   5.099   8.244  0.6398 -0.0737 -0.9667
  131MOL0     C17588   3.706   5.123   8.319 -0.2284 -0.4473 -0.0841
  131MOL0     C17589   3.824   5.107   8.228 -0.1764 -0.0448  0.3414
  131MOL0     C17590   3.883   4.967   8.221  0.4795  0.2456 -0.2777
  131MOL0     C17591   4.012   4.966   8.137 -0.3375  0.2282 -0.7499
  131MOL0     C17592   3.970   4.996   7.986 -0.4186 -0.0931 -0.5395
  131MOL0     C17593   4.082   4.957   7.882 -0.5162  0.1391 -0.4072
  131MOL0    Cl17594   4.212   5.088   7.911  0.1044 -0.1839  0.3086
  131MOL0     C17595   3.175   5.268   8.391 -0.1136  0.4445 -0.2335
  131MOL0     C17596   3.043   5.282   8.417  0.1422 -0.4171 -0.0386
  131MOL0     O17597   2.824   5.074   8.535 -0.3587  0.5065 -0.2290
  131MOL0     C17598   2.557   5.106   8.618 -0.9857  0.6360 -0.6111
  131MOL0     C17599   2.428   5.137   8.664  0.1285  0.0712  0.0390
  131MOL0     N17600   1.743   5.222   8.489  1.2012 -0.0781 -0.3179
  131MOL0     N17601   1.655   5.250   8.399  0.0508  0.3463  0.0673
  131MOL0     C17602   0.554   5.669   7.831  0.4378  0.2333 -0.3747
  131MOL0     C17603   0.473   5.673   7.717  0.2533 -0.3494 -0.3014
  131MOL0     C17604   0.222   5.603   7.357 -0.5991 -0.0424 -0.4346
  131MOL0     C17605   0.288   5.516   7.266  0.6775  0.9265  0.0228
  131MOL0     C17606   0.246   5.493   7.138  0.8764 -0.5708  0.1158
  131MOL0     C17607   0.121   5.542   7.099 -1.4191 -0.7540  0.0800
  131MOL0     O17608   0.072   5.490   6.980 -0.8025 -0.2497 -0.1780
  131MOL0     C17609  -0.047   5.551   6.928  0.2485 -0.0894  1.0194
  131MOL0     C17610  -0.058   5.524   6.782  0.3448  0.5131 -0.5642
  131MOL0     C17611  -0.205   5.513   6.740  0.3486 -0.0106 -0.4897
  131MOL0     C17612  -0.298   5.626   6.787  0.2819 -0.1470  0.5227
  131MOL0     C17613  -0.267   5.759   6.729  0.0337  1.0589  0.1723
  131MOL0     C17614  -0.223   5.851   6.654  0.2003  0.8252  0.3738
  131MOL0     C17615   0.054   5.629   7.195 -0.0824  0.1609 -0.5947
  131MOL0     C17616   0.105   5.660   7.320 -0.2167 -0.6966 -0.4494
  131MOL0     C17617   0.025   5.758   7.412  0.0740 -0.6322  0.3310
  131MOL0     H17618   0.636   5.466   7.514 -2.8271  0.4866 -0.2926
  131MOL0     H17619   0.820   5.492   7.696  0.0389 -1.0995  1.0615
  131MOL0     H17620   0.854   5.469   8.033  0.1780  1.1102  1.1395
  131MOL0     H17621   0.916   5.505   7.865 -0.4286  1.0875 -1.0413
  131MOL0     H17622   0.940   5.687   8.128  4.8341 -0.5198  1.7553
  131MOL0     H17623   0.980   5.725   7.963 -0.0921  0.5580 -0.0889
  131MOL0     H17624   1.145   5.553   7.949 -0.0675 -0.4891  1.0981
  131MOL0     H17625   1.091   5.470   8.099 -1.7710 -0.4817 -0.1316
  131MOL0     H17626   1.255   5.720   8.067 -1.4308  0.8914 -0.2950
  131MOL0     H17627   1.165   5.702   8.212  3.4453  3.4657 -0.7251
  131MOL0     H17628   1.244   5.486   8.263  0.3530  1.7129  1.4626
  131MOL0     H17629   1.335   5.472   8.113  1.2153 -1.1116  0.7871
  131MOL0     H17630   1.472   5.681   8.179 -2.0046  4.4536  1.8538
  131MOL0     H17631   1.374   5.695   8.323  0.4811  1.5840 -1.8570
  131MOL0     H17632   1.579   5.594   8.393 -4.0456  2.2912  2.4841
  131MOL0     H17633   1.597   5.505   8.243  0.6762  0.8881  0.4043
  131MOL0     H17634   1.380   5.435   8.456 -1.0891 -0.6165  0.1471
  131MOL0     H17635   1.424   5.342   8.312  0.2541 -2.1628  2.3329
  131MOL0     H17636   1.537   5.393   8.671 -2.1523 -1.8471  0.5971
  131MOL0     H17637   1.742   5.349   8.801  2.7891  1.2550  0.2150
  131MOL0     H17638   1.756   5.173   8.779  1.4519 -1.3146 -1.7376
  131MOL0     H17639   1.944   5.369   8.654 -0.2639 -0.3303 -0.2959
  131MOL0     H17640   1.972   5.305   8.820 -1.6915  1.1958  0.0281
  131MOL0     H17641   1.956   5.151   8.570 -0.6204 -3.3962  0.1620
  131MOL0     H17642   1.973   5.071   8.733  4.1552 -0.7943 -1.0351
  131MOL0     H17643   2.192   5.056   8.637 -1.1079  1.0090 -2.1472
  131MOL0     H17644   2.160   5.153   8.784  1.5443  2.0493  0.3837
  131MOL0     H17645   2.344   5.368   8.430  1.1203 -0.4678 -0.7516
  131MOL0     H17646   2.573   5.350   8.374 -0.7250  0.6724 -1.1107
  131MOL0     H17647   2.891   5.089   8.193  1.2942  2.3841 -1.7656
  131MOL0     H17648   3.129   5.063   8.127  0.1299 -2.9162  1.8485
  131MOL0     H17649   3.454   5.241   8.372 -0.3286  1.6238 -2.6018
  131MOL0     H17650   3.424   5.056   8.392 -0.2087 -0.7554 -2.1141
  131MOL0     H17651   3.560   4.992   8.225  1.2371 -1.2707  4.1505
  131MOL0     H17652   3.571   5.151   8.147 -0.6026  3.7496  0.8502
  131MOL0     H17653   3.709   5.229   8.346 -2.7478 -0.6112  1.1432
  131MOL0     H17654   3.699   5.057   8.406  1.7597 -0.9889 -0.2964
  131MOL0     H17655   3.899   5.175   8.270 -1.1768  0.5702  1.1670
  131MOL0     H17656   3.802   5.145   8.128 -1.0453  1.8644  1.2180
  131MOL0     H17657   3.807   4.902   8.177  1.2884 -2.2412  1.7326
  131MOL0     H17658   3.897   4.937   8.325  4.6536  1.2582 -0.3769
  131MOL0     H17659   4.086   5.039   8.170 -0.6861 -1.1964  3.7924
  131MOL0     H17660   4.055   4.866   8.148 -0.8287  0.2379  1.6294
  131MOL0     H17661   3.942   5.100   7.968 -0.3044 -0.2502 -1.7775
  131MOL0     H17662   3.883   4.934   7.962 -0.1038  0.2249 -2.7223
  131MOL0     H17663   4.119   4.859   7.914  0.6319  0.3961 -0.8680
  131MOL0     H17664   4.035   4.960   7.783 -1.8547  0.9039  0.2186
  131MOL0     H17665   3.261   5.323   8.429 -1.9097  2.3536  1.3010
  131MOL0     H17666   3.034   5.361   8.491 -0.3942 -0.9744  0.5036
  131MOL0     H17667   2.609   5.030   8.676  0.0982  1.3247 -0.6583
  131MOL0     H17668   2.382   5.082   8.746 -0.3999  0.7853  0.2377
  131MOL0     H17669   0.518   5.723   7.918 -0.3561 -0.9771  0.0652
  131MOL0     H17670   0.385   5.737   7.715  0.8656  0.6080  1.4094
  131MOL0     H17671   0.389   5.478   7.282  0.5885 -0.5979 -2.4429
  131MOL0     H17672   0.302   5.428   7.071  0.3113  1.8486 -2.9034
  131MOL0     H17673  -0.042   5.660   6.938  2.3917  0.0631 -0.8317
  131MOL0     H17674  -0.136   5.511   6.977 -0.2548 -0.1332  0.0856
  131MOL0     H17675  -0.013   5.427   6.758 -2.1071 -0.5478 -1.1340
  131MOL0     H17676  -0.009   5.604   6.724 -0.5578 -0.7531 -3.2455
  131MOL0     H17677  -0.242   5.423   6.791  0.9918 -0.0969 -0.1607
  131MOL0     H17678  -0.208   5.485   6.634 -1.7123 -3.6572  0.3657
  131MOL0     H17679  -0.395   5.584   6.760  0.3371  1.0162 -1.6975
  131MOL0     H17680  -0.309   5.641   6.894  0.9696  1.0168  0.4527
  131MOL0     H17681  -0.201   5.929   6.584 -1.4325  1.4069  0.4752
  131MOL0     H17682  -0.044   5.675   7.186 -1.3436 -1.5803  2.2919
  131MOL0     H17683   0.101   5.809   7.471 -1.2896 -0.6031  2.1468
  131MOL0     H17684  -0.029   5.830   7.350 -0.4641  0.2617  1.7771
  131MOL0     H17685  -0.047   5.701   7.472  1.4691 -0.8668  1.8470
  132MOL0     O17686   6.183   0.660   8.675 -0.2024  0.2640  0.3880
  132MOL0     C17687   6.131   0.548   8.692 -0.0526 -0.3952 -0.8122
  132MOL0     O17688   6.195   0.437   8.742  0.3340 -0.1847 -0.2891
  132MOL0     C17689   6.330   0.453   8.778  0.5460  0.6838 -0.2366
  132MOL0     C17690   6.364   0.470   8.915  0.3090 -0.2631 -0.5583
  132MOL0     C17691   6.494   0.489   8.945 -0.1121 -0.6094 -0.1948
  132MOL0     C17692   6.594   0.498   8.850 -0.3800  0.1753 -0.1353
  132MOL0     O17693   6.719   0.528   8.888 -0.3209 -0.4991  0.3993
  132MOL0     C17694   6.822   0.545   8.785  0.6196  0.1862  0.0951
  132MOL0     C17695   6.943   0.547   8.870  0.0844 -0.1566 -0.9749
  132MOL0     C17696   7.075   0.577   8.794 -0.1360 -0.8001  0.1106
  132MOL0     C17697   7.196   0.573   8.890  0.5280 -0.5320  0.1043
  132MOL0     C17698   7.311   0.665   8.858  0.0665 -0.2757  0.0601
  132MOL0     C17699   7.422   0.655   8.962  0.0750  0.1528  0.5854
  132MOL0     C17700   7.500   0.789   8.971 -0.1482  0.1383 -0.5681
  132MOL0     C17701   7.618   0.769   9.072 -0.2645  1.0420 -0.0572
  132MOL0     N17702   7.739   0.702   9.030 -0.5775  0.0465  0.4828
  132MOL0     C17703   7.761   0.563   9.041  0.0666 -0.1650  0.3352
  132MOL0     C17704   7.897   0.551   9.012  0.5136  0.1955 -0.3316
  132MOL0     C17705   7.963   0.421   9.009  0.0381  0.0204 -0.4100
  132MOL0     C17706   8.112   0.422   9.046  0.1987 -1.0554  0.7159
  132MOL0     C17707   8.167   0.281   9.026 -0.3562  0.3412  0.5171
  132MOL0     C17708   8.319   0.270   9.050 -0.0283  0.0056 -0.2477
  132MOL0     O17709   8.361   0.144   8.996 -0.2317  0.1145  0.2838
  132MOL0     C17710   8.495   0.125   8.963  0.8628  0.1213  0.0584
  132MOL0     C17711   8.523  -0.006   8.914  0.2223 -0.4045 -0.0678
  132MOL0     C17712   8.647  -0.049   8.874  0.6385 -0.3546  0.0594
  132MOL0     C17713   8.758   0.037   8.888 -0.1794  0.0516  0.5438
  132MOL0     C17714   8.886  -0.016   8.839 -0.6341  0.7055 -0.2478
  132MOL0     O17715   8.896  -0.149   8.791  0.0246 -0.2570 -0.2140
  132MOL0     C17716   9.017  -0.213   8.777 -0.5797  0.0248  0.0702
  132MOL0     C17717   9.013  -0.335   8.707 -0.4961 -0.1458 -0.7858
  132MOL0     C17718   9.118  -0.422   8.717  0.5475  0.9944  0.0861
  132MOL0     C17719   9.237  -0.387   8.787 -0.7731  0.0606 -0.1559
  132MOL0     O17720   9.350  -0.468   8.773 -0.5892  0.8901  0.1216
  132MOL0     C17721   9.409  -0.466   8.636  0.4387  0.3644  0.3623
  132MOL0     C17722   9.551  -0.529   8.638 -0.5132 -0.2940  0.0462
  132MOL0     C17723   9.639  -0.422   8.703  0.2801 -0.0740 -0.2836
  132MOL0     C17724   9.772  -0.494   8.734  0.1246 -1.0412  0.4518
  132MOL0     C17725   9.867  -0.379   8.770  0.1925  0.1130 -0.2558
  132MOL0     C17726  10.012  -0.431   8.801 -0.0964 -0.3425  0.6388
  132MOL0     C17727  10.106  -0.319   8.839 -0.0196  0.2814 -0.1200
  132MOL0     C17728  10.246  -0.359   8.880  0.3475  0.4611 -0.5127
  132MOL0    Cl17729  10.337  -0.440   8.757  0.0224  0.2374  0.1810
  132MOL0     C17730   9.247  -0.266   8.853  0.2297  0.2989 -0.2504
  132MOL0     C17731   9.132  -0.183   8.846 -0.2133  0.6721 -0.3589
  132MOL0     O17732   8.981   0.064   8.849  0.0546  0.8757  0.4044
  132MOL0     C17733   8.733   0.164   8.951  0.6486  0.5874  0.7396
  132MOL0     C17734   8.607   0.210   8.982 -0.0054 -0.3236  0.0531
  132MOL0     N17735   7.950   0.677   8.981 -0.1465 -0.8160 -0.1766
  132MOL0     N17736   7.850   0.761   8.974  0.6398  0.3978  0.0327
  132MOL0     C17737   6.557   0.477   8.714 -0.2402 -0.3601 -0.3290
  132MOL0     C17738   6.425   0.466   8.680 -0.0724  0.0813 -0.3304
  132MOL0     C17739   5.998   0.526   8.637  0.0270  0.4308  0.1221
  132MOL0     C17740   5.959   0.606   8.527 -0.7561 -0.0929  0.1559
  132MOL0     C17741   5.833   0.571   8.472  0.2975 -0.1188  0.1622
  132MOL0     C17742   5.753   0.475   8.528 -0.3928 -0.2141 -0.7043
  132MOL0     O17743   5.628   0.445   8.492 -0.0433 -0.2149  0.4731
  132MOL0     C17744   5.595   0.453   8.352  0.3450  0.4381  0.3299
  132MOL0     C17745   5.521   0.573   8.307 -0.9360  0.2960  0.1678
  132MOL0     C17746   5.374   0.573   8.340 -0.3712  0.2342  0.2439
  132MOL0     C17747   5.303   0.713   8.306  0.0081 -0.2305 -0.6524
  132MOL0     C17748   5.361   0.827   8.386 -0.2915  1.0606  0.3640
  132MOL0     C17749   5.413   0.919   8.448  0.1995 -0.6438  0.2745
  132MOL0     C17750   5.786   0.404   8.647  0.7093 -0.0321  0.3245
  132MOL0     C17751   5.908   0.438   8.696 -0.1506  0.8933  0.4513
  132MOL0     C17752   5.943   0.376   8.829 -0.3528  0.2829  0.4962
  132MOL0     H17753   6.295   0.454   8.997 -1.9185 -0.7445 -2.4336
  132MOL0     H17754   6.522   0.519   9.046 -2.0572  0.8668 -0.0316
  132MOL0     H17755   6.831   0.458   8.719 -4.2813  1.6042 -2.9598
  132MOL0     H17756   6.802   0.635   8.726 -1.8173 -0.1522  0.2991
  132MOL0     H17757   6.941   0.455   8.929  1.8262  0.8377  0.7979
  132MOL0     H17758   6.924   0.627   8.942  1.3518 -0.6586 -0.0450
  132MOL0     H17759   7.056   0.673   8.744 -1.7727 -2.3566 -2.5637
  132MOL0     H17760   7.107   0.501   8.721  2.3665 -0.5299  0.8632
  132MOL0     H17761   7.155   0.588   8.990 -1.6805 -0.9939 -0.6573
  132MOL0     H17762   7.236   0.472   8.880 -0.0342 -0.8464  0.9249
  132MOL0     H17763   7.348   0.641   8.757  1.3638  0.2014  0.4003
  132MOL0     H17764   7.269   0.766   8.853  4.4044  1.6913 -2.7816
  132MOL0     H17765   7.371   0.635   9.056 -1.4995 -0.2472 -0.3176
  132MOL0     H17766   7.492   0.575   8.936  0.0210  0.6191 -1.1189
  132MOL0     H17767   7.443   0.875   9.007 -1.5722 -1.2012  0.5305
  132MOL0     H17768   7.554   0.815   8.879  0.1849 -2.2189 -1.0995
  132MOL0     H17769   7.658   0.865   9.107  1.4319  0.5991 -0.6795
  132MOL0     H17770   7.580   0.714   9.159 -0.1015  2.9889  1.3315
  132MOL0     H17771   7.692   0.492   9.085 -2.3928  1.0507 -1.3764
  132MOL0     H17772   7.906   0.358   9.078 -0.0643 -0.4383 -0.9068
  132MOL0     H17773   7.943   0.372   8.913  2.2778 -1.5497 -0.1561
  132MOL0     H17774   8.162   0.496   8.983 -0.4106 -0.6397  0.7012
  132MOL0     H17775   8.137   0.459   9.146 -1.0821  1.2361  0.2712
  132MOL0     H17776   8.151   0.253   8.921 -2.8687  2.5970  0.1946
  132MOL0     H17777   8.110   0.214   9.091 -1.4136 -0.5416 -1.2460
  132MOL0     H17778   8.351   0.273   9.155  2.6857 -1.0718 -0.9527
  132MOL0     H17779   8.368   0.355   9.001  4.3596 -1.9933  0.1537
  132MOL0     H17780   8.440  -0.075   8.912  1.7614 -2.3863  1.0575
  132MOL0     H17781   8.648  -0.148   8.829  0.7169 -0.8126  1.0411
  132MOL0     H17782   8.925  -0.359   8.648  0.0492 -1.9125 -0.9202
  132MOL0     H17783   9.118  -0.518   8.666  0.6667  0.3070  1.3282
  132MOL0     H17784   9.345  -0.524   8.569  0.9549  1.2992 -0.9766
  132MOL0     H17785   9.413  -0.363   8.599  1.0260  1.0284  2.1448
  132MOL0     H17786   9.559  -0.628   8.683 -0.9735 -0.2640  0.1987
  132MOL0     H17787   9.586  -0.532   8.535 -1.1048  0.2169 -0.1825
  132MOL0     H17788   9.656  -0.330   8.645  3.3261  1.4820  2.7193
  132MOL0     H17789   9.602  -0.377   8.796  2.6929 -1.0321  1.2384
  132MOL0     H17790   9.808  -0.548   8.645  0.6010  0.1286 -0.0923
  132MOL0     H17791   9.777  -0.563   8.818  2.8128 -0.9178  0.4978
  132MOL0     H17792   9.833  -0.337   8.865  0.7003  0.9119 -0.4228
  132MOL0     H17793   9.872  -0.293   8.703  1.2275  2.6234  2.8051
  132MOL0     H17794  10.007  -0.501   8.885  2.2122 -1.4517 -0.0519
  132MOL0     H17795  10.059  -0.481   8.715 -1.3425  1.9783 -1.5281
  132MOL0     H17796  10.068  -0.275   8.931 -0.2289 -2.3606  1.1340
  132MOL0     H17797  10.118  -0.258   8.749  1.6259 -1.5795 -1.2334
  132MOL0     H17798  10.286  -0.259   8.895 -2.1863  1.6830 -1.3474
  132MOL0     H17799  10.245  -0.416   8.973  1.4766  0.8387 -0.2549
  132MOL0     H17800   9.335  -0.229   8.904  1.1841 -0.6742 -1.1284
  132MOL0     H17801   9.144  -0.097   8.912  3.0256  0.5773 -0.6472
  132MOL0     H17802   8.821   0.226   8.966  0.4127  1.4776 -1.2425
  132MOL0     H17803   8.591   0.312   9.017 -0.2042  0.9812 -3.4721
  132MOL0     H17804   6.624   0.475   8.629 -2.4818 -0.5563 -2.1600
  132MOL0     H17805   6.394   0.457   8.577  0.5027 -0.3072 -0.4740
  132MOL0     H17806   6.010   0.681   8.467  0.3449 -0.2080  0.8997
  132MOL0     H17807   5.803   0.635   8.389  1.2828 -0.2502 -0.3045
  132MOL0     H17808   5.531   0.368   8.327 -0.1552  0.8836  0.0683
  132MOL0     H17809   5.683   0.439   8.288  1.0686  1.0599  1.1635
  132MOL0     H17810   5.529   0.570   8.198  0.5707  1.1881  0.2161
  132MOL0     H17811   5.567   0.663   8.351 -0.0451 -0.0905  0.0490
  132MOL0     H17812   5.362   0.552   8.447 -0.3247  0.7023  0.3419
  132MOL0     H17813   5.315   0.499   8.285 -0.5887  0.5069  0.1071
  132MOL0     H17814   5.311   0.734   8.199 -4.3175 -0.7026 -1.2253
  132MOL0     H17815   5.199   0.693   8.334  0.0715 -1.5680 -1.2830
  132MOL0     H17816   5.476   0.994   8.491  0.8481 -1.0351  0.0234
  132MOL0     H17817   5.716   0.333   8.689 -0.3352 -1.2526 -3.1237
  132MOL0     H17818   6.006   0.443   8.888  2.1433 -0.6199 -0.9920
  132MOL0     H17819   5.854   0.353   8.889 -0.8047  0.9034  0.0702
  132MOL0     H17820   6.015   0.294   8.826 -0.0216  0.5829 -1.8075
  133MOL0     O17821   1.292   1.703   5.929  0.0543 -0.7876 -0.1142
  133MOL0     C17822   1.355   1.760   5.840  0.3157 -0.0264 -0.1441
  133MOL0     O17823   1.486   1.745   5.814  1.1082  0.0870  0.3237
  133MOL0     C17824   1.576   1.669   5.891 -0.6702  0.4509 -1.0165
  133MOL0     C17825   1.709   1.704   5.874  0.0594  0.1014  0.0693
  133MOL0     C17826   1.813   1.635   5.945  0.1589  0.7630  0.3024
  133MOL0     C17827   1.786   1.524   6.024  0.0645 -0.3568 -0.8251
  133MOL0     O17828   1.880   1.445   6.084 -0.2487 -0.0262  0.8385
  133MOL0     C17829   2.008   1.509   6.100 -0.4483  0.6271  0.7540
  133MOL0     C17830   2.067   1.428   6.220  0.2216 -0.5693 -0.0062
  133MOL0     C17831   2.215   1.409   6.214 -0.1945  0.9929 -0.1877
  133MOL0     C17832   2.267   1.298   6.299  0.5524 -0.0072  0.1330
  133MOL0     C17833   2.422   1.317   6.294  1.1078 -0.0067 -0.1525
  133MOL0     C17834   2.496   1.186   6.339  0.5253 -0.4731 -0.0677
  133MOL0     C17835   2.643   1.203   6.294 -0.4257 -0.4372  0.5869
  133MOL0     C17836   2.707   1.064   6.304  1.3323  0.4862  0.3372
  133MOL0     N17837   2.846   1.065   6.260  0.3761 -0.5688 -0.4500
  133MOL0     C17838   2.882   0.998   6.152 -0.1211  0.2351 -0.2013
  133MOL0     C17839   3.017   0.996   6.150  0.2585  0.3789 -0.1858
  133MOL0     C17840   3.092   0.921   6.037 -0.4091 -0.4439 -0.0825
  133MOL0     C17841   3.246   0.907   6.083 -0.8428  0.0806 -0.3034
  133MOL0     C17842   3.324   0.842   5.967  0.3079 -0.0275 -0.5499
  133MOL0     C17843   3.471   0.821   5.998  0.2150 -0.5651 -0.5306
  133MOL0     O17844   3.536   0.948   6.020  0.3657 -0.7804 -0.7803
  133MOL0     C17845   3.667   0.949   6.068 -0.1580 -0.4918  0.4572
  133MOL0     C17846   3.743   0.829   6.070 -0.2280  0.4042  0.5123
  133MOL0     C17847   3.876   0.830   6.101 -0.5787 -0.2481 -0.2637
  133MOL0     C17848   3.946   0.953   6.138 -0.3359 -0.4374 -1.2534
  133MOL0     C17849   4.094   0.958   6.166  0.4018 -0.0811  0.8469
  133MOL0     O17850   4.168   0.869   6.109 -0.1122  0.5718 -0.5407
  133MOL0     C17851   4.302   0.860   6.148  0.2324 -0.2939  0.0577
  133MOL0     C17852   4.351   0.857   6.283  0.0160  0.3656  0.2691
  133MOL0     C17853   4.489   0.871   6.311  1.0469 -0.8722 -0.0382
  133MOL0     C17854   4.584   0.888   6.209 -0.2489  0.5078  0.0317
  133MOL0     O17855   4.712   0.906   6.258 -0.2284  0.2248 -0.1956
  133MOL0     C17856   4.828   0.896   6.174  0.7798 -0.5787 -0.2799
  133MOL0     C17857   4.945   0.919   6.266 -0.3636 -0.8724  0.1010
  133MOL0     C17858   5.078   0.896   6.194  0.8914 -0.8930  0.1187
  133MOL0     C17859   5.189   0.963   6.275 -0.4106 -0.7300  0.5280
  133MOL0     C17860   5.320   0.945   6.202  0.6029  0.5680 -0.7064
  133MOL0     C17861   5.429   0.990   6.297 -0.0635 -0.7964  0.4168
  133MOL0     C17862   5.568   0.976   6.229 -0.0795  0.0639 -0.3027
  133MOL0     C17863   5.664   1.050   6.319  0.5358 -0.3900 -0.3001
  133MOL0    Cl17864   5.823   0.989   6.283 -0.6667 -0.2251 -0.5073
  133MOL0     C17865   4.543   0.890   6.073  0.2514 -0.9929  0.1305
  133MOL0     C17866   4.404   0.878   6.051  0.2337 -0.9312  0.3769
  133MOL0     O17867   4.136   1.059   6.219 -0.3275  0.7083 -0.1065
  133MOL0     C17868   3.870   1.067   6.148  0.2330  0.0546  0.1488
  133MOL0     C17869   3.729   1.064   6.117  0.1552  0.7726 -0.8566
  133MOL0     N17870   3.063   1.056   6.266 -0.8396  0.0355  0.4210
  133MOL0     N17871   2.959   1.100   6.329  0.8970 -0.2489  0.9087
  133MOL0     C17872   1.653   1.482   6.037 -0.0890  0.4791  0.3401
  133MOL0     C17873   1.553   1.562   5.985  0.6980  0.0144 -0.1231
  133MOL0     C17874   1.288   1.870   5.764 -0.1465  0.4889  0.1317
  133MOL0     C17875   1.362   1.950   5.681  0.0985 -0.4253  0.1596
  133MOL0     C17876   1.313   2.066   5.618  0.1408  0.0493 -0.0855
  133MOL0     C17877   1.174   2.100   5.627  0.4209 -0.4036  0.6806
  133MOL0     O17878   1.134   2.214   5.561 -0.7377 -0.3504  0.1055
  133MOL0     C17879   1.038   2.299   5.628 -0.4413 -0.4119 -0.1287
  133MOL0     C17880   1.035   2.442   5.571 -0.3465  0.4189  0.8033
  133MOL0     C17881   0.991   2.460   5.421  0.9138  0.7301  0.1034
  133MOL0     C17882   0.983   2.605   5.380  0.6193 -0.1540  0.4090
  133MOL0     C17883   0.856   2.669   5.404  0.0456 -0.1935 -0.2397
  133MOL0     C17884   0.754   2.721   5.443  0.0976  0.2040  0.7401
  133MOL0     C17885   1.095   2.017   5.701  0.2804  0.9380  0.2008
  133MOL0     C17886   1.150   1.899   5.761  0.0687 -0.1237 -0.5637
  133MOL0     C17887   1.050   1.816   5.826  0.1362  0.0043 -0.2397
  133MOL0     H17888   1.726   1.778   5.796 -2.4817 -0.0697 -0.7141
  133MOL0     H17889   1.911   1.676   5.922 -0.2170  2.1852  1.1494
  133MOL0     H17890   2.078   1.485   6.020  1.3316 -1.3430  2.7257
  133MOL0     H17891   2.011   1.618   6.110  1.4010  0.8294 -1.2656
  133MOL0     H17892   2.029   1.326   6.213 -0.6141 -0.1663 -2.1944
  133MOL0     H17893   2.029   1.485   6.306  0.9673  2.4085 -1.5017
  133MOL0     H17894   2.262   1.499   6.256  2.9223 -0.5509 -0.0941
  133MOL0     H17895   2.252   1.388   6.114  0.2262 -2.4483  0.5508
  133MOL0     H17896   2.211   1.305   6.393 -0.0705  1.1335 -0.3013
  133MOL0     H17897   2.239   1.203   6.254 -1.1749  1.1372 -1.3888
  133MOL0     H17898   2.449   1.329   6.188 -0.8923 -2.4593 -1.0379
  133MOL0     H17899   2.459   1.403   6.351  1.3395  0.6216 -1.2186
  133MOL0     H17900   2.483   1.162   6.445  2.4737  2.8629  1.1153
  133MOL0     H17901   2.455   1.106   6.278  1.0473 -0.2578 -0.7158
  133MOL0     H17902   2.697   1.277   6.354 -1.5194  0.5502  0.3767
  133MOL0     H17903   2.655   1.229   6.188  0.4901 -0.0352  0.7764
  133MOL0     H17904   2.702   1.012   6.400  1.7294 -1.8387 -0.8496
  133MOL0     H17905   2.659   1.004   6.226  2.9790  1.0788 -1.1907
  133MOL0     H17906   2.811   0.941   6.093  0.6897  1.0895 -2.0579
  133MOL0     H17907   3.048   0.822   6.022  0.5646 -0.6389 -2.0679
  133MOL0     H17908   3.087   0.978   5.944  4.0003  4.1706  2.0547
  133MOL0     H17909   3.289   1.003   6.113  0.4201 -1.1786  2.2085
  133MOL0     H17910   3.253   0.846   6.173  2.8690 -0.8237 -1.0574
  133MOL0     H17911   3.313   0.903   5.877  1.0317  2.3812  0.9036
  133MOL0     H17912   3.289   0.739   5.959  1.8244 -0.6885  0.7103
  133MOL0     H17913   3.521   0.776   5.912 -0.5926 -1.3194 -0.6274
  133MOL0     H17914   3.477   0.752   6.083  2.8228 -0.2243 -0.3757
  133MOL0     H17915   3.704   0.728   6.064 -0.5775  0.4728  1.4434
  133MOL0     H17916   3.943   0.745   6.090 -1.6649 -1.0494 -0.9143
  133MOL0     H17917   4.273   0.830   6.353 -1.7340  1.2950 -1.2277
  133MOL0     H17918   4.525   0.858   6.413 -1.2875 -0.3445  0.9145
  133MOL0     H17919   4.833   0.794   6.134 -1.5562 -0.8348 -0.0989
  133MOL0     H17920   4.835   0.968   6.092 -1.9905 -0.1746 -0.2538
  133MOL0     H17921   4.931   1.023   6.297 -2.6977 -0.7113 -1.2558
  133MOL0     H17922   4.928   0.851   6.349 -0.3863  1.2526  1.9212
  133MOL0     H17923   5.101   0.789   6.185  0.6383 -1.1301  1.9570
  133MOL0     H17924   5.075   0.946   6.096 -1.2226  1.1316  1.1214
  133MOL0     H17925   5.193   0.922   6.376  4.1217  2.1933  1.8565
  133MOL0     H17926   5.177   1.071   6.286  0.4513 -0.5029 -0.5306
  133MOL0     H17927   5.317   0.988   6.101  1.9377 -0.4221 -1.1980
  133MOL0     H17928   5.325   0.838   6.178 -1.9840  0.6273 -1.9096
  133MOL0     H17929   5.401   1.091   6.326  2.6306  0.2917 -0.4901
  133MOL0     H17930   5.429   0.924   6.385 -2.2382 -0.3913  0.7658
  133MOL0     H17931   5.564   1.014   6.126  0.2758 -0.5009 -0.5304
  133MOL0     H17932   5.601   0.872   6.224  0.3550  0.2037 -4.7697
  133MOL0     H17933   5.665   1.159   6.313  0.0004 -0.4217 -1.2099
  133MOL0     H17934   5.645   1.024   6.423  1.0627 -0.3160 -0.1876
  133MOL0     H17935   4.618   0.898   5.995 -1.6980 -3.2449 -2.1909
  133MOL0     H17936   4.378   0.870   5.946  1.0982  1.4864 -0.0839
  133MOL0     H17937   3.905   1.169   6.162 -3.0467  1.0608  2.3389
  133MOL0     H17938   3.692   1.166   6.117  0.1924  0.8148  0.7214
  133MOL0     H17939   1.634   1.393   6.096 -1.6303  1.4640  1.3937
  133MOL0     H17940   1.450   1.539   6.010  0.2049  1.8902 -0.3143
  133MOL0     H17941   1.467   1.933   5.661 -0.0186 -3.5069  1.6535
  133MOL0     H17942   1.373   2.127   5.551  1.9960 -3.0277 -1.4072
  133MOL0     H17943   1.070   2.299   5.733 -0.8020 -2.8031  0.0390
  133MOL0     H17944   0.935   2.263   5.635 -0.8132 -0.0477 -2.6731
  133MOL0     H17945   1.133   2.489   5.580 -0.5960  0.8789  1.1576
  133MOL0     H17946   0.957   2.489   5.631 -1.7007  0.7648 -1.1196
  133MOL0     H17947   0.896   2.411   5.401  2.4912 -1.8534 -1.7111
  133MOL0     H17948   1.066   2.409   5.359  0.3140 -1.3541  1.0103
  133MOL0     H17949   1.059   2.670   5.423  1.4685  1.0921 -2.7149
  133MOL0     H17950   0.994   2.613   5.271 -0.8397 -1.2995  0.1422
  133MOL0     H17951   0.661   2.765   5.474 -1.9945 -2.1204 -1.7104
  133MOL0     H17952   0.990   2.044   5.707  0.1083  0.2749  0.2829
  133MOL0     H17953   1.043   1.844   5.931 -0.0948  1.9900 -0.7561
  133MOL0     H17954   0.953   1.821   5.776 -0.2171 -0.1281  0.4153
  133MOL0     H17955   1.089   1.714   5.816  0.4033  0.0664  0.1462
  134MOL0     O17956   4.173  11.078   7.679 -0.2290 -0.4874 -0.3587
  134MOL0     C17957   4.187  11.174   7.601 -0.2221 -0.4922 -0.2619
  134MOL0     O17958   4.309  11.231   7.552 -0.6871  0.0409  0.4735
  134MOL0     C17959   4.425  11.167   7.600 -0.3119 -0.2324 -0.1963
  134MOL0     C17960   4.523  11.114   7.515  0.5436  0.5571 -0.3827
  134MOL0     C17961   4.641  11.055   7.562 -0.4206  0.3193  0.2303
  134MOL0     C17962   4.657  11.043   7.706 -0.0638  0.6614  0.4493
  134MOL0     O17963   4.751  10.980   7.776  0.2804 -0.4724  0.4248
  134MOL0     C17964   4.874  10.952   7.697  0.4383 -0.5228  0.6537
  134MOL0     C17965   4.994  10.899   7.777 -0.3301  0.5190 -0.0404
  134MOL0     C17966   5.052  10.997   7.888 -0.0542 -0.1121  0.4922
  134MOL0     C17967   5.142  10.919   7.983  0.0118  0.6354  0.6452
  134MOL0     C17968   5.198  10.992   8.108 -0.0530  0.0717  0.7066
  134MOL0     C17969   5.274  11.113   8.068  0.1739 -0.0708 -0.4223
  134MOL0     C17970   5.386  11.098   7.965 -0.9434  0.0961 -0.8077
  134MOL0     C17971   5.497  11.221   7.973 -0.0137 -0.0629  0.3481
  134MOL0     N17972   5.544  11.251   8.110  0.0831 -0.0698  0.2458
  134MOL0     C17973   5.607  11.171   8.198 -0.0216  0.6623  0.0250
  134MOL0     C17974   5.625  11.245   8.309  0.5053 -0.6677 -0.5538
  134MOL0     C17975   5.674  11.191   8.438 -0.0491 -0.1861  0.3975
  134MOL0     C17976   5.823  11.201   8.457  0.3332 -0.2086  0.6113
  134MOL0     C17977   5.875  11.344   8.478  0.0418  0.1390 -0.2556
  134MOL0     C17978   6.024  11.357   8.524  1.0857 -0.8581  0.1022
  134MOL0     O17979   6.059  11.284   8.646  0.1784  0.1151  0.5292
  134MOL0     C17980   6.170  11.322   8.710 -0.3402  0.9543  0.4137
  134MOL0     C17981   6.178  11.365   8.847 -0.0254  0.5011  0.4482
  134MOL0     C17982   6.301  11.401   8.907 -0.0580 -0.1890 -1.2172
  134MOL0     C17983   6.421  11.408   8.833 -0.3616 -0.1389  0.2234
  134MOL0     C17984   6.552  11.446   8.898  0.5725 -0.7175  0.3999
  134MOL0     O17985   6.662  11.445   8.810 -0.3670  0.0754 -0.0225
  134MOL0     C17986   6.797  11.457   8.856  0.3017  0.0842  0.4249
  134MOL0     C17987   6.890  11.480   8.753  0.8616 -0.6481  0.3414
  134MOL0     C17988   7.020  11.494   8.779 -0.2427 -0.2999 -0.9325
  134MOL0     C17989   7.071  11.472   8.912 -0.0857  0.1491  0.1353
  134MOL0     O17990   7.210  11.487   8.922 -0.1400  0.1643 -0.6212
  134MOL0     C17991   7.271  11.444   9.049  0.5197 -0.0222  0.2053
  134MOL0     C17992   7.421  11.456   9.049  0.4528 -0.1499  0.1434
  134MOL0     C17993   7.482  11.428   9.186  0.2945 -0.1408  0.4308
  134MOL0     C17994   7.631  11.461   9.185 -0.5467  0.2036 -0.0109
  134MOL0     C17995   7.688  11.447   9.328 -0.2597 -0.2080  0.0918
  134MOL0     C17996   7.829  11.507   9.333  0.9092  0.7576  0.1062
  134MOL0     C17997   7.898  11.490   9.464  0.0871 -0.0254  0.2846
  134MOL0     C17998   8.038  11.577   9.468  0.3251  0.0641  0.1986
  134MOL0    Cl17999   8.181  11.494   9.384  0.0679  0.1250 -0.3163
  134MOL0     C18000   6.978  11.447   9.011 -0.2080 -0.4287 -0.1642
  134MOL0     C18001   6.842  11.437   8.990  0.3350  0.1456  0.5246
  134MOL0     O18002   6.556  11.477   9.019 -0.6538  0.5351  0.5403
  134MOL0     C18003   6.409  11.366   8.700  0.4058  0.3837  0.1030
  134MOL0     C18004   6.291  11.322   8.641 -0.2763  0.1944 -0.5668
  134MOL0     N18005   5.566  11.366   8.293  0.4338  0.9879 -0.0387
  134MOL0     N18006   5.517  11.372   8.172 -0.7391  0.0344  0.4251
  134MOL0     C18007   4.562  11.097   7.791  0.2133  1.4160 -0.6394
  134MOL0     C18008   4.448  11.163   7.743 -0.3213  0.3015 -0.4460
  134MOL0     C18009   4.058  11.241   7.571  1.0631 -0.3397  0.0020
  134MOL0     C18010   3.932  11.182   7.548 -0.4078  0.5404 -0.1705
  134MOL0     C18011   3.816  11.241   7.506 -0.2767 -0.2242  0.6479
  134MOL0     C18012   3.816  11.380   7.493  0.2357  0.3344  0.7780
  134MOL0     O18013   3.692  11.438   7.460  0.0030  0.1288 -0.1052
  134MOL0     C18014   3.669  11.578   7.492 -0.6918  0.8093 -0.1710
  134MOL0     C18015   3.647  11.604   7.635 -0.0180  0.3401 -0.4972
  134MOL0     C18016   3.538  11.512   7.702 -0.0046 -0.7647  0.7733
  134MOL0     C18017   3.400  11.511   7.629  0.3970  0.4478 -0.3028
  134MOL0     C18018   3.352  11.643   7.598 -0.2229 -1.2506 -0.3410
  134MOL0     C18019   3.312  11.751   7.570 -0.4912 -0.8684  0.0101
  134MOL0     C18020   3.941  11.450   7.515  0.9788 -0.2152 -0.2126
  134MOL0     C18021   4.055  11.385   7.553 -0.3814  0.1305  0.0176
  134MOL0     C18022   4.173  11.477   7.569 -0.5255 -0.1857 -0.5270
  134MOL0     H18023   4.504  11.117   7.408  0.9844  1.3572 -0.4463
  134MOL0     H18024   4.712  11.005   7.497  0.4607  0.3052  1.1868
  134MOL0     H18025   4.852  10.882   7.617 -2.3555  1.1049 -0.1412
  134MOL0     H18026   4.907  11.041   7.643  0.4896 -2.2306 -2.3253
  134MOL0     H18027   5.073  10.860   7.713 -1.7640  0.3055 -1.7528
  134MOL0     H18028   4.955  10.816   7.838 -1.0688  2.5811  2.4769
  134MOL0     H18029   4.966  11.023   7.950 -0.1501  0.5788  0.0780
  134MOL0     H18030   5.106  11.081   7.843  2.2819 -2.3708 -1.1953
  134MOL0     H18031   5.093  10.831   8.026  2.0821 -0.0214  1.8022
  134MOL0     H18032   5.230  10.882   7.929 -0.5595 -0.0155  0.1428
  134MOL0     H18033   5.115  11.018   8.175 -0.3150  0.5509  0.2054
  134MOL0     H18034   5.267  10.924   8.159  1.9318 -0.0305 -1.8979
  134MOL0     H18035   5.213  11.199   8.039  3.0970  2.4710  0.3492
  134MOL0     H18036   5.325  11.145   8.160 -1.4439  1.3928  0.0096
  134MOL0     H18037   5.340  11.102   7.866  3.3679  0.7937 -3.0697
  134MOL0     H18038   5.436  11.001   7.973 -1.4969 -0.1778 -0.6782
  134MOL0     H18039   5.586  11.204   7.912 -0.3400 -0.5167 -0.0051
  134MOL0     H18040   5.456  11.309   7.921  2.3050 -0.4488 -2.3617
  134MOL0     H18041   5.624  11.066   8.176 -0.6805  0.3129  1.0876
  134MOL0     H18042   5.624  11.253   8.513 -1.3752  2.1795 -2.2647
  134MOL0     H18043   5.645  11.088   8.461  2.1602 -0.6517  1.3721
  134MOL0     H18044   5.855  11.135   8.537  0.3841 -1.4187 -0.3741
  134MOL0     H18045   5.875  11.158   8.371  1.2950  0.2678  0.9372
  134MOL0     H18046   5.823  11.403   8.553 -2.7654 -2.7291  0.2807
  134MOL0     H18047   5.864  11.395   8.382  0.8625 -0.4271 -0.6686
  134MOL0     H18048   6.052  11.461   8.542  1.6475 -0.8297 -0.8548
  134MOL0     H18049   6.085  11.316   8.443  1.4811 -3.4270  1.6117
  134MOL0     H18050   6.088  11.370   8.908 -2.3236 -0.0772 -2.6136
  134MOL0     H18051   6.287  11.427   9.011 -0.2102  1.8350 -1.6972
  134MOL0     H18052   6.856  11.479   8.650 -2.1767 -1.0786  1.2341
  134MOL0     H18053   7.102  11.511   8.709  0.6878  1.9680  0.6005
  134MOL0     H18054   7.233  11.494   9.139  1.8586  0.0201  0.7766
  134MOL0     H18055   7.247  11.338   9.051  0.5909 -0.0555 -0.5824
  134MOL0     H18056   7.448  11.385   8.970  2.3694  1.4848 -0.7615
  134MOL0     H18057   7.451  11.555   9.012  2.0078 -0.2647  1.0244
  134MOL0     H18058   7.447  11.504   9.257  1.5783 -0.9907  2.0467
  134MOL0     H18059   7.463  11.327   9.224 -2.1185 -0.3019 -0.9930
  134MOL0     H18060   7.652  11.560   9.143  0.6067  0.6012  1.4256
  134MOL0     H18061   7.680  11.383   9.124 -0.1115  0.2740  0.2443
  134MOL0     H18062   7.689  11.341   9.356 -2.0427 -0.5006 -0.8455
  134MOL0     H18063   7.624  11.500   9.399  0.4853  1.4478 -0.4193
  134MOL0     H18064   7.896  11.465   9.257  2.3050  0.3326  1.5144
  134MOL0     H18065   7.832  11.614   9.314  1.1763  0.6941 -0.2270
  134MOL0     H18066   7.928  11.385   9.476 -0.2218 -0.0518  0.8437
  134MOL0     H18067   7.833  11.518   9.547 -0.7467 -2.0575  0.3836
  134MOL0     H18068   8.031  11.670   9.411  2.4468  0.1700  0.0388
  134MOL0     H18069   8.058  11.596   9.574 -2.7360  0.7077  0.7607
  134MOL0     H18070   7.012  11.442   9.114 -2.0004 -0.7988  0.4498
  134MOL0     H18071   6.776  11.422   9.074 -1.4167  1.2956 -0.5753
  134MOL0     H18072   6.498  11.364   8.637  0.3002 -1.5300 -0.0481
  134MOL0     H18073   6.295  11.302   8.535  0.9210 -1.8747 -0.2024
  134MOL0     H18074   4.592  11.084   7.895  0.3881  1.4919 -0.6818
  134MOL0     H18075   4.378  11.202   7.816  0.3349  1.6764 -0.5256
  134MOL0     H18076   3.931  11.075   7.565 -2.0682  0.6383  0.5939
  134MOL0     H18077   3.733  11.178   7.477 -0.3775  0.3807 -0.4422
  134MOL0     H18078   3.580  11.614   7.439 -2.3820 -3.5911 -0.7676
  134MOL0     H18079   3.757  11.630   7.453  0.5452  0.4578  1.9980
  134MOL0     H18080   3.613  11.707   7.644 -1.0600  0.1221 -1.6875
  134MOL0     H18081   3.746  11.607   7.680 -0.5578  1.5724  0.6743
  134MOL0     H18082   3.530  11.538   7.808 -1.1700 -0.6495  0.6679
  134MOL0     H18083   3.565  11.407   7.710 -4.3792 -2.2417 -1.1291
  134MOL0     H18084   3.419  11.465   7.532  1.4274 -2.2504  1.0760
  134MOL0     H18085   3.321  11.458   7.683  2.4440 -2.4666  0.0734
  134MOL0     H18086   3.274  11.850   7.556  2.1013  0.1438 -0.3566
  134MOL0     H18087   3.942  11.558   7.508 -0.7967 -0.1923 -0.6365
  134MOL0     H18088   4.230  11.467   7.476 -0.3942  0.7995 -0.5578
  134MOL0     H18089   4.149  11.583   7.583 -0.2444 -0.3419  1.5141
  134MOL0     H18090   4.233  11.451   7.657  1.2607 -1.3042 -2.0139
  135MOL0     O18091  10.747  11.215   7.711 -0.0227 -0.0237 -0.8874
  135MOL0     C18092  10.662  11.259   7.638 -0.2460  0.1096 -0.3059
  135MOL0     O18093  10.677  11.365   7.538 -0.0934 -0.1013 -0.5576
  135MOL0     C18094  10.795  11.431   7.541 -0.4559  0.1983  0.9265
  135MOL0     C18095  10.811  11.560   7.588  0.1350  0.3941  0.2201
  135MOL0     C18096  10.942  11.617   7.589 -0.1756  0.1128  0.8416
  135MOL0     C18097  11.059  11.544   7.542 -0.7009 -0.4798  0.5268
  135MOL0     O18098  11.187  11.597   7.555  0.8571 -0.6560  0.3436
  135MOL0     C18099  11.243  11.612   7.422 -0.1855  0.1012 -0.8565
  135MOL0     C18100  11.384  11.655   7.458  0.2540  0.2681  1.3964
  135MOL0     C18101  11.456  11.699   7.334 -0.1884  0.2545  0.7095
  135MOL0     C18102  11.605  11.691   7.362 -0.0802 -0.9895 -0.3437
  135MOL0     C18103  11.683  11.712   7.231  0.5261 -0.0715 -0.2869
  135MOL0     C18104  11.829  11.721   7.279  0.3376  0.2051  0.0532
  135MOL0     C18105  11.898  11.580   7.285  0.0105  0.3267  0.3062
  135MOL0     C18106  12.055  11.591   7.300  0.1465  0.3791 -0.6456
  135MOL0     N18107  12.094  11.645   7.436  0.6314  0.4898 -0.1665
  135MOL0     C18108  12.209  11.724   7.455 -0.3472 -0.1974 -0.4892
  135MOL0     C18109  12.219  11.748   7.591  0.0962 -0.3728  0.7939
  135MOL0     C18110  12.323  11.831   7.665  0.2544  0.5963  0.3000
  135MOL0     C18111  12.427  11.750   7.734  0.9122  0.1315  0.1459
  135MOL0     C18112  12.535  11.830   7.807  0.9406  0.1961  0.3312
  135MOL0     C18113  12.661  11.742   7.833 -0.2518 -0.6520 -0.9602
  135MOL0     O18114  12.731  11.705   7.715 -0.0711  0.3890 -0.9147
  135MOL0     C18115  12.854  11.650   7.729 -0.4767 -0.3890 -0.3596
  135MOL0     C18116  12.927  11.643   7.850 -0.2621 -0.0076 -0.1701
  135MOL0     C18117  13.049  11.577   7.857  1.0783 -0.5230 -0.4557
  135MOL0     C18118  13.095  11.515   7.740 -1.2563  0.2237 -0.1319
  135MOL0     C18119  13.221  11.451   7.741 -0.7485  0.4731  0.1589
  135MOL0     O18120  13.268  11.379   7.626  0.4264 -0.2614  0.3458
  135MOL0     C18121  13.404  11.350   7.617  0.3148  0.0765 -1.6166
  135MOL0     C18122  13.501  11.450   7.598  0.5674 -0.3218 -0.1527
  135MOL0     C18123  13.634  11.419   7.575  0.0914  0.0402 -0.1609
  135MOL0     C18124  13.681  11.284   7.572 -0.0874  0.4733 -0.0910
  135MOL0     O18125  13.816  11.271   7.540  0.4778 -0.9143 -0.1794
  135MOL0     C18126  13.863  11.327   7.420  0.0509 -0.1392 -0.0111
  135MOL0     C18127  14.008  11.276   7.409 -1.0224  0.0723  0.2572
  135MOL0     C18128  14.030  11.134   7.356 -0.1702  0.0979  0.8486
  135MOL0     C18129  14.145  11.057   7.425 -0.2848 -0.2741 -0.1145
  135MOL0     C18130  14.276  11.127   7.402  0.0252  0.1098  0.4910
  135MOL0     C18131  14.400  11.060   7.445 -0.6069 -0.4182 -0.2992
  135MOL0     C18132  14.519  11.158   7.442 -0.1936 -0.0363 -0.0057
  135MOL0     C18133  14.615  11.139   7.563 -0.3504  0.9243 -0.3200
  135MOL0    Cl18134  14.705  10.982   7.589 -0.3267 -0.0942  0.1378
  135MOL0     C18135  13.586  11.184   7.597  0.2240  0.5645  0.3078
  135MOL0     C18136  13.449  11.217   7.621  0.4889  0.5034  1.0610
  135MOL0     O18137  13.301  11.475   7.835  0.7092  0.2462 -0.7827
  135MOL0     C18138  13.019  11.513   7.623 -0.1081  0.2412 -0.0765
  135MOL0     C18139  12.897  11.582   7.619  0.0024  0.8388 -0.0576
  135MOL0     N18140  12.110  11.680   7.646  0.1889  0.1251 -0.2443
  135MOL0     N18141  12.039  11.628   7.558 -0.7892 -0.2543  0.0822
  135MOL0     C18142  11.037  11.419   7.485  1.2334 -0.4756 -0.3230
  135MOL0     C18143  10.907  11.360   7.480  0.1760  0.0478 -0.9445
  135MOL0     C18144  10.533  11.189   7.657  0.2085 -0.8566 -0.4233
  135MOL0     C18145  10.512  11.123   7.781 -0.7164 -0.2889  0.3507
  135MOL0     C18146  10.405  11.039   7.796 -0.1624  0.7624  0.6551
  135MOL0     C18147  10.299  11.037   7.704  0.0925  0.5656  0.2094
  135MOL0     O18148  10.181  10.960   7.717 -0.5179 -0.1685  0.5708
  135MOL0     C18149  10.147  10.894   7.843 -0.3958 -0.2885  0.3236
  135MOL0     C18150  10.074  10.977   7.937  0.3821  0.2233  0.3096
  135MOL0     C18151  10.142  11.106   7.993 -0.2591  0.3515  0.3264
  135MOL0     C18152  10.052  11.161   8.099  0.5820 -0.0852 -0.5247
  135MOL0     C18153   9.931  11.223   8.035  0.6346  0.6563 -0.8359
  135MOL0     C18154   9.846  11.275   7.969  0.3232  0.0575 -0.2149
  135MOL0     C18155  10.314  11.110   7.591  0.3856 -0.1412  1.2273
  135MOL0     C18156  10.432  11.188   7.560  0.6086  0.5796  0.0075
  135MOL0     C18157  10.446  11.249   7.421 -0.0081 -0.2415 -0.1716
  135MOL0     H18158  10.723  11.610   7.628 -0.1415  0.4553 -0.4506
  135MOL0     H18159  10.959  11.719   7.622 -1.6415  0.9239 -0.7356
  135MOL0     H18160  11.251  11.524   7.358 -0.5771  0.5253 -1.5050
  135MOL0     H18161  11.192  11.686   7.360 -4.6001 -1.6322  0.2972
  135MOL0     H18162  11.436  11.576   7.513  0.6775 -1.6899 -1.5833
  135MOL0     H18163  11.368  11.741   7.524 -2.2104  0.8947  0.1301
  135MOL0     H18164  11.426  11.798   7.297 -2.3570  0.0958  1.8446
  135MOL0     H18165  11.439  11.625   7.255  2.2941 -1.0099  1.2755
  135MOL0     H18166  11.621  11.772   7.433 -1.5105 -1.6648  0.7762
  135MOL0     H18167  11.632  11.598   7.413  1.7296 -0.5736 -0.4538
  135MOL0     H18168  11.668  11.621   7.172 -1.1484 -0.4404  0.6484
  135MOL0     H18169  11.657  11.801   7.172  1.3332 -0.4745 -1.2658
  135MOL0     H18170  11.892  11.778   7.209  0.6641 -1.2769 -0.9012
  135MOL0     H18171  11.840  11.765   7.378  0.4409 -1.0051  0.5915
  135MOL0     H18172  11.866  11.525   7.196 -1.5310  1.5278  0.0664
  135MOL0     H18173  11.856  11.523   7.369 -2.3529  0.9544 -0.3608
  135MOL0     H18174  12.090  11.487   7.293  2.5836  0.9180  1.8831
  135MOL0     H18175  12.095  11.644   7.213  2.8678  2.6768  1.7849
  135MOL0     H18176  12.279  11.774   7.388  1.1011  1.6349  2.1867
  135MOL0     H18177  12.364  11.906   7.597 -0.4860  0.2782 -0.5229
  135MOL0     H18178  12.266  11.880   7.745 -0.8493 -1.6120  0.9441
  135MOL0     H18179  12.384  11.682   7.808  2.4411 -2.5432 -1.2984
  135MOL0     H18180  12.484  11.701   7.654 -0.8796 -1.3263 -0.2950
  135MOL0     H18181  12.501  11.847   7.909 -1.2496 -3.2410  0.3362
  135MOL0     H18182  12.556  11.924   7.754  0.3114 -0.1327 -0.5426
  135MOL0     H18183  12.627  11.653   7.885 -1.7421 -0.1804 -1.0758
  135MOL0     H18184  12.737  11.790   7.895 -0.0459 -1.5359 -0.5124
  135MOL0     H18185  12.903  11.698   7.941 -1.9174 -0.6936 -0.1717
  135MOL0     H18186  13.106  11.577   7.949 -0.9050 -0.3024  0.8385
  135MOL0     H18187  13.477  11.555   7.615  2.3362 -0.1753  1.8587
  135MOL0     H18188  13.707  11.496   7.555 -1.2912  0.9068 -2.2612
  135MOL0     H18189  13.804  11.300   7.332  0.8509 -0.3044 -0.5094
  135MOL0     H18190  13.870  11.436   7.422 -0.6166 -0.0057 -2.2517
  135MOL0     H18191  14.054  11.344   7.337 -0.1458 -2.6629 -1.9603
  135MOL0     H18192  14.054  11.293   7.507 -2.8329  1.2177  0.9516
  135MOL0     H18193  13.935  11.082   7.367  0.4604 -1.6042 -1.0798
  135MOL0     H18194  14.043  11.141   7.248 -0.9218 -1.1421  0.6606
  135MOL0     H18195  14.157  10.961   7.374  0.8364  0.7084 -1.7976
  135MOL0     H18196  14.136  11.050   7.534 -0.6528  1.4122 -0.0079
  135MOL0     H18197  14.270  11.227   7.444  0.7712  0.2998  0.1658
  135MOL0     H18198  14.282  11.138   7.293 -1.3505 -1.6715  0.1887
  135MOL0     H18199  14.369  11.033   7.547 -3.8565 -1.4608 -1.4454
  135MOL0     H18200  14.431  10.972   7.388  4.0994 -0.7302  2.1699
  135MOL0     H18201  14.485  11.260   7.459  1.3029  0.2126  1.9466
  135MOL0     H18202  14.581  11.151   7.352  4.3568  0.4353  2.7421
  135MOL0     H18203  14.691  11.215   7.545  1.9278 -1.3980 -1.0814
  135MOL0     H18204  14.551  11.150   7.651 -3.3616 -2.9662 -1.7096
  135MOL0     H18205  13.627  11.084   7.610  0.8157  0.9267  1.3793
  135MOL0     H18206  13.377  11.136   7.621  1.1677 -0.1685  2.9430
  135MOL0     H18207  13.050  11.451   7.539  0.4560  0.0630  0.2567
  135MOL0     H18208  12.826  11.584   7.537 -0.2560  1.0600  0.1685
  135MOL0     H18209  11.127  11.364   7.456  2.6805  0.4952  2.0275
  135MOL0     H18210  10.888  11.265   7.433 -1.4677  0.4771 -1.2214
  135MOL0     H18211  10.574  11.137   7.869 -1.6540  1.1477  0.8256
  135MOL0     H18212  10.407  10.983   7.889  2.0534  1.3951  1.0385
  135MOL0     H18213  10.236  10.866   7.900 -0.8502  0.4228  1.4043
  135MOL0     H18214  10.094  10.801   7.818  0.6012 -0.3657 -1.6771
  135MOL0     H18215  10.055  10.900   8.012  1.4783 -0.8180 -0.4332
  135MOL0     H18216   9.974  11.003   7.900  1.2462  0.9364 -1.6708
  135MOL0     H18217  10.146  11.195   7.929 -0.1698  2.2009  2.7638
  135MOL0     H18218  10.239  11.074   8.030  0.1370  0.0022 -0.9481
  135MOL0     H18219  10.034  11.075   8.164 -0.0825  2.0651  2.3301
  135MOL0     H18220  10.107  11.241   8.151  1.8110  0.1290 -2.0687
  135MOL0     H18221   9.767  11.312   7.907 -1.4596 -0.9748  1.3325
  135MOL0     H18222  10.233  11.109   7.519  0.8221 -2.1794  0.6833
  135MOL0     H18223  10.549  11.253   7.386 -1.1624  0.1138 -3.9481
  135MOL0     H18224  10.404  11.187   7.341  0.6485  0.8952 -1.4515
  135MOL0     H18225  10.399  11.348   7.423 -1.1305 -0.7254 -1.1667
  136MOL0     O18226   3.268  10.158   5.188 -0.4819 -0.5993 -0.5408
  136MOL0     C18227   3.191  10.257   5.172 -0.0365 -0.5109  0.2346
  136MOL0     O18228   3.218  10.357   5.084 -0.7066 -0.0192 -0.0707
  136MOL0     C18229   3.348  10.378   5.027 -0.6366 -0.1147 -0.2020
  136MOL0     C18230   3.349  10.455   4.913 -0.1583 -0.4387  0.0089
  136MOL0     C18231   3.467  10.504   4.861  0.2041  0.6176  0.0195
  136MOL0     C18232   3.591  10.465   4.912 -0.0360  1.0779 -0.1140
  136MOL0     O18233   3.709  10.517   4.847  0.9641  0.4414  0.4401
  136MOL0     C18234   3.817  10.424   4.857  0.3099 -0.2011 -0.2964
  136MOL0     C18235   3.944  10.472   4.786 -0.1204  0.4383 -0.1974
  136MOL0     C18236   3.992  10.603   4.846  0.4764 -0.1631 -0.2423
  136MOL0     C18237   4.137  10.611   4.806  0.0273 -0.2086 -0.5377
  136MOL0     C18238   4.206  10.754   4.826  0.1522 -0.5123 -0.1607
  136MOL0     C18239   4.360  10.737   4.847  0.1485  0.5070  0.0613
  136MOL0     C18240   4.426  10.688   4.721  0.3199 -0.2401  0.0058
  136MOL0     C18241   4.570  10.739   4.728  0.0242 -1.0001  0.6081
  136MOL0     N18242   4.649  10.714   4.853 -0.4543 -0.2705 -0.1620
  136MOL0     C18243   4.739  10.611   4.867  0.1325  0.2750 -0.5680
  136MOL0     C18244   4.772  10.626   5.002  0.0863 -0.3415 -0.2703
  136MOL0     C18245   4.877  10.544   5.078  0.4024 -0.9369  0.6396
  136MOL0     C18246   4.835  10.465   5.202 -0.3648  0.4614 -0.2009
  136MOL0     C18247   4.946  10.377   5.266 -0.0138 -0.2605  0.4792
  136MOL0     C18248   5.069  10.457   5.336  0.4913  0.0988  0.1491
  136MOL0     O18249   5.156  10.359   5.393  0.1980  0.3365  0.2105
  136MOL0     C18250   5.263  10.409   5.466 -0.4741 -0.1405 -0.1710
  136MOL0     C18251   5.350  10.317   5.519  0.0959 -0.7793  0.1657
  136MOL0     C18252   5.456  10.360   5.594 -0.4393 -0.3669 -0.1914
  136MOL0     C18253   5.485  10.497   5.614  0.3481 -0.5688  0.6652
  136MOL0     C18254   5.578  10.527   5.723 -0.0506 -0.7686 -0.1641
  136MOL0     O18255   5.575  10.660   5.764 -0.6465  0.6128  0.2634
  136MOL0     C18256   5.623  10.686   5.888 -0.5433 -0.3432 -0.0343
  136MOL0     C18257   5.565  10.632   6.009 -0.2648  0.7211 -0.2842
  136MOL0     C18258   5.629  10.643   6.132 -0.0150 -1.4162  0.3274
  136MOL0     C18259   5.744  10.728   6.139 -0.5126 -0.4429 -0.2755
  136MOL0     O18260   5.804  10.777   6.260 -0.1203  0.5178 -0.4012
  136MOL0     C18261   5.756  10.716   6.386 -0.1892 -0.1950  0.1739
  136MOL0     C18262   5.789  10.782   6.518 -0.7951  0.1275 -0.5811
  136MOL0     C18263   5.933  10.751   6.563 -0.0252  0.8523 -0.0315
  136MOL0     C18264   5.971  10.807   6.702 -0.4014  0.0445  0.5915
  136MOL0     C18265   6.076  10.729   6.778  0.2828  0.4130 -0.4535
  136MOL0     C18266   6.101  10.768   6.923 -0.2737  0.1794  1.0798
  136MOL0     C18267   6.224  10.698   6.985  1.0208  0.1316 -0.1550
  136MOL0     C18268   6.350  10.781   6.956  0.3879  0.1338 -0.0847
  136MOL0    Cl18269   6.484  10.705   7.027 -0.3275  0.2140 -0.0749
  136MOL0     C18270   5.802  10.769   6.020  0.2009  0.6734 -0.5945
  136MOL0     C18271   5.740  10.755   5.894  0.5613  0.3028  0.1345
  136MOL0     O18272   5.641  10.433   5.779  0.7774  0.6385  0.0729
  136MOL0     C18273   5.407  10.597   5.554  0.5853 -0.1792 -0.6942
  136MOL0     C18274   5.294  10.552   5.486  0.0373  0.7099  0.0782
  136MOL0     N18275   4.712  10.741   5.063  0.5696 -0.0014  0.4636
  136MOL0     N18276   4.620  10.776   4.975 -0.1706  0.1840 -0.3103
  136MOL0     C18277   3.590  10.379   5.023 -0.1271  0.1897  0.2943
  136MOL0     C18278   3.467  10.340   5.077  0.0512  1.0223 -0.0047
  136MOL0     C18279   3.052  10.251   5.239 -0.0034 -0.1656  0.0253
  136MOL0     C18280   2.960  10.348   5.184  0.4692  0.0054 -0.1353
  136MOL0     C18281   2.826  10.357   5.246  0.1896  0.5062  0.5159
  136MOL0     C18282   2.782  10.268   5.345 -0.3662  0.3151 -0.6843
  136MOL0     O18283   2.663  10.283   5.413 -0.3349  0.2429 -0.6317
  136MOL0     C18284   2.624  10.182   5.517 -1.0117  0.1862  0.2177
  136MOL0     C18285   2.481  10.191   5.563  0.1724  0.4873 -0.4982
  136MOL0     C18286   2.370  10.166   5.458  0.8625 -0.3022 -0.2330
  136MOL0     C18287   2.359  10.022   5.400 -0.1775 -0.1864  0.1182
  136MOL0     C18288   2.462   9.982   5.305 -1.1773  0.3980  0.1700
  136MOL0     C18289   2.559   9.962   5.239 -0.2104 -0.5674 -0.0058
  136MOL0     C18290   2.878  10.181   5.395  0.2332  0.2834 -0.7675
  136MOL0     C18291   3.012  10.172   5.349  0.1433  0.7814  0.2923
  136MOL0     C18292   3.103  10.066   5.409  0.0055  0.0580 -0.3789
  136MOL0     H18293   3.252  10.478   4.869 -0.2350  0.2795  0.5496
  136MOL0     H18294   3.458  10.562   4.769 -0.1477 -1.4016 -1.2975
  136MOL0     H18295   3.859  10.417   4.957  0.7563  2.1966 -0.2438
  136MOL0     H18296   3.797  10.322   4.823  0.5641 -1.2763  2.5415
  136MOL0     H18297   3.918  10.486   4.681 -1.1887 -0.9140 -0.1416
  136MOL0     H18298   4.007  10.384   4.794 -2.6955 -1.5192 -0.1862
  136MOL0     H18299   3.983  10.606   4.955  1.7031 -1.4478 -0.0898
  136MOL0     H18300   3.925  10.678   4.803 -2.8697 -2.3762  0.6868
  136MOL0     H18301   4.191  10.541   4.869  0.8702  1.2207  0.4015
  136MOL0     H18302   4.145  10.587   4.699  0.8408 -2.3618 -0.0288
  136MOL0     H18303   4.189  10.820   4.740  1.7142 -1.6651 -1.4158
  136MOL0     H18304   4.157  10.800   4.912  1.1842  0.2649  0.0333
  136MOL0     H18305   4.401  10.832   4.884 -2.2297  0.8230  2.1543
  136MOL0     H18306   4.379  10.665   4.927  3.3963 -1.2236 -2.0421
  136MOL0     H18307   4.386  10.728   4.627  1.6428 -1.6463 -1.1885
  136MOL0     H18308   4.413  10.579   4.720  0.9381 -0.3286 -1.5644
  136MOL0     H18309   4.614  10.680   4.647 -0.9211  1.0766 -1.5005
  136MOL0     H18310   4.570  10.846   4.709  2.0815 -1.1098 -0.3387
  136MOL0     H18311   4.766  10.532   4.798  1.6559 -0.4593  0.8183
  136MOL0     H18312   4.912  10.460   5.017 -2.1608 -0.3642 -1.8109
  136MOL0     H18313   4.967  10.600   5.105  0.9512 -2.1094  1.3660
  136MOL0     H18314   4.787  10.531   5.275 -3.6167 -1.7329 -0.1001
  136MOL0     H18315   4.750  10.401   5.176  0.3491 -0.7075  0.2373
  136MOL0     H18316   4.978  10.303   5.192 -3.2796 -3.1135  1.6320
  136MOL0     H18317   4.905  10.315   5.347  1.0074 -1.7667 -0.1062
  136MOL0     H18318   5.018  10.524   5.405 -2.5701 -1.0276 -0.8307
  136MOL0     H18319   5.133  10.514   5.268  0.6628 -0.6943 -0.3705
  136MOL0     H18320   5.340  10.213   5.490 -0.9009 -1.2825  2.1466
  136MOL0     H18321   5.506  10.276   5.642  0.2816 -2.2346 -3.8748
  136MOL0     H18322   5.473  10.574   6.011 -0.9884  1.8600  0.1956
  136MOL0     H18323   5.582  10.597   6.218  0.2602 -0.8768  0.7734
  136MOL0     H18324   5.646  10.715   6.383 -0.1794 -0.1237 -0.3767
  136MOL0     H18325   5.791  10.613   6.387 -0.7319 -0.4323  3.1196
  136MOL0     H18326   5.775  10.889   6.505  1.6747  0.6155  0.1321
  136MOL0     H18327   5.724  10.752   6.601  2.6809  1.9928  3.1470
  136MOL0     H18328   5.948  10.642   6.569  3.4122  1.1192 -1.3557
  136MOL0     H18329   6.005  10.788   6.489 -0.5527  1.7535 -0.1038
  136MOL0     H18330   5.886  10.813   6.771  1.1059  3.8915  2.4251
  136MOL0     H18331   5.998  10.913   6.702 -0.5653  0.1201 -1.0970
  136MOL0     H18332   6.168  10.736   6.721 -1.6225 -1.4861 -4.1171
  136MOL0     H18333   6.053  10.622   6.786 -2.8165  1.0025 -0.0670
  136MOL0     H18334   6.104  10.877   6.926  2.4129  0.1619  2.7088
  136MOL0     H18335   6.012  10.738   6.978  0.2200  1.5406  2.7104
  136MOL0     H18336   6.229  10.598   6.942 -0.5189 -0.0191 -0.0258
  136MOL0     H18337   6.223  10.692   7.095  1.1299  0.1134 -0.1549
  136MOL0     H18338   6.362  10.790   6.848 -1.2591 -1.9650 -0.5069
  136MOL0     H18339   6.329  10.880   6.997 -5.2628 -1.3514  1.4832
  136MOL0     H18340   5.893  10.828   6.025  0.6125 -0.0519  0.9216
  136MOL0     H18341   5.793  10.802   5.812  2.3363 -1.4760  0.1872
  136MOL0     H18342   5.408  10.706   5.555  0.3836 -0.1756 -0.8304
  136MOL0     H18343   5.233  10.636   5.452  0.6631  1.3315  0.4596
  136MOL0     H18344   3.679  10.348   5.078 -1.7570 -1.0476  2.3964
  136MOL0     H18345   3.463  10.290   5.174  0.1843  2.0063  0.5185
  136MOL0     H18346   2.982  10.414   5.100 -1.2800 -1.1529 -1.5631
  136MOL0     H18347   2.748  10.414   5.197  0.5193  0.5912  0.0799
  136MOL0     H18348   2.689  10.186   5.605 -0.7059 -3.2248  0.3045
  136MOL0     H18349   2.645  10.083   5.475  2.0979  1.6061 -1.9895
  136MOL0     H18350   2.458  10.293   5.596 -0.2858  1.2247 -2.8620
  136MOL0     H18351   2.466  10.124   5.648  2.8331  0.7973  0.3250
  136MOL0     H18352   2.392  10.238   5.379  1.2717 -0.4286 -0.2379
  136MOL0     H18353   2.268  10.189   5.491  0.6888 -1.4701  0.1142
  136MOL0     H18354   2.359   9.947   5.480  0.8030  1.2995  1.5680
  136MOL0     H18355   2.257  10.011   5.361 -0.9511  0.8017  1.7830
  136MOL0     H18356   2.639   9.943   5.170 -1.6399  2.8407 -2.9238
  136MOL0     H18357   2.852  10.115   5.477  2.1984 -0.1771 -0.4820
  136MOL0     H18358   3.048  10.004   5.481  0.2772  0.0954 -0.1363
  136MOL0     H18359   3.152  10.001   5.336 -2.6441  0.1942 -2.4383
  136MOL0     H18360   3.187  10.120   5.454 -1.0421  0.2838  1.4570
  137MOL0     O18361   5.030   1.861   0.328  0.3922  0.3357 -0.4085
  137MOL0     C18362   4.975   1.961   0.378  0.1441 -0.0559  0.1405
  137MOL0     O18363   5.034   2.043   0.465 -0.0724  0.6270  0.3197
  137MOL0     C18364   5.152   2.009   0.522  0.4547  0.8893 -0.7407
  137MOL0     C18365   5.228   2.116   0.562  0.8212  0.1008  0.0520
  137MOL0     C18366   5.346   2.097   0.632 -0.3488 -0.7685 -0.4097
  137MOL0     C18367   5.396   1.963   0.649 -0.5545 -0.5038 -0.7412
  137MOL0     O18368   5.516   1.941   0.717 -0.1890  0.0220  0.0008
  137MOL0     C18369   5.626   1.907   0.632  0.7344  0.3261  0.5878
  137MOL0     C18370   5.704   1.791   0.697 -0.1301  0.7092  0.3021
  137MOL0     C18371   5.819   1.740   0.604  0.1133  1.1086  0.3620
  137MOL0     C18372   5.783   1.717   0.456  0.4365 -0.4196 -0.0037
  137MOL0     C18373   5.863   1.606   0.384  0.8562  0.0631  0.0461
  137MOL0     C18374   5.811   1.578   0.241  0.6527 -0.1337 -0.1970
  137MOL0     C18375   5.903   1.471   0.184 -1.0783  0.4050 -0.0915
  137MOL0     C18376   5.993   1.535   0.075 -0.3912 -0.3215 -0.1254
  137MOL0     N18377   6.114   1.601   0.125  0.1722  0.5124 -0.1449
  137MOL0     C18378   6.124   1.728   0.169 -0.1250  0.3848 -0.8254
  137MOL0     C18379   6.252   1.739   0.203  0.6542 -0.5021 -0.4680
  137MOL0     C18380   6.314   1.861   0.272  0.6078 -0.6494 -0.1086
  137MOL0     C18381   6.333   1.830   0.424  0.8053 -0.0298 -0.7844
  137MOL0     C18382   6.371   1.952   0.512  0.3757 -0.0510  0.1256
  137MOL0     C18383   6.517   2.004   0.493  0.4354  0.1854 -0.5753
  137MOL0     O18384   6.607   1.907   0.543  0.1522 -0.2065  0.2539
  137MOL0     C18385   6.732   1.913   0.489  0.2328  0.2137  0.2478
  137MOL0     C18386   6.783   2.005   0.401 -0.5072 -0.4483 -0.1315
  137MOL0     C18387   6.916   1.984   0.348 -0.4312 -0.2112 -0.5464
  137MOL0     C18388   7.004   1.882   0.394  0.2299  0.4469 -0.1548
  137MOL0     C18389   7.144   1.856   0.351  0.2978  0.4988  0.2241
  137MOL0     O18390   7.188   1.918   0.240  0.3950 -0.3615  0.4737
  137MOL0     C18391   7.316   1.906   0.190  0.4148  0.3346 -0.5074
  137MOL0     C18392   7.384   2.029   0.178 -0.3513  0.3291  0.2995
  137MOL0     C18393   7.519   2.022   0.122 -0.0478 -0.5797 -0.7559
  137MOL0     C18394   7.580   1.901   0.093  0.0448  0.1510  0.3750
  137MOL0     O18395   7.711   1.899   0.053  0.1938  0.0720 -0.0322
  137MOL0     C18396   7.787   1.770   0.076  0.3469  0.1067  0.1619
  137MOL0     C18397   7.930   1.804   0.095 -0.0768  0.8155  0.6519
  137MOL0     C18398   8.029   1.689   0.124 -0.0154  0.3584  0.1525
  137MOL0     C18399   8.075   1.669   0.268  0.0841  0.2753  0.8505
  137MOL0     C18400   8.198   1.570   0.278  0.2437 -0.5486 -0.2575
  137MOL0     C18401   8.317   1.650   0.226  0.0161 -0.3738  0.3686
  137MOL0     C18402   8.449   1.574   0.255 -0.2873 -0.0886  1.1099
  137MOL0     C18403   8.578   1.650   0.222  0.4419 -0.1484 -0.5364
  137MOL0    Cl18404   8.585   1.667   0.043 -0.0170  0.1020 -0.0142
  137MOL0     C18405   7.507   1.773   0.115  0.2639 -0.4186 -0.1167
  137MOL0     C18406   7.377   1.783   0.161  0.2123  0.2752  0.8860
  137MOL0     O18407   7.207   1.772   0.409 -0.3713 -0.6496  0.4229
  137MOL0     C18408   6.947   1.792   0.488 -0.5934 -0.5900 -0.1026
  137MOL0     C18409   6.815   1.804   0.520 -0.0828  0.5434 -0.7054
  137MOL0     N18410   6.316   1.613   0.200 -0.3809 -1.2081  1.6024
  137MOL0     N18411   6.230   1.531   0.154  0.1821  0.2845  0.1569
  137MOL0     C18412   5.327   1.859   0.590 -0.3119  0.3497 -0.2498
  137MOL0     C18413   5.200   1.876   0.544 -0.1746 -0.4163  0.5628
  137MOL0     C18414   4.827   1.990   0.348 -0.4849  0.2727  0.2857
  137MOL0     C18415   4.748   2.070   0.443 -0.1726 -0.6552 -0.4427
  137MOL0     C18416   4.614   2.097   0.424 -0.1339 -0.5366  0.3946
  137MOL0     C18417   4.554   2.050   0.306 -0.2652 -0.1779  0.1227
  137MOL0     O18418   4.420   2.078   0.292  0.0988  0.5572  0.3203
  137MOL0     C18419   4.394   2.212   0.256  0.5697 -0.0529 -0.4564
  137MOL0     C18420   4.281   2.210   0.154  0.2268 -0.1587  0.2296
  137MOL0     C18421   4.237   2.358   0.147  0.2256  1.0579  0.0295
  137MOL0     C18422   4.134   2.389   0.258 -0.4802 -0.5774  0.1775
  137MOL0     C18423   4.108   2.531   0.255  0.4260 -0.0289  0.1861
  137MOL0     C18424   4.069   2.649   0.239 -0.1160  0.3468  0.5561
  137MOL0     C18425   4.620   1.982   0.208 -0.8004  0.2359  0.0895
  137MOL0     C18426   4.760   1.953   0.229 -0.3028  0.4578 -1.4130
  137MOL0     C18427   4.827   1.895   0.106 -0.2337 -0.3519  0.1199
  137MOL0     H18428   5.184   2.215   0.551 -0.7517 -0.5540  0.2157
  137MOL0     H18429   5.400   2.180   0.675 -0.1301 -0.9622 -0.3050
  137MOL0     H18430   5.586   1.877   0.535 -1.6887  0.8012  1.3801
  137MOL0     H18431   5.703   1.985   0.620 -0.0699  1.0520  0.0463
  137MOL0     H18432   5.634   1.710   0.719  2.1336 -1.0797  1.3631
  137MOL0     H18433   5.745   1.826   0.792  1.7613  1.6819 -0.8175
  137MOL0     H18434   5.857   1.647   0.648 -0.3913  0.3111 -0.8348
  137MOL0     H18435   5.902   1.809   0.620  0.7414  0.6419 -0.7806
  137MOL0     H18436   5.677   1.689   0.454 -0.0966  1.4597 -1.7479
  137MOL0     H18437   5.790   1.816   0.409 -1.3888 -0.7063 -1.0005
  137MOL0     H18438   5.960   1.654   0.370  1.0286 -0.5652 -1.0928
  137MOL0     H18439   5.872   1.518   0.448  1.2913 -0.2168 -0.3993
  137MOL0     H18440   5.713   1.529   0.245  0.7979 -0.3423  1.7661
  137MOL0     H18441   5.808   1.671   0.184 -2.9607 -0.4121 -0.6609
  137MOL0     H18442   5.848   1.393   0.131 -0.7864 -0.0916  0.3245
  137MOL0     H18443   5.952   1.416   0.265 -2.0802  1.1643  1.0868
  137MOL0     H18444   6.022   1.453   0.010 -1.2630 -0.2023 -0.6752
  137MOL0     H18445   5.927   1.601   0.018  0.5000  0.2405 -0.5437
  137MOL0     H18446   6.042   1.799   0.163 -1.5941 -1.2791 -1.3612
  137MOL0     H18447   6.409   1.893   0.228 -0.8275  2.4261 -1.2955
  137MOL0     H18448   6.253   1.952   0.260 -0.9784 -1.7179 -0.4589
  137MOL0     H18449   6.244   1.786   0.471  0.7114  1.4757  0.5196
  137MOL0     H18450   6.420   1.764   0.430  0.6182 -0.3143 -1.1093
  137MOL0     H18451   6.364   1.929   0.619  0.8195 -1.4872 -0.1296
  137MOL0     H18452   6.305   2.036   0.491 -0.4932  0.0625  2.8949
  137MOL0     H18453   6.519   2.096   0.553 -0.8425  0.1020 -0.3804
  137MOL0     H18454   6.520   2.036   0.389 -0.3238  3.3626  0.2693
  137MOL0     H18455   6.721   2.092   0.379 -0.3650  0.2715  2.0266
  137MOL0     H18456   6.947   2.060   0.277 -0.3378  2.4872  2.1557
  137MOL0     H18457   7.344   2.127   0.199 -1.7327  0.4639 -2.4457
  137MOL0     H18458   7.571   2.114   0.097  2.3250 -1.0238  1.9294
  137MOL0     H18459   7.762   1.704   0.159 -1.2891 -0.3036 -0.6226
  137MOL0     H18460   7.771   1.707  -0.012  2.3240 -0.0393 -0.1360
  137MOL0     H18461   7.975   1.858   0.010 -0.2988 -0.6849 -0.4618
  137MOL0     H18462   7.927   1.873   0.180  0.8860  1.8802 -0.1407
  137MOL0     H18463   7.989   1.591   0.099 -1.1664  1.1657 -1.3042
  137MOL0     H18464   8.120   1.703   0.064  0.6041 -0.3182  0.9161
  137MOL0     H18465   7.994   1.632   0.331  0.6662  0.7319  1.8993
  137MOL0     H18466   8.105   1.765   0.312  0.0282  0.2662  0.9090
  137MOL0     H18467   8.185   1.474   0.227 -0.3925 -2.0301  2.4772
  137MOL0     H18468   8.211   1.558   0.386 -0.3950  1.6022  0.1008
  137MOL0     H18469   8.314   1.657   0.117  0.1171  0.9633  0.4285
  137MOL0     H18470   8.327   1.748   0.274 -2.1300  0.7088 -1.2452
  137MOL0     H18471   8.451   1.476   0.207  1.1782  0.0860  0.7514
  137MOL0     H18472   8.452   1.553   0.362  0.4937  1.7191  1.4831
  137MOL0     H18473   8.575   1.752   0.264  1.5462 -0.3556  0.0997
  137MOL0     H18474   8.668   1.595   0.252  0.2955 -1.3689 -2.2364
  137MOL0     H18475   7.556   1.683   0.079  0.4799 -0.9485  1.4285
  137MOL0     H18476   7.310   1.697   0.163 -1.2256  1.2706 -1.0330
  137MOL0     H18477   7.011   1.712   0.525  0.5903  0.7457  0.8613
  137MOL0     H18478   6.761   1.719   0.563  1.7185 -0.9837 -1.3207
  137MOL0     H18479   5.382   1.766   0.607 -1.0036  0.1118  0.7754
  137MOL0     H18480   5.147   1.784   0.522 -0.6796  0.2386 -1.1034
  137MOL0     H18481   4.803   2.105   0.529  1.0574 -0.6115 -1.2222
  137MOL0     H18482   4.548   2.139   0.501 -0.3090 -2.3565  1.2864
  137MOL0     H18483   4.482   2.264   0.217  0.2107  0.4467 -0.6185
  137MOL0     H18484   4.356   2.270   0.340  0.9461 -2.2044  1.2894
  137MOL0     H18485   4.195   2.144   0.165  1.2236 -1.8066 -1.3952
  137MOL0     H18486   4.327   2.180   0.060  0.0492 -2.2553  0.7664
  137MOL0     H18487   4.194   2.382   0.049 -0.4726 -0.6505 -0.1223
  137MOL0     H18488   4.325   2.420   0.161  1.6086 -1.2543  2.3625
  137MOL0     H18489   4.035   2.344   0.250 -0.7961 -0.3373  2.2210
  137MOL0     H18490   4.177   2.364   0.356  0.0522  3.1437  1.0271
  137MOL0     H18491   4.038   2.749   0.215 -1.1097 -0.6552 -3.1291
  137MOL0     H18492   4.575   1.961   0.111 -0.0089 -3.0773  0.3203
  137MOL0     H18493   4.751   1.847   0.044 -0.7427 -0.7373  1.0283
  137MOL0     H18494   4.892   1.964   0.050 -1.2127 -0.5517 -1.3319
  137MOL0     H18495   4.885   1.812   0.147 -0.0180  0.0155  0.5603
  138MOL0     O18496   6.967   1.984   5.989 -0.0822  0.0238 -0.3190
  138MOL0     C18497   6.919   2.094   5.988  0.7508  0.1187 -0.3572
  138MOL0     O18498   6.991   2.205   5.970 -0.2739  0.3231 -0.9248
  138MOL0     C18499   7.125   2.203   5.941  0.3652  0.4747 -0.1909
  138MOL0     C18500   7.225   2.137   6.016  0.2760  0.1746  0.2163
  138MOL0     C18501   7.356   2.134   5.972 -0.7091  0.5544 -0.0973
  138MOL0     C18502   7.390   2.192   5.850 -0.6950  0.2759 -0.1298
  138MOL0     O18503   7.504   2.189   5.780 -0.0622 -0.3602  0.0812
  138MOL0     C18504   7.600   2.095   5.821  0.0798 -0.0454 -0.5038
  138MOL0     C18505   7.725   2.104   5.725 -0.3539  0.4312  0.2111
  138MOL0     C18506   7.817   1.989   5.746  0.2148  0.1394 -0.1849
  138MOL0     C18507   7.920   1.974   5.636 -0.8507  0.1472  0.7904
  138MOL0     C18508   8.051   2.054   5.660 -0.2928 -0.7101 -1.1220
  138MOL0     C18509   8.153   2.063   5.551  0.3635 -0.0877 -0.2924
  138MOL0     C18510   8.233   1.926   5.540  0.9793 -0.3765  0.1729
  138MOL0     C18511   8.313   1.922   5.415 -0.0916 -0.2492 -0.3383
  138MOL0     N18512   8.413   2.023   5.396  0.0486 -0.3424  0.3373
  138MOL0     C18513   8.521   2.065   5.481  0.2566 -0.1920  0.9860
  138MOL0     C18514   8.588   2.161   5.421  0.6195 -0.8924 -0.2964
  138MOL0     C18515   8.704   2.232   5.480 -1.4396 -0.2532 -0.3057
  138MOL0     C18516   8.827   2.141   5.455  0.2491 -0.0513  0.4628
  138MOL0     C18517   8.962   2.209   5.500  0.2890 -0.5942  0.3400
  138MOL0     C18518   9.082   2.114   5.473 -0.4244 -0.1445  0.1497
  138MOL0     O18519   9.087   2.069   5.339 -0.6116  0.2993  0.1006
  138MOL0     C18520   9.171   2.138   5.255 -0.3152 -0.1781 -0.2959
  138MOL0     C18521   9.133   2.260   5.206  0.1464 -0.1057 -0.8936
  138MOL0     C18522   9.233   2.340   5.147 -0.0986  0.2294 -0.2629
  138MOL0     C18523   9.369   2.288   5.125  0.9954  0.1177 -0.1142
  138MOL0     C18524   9.466   2.372   5.052  0.0601  1.0656  0.2712
  138MOL0     O18525   9.594   2.378   5.099  0.1647  0.0836 -0.7648
  138MOL0     C18526   9.698   2.452   5.046 -0.4213  0.0566  0.8026
  138MOL0     C18527   9.710   2.493   4.911 -0.6780  0.2403 -0.5447
  138MOL0     C18528   9.813   2.579   4.872 -0.0687 -0.1170 -0.3069
  138MOL0     C18529   9.914   2.620   4.971 -0.5359 -0.4386  0.7622
  138MOL0     O18530  10.028   2.688   4.919 -0.7111  0.3345  0.0717
  138MOL0     C18531  10.139   2.689   5.009 -1.0833 -0.4818 -0.0991
  138MOL0     C18532  10.253   2.748   4.925  0.1975  0.6877 -0.3589
  138MOL0     C18533  10.387   2.721   5.005  0.2165  0.3460 -0.3517
  138MOL0     C18534  10.509   2.735   4.918  0.1337 -0.4350  0.2962
  138MOL0     C18535  10.642   2.694   4.975  0.2374 -0.3062 -0.6190
  138MOL0     C18536  10.750   2.720   4.867 -0.0488 -0.1931 -0.1796
  138MOL0     C18537  10.887   2.761   4.931  0.3637  0.1039 -0.9721
  138MOL0     C18538  10.995   2.799   4.819 -0.3004 -0.6105 -0.6549
  138MOL0    Cl18539  11.135   2.865   4.906  0.4054  0.4610  0.3612
  138MOL0     C18540   9.895   2.577   5.109 -0.9448  0.1588  0.2658
  138MOL0     C18541   9.790   2.492   5.144  0.5489  0.1617  0.1415
  138MOL0     O18542   9.422   2.446   4.961 -0.3009  0.0018  0.2603
  138MOL0     C18543   9.404   2.162   5.170 -0.9314 -0.1689  0.8226
  138MOL0     C18544   9.302   2.089   5.229 -0.5960  0.5202  0.4412
  138MOL0     N18545   8.516   2.189   5.303  0.1746  0.8126 -0.0842
  138MOL0     N18546   8.416   2.097   5.285 -0.1589 -0.4850 -0.8791
  138MOL0     C18547   7.298   2.272   5.789  0.0524 -0.5294 -0.3048
  138MOL0     C18548   7.163   2.265   5.824  0.1984 -0.1953 -0.8378
  138MOL0     C18549   6.772   2.114   5.982  0.3114  0.7339  0.2740
  138MOL0     C18550   6.708   2.235   5.959  0.0907  0.0647  0.6509
  138MOL0     C18551   6.566   2.248   5.953  0.0165 -0.2029  0.2037
  138MOL0     C18552   6.484   2.139   5.964 -0.7642  0.2947  0.4579
  138MOL0     O18553   6.345   2.143   5.950 -1.3391  0.5211 -0.2763
  138MOL0     C18554   6.281   2.272   5.924 -0.4098  0.7041 -0.1532
  138MOL0     C18555   6.129   2.273   5.952 -0.7476 -0.1480  0.5340
  138MOL0     C18556   6.055   2.162   5.880  0.0436  0.4861  0.7203
  138MOL0     C18557   5.904   2.191   5.870 -0.0035  0.3507  0.7433
  138MOL0     C18558   5.847   2.096   5.781 -0.5480 -0.7255 -0.0818
  138MOL0     C18559   5.795   2.025   5.704  0.0622  1.3758 -1.1649
  138MOL0     C18560   6.543   2.020   5.989  0.7509 -0.7247  0.5791
  138MOL0     C18561   6.683   2.003   6.000  0.0206  0.1983  0.0144
  138MOL0     C18562   6.722   1.854   6.029 -0.5231 -0.5225 -0.0188
  138MOL0     H18563   7.190   2.085   6.104  0.7541 -1.1125 -0.3361
  138MOL0     H18564   7.445   2.094   6.020  1.0695  3.0389 -1.1487
  138MOL0     H18565   7.638   2.117   5.922 -0.4173 -2.1939  0.2116
  138MOL0     H18566   7.561   1.992   5.827 -1.6806  0.5948  4.2279
  138MOL0     H18567   7.765   2.204   5.738 -0.4941  0.3599  1.3091
  138MOL0     H18568   7.676   2.104   5.627  1.0126 -1.8529 -0.5701
  138MOL0     H18569   7.752   1.902   5.757 -1.1282  1.2546  1.1046
  138MOL0     H18570   7.866   2.004   5.843  1.7223  2.1607 -1.1804
  138MOL0     H18571   7.948   1.869   5.630 -0.7993  0.2274 -0.6013
  138MOL0     H18572   7.878   1.994   5.537 -1.3423 -0.9389  0.7680
  138MOL0     H18573   8.007   2.153   5.675 -1.5703 -1.2602 -1.0458
  138MOL0     H18574   8.101   2.030   5.754  0.7105  1.5421 -1.0160
  138MOL0     H18575   8.097   2.073   5.457 -1.1796 -2.8839  0.2221
  138MOL0     H18576   8.226   2.143   5.563  0.7379 -0.4734  0.0269
  138MOL0     H18577   8.154   1.850   5.533  1.3400 -0.6501 -1.2422
  138MOL0     H18578   8.298   1.913   5.627  1.5166  2.9609  0.3700
  138MOL0     H18579   8.373   1.831   5.426  1.9025  1.0469 -0.0553
  138MOL0     H18580   8.254   1.916   5.322  1.0924  0.8629 -1.1978
  138MOL0     H18581   8.549   2.022   5.577  1.5519  0.8137  1.0872
  138MOL0     H18582   8.737   2.323   5.429 -0.8844 -1.3140 -1.9203
  138MOL0     H18583   8.699   2.272   5.582 -4.0389  1.9764 -1.1686
  138MOL0     H18584   8.815   2.047   5.511  1.8502  0.2857  1.4451
  138MOL0     H18585   8.835   2.125   5.347 -1.8248  3.0650 -0.2836
  138MOL0     H18586   8.934   2.221   5.605 -0.3850 -0.3235  0.1338
  138MOL0     H18587   8.982   2.304   5.448  0.4804 -0.2479  1.0356
  138MOL0     H18588   9.066   2.025   5.536 -1.2488  2.1344  3.3995
  138MOL0     H18589   9.176   2.149   5.515 -0.2933 -1.4086  0.9866
  138MOL0     H18590   9.031   2.296   5.219 -0.0432 -1.7780  4.6347
  138MOL0     H18591   9.202   2.438   5.112 -0.3596  0.4537  0.5656
  138MOL0     H18592   9.646   2.447   4.836  0.3110 -1.4226 -0.4159
  138MOL0     H18593   9.835   2.602   4.769 -2.3693  0.7245 -0.6757
  138MOL0     H18594  10.114   2.751   5.095 -2.6085  1.1830 -1.6563
  138MOL0     H18595  10.179   2.590   5.031  0.8138 -0.5540 -3.1358
  138MOL0     H18596  10.273   2.710   4.825  3.0313  2.8375 -0.7650
  138MOL0     H18597  10.236   2.856   4.922 -0.4539  0.5727 -0.9024
  138MOL0     H18598  10.392   2.791   5.089 -1.0347 -0.2555  0.2529
  138MOL0     H18599  10.384   2.622   5.050 -1.6033  1.3302  1.9130
  138MOL0     H18600  10.520   2.843   4.905  0.4584 -0.1414  2.5963
  138MOL0     H18601  10.494   2.694   4.818  2.4807 -0.3532 -0.1484
  138MOL0     H18602  10.629   2.588   5.000  0.5743  0.3583  2.9152
  138MOL0     H18603  10.661   2.740   5.073 -1.9582 -3.8319  1.6899
  138MOL0     H18604  10.770   2.633   4.804 -1.2940 -0.8644  0.3322
  138MOL0     H18605  10.717   2.797   4.796 -1.8374  1.3872  2.2303
  138MOL0     H18606  10.926   2.678   4.989  2.0515  0.2987 -1.7649
  138MOL0     H18607  10.865   2.845   4.997 -0.8703 -2.6922  2.4585
  138MOL0     H18608  11.033   2.718   4.757 -0.6127  1.4669 -3.8158
  138MOL0     H18609  10.949   2.871   4.750  1.2291  2.5856  1.3981
  138MOL0     H18610   9.965   2.602   5.188 -1.8192  1.3013  0.7031
  138MOL0     H18611   9.774   2.462   5.248  1.0445  3.1444  1.1639
  138MOL0     H18612   9.506   2.130   5.152 -0.5186  1.6603 -0.3555
  138MOL0     H18613   9.332   1.987   5.250  0.9947  0.5247 -1.5499
  138MOL0     H18614   7.322   2.319   5.695  1.8396 -3.8656 -1.6866
  138MOL0     H18615   7.091   2.319   5.763  0.6278  1.1081 -0.2401
  138MOL0     H18616   6.770   2.321   5.936 -1.0492  0.3849 -1.5477
  138MOL0     H18617   6.524   2.347   5.946 -0.9695 -0.6254 -0.0728
  138MOL0     H18618   6.309   2.304   5.823 -1.8068 -0.4094 -0.9411
  138MOL0     H18619   6.322   2.348   5.991 -0.1531  1.1381 -0.7932
  138MOL0     H18620   6.093   2.366   5.906 -0.0975 -0.9253 -1.6884
  138MOL0     H18621   6.097   2.280   6.056  1.5565  0.6296  1.2615
  138MOL0     H18622   6.079   2.077   5.944 -1.4315  0.6833  1.5887
  138MOL0     H18623   6.093   2.132   5.782 -1.9373 -1.4182  0.4426
  138MOL0     H18624   5.850   2.187   5.966 -0.2683  1.2642  0.6487
  138MOL0     H18625   5.898   2.292   5.827  2.2872 -0.2776 -1.2624
  138MOL0     H18626   5.749   1.958   5.634 -0.3276  0.3523  0.0231
  138MOL0     H18627   6.483   1.930   5.998 -1.9766  0.9976  0.6351
  138MOL0     H18628   6.793   1.809   5.959 -2.0341 -0.9053 -1.3772
  138MOL0     H18629   6.755   1.837   6.132 -0.3845  0.8577  0.1740
  138MOL0     H18630   6.629   1.799   6.014 -2.0106  1.4727  1.3915
  139MOL0     O18631  11.086   8.392   8.841 -0.0665  0.4729  0.1462
  139MOL0     C18632  11.009   8.476   8.893  0.4258  0.6631 -0.7560
  139MOL0     O18633  10.942   8.572   8.829 -0.3672 -0.1671 -0.0514
  139MOL0     C18634  10.967   8.576   8.694  0.0885  0.3299  0.5473
  139MOL0     C18635  10.866   8.517   8.611 -0.7951 -0.5176  0.3716
  139MOL0     C18636  10.877   8.524   8.475 -0.4297 -1.1183  0.4666
  139MOL0     C18637  10.989   8.572   8.410  0.1227 -0.7371 -0.3229
  139MOL0     O18638  11.008   8.587   8.277  0.3897 -0.4412  0.0886
  139MOL0     C18639  10.972   8.472   8.200  0.1891 -0.4285 -0.0427
  139MOL0     C18640  11.009   8.475   8.051 -0.2510  0.4263  0.9737
  139MOL0     C18641  11.114   8.576   8.023 -1.3725  0.3034  0.5207
  139MOL0     C18642  11.244   8.521   8.082 -0.7857 -0.0683 -0.4220
  139MOL0     C18643  11.350   8.627   8.045 -0.2936  0.4531 -0.6010
  139MOL0     C18644  11.477   8.591   8.125 -0.2110 -1.3943 -0.2174
  139MOL0     C18645  11.594   8.703   8.103 -0.0979  0.2632 -0.1448
  139MOL0     C18646  11.685   8.700   8.224  0.1618  0.6010 -0.0005
  139MOL0     N18647  11.805   8.778   8.195  0.0904  0.1970  0.2499
  139MOL0     C18648  11.876   8.764   8.082 -0.1483 -0.4723  0.2639
  139MOL0     C18649  11.992   8.828   8.108 -0.3902  0.7274  0.0415
  139MOL0     C18650  12.115   8.851   8.031  0.9176  0.3905 -0.7284
  139MOL0     C18651  12.109   8.981   7.953 -0.0938 -0.3719  0.2188
  139MOL0     C18652  12.232   9.008   7.863  0.2700  0.1586 -0.2383
  139MOL0     C18653  12.354   9.045   7.952 -0.5951  0.3164  0.3568
  139MOL0     O18654  12.478   9.069   7.875  0.0576  0.1783  0.4682
  139MOL0     C18655  12.592   9.118   7.936  0.6736  0.4212  0.2222
  139MOL0     C18656  12.706   9.152   7.861  0.6670  1.4228  0.1504
  139MOL0     C18657  12.819   9.207   7.918  0.2450 -0.8648  0.4101
  139MOL0     C18658  12.828   9.233   8.055 -0.0193  0.2401  0.2575
  139MOL0     C18659  12.944   9.287   8.117 -0.0928 -0.4869 -0.1498
  139MOL0     O18660  13.033   9.357   8.052 -0.6344 -0.0454 -0.4272
  139MOL0     C18661  13.145   9.401   8.119  0.4401 -0.0050 -0.0094
  139MOL0     C18662  13.137   9.479   8.232 -0.0369 -0.0525  0.7147
  139MOL0     C18663  13.251   9.506   8.303 -0.5495  0.0503  0.8632
  139MOL0     C18664  13.376   9.472   8.247 -0.1057  0.1410 -0.8614
  139MOL0     O18665  13.491   9.490   8.316 -0.0796 -0.0744  0.1678
  139MOL0     C18666  13.488   9.538   8.452  0.2842 -0.1073  0.1893
  139MOL0     C18667  13.622   9.542   8.509  0.3392 -0.3900  0.0617
  139MOL0     C18668  13.676   9.407   8.542 -0.4618  0.2597 -0.0202
  139MOL0     C18669  13.804   9.421   8.634 -0.0250  0.6212  0.1506
  139MOL0     C18670  13.920   9.479   8.568 -0.0783 -0.3648 -0.4743
  139MOL0     C18671  14.044   9.459   8.651  0.2455 -0.2774 -0.5254
  139MOL0     C18672  14.110   9.328   8.635 -0.2975  0.1854 -0.4327
  139MOL0     C18673  14.192   9.294   8.756 -0.4318 -1.1257  1.6122
  139MOL0    Cl18674  14.221   9.119   8.768 -0.4190 -0.0306 -0.0965
  139MOL0     C18675  13.389   9.394   8.134  0.1028 -0.1399 -0.3895
  139MOL0     C18676  13.267   9.357   8.071  0.0887 -0.5495 -0.3767
  139MOL0     O18677  12.948   9.265   8.236 -0.1374 -0.0558  1.0231
  139MOL0     C18678  12.707   9.216   8.130  0.6594  0.3446 -0.5883
  139MOL0     C18679  12.598   9.156   8.070  0.6600  0.0713 -0.0811
  139MOL0     N18680  11.977   8.893   8.233 -0.1831  0.2378 -0.0237
  139MOL0     N18681  11.866   8.857   8.279 -0.0241  0.6098  0.8476
  139MOL0     C18682  11.091   8.635   8.484  0.4100 -0.8223  0.5283
  139MOL0     C18683  11.074   8.633   8.623  0.2481 -0.4010 -0.1700
  139MOL0     C18684  10.995   8.475   9.045  0.6865 -0.2265  0.1654
  139MOL0     C18685  10.960   8.603   9.097 -0.3895  0.7287 -0.0177
  139MOL0     C18686  10.941   8.615   9.241 -0.2084 -0.5240  0.5601
  139MOL0     C18687  10.960   8.500   9.316  0.1696  0.3006 -0.8722
  139MOL0     O18688  10.930   8.486   9.449  0.6955  0.1219 -0.6288
  139MOL0     C18689  10.866   8.596   9.513 -0.3934  0.1831  0.2269
  139MOL0     C18690  10.852   8.544   9.660  0.1897  0.2071  0.2647
  139MOL0     C18691  10.735   8.446   9.683 -0.4418 -0.0579 -0.6151
  139MOL0     C18692  10.746   8.387   9.823  0.6203  0.1781 -0.0265
  139MOL0     C18693  10.624   8.325   9.869  0.9064  0.3792 -0.1716
  139MOL0     C18694  10.523   8.262   9.911  0.2300 -0.2435 -0.4702
  139MOL0     C18695  10.981   8.383   9.257 -0.6009 -0.3130 -0.1287
  139MOL0     C18696  11.003   8.363   9.123  0.5972 -0.0623 -0.3306
  139MOL0     C18697  11.034   8.226   9.072 -0.0109 -0.7687 -0.2910
  139MOL0     H18698  10.776   8.475   8.655 -2.9209  1.5241 -1.7132
  139MOL0     H18699  10.796   8.479   8.419  0.4544 -1.4794 -0.5657
  139MOL0     H18700  11.022   8.385   8.245  1.8605 -0.4476 -1.8107
  139MOL0     H18701  10.863   8.466   8.197  0.1580 -0.0682  0.2875
  139MOL0     H18702  10.919   8.512   8.001  0.7672  0.9060 -0.5754
  139MOL0     H18703  11.028   8.375   8.009  2.5656  0.9271  0.8853
  139MOL0     H18704  11.098   8.672   8.074  0.3425  1.0946 -0.3661
  139MOL0     H18705  11.122   8.592   7.915  2.4559 -0.4118  0.5806
  139MOL0     H18706  11.246   8.499   8.189  1.9907  1.5288 -0.0464
  139MOL0     H18707  11.261   8.429   8.024  1.0832 -0.5706  0.8541
  139MOL0     H18708  11.375   8.632   7.939 -1.7113  2.5444 -0.8878
  139MOL0     H18709  11.312   8.722   8.083  0.2126 -0.5986  2.9347
  139MOL0     H18710  11.463   8.587   8.233  0.8488 -3.1152 -0.1063
  139MOL0     H18711  11.511   8.493   8.091  1.6428 -0.0225 -2.6364
  139MOL0     H18712  11.557   8.805   8.092  0.7256  0.5341 -0.4703
  139MOL0     H18713  11.657   8.674   8.019  3.6567 -1.4927  2.9316
  139MOL0     H18714  11.643   8.735   8.318 -0.2183  2.2351 -0.7447
  139MOL0     H18715  11.720   8.597   8.231  1.9436  1.1244 -0.5191
  139MOL0     H18716  11.865   8.701   7.994  1.8686 -0.6030  0.0598
  139MOL0     H18717  12.203   8.842   8.095  2.0308 -0.7499 -2.3240
  139MOL0     H18718  12.126   8.773   7.955  0.2927  0.6748 -1.1153
  139MOL0     H18719  12.021   8.979   7.888  1.9426 -3.2247 -2.7789
  139MOL0     H18720  12.095   9.063   8.024 -0.5704 -1.3287  1.2666
  139MOL0     H18721  12.208   9.080   7.784  0.2476  0.8800  0.4148
  139MOL0     H18722  12.264   8.916   7.814  2.6233  0.4308  0.6312
  139MOL0     H18723  12.378   8.957   8.013 -1.3405 -1.5735 -1.9483
  139MOL0     H18724  12.329   9.129   8.018 -0.8656  1.0664 -0.6730
  139MOL0     H18725  12.707   9.133   7.754 -0.5020 -1.3466  0.5492
  139MOL0     H18726  12.896   9.234   7.846 -0.8239 -2.4736 -1.4266
  139MOL0     H18727  13.038   9.502   8.271 -0.5289  0.7510 -0.9217
  139MOL0     H18728  13.242   9.552   8.401  4.2591 -1.2332  2.2128
  139MOL0     H18729  13.443   9.637   8.460 -1.3264 -0.8509  0.7057
  139MOL0     H18730  13.428   9.475   8.518  1.0711 -1.7075 -0.5743
  139MOL0     H18731  13.672   9.590   8.425 -1.0842  1.9168  0.4363
  139MOL0     H18732  13.619   9.605   8.598  1.7058 -1.6535  1.0630
  139MOL0     H18733  13.604   9.344   8.595  1.1744 -0.9785  0.8264
  139MOL0     H18734  13.705   9.357   8.449 -1.2332 -0.7357  0.2605
  139MOL0     H18735  13.827   9.319   8.664  1.0480  0.9534  0.5151
  139MOL0     H18736  13.783   9.477   8.726 -1.5627 -0.0584  0.2372
  139MOL0     H18737  13.901   9.584   8.548 -1.0862 -0.1038  1.5791
  139MOL0     H18738  13.933   9.434   8.469 -2.0261  0.9003 -1.3585
  139MOL0     H18739  14.120   9.535   8.630  0.8541 -1.0990 -1.3657
  139MOL0     H18740  14.007   9.466   8.754 -0.1172  0.1790 -0.6849
  139MOL0     H18741  14.177   9.311   8.550  1.6334 -0.0073  1.0512
  139MOL0     H18742  14.028   9.256   8.624 -0.2644  0.4021 -2.2816
  139MOL0     H18743  14.291   9.341   8.758 -0.0944 -1.8306  2.5647
  139MOL0     H18744  14.134   9.323   8.844 -2.9324 -3.3415  0.8332
  139MOL0     H18745  13.483   9.356   8.097  1.0434  0.2231  1.5110
  139MOL0     H18746  13.271   9.291   7.985 -0.4279  0.3931 -1.1508
  139MOL0     H18747  12.697   9.252   8.232  0.1107 -0.8232 -0.2053
  139MOL0     H18748  12.505   9.141   8.124  1.2833  1.6825  1.5583
  139MOL0     H18749  11.173   8.691   8.441 -1.8417  2.8614  0.6507
  139MOL0     H18750  11.151   8.680   8.685 -0.0941  2.5135 -1.7599
  139MOL0     H18751  10.959   8.698   9.044 -1.0671  1.9479  2.0428
  139MOL0     H18752  10.903   8.706   9.286 -0.9449 -0.9895  0.8947
  139MOL0     H18753  10.766   8.615   9.473  0.1020 -0.6890 -1.5250
  139MOL0     H18754  10.924   8.688   9.508  2.5225 -1.5437  0.2165
  139MOL0     H18755  10.852   8.631   9.725  0.0545  0.5195 -0.1513
  139MOL0     H18756  10.949   8.501   9.688 -0.4325  0.3096  2.8946
  139MOL0     H18757  10.724   8.365   9.610 -1.4067 -0.1228 -0.4078
  139MOL0     H18758  10.643   8.504   9.677 -0.1735  0.3850 -0.4544
  139MOL0     H18759  10.819   8.306   9.827  1.9871  1.4037  0.6738
  139MOL0     H18760  10.773   8.468   9.891 -2.4304  2.8387 -1.7198
  139MOL0     H18761  10.436   8.208   9.940  0.4391 -0.4217 -0.1636
  139MOL0     H18762  10.983   8.301   9.328 -0.5095  1.8493  2.5186
  139MOL0     H18763  11.013   8.141   9.138  1.6385 -2.0090 -1.2873
  139MOL0     H18764  10.984   8.204   8.977 -3.6248  2.5219  0.5489
  139MOL0     H18765  11.142   8.224   9.061  0.1117  0.5733  0.4225
  140MOL0     O18766   0.626   4.712   1.561  0.1278  0.4298 -0.0962
  140MOL0     C18767   0.521   4.674   1.614 -0.0796  0.2241  0.9282
  140MOL0     O18768   0.506   4.670   1.749  0.5825 -0.1287  1.1942
  140MOL0     C18769   0.604   4.721   1.826 -0.0504 -0.2861 -0.3464
  140MOL0     C18770   0.724   4.643   1.842  0.3918  0.8160 -0.1152
  140MOL0     C18771   0.822   4.684   1.936  0.1220 -0.0347  0.0632
  140MOL0     C18772   0.811   4.798   2.014 -0.4775  0.3116  0.3006
  140MOL0     O18773   0.905   4.843   2.105  0.1667  0.4807  0.7050
  140MOL0     C18774   1.032   4.771   2.107  0.1652 -0.2178 -0.6744
  140MOL0     C18775   1.133   4.829   2.209 -0.3845 -0.2343 -0.0555
  140MOL0     C18776   1.212   4.952   2.160  0.0650 -0.7330  0.5689
  140MOL0     C18777   1.332   4.989   2.250  0.4596  0.0654  0.1974
  140MOL0     C18778   1.368   5.143   2.226  1.0768 -0.0081  0.0469
  140MOL0     C18779   1.482   5.196   2.319  0.7644 -0.4578  0.5437
  140MOL0     C18780   1.614   5.162   2.259 -0.2351 -0.1194 -0.8824
  140MOL0     C18781   1.717   5.158   2.367  0.2790  0.9013 -1.3185
  140MOL0     N18782   1.855   5.150   2.317  0.3949  1.0256 -0.7826
  140MOL0     C18783   1.886   5.122   2.186 -0.2988 -0.2013  0.4561
  140MOL0     C18784   2.010   5.167   2.166 -0.0679 -0.4114 -0.0438
  140MOL0     C18785   2.077   5.158   2.036 -0.0085 -0.9732  0.7498
  140MOL0     C18786   2.193   5.061   2.066 -0.7958 -0.1962  0.0135
  140MOL0     C18787   2.291   5.047   1.955  0.1336 -1.0453  0.4616
  140MOL0     C18788   2.436   5.010   1.991 -0.1719  0.6466 -0.0514
  140MOL0     O18789   2.524   5.015   1.881 -0.2252 -0.2779  0.6457
  140MOL0     C18790   2.661   5.005   1.915  0.0386  0.2357 -0.0792
  140MOL0     C18791   2.722   4.976   2.040 -0.1073  0.4618 -0.5307
  140MOL0     C18792   2.863   4.987   2.058 -0.3141  0.6640 -0.2294
  140MOL0     C18793   2.941   5.020   1.950 -0.0252 -0.5436 -0.6131
  140MOL0     C18794   3.086   5.054   1.958 -0.5907  1.2644 -0.4820
  140MOL0     O18795   3.142   5.055   1.838  0.8496 -0.7068 -0.6112
  140MOL0     C18796   3.273   5.084   1.829  0.2720  0.3096 -0.2931
  140MOL0     C18797   3.305   5.178   1.729 -0.3138  0.0680 -0.9000
  140MOL0     C18798   3.441   5.214   1.710 -0.6333  0.0003 -0.1852
  140MOL0     C18799   3.543   5.166   1.802 -0.4442  0.2643 -0.0138
  140MOL0     O18800   3.672   5.208   1.805 -0.2968 -0.2661  0.1445
  140MOL0     C18801   3.750   5.209   1.676 -0.6004  1.2974  0.2662
  140MOL0     C18802   3.778   5.063   1.631  0.1863  0.1093 -0.0492
  140MOL0     C18803   3.870   4.982   1.734  0.6045 -0.2920 -0.1282
  140MOL0     C18804   3.951   4.874   1.658  0.7109 -0.1375  0.1458
  140MOL0     C18805   4.017   4.763   1.749  0.7715  0.1322  0.3316
  140MOL0     C18806   3.908   4.686   1.832  0.5779  0.3422  0.8544
  140MOL0     C18807   3.949   4.555   1.891  0.6901 -0.2032 -0.5568
  140MOL0     C18808   3.838   4.514   1.990  0.3968 -0.4877  0.3422
  140MOL0    Cl18809   3.884   4.382   2.101  0.2324 -0.2267 -0.1657
  140MOL0     C18810   3.508   5.067   1.896 -0.1111 -0.1777  0.1523
  140MOL0     C18811   3.375   5.023   1.902  0.4280  0.2608 -0.1441
  140MOL0     O18812   3.144   5.068   2.070  0.1859  0.4080 -0.1236
  140MOL0     C18813   2.880   5.023   1.821 -0.0892  0.0949  0.1593
  140MOL0     C18814   2.745   5.020   1.803 -0.7156 -0.0743 -0.2581
  140MOL0     N18815   2.047   5.215   2.298  0.1693 -0.2684  0.5377
  140MOL0     N18816   1.951   5.218   2.375 -0.7672 -0.1525 -0.1012
  140MOL0     C18817   0.698   4.879   1.998  0.0258  0.1668  1.4745
  140MOL0     C18818   0.594   4.837   1.905 -0.2204 -0.5040 -0.2830
  140MOL0     C18819   0.412   4.611   1.531  0.2899  0.6063 -0.4023
  140MOL0     C18820   0.300   4.558   1.598  0.3763  0.5060 -0.2267
  140MOL0     C18821   0.197   4.498   1.523 -0.6940  0.7983  0.3868
  140MOL0     C18822   0.198   4.504   1.389 -0.3264  0.2953 -0.6506
  140MOL0     O18823   0.080   4.483   1.316 -0.5315 -0.6317  0.0082
  140MOL0     C18824   0.036   4.345   1.330  1.3566  0.2141 -0.4220
  140MOL0     C18825  -0.068   4.317   1.220 -0.0129  0.4903  0.4995
  140MOL0     C18826  -0.196   4.403   1.221 -0.2571 -1.0993 -0.1304
  140MOL0     C18827  -0.261   4.399   1.075  0.0145 -0.2930  0.2386
  140MOL0     C18828  -0.385   4.478   1.058 -0.4077  0.4272 -0.5707
  140MOL0     C18829  -0.490   4.538   1.070 -0.2267  0.4936  0.2224
  140MOL0     C18830   0.305   4.556   1.325  0.1206 -0.4064 -0.2057
  140MOL0     C18831   0.415   4.606   1.387 -0.1722 -0.0004  0.5386
  140MOL0     C18832   0.532   4.631   1.298 -0.0862 -0.0197 -0.0823
  140MOL0     H18833   0.732   4.550   1.787  0.4142  0.6731  0.1335
  140MOL0     H18834   0.915   4.627   1.931  0.7894  1.0358 -0.2005
  140MOL0     H18835   1.012   4.666   2.127 -0.1052  0.0843  0.7523
  140MOL0     H18836   1.080   4.774   2.009 -0.0968  0.2219 -0.7921
  140MOL0     H18837   1.201   4.745   2.226  0.2564  0.3346  0.2278
  140MOL0     H18838   1.079   4.859   2.299 -0.3158  1.1838 -0.4580
  140MOL0     H18839   1.142   5.035   2.149  1.0261 -0.0618 -0.5780
  140MOL0     H18840   1.258   4.945   2.061  0.1224  0.7975  0.4695
  140MOL0     H18841   1.310   4.974   2.356  1.3307  0.7375  0.4900
  140MOL0     H18842   1.412   4.926   2.210 -0.5050 -0.9048 -0.2405
  140MOL0     H18843   1.388   5.162   2.120  0.4260 -1.2281 -0.3178
  140MOL0     H18844   1.276   5.195   2.255 -0.4501 -2.3341 -0.3601
  140MOL0     H18845   1.471   5.304   2.325 -0.1720 -0.5178  0.1261
  140MOL0     H18846   1.460   5.147   2.414  0.1585 -1.5017 -0.1097
  140MOL0     H18847   1.643   5.224   2.173  1.1685  0.1221 -0.2727
  140MOL0     H18848   1.608   5.062   2.216  2.9155  0.3980 -2.8559
  140MOL0     H18849   1.708   5.237   2.443 -1.0506 -1.4580  1.1737
  140MOL0     H18850   1.705   5.066   2.425 -2.1627  1.6237 -0.5259
  140MOL0     H18851   1.819   5.083   2.110  0.2287 -0.6434  0.2134
  140MOL0     H18852   2.010   5.119   1.959 -0.4553 -4.1255  2.5586
  140MOL0     H18853   2.104   5.260   2.007 -1.7872 -1.2000 -2.0272
  140MOL0     H18854   2.250   5.089   2.155 -1.6679  1.8805 -0.0196
  140MOL0     H18855   2.150   4.963   2.089  0.0244 -0.2803  1.2750
  140MOL0     H18856   2.300   5.139   1.897 -2.3217  0.4155  2.2040
  140MOL0     H18857   2.257   4.965   1.891  0.3535 -0.4930 -0.3814
  140MOL0     H18858   2.446   4.914   2.041 -2.1254 -0.2774 -1.3246
  140MOL0     H18859   2.470   5.082   2.066  0.6237 -0.9882  1.2173
  140MOL0     H18860   2.648   4.944   2.113 -0.9566 -2.3528 -2.4704
  140MOL0     H18861   2.901   4.970   2.158 -0.1786  0.4187 -0.3219
  140MOL0     H18862   3.225   5.233   1.680 -2.8630 -2.1445  0.5208
  140MOL0     H18863   3.465   5.287   1.634 -1.9924  2.0549  1.2558
  140MOL0     H18864   3.689   5.262   1.601 -0.2975  1.1401 -0.0895
  140MOL0     H18865   3.853   5.246   1.677 -0.2901  0.4471  0.5252
  140MOL0     H18866   3.684   5.007   1.622  0.3628 -0.4971  1.5534
  140MOL0     H18867   3.835   5.060   1.538  1.2342 -0.4268  0.5909
  140MOL0     H18868   3.947   5.046   1.778  2.8249 -2.1418 -1.1239
  140MOL0     H18869   3.811   4.939   1.815 -0.7341 -3.0483 -2.4176
  140MOL0     H18870   4.032   4.917   1.598  0.5199  0.4945  0.3272
  140MOL0     H18871   3.880   4.818   1.598  0.3865 -1.4586  1.6980
  140MOL0     H18872   4.085   4.812   1.820 -2.0119  1.1284  2.5215
  140MOL0     H18873   4.080   4.692   1.695  2.6105  1.0921  1.1305
  140MOL0     H18874   3.863   4.750   1.909  1.4772  1.4923  0.4552
  140MOL0     H18875   3.822   4.676   1.766 -0.2490  1.2112  1.7447
  140MOL0     H18876   4.047   4.553   1.940 -0.3199 -1.9463  1.5297
  140MOL0     H18877   3.952   4.490   1.803  1.0386  1.0565 -1.5119
  140MOL0     H18878   3.799   4.598   2.048 -1.3705 -1.3960  0.5312
  140MOL0     H18879   3.745   4.479   1.946 -0.0464 -0.2706  1.0949
  140MOL0     H18880   3.589   5.020   1.951 -1.5641 -2.2340  0.6544
  140MOL0     H18881   3.351   4.937   1.963 -2.1475  1.0658  0.1068
  140MOL0     H18882   2.941   5.033   1.732  0.8291 -3.0852  0.3021
  140MOL0     H18883   2.705   5.041   1.705 -0.1870  2.4210 -0.0193
  140MOL0     H18884   0.681   4.965   2.063 -0.0803 -0.2319  1.9787
  140MOL0     H18885   0.503   4.896   1.896 -0.3176 -0.9766 -3.6336
  140MOL0     H18886   0.285   4.560   1.706  1.1581 -0.9885 -0.0681
  140MOL0     H18887   0.107   4.455   1.567 -1.2202 -1.5552 -2.6536
  140MOL0     H18888  -0.014   4.340   1.427  2.2346 -1.8552 -0.0423
  140MOL0     H18889   0.116   4.272   1.316  0.3406 -0.7755 -1.2294
  140MOL0     H18890  -0.106   4.215   1.222 -2.0962  1.1671 -0.4974
  140MOL0     H18891  -0.015   4.327   1.125  2.5575 -0.3776  1.7722
  140MOL0     H18892  -0.173   4.508   1.239 -1.4132 -0.9707  0.7252
  140MOL0     H18893  -0.268   4.381   1.301 -1.2368  1.1464 -0.3209
  140MOL0     H18894  -0.186   4.438   1.007 -0.1186  2.4891  1.5509
  140MOL0     H18895  -0.290   4.297   1.047 -0.0337  0.3282 -2.1135
  140MOL0     H18896  -0.581   4.589   1.094  1.0774  1.2680  4.4585
  140MOL0     H18897   0.293   4.540   1.218 -0.1498 -1.8335  0.0124
  140MOL0     H18898   0.509   4.619   1.192  0.9204  1.2920 -0.4798
  140MOL0     H18899   0.575   4.732   1.305 -0.6654  0.1850  0.5673
  140MOL0     H18900   0.613   4.560   1.318 -0.4806 -0.2001  0.8897
  141MOL0     O18901  10.884  10.342   4.593  1.2960  0.1091 -0.3416
  141MOL0     C18902  10.849  10.368   4.480  0.2055 -0.5964  0.7943
  141MOL0     O18903  10.934  10.409   4.380 -0.1669  0.7093  1.0295
  141MOL0     C18904  11.068  10.410   4.402  0.2488  0.1378 -0.8971
  141MOL0     C18905  11.153  10.320   4.333 -0.1185  0.2088  0.2942
  141MOL0     C18906  11.291  10.325   4.348 -0.6748 -0.4288 -0.6150
  141MOL0     C18907  11.344  10.438   4.417  0.1188 -0.8443  0.4036
  141MOL0     O18908  11.480  10.462   4.407  0.4295 -0.1216 -0.0217
  141MOL0     C18909  11.538  10.592   4.434 -0.7095  1.4919 -0.5500
  141MOL0     C18910  11.567  10.610   4.588 -0.3202 -0.4345 -0.4060
  141MOL0     C18911  11.652  10.497   4.654 -0.4356 -0.2927  0.2383
  141MOL0     C18912  11.801  10.511   4.603 -0.0346  0.3934  0.2967
  141MOL0     C18913  11.903  10.411   4.655  0.8028 -0.2564  0.1535
  141MOL0     C18914  12.040  10.467   4.627  0.3536 -0.2572 -0.6637
  141MOL0     C18915  12.148  10.378   4.686 -0.3111  0.2324  0.5683
  141MOL0     C18916  12.282  10.422   4.627  0.4048  0.2634  0.9006
  141MOL0     N18917  12.398  10.375   4.701 -0.2074  0.1961  0.1730
  141MOL0     C18918  12.438  10.412   4.835 -1.0945 -0.4579  0.5502
  141MOL0     C18919  12.564  10.363   4.843  0.4515 -0.5347 -0.2810
  141MOL0     C18920  12.661  10.367   4.960  0.4569 -0.4595  0.0995
  141MOL0     C18921  12.642  10.229   5.035  0.7094 -0.2805  0.5111
  141MOL0     C18922  12.564  10.227   5.176  0.1614  0.3490 -0.0966
  141MOL0     C18923  12.580  10.095   5.244 -0.4416  0.6122 -1.0132
  141MOL0     O18924  12.714  10.101   5.313  0.1701  0.2177  0.2233
  141MOL0     C18925  12.816  10.005   5.323 -0.7058 -0.4194  0.1288
  141MOL0     C18926  12.831   9.898   5.243 -0.2764 -0.2191  0.2276
  141MOL0     C18927  12.950   9.823   5.240  0.3216  0.0242 -0.0187
  141MOL0     C18928  13.055   9.844   5.323 -0.4074 -0.0198  0.2294
  141MOL0     C18929  13.182   9.764   5.313  0.0461  0.2533  1.1363
  141MOL0     O18930  13.249   9.723   5.424  0.1602 -0.5595  0.1764
  141MOL0     C18931  13.356   9.635   5.423  0.4499  0.6813  0.9444
  141MOL0     C18932  13.481   9.672   5.361  0.5209 -0.6675  0.1850
  141MOL0     C18933  13.586   9.584   5.358  0.5451  0.4859 -0.6352
  141MOL0     C18934  13.570   9.447   5.404 -0.7414  0.8107  0.1780
  141MOL0     O18935  13.668   9.349   5.392  0.4515 -0.0669  0.6679
  141MOL0     C18936  13.758   9.361   5.278 -0.4328  0.5528 -0.7501
  141MOL0     C18937  13.860   9.244   5.283 -0.2898  0.6613  0.3315
  141MOL0     C18938  13.934   9.228   5.421 -0.5620  0.0412 -0.1880
  141MOL0     C18939  14.073   9.169   5.390 -0.5731 -0.0037 -0.4554
  141MOL0     C18940  14.154   9.126   5.508  0.1314  0.2577 -0.7286
  141MOL0     C18941  14.206   9.244   5.584  0.6457  0.1398 -0.5397
  141MOL0     C18942  14.260   9.210   5.720  0.0633 -0.0249  0.1582
  141MOL0     C18943  14.302   9.334   5.795 -0.4611  0.0108  0.5776
  141MOL0    Cl18944  14.350   9.291   5.959 -0.3738  0.2252 -0.1742
  141MOL0     C18945  13.455   9.413   5.472  0.2355  0.1476  0.0340
  141MOL0     C18946  13.356   9.509   5.473  1.3144  0.0440 -0.7238
  141MOL0     O18947  13.207   9.717   5.196 -0.0425 -0.3279  0.1073
  141MOL0     C18948  13.027   9.939   5.424 -0.4832 -0.2719  0.0513
  141MOL0     C18949  12.917  10.026   5.412 -0.5048 -0.3525  0.4721
  141MOL0     N18950  12.605  10.311   4.723 -0.5876 -0.0845 -0.1782
  141MOL0     N18951  12.502  10.308   4.644 -0.5132  0.1781  1.3499
  141MOL0     C18952  11.258  10.524   4.493  0.2300  0.7265 -0.0423
  141MOL0     C18953  11.122  10.506   4.487  0.6515 -0.1392 -0.3123
  141MOL0     C18954  10.701  10.360   4.458 -0.0734  0.4218  0.2082
  141MOL0     C18955  10.631  10.288   4.559 -0.5567 -0.3914 -0.6694
  141MOL0     C18956  10.493  10.271   4.561  1.0840 -0.4048  0.2609
  141MOL0     C18957  10.414  10.329   4.463 -0.0465 -0.0010  0.1120
  141MOL0     O18958  10.272  10.320   4.467 -0.1610 -0.0959  0.3821
  141MOL0     C18959  10.219  10.293   4.600 -0.3379  0.1110 -0.3549
  141MOL0     C18960  10.062  10.298   4.607  0.6440 -0.3105 -0.0126
  141MOL0     C18961  10.004  10.166   4.545  0.2510 -0.8266 -0.3280
  141MOL0     C18962   9.866  10.185   4.484  0.4681  0.1805  0.6852
  141MOL0     C18963   9.825  10.055   4.428  0.1278 -0.6037 -1.1302
  141MOL0     C18964   9.795   9.951   4.388  0.5018  0.0110  0.9941
  141MOL0     C18965  10.478  10.403   4.354 -0.8986  0.4201 -0.3383
  141MOL0     C18966  10.621  10.410   4.350 -0.2587 -0.6018 -0.5573
  141MOL0     C18967  10.681  10.490   4.238 -0.0220 -0.4815  0.1966
  141MOL0     H18968  11.118  10.234   4.279 -1.7885  2.7407 -2.9990
  141MOL0     H18969  11.344  10.249   4.292  0.8037 -1.6078  2.1643
  141MOL0     H18970  11.635  10.595   4.383 -1.4139 -2.5720 -2.4996
  141MOL0     H18971  11.467  10.670   4.404 -2.6386  0.3805  0.9026
  141MOL0     H18972  11.471  10.622   4.639 -0.5213 -0.8935 -0.6683
  141MOL0     H18973  11.621  10.703   4.607  0.5289 -0.3457 -2.8820
  141MOL0     H18974  11.623  10.398   4.616  0.6919  0.1361 -1.8879
  141MOL0     H18975  11.651  10.490   4.763  0.4641 -1.7337  0.1845
  141MOL0     H18976  11.813  10.498   4.495  2.6564 -0.9556  0.6863
  141MOL0     H18977  11.828  10.613   4.633 -2.1023  0.6693  1.4520
  141MOL0     H18978  11.878  10.399   4.761 -0.8126 -2.9309 -0.4368
  141MOL0     H18979  11.883  10.316   4.606 -0.1246  0.2143 -0.4121
  141MOL0     H18980  12.043  10.475   4.518  0.1700 -1.9366 -0.8155
  141MOL0     H18981  12.055  10.569   4.666  1.4109 -0.0236 -1.6255
  141MOL0     H18982  12.143  10.270   4.670  2.6478 -0.0891  1.2400
  141MOL0     H18983  12.141  10.387   4.794  0.7214  1.1374  0.5721
  141MOL0     H18984  12.298  10.388   4.525  0.9985 -0.9299  1.3808
  141MOL0     H18985  12.285  10.532   4.629 -0.9833  0.3351 -0.0499
  141MOL0     H18986  12.385  10.474   4.906 -0.7948  0.0529  0.3374
  141MOL0     H18987  12.763  10.378   4.922 -0.1696  1.4164 -1.2304
  141MOL0     H18988  12.633  10.447   5.029 -1.0667  0.5556 -1.5938
  141MOL0     H18989  12.609  10.149   4.968 -1.9150  2.0579 -1.1756
  141MOL0     H18990  12.746  10.208   5.064  0.0497  0.0988  3.5292
  141MOL0     H18991  12.455  10.231   5.164  0.0617 -0.5677  0.3974
  141MOL0     H18992  12.596  10.302   5.249 -1.6401 -2.5243  4.0250
  141MOL0     H18993  12.569  10.013   5.172  0.0605 -0.3571 -0.0352
  141MOL0     H18994  12.506  10.080   5.323  2.3822 -1.9773  1.4119
  141MOL0     H18995  12.765   9.888   5.158  1.2457 -0.9371 -0.9103
  141MOL0     H18996  12.957   9.759   5.153  0.1966  1.2981 -1.0025
  141MOL0     H18997  13.486   9.766   5.308  1.3014 -1.0763 -0.4833
  141MOL0     H18998  13.683   9.617   5.320  0.8736  1.0287  0.6431
  141MOL0     H18999  13.702   9.359   5.185 -0.1646 -1.8890 -0.9247
  141MOL0     H19000  13.820   9.452   5.278 -0.4033  0.5526  0.2459
  141MOL0     H19001  13.807   9.149   5.272  0.5457  0.1429  0.7037
  141MOL0     H19002  13.942   9.258   5.212 -0.5057 -2.3187 -0.6210
  141MOL0     H19003  13.933   9.319   5.481 -0.8457  0.9139 -1.4707
  141MOL0     H19004  13.873   9.164   5.486  0.7583  0.7092  1.7903
  141MOL0     H19005  14.137   9.238   5.334  0.4573 -2.0288 -1.9428
  141MOL0     H19006  14.060   9.080   5.327  1.7997 -2.4665  2.1918
  141MOL0     H19007  14.239   9.068   5.471  1.2335  0.5547  1.1555
  141MOL0     H19008  14.091   9.072   5.579  0.1931  2.1336  0.8370
  141MOL0     H19009  14.289   9.289   5.529  2.0044  1.4714  2.3606
  141MOL0     H19010  14.128   9.319   5.602  0.9531  0.0406  1.5319
  141MOL0     H19011  14.347   9.144   5.707  1.3325  1.8290 -1.3095
  141MOL0     H19012  14.184   9.152   5.773 -0.5070  0.5592 -0.0062
  141MOL0     H19013  14.387   9.383   5.748  0.1012 -1.0621  0.4544
  141MOL0     H19014  14.222   9.409   5.804  1.4157  2.1290  0.3327
  141MOL0     H19015  13.450   9.312   5.512 -1.0777  0.8293  1.6847
  141MOL0     H19016  13.265   9.479   5.524 -0.7860  0.5045 -3.9082
  141MOL0     H19017  13.107   9.957   5.495 -0.7605  0.7270  0.1266
  141MOL0     H19018  12.896  10.112   5.475 -1.6836 -1.2833  1.3929
  141MOL0     H19019  11.288  10.601   4.563  2.5444 -2.7786  3.1782
  141MOL0     H19020  11.046  10.560   4.542  0.2130 -2.7719  1.9105
  141MOL0     H19021  10.674  10.248   4.650  0.8682  0.7179 -0.8271
  141MOL0     H19022  10.460  10.211   4.646 -1.1131 -0.3766 -0.5301
  141MOL0     H19023  10.262  10.355   4.680 -0.4288  0.4807 -0.5909
  141MOL0     H19024  10.243  10.190   4.626  1.4105  0.0403 -2.0481
  141MOL0     H19025  10.015  10.388   4.565 -0.3907 -0.3508  1.0293
  141MOL0     H19026  10.034  10.302   4.712 -2.8103 -2.8621 -0.6896
  141MOL0     H19027   9.996  10.091   4.624  0.6875  0.0958  0.6022
  141MOL0     H19028  10.072  10.127   4.469 -0.6085 -0.6953 -1.1826
  141MOL0     H19029   9.790  10.226   4.551 -0.3183  2.3255 -1.3568
  141MOL0     H19030   9.868  10.248   4.394 -1.2994 -0.9226 -0.1791
  141MOL0     H19031   9.773   9.860   4.336  5.4370 -0.7990 -0.1225
  141MOL0     H19032  10.412  10.440   4.276 -0.5068  2.2203  0.1350
  141MOL0     H19033  10.776  10.443   4.212  0.8484  1.4890 -0.3931
  141MOL0     H19034  10.623  10.479   4.145  2.5535 -4.0380 -1.2182
  141MOL0     H19035  10.698  10.597   4.254  0.9777 -0.5777 -0.1771
  142MOL0     O19036   7.372   7.649  10.585 -0.3042 -0.1620 -0.7513
  142MOL0     C19037   7.360   7.539  10.641  0.3590  0.0819  0.9067
  142MOL0     O19038   7.466   7.464  10.673  0.3717 -0.2662  0.2951
  142MOL0     C19039   7.591   7.480  10.641  0.9534 -0.0295  1.4246
  142MOL0     C19040   7.669   7.376  10.628 -0.8245 -0.5494  0.0604
  142MOL0     C19041   7.807   7.395  10.597  0.5997 -0.3966 -0.2855
  142MOL0     C19042   7.865   7.526  10.600  0.9153  1.0015 -0.6854
  142MOL0     O19043   8.001   7.552  10.575 -0.1077 -0.2137 -0.5304
  142MOL0     C19044   8.087   7.443  10.531 -0.5152 -0.4650  0.8057
  142MOL0     C19045   8.210   7.514  10.479 -0.0621  0.1657 -0.0616
  142MOL0     C19046   8.319   7.417  10.445 -0.9517  0.7244  0.9007
  142MOL0     C19047   8.442   7.400  10.541  0.0189 -1.0796  0.2048
  142MOL0     C19048   8.534   7.524  10.541 -0.0081 -0.3274  0.1303
  142MOL0     C19049   8.598   7.562  10.403 -0.2331  0.3748  0.1044
  142MOL0     C19050   8.727   7.649  10.420 -0.4415  0.3601  0.6119
  142MOL0     C19051   8.848   7.581  10.488  0.5926  0.1669 -0.0164
  142MOL0     N19052   8.942   7.682  10.525  0.3132 -0.6067 -0.1278
  142MOL0     C19053   9.018   7.684  10.640 -1.2656 -0.3476 -1.2479
  142MOL0     C19054   9.106   7.782  10.629 -0.0200  0.1959  0.0651
  142MOL0     C19055   9.223   7.815  10.719  0.1652 -0.2333 -0.5407
  142MOL0     C19056   9.359   7.770  10.675 -1.5685 -0.0103  0.0632
  142MOL0     C19057   9.400   7.843  10.542  0.4255 -0.7749  0.7607
  142MOL0     C19058   9.548   7.844  10.525 -0.7960 -0.1322  0.5081
  142MOL0     O19059   9.573   7.862  10.378 -0.5279  0.6606 -0.7219
  142MOL0     C19060   9.703   7.844  10.341 -0.9219  0.3551  0.6455
  142MOL0     C19061   9.726   7.844  10.207 -0.6147 -0.2891  0.2008
  142MOL0     C19062   9.855   7.846  10.152  0.2521  0.4013 -0.3451
  142MOL0     C19063   9.965   7.833  10.238 -0.4965  0.5908  0.6756
  142MOL0     C19064  10.103   7.805  10.179  0.1075  0.2420 -0.2002
  142MOL0     O19065  10.199   7.750  10.270 -0.4774  0.4523  0.3909
  142MOL0     C19066  10.317   7.690  10.221  0.4889 -0.0084 -0.6640
  142MOL0     C19067  10.428   7.693  10.296 -0.0281  0.1187  0.0461
  142MOL0     C19068  10.549   7.629  10.258 -0.1430 -0.4314  0.9701
  142MOL0     C19069  10.558   7.570  10.131  0.4191 -0.2296  0.5650
  142MOL0     O19070  10.670   7.516  10.076 -0.3843 -0.3593  0.7431
  142MOL0     C19071  10.784   7.509  10.163  0.2971  0.2817 -0.0054
  142MOL0     C19072  10.902   7.424  10.097  0.2369 -1.4252  1.0104
  142MOL0     C19073  11.002   7.417  10.203 -0.4162  1.0953  0.0017
  142MOL0     C19074  11.139   7.354  10.154 -1.3793 -0.5953 -0.5108
  142MOL0     C19075  11.248   7.364  10.260 -0.5199  0.5522  0.4047
  142MOL0     C19076  11.222   7.284  10.390  0.2611 -0.2665  0.5247
  142MOL0     C19077  11.345   7.290  10.470 -0.8534  0.0470  0.3160
  142MOL0     C19078  11.340   7.226  10.608  0.7299  0.5647 -0.3666
  142MOL0    Cl19079  11.275   7.062  10.604 -0.1735  0.1904 -0.0135
  142MOL0     C19080  10.444   7.563  10.055 -0.2900 -0.1953 -0.3791
  142MOL0     C19081  10.329   7.613  10.108  0.0928 -0.1174  0.0171
  142MOL0     O19082  10.125   7.823  10.059  0.0063 -0.6434 -0.2803
  142MOL0     C19083   9.946   7.830  10.375  0.1502 -0.1950  1.0918
  142MOL0     C19084   9.819   7.834  10.421  0.1574 -0.8275 -0.2970
  142MOL0     N19085   9.080   7.842  10.509  0.2687  0.0518  0.0710
  142MOL0     N19086   8.984   7.776  10.445 -0.4736  0.2454  0.6728
  142MOL0     C19087   7.778   7.630  10.623  0.5569  0.3027  0.1642
  142MOL0     C19088   7.646   7.609  10.640  0.4852 -0.0277 -0.1651
  142MOL0     C19089   7.220   7.469  10.649  0.0129  0.1445  0.0685
  142MOL0     C19090   7.217   7.332  10.691  0.0733 -0.7545 -0.3000
  142MOL0     C19091   7.094   7.259  10.683 -0.0566 -0.4187  0.4416
  142MOL0     C19092   6.980   7.311  10.630  0.4487 -0.0657  0.0302
  142MOL0     O19093   6.865   7.226  10.603  0.6486  0.0352 -0.0663
  142MOL0     C19094   6.746   7.280  10.535  0.0389  0.3425  0.0799
  142MOL0     C19095   6.667   7.375  10.615 -0.0690 -0.4771 -0.4382
  142MOL0     C19096   6.572   7.458  10.519 -0.1981  0.1879 -0.2292
  142MOL0     C19097   6.534   7.598  10.572  0.4221  0.2575 -0.6542
  142MOL0     C19098   6.644   7.681  10.620 -0.7763 -0.8623  0.6350
  142MOL0     C19099   6.735   7.760  10.661  0.1908  0.9908  0.1274
  142MOL0     C19100   6.982   7.452  10.601  0.3910 -0.0251 -0.5008
  142MOL0     C19101   7.097   7.527  10.616 -0.6811  0.0601 -0.2814
  142MOL0     C19102   7.098   7.669  10.565  0.1948  0.0494 -0.2075
  142MOL0     H19103   7.626   7.278  10.646 -0.4580 -1.2246 -2.4184
  142MOL0     H19104   7.866   7.307  10.574  0.5822  0.1746 -2.8740
  142MOL0     H19105   8.104   7.375  10.616  0.7925 -0.9512  0.1824
  142MOL0     H19106   8.044   7.379  10.453  1.5359 -0.0387 -0.7489
  142MOL0     H19107   8.263   7.584  10.544 -1.2554  0.9247  0.1294
  142MOL0     H19108   8.170   7.576  10.399 -2.3870 -0.5833  0.4198
  142MOL0     H19109   8.343   7.446  10.343 -0.7636 -2.5276 -0.0965
  142MOL0     H19110   8.266   7.321  10.440 -0.3819  0.4269  0.3343
  142MOL0     H19111   8.408   7.390  10.645  0.9928 -1.0562  0.5406
  142MOL0     H19112   8.493   7.307  10.519 -0.3220 -0.6159 -2.9707
  142MOL0     H19113   8.466   7.606  10.565  0.5102  0.4211 -0.8730
  142MOL0     H19114   8.609   7.511  10.619 -0.5897  0.3845  0.8276
  142MOL0     H19115   8.628   7.467  10.359  0.3357  0.5619  0.0767
  142MOL0     H19116   8.530   7.621  10.341  0.8793  0.5388 -0.9943
  142MOL0     H19117   8.693   7.743  10.464 -1.0414  1.0145 -1.1628
  142MOL0     H19118   8.763   7.680  10.321  0.4378  0.7906  1.0448
  142MOL0     H19119   8.806   7.522  10.569 -2.2317 -2.3934 -3.0426
  142MOL0     H19120   8.897   7.516  10.414 -0.3581 -1.8454  1.0485
  142MOL0     H19121   9.022   7.606  10.715  2.2089 -1.8942 -2.8097
  142MOL0     H19122   9.216   7.923  10.736 -0.4055 -0.2922 -0.4060
  142MOL0     H19123   9.217   7.749  10.807  1.1782 -1.3478 -1.2644
  142MOL0     H19124   9.431   7.808  10.749 -0.3958 -1.4714 -0.2659
  142MOL0     H19125   9.378   7.664  10.657 -4.6531 -0.3097 -2.1040
  142MOL0     H19126   9.361   7.945  10.545 -2.6644 -1.5914 -3.1444
  142MOL0     H19127   9.349   7.806  10.453 -0.7468  0.9286  0.6937
  142MOL0     H19128   9.588   7.745  10.547 -1.3615 -0.6770 -0.7891
  142MOL0     H19129   9.605   7.916  10.583  1.5361 -1.7202  0.3252
  142MOL0     H19130   9.639   7.850  10.143 -1.8259  1.7284  1.8807
  142MOL0     H19131   9.853   7.846  10.044 -0.1924  2.6416 -0.3746
  142MOL0     H19132  10.428   7.747  10.390  3.1088 -1.8737  1.3561
  142MOL0     H19133  10.627   7.650  10.331 -0.3943 -0.8307  1.3597
  142MOL0     H19134  10.829   7.605  10.190 -0.6139  0.2391  1.8452
  142MOL0     H19135  10.760   7.455  10.255  0.3572  0.1738 -0.0521
  142MOL0     H19136  10.869   7.326  10.060 -2.5607  0.2162 -1.2789
  142MOL0     H19137  10.942   7.483  10.014  0.7002  1.4168  3.1254
  142MOL0     H19138  11.032   7.514  10.244  0.2702  0.7954  0.2260
  142MOL0     H19139  10.952   7.357  10.280 -0.3820  1.7716  0.5518
  142MOL0     H19140  11.169   7.413  10.067 -0.9648  0.8973  0.6005
  142MOL0     H19141  11.125   7.251  10.120  0.2288 -1.1071  0.2421
  142MOL0     H19142  11.278   7.465  10.287  3.6046 -0.0785 -1.0907
  142MOL0     H19143  11.344   7.329  10.221 -0.9708 -0.9387  0.5422
  142MOL0     H19144  11.138   7.312  10.453 -0.0560 -1.9329  0.9054
  142MOL0     H19145  11.205   7.179  10.362 -0.0198 -0.0946  0.0450
  142MOL0     H19146  11.380   7.393  10.480  0.1187 -0.1677 -0.6493
  142MOL0     H19147  11.425   7.241  10.413  0.9263  1.5590  1.4289
  142MOL0     H19148  11.445   7.222  10.638  1.4715 -3.0835 -2.8253
  142MOL0     H19149  11.284   7.284  10.681 -2.9570 -1.8100 -1.0717
  142MOL0     H19150  10.442   7.509   9.960  0.5773 -1.5500  0.3434
  142MOL0     H19151  10.238   7.610  10.049 -0.4414 -0.3989  0.8238
  142MOL0     H19152  10.022   7.809  10.449  0.4299  1.9522  1.4746
  142MOL0     H19153   9.805   7.820  10.527 -1.3968  0.9793 -0.2055
  142MOL0     H19154   7.822   7.729  10.619  1.3385  0.0594  1.7552
  142MOL0     H19155   7.588   7.696  10.668  1.0788  0.3636 -0.1612
  142MOL0     H19156   7.305   7.276  10.723  0.9236  1.6178  1.8432
  142MOL0     H19157   7.091   7.154  10.709 -4.7191  0.0734  2.8985
  142MOL0     H19158   6.684   7.202  10.490  2.2587 -0.5620 -1.5986
  142MOL0     H19159   6.780   7.333  10.445 -1.1136 -0.4044 -0.8201
  142MOL0     H19160   6.729   7.449  10.667 -1.3378  0.7875 -0.6765
  142MOL0     H19161   6.599   7.324  10.684  1.3530 -0.5044  1.0163
  142MOL0     H19162   6.473   7.413  10.507 -0.0940  0.0820 -0.7110
  142MOL0     H19163   6.602   7.475  10.415 -4.3240 -1.5515 -1.9039
  142MOL0     H19164   6.485   7.643  10.486 -2.3108 -0.7834  0.2663
  142MOL0     H19165   6.462   7.592  10.654  0.4043  2.7521 -0.4036
  142MOL0     H19166   6.806   7.830  10.699 -1.8377  3.1981  0.1014
  142MOL0     H19167   6.894   7.497  10.557  0.1134 -0.9232 -0.9038
  142MOL0     H19168   7.156   7.733  10.632 -0.4786  0.9551 -0.4801
  142MOL0     H19169   7.132   7.674  10.461  2.6435 -1.0620  0.4438
  142MOL0     H19170   6.995   7.704  10.557 -0.0154 -0.1500  1.3256
  143MOL0     O19171   8.523   8.424   2.601 -0.2186  0.1679 -0.2600
  143MOL0     C19172   8.563   8.402   2.713 -0.5908  0.5547 -0.4166
  143MOL0     O19173   8.662   8.478   2.774 -0.0619 -0.1412  0.0696
  143MOL0     C19174   8.741   8.572   2.704 -0.2007 -0.9049  0.0198
  143MOL0     C19175   8.704   8.649   2.592 -0.0067 -0.4247  0.5051
  143MOL0     C19176   8.797   8.730   2.523 -0.5286  0.2812  0.5803
  143MOL0     C19177   8.924   8.741   2.574  0.2146  0.1382 -0.5247
  143MOL0     O19178   9.028   8.827   2.528 -0.4748  0.2247  0.0915
  143MOL0     C19179   9.035   8.844   2.387 -0.2994  0.7408  0.9647
  143MOL0     C19180   9.099   8.721   2.318  0.1059 -0.5130  0.2830
  143MOL0     C19181   9.134   8.730   2.177  0.5829  0.2474  0.7734
  143MOL0     C19182   9.012   8.713   2.078 -0.3554  0.8538 -0.3910
  143MOL0     C19183   9.051   8.668   1.938  0.4791 -0.0928 -0.2918
  143MOL0     C19184   9.103   8.782   1.849 -0.7492 -0.1619  0.4399
  143MOL0     C19185   9.143   8.734   1.708  0.4318 -0.1700  0.1076
  143MOL0     C19186   9.231   8.835   1.634  0.1022  0.7993 -0.5187
  143MOL0     N19187   9.179   8.968   1.657  0.0871 -0.5460  0.6329
  143MOL0     C19188   9.067   9.032   1.600 -0.3573 -0.2965  0.5487
  143MOL0     C19189   9.068   9.154   1.652 -0.6284  0.0558 -0.2048
  143MOL0     C19190   8.980   9.272   1.628  0.8904 -0.1496 -0.1518
  143MOL0     C19191   8.824   9.252   1.657  0.6615  0.7662  0.3683
  143MOL0     C19192   8.738   9.351   1.587 -0.1777  1.0078 -0.0942
  143MOL0     C19193   8.585   9.348   1.596  0.3008  0.1476  0.1238
  143MOL0     O19194   8.531   9.245   1.510 -0.6625 -0.3098  0.3262
  143MOL0     C19195   8.397   9.224   1.534  0.0970  0.3183 -0.2971
  143MOL0     C19196   8.351   9.098   1.491  0.1808 -0.0828  0.1401
  143MOL0     C19197   8.213   9.068   1.502 -0.0508  0.2202 -0.9428
  143MOL0     C19198   8.117   9.160   1.550  0.2584 -0.3145  0.0519
  143MOL0     C19199   7.981   9.105   1.573 -0.3553 -0.6026 -0.1332
  143MOL0     O19200   7.948   8.996   1.505 -0.2877 -0.1165 -0.1904
  143MOL0     C19201   7.815   8.960   1.526 -0.0682 -0.7621 -0.6610
  143MOL0     C19202   7.786   8.828   1.577  0.0275 -0.4830  0.2838
  143MOL0     C19203   7.659   8.788   1.595  0.6258 -0.0869  0.0380
  143MOL0     C19204   7.551   8.878   1.569  0.9919  0.4718 -0.4482
  143MOL0     O19205   7.418   8.851   1.596 -0.2344  0.2449 -0.1322
  143MOL0     C19206   7.381   8.726   1.646 -0.0395 -0.1544  0.2374
  143MOL0     C19207   7.230   8.720   1.619 -0.0900  0.2415  0.5114
  143MOL0     C19208   7.177   8.584   1.665  0.3164  0.5180  0.0045
  143MOL0     C19209   7.032   8.559   1.616 -0.2323  0.7276 -0.4578
  143MOL0     C19210   6.968   8.451   1.703 -0.3790  0.6398 -0.0010
  143MOL0     C19211   6.819   8.440   1.665 -1.0105  0.3596 -0.2590
  143MOL0     C19212   6.740   8.337   1.740 -0.4356  0.0500 -0.5642
  143MOL0     C19213   6.592   8.345   1.701  0.3733  0.3014 -0.3673
  143MOL0    Cl19214   6.485   8.229   1.791  0.2572 -0.2520 -0.6393
  143MOL0     C19215   7.573   9.000   1.520 -1.2391  0.3841  0.0221
  143MOL0     C19216   7.703   9.044   1.494  0.5329 -0.2334  0.1995
  143MOL0     O19217   7.904   9.171   1.641 -0.1878 -0.4750 -1.3364
  143MOL0     C19218   8.163   9.288   1.595  0.3711  0.7557  0.0819
  143MOL0     C19219   8.302   9.308   1.584  0.6386 -0.4158  0.1385
  143MOL0     N19220   9.185   9.165   1.731  0.1768  0.7051  0.2189
  143MOL0     N19221   9.254   9.061   1.722 -0.6371  0.1888  0.7634
  143MOL0     C19222   8.951   8.673   2.688 -0.3111  0.3723 -1.1472
  143MOL0     C19223   8.863   8.586   2.760  0.7008 -0.5248 -0.1306
  143MOL0     C19224   8.495   8.291   2.783 -0.2240  0.2231 -0.0703
  143MOL0     C19225   8.578   8.233   2.889  0.2489  0.3163  0.4105
  143MOL0     C19226   8.531   8.139   2.984 -1.4751 -0.0352 -0.0640
  143MOL0     C19227   8.393   8.111   2.998  0.1072  0.0085 -0.1555
  143MOL0     O19228   8.350   8.025   3.101 -0.4043 -0.8316  1.7134
  143MOL0     C19229   8.208   8.008   3.128 -0.4495  0.8548  0.2603
  143MOL0     C19230   8.140   7.883   3.057 -0.3828 -0.0393  0.4635
  143MOL0     C19231   7.979   7.904   3.047  0.1315  0.5950  0.4291
  143MOL0     C19232   7.918   7.882   2.913 -0.7181  0.4324 -0.2167
  143MOL0     C19233   7.943   7.993   2.825  0.2317  0.0887 -0.0640
  143MOL0     C19234   7.937   8.083   2.747  0.2910 -0.1078  0.4002
  143MOL0     C19235   8.305   8.176   2.898 -0.4445 -0.1888 -0.8730
  143MOL0     C19236   8.358   8.262   2.793  0.0567  0.5902  0.5072
  143MOL0     C19237   8.260   8.313   2.696 -0.2707 -0.1146  0.3439
  143MOL0     H19238   8.604   8.635   2.552 -0.3431 -0.5987  1.3846
  143MOL0     H19239   8.768   8.787   2.434 -1.6560 -0.7818  0.2439
  143MOL0     H19240   8.937   8.863   2.342  0.8717  1.2633 -1.5191
  143MOL0     H19241   9.098   8.931   2.365  0.9174  0.4956  3.2199
  143MOL0     H19242   9.021   8.644   2.326 -1.5388  1.1429  1.0787
  143MOL0     H19243   9.192   8.698   2.370  1.9202  1.5340 -1.8680
  143MOL0     H19244   9.190   8.637   2.162 -2.2541 -1.2408 -1.7493
  143MOL0     H19245   9.194   8.820   2.162 -0.6336  0.9970  0.2883
  143MOL0     H19246   8.949   8.638   2.127 -0.7353  0.3590 -1.5919
  143MOL0     H19247   8.953   8.805   2.076 -1.2324  0.3482  0.7105
  143MOL0     H19248   9.124   8.587   1.936  2.5503  1.6750 -0.1700
  143MOL0     H19249   8.958   8.635   1.891  0.5301  0.1395 -0.5553
  143MOL0     H19250   9.025   8.858   1.840  1.1902  2.1321  1.7031
  143MOL0     H19251   9.195   8.825   1.890 -0.3420 -0.8249  0.2250
  143MOL0     H19252   9.051   8.721   1.651  1.9781  1.4415 -2.9844
  143MOL0     H19253   9.200   8.640   1.707 -1.7761 -1.6692 -3.5475
  143MOL0     H19254   9.335   8.838   1.668 -0.5592 -1.2190  1.9938
  143MOL0     H19255   9.222   8.797   1.532 -0.7395  0.5363 -0.3510
  143MOL0     H19256   8.990   9.001   1.529  0.0075 -1.1973  0.5323
  143MOL0     H19257   9.020   9.347   1.697 -0.8314 -1.0003  1.8897
  143MOL0     H19258   8.988   9.299   1.522 -2.8093 -3.8852 -1.6738
  143MOL0     H19259   8.795   9.153   1.621  0.6944  1.5226 -1.9559
  143MOL0     H19260   8.815   9.254   1.766  2.9048 -0.1020  0.6082
  143MOL0     H19261   8.765   9.354   1.481 -0.2343 -3.4917 -0.4291
  143MOL0     H19262   8.771   9.436   1.647 -0.6672  0.3795  1.1004
  143MOL0     H19263   8.550   9.442   1.552  0.2072 -0.4105 -1.0345
  143MOL0     H19264   8.557   9.347   1.701  0.7628  0.9596  0.2642
  143MOL0     H19265   8.421   9.034   1.438  0.1764 -1.1519  1.3766
  143MOL0     H19266   8.185   8.968   1.471  1.4156  0.1587 -2.1783
  143MOL0     H19267   7.870   8.769   1.612  0.7059  0.5486  0.4477
  143MOL0     H19268   7.639   8.706   1.663  0.4415  1.3768  1.8280
  143MOL0     H19269   7.431   8.643   1.595  0.9341  0.5810 -0.0330
  143MOL0     H19270   7.408   8.729   1.752  5.0036  1.0943 -0.7852
  143MOL0     H19271   7.181   8.801   1.674  1.0706  1.0105  0.4438
  143MOL0     H19272   7.204   8.737   1.514 -0.2445 -0.0114  0.5077
  143MOL0     H19273   7.235   8.500   1.627 -1.9005 -0.7916 -0.6704
  143MOL0     H19274   7.187   8.573   1.774 -1.1454  1.6199  0.2833
  143MOL0     H19275   7.022   8.528   1.511  2.6117 -0.0899 -0.5859
  143MOL0     H19276   6.971   8.648   1.634  0.2999  1.0802 -0.3465
  143MOL0     H19277   6.984   8.484   1.806  0.4549  1.5517 -0.4022
  143MOL0     H19278   7.022   8.359   1.678  0.5855  1.3146 -0.5069
  143MOL0     H19279   6.786   8.540   1.693 -1.9949  1.2043 -3.8862
  143MOL0     H19280   6.814   8.428   1.556  0.9431 -1.6014 -0.2065
  143MOL0     H19281   6.758   8.345   1.848  0.7579  1.0110 -0.8202
  143MOL0     H19282   6.782   8.239   1.715  0.1808  0.2376 -0.2878
  143MOL0     H19283   6.551   8.444   1.724 -0.5106 -0.3873  1.2161
  143MOL0     H19284   6.574   8.328   1.594  2.2290 -2.3952 -0.3557
  143MOL0     H19285   7.495   9.073   1.501 -0.6940  1.4159  1.5690
  143MOL0     H19286   7.698   9.143   1.450 -0.6722 -0.6002 -0.5458
  143MOL0     H19287   8.088   9.363   1.620 -1.5009 -0.4288 -1.6601
  143MOL0     H19288   8.332   9.411   1.600  2.5347 -0.7140 -1.1810
  143MOL0     H19289   9.046   8.683   2.741 -0.3252 -3.0108 -0.1945
  143MOL0     H19290   8.876   8.515   2.841 -1.0354 -0.6754  0.0466
  143MOL0     H19291   8.684   8.254   2.888  0.1090  1.0931  0.7487
  143MOL0     H19292   8.595   8.087   3.055 -2.0022 -1.0055 -0.2836
  143MOL0     H19293   8.148   8.094   3.098 -2.3202 -0.7038 -0.7118
  143MOL0     H19294   8.217   8.007   3.237  3.1607  0.9229  0.0997
  143MOL0     H19295   8.159   7.790   3.112  0.0536  1.6651  3.4028
  143MOL0     H19296   8.182   7.868   2.957 -0.0710  0.7249  0.4782
  143MOL0     H19297   7.946   8.001   3.085 -1.1201  0.4067 -0.1292
  143MOL0     H19298   7.918   7.829   3.098 -0.6351  0.8007 -0.1678
  143MOL0     H19299   7.972   7.801   2.861 -2.1399  0.6175 -2.0915
  143MOL0     H19300   7.812   7.861   2.924 -0.1279 -3.2660 -0.2645
  143MOL0     H19301   7.935   8.150   2.664 -1.5216 -1.4919 -0.7500
  143MOL0     H19302   8.198   8.158   2.903 -0.8102  1.7904 -0.9711
  143MOL0     H19303   8.304   8.327   2.596 -1.3203  0.8147 -0.0092
  143MOL0     H19304   8.161   8.267   2.695 -0.4772  0.3043  1.0761
  143MOL0     H19305   8.246   8.419   2.720 -1.0730 -0.1489  0.0584
  144MOL0     O19306   6.425   2.883   4.072 -0.3089  0.6583 -0.0021
  144MOL0     C19307   6.326   2.812   4.085  0.3627 -0.4170 -0.1905
  144MOL0     O19308   6.337   2.681   4.116  0.1949 -0.4250  0.1556
  144MOL0     C19309   6.453   2.619   4.150 -0.1328  0.1754  0.3947
  144MOL0     C19310   6.525   2.547   4.061 -0.5124 -0.3891  0.7248
  144MOL0     C19311   6.645   2.479   4.097  0.3840 -0.2279 -0.1351
  144MOL0     C19312   6.675   2.474   4.234 -0.9137  0.3582  0.1236
  144MOL0     O19313   6.780   2.410   4.295  0.4949 -0.3775  0.1954
  144MOL0     C19314   6.808   2.273   4.258  0.5782  0.2272  0.2096
  144MOL0     C19315   6.934   2.217   4.325  0.0304  0.7236  0.6147
  144MOL0     C19316   7.061   2.271   4.266  0.0400  0.2933 -0.5415
  144MOL0     C19317   7.180   2.223   4.344 -0.4384 -0.3827  0.5496
  144MOL0     C19318   7.314   2.277   4.289  0.0971 -0.5121 -0.1403
  144MOL0     C19319   7.438   2.216   4.364 -0.9455 -0.5441 -0.5253
  144MOL0     C19320   7.568   2.260   4.289 -0.6098  0.3750  0.2609
  144MOL0     C19321   7.685   2.202   4.369  0.2047  0.4974 -1.0008
  144MOL0     N19322   7.810   2.242   4.312 -0.5785 -0.4192  0.0496
  144MOL0     C19323   7.896   2.160   4.244  0.2843  0.3785  0.2043
  144MOL0     C19324   8.010   2.235   4.236 -0.3483  0.5627  0.3154
  144MOL0     C19325   8.136   2.185   4.166 -0.2567  0.5296  0.7313
  144MOL0     C19326   8.221   2.089   4.265  0.3093  0.0202  0.2681
  144MOL0     C19327   8.364   2.064   4.224  0.4541 -0.2241  0.0384
  144MOL0     C19328   8.457   2.181   4.224 -0.1703 -0.7662  0.4248
  144MOL0     O19329   8.475   2.223   4.360  0.6650 -0.2861  0.3474
  144MOL0     C19330   8.583   2.310   4.391 -0.0703 -0.0561 -0.2878
  144MOL0     C19331   8.682   2.364   4.315  0.1023  0.4205 -0.5942
  144MOL0     C19332   8.779   2.447   4.373  0.4283  0.1468  0.2605
  144MOL0     C19333   8.786   2.471   4.511 -0.0124 -0.7927 -0.2717
  144MOL0     C19334   8.913   2.536   4.566  0.5991 -0.2175 -0.6371
  144MOL0     O19335   9.031   2.512   4.502  0.2840 -0.4096 -0.2055
  144MOL0     C19336   9.150   2.579   4.535 -0.4488  0.4562  0.1372
  144MOL0     C19337   9.231   2.599   4.424  0.7769 -0.1180 -0.6274
  144MOL0     C19338   9.358   2.656   4.441  0.9133  0.5213 -0.3193
  144MOL0     C19339   9.399   2.693   4.569  0.6044  0.3394 -0.8200
  144MOL0     O19340   9.518   2.753   4.604  0.5880  0.1750  0.3836
  144MOL0     C19341   9.590   2.845   4.519  0.4618 -0.5769 -0.5607
  144MOL0     C19342   9.731   2.857   4.559 -0.1929 -0.3441 -0.2939
  144MOL0     C19343   9.744   2.928   4.685 -0.4490 -0.0600  0.7464
  144MOL0     C19344   9.886   2.952   4.726 -0.6335  0.1999  0.8155
  144MOL0     C19345   9.968   3.063   4.657 -0.2642 -0.1166 -0.1027
  144MOL0     C19346  10.096   3.111   4.737  0.2922  0.5060  0.4284
  144MOL0     C19347  10.170   3.201   4.650 -0.5712  0.0503  0.0303
  144MOL0     C19348  10.304   3.231   4.702 -0.0187 -0.0609  0.5081
  144MOL0    Cl19349  10.392   3.076   4.720  0.4700 -0.5735 -0.0418
  144MOL0     C19350   9.314   2.678   4.683 -0.2321 -0.7126  0.0279
  144MOL0     C19351   9.188   2.622   4.670 -1.4819 -0.2293 -0.0395
  144MOL0     O19352   8.893   2.606   4.662 -1.2633  0.0517  0.2733
  144MOL0     C19353   8.681   2.422   4.593 -0.2107  0.3161 -0.7237
  144MOL0     C19354   8.586   2.335   4.531 -0.3845  0.2345 -0.8206
  144MOL0     N19355   7.992   2.359   4.295 -0.8846  0.6425  0.1873
  144MOL0     N19356   7.869   2.359   4.344 -0.6798 -0.0553 -0.1526
  144MOL0     C19357   6.599   2.544   4.325  0.2351 -0.1206  0.4043
  144MOL0     C19358   6.484   2.613   4.287  0.1700  0.5292  0.0589
  144MOL0     C19359   6.188   2.862   4.058  0.0935 -0.6596  0.7698
  144MOL0     C19360   6.085   2.757   4.058 -0.0328  0.4096 -0.0479
  144MOL0     C19361   5.953   2.794   4.038 -0.6792 -0.5929 -0.0248
  144MOL0     C19362   5.925   2.928   3.992  0.8716 -0.5290  0.4501
  144MOL0     O19363   5.797   2.970   3.978 -0.5565  0.5479  0.3242
  144MOL0     C19364   5.694   2.876   4.020  0.6620  0.6513 -0.6120
  144MOL0     C19365   5.569   2.952   3.998  0.3010  0.2502  0.9069
  144MOL0     C19366   5.443   2.860   4.036 -0.4568 -0.3616 -0.3088
  144MOL0     C19367   5.326   2.932   3.995  0.2339  0.0027  1.2013
  144MOL0     C19368   5.315   2.926   3.854  0.1714 -0.5925  1.3175
  144MOL0     C19369   5.289   2.893   3.738 -0.0079  0.6165 -0.1024
  144MOL0     C19370   6.023   3.015   3.960 -0.0347 -0.0177  0.3290
  144MOL0     C19371   6.152   2.995   4.003 -0.8574 -0.6120 -0.0238
  144MOL0     C19372   6.259   3.109   3.989 -0.2693 -0.0255  0.0924
  144MOL0     H19373   6.499   2.543   3.956 -0.6652  1.3497  0.6748
  144MOL0     H19374   6.706   2.424   4.026 -0.5810 -1.1900 -0.2392
  144MOL0     H19375   6.723   2.215   4.294  1.2092 -3.3913 -3.4101
  144MOL0     H19376   6.808   2.255   4.150 -1.5934 -0.0278  0.2236
  144MOL0     H19377   6.929   2.107   4.326 -0.6523  0.7443  0.3382
  144MOL0     H19378   6.935   2.250   4.429  2.0561  2.4127  0.1169
  144MOL0     H19379   7.058   2.380   4.269  1.3187  0.4116 -2.0251
  144MOL0     H19380   7.066   2.241   4.160  0.0417  2.1188 -1.0893
  144MOL0     H19381   7.178   2.256   4.448  3.1940 -0.2189  0.7143
  144MOL0     H19382   7.185   2.114   4.337  1.2986 -0.2977 -0.1709
  144MOL0     H19383   7.325   2.246   4.184  0.2117 -0.7577 -0.0554
  144MOL0     H19384   7.320   2.386   4.288  1.0401 -0.5560 -1.1859
  144MOL0     H19385   7.439   2.254   4.467 -1.6670  1.0543 -1.0796
  144MOL0     H19386   7.426   2.107   4.363  0.0455 -0.6634 -0.8635
  144MOL0     H19387   7.573   2.369   4.280  0.2281  0.4321  1.2614
  144MOL0     H19388   7.564   2.213   4.190 -5.4129 -0.2297  0.5457
  144MOL0     H19389   7.664   2.236   4.471 -1.9416  0.2588 -1.3057
  144MOL0     H19390   7.687   2.093   4.371 -2.1083  0.3454 -2.7665
  144MOL0     H19391   7.873   2.062   4.204 -0.8634  0.7769 -0.1543
  144MOL0     H19392   8.116   2.131   4.073 -0.6056  0.0229  1.1008
  144MOL0     H19393   8.201   2.265   4.129  0.5687  0.6946  2.4679
  144MOL0     H19394   8.224   2.135   4.365 -3.9199  0.3447  0.4354
  144MOL0     H19395   8.166   1.994   4.272 -1.1526  0.8713  0.9078
  144MOL0     H19396   8.367   2.028   4.121  0.9618  2.7295 -1.0810
  144MOL0     H19397   8.411   1.988   4.287  0.0092  0.0944  0.7763
  144MOL0     H19398   8.412   2.267   4.172 -1.9167 -1.0735  1.3329
  144MOL0     H19399   8.552   2.160   4.176 -0.8001 -2.4433 -0.1440
  144MOL0     H19400   8.689   2.324   4.214 -1.2929 -1.8159  0.1056
  144MOL0     H19401   8.851   2.483   4.301  1.8087 -0.9450  1.0403
  144MOL0     H19402   9.208   2.562   4.324  0.8583 -0.3037 -0.5766
  144MOL0     H19403   9.406   2.693   4.351 -1.1118 -0.0122 -1.6904
  144MOL0     H19404   9.592   2.819   4.413  0.8496  0.8235 -0.9118
  144MOL0     H19405   9.533   2.937   4.534 -1.2202 -1.9155  2.4202
  144MOL0     H19406   9.764   2.756   4.587 -0.1085 -1.3374 -3.5982
  144MOL0     H19407   9.791   2.897   4.477  1.6848 -1.0720  0.6581
  144MOL0     H19408   9.703   3.029   4.674 -1.8980 -0.5217  1.5908
  144MOL0     H19409   9.695   2.876   4.768 -1.4259  0.7298  0.6796
  144MOL0     H19410   9.952   2.866   4.714  0.7602  1.5695 -2.2612
  144MOL0     H19411   9.879   2.970   4.834  0.8057  1.1031  0.7878
  144MOL0     H19412   9.906   3.150   4.634 -0.2892 -0.5211 -1.6570
  144MOL0     H19413   9.995   3.024   4.559 -0.1737  2.7738 -1.3446
  144MOL0     H19414  10.056   3.164   4.824 -0.0831 -0.1103  0.6393
  144MOL0     H19415  10.154   3.030   4.782  0.4493  1.2649  1.6445
  144MOL0     H19416  10.108   3.291   4.636 -0.8586 -0.0196  0.8006
  144MOL0     H19417  10.176   3.166   4.547 -1.8230  1.9105 -0.7338
  144MOL0     H19418  10.366   3.295   4.640  1.7400 -0.2563  1.9797
  144MOL0     H19419  10.305   3.274   4.802  3.1252  0.3115  0.4324
  144MOL0     H19420   9.354   2.697   4.782  0.9264 -2.0553 -0.1580
  144MOL0     H19421   9.125   2.603   4.756 -1.7869  3.5962  0.7453
  144MOL0     H19422   8.687   2.425   4.701 -0.9326 -3.9115 -0.4051
  144MOL0     H19423   8.506   2.282   4.583 -0.3972 -0.0980 -1.1723
  144MOL0     H19424   6.626   2.567   4.427 -0.0435  3.5485 -0.2324
  144MOL0     H19425   6.426   2.671   4.358 -0.7204 -0.4591  0.1539
  144MOL0     H19426   6.096   2.650   4.073 -1.9331 -0.1263 -1.8986
  144MOL0     H19427   5.889   2.708   4.055  1.0424 -2.5122 -2.3411
  144MOL0     H19428   5.696   2.839   4.123  1.9561  1.4544 -0.3159
  144MOL0     H19429   5.694   2.794   3.947 -1.9970  0.2829 -0.2903
  144MOL0     H19430   5.569   2.975   3.892 -0.8828 -0.8466  0.6413
  144MOL0     H19431   5.571   3.047   4.053  2.5597 -0.0958  1.5530
  144MOL0     H19432   5.432   2.839   4.142 -0.6083  2.7385  0.3740
  144MOL0     H19433   5.443   2.759   3.992  0.6112  0.3332 -1.9850
  144MOL0     H19434   5.234   2.891   4.039  0.4113 -2.3267 -0.4523
  144MOL0     H19435   5.323   3.035   4.035  0.5477  0.5660 -0.1898
  144MOL0     H19436   5.273   2.866   3.635  1.1544  1.3974 -0.5199
  144MOL0     H19437   5.996   3.108   3.911 -3.7540 -2.0984 -2.0965
  144MOL0     H19438   6.292   3.143   4.088 -3.2046 -1.6530  1.7671
  144MOL0     H19439   6.351   3.080   3.938 -0.5887 -2.6392  0.8625
  144MOL0     H19440   6.223   3.199   3.939  1.6313  0.3034 -0.7619
  145MOL0     O19441   6.407  10.180   9.515 -0.8054  0.2228  0.0812
  145MOL0     C19442   6.409  10.089   9.435 -1.0781  0.2418 -0.8503
  145MOL0     O19443   6.300  10.035   9.374 -0.2886  0.2533 -0.2145
  145MOL0     C19444   6.181  10.072   9.425  0.7054  0.3958 -0.2021
  145MOL0     C19445   6.073  10.128   9.354 -0.6380  0.0071 -0.8531
  145MOL0     C19446   5.948  10.160   9.415 -0.0459 -1.0146  1.5779
  145MOL0     C19447   5.920  10.127   9.550  0.3781  0.3292 -0.0237
  145MOL0     O19448   5.801  10.156   9.622 -1.0228  0.4919 -0.7884
  145MOL0     C19449   5.718  10.254   9.566 -0.2495 -0.2607 -0.2276
  145MOL0     C19450   5.606  10.194   9.482  0.2122 -0.1389 -1.0560
  145MOL0     C19451   5.524  10.095   9.570  0.1316  0.8849 -0.6596
  145MOL0     C19452   5.387  10.061   9.513  0.0082  0.9365  0.1551
  145MOL0     C19453   5.309   9.949   9.584 -0.2336  0.2899 -0.3917
  145MOL0     C19454   5.157   9.932   9.552 -0.5821 -0.3936  0.0407
  145MOL0     C19455   5.090   9.823   9.645 -0.7671  0.0788 -0.6285
  145MOL0     C19456   4.937   9.822   9.624 -0.9095  0.1897 -0.8593
  145MOL0     N19457   4.876   9.956   9.642  0.5902  0.1832 -0.4650
  145MOL0     C19458   4.882  10.043   9.750 -0.2392  0.3645  0.2890
  145MOL0     C19459   4.800  10.140   9.716  0.1566  0.5921  0.2275
  145MOL0     C19460   4.766  10.254   9.809 -0.5546  0.4869  0.0644
  145MOL0     C19461   4.614  10.293   9.810  0.2862 -0.1711  0.1842
  145MOL0     C19462   4.571  10.343   9.673  0.1562 -1.1553 -0.4210
  145MOL0     C19463   4.471  10.460   9.674  0.9515 -0.2508  0.0378
  145MOL0     O19464   4.337  10.408   9.680  0.0180 -0.1517 -0.6998
  145MOL0     C19465   4.224  10.490   9.694  0.6826  0.1745  0.3030
  145MOL0     C19466   4.225  10.624   9.732 -0.2645  0.1174 -0.2063
  145MOL0     C19467   4.119  10.701   9.737 -0.8501 -0.8147 -0.0031
  145MOL0     C19468   3.991  10.651   9.713  0.3132 -0.2234 -0.3027
  145MOL0     C19469   3.871  10.739   9.725  0.5583 -0.1767 -0.3642
  145MOL0     O19470   3.894  10.872   9.757 -0.2424  0.0473  0.2236
  145MOL0     C19471   3.792  10.960   9.781 -0.0911  0.0592  0.5000
  145MOL0     C19472   3.829  11.094   9.796  0.0471 -0.2504  0.5602
  145MOL0     C19473   3.740  11.198   9.823  0.2239 -0.9333  1.0555
  145MOL0     C19474   3.602  11.173   9.829  0.1940 -0.4180  0.2258
  145MOL0     O19475   3.516  11.285   9.843 -0.4822  0.1168  0.7639
  145MOL0     C19476   3.388  11.283   9.772 -0.2447  0.4974  0.2297
  145MOL0     C19477   3.284  11.362   9.848 -0.1981 -0.0368 -0.3368
  145MOL0     C19478   3.275  11.294   9.984  0.2867  0.8594  0.6504
  145MOL0     C19479   3.141  11.339  10.046 -0.4779 -0.3625  0.4153
  145MOL0     C19480   3.166  11.328  10.189  0.5116  0.3490  0.6110
  145MOL0     C19481   3.034  11.370  10.260  0.4138  0.4663 -0.2149
  145MOL0     C19482   3.026  11.331  10.402 -0.3994  0.0232 -0.1047
  145MOL0     C19483   3.136  11.386  10.490  0.0025  0.1085 -0.5345
  145MOL0    Cl19484   3.108  11.304  10.655  0.0755  0.1552 -0.3626
  145MOL0     C19485   3.562  11.037   9.838  0.5050  0.4531  0.4416
  145MOL0     C19486   3.656  10.929   9.818 -0.1424  0.0961  1.0053
  145MOL0     O19487   3.766  10.697   9.683 -0.8440  0.4783  0.6908
  145MOL0     C19488   3.979  10.513   9.682 -0.4675  0.0161  0.0137
  145MOL0     C19489   4.096  10.433   9.660 -0.2884 -0.1255 -0.4023
  145MOL0     N19490   4.741  10.121   9.592  0.0020  1.1502 -0.0977
  145MOL0     N19491   4.780  10.001   9.563  1.0330 -0.2274  0.3169
  145MOL0     C19492   6.021  10.070   9.618  0.2176 -0.8468 -0.5720
  145MOL0     C19493   6.150  10.051   9.563  0.0538 -0.1729 -0.4854
  145MOL0     C19494   6.545  10.060   9.386  0.8378  0.6379 -0.0003
  145MOL0     C19495   6.552  10.004   9.252  0.4382  0.7550 -0.0545
  145MOL0     C19496   6.680   9.973   9.199  0.3335 -0.0286 -0.5651
  145MOL0     C19497   6.799   9.998   9.270 -0.1871  0.7585  1.1721
  145MOL0     O19498   6.919   9.962   9.206 -0.3514  0.8243 -0.2596
  145MOL0     C19499   7.053   9.964   9.264  0.4307 -0.0548 -0.2458
  145MOL0     C19500   7.102  10.111   9.275 -0.9164 -0.2095  0.3794
  145MOL0     C19501   7.152  10.167   9.137 -0.0413 -0.5442 -0.0292
  145MOL0     C19502   7.202  10.309   9.138 -0.3468 -0.2972  0.0421
  145MOL0     C19503   7.197  10.369   8.998  0.2051  0.7918 -0.2028
  145MOL0     C19504   7.219  10.404   8.887  0.2195  0.2434 -0.6240
  145MOL0     C19505   6.786  10.034   9.404 -0.0149  0.3751  0.3977
  145MOL0     C19506   6.666  10.070   9.465  0.6083  0.3353  0.7144
  145MOL0     C19507   6.663  10.128   9.599 -0.9244 -0.2955 -0.4984
  145MOL0     H19508   6.097  10.157   9.252  0.4639 -2.6383 -1.4343
  145MOL0     H19509   5.866  10.204   9.359  0.5252 -2.4823 -0.5176
  145MOL0     H19510   5.685  10.305   9.657  3.3966 -1.0464  1.7391
  145MOL0     H19511   5.769  10.328   9.504 -1.4604 -1.0616 -2.2592
  145MOL0     H19512   5.645  10.152   9.389  1.1644 -1.3653 -0.1386
  145MOL0     H19513   5.551  10.281   9.444  0.1017  0.3274  0.1301
  145MOL0     H19514   5.525  10.137   9.670  3.7504  0.5199 -0.3803
  145MOL0     H19515   5.573   9.997   9.583  0.5128  1.4251  2.7042
  145MOL0     H19516   5.320  10.147   9.521 -1.9407 -0.4015 -0.8702
  145MOL0     H19517   5.391  10.042   9.405 -0.5771  1.7373 -0.0113
  145MOL0     H19518   5.364   9.857   9.559 -1.3893 -0.2269 -1.1447
  145MOL0     H19519   5.323   9.973   9.690 -1.0181  2.5918 -0.7576
  145MOL0     H19520   5.108  10.030   9.549  0.7991  0.2983 -1.0554
  145MOL0     H19521   5.155   9.906   9.446  1.5495  0.5239 -0.2637
  145MOL0     H19522   5.119   9.850   9.747 -1.5091  3.6358 -1.2264
  145MOL0     H19523   5.120   9.724   9.610  5.4200  0.7830  1.4628
  145MOL0     H19524   4.920   9.786   9.522  1.6284 -0.1408 -1.2284
  145MOL0     H19525   4.897   9.756   9.701  3.5414 -2.8735 -0.7637
  145MOL0     H19526   4.945  10.035   9.837  0.7185  1.5976 -0.2509
  145MOL0     H19527   4.797  10.236   9.913 -1.0925 -0.9595 -0.0005
  145MOL0     H19528   4.828  10.340   9.784  2.0302 -1.3569 -0.3212
  145MOL0     H19529   4.559  10.206   9.847 -2.0431  0.9235 -0.5473
  145MOL0     H19530   4.601  10.363   9.893  0.5159 -0.3100  0.3389
  145MOL0     H19531   4.529  10.257   9.619 -1.9258 -0.4334 -0.0281
  145MOL0     H19532   4.656  10.395   9.628  1.1264 -0.2175  2.3410
  145MOL0     H19533   4.475  10.516   9.581 -0.1824 -2.6853 -1.5775
  145MOL0     H19534   4.489  10.533   9.754 -2.3595  0.2921  0.4167
  145MOL0     H19535   4.319  10.671   9.754  0.7717 -1.0787 -1.8177
  145MOL0     H19536   4.122  10.799   9.784 -1.9272  0.0140 -1.5588
  145MOL0     H19537   3.933  11.116   9.775  0.0983 -1.0450 -0.0608
  145MOL0     H19538   3.779  11.299   9.837  0.7137 -0.8206 -0.8131
  145MOL0     H19539   3.408  11.323   9.672 -1.6890 -2.7637 -1.5367
  145MOL0     H19540   3.353  11.180   9.758  1.0508 -0.0010  0.4538
  145MOL0     H19541   3.325  11.463   9.854  2.1024 -0.8816 -0.6550
  145MOL0     H19542   3.193  11.366   9.788  0.4528 -1.0503 -1.4549
  145MOL0     H19543   3.288  11.186   9.994  3.3871  1.2898  3.1526
  145MOL0     H19544   3.360  11.338  10.037 -0.2221  2.8694 -0.0988
  145MOL0     H19545   3.060  11.272  10.012  0.6818 -1.8808  0.5329
  145MOL0     H19546   3.114  11.442  10.023  2.1003  0.7021  1.7577
  145MOL0     H19547   3.244  11.398  10.219  1.8892 -0.3269 -1.1557
  145MOL0     H19548   3.188  11.225  10.219 -0.7640 -0.1708 -0.1724
  145MOL0     H19549   3.029  11.478  10.245 -3.0367  0.4304 -0.2378
  145MOL0     H19550   2.949  11.327  10.204 -1.3651  2.0072  1.1603
  145MOL0     H19551   3.031  11.222  10.408 -1.0992 -0.2005 -2.6627
  145MOL0     H19552   2.928  11.353  10.446 -0.7389 -0.2811 -0.6931
  145MOL0     H19553   3.238  11.368  10.456  0.5356  0.4258  0.8740
  145MOL0     H19554   3.137  11.494  10.504 -1.2512  0.2288 -1.1767
  145MOL0     H19555   3.458  11.019   9.861  0.7013 -0.8689  0.4070
  145MOL0     H19556   3.633  10.828   9.851  0.4705  0.1326  1.5775
  145MOL0     H19557   3.886  10.457   9.675  0.4457 -1.4895 -0.7204
  145MOL0     H19558   4.096  10.338   9.608 -0.4497  0.3371 -1.2635
  145MOL0     H19559   5.998  10.041   9.719  0.4237 -3.0446 -1.1046
  145MOL0     H19560   6.228  10.012   9.627 -0.5595  0.4582  0.6775
  145MOL0     H19561   6.463  10.001   9.191  1.4601 -0.3886 -1.5659
  145MOL0     H19562   6.684   9.947   9.093  1.3515  0.5811 -0.6915
  145MOL0     H19563   7.110   9.899   9.197  0.4508 -0.1160 -0.1699
  145MOL0     H19564   7.065   9.927   9.366 -0.2656 -2.4320 -0.9475
  145MOL0     H19565   7.193  10.105   9.336  1.0935  0.7698 -2.3175
  145MOL0     H19566   7.031  10.179   9.323 -0.4594  0.5665 -0.0160
  145MOL0     H19567   7.065  10.159   9.072  0.6996  1.2110 -1.3153
  145MOL0     H19568   7.236  10.113   9.092 -1.2474 -2.4665 -0.0742
  145MOL0     H19569   7.148  10.377   9.204 -2.4430 -2.2539  0.4617
  145MOL0     H19570   7.310  10.311   9.160 -0.3762 -2.5134  0.6641
  145MOL0     H19571   7.249  10.449   8.795  1.6184  2.9778  1.0118
  145MOL0     H19572   6.876  10.021   9.464 -0.1941 -1.7034  0.2854
  145MOL0     H19573   6.639  10.234   9.592  1.1530  0.3787  1.2084
  145MOL0     H19574   6.593  10.064   9.653 -0.3850 -2.3171 -2.0630
  145MOL0     H19575   6.766  10.117   9.637 -0.3777  0.2155 -1.7850
  146MOL0     O19576  10.158  10.069   4.865 -0.1154  0.1195  0.1763
  146MOL0     C19577  10.092   9.984   4.820 -0.4274  0.4881  0.7867
  146MOL0     O19578  10.132   9.891   4.725 -0.1469 -0.0970 -0.3776
  146MOL0     C19579  10.261   9.895   4.678 -0.5273  0.1346  0.2403
  146MOL0     C19580  10.281   9.870   4.544 -0.5483 -0.6140  0.4592
  146MOL0     C19581  10.405   9.861   4.486 -0.1370  0.1928 -0.0658
  146MOL0     C19582  10.520   9.884   4.563 -0.6236  0.4086  0.6667
  146MOL0     O19583  10.644   9.863   4.518 -0.8669  0.3805 -0.2856
  146MOL0     C19584  10.754   9.929   4.576 -0.4078  0.1701  0.1420
  146MOL0     C19585  10.875   9.903   4.478 -0.4551 -0.4518 -0.2674
  146MOL0     C19586  10.984   9.999   4.535 -0.3466 -0.2117  0.2243
  146MOL0     C19587  11.129   9.962   4.488 -0.4691  0.6534  0.3100
  146MOL0     C19588  11.241  10.053   4.537  0.1856  0.2668 -0.1734
  146MOL0     C19589  11.372  10.023   4.467 -0.4950  1.0039  0.5441
  146MOL0     C19590  11.493  10.096   4.525 -0.4151 -0.2266  0.1338
  146MOL0     C19591  11.615  10.059   4.445 -0.3676 -0.3463  0.2158
  146MOL0     N19592  11.610  10.132   4.316 -0.4504 -0.1339  0.4979
  146MOL0     C19593  11.682  10.248   4.291  0.1378  0.9686  0.1796
  146MOL0     C19594  11.652  10.272   4.160 -0.7124  0.4560  0.0374
  146MOL0     C19595  11.709  10.394   4.080 -0.1334 -0.6300  0.5109
  146MOL0     C19596  11.599  10.458   3.995  0.0954 -0.6233  0.2090
  146MOL0     C19597  11.515  10.550   4.081 -0.5123  0.2019  0.1618
  146MOL0     C19598  11.403  10.624   4.015  1.0726 -0.3953  0.3230
  146MOL0     O19599  11.342  10.702   4.114 -0.1903  0.3809  0.3229
  146MOL0     C19600  11.213  10.728   4.081  0.0239  0.4856 -0.0891
  146MOL0     C19601  11.113  10.633   4.109  0.3694  0.2034  0.6093
  146MOL0     C19602  10.979  10.654   4.075 -0.1914  0.5345 -0.1000
  146MOL0     C19603  10.941  10.769   4.012 -0.5822 -0.7736 -0.1702
  146MOL0     C19604  10.797  10.781   3.963  0.1545 -0.0480  0.2224
  146MOL0     O19605  10.753  10.910   3.937 -0.0628 -0.3693  0.2482
  146MOL0     C19606  10.617  10.933   3.962 -0.2550 -0.4168  0.3264
  146MOL0     C19607  10.575  11.017   4.062 -0.6436 -0.5509  0.3026
  146MOL0     C19608  10.439  11.032   4.084 -0.0345  0.2042  0.6052
  146MOL0     C19609  10.340  10.973   3.996 -0.2383 -0.2745 -0.6156
  146MOL0     O19610  10.205  11.005   4.029  0.1521  0.0400 -0.0721
  146MOL0     C19611  10.099  10.981   3.933 -0.5768  0.1494 -0.4172
  146MOL0     C19612   9.971  11.051   3.988 -0.4927  0.4426 -0.3015
  146MOL0     C19613   9.840  11.031   3.909  0.3507 -0.1247 -0.2391
  146MOL0     C19614   9.852  11.110   3.779 -0.0204 -0.3947 -0.1468
  146MOL0     C19615   9.721  11.158   3.709 -0.0250 -0.3375 -0.0002
  146MOL0     C19616   9.738  11.229   3.573  0.5117 -0.2172  0.5374
  146MOL0     C19617   9.820  11.359   3.585 -0.2332  0.7647  0.8074
  146MOL0     C19618   9.770  11.454   3.478 -0.2181  0.6354  0.4274
  146MOL0    Cl19619   9.782  11.381   3.319  0.3471  0.2736 -0.1090
  146MOL0     C19620  10.384  10.886   3.895 -0.5237  0.3512  0.3473
  146MOL0     C19621  10.520  10.869   3.878  0.2847 -0.1219  0.6684
  146MOL0     O19622  10.721  10.690   3.980  0.3412  0.9528 -0.4610
  146MOL0     C19623  11.031  10.874   3.997  0.1319 -0.5318 -0.6596
  146MOL0     C19624  11.164  10.854   4.038 -0.5937 -0.3508  0.8086
  146MOL0     N19625  11.572  10.173   4.110 -0.5176 -0.0226  0.0748
  146MOL0     N19626  11.544  10.090   4.201 -0.4547  0.1993 -1.1459
  146MOL0     C19627  10.507   9.922   4.695  0.4491 -0.0428 -1.1285
  146MOL0     C19628  10.379   9.928   4.751 -0.6713  0.3847 -0.8774
  146MOL0     C19629   9.956   9.977   4.879 -1.4834  0.0628 -0.6852
  146MOL0     C19630   9.860   9.901   4.802  0.2421 -0.2459 -0.2199
  146MOL0     C19631   9.728   9.876   4.864 -0.0849 -0.7595 -0.1146
  146MOL0     C19632   9.688   9.925   4.991  0.7351  0.3562 -0.5557
  146MOL0     O19633   9.578   9.894   5.063 -0.1336 -0.6029  0.3085
  146MOL0     C19634   9.469   9.822   4.998  0.2866 -0.2819  0.8209
  146MOL0     C19635   9.376   9.791   5.108 -0.5597 -0.3459  0.9418
  146MOL0     C19636   9.250   9.739   5.046  0.3213 -0.3429 -0.9278
  146MOL0     C19637   9.149   9.713   5.160  0.1841  0.0485 -0.0006
  146MOL0     C19638   9.078   9.838   5.187  1.3505  0.2866  0.0203
  146MOL0     C19639   9.008   9.930   5.193  0.5319 -0.6115 -0.4899
  146MOL0     C19640   9.779  10.006   5.053 -1.1853 -0.5909 -0.0272
  146MOL0     C19641   9.912  10.024   5.005 -0.1134  0.1834 -0.0384
  146MOL0     C19642   9.996  10.119   5.099 -0.3641  0.8877  0.0939
  146MOL0     H19643  10.197   9.841   4.483 -0.2212 -2.0784  0.6746
  146MOL0     H19644  10.419   9.840   4.380  0.1320  2.1813 -0.4592
  146MOL0     H19645  10.754  10.039   4.570  0.2689  0.0961 -2.4822
  146MOL0     H19646  10.784   9.894   4.675 -1.2177 -0.1954  0.2637
  146MOL0     H19647  10.854   9.938   4.377 -1.6235  2.0518  0.7440
  146MOL0     H19648  10.912   9.800   4.482 -0.7750 -0.5425  0.5178
  146MOL0     H19649  10.990   9.991   4.644  0.9287  1.4340  0.2974
  146MOL0     H19650  10.973  10.099   4.494  3.1261  0.2734  0.2143
  146MOL0     H19651  11.161   9.863   4.520 -0.9291  1.1396  2.4704
  146MOL0     H19652  11.126   9.975   4.379  2.2742  0.4512  0.1550
  146MOL0     H19653  11.206  10.156   4.526 -1.2004 -0.1829 -0.1514
  146MOL0     H19654  11.249  10.031   4.644 -1.8074  0.0894 -0.0316
  146MOL0     H19655  11.388   9.915   4.457  0.4163  0.9161  2.6079
  146MOL0     H19656  11.352  10.043   4.361  1.7036 -0.0096 -0.1154
  146MOL0     H19657  11.513  10.059   4.626  0.1481 -2.9461 -0.8788
  146MOL0     H19658  11.477  10.204   4.535  0.7775 -0.1671  1.6792
  146MOL0     H19659  11.691  10.095   4.515 -2.4367  0.6210  2.1119
  146MOL0     H19660  11.628   9.951   4.436 -0.8060 -0.3313 -0.6676
  146MOL0     H19661  11.759  10.293   4.352  0.6561  2.4363 -1.4653
  146MOL0     H19662  11.762  10.468   4.140  0.4801  1.2265 -2.1239
  146MOL0     H19663  11.776  10.349   4.006 -0.7893 -0.5057 -0.1763
  146MOL0     H19664  11.640  10.524   3.919 -0.9602  0.8862  0.8997
  146MOL0     H19665  11.540  10.375   3.953 -0.0910 -1.2181  1.5604
  146MOL0     H19666  11.569  10.635   4.124  0.0747 -0.5590  0.9815
  146MOL0     H19667  11.471  10.486   4.158  1.5012 -2.3987 -0.6954
  146MOL0     H19668  11.329  10.561   3.965 -0.0013  0.7942  0.3511
  146MOL0     H19669  11.447  10.696   3.945  0.5630  2.7983  3.0367
  146MOL0     H19670  11.140  10.537   4.153  2.5469  1.4345  2.1585
  146MOL0     H19671  10.919  10.567   4.101  1.6211 -0.6417  0.2819
  146MOL0     H19672  10.652  11.064   4.121 -1.8609 -0.2277  1.6938
  146MOL0     H19673  10.401  11.081   4.173 -0.7178 -1.5892  1.3462
  146MOL0     H19674  10.122  11.027   3.836 -2.9665 -0.5703 -1.4170
  146MOL0     H19675  10.074  10.874   3.922 -2.8510  0.4879  0.8040
  146MOL0     H19676   9.946  11.017   4.089 -0.2966 -2.9491 -1.2775
  146MOL0     H19677  10.000  11.155   4.001  1.4813  0.3687 -3.1271
  146MOL0     H19678   9.825  10.923   3.896  0.5749 -0.2380  0.4360
  146MOL0     H19679   9.761  11.064   3.977  0.7501 -0.8622  0.6017
  146MOL0     H19680   9.911  11.046   3.713  1.0489 -0.0933  0.4843
  146MOL0     H19681   9.921  11.194   3.792 -1.0887  0.6823 -1.1814
  146MOL0     H19682   9.665  11.231   3.767 -0.5555 -0.2022 -0.6657
  146MOL0     H19683   9.666  11.068   3.684  0.4072 -0.4117 -0.7265
  146MOL0     H19684   9.781  11.156   3.503  0.7136  0.9128 -0.5462
  146MOL0     H19685   9.636  11.252   3.541  0.7448  2.7347  1.6125
  146MOL0     H19686   9.928  11.339   3.586 -0.6548 -1.7739  1.9431
  146MOL0     H19687   9.805  11.411   3.680 -0.7725  1.5278  0.3235
  146MOL0     H19688   9.663  11.461   3.501 -0.3260 -1.3000  0.7004
  146MOL0     H19689   9.828  11.546   3.474  0.8936 -0.0901 -1.5208
  146MOL0     H19690  10.307  10.835   3.837 -0.3161  1.7612 -1.2372
  146MOL0     H19691  10.546  10.811   3.790  2.1314  0.6790  0.6454
  146MOL0     H19692  10.997  10.971   3.961 -0.2569 -0.1393  0.7131
  146MOL0     H19693  11.241  10.929   4.026  2.0535 -3.0061  0.0994
  146MOL0     H19694  10.587   9.946   4.765  0.9196  0.7562 -1.9169
  146MOL0     H19695  10.386   9.959   4.855 -0.5830 -1.5950 -0.2552
  146MOL0     H19696   9.878   9.870   4.700  0.4124  1.9516 -0.9187
  146MOL0     H19697   9.646   9.821   4.820 -1.9401 -0.4327  2.6709
  146MOL0     H19698   9.501   9.731   4.946  0.0627 -0.3407  0.7863
  146MOL0     H19699   9.417   9.885   4.926 -1.5533 -0.8369  1.6181
  146MOL0     H19700   9.352   9.888   5.153 -0.1053  0.3839 -0.3258
  146MOL0     H19701   9.430   9.731   5.182  1.1064 -0.5840 -0.4315
  146MOL0     H19702   9.275   9.640   5.006  0.9819 -1.4033  1.8527
  146MOL0     H19703   9.204   9.801   4.968  0.4533  0.0342 -0.7092
  146MOL0     H19704   9.080   9.634   5.132 -0.8217  1.2541 -1.0394
  146MOL0     H19705   9.204   9.680   5.249 -1.2253 -0.2435  0.7935
  146MOL0     H19706   8.973  10.031   5.186  1.6215 -0.3417 -3.6612
  146MOL0     H19707   9.768  10.045   5.154 -1.6707  1.2431 -0.7672
  146MOL0     H19708  10.031  10.202   5.037 -2.3950  1.0847 -0.9077
  146MOL0     H19709   9.937  10.169   5.175 -2.3137  2.0489 -2.0476
  146MOL0     H19710  10.076  10.067   5.151 -0.7087  0.8502  0.5923
  147MOL0     O19711   9.561   3.268  10.058  0.7251 -0.1496 -0.5466
  147MOL0     C19712   9.461   3.272  10.133  0.8160 -0.1397 -0.0021
  147MOL0     O19713   9.452   3.204  10.251  0.6377  0.4813  0.1107
  147MOL0     C19714   9.557   3.127  10.290  0.1798  0.3950 -0.0449
  147MOL0     C19715   9.577   3.003  10.227  0.4709 -0.4591 -0.8049
  147MOL0     C19716   9.695   2.926  10.255  0.4290  0.2626 -0.1133
  147MOL0     C19717   9.796   2.980  10.336 -0.0422 -0.1224  0.6730
  147MOL0     O19718   9.906   2.912  10.370 -0.1591 -0.0241 -0.1056
  147MOL0     C19719   9.949   2.809  10.279  1.0629 -0.2873 -0.0553
  147MOL0     C19720  10.095   2.810  10.272 -0.9056 -0.7053 -0.2178
  147MOL0     C19721  10.177   2.752  10.394 -1.0475 -0.2821 -0.1017
  147MOL0     C19722  10.327   2.749  10.353 -0.0139  0.2651  0.2520
  147MOL0     C19723  10.407   2.667  10.448  0.4151  0.0644  0.4996
  147MOL0     C19724  10.364   2.520  10.449 -0.0236  0.5983 -0.3731
  147MOL0     C19725  10.468   2.430  10.527 -0.0822 -0.1046 -0.5267
  147MOL0     C19726  10.603   2.423  10.458  0.8769  0.4497  0.5126
  147MOL0     N19727  10.677   2.305  10.482  0.2665 -0.3713  0.2251
  147MOL0     C19728  10.794   2.283  10.411  0.0062 -0.1181  0.1029
  147MOL0     C19729  10.843   2.167  10.460 -0.1368 -0.7867 -0.7339
  147MOL0     C19730  10.970   2.108  10.417  0.4402  0.8888 -0.0004
  147MOL0     C19731  11.066   2.105  10.540 -1.2305 -0.4034  1.0108
  147MOL0     C19732  11.037   1.995  10.644 -0.5245  0.8759  0.1287
  147MOL0     C19733  11.169   1.916  10.668 -0.8758  0.4335  0.0983
  147MOL0     O19734  11.268   2.000  10.723 -1.1585 -0.7525 -0.5319
  147MOL0     C19735  11.397   1.949  10.736  0.4326  0.0611  0.3711
  147MOL0     C19736  11.444   1.818  10.709 -0.5295  0.1916  0.4316
  147MOL0     C19737  11.573   1.784  10.747 -1.0242  0.5156 -0.5246
  147MOL0     C19738  11.660   1.885  10.791 -0.1854 -0.1333 -0.5203
  147MOL0     C19739  11.803   1.845  10.815 -0.3518  0.4017  0.5290
  147MOL0     O19740  11.829   1.711  10.801 -0.5221 -0.6414 -0.4500
  147MOL0     C19741  11.957   1.651  10.779  0.8496  0.6387 -0.0720
  147MOL0     C19742  11.973   1.512  10.794  0.4228  0.2340  0.4045
  147MOL0     C19743  12.100   1.457  10.780  0.3036 -0.3679  0.5402
  147MOL0     C19744  12.210   1.531  10.737 -0.4852  0.0551 -0.2670
  147MOL0     O19745  12.327   1.468  10.699  0.3694  0.1088 -0.2437
  147MOL0     C19746  12.444   1.532  10.663  0.5854 -0.6985 -0.1790
  147MOL0     C19747  12.559   1.430  10.647 -0.5294 -0.8964  0.6488
  147MOL0     C19748  12.680   1.505  10.589  0.0322  0.1190 -0.7651
  147MOL0     C19749  12.797   1.406  10.573  0.6725  0.1813 -0.2152
  147MOL0     C19750  12.919   1.499  10.547 -1.2678 -0.5522  0.4707
  147MOL0     C19751  13.038   1.406  10.544 -0.0312 -0.1697  0.2056
  147MOL0     C19752  13.162   1.500  10.532 -0.1821  0.1774  0.3664
  147MOL0     C19753  13.291   1.429  10.501  0.0855  1.0192 -0.4131
  147MOL0    Cl19754  13.424   1.549  10.509 -0.0353 -0.1103 -0.0673
  147MOL0     C19755  12.194   1.663  10.717 -0.5341 -0.9172  0.7980
  147MOL0     C19756  12.073   1.723  10.741  0.3704  0.1836 -0.6986
  147MOL0     O19757  11.883   1.927  10.851  0.6574 -0.6058  0.1137
  147MOL0     C19758  11.619   2.011  10.813  0.5218 -0.1470  0.0083
  147MOL0     C19759  11.487   2.045  10.780  0.3213  0.6162  1.1273
  147MOL0     N19760  10.750   2.119  10.559  0.6328 -0.1336  0.3258
  147MOL0     N19761  10.651   2.205  10.571 -0.4640 -0.0855 -0.0782
  147MOL0     C19762   9.778   3.109  10.377  0.6642  0.1057 -0.2224
  147MOL0     C19763   9.661   3.183  10.353 -0.4223 -0.1830 -1.1275
  147MOL0     C19764   9.342   3.333  10.074  0.3920  0.5092 -0.8916
  147MOL0     C19765   9.349   3.464  10.006 -1.0099  1.0123  0.4238
  147MOL0     C19766   9.239   3.522   9.939  0.0244 -0.1265 -0.4993
  147MOL0     C19767   9.115   3.453   9.946  1.2018  0.1693 -0.5647
  147MOL0     O19768   8.998   3.499   9.887  0.1324  0.3568  0.3966
  147MOL0     C19769   8.999   3.611   9.797  0.0815  0.5976 -0.2435
  147MOL0     C19770   8.864   3.651   9.736 -0.0968  0.2892  1.0258
  147MOL0     C19771   8.811   3.562   9.630 -0.3177 -0.7477  1.3302
  147MOL0     C19772   8.745   3.432   9.679 -0.4741 -0.3110  0.3647
  147MOL0     C19773   8.649   3.397   9.578 -0.5129 -0.1581  0.1314
  147MOL0     C19774   8.580   3.378   9.486  0.3618 -0.3777 -0.2302
  147MOL0     C19775   9.105   3.335  10.017  0.2949  0.5167 -0.5084
  147MOL0     C19776   9.212   3.270  10.078 -0.0668 -0.1975 -0.1583
  147MOL0     C19777   9.191   3.146  10.159 -0.7634  0.1760  0.1342
  147MOL0     H19778   9.502   2.972  10.155  1.5700 -0.0775 -2.1693
  147MOL0     H19779   9.709   2.827  10.212 -0.4006  0.6751 -1.4088
  147MOL0     H19780   9.923   2.707  10.309  1.7471 -0.2206  0.7885
  147MOL0     H19781   9.911   2.831  10.179  1.5449 -3.1783 -0.9723
  147MOL0     H19782  10.132   2.912  10.266  0.0074 -0.9700  0.6060
  147MOL0     H19783  10.137   2.763  10.182  1.5152  1.3951 -0.2897
  147MOL0     H19784  10.138   2.653  10.418 -2.5162 -0.0880 -1.4961
  147MOL0     H19785  10.153   2.812  10.482 -0.1167 -0.9194  0.6076
  147MOL0     H19786  10.332   2.699  10.256  0.1885  3.0923 -1.2843
  147MOL0     H19787  10.359   2.853  10.344 -0.6983  0.3933 -0.9104
  147MOL0     H19788  10.510   2.689  10.417 -0.5954  2.4879 -1.5673
  147MOL0     H19789  10.388   2.707  10.548 -3.6248  0.9570 -0.4335
  147MOL0     H19790  10.265   2.517  10.497 -0.2531  1.2039 -0.8013
  147MOL0     H19791  10.357   2.478  10.349  1.1220 -3.5459  1.0926
  147MOL0     H19792  10.425   2.330  10.531  0.7916 -0.5566 -1.7708
  147MOL0     H19793  10.477   2.476  10.625 -1.7759  1.8062 -1.1978
  147MOL0     H19794  10.585   2.419  10.350 -0.4504  4.5917  0.3837
  147MOL0     H19795  10.647   2.522  10.475  1.3186 -0.1125  3.1583
  147MOL0     H19796  10.849   2.338  10.336  0.6991 -3.4544 -2.0630
  147MOL0     H19797  10.957   2.006  10.379 -1.9477  0.2827  2.1998
  147MOL0     H19798  11.022   2.168  10.341 -0.7604  1.0581 -0.7130
  147MOL0     H19799  11.164   2.096  10.491 -0.4013  3.6242  1.5711
  147MOL0     H19800  11.075   2.201  10.591 -0.1691 -0.4918  1.0034
  147MOL0     H19801  10.956   1.927  10.617 -0.0102  0.8243 -1.3769
  147MOL0     H19802  11.003   2.053  10.731 -2.7615 -0.5485  0.2678
  147MOL0     H19803  11.213   1.877  10.576  0.1132  1.9244 -0.0941
  147MOL0     H19804  11.150   1.825  10.727 -2.3963  1.2135  0.8673
  147MOL0     H19805  11.378   1.740  10.673  0.0474  0.7142 -1.9450
  147MOL0     H19806  11.612   1.683  10.738  1.7303  1.6526 -4.1379
  147MOL0     H19807  11.886   1.456  10.827 -1.5140  3.9310  2.2152
  147MOL0     H19808  12.119   1.351  10.787  2.1951 -0.2202 -1.4793
  147MOL0     H19809  12.433   1.595  10.575  1.7511 -1.2137 -0.7123
  147MOL0     H19810  12.469   1.597  10.747  0.5516 -1.5384  0.4966
  147MOL0     H19811  12.574   1.377  10.742  0.4124 -1.1451  0.3638
  147MOL0     H19812  12.531   1.353  10.574 -0.8943  0.6678 -0.9357
  147MOL0     H19813  12.670   1.552  10.491  2.6594  0.3601 -0.9807
  147MOL0     H19814  12.706   1.580  10.664 -0.7958  0.0587 -0.4085
  147MOL0     H19815  12.789   1.339  10.487  2.4488 -2.4685  1.5567
  147MOL0     H19816  12.802   1.343  10.662  2.4183  2.7947  1.6875
  147MOL0     H19817  12.920   1.564  10.635 -1.8838  3.2909 -2.1434
  147MOL0     H19818  12.899   1.558  10.458 -0.2752 -0.7915  0.0742
  147MOL0     H19819  13.036   1.363  10.644 -0.1558 -0.5600  0.0358
  147MOL0     H19820  13.031   1.335  10.461  3.2195  0.9479 -1.1806
  147MOL0     H19821  13.165   1.552  10.629 -1.5264  1.8463 -0.4287
  147MOL0     H19822  13.143   1.584  10.465 -0.5085 -0.0054  0.2268
  147MOL0     H19823  13.305   1.339  10.561  2.1762 -0.5839 -3.0453
  147MOL0     H19824  13.262   1.401  10.399 -0.1381  1.8453 -0.5803
  147MOL0     H19825  12.274   1.731  10.689 -1.1897 -0.3410  0.3181
  147MOL0     H19826  12.069   1.829  10.716  0.6392  0.9009  1.9121
  147MOL0     H19827  11.686   2.083  10.858 -1.3390  1.9733 -0.4333
  147MOL0     H19828  11.441   2.142  10.793 -0.8793  0.6119 -2.1273
  147MOL0     H19829   9.865   3.153  10.424 -0.3117  2.3760 -0.4299
  147MOL0     H19830   9.651   3.286  10.383  1.6174 -0.8306  2.3260
  147MOL0     H19831   9.448   3.510  10.008 -0.1694 -0.6546 -0.8100
  147MOL0     H19832   9.247   3.616   9.886  2.0952 -0.2139 -0.4368
  147MOL0     H19833   9.064   3.589   9.712  1.6545 -2.1342  1.4976
  147MOL0     H19834   9.043   3.697   9.848 -0.6595  0.1174  1.2527
  147MOL0     H19835   8.890   3.749   9.694  2.2176  0.0348  1.6928
  147MOL0     H19836   8.791   3.667   9.816 -1.7484 -0.1459 -0.3346
  147MOL0     H19837   8.897   3.542   9.565  1.3291  1.3508  2.7262
  147MOL0     H19838   8.747   3.617   9.560  0.8401 -1.1474 -0.0864
  147MOL0     H19839   8.817   3.350   9.691  1.4477  1.0292 -1.3077
  147MOL0     H19840   8.702   3.434   9.780 -1.0621  0.7255  0.1068
  147MOL0     H19841   8.505   3.349   9.416 -1.1656 -2.2948  2.0291
  147MOL0     H19842   9.009   3.283  10.017 -0.3214  1.6006  0.4462
  147MOL0     H19843   9.198   3.163  10.267  3.3061  0.3840 -0.0202
  147MOL0     H19844   9.087   3.113  10.149 -1.2291  2.0627 -1.6704
  147MOL0     H19845   9.255   3.066  10.120  0.2761  2.0681 -2.2325
  148MOL0     O19846  10.710   4.936   6.727  0.4283 -0.1707  0.6377
  148MOL0     C19847  10.633   4.848   6.693  0.4698 -0.0668 -0.1700
  148MOL0     O19848  10.669   4.716   6.685  0.0286  0.1352  0.0182
  148MOL0     C19849  10.808   4.697   6.688 -0.2045 -0.3131  0.3261
  148MOL0     C19850  10.861   4.683   6.561 -0.2893 -0.3567 -0.4680
  148MOL0     C19851  11.001   4.681   6.547 -1.0343 -0.1997 -0.2491
  148MOL0     C19852  11.088   4.673   6.660 -0.2134 -0.7609  0.1102
  148MOL0     O19853  11.223   4.679   6.636 -0.1739  0.3529  0.4987
  148MOL0     C19854  11.314   4.718   6.739  1.0100  0.0556 -0.2780
  148MOL0     C19855  11.459   4.697   6.689 -0.4228 -0.7245  0.2407
  148MOL0     C19856  11.559   4.733   6.797 -0.2416  0.1660 -0.2467
  148MOL0     C19857  11.708   4.735   6.748 -0.3671 -0.0310  0.9061
  148MOL0     C19858  11.805   4.768   6.859 -0.1757 -0.6202 -0.1436
  148MOL0     C19859  11.954   4.754   6.807 -0.1876 -0.2391 -0.3982
  148MOL0     C19860  12.067   4.788   6.909  0.2049 -0.2150 -0.4018
  148MOL0     C19861  12.095   4.666   7.009  0.0745 -0.5806 -0.5743
  148MOL0     N19862  12.170   4.702   7.129  0.2468  0.1899  0.5254
  148MOL0     C19863  12.295   4.750   7.126 -0.4260 -0.2673  0.8632
  148MOL0     C19864  12.320   4.786   7.253  0.2595  0.0077 -0.3629
  148MOL0     C19865  12.448   4.845   7.310 -0.1465  0.0217 -0.0236
  148MOL0     C19866  12.556   4.743   7.364  1.1889  0.0247  0.5779
  148MOL0     C19867  12.575   4.634   7.255  0.2517  0.0783  0.2068
  148MOL0     C19868  12.719   4.564   7.275 -0.0030 -0.2361 -0.4838
  148MOL0     O19869  12.736   4.520   7.409 -0.2891  0.2762  0.4808
  148MOL0     C19870  12.865   4.505   7.444  0.7052 -0.2062 -0.0910
  148MOL0     C19871  12.906   4.534   7.576  0.3458 -0.2360  0.4197
  148MOL0     C19872  13.037   4.520   7.614  0.3857  0.0451  0.7606
  148MOL0     C19873  13.136   4.490   7.517  0.0838  0.8449 -0.5303
  148MOL0     C19874  13.275   4.476   7.571  0.1732  0.1805  0.6323
  148MOL0     O19875  13.304   4.489   7.702 -0.0611 -0.3470 -0.1305
  148MOL0     C19876  13.429   4.487   7.757 -0.7408 -0.2644 -0.1374
  148MOL0     C19877  13.434   4.445   7.888  0.3188  0.4721 -0.2346
  148MOL0     C19878  13.559   4.442   7.960 -0.3913 -0.2282 -0.3975
  148MOL0     C19879  13.677   4.463   7.888 -0.2474  0.0272 -0.4563
  148MOL0     O19880  13.798   4.458   7.952  0.1014 -0.4022  0.5887
  148MOL0     C19881  13.818   4.354   8.038  1.0169  0.8182 -1.0365
  148MOL0     C19882  13.946   4.370   8.123  0.5955  0.0249 -0.0750
  148MOL0     C19883  14.074   4.338   8.051  0.6720 -0.1427  0.0245
  148MOL0     C19884  14.191   4.371   8.146 -0.2189  0.6448  0.2565
  148MOL0     C19885  14.323   4.357   8.068  0.6325 -0.1343  0.0584
  148MOL0     C19886  14.455   4.395   8.149 -0.0717 -0.2246  0.3285
  148MOL0     C19887  14.573   4.409   8.058 -0.6588  0.0642  0.1619
  148MOL0     C19888  14.699   4.453   8.134 -0.4961  0.5311  0.3167
  148MOL0    Cl19889  14.748   4.326   8.259 -0.6372 -0.0302 -0.0431
  148MOL0     C19890  13.673   4.511   7.757  0.0019  0.0011 -0.2594
  148MOL0     C19891  13.549   4.524   7.693  0.8955 -0.1216  0.6071
  148MOL0     O19892  13.362   4.467   7.484 -0.2977 -0.2740  1.2843
  148MOL0     C19893  13.101   4.446   7.393 -0.0554 -0.3444 -0.3964
  148MOL0     C19894  12.965   4.462   7.359  0.0675 -0.1241  0.8661
  148MOL0     N19895  12.202   4.767   7.327 -0.2667 -0.4098 -0.2885
  148MOL0     N19896  12.110   4.718   7.249 -0.3989  1.1694 -0.4730
  148MOL0     C19897  11.024   4.696   6.786 -0.4115 -0.0646 -0.0169
  148MOL0     C19898  10.886   4.693   6.806 -0.0084  0.1108 -0.0820
  148MOL0     C19899  10.493   4.889   6.649 -0.1431 -0.1690 -0.2909
  148MOL0     C19900  10.457   5.027   6.663 -0.2001 -0.1807 -0.5079
  148MOL0     C19901  10.336   5.077   6.618 -0.0838 -0.2778  0.9022
  148MOL0     C19902  10.247   4.992   6.553  0.4063  0.4388 -0.4350
  148MOL0     O19903  10.131   5.027   6.488 -0.2347 -0.3795 -0.2276
  148MOL0     C19904  10.106   5.164   6.466  0.7999 -0.3007 -0.9345
  148MOL0     C19905  10.005   5.179   6.352  0.4579  0.8429  0.1751
  148MOL0     C19906   9.873   5.106   6.384 -0.2295  0.4438 -0.3767
  148MOL0     C19907   9.778   5.104   6.268 -0.1683  0.0005  0.4871
  148MOL0     C19908   9.764   5.236   6.205  0.0121 -1.1018 -0.5838
  148MOL0     C19909   9.745   5.351   6.172 -0.0185  0.4236 -0.1409
  148MOL0     C19910  10.274   4.854   6.549  0.5584 -0.2640 -0.1227
  148MOL0     C19911  10.395   4.801   6.595 -0.0796 -0.2265  0.3304
  148MOL0     C19912  10.415   4.653   6.586  0.0617  0.2221  0.6007
  148MOL0     H19913  10.789   4.687   6.480 -0.6525 -0.2825 -0.1439
  148MOL0     H19914  11.039   4.689   6.445 -0.6574  0.5466 -0.0529
  148MOL0     H19915  11.304   4.824   6.766 -2.5639 -0.7653  2.4257
  148MOL0     H19916  11.299   4.655   6.828 -1.9933  0.5999 -0.2970
  148MOL0     H19917  11.469   4.760   6.600 -1.8243  1.1525  1.3367
  148MOL0     H19918  11.476   4.596   6.651  3.1312 -0.4812  0.9111
  148MOL0     H19919  11.547   4.661   6.880 -0.5320 -0.7971 -1.0989
  148MOL0     H19920  11.539   4.833   6.836 -1.5165 -0.2247  0.1411
  148MOL0     H19921  11.731   4.638   6.705 -0.0264  0.9914 -1.3432
  148MOL0     H19922  11.719   4.805   6.665 -2.8480 -1.1569 -0.4572
  148MOL0     H19923  11.785   4.873   6.883 -1.3608 -1.0785  1.0667
  148MOL0     H19924  11.780   4.700   6.941  2.5207 -4.1140 -2.0102
  148MOL0     H19925  11.966   4.653   6.766  1.0750 -0.2525 -0.0432
  148MOL0     H19926  11.966   4.833   6.733  0.4885  0.4755  0.4496
  148MOL0     H19927  12.040   4.880   6.961  0.4550  0.1208 -0.8564
  148MOL0     H19928  12.157   4.820   6.857 -0.6613  0.6204 -1.4412
  148MOL0     H19929  12.000   4.626   7.045  0.8000 -0.7953  1.2242
  148MOL0     H19930  12.147   4.587   6.953  0.1936 -0.1969 -1.0096
  148MOL0     H19931  12.368   4.761   7.046 -0.9673  0.9682  0.5119
  148MOL0     H19932  12.491   4.895   7.222 -0.3951 -3.2234 -2.1230
  148MOL0     H19933  12.429   4.912   7.394  1.6093 -2.1635  2.2463
  148MOL0     H19934  12.651   4.798   7.364  0.8005  0.7200  0.0051
  148MOL0     H19935  12.537   4.695   7.461  3.7555 -2.5475 -0.0751
  148MOL0     H19936  12.570   4.680   7.156 -2.6181 -0.0321  0.2353
  148MOL0     H19937  12.498   4.557   7.269 -0.6908  1.3098  2.2861
  148MOL0     H19938  12.795   4.642   7.261  1.3539 -1.5129 -0.5262
  148MOL0     H19939  12.732   4.483   7.203  0.0020 -0.3989 -0.3006
  148MOL0     H19940  12.835   4.575   7.647  0.6949  0.8364  0.1750
  148MOL0     H19941  13.057   4.557   7.714  1.1995 -0.0474  0.6360
  148MOL0     H19942  13.345   4.409   7.939  0.2439 -1.0340 -1.3555
  148MOL0     H19943  13.551   4.416   8.065  3.5897 -2.2624 -0.3996
  148MOL0     H19944  13.740   4.354   8.115  0.8029 -1.6349 -1.1918
  148MOL0     H19945  13.817   4.260   7.982 -0.7807  0.4375 -0.4153
  148MOL0     H19946  13.943   4.477   8.141  2.5249  0.0903 -0.0019
  148MOL0     H19947  13.928   4.314   8.216 -1.0752 -1.3171 -1.1165
  148MOL0     H19948  14.076   4.230   8.031  2.1339 -0.2417  0.6051
  148MOL0     H19949  14.080   4.400   7.961  0.3738  0.9882  0.7571
  148MOL0     H19950  14.185   4.305   8.233  1.1009 -0.9087 -0.7633
  148MOL0     H19951  14.190   4.475   8.181 -2.3882  0.6811  0.2215
  148MOL0     H19952  14.314   4.407   7.971  2.2831 -2.1557 -1.2211
  148MOL0     H19953  14.340   4.255   8.031  0.1294 -1.1676  2.4787
  148MOL0     H19954  14.435   4.487   8.205 -1.6686 -1.3338  1.6965
  148MOL0     H19955  14.468   4.318   8.225 -2.4280 -1.4914 -0.4608
  148MOL0     H19956  14.555   4.487   7.983  0.2055 -1.3569 -1.6138
  148MOL0     H19957  14.596   4.314   8.009 -0.2550  0.3341 -0.1751
  148MOL0     H19958  14.785   4.464   8.066 -1.3624  1.0050 -0.7326
  148MOL0     H19959  14.671   4.546   8.184 -0.8653 -0.4418  2.0207
  148MOL0     H19960  13.759   4.556   7.708  0.2786 -0.6492 -0.3837
  148MOL0     H19961  13.563   4.576   7.599 -1.0003 -1.5313 -0.5051
  148MOL0     H19962  13.177   4.422   7.319  1.3043 -0.6519  1.0510
  148MOL0     H19963  12.933   4.447   7.257 -1.5934  0.0851  1.3183
  148MOL0     H19964  11.082   4.705   6.877  0.5002  1.2404 -0.7056
  148MOL0     H19965  10.831   4.703   6.899  1.4303  2.6589  0.5932
  148MOL0     H19966  10.520   5.093   6.722 -0.7283 -1.0282  1.0701
  148MOL0     H19967  10.311   5.182   6.619 -1.9984 -0.6773 -0.2944
  148MOL0     H19968  10.200   5.213   6.441  2.4226 -1.4750  2.2982
  148MOL0     H19969  10.060   5.200   6.559  0.3470 -2.0704 -0.4390
  148MOL0     H19970  10.047   5.133   6.262 -2.0842 -1.3143 -0.0216
  148MOL0     H19971   9.990   5.284   6.324  2.2185  0.7401 -1.3282
  148MOL0     H19972   9.831   5.163   6.467  0.8773 -2.1008  2.0859
  148MOL0     H19973   9.889   5.008   6.429  2.8361  2.6203  4.0209
  148MOL0     H19974   9.800   5.025   6.196  0.2774 -1.1981  1.8699
  148MOL0     H19975   9.682   5.075   6.312 -0.2580 -0.4475 -0.0047
  148MOL0     H19976   9.740   5.452   6.138  1.2706  0.1590 -1.1880
  148MOL0     H19977  10.204   4.790   6.497 -0.2978  0.0969  0.5618
  148MOL0     H19978  10.512   4.617   6.549 -0.6781 -1.9991  0.6562
  148MOL0     H19979  10.395   4.618   6.688  0.4535 -0.9290  0.3102
  148MOL0     H19980  10.335   4.614   6.523 -0.3094  2.5549 -0.4543
  149MOL0     O19981  10.988  10.414   9.708  0.1406  0.3030 -0.5468
  149MOL0     C19982  10.914  10.383   9.616  0.3083 -0.6066 -0.5649
  149MOL0     O19983  10.931  10.277   9.529 -0.1912 -0.6216 -0.7194
  149MOL0     C19984  11.045  10.209   9.523  0.3018 -0.8641  0.6386
  149MOL0     C19985  11.167  10.274   9.512  0.6830  0.1547 -0.1132
  149MOL0     C19986  11.277  10.195   9.528  0.7693  0.4084  0.6608
  149MOL0     C19987  11.274  10.060   9.544 -0.8868 -0.5884  0.3039
  149MOL0     O19988  11.400  10.003   9.540 -0.2141 -0.3991  0.2374
  149MOL0     C19989  11.410   9.866   9.517 -0.0750  0.0878  0.1204
  149MOL0     C19990  11.556   9.824   9.541 -0.4172  0.2501  0.8365
  149MOL0     C19991  11.661   9.908   9.458  0.1470 -0.2592  0.4070
  149MOL0     C19992  11.796   9.852   9.494 -0.9163  0.1923 -0.1073
  149MOL0     C19993  11.919   9.923   9.439  0.0150 -0.0236  0.1146
  149MOL0     C19994  12.045   9.833   9.448  0.4541 -0.7863 -0.2607
  149MOL0     C19995  12.156   9.883   9.354  0.7202  0.1426  0.8625
  149MOL0     C19996  12.247   9.986   9.424 -0.6126  0.8439  0.0828
  149MOL0     N19997  12.347   9.917   9.504 -0.3352  0.1882 -0.1834
  149MOL0     C19998  12.445   9.830   9.452  0.3227 -0.0158  0.1939
  149MOL0     C19999  12.508   9.769   9.558 -0.5324  0.2047  0.4711
  149MOL0     C20000  12.611   9.659   9.567  0.7022  0.2190  0.9584
  149MOL0     C20001  12.606   9.579   9.434  0.3166  1.0986  0.1189
  149MOL0     C20002  12.661   9.441   9.444  1.2066  0.2535  0.8016
  149MOL0     C20003  12.801   9.428   9.503 -0.4078 -0.0986 -0.0274
  149MOL0     O20004  12.830   9.286   9.496 -0.3396 -0.6159  0.4396
  149MOL0     C20005  12.938   9.234   9.556  0.1834 -1.2191 -0.1427
  149MOL0     C20006  13.016   9.304   9.660  0.6743 -0.1634  0.1088
  149MOL0     C20007  13.126   9.248   9.723  1.0091 -0.1266 -0.4657
  149MOL0     C20008  13.164   9.122   9.689 -0.6152  0.1218  0.1552
  149MOL0     C20009  13.294   9.064   9.746 -0.0655 -0.1608 -0.3881
  149MOL0     O20010  13.341   9.145   9.847  0.7201 -0.1294  0.1634
  149MOL0     C20011  13.474   9.136   9.898  0.3565  0.2281  0.1557
  149MOL0     C20012  13.587   9.128   9.814  1.0664  0.6965  0.3511
  149MOL0     C20013  13.711   9.109   9.862  0.1988 -0.1173  0.3696
  149MOL0     C20014  13.734   9.109  10.001 -0.0609 -0.4184 -0.6005
  149MOL0     O20015  13.865   9.094  10.044  0.0578 -0.0384  1.1169
  149MOL0     C20016  13.900   9.085  10.183 -0.1430 -0.7303 -0.2998
  149MOL0     C20017  14.055   9.098  10.196  0.0337  0.8118 -0.5029
  149MOL0     C20018  14.118   8.986  10.125  0.1079  0.0983 -0.1845
  149MOL0     C20019  14.263   9.007  10.125 -0.6699  1.5300 -0.3902
  149MOL0     C20020  14.336   8.875  10.106 -0.2998  0.3502 -0.2540
  149MOL0     C20021  14.473   8.896  10.043 -0.0328 -0.9866  0.6128
  149MOL0     C20022  14.580   8.973  10.121 -0.4648  0.6160 -0.2501
  149MOL0     C20023  14.693   9.012  10.029  0.2160 -0.3879  0.2165
  149MOL0    Cl20024  14.777   8.856   9.991  0.3166 -0.1422  0.2603
  149MOL0     C20025  13.622   9.135  10.084 -0.2630 -0.3061 -1.0121
  149MOL0     C20026  13.492   9.136  10.035 -0.4318 -0.0139  0.4827
  149MOL0     O20027  13.348   8.970   9.701 -0.2891  0.6698  0.3324
  149MOL0     C20028  13.087   9.051   9.592  0.3175 -0.0883  0.2722
  149MOL0     C20029  12.971   9.107   9.533 -0.5153  0.6761  0.3838
  149MOL0     N20030  12.449   9.820   9.673 -0.8733 -1.0862  0.5625
  149MOL0     N20031  12.356   9.905   9.640 -0.8471  0.1214 -0.5820
  149MOL0     C20032  11.149   9.994   9.566 -0.7835  0.4185 -0.3006
  149MOL0     C20033  11.035  10.075   9.553 -0.0504  0.8196 -0.2959
  149MOL0     C20034  10.778  10.444   9.619  0.0538  0.2004 -0.0974
  149MOL0     C20035  10.676  10.397   9.535  0.2002  0.0666  0.4757
  149MOL0     C20036  10.541  10.437   9.549  0.1278  0.1419  0.3088
  149MOL0     C20037  10.511  10.540   9.643  0.0316 -0.3215  0.4091
  149MOL0     O20038  10.381  10.591   9.655  0.2530  0.2973  0.2645
  149MOL0     C20039  10.271  10.519   9.624  0.8469 -0.2074 -0.1958
  149MOL0     C20040  10.189  10.509   9.747 -0.0109  0.3295 -0.5101
  149MOL0     C20041  10.042  10.468   9.726  0.8390  0.3602  0.5673
  149MOL0     C20042   9.945  10.513   9.845  0.7501 -0.3151  0.2094
  149MOL0     C20043   9.803  10.487   9.814  0.5066  0.6649  0.3349
  149MOL0     C20044   9.684  10.448   9.805 -0.3523 -0.8031  1.0473
  149MOL0     C20045  10.610  10.598   9.717  0.1628 -0.5988 -0.7638
  149MOL0     C20046  10.743  10.558   9.706 -0.3644  0.1536  0.1712
  149MOL0     C20047  10.838  10.646   9.783  0.0126  0.1586  0.2289
  149MOL0     H20048  11.175  10.382   9.509 -1.8662  0.4889  1.6136
  149MOL0     H20049  11.370  10.251   9.519  0.1385  1.1321 -2.4816
  149MOL0     H20050  11.352   9.808   9.590  0.2338 -0.7110 -0.2529
  149MOL0     H20051  11.379   9.843   9.415 -0.7650  3.9732 -0.6733
  149MOL0     H20052  11.579   9.720   9.516 -0.5722  0.9083 -2.6360
  149MOL0     H20053  11.570   9.846   9.647  1.4228  1.0698  0.4611
  149MOL0     H20054  11.660  10.014   9.488  1.6217 -0.6599  2.0197
  149MOL0     H20055  11.640   9.892   9.352 -3.2706 -1.2668  1.1167
  149MOL0     H20056  11.802   9.838   9.602  0.0130  0.1557 -0.1541
  149MOL0     H20057  11.793   9.748   9.460 -2.0124  0.8106 -2.0725
  149MOL0     H20058  11.903   9.944   9.333 -0.4686 -2.3991 -0.3451
  149MOL0     H20059  11.944  10.015   9.492  1.8377 -0.1187 -0.4806
  149MOL0     H20060  12.066   9.827   9.555 -1.4946  0.3484  0.2246
  149MOL0     H20061  12.022   9.738   9.398 -0.5243 -1.2468  1.0199
  149MOL0     H20062  12.098   9.913   9.265 -2.8434  1.5429  3.4065
  149MOL0     H20063  12.230   9.805   9.338  0.0828 -1.1621  3.7113
  149MOL0     H20064  12.302  10.037   9.345  2.7708 -0.4792  1.4167
  149MOL0     H20065  12.195  10.043   9.502  1.3521 -1.6979  3.5587
  149MOL0     H20066  12.464   9.820   9.346  1.3102  0.1634  0.3449
  149MOL0     H20067  12.707   9.705   9.596 -0.4699  1.8946  2.4517
  149MOL0     H20068  12.578   9.594   9.649 -3.9617  1.3389  0.2090
  149MOL0     H20069  12.502   9.576   9.398 -0.3281  0.9221  1.9278
  149MOL0     H20070  12.659   9.637   9.357  0.4171  1.1658  0.2368
  149MOL0     H20071  12.661   9.404   9.341 -0.6890 -0.1969  0.9431
  149MOL0     H20072  12.590   9.386   9.506  1.0295  3.0923  3.3077
  149MOL0     H20073  12.811   9.457   9.608  0.5539 -1.2870  0.2412
  149MOL0     H20074  12.866   9.485   9.437 -0.7074 -1.3860 -1.5011
  149MOL0     H20075  12.984   9.403   9.689  0.1987 -0.3357  0.1699
  149MOL0     H20076  13.172   9.300   9.806 -3.1749 -1.1159  2.8260
  149MOL0     H20077  13.571   9.126   9.707  0.8130  0.4842  0.3902
  149MOL0     H20078  13.796   9.103   9.795 -0.1434  0.3178 -0.1170
  149MOL0     H20079  13.856   9.162  10.247  0.2858 -0.7804  0.0606
  149MOL0     H20080  13.854   8.991  10.215 -1.0043 -0.2871 -0.1899
  149MOL0     H20081  14.088   9.195  10.159 -1.1537  0.8948 -1.3751
  149MOL0     H20082  14.082   9.103  10.302  0.2094 -0.8715 -0.4395
  149MOL0     H20083  14.095   8.893  10.179 -0.4511 -1.6596 -3.2396
  149MOL0     H20084  14.084   8.976  10.022  0.2082 -0.1618 -0.1923
  149MOL0     H20085  14.294   9.048  10.221 -1.0491  1.9259 -0.4343
  149MOL0     H20086  14.283   9.074  10.040  0.3546 -0.4003 -1.7581
  149MOL0     H20087  14.279   8.817  10.032  1.8278  0.9991 -2.5271
  149MOL0     H20088  14.337   8.824  10.203 -2.5371 -0.8487 -0.7734
  149MOL0     H20089  14.525   8.801  10.023  1.0851 -0.2430 -0.1392
  149MOL0     H20090  14.452   8.951   9.951 -2.2138 -0.4784  1.3615
  149MOL0     H20091  14.607   8.917  10.212 -1.0134 -0.6189 -0.8141
  149MOL0     H20092  14.544   9.068  10.161  2.9938  1.0174  2.3704
  149MOL0     H20093  14.650   9.048   9.935 -1.5851  3.0095  2.1295
  149MOL0     H20094  14.769   9.081  10.067  0.3215 -0.4611  0.1413
  149MOL0     H20095  13.646   9.134  10.190  0.5770  2.0334 -1.1255
  149MOL0     H20096  13.408   9.146  10.103 -0.8770 -2.4965  0.4068
  149MOL0     H20097  13.129   8.953   9.573  1.4246 -0.7108  4.7184
  149MOL0     H20098  12.918   9.061   9.450 -0.8218  1.8567 -0.0982
  149MOL0     H20099  11.115   9.892   9.586 -2.3902  0.9760  0.0033
  149MOL0     H20100  10.938  10.030   9.576  1.4809 -1.4705  2.3539
  149MOL0     H20101  10.695  10.328   9.454  1.5252  2.1671 -1.0945
  149MOL0     H20102  10.467  10.393   9.482  2.7303 -2.7666 -0.9551
  149MOL0     H20103  10.281  10.420   9.578  0.4033 -0.1275 -0.4706
  149MOL0     H20104  10.220  10.585   9.553 -0.7559  3.1819  3.7158
  149MOL0     H20105  10.179  10.605   9.798  0.3944 -0.5344  1.2940
  149MOL0     H20106  10.234  10.438   9.817 -4.2805 -2.9014 -0.6177
  149MOL0     H20107  10.045  10.361   9.708  0.7634  0.4649 -0.0877
  149MOL0     H20108  10.000  10.518   9.638  1.1251  0.5530  0.5376
  149MOL0     H20109   9.974  10.452   9.931  1.1546 -1.0840 -0.4558
  149MOL0     H20110   9.953  10.621   9.862 -0.3016  0.3098 -2.6825
  149MOL0     H20111   9.580  10.423   9.806 -0.5417 -0.0571  0.7814
  149MOL0     H20112  10.583  10.681   9.781 -0.2129 -0.9591 -0.4487
  149MOL0     H20113  10.918  10.687   9.721  0.9271 -1.0284  0.5721
  149MOL0     H20114  10.781  10.722   9.837  0.7352  0.6142  0.3609
  149MOL0     H20115  10.885  10.581   9.858 -1.5765 -1.5228 -0.1534
  150MOL0     O20116   7.758   3.065  11.198  0.5093  0.5693 -0.6094
  150MOL0     C20117   7.761   2.973  11.120 -0.0585  0.0577  0.2601
  150MOL0     O20118   7.873   2.907  11.077  0.3957 -0.4971  0.4513
  150MOL0     C20119   8.000   2.954  11.118  0.2066 -1.2360  0.6197
  150MOL0     C20120   8.098   2.864  11.149 -0.1532 -0.5400  0.6468
  150MOL0     C20121   8.224   2.904  11.200 -0.2948 -0.0697  0.8022
  150MOL0     C20122   8.252   3.038  11.230 -0.5496 -0.2745  0.0869
  150MOL0     O20123   8.378   3.069  11.268 -0.6880  0.2388 -0.0114
  150MOL0     C20124   8.419   3.196  11.308  0.5553  0.1673 -0.1183
  150MOL0     C20125   8.559   3.193  11.376 -0.1989 -0.2939 -0.7130
  150MOL0     C20126   8.671   3.205  11.270 -0.3919 -0.9255 -0.3558
  150MOL0     C20127   8.808   3.207  11.332 -0.0060 -0.8341 -0.2175
  150MOL0     C20128   8.841   3.080  11.413 -0.8512 -0.1196  0.0082
  150MOL0     C20129   8.950   3.100  11.528 -0.8711 -0.2632  0.4521
  150MOL0     C20130   9.088   3.131  11.469  0.8032 -0.2196  0.2597
  150MOL0     C20131   9.190   3.162  11.580  1.4160  0.4186 -0.0314
  150MOL0     N20132   9.320   3.177  11.541 -0.6409 -0.8159 -0.3551
  150MOL0     C20133   9.432   3.140  11.608  0.2364 -0.1621  0.1152
  150MOL0     C20134   9.535   3.195  11.539  0.1115 -0.0748  0.4564
  150MOL0     C20135   9.675   3.151  11.570  0.2399  0.0324  0.4672
  150MOL0     C20136   9.760   3.152  11.447 -0.6977  0.2424  0.0315
  150MOL0     C20137   9.900   3.092  11.452  0.1001  0.2502  0.5414
  150MOL0     C20138   9.976   3.144  11.324 -0.1345  0.3944 -0.7590
  150MOL0     O20139  10.106   3.072  11.313 -0.3720 -0.1610 -0.4120
  150MOL0     C20140  10.211   3.132  11.244 -0.2655 -0.7811  0.5118
  150MOL0     C20141  10.210   3.260  11.172  0.9106  0.6803  0.7363
  150MOL0     C20142  10.329   3.301  11.103  0.9991 -0.2882 -0.2565
  150MOL0     C20143  10.441   3.211  11.107  0.0747  0.2276  0.0197
  150MOL0     C20144  10.562   3.245  11.028 -0.0531  0.2018 -0.6249
  150MOL0     O20145  10.670   3.163  11.038 -0.1136 -0.3772 -0.1725
  150MOL0     C20146  10.790   3.204  10.997 -0.0695  0.2907  0.0473
  150MOL0     C20147  10.861   3.105  10.949 -0.5458 -0.1721  0.5574
  150MOL0     C20148  10.985   3.123  10.888 -0.4151  0.5376  0.0168
  150MOL0     C20149  11.042   3.247  10.879  0.0524  0.7789 -0.4683
  150MOL0     O20150  11.169   3.269  10.828  0.7300 -0.4720 -0.1117
  150MOL0     C20151  11.271   3.307  10.920 -0.7114  0.4075  0.0077
  150MOL0     C20152  11.397   3.358  10.853 -0.9341 -0.4564  0.6689
  150MOL0     C20153  11.453   3.262  10.754  0.5877  0.9800  0.1743
  150MOL0     C20154  11.584   3.305  10.688  0.9369  0.0390 -0.5351
  150MOL0     C20155  11.646   3.184  10.609 -0.0788 -0.2056 -0.6351
  150MOL0     C20156  11.772   3.238  10.543  0.9914 -0.1389  0.6538
  150MOL0     C20157  11.842   3.134  10.462  0.3284 -0.5918  0.2028
  150MOL0     C20158  11.772   3.063  10.345  0.8611  0.6872  0.2311
  150MOL0    Cl20159  11.705   3.174  10.225 -0.1746  0.0478  0.1779
  150MOL0     C20160  10.979   3.351  10.948 -1.0113 -0.3129  0.3473
  150MOL0     C20161  10.854   3.331  11.009  0.5341 -0.0199 -0.3541
  150MOL0     O20162  10.563   3.355  10.979 -0.0630  0.3576 -0.0552
  150MOL0     C20163  10.442   3.088  11.170  0.9800  0.0089 -0.4866
  150MOL0     C20164  10.327   3.051  11.236  0.3771  0.7128  0.0626
  150MOL0     N20165   9.492   3.272  11.435  0.3743  0.7098  0.8866
  150MOL0     N20166   9.364   3.263  11.443 -0.1219  0.5694  0.5294
  150MOL0     C20167   8.146   3.127  11.200  0.0951  0.5184  0.2090
  150MOL0     C20168   8.030   3.087  11.133 -0.4704  0.8283 -0.0371
  150MOL0     C20169   7.635   2.937  11.055  0.6297 -0.4512  0.0751
  150MOL0     C20170   7.639   2.849  10.947 -0.3692  0.3309 -0.0941
  150MOL0     C20171   7.529   2.785  10.896  0.5182  0.0996  0.6091
  150MOL0     C20172   7.397   2.815  10.945  0.9535  0.3519 -0.5419
  150MOL0     O20173   7.281   2.753  10.904  0.9457 -0.1347  0.3618
  150MOL0     C20174   7.288   2.630  10.836  0.3117 -0.4115  0.2631
  150MOL0     C20175   7.236   2.657  10.696 -0.0297 -0.0150 -0.5528
  150MOL0     C20176   7.196   2.526  10.634  0.0087  1.5829 -0.6632
  150MOL0     C20177   7.318   2.437  10.591 -0.0297  0.1645  0.0040
  150MOL0     C20178   7.402   2.506  10.490  0.3286  0.1913  0.1342
  150MOL0     C20179   7.482   2.558  10.419 -0.0475 -0.9440  0.0356
  150MOL0     C20180   7.390   2.913  11.041 -0.2395  0.3301 -1.3171
  150MOL0     C20181   7.503   2.974  11.098 -0.4501  0.1146 -0.6095
  150MOL0     C20182   7.472   3.070  11.213 -0.6242  0.2715 -0.9414
  150MOL0     H20183   8.069   2.759  11.156 -2.3242  0.0449  1.2928
  150MOL0     H20184   8.298   2.825  11.210 -0.2124 -0.1186 -0.1054
  150MOL0     H20185   8.430   3.265  11.224  0.8417  0.8897  0.4928
  150MOL0     H20186   8.347   3.246  11.375  0.4079 -0.4370  0.1810
  150MOL0     H20187   8.569   3.101  11.435  2.5228 -1.2211 -2.4444
  150MOL0     H20188   8.578   3.277  11.443 -0.5561 -0.0241 -0.9482
  150MOL0     H20189   8.658   3.297  11.212 -0.9465 -0.5743  0.2987
  150MOL0     H20190   8.663   3.115  11.209 -2.7833 -2.6985  2.2813
  150MOL0     H20191   8.886   3.199  11.256 -1.8454 -2.4682 -2.0305
  150MOL0     H20192   8.823   3.293  11.398 -2.6179 -1.4966  1.3930
  150MOL0     H20193   8.758   3.027  11.459 -0.0036  0.5396  2.4498
  150MOL0     H20194   8.881   3.005  11.344 -1.0176  0.0324 -0.2562
  150MOL0     H20195   8.912   3.181  11.591 -1.8888  0.1944 -0.7127
  150MOL0     H20196   8.966   3.011  11.591  2.7474 -1.2881 -1.6358
  150MOL0     H20197   9.070   3.214  11.401 -3.3090 -3.1637 -2.7434
  150MOL0     H20198   9.130   3.041  11.421 -0.2787 -1.4381  1.5052
  150MOL0     H20199   9.152   3.252  11.630 -3.1990 -0.2057 -1.8468
  150MOL0     H20200   9.188   3.077  11.650 -2.1869 -0.8343 -1.3930
  150MOL0     H20201   9.438   3.078  11.697  2.7108 -0.3849 -0.1427
  150MOL0     H20202   9.726   3.206  11.649 -1.5782  0.6787  1.2481
  150MOL0     H20203   9.673   3.051  11.614  3.7470 -0.3768  0.0028
  150MOL0     H20204   9.699   3.102  11.371  0.4829  0.8718 -1.3699
  150MOL0     H20205   9.780   3.257  11.424 -0.3908 -0.1668 -1.7396
  150MOL0     H20206   9.904   2.983  11.453  0.4286  0.2617  0.9800
  150MOL0     H20207   9.949   3.137  11.539 -1.8087  1.1759  1.1795
  150MOL0     H20208   9.993   3.252  11.326  3.4467 -0.0205 -1.2225
  150MOL0     H20209   9.923   3.142  11.228  0.5609 -1.3614 -1.1682
  150MOL0     H20210  10.126   3.328  11.178 -0.4375 -0.5745 -1.9785
  150MOL0     H20211  10.326   3.397  11.053 -0.0460 -0.3014 -0.2415
  150MOL0     H20212  10.831   3.002  10.930 -0.3384 -0.2334  0.5493
  150MOL0     H20213  11.040   3.038  10.850 -0.5160  1.0271 -1.2627
  150MOL0     H20214  11.226   3.384  10.983  2.0561  3.4076 -1.3657
  150MOL0     H20215  11.293   3.216  10.977  0.4908 -0.3390 -1.5600
  150MOL0     H20216  11.366   3.452  10.807  0.4379  0.5131  1.6449
  150MOL0     H20217  11.467   3.379  10.934 -0.4900 -0.2747  0.2472
  150MOL0     H20218  11.473   3.169  10.809  0.4279 -0.5290 -2.1565
  150MOL0     H20219  11.376   3.242  10.679  1.0317 -0.1991  0.0143
  150MOL0     H20220  11.654   3.346  10.760 -0.2320  2.8951 -0.8832
  150MOL0     H20221  11.573   3.391  10.622  2.2805 -0.8516 -1.9863
  150MOL0     H20222  11.574   3.134  10.543 -1.3895  0.2006  0.4428
  150MOL0     H20223  11.670   3.110  10.687 -0.8452  1.6032  1.4251
  150MOL0     H20224  11.743   3.318  10.475  2.2533  0.2659  0.5706
  150MOL0     H20225  11.828   3.287  10.623 -0.1373 -0.0371  1.4061
  150MOL0     H20226  11.884   3.053  10.523  2.3567 -0.7167 -1.2483
  150MOL0     H20227  11.933   3.176  10.419 -1.9584  3.6759 -1.0385
  150MOL0     H20228  11.843   2.992  10.301 -2.2546 -2.3965 -0.2654
  150MOL0     H20229  11.689   2.996  10.371  2.0268 -0.2413  1.8026
  150MOL0     H20230  11.022   3.449  10.962 -0.8417  0.2761 -3.4537
  150MOL0     H20231  10.808   3.419  11.054  2.4747  0.4548  0.7984
  150MOL0     H20232  10.513   3.008  11.161  0.0567 -1.2015  2.0140
  150MOL0     H20233  10.324   2.960  11.296 -0.7947  0.3268 -0.5614
  150MOL0     H20234   8.163   3.234  11.208  0.9294  0.4355 -0.3989
  150MOL0     H20235   7.967   3.156  11.079 -0.5908  0.4140 -0.4378
  150MOL0     H20236   7.731   2.826  10.894 -0.2678  1.4921 -0.4611
  150MOL0     H20237   7.533   2.710  10.818  0.6837  0.1100  0.6068
  150MOL0     H20238   7.217   2.567  10.890 -0.1069  0.9615  1.3775
  150MOL0     H20239   7.386   2.581  10.836 -0.2545 -1.6405  2.0658
  150MOL0     H20240   7.300   2.712  10.627  1.7017  0.0130  0.9998
  150MOL0     H20241   7.137   2.704  10.710 -0.1613 -0.1751 -0.9342
  150MOL0     H20242   7.138   2.554  10.545 -1.1357  2.3043  0.2811
  150MOL0     H20243   7.124   2.482  10.703 -0.2986  0.4236 -1.6907
  150MOL0     H20244   7.366   2.404  10.683 -0.9353  0.4117  0.5757
  150MOL0     H20245   7.287   2.349  10.534  2.5575 -1.2067  0.5615
  150MOL0     H20246   7.540   2.627  10.361 -0.2581 -0.6058  0.2209
  150MOL0     H20247   7.296   2.943  11.086  0.9677  1.0883  0.8510
  150MOL0     H20248   7.529   3.160  11.190 -3.2861  1.5267 -3.2991
  150MOL0     H20249   7.367   3.101  11.217 -0.2484  1.4445  0.6091
  150MOL0     H20250   7.498   3.032  11.312 -0.9131 -0.1333 -1.0182
  151MOL0     O20251   5.044   0.231   1.761 -0.0499 -0.0831 -0.1479
  151MOL0     C20252   5.062   0.119   1.820  0.5066  0.4395 -0.3540
  151MOL0     O20253   5.172   0.046   1.815 -0.4896 -1.3724 -0.1150
  151MOL0     C20254   5.297   0.091   1.786 -0.5287  0.1929  0.0918
  151MOL0     C20255   5.332   0.227   1.808  0.5744  0.2580  0.3052
  151MOL0     C20256   5.453   0.280   1.775 -0.0277 -0.5895 -0.0648
  151MOL0     C20257   5.552   0.198   1.734 -0.1264  0.4506 -0.6060
  151MOL0     O20258   5.679   0.241   1.699 -0.1437 -0.1829 -0.1361
  151MOL0     C20259   5.743   0.312   1.808 -0.3626  0.5650 -0.6699
  151MOL0     C20260   5.894   0.315   1.774 -1.2577  0.7427 -0.8436
  151MOL0     C20261   5.945   0.416   1.880  0.1040  0.5481 -0.0857
  151MOL0     C20262   6.090   0.389   1.904 -0.1311 -0.2975 -0.8621
  151MOL0     C20263   6.148   0.488   2.008 -0.1044  0.2298  0.1570
  151MOL0     C20264   6.300   0.463   2.020 -0.5077 -0.5698 -0.4671
  151MOL0     C20265   6.359   0.539   2.144 -0.0208  0.5316 -0.0352
  151MOL0     C20266   6.344   0.693   2.142 -0.0227  1.0230  0.8257
  151MOL0     N20267   6.432   0.747   2.041  0.2431 -0.0487  0.3423
  151MOL0     C20268   6.567   0.748   2.053  0.3836 -0.3680 -0.5286
  151MOL0     C20269   6.607   0.781   1.926 -0.5107 -0.0238 -0.9540
  151MOL0     C20270   6.749   0.787   1.872 -0.1056 -0.2205  0.7699
  151MOL0     C20271   6.852   0.697   1.945 -0.1620  0.6536  0.8932
  151MOL0     C20272   6.992   0.708   1.878 -0.4662  0.0963  0.2206
  151MOL0     C20273   7.091   0.664   1.978 -1.2015 -0.0213  0.5246
  151MOL0     O20274   7.219   0.631   1.913 -0.7762  0.6616  0.3075
  151MOL0     C20275   7.340   0.639   1.977 -0.4011  0.0183 -0.0145
  151MOL0     C20276   7.362   0.686   2.112 -0.0067  0.1090  0.7288
  151MOL0     C20277   7.492   0.691   2.166 -0.7122 -0.0908  0.3653
  151MOL0     C20278   7.602   0.649   2.095 -0.3280 -0.1464  1.2278
  151MOL0     C20279   7.748   0.673   2.147 -0.1003 -0.2235 -1.3420
  151MOL0     O20280   7.759   0.719   2.272  0.2606 -0.5201  0.4948
  151MOL0     C20281   7.879   0.761   2.327  0.0281  0.4866  0.4585
  151MOL0     C20282   7.943   0.681   2.423  0.6476  1.1229  0.1093
  151MOL0     C20283   8.070   0.719   2.475 -0.2966 -0.3013  0.1452
  151MOL0     C20284   8.131   0.834   2.428  0.0455 -0.6229  0.5100
  151MOL0     O20285   8.255   0.863   2.488 -0.6272  0.5676 -0.7123
  151MOL0     C20286   8.303   0.996   2.507 -0.4566  0.1959 -0.0375
  151MOL0     C20287   8.445   1.003   2.456  0.0387  0.2000  1.0631
  151MOL0     C20288   8.539   0.891   2.536  0.3824 -0.6294  0.0818
  151MOL0     C20289   8.686   0.927   2.514  0.3562  0.0441 -0.2562
  151MOL0     C20290   8.778   0.820   2.553  0.0652  0.5118 -0.0524
  151MOL0     C20291   8.922   0.834   2.522 -0.9362 -0.7502  0.7975
  151MOL0     C20292   9.004   0.711   2.555  0.3100 -0.1023  0.2220
  151MOL0     C20293   9.121   0.693   2.456 -0.0254 -0.1567  0.5914
  151MOL0    Cl20294   9.215   0.834   2.473  0.0859  0.2853 -0.2965
  151MOL0     C20295   8.064   0.922   2.336 -0.3547  0.3096 -0.2928
  151MOL0     C20296   7.939   0.881   2.281  0.8304 -0.6093  0.8235
  151MOL0     O20297   7.845   0.641   2.078  0.4115  0.2921  0.0008
  151MOL0     C20298   7.581   0.603   1.961  0.3343 -0.0019  1.2275
  151MOL0     C20299   7.448   0.592   1.907 -0.0120 -0.0895 -0.7391
  151MOL0     N20300   6.500   0.802   1.846  0.2793  0.3022 -0.2725
  151MOL0     N20301   6.396   0.769   1.911 -0.0632 -0.7384  1.6789
  151MOL0     C20302   5.531   0.055   1.723  0.7178  0.4479 -0.6636
  151MOL0     C20303   5.401   0.009   1.742 -0.4303 -0.0307 -0.6952
  151MOL0     C20304   4.954   0.050   1.911 -0.7726 -1.0040  1.4803
  151MOL0     C20305   4.995  -0.059   1.988 -0.5603 -0.2598  0.4467
  151MOL0     C20306   4.902  -0.124   2.073 -0.4294 -0.5949 -0.1117
  151MOL0     C20307   4.763  -0.090   2.052  0.1642 -0.4992 -0.6251
  151MOL0     O20308   4.681  -0.179   2.113  0.6954 -0.2790 -0.4186
  151MOL0     C20309   4.536  -0.169   2.121 -0.2175  0.2677  0.0917
  151MOL0     C20310   4.494  -0.301   2.190  1.0024 -0.3476  0.1027
  151MOL0     C20311   4.505  -0.431   2.110 -0.8684 -0.5735  0.7346
  151MOL0     C20312   4.363  -0.466   2.063 -0.0904 -0.0833  0.1468
  151MOL0     C20313   4.362  -0.603   2.005 -0.4745  0.0075  0.2388
  151MOL0     C20314   4.358  -0.714   1.955 -0.2639 -0.0477 -0.3864
  151MOL0     C20315   4.728   0.023   1.978 -0.1679 -0.1903 -0.2282
  151MOL0     C20316   4.823   0.093   1.903  1.1606 -0.8843 -0.7524
  151MOL0     C20317   4.768   0.195   1.808 -0.0965  0.5680  0.4031
  151MOL0     H20318   5.262   0.291   1.861 -0.1311 -0.9321  0.8720
  151MOL0     H20319   5.464   0.388   1.776  1.1557 -0.6751 -1.2229
  151MOL0     H20320   5.701   0.413   1.821 -2.1329 -0.0574 -1.2715
  151MOL0     H20321   5.732   0.261   1.904  0.6448  0.6340 -0.5086
  151MOL0     H20322   5.902   0.352   1.672  0.1918  0.0126 -1.0239
  151MOL0     H20323   5.950   0.221   1.775  1.0608  2.0522 -0.4768
  151MOL0     H20324   5.889   0.405   1.973 -0.3031 -0.1198 -0.4021
  151MOL0     H20325   5.922   0.517   1.845  0.8129  0.7786  0.0976
  151MOL0     H20326   6.111   0.284   1.927 -0.5976 -0.6936 -2.1535
  151MOL0     H20327   6.147   0.412   1.813  1.9070  1.8233  0.8245
  151MOL0     H20328   6.134   0.591   1.973 -3.2126  0.0732  0.6705
  151MOL0     H20329   6.094   0.476   2.102 -1.0465 -0.5891 -0.4755
  151MOL0     H20330   6.328   0.357   2.024  1.8548 -0.0500 -1.1475
  151MOL0     H20331   6.341   0.487   1.921 -0.1308 -2.8212 -0.9131
  151MOL0     H20332   6.462   0.504   2.155 -0.2651  0.2983  1.6557
  151MOL0     H20333   6.298   0.509   2.229  0.2371 -1.0195 -0.3698
  151MOL0     H20334   6.243   0.724   2.114  0.0295 -0.5455 -1.4381
  151MOL0     H20335   6.384   0.729   2.237 -0.1526  0.3429  1.1506
  151MOL0     H20336   6.637   0.720   2.132  2.8306  0.3796 -2.2931
  151MOL0     H20337   6.735   0.742   1.773 -2.5293  1.1086  0.4379
  151MOL0     H20338   6.778   0.892   1.867 -1.1028  0.0457  0.3797
  151MOL0     H20339   6.858   0.740   2.045 -1.5812  0.8370  0.9276
  151MOL0     H20340   6.811   0.596   1.955 -1.9271  1.2906  0.4943
  151MOL0     H20341   7.006   0.815   1.857  2.7984 -0.1564  0.6975
  151MOL0     H20342   7.007   0.649   1.787  1.2516  1.1328 -0.2041
  151MOL0     H20343   7.055   0.582   2.040 -0.6654  1.2741  2.6762
  151MOL0     H20344   7.115   0.751   2.040  3.3257  0.5018 -1.5443
  151MOL0     H20345   7.280   0.712   2.177  0.2633  0.4152  0.9487
  151MOL0     H20346   7.519   0.725   2.266  1.8156  0.8970 -0.5672
  151MOL0     H20347   7.877   0.603   2.458 -2.5611  2.3218 -2.6937
  151MOL0     H20348   8.121   0.673   2.559 -0.6227 -4.1361 -1.5493
  151MOL0     H20349   8.238   1.074   2.468 -0.3270  0.9798  1.2547
  151MOL0     H20350   8.311   1.025   2.613 -2.2138  2.4646 -0.4558
  151MOL0     H20351   8.439   0.984   2.349  4.1642  1.7266  0.3688
  151MOL0     H20352   8.473   1.109   2.456 -2.9019  1.1299 -1.4761
  151MOL0     H20353   8.511   0.904   2.641 -1.5514  0.1544 -0.4903
  151MOL0     H20354   8.518   0.791   2.495  2.4265 -1.7596  1.5947
  151MOL0     H20355   8.698   1.011   2.583  3.8220  0.0763 -0.7249
  151MOL0     H20356   8.702   0.951   2.408  1.5342 -1.3715 -0.4256
  151MOL0     H20357   8.751   0.735   2.489  1.7271  0.2195 -0.4027
  151MOL0     H20358   8.767   0.791   2.658 -1.8698 -1.1113 -0.6307
  151MOL0     H20359   8.926   0.854   2.415  1.2453 -0.3866  0.9028
  151MOL0     H20360   8.955   0.921   2.580 -1.1967  0.1210 -0.3485
  151MOL0     H20361   8.938   0.625   2.546 -0.9636  1.0538 -3.2597
  151MOL0     H20362   9.037   0.716   2.659 -1.5324 -0.4576  0.8592
  151MOL0     H20363   9.192   0.616   2.486 -0.9146 -0.5823  1.6712
  151MOL0     H20364   9.085   0.667   2.356  1.8943  1.4205 -0.5545
  151MOL0     H20365   8.114   1.011   2.298 -2.4199  2.4818  1.7132
  151MOL0     H20366   7.890   0.944   2.207 -0.2545 -0.2034  1.8687
  151MOL0     H20367   7.659   0.576   1.890 -0.7940  1.9133 -0.8823
  151MOL0     H20368   7.438   0.563   1.802 -1.9738 -0.9869 -0.3533
  151MOL0     H20369   5.617  -0.005   1.695 -1.4779 -2.2933 -2.0877
  151MOL0     H20370   5.381  -0.098   1.733  0.4771 -0.4106  1.2526
  151MOL0     H20371   5.101  -0.084   1.992 -0.7221 -0.9631  0.4771
  151MOL0     H20372   4.927  -0.204   2.142  0.9859 -1.0995 -1.1716
  151MOL0     H20373   4.505  -0.169   2.016  1.1129 -1.4911 -0.3421
  151MOL0     H20374   4.506  -0.079   2.176  4.3668  2.2791 -0.2541
  151MOL0     H20375   4.394  -0.293   2.233  1.1623 -0.9249  0.5861
  151MOL0     H20376   4.561  -0.313   2.276  1.3806  0.2447 -0.0997
  151MOL0     H20377   4.545  -0.518   2.163 -1.9340 -0.1556  2.3104
  151MOL0     H20378   4.569  -0.409   2.025 -1.1378  1.3030  0.9643
  151MOL0     H20379   4.296  -0.467   2.150 -0.0597 -0.7628  0.1728
  151MOL0     H20380   4.328  -0.398   1.985  0.9355 -0.1877 -0.4218
  151MOL0     H20381   4.322  -0.811   1.929 -2.6348  0.3968  0.9389
  151MOL0     H20382   4.621   0.043   1.980 -0.6148 -2.3431 -0.0022
  151MOL0     H20383   4.787   0.190   1.701  0.1474  6.4688 -0.1239
  151MOL0     H20384   4.659   0.199   1.816 -0.0547  0.7249  0.9829
  151MOL0     H20385   4.810   0.292   1.836  1.0562 -0.6419  3.3132
  152MOL0     O20386   1.718   1.696   4.710 -0.3223  0.5502  0.1967
  152MOL0     C20387   1.644   1.602   4.658  0.6577 -0.6622  0.1077
  152MOL0     O20388   1.655   1.470   4.681 -0.1812  0.1585 -0.8874
  152MOL0     C20389   1.730   1.443   4.794  0.0686  0.7618 -0.4248
  152MOL0     C20390   1.675   1.422   4.924 -0.2413  0.8094  0.7994
  152MOL0     C20391   1.746   1.357   5.027 -0.0544 -0.0497  0.0307
  152MOL0     C20392   1.884   1.334   5.015 -0.3961 -0.0489 -0.1302
  152MOL0     O20393   1.964   1.280   5.110 -0.3703 -0.0322 -0.0261
  152MOL0     C20394   1.907   1.195   5.218 -0.2848 -0.1994  0.3704
  152MOL0     C20395   2.016   1.144   5.313 -0.0892 -0.2656 -0.3415
  152MOL0     C20396   2.096   1.031   5.239 -0.7184 -0.5009 -0.2869
  152MOL0     C20397   2.210   0.988   5.327 -0.9215 -0.3322  0.6580
  152MOL0     C20398   2.270   0.862   5.272  0.3626 -0.5771 -0.2498
  152MOL0     C20399   2.390   0.814   5.361 -0.0199 -0.4155  0.0308
  152MOL0     C20400   2.460   0.699   5.288 -0.2338  0.7791  0.3198
  152MOL0     C20401   2.587   0.663   5.365  0.3463  0.2873 -0.5623
  152MOL0     N20402   2.641   0.532   5.324 -0.4616 -0.3498 -0.3338
  152MOL0     C20403   2.772   0.492   5.321 -0.5640  0.1756 -0.5089
  152MOL0     C20404   2.761   0.356   5.312  0.8432  0.6124 -0.3538
  152MOL0     C20405   2.865   0.250   5.321 -0.0753 -0.1050  0.0944
  152MOL0     C20406   2.897   0.204   5.463  0.2585  0.0313 -0.5835
  152MOL0     C20407   2.781   0.140   5.540  0.3144 -0.5449 -0.2609
  152MOL0     C20408   2.838   0.094   5.671  0.7081  0.4871  0.2666
  152MOL0     O20409   2.954   0.010   5.654 -0.1687 -0.0564 -0.0493
  152MOL0     C20410   3.003  -0.045   5.773  1.0709  0.0304 -0.6620
  152MOL0     C20411   2.934  -0.077   5.890 -0.8500  0.1669  0.1891
  152MOL0     C20412   3.000  -0.124   6.007 -0.5117  0.0161 -0.0179
  152MOL0     C20413   3.142  -0.139   6.004  0.7156  1.0348 -0.7810
  152MOL0     C20414   3.209  -0.197   6.123  0.1330  0.1690  0.8284
  152MOL0     O20415   3.137  -0.218   6.237  0.0304 -0.0755 -0.8853
  152MOL0     C20416   3.184  -0.294   6.343 -0.4904  0.2133  0.2963
  152MOL0     C20417   3.292  -0.246   6.415 -0.6664  0.7356  1.3502
  152MOL0     C20418   3.353  -0.321   6.519  0.4367  0.0416  0.9302
  152MOL0     C20419   3.309  -0.451   6.546  0.1629 -0.1123  0.9423
  152MOL0     O20420   3.357  -0.523   6.655 -0.6309 -1.0170 -0.1271
  152MOL0     C20421   3.382  -0.667   6.646  0.0093  0.0865 -0.0320
  152MOL0     C20422   3.530  -0.701   6.601 -0.6019 -0.2236 -0.4749
  152MOL0     C20423   3.624  -0.711   6.721 -0.0690  0.5138  0.0441
  152MOL0     C20424   3.615  -0.591   6.812 -0.2037  0.0175 -0.2563
  152MOL0     C20425   3.721  -0.572   6.914  0.5491 -0.3163 -0.6110
  152MOL0     C20426   3.852  -0.502   6.872 -0.7894  0.0286 -0.0728
  152MOL0     C20427   3.827  -0.348   6.867 -0.0654 -0.4761  0.1323
  152MOL0     C20428   3.955  -0.274   6.834 -0.4014  0.2360 -0.1428
  152MOL0    Cl20429   4.036  -0.344   6.694  0.0449 -0.0383 -0.0732
  152MOL0     C20430   3.190  -0.499   6.483 -0.4503  0.3166  0.4312
  152MOL0     C20431   3.132  -0.422   6.374  0.1772  0.0678  0.4269
  152MOL0     O20432   3.329  -0.211   6.116  0.2919 -0.3781 -0.1181
  152MOL0     C20433   3.208  -0.106   5.886  0.1493  0.6651  0.2928
  152MOL0     C20434   3.136  -0.071   5.768 -0.1540 -0.4590  1.1246
  152MOL0     N20435   2.630   0.323   5.305  0.0986  0.0927 -0.1742
  152MOL0     N20436   2.559   0.428   5.307  0.8876  0.6930  0.8414
  152MOL0     C20437   1.939   1.364   4.884 -0.4674  0.8808  0.1330
  152MOL0     C20438   1.863   1.414   4.778 -0.1368  0.2134  0.6134
  152MOL0     C20439   1.548   1.645   4.551  0.5277  0.8698  0.1766
  152MOL0     C20440   1.489   1.543   4.469 -0.0534 -1.0702  0.1056
  152MOL0     C20441   1.421   1.584   4.353 -0.0634  0.6195  0.2317
  152MOL0     C20442   1.387   1.716   4.332  0.4234  0.6306 -0.4232
  152MOL0     O20443   1.315   1.755   4.221 -0.4791  0.0252  0.0280
  152MOL0     C20444   1.404   1.827   4.129  0.3949 -0.3810 -0.1638
  152MOL0     C20445   1.335   1.862   3.998  0.3119 -0.2830 -0.7321
  152MOL0     C20446   1.215   1.951   4.046 -0.1009 -0.2846 -0.0717
  152MOL0     C20447   1.112   1.942   3.936  0.0913 -0.2946 -0.0146
  152MOL0     C20448   1.044   1.817   3.939  0.0878  0.1812 -0.1931
  152MOL0     C20449   0.985   1.711   3.944  0.4880 -0.2259  0.1852
  152MOL0     C20450   1.432   1.816   4.415 -0.8324 -0.3444 -0.1470
  152MOL0     C20451   1.518   1.784   4.525  0.9352  0.2891 -0.4139
  152MOL0     C20452   1.574   1.909   4.593 -0.0343 -0.4223 -0.3703
  152MOL0     H20453   1.567   1.408   4.933 -0.0335 -0.7388  1.1745
  152MOL0     H20454   1.689   1.313   5.109 -0.1602 -3.7421 -1.8134
  152MOL0     H20455   1.838   1.254   5.279 -0.3805  0.9815 -0.8319
  152MOL0     H20456   1.848   1.113   5.176 -0.9054 -0.1412  1.1066
  152MOL0     H20457   1.976   1.108   5.409 -0.5023 -0.3613 -0.5436
  152MOL0     H20458   2.082   1.225   5.344  1.1631 -1.1643 -0.6056
  152MOL0     H20459   2.132   1.070   5.144  3.2119  1.4793  1.7812
  152MOL0     H20460   2.040   0.940   5.213  1.2896 -2.3484  1.3954
  152MOL0     H20461   2.292   1.060   5.336 -2.0489  1.1238 -0.1522
  152MOL0     H20462   2.175   0.971   5.429 -2.2441 -0.9039  0.1347
  152MOL0     H20463   2.193   0.784   5.272  2.7798 -3.1511 -2.1448
  152MOL0     H20464   2.289   0.873   5.165  0.6945  1.3299 -0.0431
  152MOL0     H20465   2.457   0.900   5.369  1.0326 -1.2505  0.4316
  152MOL0     H20466   2.354   0.786   5.460  2.2160  0.6637  1.2254
  152MOL0     H20467   2.500   0.724   5.189  2.7482 -0.3355  1.1122
  152MOL0     H20468   2.398   0.610   5.281 -0.2060  0.7162  0.8675
  152MOL0     H20469   2.675   0.728   5.363  1.2881 -0.9612 -0.8765
  152MOL0     H20470   2.567   0.651   5.472 -2.4937  1.6659 -0.8454
  152MOL0     H20471   2.866   0.547   5.325  1.4499 -3.0835  0.0925
  152MOL0     H20472   2.826   0.158   5.276 -3.1764 -0.3139  2.8256
  152MOL0     H20473   2.952   0.288   5.267  0.6209 -0.9493  0.5959
  152MOL0     H20474   2.989   0.145   5.469  0.0367 -0.1870  1.2608
  152MOL0     H20475   2.933   0.296   5.512 -0.1897  0.3441 -0.8333
  152MOL0     H20476   2.730   0.060   5.485  1.2655 -1.1397 -0.2959
  152MOL0     H20477   2.706   0.218   5.555 -0.6263 -1.1055 -1.7555
  152MOL0     H20478   2.754   0.041   5.719  0.5433  0.3378 -0.1794
  152MOL0     H20479   2.865   0.177   5.737 -3.6455  0.6028  2.2686
  152MOL0     H20480   2.829  -0.061   5.913 -0.6963 -0.6920  1.5872
  152MOL0     H20481   2.950  -0.137   6.102 -2.7699  2.6360 -0.7143
  152MOL0     H20482   3.345  -0.155   6.390  0.4372 -0.4174 -0.7642
  152MOL0     H20483   3.438  -0.286   6.577  0.0333 -1.7680  2.7320
  152MOL0     H20484   3.349  -0.710   6.740  0.3203  0.1564  0.1082
  152MOL0     H20485   3.314  -0.716   6.575 -1.6332  2.2859 -0.1035
  152MOL0     H20486   3.532  -0.793   6.542  0.1796  0.0928 -0.9495
  152MOL0     H20487   3.562  -0.614   6.543 -0.8569  1.3813  1.6656
  152MOL0     H20488   3.603  -0.804   6.774 -0.1385 -0.4261 -1.5614
  152MOL0     H20489   3.723  -0.718   6.675  1.1659  0.5680  2.5337
  152MOL0     H20490   3.518  -0.586   6.861 -1.0657 -3.4498 -1.2985
  152MOL0     H20491   3.616  -0.498   6.755 -0.2560  0.5753  0.6366
  152MOL0     H20492   3.748  -0.668   6.959 -0.1510 -1.9314 -3.4216
  152MOL0     H20493   3.681  -0.519   7.001  1.7788 -1.4809  0.7213
  152MOL0     H20494   3.929  -0.533   6.943 -1.1983 -1.5442 -0.2926
  152MOL0     H20495   3.873  -0.537   6.771 -2.9583 -0.6093 -0.3386
  152MOL0     H20496   3.786  -0.316   6.963  0.2402  3.2264 -0.8377
  152MOL0     H20497   3.747  -0.330   6.794 -0.1491 -2.3187 -0.2914
  152MOL0     H20498   3.940  -0.167   6.817  0.6335  0.5303  0.6928
  152MOL0     H20499   4.018  -0.290   6.922 -2.6946 -4.0438  1.0290
  152MOL0     H20500   3.145  -0.592   6.518 -1.5987  1.1217  1.1694
  152MOL0     H20501   3.046  -0.456   6.318  0.9765  2.1340 -2.3040
  152MOL0     H20502   3.314  -0.128   5.881 -0.2481 -1.0800 -1.9425
  152MOL0     H20503   3.187  -0.056   5.674 -1.1094 -3.8371 -0.0996
  152MOL0     H20504   2.046   1.345   4.882 -0.2722  0.9330  3.7762
  152MOL0     H20505   1.903   1.430   4.678 -2.2371  0.9822 -0.1734
  152MOL0     H20506   1.509   1.438   4.488  0.1296 -1.2180 -0.8422
  152MOL0     H20507   1.386   1.509   4.284 -1.2027 -1.4421  2.8747
  152MOL0     H20508   1.492   1.765   4.112  2.4587  1.8137  1.7172
  152MOL0     H20509   1.439   1.920   4.176 -1.8217  0.8377 -0.7563
  152MOL0     H20510   1.304   1.768   3.951  1.7322 -1.1620  0.0196
  152MOL0     H20511   1.404   1.912   3.929  0.4935  1.8199  0.8547
  152MOL0     H20512   1.253   2.053   4.057 -1.9832  0.6590 -1.6270
  152MOL0     H20513   1.169   1.926   4.142 -0.6608 -4.6965 -1.2763
  152MOL0     H20514   1.030   2.013   3.953 -2.3920 -2.7744 -0.8821
  152MOL0     H20515   1.145   1.975   3.837  1.2076 -0.7700  0.1905
  152MOL0     H20516   0.944   1.611   3.936 -1.7763  0.6979 -0.7742
  152MOL0     H20517   1.399   1.916   4.392 -2.9759 -1.2472 -1.3178
  152MOL0     H20518   1.551   1.903   4.700  3.0977  2.3016  0.6121
  152MOL0     H20519   1.683   1.909   4.587  0.0769 -2.2968  0.6845
  152MOL0     H20520   1.523   1.998   4.555 -2.5302 -1.6647 -0.1588
  153MOL0     O20521   5.711  10.135   8.692 -0.4571  0.0630 -0.6076
  153MOL0     C20522   5.751  10.208   8.605  0.6507 -0.9897 -0.8239
  153MOL0     O20523   5.686  10.316   8.546  0.1994  0.6603 -0.1389
  153MOL0     C20524   5.570  10.344   8.604  1.0301 -0.3698 -0.1172
  153MOL0     C20525   5.559  10.444   8.700 -0.2699 -0.0128 -0.4582
  153MOL0     C20526   5.435  10.486   8.752  0.4563  0.1746 -0.6252
  153MOL0     C20527   5.312  10.428   8.710  0.2173 -0.5345 -0.1858
  153MOL0     O20528   5.197  10.477   8.767  0.0728  0.2190 -0.4699
  153MOL0     C20529   5.090  10.489   8.680  0.4471  0.7351 -0.0841
  153MOL0     C20530   4.971  10.549   8.761 -0.6533  0.5372 -0.8900
  153MOL0     C20531   4.838  10.524   8.690  0.7095 -0.4956 -0.3114
  153MOL0     C20532   4.723  10.612   8.748 -0.0826 -0.5465  0.6830
  153MOL0     C20533   4.721  10.755   8.685  0.7095  0.1451 -0.1102
  153MOL0     C20534   4.622  10.851   8.748  0.1238  0.3063 -0.0473
  153MOL0     C20535   4.605  10.966   8.646  0.4776 -0.3831 -0.1110
  153MOL0     C20536   4.486  11.053   8.686  0.2680 -0.2296 -0.1536
  153MOL0     N20537   4.481  11.102   8.825  0.2406  0.4922 -0.0919
  153MOL0     C20538   4.569  11.195   8.884  1.0046 -0.4241  0.6646
  153MOL0     C20539   4.526  11.210   9.013  0.9916  0.2066 -0.1224
  153MOL0     C20540   4.584  11.295   9.123 -0.3598 -0.2465  0.4252
  153MOL0     C20541   4.497  11.383   9.204  0.7356 -0.3652 -0.2021
  153MOL0     C20542   4.430  11.309   9.319  0.5635 -0.0807  1.0662
  153MOL0     C20543   4.524  11.252   9.433 -0.1983  0.0364 -0.5349
  153MOL0     O20544   4.612  11.358   9.485  0.0209 -0.0021  0.3605
  153MOL0     C20545   4.711  11.326   9.569  0.5470 -0.4761  0.8163
  153MOL0     C20546   4.717  11.213   9.656  0.3975 -0.0912  1.0880
  153MOL0     C20547   4.821  11.199   9.748 -1.3321  0.4279 -0.5563
  153MOL0     C20548   4.922  11.299   9.759  1.1571 -0.3658  0.2286
  153MOL0     C20549   5.018  11.295   9.868  0.3976 -0.4008  0.6515
  153MOL0     O20550   5.097  11.405   9.880 -0.0468  0.6954  0.5077
  153MOL0     C20551   5.198  11.412   9.973  0.1025  0.0519  0.2065
  153MOL0     C20552   5.159  11.477  10.090  0.7547  1.0374  0.0761
  153MOL0     C20553   5.249  11.506  10.190  0.0030  0.6835  0.4385
  153MOL0     C20554   5.388  11.477  10.174  0.1749 -0.9075 -0.0267
  153MOL0     O20555   5.483  11.521  10.268  0.3274 -0.2305  0.2217
  153MOL0     C20556   5.433  11.550  10.403  0.2309  0.4817  0.2432
  153MOL0     C20557   5.544  11.533  10.513 -0.4855  0.3357  0.3790
  153MOL0     C20558   5.612  11.396  10.514 -1.0415 -0.0718  0.1716
  153MOL0     C20559   5.737  11.395  10.597 -0.2178 -0.1508 -1.0332
  153MOL0     C20560   5.834  11.281  10.564 -0.0715 -0.4917  0.0817
  153MOL0     C20561   5.930  11.267  10.678 -0.0205 -0.4199 -0.3600
  153MOL0     C20562   6.061  11.202  10.656 -0.2282 -0.1587  0.2815
  153MOL0     C20563   6.055  11.046  10.647 -0.4423 -0.1449  0.3001
  153MOL0    Cl20564   6.043  10.994  10.475  0.5317 -0.1659 -0.3406
  153MOL0     C20565   5.425  11.405  10.059 -0.1483 -0.2611 -0.5097
  153MOL0     C20566   5.331  11.371   9.965  0.5560 -0.4281  0.0535
  153MOL0     O20567   5.018  11.196   9.941 -0.1096 -0.2591 -0.3327
  153MOL0     C20568   4.916  11.408   9.665  0.2851 -0.3340 -0.0942
  153MOL0     C20569   4.806  11.422   9.577  1.0687  0.7523 -0.5828
  153MOL0     N20570   4.426  11.120   9.035  0.5336  0.0076 -0.0031
  153MOL0     N20571   4.397  11.062   8.922 -0.3240 -0.3792 -0.3724
  153MOL0     C20572   5.322  10.321   8.619  0.9943  0.5566 -0.6588
  153MOL0     C20573   5.449  10.295   8.563 -0.2544 -0.0303  0.7547
  153MOL0     C20574   5.876  10.187   8.526 -0.3619  0.2106  0.6829
  153MOL0     C20575   5.948  10.287   8.474 -0.3685  0.9603  0.1832
  153MOL0     C20576   6.062  10.260   8.408 -0.0774 -0.1069 -0.5110
  153MOL0     C20577   6.123  10.141   8.395 -1.0361  1.1438 -0.1128
  153MOL0     O20578   6.258  10.142   8.351  0.3885  0.8125 -0.3425
  153MOL0     C20579   6.323  10.016   8.342 -0.2270  0.2707  0.4710
  153MOL0     C20580   6.450  10.034   8.259  0.3204  0.7441 -0.2451
  153MOL0     C20581   6.547  10.126   8.337 -0.5591 -0.7465  0.0149
  153MOL0     C20582   6.688  10.135   8.273  0.3588  0.5545 -0.7389
  153MOL0     C20583   6.755  10.014   8.310 -0.0219 -0.4545 -0.1287
  153MOL0     C20584   6.814   9.909   8.337 -0.3561 -0.1235 -0.1176
  153MOL0     C20585   6.049  10.031   8.437 -0.3444 -0.2924 -0.0699
  153MOL0     C20586   5.922  10.045   8.506  0.1898 -0.2989 -0.5259
  153MOL0     C20587   5.842   9.924   8.543  1.0669 -0.5105  0.0403
  153MOL0     H20588   5.648  10.498   8.732 -0.8929  0.0927  1.2198
  153MOL0     H20589   5.435  10.551   8.839 -0.4969 -1.3757  0.5906
  153MOL0     H20590   5.111  10.563   8.603 -0.9024 -0.1155 -1.3292
  153MOL0     H20591   5.061  10.392   8.639 -1.0530  0.7215  0.9075
  153MOL0     H20592   4.999  10.651   8.788  2.2054 -1.0215  3.0531
  153MOL0     H20593   4.970  10.505   8.861 -0.0282 -1.3774 -1.6845
  153MOL0     H20594   4.813  10.417   8.696  1.6461 -0.8119 -1.5503
  153MOL0     H20595   4.856  10.563   8.590  1.8887  1.2015  0.5234
  153MOL0     H20596   4.634  10.551   8.733 -1.0020  0.1693  2.8457
  153MOL0     H20597   4.726  10.625   8.856 -1.2069  0.8549  0.5731
  153MOL0     H20598   4.818  10.805   8.688  2.1986 -2.5061 -1.0671
  153MOL0     H20599   4.685  10.739   8.583 -1.4287 -1.3910  0.8252
  153MOL0     H20600   4.527  10.799   8.759  0.1034  0.2606 -0.4314
  153MOL0     H20601   4.657  10.883   8.847 -0.3973 -3.0166  1.3591
  153MOL0     H20602   4.574  10.922   8.550 -1.6994  2.4835 -0.8916
  153MOL0     H20603   4.704  11.011   8.630  0.5331 -0.5720 -0.3082
  153MOL0     H20604   4.480  11.136   8.615 -2.5661 -0.1440  0.0737
  153MOL0     H20605   4.389  11.014   8.653  1.1451 -1.3147 -1.5711
  153MOL0     H20606   4.654  11.246   8.841  2.4933 -1.4376  2.2560
  153MOL0     H20607   4.657  11.231   9.173  0.6554 -0.2705 -1.0086
  153MOL0     H20608   4.655  11.355   9.065  1.8492 -3.1596 -0.1211
  153MOL0     H20609   4.558  11.465   9.243  1.8950 -1.2124 -0.1564
  153MOL0     H20610   4.420  11.417   9.134 -1.2045 -3.6406  0.1495
  153MOL0     H20611   4.375  11.224   9.277 -0.7828  0.7947  1.0064
  153MOL0     H20612   4.351  11.369   9.365 -1.3780 -1.6340 -0.0992
  153MOL0     H20613   4.589  11.171   9.398 -0.8654  0.3004 -2.5391
  153MOL0     H20614   4.456  11.210   9.508 -2.2891  0.2577 -2.1958
  153MOL0     H20615   4.652  11.126   9.655  3.0868 -2.2359  0.3757
  153MOL0     H20616   4.825  11.118   9.819 -0.7336  2.2171  1.5470
  153MOL0     H20617   5.059  11.520  10.100  0.5978  0.2196  2.8237
  153MOL0     H20618   5.203  11.556  10.276  0.0135  1.3788  0.0513
  153MOL0     H20619   5.401  11.654  10.402 -2.7747 -0.3801 -0.5585
  153MOL0     H20620   5.354  11.479  10.429  0.2901 -0.5197 -2.0857
  153MOL0     H20621   5.622  11.607  10.501 -0.6334  0.4029 -0.1699
  153MOL0     H20622   5.499  11.551  10.612 -0.2966  0.1767  0.4954
  153MOL0     H20623   5.536  11.330  10.556 -3.7315  1.7016 -1.5633
  153MOL0     H20624   5.633  11.358  10.414 -1.1751  0.0777  0.0846
  153MOL0     H20625   5.711  11.379  10.702 -1.2226 -0.6518 -1.3480
  153MOL0     H20626   5.786  11.493  10.602 -1.5722  0.5122  3.3068
  153MOL0     H20627   5.896  11.304  10.476 -0.3067 -1.4494 -0.3386
  153MOL0     H20628   5.785  11.184  10.555  0.6518 -0.9763  1.1807
  153MOL0     H20629   5.958  11.364  10.719  1.5980 -1.8536  2.2255
  153MOL0     H20630   5.875  11.214  10.757 -0.7447 -0.9114 -1.1842
  153MOL0     H20631   6.119  11.226  10.745 -0.0792  1.3848 -0.2091
  153MOL0     H20632   6.108  11.240  10.565 -1.5022 -0.0646 -0.3593
  153MOL0     H20633   6.152  11.005  10.677 -0.1627 -3.1616 -3.8635
  153MOL0     H20634   5.970  11.008  10.705 -3.0171  1.6054 -2.0440
  153MOL0     H20635   5.532  11.392  10.042 -0.1752  0.8032 -1.6605
  153MOL0     H20636   5.366  11.316   9.878  2.1281 -0.8162  0.8864
  153MOL0     H20637   4.985  11.490   9.682  2.1176 -1.8817  0.3385
  153MOL0     H20638   4.799  11.515   9.522 -0.6634  2.4960  2.2793
  153MOL0     H20639   5.239  10.262   8.580 -0.0181  1.7160 -0.3414
  153MOL0     H20640   5.453  10.231   8.475 -1.6811  1.0143 -0.1151
  153MOL0     H20641   5.913  10.388   8.489  1.2597  1.4448  0.9344
  153MOL0     H20642   6.126  10.343   8.379  0.0635  0.0096  0.1095
  153MOL0     H20643   6.256   9.946   8.291  0.9496  0.3919 -1.3169
  153MOL0     H20644   6.360   9.972   8.435  0.3560  1.4916  0.8424
  153MOL0     H20645   6.416  10.089   8.170  3.0360 -0.8701 -2.4189
  153MOL0     H20646   6.499   9.942   8.227  0.6393  1.7883 -3.1650
  153MOL0     H20647   6.567  10.093   8.439  2.8165  1.3010  0.1671
  153MOL0     H20648   6.491  10.220   8.334 -2.7646 -2.0127 -2.0576
  153MOL0     H20649   6.684  10.139   8.164 -1.3697  1.4111 -0.6804
  153MOL0     H20650   6.740  10.221   8.316  0.3957  0.1756 -0.0108
  153MOL0     H20651   6.865   9.815   8.345  1.6647  0.8732 -0.5581
  153MOL0     H20652   6.084   9.928   8.427 -1.8654 -1.1180  2.2050
  153MOL0     H20653   5.736   9.936   8.516  0.8551  1.0283  1.4115
  153MOL0     H20654   5.875   9.825   8.511 -0.0003 -0.3730 -1.6216
  153MOL0     H20655   5.848   9.927   8.652 -0.4843  2.9420  0.1611
  154MOL0     O20656   0.582   2.979   6.126  0.0274  0.2049  0.2035
  154MOL0     C20657   0.528   2.868   6.110  0.6944  0.0769  0.3218
  154MOL0     O20658   0.588   2.755   6.045  0.3460  0.0753 -0.4086
  154MOL0     C20659   0.721   2.740   6.005 -0.2545  0.0224 -0.4319
  154MOL0     C20660   0.822   2.832   6.013 -0.7746 -0.2621  0.1890
  154MOL0     C20661   0.944   2.808   5.963 -0.1949 -0.1964  0.3163
  154MOL0     C20662   0.979   2.678   5.918  1.0136  0.3922 -0.6736
  154MOL0     O20663   1.103   2.655   5.869 -0.0606 -0.4446 -0.3324
  154MOL0     C20664   1.175   2.765   5.824  0.3135 -0.6677 -1.3621
  154MOL0     C20665   1.284   2.712   5.733 -0.1834  0.4476  0.7049
  154MOL0     C20666   1.333   2.564   5.774  0.5149 -0.4811  0.3293
  154MOL0     C20667   1.427   2.502   5.676  0.0725  0.5091 -0.7111
  154MOL0     C20668   1.566   2.575   5.691 -0.2206  0.1148  0.0441
  154MOL0     C20669   1.667   2.540   5.568  0.6293 -0.0731  0.1792
  154MOL0     C20670   1.799   2.594   5.599 -0.2697 -0.1573 -1.5220
  154MOL0     C20671   1.896   2.601   5.469  1.0268  0.7375 -0.3822
  154MOL0     N20672   2.009   2.681   5.500 -0.6241 -0.0642 -0.4607
  154MOL0     C20673   2.123   2.656   5.573  0.3955 -0.0527  0.7327
  154MOL0     C20674   2.178   2.776   5.599 -0.6378 -0.7745 -0.1663
  154MOL0     C20675   2.289   2.809   5.698 -0.6077 -0.3220 -0.4191
  154MOL0     C20676   2.349   2.950   5.657 -0.7112 -0.0085 -1.0857
  154MOL0     C20677   2.479   2.983   5.734  0.3877 -0.3764  0.6023
  154MOL0     C20678   2.523   3.132   5.710  0.0688  1.0150  0.3707
  154MOL0     O20679   2.534   3.169   5.570 -0.6046  0.4314  0.4705
  154MOL0     C20680   2.441   3.249   5.507 -0.4151  0.6064 -0.1757
  154MOL0     C20681   2.447   3.254   5.371  0.3478  0.3728 -0.2689
  154MOL0     C20682   2.350   3.330   5.298 -0.8851 -1.0550 -0.5482
  154MOL0     C20683   2.242   3.406   5.357  0.0044 -0.0919 -0.0665
  154MOL0     C20684   2.155   3.488   5.275  0.0135  0.7452 -0.2843
  154MOL0     O20685   2.059   3.564   5.344 -0.1408 -0.0028  0.2853
  154MOL0     C20686   1.986   3.649   5.272 -0.6212  0.0863  0.0853
  154MOL0     C20687   1.984   3.785   5.304 -0.6258 -0.3406 -0.5236
  154MOL0     C20688   1.903   3.872   5.240 -0.6563  0.2930 -0.1043
  154MOL0     C20689   1.819   3.830   5.138 -0.2878 -0.2124 -0.0927
  154MOL0     O20690   1.728   3.904   5.065  0.2435  0.5581  0.4979
  154MOL0     C20691   1.687   4.032   5.124  0.3619  0.3506  1.1692
  154MOL0     C20692   1.611   4.126   5.019  0.4771  0.4300  0.1084
  154MOL0     C20693   1.475   4.066   4.987 -0.6862  0.4849 -0.1844
  154MOL0     C20694   1.425   4.091   4.842  0.2297 -0.6499 -0.0052
  154MOL0     C20695   1.273   4.113   4.837  0.3701 -0.1734  0.0942
  154MOL0     C20696   1.237   4.082   4.689 -0.3839 -0.1867 -0.4296
  154MOL0     C20697   1.092   4.129   4.666  0.7340  0.5657 -0.1278
  154MOL0     C20698   1.032   4.055   4.552  0.7914 -0.2079  0.1722
  154MOL0    Cl20699   1.119   4.082   4.400  0.3028 -0.1342 -0.1909
  154MOL0     C20700   1.815   3.697   5.108  0.0247 -0.1455 -0.7114
  154MOL0     C20701   1.893   3.606   5.171 -0.0570  0.0478 -0.4756
  154MOL0     O20702   2.180   3.503   5.151 -0.5132 -0.6121 -0.3630
  154MOL0     C20703   2.232   3.385   5.490  0.2336 -0.1506  0.3764
  154MOL0     C20704   2.324   3.311   5.568 -0.3083  0.1719 -0.0732
  154MOL0     N20705   2.119   2.869   5.516  0.3861 -0.2143 -0.4842
  154MOL0     N20706   2.015   2.813   5.468  0.5571  0.3087  0.4520
  154MOL0     C20707   0.880   2.573   5.930  0.4571 -0.0008  0.4411
  154MOL0     C20708   0.745   2.602   5.975 -0.4686  0.3758 -0.0157
  154MOL0     C20709   0.383   2.846   6.138 -0.2700  0.1003  0.0529
  154MOL0     C20710   0.318   2.721   6.112  0.0470  0.3594 -0.5513
  154MOL0     C20711   0.179   2.713   6.117  0.1616 -0.6318  0.1280
  154MOL0     C20712   0.098   2.809   6.176  1.0684 -0.0721  0.2941
  154MOL0     O20713  -0.046   2.799   6.191 -0.4674  0.1084  0.0756
  154MOL0     C20714  -0.128   2.901   6.246  0.0020  0.2740  0.5803
  154MOL0     C20715  -0.266   2.876   6.181  0.2255 -0.5297  0.2952
  154MOL0     C20716  -0.333   2.740   6.195  0.3795  0.5283  0.7348
  154MOL0     C20717  -0.381   2.705   6.333  0.1393 -0.3085  0.4096
  154MOL0     C20718  -0.273   2.688   6.431  0.7597 -0.3465  0.3106
  154MOL0     C20719  -0.170   2.672   6.487 -0.0071  0.7999 -0.6938
  154MOL0     C20720   0.165   2.924   6.230  0.4098  0.2623 -0.0357
  154MOL0     C20721   0.302   2.944   6.201 -0.6736 -0.9720 -0.1468
  154MOL0     C20722   0.367   3.068   6.263 -0.5057 -0.6253  0.0205
  154MOL0     H20723   0.804   2.935   6.043  0.9640  0.5344 -1.2996
  154MOL0     H20724   1.024   2.881   5.968  3.1015 -2.9585 -4.2550
  154MOL0     H20725   1.121   2.844   5.771  1.8309  1.2454 -0.2173
  154MOL0     H20726   1.227   2.815   5.906  1.6910 -1.2557 -1.8431
  154MOL0     H20727   1.378   2.767   5.742  1.6187 -2.1397 -0.8201
  154MOL0     H20728   1.253   2.710   5.628  2.2084  0.4703 -0.0590
  154MOL0     H20729   1.240   2.507   5.770  0.6946 -0.8571  1.3654
  154MOL0     H20730   1.376   2.549   5.873  0.6561 -1.9652  0.0615
  154MOL0     H20731   1.436   2.394   5.686 -0.1478  0.5456 -0.0853
  154MOL0     H20732   1.387   2.523   5.576 -0.0531  0.0188 -0.7653
  154MOL0     H20733   1.559   2.684   5.695 -1.9748  0.1599 -2.1287
  154MOL0     H20734   1.618   2.539   5.780 -1.0700  0.1163  0.5465
  154MOL0     H20735   1.673   2.433   5.545  0.4057  0.2887 -1.6866
  154MOL0     H20736   1.636   2.588   5.475  1.5747 -0.6912 -0.4757
  154MOL0     H20737   1.848   2.533   5.676  0.0152  2.0645  0.1696
  154MOL0     H20738   1.781   2.689   5.650 -0.4531 -0.8614 -0.2222
  154MOL0     H20739   1.922   2.497   5.448 -1.6097  0.1399 -1.0573
  154MOL0     H20740   1.836   2.648   5.391 -0.0415  0.2289  0.1208
  154MOL0     H20741   2.142   2.560   5.621 -0.7431 -1.7189 -1.9149
  154MOL0     H20742   2.243   2.806   5.797 -1.3929 -2.4990 -0.7837
  154MOL0     H20743   2.360   2.726   5.699 -3.6674 -3.1903 -1.3323
  154MOL0     H20744   2.368   2.950   5.549  0.7514  1.3123 -0.8644
  154MOL0     H20745   2.277   3.028   5.684  1.7107  1.1619  2.6992
  154MOL0     H20746   2.561   2.917   5.705  1.7644  0.6588  1.9450
  154MOL0     H20747   2.462   2.974   5.842 -2.1280  2.8804  0.6671
  154MOL0     H20748   2.625   3.128   5.749  1.1975  0.4658 -2.3972
  154MOL0     H20749   2.468   3.206   5.768 -0.5082  0.5468  0.4243
  154MOL0     H20750   2.533   3.206   5.326  0.4696 -0.0681  0.4163
  154MOL0     H20751   2.368   3.339   5.191  1.5323  2.4738  0.0057
  154MOL0     H20752   2.067   3.822   5.363  0.0850 -0.3434 -1.4965
  154MOL0     H20753   1.907   3.976   5.270 -2.1154 -0.3912  2.8376
  154MOL0     H20754   1.619   4.023   5.209 -3.6587  1.4161 -1.6201
  154MOL0     H20755   1.772   4.091   5.160  0.7103 -0.7237  2.1453
  154MOL0     H20756   1.592   4.224   5.063  4.0281  1.0663  0.5440
  154MOL0     H20757   1.673   4.154   4.933 -0.3374 -0.0425 -0.6526
  154MOL0     H20758   1.486   3.957   4.991 -1.8772  0.1648 -3.1394
  154MOL0     H20759   1.408   4.100   5.066  1.2835 -0.1702  1.8812
  154MOL0     H20760   1.454   4.002   4.784 -0.7619  0.1666 -1.8326
  154MOL0     H20761   1.467   4.189   4.819  0.7058  0.4159  4.5335
  154MOL0     H20762   1.242   4.215   4.860 -0.5948 -0.3114 -0.4970
  154MOL0     H20763   1.234   4.041   4.910 -1.2706  0.1808 -0.3872
  154MOL0     H20764   1.307   4.133   4.622  0.1165  0.2376  0.3952
  154MOL0     H20765   1.243   3.974   4.674 -2.2402 -0.3575 -0.1485
  154MOL0     H20766   1.085   4.236   4.642  1.1861  1.4399  3.0833
  154MOL0     H20767   1.037   4.112   4.759 -1.3595  3.5809 -0.6854
  154MOL0     H20768   1.016   3.947   4.564 -2.5954  0.2279  0.4028
  154MOL0     H20769   0.929   4.092   4.545 -0.2099 -2.1315  2.9005
  154MOL0     H20770   1.757   3.661   5.023  1.2480  2.0169 -2.5942
  154MOL0     H20771   1.896   3.498   5.163 -2.8154 -0.3916  2.3170
  154MOL0     H20772   2.150   3.430   5.544 -2.1400  0.1595 -3.1242
  154MOL0     H20773   2.304   3.302   5.674  1.2163 -0.4003  0.1896
  154MOL0     H20774   0.901   2.480   5.878  0.6912  1.4027 -2.1216
  154MOL0     H20775   0.670   2.524   5.964  1.3981 -1.1171 -5.2796
  154MOL0     H20776   0.375   2.636   6.074 -0.3627 -0.2128  0.0940
  154MOL0     H20777   0.122   2.625   6.091 -0.5377  0.0414 -0.7029
  154MOL0     H20778  -0.096   2.993   6.196  1.5744 -0.5602 -0.0006
  154MOL0     H20779  -0.140   2.907   6.355 -0.9593 -0.7900  0.5540
  154MOL0     H20780  -0.254   2.894   6.074 -0.4394  0.9560  0.4546
  154MOL0     H20781  -0.339   2.947   6.220  0.4034  0.2824 -0.8091
  154MOL0     H20782  -0.262   2.663   6.161 -1.2940 -0.3729 -0.9479
  154MOL0     H20783  -0.413   2.734   6.121  2.8488  0.8255 -2.1660
  154MOL0     H20784  -0.457   2.771   6.376 -0.0572 -0.4826  0.3275
  154MOL0     H20785  -0.417   2.602   6.333  0.7971 -0.6305 -2.4605
  154MOL0     H20786  -0.079   2.654   6.540  0.1905 -2.3912 -1.8997
  154MOL0     H20787   0.107   2.995   6.289  0.5005  1.0000 -0.8181
  154MOL0     H20788   0.290   3.127   6.315 -0.2064  0.5360 -0.8194
  154MOL0     H20789   0.440   3.039   6.339  2.1577 -0.8374 -2.4852
  154MOL0     H20790   0.415   3.130   6.187  0.0642  0.9207  1.5746
  155MOL0     O20791   6.907   5.871   3.842  0.3194 -0.4838 -0.3190
  155MOL0     C20792   6.834   5.958   3.879 -0.9799  0.0404  0.4800
  155MOL0     O20793   6.879   6.086   3.904 -0.3787  0.3256 -0.2978
  155MOL0     C20794   7.001   6.111   3.860  0.2749  0.6794  0.2942
  155MOL0     C20795   7.115   6.089   3.944 -0.6981 -1.3191  0.0207
  155MOL0     C20796   7.243   6.131   3.899  0.0404  0.0285  0.3616
  155MOL0     C20797   7.254   6.184   3.769 -0.0834 -0.1258 -0.0619
  155MOL0     O20798   7.370   6.239   3.724  0.1936  0.1933 -0.5395
  155MOL0     C20799   7.471   6.279   3.812  0.2938  1.0143  0.3432
  155MOL0     C20800   7.596   6.318   3.722  0.4988 -0.1309 -0.3177
  155MOL0     C20801   7.637   6.206   3.622  0.1795  0.1162 -0.0703
  155MOL0     C20802   7.765   6.232   3.552  0.0766 -0.0747  0.0551
  155MOL0     C20803   7.881   6.205   3.638 -0.0532  0.3546 -0.7785
  155MOL0     C20804   8.014   6.252   3.574  0.0370  0.2775 -0.3937
  155MOL0     C20805   8.127   6.189   3.648 -0.4242  0.5053 -0.5690
  155MOL0     C20806   8.261   6.233   3.585  0.0075  0.7309 -0.0272
  155MOL0     N20807   8.373   6.168   3.647  0.5835 -0.1220  0.2500
  155MOL0     C20808   8.387   6.037   3.701  0.0404 -0.4751 -0.2997
  155MOL0     C20809   8.520   6.030   3.729 -0.4551  0.7365  0.6638
  155MOL0     C20810   8.602   5.908   3.777 -0.4425 -0.6586  0.3636
  155MOL0     C20811   8.648   5.819   3.659 -0.8726 -0.7381  0.0074
  155MOL0     C20812   8.705   5.687   3.697 -0.5734  0.4272 -0.2274
  155MOL0     C20813   8.793   5.614   3.596  0.5408 -0.3080 -0.6692
  155MOL0     O20814   8.861   5.503   3.656  0.1248  0.5961 -0.1145
  155MOL0     C20815   9.000   5.499   3.665 -0.2663  0.1518 -0.3356
  155MOL0     C20816   9.051   5.425   3.771 -0.2229 -1.0350 -0.2174
  155MOL0     C20817   9.187   5.413   3.790  0.6104  0.1674  0.0865
  155MOL0     C20818   9.281   5.474   3.708 -0.0563 -0.2638 -0.6627
  155MOL0     C20819   9.430   5.452   3.738  0.5636 -0.4090  0.5748
  155MOL0     O20820   9.459   5.414   3.866 -0.2003 -0.3919  0.3556
  155MOL0     C20821   9.580   5.376   3.919 -0.2707 -0.3092  0.0688
  155MOL0     C20822   9.680   5.316   3.840  0.2243 -0.0609 -0.0240
  155MOL0     C20823   9.801   5.282   3.906  0.7308 -0.4995 -0.7445
  155MOL0     C20824   9.818   5.285   4.037  0.1403  0.6819 -0.3714
  155MOL0     O20825   9.924   5.230   4.094  0.0769 -0.1371  0.5206
  155MOL0     C20826   9.994   5.309   4.184  0.1499 -0.3116  0.1765
  155MOL0     C20827  10.143   5.283   4.169  0.4818 -0.1047 -0.0414
  155MOL0     C20828  10.200   5.359   4.055 -0.2189  0.6057  0.0709
  155MOL0     C20829  10.350   5.367   4.067  0.7478 -0.5083 -0.1298
  155MOL0     C20830  10.408   5.410   3.930 -0.2702 -0.1516 -0.4638
  155MOL0     C20831  10.563   5.391   3.927  0.0865 -0.4875  0.0138
  155MOL0     C20832  10.633   5.472   4.043 -0.2278 -0.5176 -0.0774
  155MOL0     C20833  10.781   5.495   4.011 -0.3048  0.1259 -0.5230
  155MOL0    Cl20834  10.835   5.621   4.135 -0.0445  0.3262  0.3771
  155MOL0     C20835   9.708   5.332   4.117 -0.2050 -0.2001 -0.2193
  155MOL0     C20836   9.597   5.384   4.057  0.1215 -0.4805  0.6686
  155MOL0     O20837   9.514   5.473   3.656  0.0640 -0.0232  0.0261
  155MOL0     C20838   9.226   5.550   3.599  0.4434 -0.2655 -0.4493
  155MOL0     C20839   9.087   5.569   3.580 -0.3171  0.1296 -1.1586
  155MOL0     N20840   8.579   6.151   3.707  0.0707 -0.4141 -0.4339
  155MOL0     N20841   8.490   6.236   3.657  0.2273 -0.4534 -0.2578
  155MOL0     C20842   7.143   6.199   3.688  0.2586 -0.7849 -0.0570
  155MOL0     C20843   7.016   6.162   3.730 -0.1499 -0.3792  0.0275
  155MOL0     C20844   6.688   5.930   3.887 -0.6148  0.3386 -0.4791
  155MOL0     C20845   6.609   6.034   3.933  0.2704  0.0468 -0.6167
  155MOL0     C20846   6.468   6.016   3.943 -0.5558  0.4389  0.3801
  155MOL0     C20847   6.405   5.911   3.887 -0.8120  1.0163 -0.2088
  155MOL0     O20848   6.275   5.905   3.914  0.9104  0.6897 -0.8679
  155MOL0     C20849   6.191   5.833   3.816 -0.5922 -0.1537  0.2892
  155MOL0     C20850   6.081   5.924   3.777 -0.4075  0.1134 -0.6642
  155MOL0     C20851   6.130   6.061   3.729 -0.2051  0.1150  0.6621
  155MOL0     C20852   6.128   6.072   3.574 -0.1745 -0.0629  0.9312
  155MOL0     C20853   6.211   6.176   3.528 -0.7825 -0.3643 -0.4887
  155MOL0     C20854   6.264   6.275   3.491 -0.5046 -0.2877 -0.3375
  155MOL0     C20855   6.481   5.807   3.828 -0.3438  0.3812 -0.1975
  155MOL0     C20856   6.624   5.815   3.832 -0.6430  0.3758  0.7472
  155MOL0     C20857   6.696   5.702   3.766 -0.2252 -0.4700  0.5935
  155MOL0     H20858   7.105   6.041   4.041 -0.2185 -1.3219  0.0731
  155MOL0     H20859   7.337   6.101   3.944  1.5120  0.8926 -1.9680
  155MOL0     H20860   7.430   6.367   3.861 -4.4875 -0.2931 -0.7333
  155MOL0     H20861   7.497   6.205   3.888  1.9225  1.4977  0.2974
  155MOL0     H20862   7.682   6.355   3.780  1.1515 -0.1476 -1.2522
  155MOL0     H20863   7.564   6.403   3.662  0.3890 -1.7949 -2.7753
  155MOL0     H20864   7.553   6.209   3.553 -1.1322  0.4475  1.4801
  155MOL0     H20865   7.635   6.109   3.672  1.5688  0.2288  0.2458
  155MOL0     H20866   7.771   6.167   3.465 -0.7679  0.6909 -0.5995
  155MOL0     H20867   7.768   6.337   3.521 -0.5399  0.2054  0.9156
  155MOL0     H20868   7.869   6.255   3.734  2.0523 -3.0103  1.4679
  155MOL0     H20869   7.881   6.096   3.650 -0.5348  0.2956 -1.2404
  155MOL0     H20870   8.009   6.219   3.470 -1.9232 -1.9048  0.2859
  155MOL0     H20871   8.023   6.361   3.575  1.9294  0.1502  1.1433
  155MOL0     H20872   8.121   6.081   3.633  0.5944  0.3603 -0.0298
  155MOL0     H20873   8.127   6.221   3.753 -1.3611  0.5074 -0.5637
  155MOL0     H20874   8.264   6.208   3.478  1.0153  2.8377 -0.5419
  155MOL0     H20875   8.274   6.341   3.585  3.1815  0.4553 -1.4163
  155MOL0     H20876   8.309   5.962   3.711 -1.3192  0.6678 -1.7057
  155MOL0     H20877   8.685   5.934   3.844 -2.1784  0.3938  2.2596
  155MOL0     H20878   8.532   5.845   3.832 -2.0171  0.4957 -0.2360
  155MOL0     H20879   8.564   5.797   3.593 -0.9292 -1.5082  0.3269
  155MOL0     H20880   8.726   5.872   3.604 -3.0634 -0.6090 -3.2880
  155MOL0     H20881   8.626   5.621   3.734 -0.2814  0.7423  0.9914
  155MOL0     H20882   8.771   5.701   3.783 -0.8986 -3.0149  0.7573
  155MOL0     H20883   8.860   5.678   3.538  1.7773 -0.8833  0.0788
  155MOL0     H20884   8.737   5.568   3.515 -2.5812  2.7067 -0.4490
  155MOL0     H20885   8.989   5.367   3.838 -1.0471 -0.5772 -0.5673
  155MOL0     H20886   9.214   5.365   3.883 -2.1312 -0.0210  0.8566
  155MOL0     H20887   9.664   5.306   3.733  0.2956  0.9258 -0.1387
  155MOL0     H20888   9.884   5.240   3.850  2.2131  1.6024 -0.2384
  155MOL0     H20889   9.963   5.413   4.174 -2.6765 -1.2522 -2.0570
  155MOL0     H20890   9.955   5.268   4.278 -2.4775  0.3531 -0.5556
  155MOL0     H20891  10.197   5.314   4.259 -1.9337  3.5417  0.3497
  155MOL0     H20892  10.158   5.175   4.161 -0.1376 -0.2498  0.6716
  155MOL0     H20893  10.161   5.312   3.964 -0.9592 -1.0829  1.2061
  155MOL0     H20894  10.159   5.460   4.056 -0.9158  0.3319 -0.3960
  155MOL0     H20895  10.389   5.270   4.100 -0.7159 -0.5622  1.5778
  155MOL0     H20896  10.368   5.438   4.148  0.0552 -0.1855 -0.2475
  155MOL0     H20897  10.398   5.517   3.915 -1.0613 -0.2336 -0.5331
  155MOL0     H20898  10.363   5.358   3.845  1.4258 -1.0615 -0.8605
  155MOL0     H20899  10.578   5.285   3.949  2.2604  0.0780  1.6498
  155MOL0     H20900  10.599   5.426   3.830  1.1216  2.5740  1.3943
  155MOL0     H20901  10.626   5.417   4.137 -0.1008 -0.3960  0.0011
  155MOL0     H20902  10.589   5.572   4.047  0.4264 -0.2679  1.1867
  155MOL0     H20903  10.840   5.403   4.008  1.1048  1.0272 -1.8262
  155MOL0     H20904  10.785   5.551   3.917 -1.3507  3.4178  1.2293
  155MOL0     H20905   9.721   5.339   4.224  0.7402 -1.1323 -0.2582
  155MOL0     H20906   9.519   5.436   4.112 -1.4417 -2.2141  0.1963
  155MOL0     H20907   9.302   5.599   3.539 -1.0139  1.4130 -1.0337
  155MOL0     H20908   9.050   5.633   3.501  1.6896  1.3519 -1.1896
  155MOL0     H20909   7.154   6.239   3.588 -0.0975  1.2271  0.6542
  155MOL0     H20910   6.929   6.171   3.665 -1.1365  0.5029  1.4164
  155MOL0     H20911   6.656   6.132   3.941  1.3613 -0.5135  0.1750
  155MOL0     H20912   6.413   6.096   3.993  1.0603  3.1156 -1.8320
  155MOL0     H20913   6.147   5.747   3.868  0.4375 -1.2271 -0.5735
  155MOL0     H20914   6.246   5.799   3.728  2.1347 -2.7305  2.7531
  155MOL0     H20915   6.026   5.931   3.871 -0.1267  1.5345 -0.5731
  155MOL0     H20916   6.019   5.874   3.703 -2.5809  1.8253 -0.0949
  155MOL0     H20917   6.231   6.088   3.762 -0.1888  1.1103 -0.1402
  155MOL0     H20918   6.058   6.136   3.760 -0.0211  1.0095 -0.9751
  155MOL0     H20919   6.177   5.983   3.534 -0.0197  0.1955  0.5319
  155MOL0     H20920   6.024   6.084   3.540 -0.2163  0.6117  1.2820
  155MOL0     H20921   6.328   6.342   3.438 -0.8187  1.1715  1.0257
  155MOL0     H20922   6.423   5.719   3.801  1.3414 -1.8499  2.7405
  155MOL0     H20923   6.789   5.664   3.809 -0.4842 -1.4984  0.2860
  155MOL0     H20924   6.634   5.613   3.752  1.3048 -1.4659 -0.0634
  155MOL0     H20925   6.725   5.731   3.665 -2.4958 -2.9110 -0.8937
  156MOL0     O20926   3.663   4.757   1.433  0.0415 -0.7863  0.9367
  156MOL0     C20927   3.597   4.653   1.445  0.2686  0.1986 -0.6798
  156MOL0     O20928   3.642   4.527   1.468  0.0559  0.1810 -0.1456
  156MOL0     C20929   3.771   4.495   1.437 -0.7265  1.0690  0.6144
  156MOL0     C20930   3.829   4.527   1.313  0.1089  0.8196  0.1672
  156MOL0     C20931   3.964   4.509   1.288 -0.1075 -0.2518 -0.3325
  156MOL0     C20932   4.050   4.453   1.385 -0.7206  0.4321  0.0676
  156MOL0     O20933   4.182   4.423   1.363 -0.0391  0.1661  0.3395
  156MOL0     C20934   4.216   4.367   1.239  0.0082 -0.1644  0.3041
  156MOL0     C20935   4.357   4.295   1.245  0.5529 -1.1192  0.0486
  156MOL0     C20936   4.352   4.157   1.320  0.0138 -0.3643  0.6595
  156MOL0     C20937   4.481   4.075   1.323 -0.3383  0.1715 -0.7433
  156MOL0     C20938   4.444   3.937   1.379 -0.1266  0.6416 -0.5243
  156MOL0     C20939   4.577   3.868   1.403 -0.5431  0.6655  0.2616
  156MOL0     C20940   4.553   3.737   1.482  0.8740  0.1441 -0.8342
  156MOL0     C20941   4.492   3.760   1.626  0.8486  0.2268  0.5199
  156MOL0     N20942   4.544   3.863   1.709  0.3357 -0.7989 -0.6378
  156MOL0     C20943   4.675   3.879   1.765  0.4616 -0.0633 -0.1349
  156MOL0     C20944   4.672   3.989   1.836 -0.8356 -1.2715 -0.3570
  156MOL0     C20945   4.792   4.046   1.915  0.7547  0.2458 -0.7114
  156MOL0     C20946   4.850   4.171   1.862 -0.0536 -0.2133  0.6051
  156MOL0     C20947   4.900   4.149   1.722 -0.3756  0.2728 -0.1081
  156MOL0     C20948   4.998   4.264   1.678  0.1506 -0.8066  0.5506
  156MOL0     O20949   5.123   4.241   1.734  0.3010  0.6465  0.0881
  156MOL0     C20950   5.232   4.318   1.700 -0.2724 -0.2266  0.1722
  156MOL0     C20951   5.346   4.261   1.743 -0.1557 -0.4333  1.1945
  156MOL0     C20952   5.462   4.331   1.710 -0.5412 -0.4670 -0.6857
  156MOL0     C20953   5.466   4.458   1.644  0.2670 -0.4984  0.7355
  156MOL0     C20954   5.598   4.516   1.618  0.1123  0.3428  0.0944
  156MOL0     O20955   5.600   4.607   1.507  0.3127  0.1949  0.9709
  156MOL0     C20956   5.715   4.674   1.468  0.6414  0.3325 -0.3077
  156MOL0     C20957   5.831   4.692   1.546 -0.4269  0.5289 -0.1084
  156MOL0     C20958   5.932   4.775   1.489  0.0677  0.1380 -0.9005
  156MOL0     C20959   5.926   4.842   1.376 -0.7868  0.2279  0.3689
  156MOL0     O20960   6.021   4.928   1.334 -0.1397 -0.0697 -0.1238
  156MOL0     C20961   6.093   5.010   1.428  0.0271  0.6914  0.0091
  156MOL0     C20962   6.144   5.129   1.340 -0.2632 -0.7828  0.5680
  156MOL0     C20963   6.232   5.218   1.421  1.1537 -0.3570 -0.4755
  156MOL0     C20964   6.289   5.339   1.340  0.8988 -0.7255  0.0066
  156MOL0     C20965   6.336   5.456   1.426 -0.2121  0.4919  0.3557
  156MOL0     C20966   6.465   5.437   1.514  0.4797  0.8492 -0.0040
  156MOL0     C20967   6.527   5.564   1.568 -0.0205  0.6160 -0.4288
  156MOL0     C20968   6.631   5.623   1.469 -0.1125  0.3745 -0.0693
  156MOL0    Cl20969   6.719   5.775   1.522 -0.1518 -0.1179  0.2495
  156MOL0     C20970   5.819   4.812   1.298 -0.4691  0.4918  0.3876
  156MOL0     C20971   5.719   4.732   1.337  0.1348  0.2648  0.2635
  156MOL0     O20972   5.698   4.484   1.686 -0.3871  0.1178 -0.0815
  156MOL0     C20973   5.341   4.511   1.607 -0.0021  0.2698 -0.2919
  156MOL0     C20974   5.222   4.444   1.636 -0.3431  0.7841  0.0705
  156MOL0     N20975   4.543   4.038   1.837  0.5546 -0.0725 -0.8265
  156MOL0     N20976   4.469   3.971   1.759 -0.1334 -0.0114  0.4295
  156MOL0     C20977   3.998   4.431   1.516  0.7867  0.1737  0.5182
  156MOL0     C20978   3.857   4.444   1.539  0.2980 -0.3667  0.2358
  156MOL0     C20979   3.447   4.655   1.436 -0.2695  0.0485 -0.0023
  156MOL0     C20980   3.377   4.541   1.392  0.2465  0.4485 -0.6961
  156MOL0     C20981   3.235   4.554   1.379 -0.0200 -0.8657 -0.0301
  156MOL0     C20982   3.172   4.675   1.398  0.9305 -0.3430 -0.6830
  156MOL0     O20983   3.035   4.679   1.378 -0.0176  0.1645 -0.4289
  156MOL0     C20984   2.950   4.784   1.433 -0.0617 -0.5825  0.0605
  156MOL0     C20985   2.927   4.896   1.336 -0.0074  0.0686  0.4284
  156MOL0     C20986   2.813   4.996   1.372  0.1411  0.1428  0.4411
  156MOL0     C20987   2.881   5.134   1.378 -0.6621 -0.4777 -0.1207
  156MOL0     C20988   2.785   5.232   1.427  0.2349 -0.2771  0.3087
  156MOL0     C20989   2.699   5.306   1.475  0.0487  0.0822  0.0233
  156MOL0     C20990   3.243   4.781   1.460 -0.2168  0.5573  0.0531
  156MOL0     C20991   3.378   4.773   1.476  0.2360  0.9814 -0.6040
  156MOL0     C20992   3.444   4.887   1.544  0.5592 -0.0095  0.2500
  156MOL0     H20993   3.771   4.559   1.227 -0.1012 -0.8173 -0.3322
  156MOL0     H20994   3.995   4.535   1.187 -0.2152  1.5629  0.0805
  156MOL0     H20995   4.138   4.307   1.191  0.1869  1.1925 -1.8178
  156MOL0     H20996   4.228   4.453   1.173 -1.1051  0.7368  1.2380
  156MOL0     H20997   4.435   4.355   1.292  1.9647 -1.4482 -1.7507
  156MOL0     H20998   4.390   4.274   1.142 -0.0080  2.1580 -0.9248
  156MOL0     H20999   4.278   4.094   1.270  0.6276 -1.1439  0.7024
  156MOL0     H21000   4.314   4.182   1.420 -1.2164  2.6626 -0.4482
  156MOL0     H21001   4.536   4.055   1.230  0.3902 -0.4538 -0.1912
  156MOL0     H21002   4.545   4.125   1.397 -0.3910 -0.2322 -0.4247
  156MOL0     H21003   4.379   3.955   1.465 -1.7375 -0.5245 -1.4332
  156MOL0     H21004   4.383   3.881   1.307  1.1343  1.0624 -1.9692
  156MOL0     H21005   4.630   3.859   1.308 -0.1252  2.8648  0.2396
  156MOL0     H21006   4.641   3.931   1.466 -0.3177  1.9629 -1.2254
  156MOL0     H21007   4.642   3.675   1.492 -0.1006 -1.1890  0.0503
  156MOL0     H21008   4.479   3.676   1.429  2.7785 -3.4677  0.3823
  156MOL0     H21009   4.387   3.785   1.611  1.3259  1.9304 -0.2423
  156MOL0     H21010   4.504   3.664   1.676  1.8859  0.2522  0.3511
  156MOL0     H21011   4.756   3.808   1.752  1.4838  0.2740  3.3305
  156MOL0     H21012   4.765   4.065   2.019  0.7516 -0.8674 -0.4939
  156MOL0     H21013   4.869   3.969   1.918 -0.4335 -0.9512  1.7933
  156MOL0     H21014   4.782   4.257   1.857  0.7440  0.4905 -4.8729
  156MOL0     H21015   4.935   4.202   1.923  0.8288  1.2374 -1.2434
  156MOL0     H21016   4.819   4.143   1.649  1.4711 -0.3523 -2.2461
  156MOL0     H21017   4.963   4.059   1.723  0.9242  1.1469 -0.3788
  156MOL0     H21018   4.959   4.362   1.707  0.2804 -0.8163  0.7591
  156MOL0     H21019   5.006   4.260   1.569 -1.3642  0.2741  0.3615
  156MOL0     H21020   5.351   4.166   1.795 -3.2711 -1.2196  0.2720
  156MOL0     H21021   5.556   4.285   1.737  0.1995  1.1546 -0.4165
  156MOL0     H21022   5.835   4.655   1.648 -2.2825  1.0452  0.1781
  156MOL0     H21023   6.023   4.783   1.548 -0.7951  0.1478  0.4538
  156MOL0     H21024   6.038   5.049   1.514 -2.8566  1.1033 -1.8804
  156MOL0     H21025   6.186   4.962   1.461 -0.0498 -0.1711 -0.9814
  156MOL0     H21026   6.198   5.106   1.248  1.4872  0.0374  1.3477
  156MOL0     H21027   6.061   5.184   1.296 -1.4462 -3.2064 -0.4389
  156MOL0     H21028   6.174   5.252   1.508 -0.8940 -4.4967  0.0235
  156MOL0     H21029   6.318   5.157   1.447  1.8409  0.0358 -1.7434
  156MOL0     H21030   6.211   5.375   1.272 -0.9782 -3.8293  0.2873
  156MOL0     H21031   6.370   5.298   1.280  1.4996 -2.8397  2.0694
  156MOL0     H21032   6.251   5.480   1.491  0.5715  0.2351  1.5027
  156MOL0     H21033   6.367   5.538   1.361  4.1065 -1.0587  0.1605
  156MOL0     H21034   6.435   5.375   1.599  0.4100 -0.9517 -1.2778
  156MOL0     H21035   6.537   5.377   1.457 -0.9459 -0.9067 -0.0635
  156MOL0     H21036   6.586   5.523   1.651  0.1399 -0.3942 -1.0237
  156MOL0     H21037   6.456   5.643   1.589 -0.9234 -0.3545  0.2784
  156MOL0     H21038   6.714   5.551   1.459  0.3505  0.9662 -0.5074
  156MOL0     H21039   6.577   5.637   1.375 -2.5349 -1.2901  0.9678
  156MOL0     H21040   5.805   4.848   1.196  0.9456  1.8345  0.6277
  156MOL0     H21041   5.640   4.715   1.264  1.4336 -2.0724 -0.7367
  156MOL0     H21042   5.332   4.603   1.550  2.9960  0.6213 -0.3740
  156MOL0     H21043   5.123   4.483   1.619 -0.7049  0.4189  1.2738
  156MOL0     H21044   4.055   4.401   1.603  2.2685 -1.3547 -0.9074
  156MOL0     H21045   3.803   4.434   1.632 -2.1453  4.5095 -0.3329
  156MOL0     H21046   3.410   4.438   1.377  0.2441 -0.0790  2.3740
  156MOL0     H21047   3.164   4.482   1.340 -2.9850  2.6080 -1.6789
  156MOL0     H21048   2.997   4.818   1.526 -0.1894 -0.5569  0.1160
  156MOL0     H21049   2.849   4.748   1.452 -1.3643  2.5899 -0.1935
  156MOL0     H21050   2.884   4.842   1.251  1.2236 -0.3307  0.0401
  156MOL0     H21051   3.021   4.947   1.317  1.2694 -3.0463 -2.6038
  156MOL0     H21052   2.759   4.965   1.463 -2.2948 -3.3707 -1.9023
  156MOL0     H21053   2.739   4.992   1.292  0.6344 -1.0850  0.0135
  156MOL0     H21054   2.951   5.126   1.461 -1.5311  0.9413  0.7789
  156MOL0     H21055   2.922   5.160   1.280  0.5965 -2.5949 -0.2136
  156MOL0     H21056   2.622   5.372   1.510 -0.8106 -1.7317  1.7861
  156MOL0     H21057   3.195   4.871   1.495 -0.7770  0.1444  0.3662
  156MOL0     H21058   3.500   4.855   1.633  0.2357  0.6408  0.6977
  156MOL0     H21059   3.514   4.929   1.472 -0.4993  1.5898  0.1019
  156MOL0     H21060   3.378   4.973   1.556 -0.5606 -0.6639 -1.0101
  157MOL0     O21061   7.453   7.633   9.561  0.3390  0.1001 -0.2372
  157MOL0     C21062   7.372   7.717   9.517  0.0192 -0.4763  0.9164
  157MOL0     O21063   7.405   7.834   9.447 -1.1278 -0.3702  0.1708
  157MOL0     C21064   7.541   7.863   9.436  0.5800 -1.0246  0.3887
  157MOL0     C21065   7.620   7.872   9.554  0.4532  0.4978  0.3974
  157MOL0     C21066   7.753   7.898   9.555  0.4781  0.9056 -0.2661
  157MOL0     C21067   7.818   7.937   9.433  0.2669  0.8519 -0.2700
  157MOL0     O21068   7.947   7.976   9.442 -0.1913  0.2798  0.1463
  157MOL0     C21069   7.990   8.085   9.356 -0.5340  0.8000  0.7501
  157MOL0     C21070   8.113   8.154   9.422 -0.3688  0.8606 -0.1636
  157MOL0     C21071   8.223   8.048   9.438 -0.3488 -0.1584  0.0602
  157MOL0     C21072   8.365   8.085   9.421 -0.3969  0.3092  0.5623
  157MOL0     C21073   8.457   7.965   9.450 -0.6216 -0.1203  0.4261
  157MOL0     C21074   8.602   8.007   9.408  0.0181  0.2288 -0.1919
  157MOL0     C21075   8.699   7.909   9.450 -0.6534 -0.2062  0.0288
  157MOL0     C21076   8.835   7.925   9.377  0.5703 -0.0299  0.2546
  157MOL0     N21077   8.937   7.847   9.448 -0.7922 -0.3880  0.8305
  157MOL0     C21078   8.926   7.713   9.462 -0.2537  0.5544  0.6298
  157MOL0     C21079   9.015   7.681   9.552  0.3824  0.8195  0.1393
  157MOL0     C21080   9.049   7.530   9.588  0.4140 -0.8416  0.2309
  157MOL0     C21081   9.199   7.508   9.585 -0.7925  0.7322  0.2385
  157MOL0     C21082   9.249   7.515   9.442  0.2519  0.1221  0.2232
  157MOL0     C21083   9.395   7.455   9.426  0.3083 -0.0366  0.0919
  157MOL0     O21084   9.477   7.491   9.545  0.1343  0.2327  0.7786
  157MOL0     C21085   9.581   7.404   9.579 -0.2639  0.2665 -0.4261
  157MOL0     C21086   9.636   7.303   9.499  0.6627 -0.1319  0.5168
  157MOL0     C21087   9.755   7.234   9.539  0.2579  0.8692 -0.8224
  157MOL0     C21088   9.811   7.260   9.661 -0.0041 -0.2200 -0.0859
  157MOL0     C21089   9.934   7.193   9.707 -0.3959  0.1803  0.2944
  157MOL0     O21090   9.972   7.200   9.836  0.5851  0.3048 -0.0020
  157MOL0     C21091  10.100   7.159   9.858  0.1502 -0.6613 -1.2927
  157MOL0     C21092  10.132   7.047   9.936  0.7606  0.8333 -0.4575
  157MOL0     C21093  10.265   7.015   9.955 -0.1517 -0.4382 -0.2981
  157MOL0     C21094  10.371   7.098   9.910  0.0398  0.4286 -0.4043
  157MOL0     O21095  10.502   7.058   9.933  0.1402 -0.1410  0.1312
  157MOL0     C21096  10.598   7.130   9.862 -0.7167  1.2323  0.1714
  157MOL0     C21097  10.725   7.046   9.899 -0.7409 -0.2615  0.4354
  157MOL0     C21098  10.842   7.110   9.840  0.2073  1.3496 -0.1332
  157MOL0     C21099  10.956   7.018   9.876  0.1932  0.2685  0.3052
  157MOL0     C21100  11.087   7.072   9.816  0.9537 -0.4425 -0.4522
  157MOL0     C21101  11.204   6.991   9.860  0.2569 -0.7340  0.2940
  157MOL0     C21102  11.325   7.001   9.773 -0.3690 -0.0569 -0.5378
  157MOL0     C21103  11.446   6.926   9.820  0.4172 -1.0511 -0.6100
  157MOL0    Cl21104  11.412   6.765   9.873  0.0105 -0.2389 -0.2027
  157MOL0     C21105  10.337   7.205   9.820 -0.5838  0.3091 -0.2885
  157MOL0     C21106  10.202   7.236   9.802 -0.2168  0.6187 -0.6517
  157MOL0     O21107   9.991   7.121   9.623  0.3017 -0.0696  0.4706
  157MOL0     C21108   9.750   7.361   9.746  0.0179  0.4793 -0.2767
  157MOL0     C21109   9.641   7.441   9.706  0.3941 -0.0596  0.6058
  157MOL0     N21110   9.064   7.791   9.605 -0.5246 -0.5963 -0.0440
  157MOL0     N21111   9.020   7.899   9.540  0.1074  0.4696 -0.0176
  157MOL0     C21112   7.737   7.942   9.318 -0.0761 -0.1031  0.3190
  157MOL0     C21113   7.603   7.914   9.321  0.2526 -0.9511 -0.2135
  157MOL0     C21114   7.234   7.686   9.537  0.2230 -0.9086  0.3432
  157MOL0     C21115   7.141   7.764   9.468 -0.1647  0.7404 -0.4475
  157MOL0     C21116   7.003   7.738   9.483  0.2491 -0.2287 -0.7957
  157MOL0     C21117   6.959   7.640   9.574 -0.9701  0.3381 -0.2019
  157MOL0     O21118   6.835   7.609   9.620  0.0975  0.3320 -0.8211
  157MOL0     C21119   6.718   7.670   9.552  0.3765  0.7975  0.8316
  157MOL0     C21120   6.594   7.644   9.636  0.2605 -0.0738  0.7873
  157MOL0     C21121   6.577   7.496   9.678  0.0691  0.6332  0.5629
  157MOL0     C21122   6.510   7.420   9.558  0.1912 -0.5643  0.1148
  157MOL0     C21123   6.441   7.300   9.597  0.6428 -0.0013  0.0393
  157MOL0     C21124   6.404   7.194   9.628 -0.2051  0.0004 -0.0405
  157MOL0     C21125   7.049   7.550   9.622  0.3799  0.1829 -0.7564
  157MOL0     C21126   7.184   7.573   9.612  0.5619 -0.9330  0.6846
  157MOL0     C21127   7.267   7.468   9.668 -0.4744 -0.3024  0.3410
  157MOL0     H21128   7.575   7.845   9.649 -0.5857  0.4723 -0.0860
  157MOL0     H21129   7.812   7.898   9.645  0.0689  0.7127  0.0051
  157MOL0     H21130   8.014   8.050   9.255 -0.0599  1.2527  0.7022
  157MOL0     H21131   7.908   8.157   9.345 -1.0472  0.6443  3.0664
  157MOL0     H21132   8.081   8.208   9.511 -0.0447  0.0629  0.4483
  157MOL0     H21133   8.151   8.230   9.353  0.4277  1.5172  0.9598
  157MOL0     H21134   8.204   7.954   9.385 -1.1416 -0.7810  1.3931
  157MOL0     H21135   8.223   8.020   9.544  5.5478  3.3293  1.4038
  157MOL0     H21136   8.382   8.095   9.313 -1.5188  0.5030  0.3935
  157MOL0     H21137   8.403   8.174   9.472  1.6392 -0.7489  1.0187
  157MOL0     H21138   8.454   7.961   9.559  0.4829  5.0114  0.8905
  157MOL0     H21139   8.428   7.871   9.402 -1.1332 -1.0783  2.5111
  157MOL0     H21140   8.612   8.029   9.302  1.8413  1.3336  0.1638
  157MOL0     H21141   8.630   8.097   9.463  0.5151  0.1179 -0.2579
  157MOL0     H21142   8.668   7.806   9.432  0.4454 -0.5285 -0.1245
  157MOL0     H21143   8.704   7.915   9.559  0.7824  2.5562 -0.0823
  157MOL0     H21144   8.827   7.898   9.271  1.8661  1.6592 -0.3127
  157MOL0     H21145   8.856   8.032   9.383  1.5255 -0.2080  0.2901
  157MOL0     H21146   8.858   7.640   9.421 -0.1196  0.3398  0.7921
  157MOL0     H21147   9.003   7.504   9.683  1.0251 -2.3908  0.1473
  157MOL0     H21148   9.003   7.456   9.521 -1.1713 -0.7115  1.1311
  157MOL0     H21149   9.256   7.580   9.644 -1.6717 -0.7517  3.0953
  157MOL0     H21150   9.224   7.412   9.632 -2.6307  0.2275  0.2558
  157MOL0     H21151   9.248   7.621   9.415 -1.4235  0.4419  1.3784
  157MOL0     H21152   9.172   7.466   9.382  1.1921 -0.1815 -0.7742
  157MOL0     H21153   9.436   7.480   9.328  1.4214 -3.0443 -0.2822
  157MOL0     H21154   9.378   7.347   9.429 -2.1981  0.2467 -1.0221
  157MOL0     H21155   9.587   7.281   9.404 -0.5545  1.4321  0.7538
  157MOL0     H21156   9.790   7.156   9.473 -2.9492  0.2245 -1.9562
  157MOL0     H21157  10.056   6.986   9.985 -0.2226  2.3755 -0.0125
  157MOL0     H21158  10.286   6.947  10.037 -0.9174  1.8597  1.9627
  157MOL0     H21159  10.587   7.121   9.753  0.0397  3.1191 -0.0912
  157MOL0     H21160  10.615   7.233   9.894  3.1795  0.4747  1.0353
  157MOL0     H21161  10.739   7.017  10.003  2.1478 -1.1975 -0.1178
  157MOL0     H21162  10.709   6.952   9.845  2.7358  1.1451 -3.6122
  157MOL0     H21163  10.828   7.112   9.732  0.8432  2.3848 -0.2081
  157MOL0     H21164  10.864   7.211   9.876 -0.9124  1.6983 -0.4162
  157MOL0     H21165  10.948   6.912   9.853  3.6931 -0.1580  0.4860
  157MOL0     H21166  10.973   7.039   9.982  2.7675 -1.6087  0.3689
  157MOL0     H21167  11.091   7.179   9.839 -1.9323 -0.6487  1.4323
  157MOL0     H21168  11.073   7.059   9.708 -2.3795  0.9072 -0.2929
  157MOL0     H21169  11.237   7.024   9.958  3.3501  0.8803 -1.1354
  157MOL0     H21170  11.170   6.887   9.867 -1.4574 -0.2357 -0.2018
  157MOL0     H21171  11.356   7.105   9.760 -1.7133  0.2257 -1.8786
  157MOL0     H21172  11.303   6.963   9.673  0.4833  0.6242 -0.9991
  157MOL0     H21173  11.526   6.919   9.746 -0.3372  2.0580 -1.8595
  157MOL0     H21174  11.492   6.983   9.902 -0.4766 -1.9322  0.5375
  157MOL0     H21175  10.408   7.277   9.779 -0.5321  0.8484  0.7235
  157MOL0     H21176  10.172   7.324   9.747 -1.6939 -1.2081 -2.9301
  157MOL0     H21177   9.799   7.398   9.835  2.8549  1.2291 -2.0309
  157MOL0     H21178   9.598   7.521   9.766 -0.7571 -0.4282  0.3022
  157MOL0     H21179   7.781   7.970   9.223 -0.4666  0.9871  0.4394
  157MOL0     H21180   7.546   7.902   9.230  1.0775 -2.8177 -0.5179
  157MOL0     H21181   7.174   7.846   9.406  1.1785  1.9732  1.7666
  157MOL0     H21182   6.928   7.805   9.443  1.0132  0.0473 -1.7644
  157MOL0     H21183   6.704   7.622   9.454  1.7787 -0.9763  1.4386
  157MOL0     H21184   6.727   7.777   9.536 -1.3123  0.4846 -3.8242
  157MOL0     H21185   6.498   7.688   9.607  0.4575 -0.3418 -0.3037
  157MOL0     H21186   6.613   7.703   9.727 -0.9410 -1.8770  2.2798
  157MOL0     H21187   6.502   7.494   9.757  1.1966 -3.7374  1.7663
  157MOL0     H21188   6.667   7.445   9.714 -0.8198 -1.0792  0.4714
  157MOL0     H21189   6.447   7.492   9.506 -0.1824 -0.3417  0.8584
  157MOL0     H21190   6.593   7.390   9.493  0.6682  0.9761 -0.0248
  157MOL0     H21191   6.363   7.098   9.652  0.1537 -0.6561 -1.9094
  157MOL0     H21192   7.010   7.473   9.688  0.0529 -0.3212 -1.5210
  157MOL0     H21193   7.353   7.430   9.614 -0.9567 -1.3621  0.3068
  157MOL0     H21194   7.312   7.513   9.758 -0.4181 -1.8612  1.1247
  157MOL0     H21195   7.205   7.387   9.706 -2.7020 -0.7346 -3.6982
  158MOL0     O21196   9.513   7.460   5.697 -0.2126 -0.8903  0.7724
  158MOL0     C21197   9.612   7.394   5.728  0.0157 -0.3512 -0.1076
  158MOL0     O21198   9.715   7.449   5.807  1.0445 -0.3320 -0.5062
  158MOL0     C21199   9.692   7.561   5.882 -0.0323 -0.3915  0.0831
  158MOL0     C21200   9.683   7.552   6.026  0.1214  0.5484 -0.0324
  158MOL0     C21201   9.683   7.673   6.102  0.2167 -0.1648 -0.2339
  158MOL0     C21202   9.663   7.792   6.032 -0.4739 -0.6249 -0.6407
  158MOL0     O21203   9.653   7.912   6.107  0.2700  0.4960  0.8322
  158MOL0     C21204   9.716   8.023   6.042 -0.4577 -0.2095 -0.0655
  158MOL0     C21205   9.736   8.134   6.147 -0.0590 -0.0627 -0.0135
  158MOL0     C21206   9.857   8.233   6.116 -0.0512  0.9225  0.2767
  158MOL0     C21207   9.846   8.282   5.974 -0.4506 -0.1576  0.0467
  158MOL0     C21208   9.943   8.401   5.948  0.3213  0.5298  0.1535
  158MOL0     C21209   9.963   8.408   5.804  0.7040 -0.3670  0.6848
  158MOL0     C21210  10.039   8.528   5.759  0.3783 -0.0463  0.3481
  158MOL0     C21211   9.962   8.656   5.792  0.0852  0.3824 -0.0666
  158MOL0     N21212  10.048   8.771   5.761 -0.1512 -0.1771 -0.6921
  158MOL0     C21213  10.047   8.838   5.635 -0.7075 -0.2941 -0.1309
  158MOL0     C21214  10.165   8.914   5.645  0.3248  0.5366  1.2803
  158MOL0     C21215  10.223   8.996   5.536  0.6635  0.0660  0.2639
  158MOL0     C21216  10.363   8.964   5.489 -0.3618 -0.5752  0.4050
  158MOL0     C21217  10.403   8.816   5.465 -0.5540 -0.4764  0.0191
  158MOL0     C21218  10.558   8.795   5.439  0.1405 -0.4143 -0.8641
  158MOL0     O21219  10.574   8.651   5.427 -0.0744  0.0409  1.3853
  158MOL0     C21220  10.709   8.613   5.407 -0.0588  0.3655 -0.5467
  158MOL0     C21221  10.733   8.470   5.412  0.5116 -0.3073  0.8940
  158MOL0     C21222  10.862   8.409   5.398  0.0672  0.2639  0.0424
  158MOL0     C21223  10.970   8.495   5.378 -1.1352 -1.3070  0.5643
  158MOL0     C21224  11.095   8.436   5.352 -0.6618 -0.3621 -0.8425
  158MOL0     O21225  11.209   8.524   5.364  0.4893  0.1631 -1.0764
  158MOL0     C21226  11.335   8.470   5.353 -1.2301 -0.2417 -0.3810
  158MOL0     C21227  11.421   8.503   5.251 -0.1146  0.8717  0.7751
  158MOL0     C21228  11.539   8.437   5.224 -0.6765 -0.2785  0.0550
  158MOL0     C21229  11.583   8.336   5.313  0.1222  0.0068 -0.7838
  158MOL0     O21230  11.702   8.269   5.297  0.6536  0.4060 -0.0572
  158MOL0     C21231  11.819   8.349   5.283  1.1017  0.3694 -0.1642
  158MOL0     C21232  11.931   8.245   5.275  0.2694  0.2273  1.1023
  158MOL0     C21233  12.064   8.298   5.303 -0.3865 -1.0981  0.3142
  158MOL0     C21234  12.181   8.205   5.284 -0.7163  0.6814 -0.2346
  158MOL0     C21235  12.206   8.184   5.136  0.8787 -0.6510 -0.4942
  158MOL0     C21236  12.302   8.074   5.124  0.0680 -0.0168 -0.3695
  158MOL0     C21237  12.323   8.033   4.981  0.1192 -0.3036 -0.2447
  158MOL0     C21238  12.409   7.905   5.004 -0.2676 -0.4855  0.1928
  158MOL0    Cl21239  12.575   7.927   4.956 -0.3957  0.0741  0.3046
  158MOL0     C21240  11.495   8.302   5.417  0.8940  0.3905  0.0597
  158MOL0     C21241  11.381   8.369   5.434  0.2281 -0.2575 -0.6355
  158MOL0     O21242  11.099   8.323   5.314  0.2702  0.0583  0.4083
  158MOL0     C21243  10.956   8.634   5.357 -0.3414 -0.6619 -0.0111
  158MOL0     C21244  10.826   8.689   5.379 -0.5825 -0.1184  0.2202
  158MOL0     N21245  10.231   8.881   5.763  0.0434 -0.4886 -0.6706
  158MOL0     N21246  10.154   8.807   5.831 -0.2795 -0.2043 -0.0339
  158MOL0     C21247   9.648   7.796   5.895 -0.0526 -0.7958 -0.8695
  158MOL0     C21248   9.665   7.680   5.817 -0.4395 -0.0019  0.4488
  158MOL0     C21249   9.624   7.247   5.707  0.1893 -0.3869  0.2369
  158MOL0     C21250   9.752   7.184   5.703  0.0818 -0.9251  0.5103
  158MOL0     C21251   9.765   7.047   5.703 -1.2788 -0.1345 -0.3893
  158MOL0     C21252   9.651   6.966   5.690  0.3263  0.6299  1.0923
  158MOL0     O21253   9.668   6.826   5.686 -0.9697  0.2347  0.2602
  158MOL0     C21254   9.663   6.766   5.553 -0.2445  0.6926 -0.0825
  158MOL0     C21255   9.807   6.745   5.496  0.8090  0.4323 -0.1785
  158MOL0     C21256   9.906   6.658   5.576 -1.2036  0.3842 -0.3986
  158MOL0     C21257   9.850   6.520   5.603 -0.4020 -0.1750 -0.1683
  158MOL0     C21258   9.850   6.434   5.480  0.4605  0.0866 -0.5573
  158MOL0     C21259   9.867   6.349   5.394  0.2102 -0.0204 -0.1591
  158MOL0     C21260   9.521   7.022   5.677 -0.1120 -0.5423 -0.2466
  158MOL0     C21261   9.507   7.163   5.685 -0.2491  0.3106 -0.3712
  158MOL0     C21262   9.370   7.218   5.691  1.1477  0.0531 -0.1090
  158MOL0     H21263   9.700   7.459   6.078 -2.2784  0.6365  1.0625
  158MOL0     H21264   9.679   7.673   6.210 -0.7387 -2.8443 -0.1970
  158MOL0     H21265   9.817   7.989   6.016  0.0180  0.7241  0.5348
  158MOL0     H21266   9.668   8.061   5.951 -0.3691 -0.8553 -0.3946
  158MOL0     H21267   9.756   8.080   6.240 -0.5599 -0.1975  0.0153
  158MOL0     H21268   9.642   8.188   6.162  0.6007  1.0266  0.3099
  158MOL0     H21269   9.950   8.184   6.147 -1.0217 -1.4686 -0.2926
  158MOL0     H21270   9.857   8.325   6.174  3.4850  1.0440  0.2998
  158MOL0     H21271   9.860   8.196   5.907  3.1114 -1.4566  2.2024
  158MOL0     H21272   9.744   8.320   5.959 -0.3991 -0.1077 -0.1794
  158MOL0     H21273   9.893   8.491   5.985 -2.9293 -0.0992 -2.2645
  158MOL0     H21274  10.033   8.389   6.010 -2.4047 -0.5513  4.3585
  158MOL0     H21275  10.009   8.323   5.752 -3.2663 -0.9268 -2.3761
  158MOL0     H21276   9.864   8.416   5.758  1.3082 -2.1564 -1.0781
  158MOL0     H21277  10.061   8.518   5.652  1.1955 -0.6023  0.5583
  158MOL0     H21278  10.138   8.530   5.806 -0.1832  0.0234  1.5503
  158MOL0     H21279   9.867   8.654   5.737 -2.8324 -0.0917  4.4787
  158MOL0     H21280   9.946   8.664   5.899  0.2985 -0.5026  0.0397
  158MOL0     H21281   9.977   8.827   5.553  0.3474 -1.6732 -0.8927
  158MOL0     H21282  10.160   8.994   5.447  0.4972  2.4963  0.2508
  158MOL0     H21283  10.218   9.103   5.559  0.2775  0.4787 -1.5630
  158MOL0     H21284  10.389   9.025   5.403 -3.5786 -1.5300 -1.4206
  158MOL0     H21285  10.437   8.991   5.565 -0.2675 -0.8901  0.4247
  158MOL0     H21286  10.348   8.788   5.375  0.1003 -1.7397 -0.0111
  158MOL0     H21287  10.369   8.754   5.548  0.8533 -0.2389  0.8118
  158MOL0     H21288  10.619   8.829   5.523 -0.8542 -3.5549  1.3023
  158MOL0     H21289  10.592   8.850   5.351  0.3220  0.1104 -0.4701
  158MOL0     H21290  10.650   8.405   5.435 -0.1012 -0.1474 -0.7300
  158MOL0     H21291  10.871   8.301   5.402 -0.2542  0.2654  1.4100
  158MOL0     H21292  11.384   8.583   5.187 -1.0371 -2.4241 -3.2342
  158MOL0     H21293  11.586   8.475   5.134 -0.3424 -0.6998  0.0492
  158MOL0     H21294  11.817   8.417   5.197 -0.8922  0.8451  0.2183
  158MOL0     H21295  11.832   8.407   5.374 -0.7811  1.3155 -0.4546
  158MOL0     H21296  11.923   8.160   5.343 -0.8430 -0.4887  0.1152
  158MOL0     H21297  11.918   8.204   5.174 -0.3004  0.4686  1.0771
  158MOL0     H21298  12.072   8.383   5.234 -1.7507 -1.6132 -0.5232
  158MOL0     H21299  12.067   8.337   5.405  0.8721  1.2265 -0.5342
  158MOL0     H21300  12.152   8.109   5.327  0.0004  0.8040  0.5461
  158MOL0     H21301  12.273   8.235   5.334 -3.1811  5.8865  1.9102
  158MOL0     H21302  12.236   8.274   5.083 -0.6562 -0.6865 -1.4735
  158MOL0     H21303  12.113   8.153   5.087 -0.3654  0.5367  0.9797
  158MOL0     H21304  12.394   8.098   5.179 -0.3996 -1.7224  1.2454
  158MOL0     H21305  12.258   7.988   5.174  0.7789  1.2282  2.6501
  158MOL0     H21306  12.393   8.096   4.925  1.0106 -1.4971 -0.5129
  158MOL0     H21307  12.228   8.017   4.930 -1.1548 -0.0965  1.9390
  158MOL0     H21308  12.404   7.868   5.107 -1.2317  0.4883  0.5158
  158MOL0     H21309  12.364   7.826   4.944 -0.2282 -1.2232  1.1136
  158MOL0     H21310  11.533   8.230   5.490 -1.7562 -1.1685  0.0518
  158MOL0     H21311  11.318   8.353   5.521  1.2859  0.0663  0.2129
  158MOL0     H21312  11.045   8.689   5.327 -0.8447  0.9180  1.2158
  158MOL0     H21313  10.817   8.797   5.368  2.5652  0.2195  0.2811
  158MOL0     H21314   9.634   7.896   5.856 -2.3899  0.2424  2.2145
  158MOL0     H21315   9.644   7.681   5.711  0.9169 -1.1329  0.1486
  158MOL0     H21316   9.844   7.242   5.707 -0.8122  0.5434  0.4430
  158MOL0     H21317   9.863   6.999   5.707 -1.6695 -0.9739 -0.7281
  158MOL0     H21318   9.597   6.808   5.477 -1.4451 -0.6882  0.1282
  158MOL0     H21319   9.616   6.667   5.567  0.4673  0.3380 -0.1659
  158MOL0     H21320   9.845   6.847   5.490 -1.1319  1.1519 -1.1831
  158MOL0     H21321   9.788   6.710   5.394 -1.1459  2.3556 -0.5530
  158MOL0     H21322   9.927   6.705   5.673 -0.9284 -0.6856  0.0842
  158MOL0     H21323   9.997   6.654   5.514 -1.7914 -3.8037 -1.2862
  158MOL0     H21324   9.913   6.473   5.679  2.7080  0.6569 -2.0338
  158MOL0     H21325   9.746   6.524   5.637 -0.1891 -0.1377  0.4928
  158MOL0     H21326   9.879   6.275   5.317 -0.5854  0.4620 -0.7688
  158MOL0     H21327   9.429   6.965   5.677 -0.3744 -0.1265 -0.4878
  158MOL0     H21328   9.369   7.307   5.628  3.2131  1.2433  1.4355
  158MOL0     H21329   9.310   7.138   5.645  1.5284 -1.3296  1.7017
  158MOL0     H21330   9.338   7.241   5.793  1.8243 -1.2497  0.4222
  159MOL0     O21331   3.653   9.541   3.280 -0.5357  0.0827 -0.1207
  159MOL0     C21332   3.657   9.578   3.165  0.6229 -0.2016 -0.1892
  159MOL0     O21333   3.759   9.595   3.089  0.0693 -0.0149  0.5668
  159MOL0     C21334   3.883   9.558   3.134  0.7444 -0.8669 -0.4175
  159MOL0     C21335   3.969   9.664   3.175  0.3563 -0.5448  0.2168
  159MOL0     C21336   4.101   9.623   3.223 -0.5034 -0.6925 -0.2004
  159MOL0     C21337   4.134   9.487   3.227  0.0279 -0.7556  0.0378
  159MOL0     O21338   4.249   9.430   3.275 -0.0913  0.3427 -0.3345
  159MOL0     C21339   4.355   9.518   3.322  0.4222  0.3827 -0.6317
  159MOL0     C21340   4.468   9.446   3.384  0.0564  0.0971 -0.0921
  159MOL0     C21341   4.573   9.541   3.433 -0.1853  0.1199 -0.2723
  159MOL0     C21342   4.709   9.473   3.441 -0.4285 -0.1855  0.1170
  159MOL0     C21343   4.803   9.579   3.506  0.0139  0.0989 -0.5386
  159MOL0     C21344   4.941   9.524   3.515  0.4293 -0.2898 -0.5605
  159MOL0     C21345   5.038   9.633   3.562 -0.1940  0.4178  0.4721
  159MOL0     C21346   5.088   9.716   3.440  0.2544 -0.0149  0.5756
  159MOL0     N21347   5.199   9.801   3.477  0.6662 -0.4115 -0.2418
  159MOL0     C21348   5.331   9.771   3.463  0.0630 -0.9893  0.4034
  159MOL0     C21349   5.394   9.860   3.549  0.6079  0.3571  0.4295
  159MOL0     C21350   5.541   9.850   3.579 -0.0976 -0.0533  0.4192
  159MOL0     C21351   5.584   9.791   3.712  0.0230 -0.0187  0.7341
  159MOL0     C21352   5.734   9.780   3.722 -0.4883 -0.3799 -0.4402
  159MOL0     C21353   5.803   9.912   3.732 -0.0709  0.0012 -0.1270
  159MOL0     O21354   5.943   9.900   3.760 -0.3707  0.7462 -0.4115
  159MOL0     C21355   6.016  10.010   3.762  0.0115  0.3270  0.4532
  159MOL0     C21356   5.969  10.141   3.743 -0.4128 -0.4019  0.0444
  159MOL0     C21357   6.059  10.249   3.759  0.4579  0.5456 -0.9747
  159MOL0     C21358   6.196  10.235   3.789 -0.6545  0.0273  0.1774
  159MOL0     C21359   6.294  10.341   3.789 -0.1856  0.4777  1.2234
  159MOL0     O21360   6.421  10.311   3.813 -0.5912 -0.2939  0.1470
  159MOL0     C21361   6.506  10.411   3.817 -0.0271 -0.1905  1.1523
  159MOL0     C21362   6.597  10.439   3.710 -0.0630 -0.1233 -0.1506
  159MOL0     C21363   6.687  10.542   3.712 -0.5752 -0.3915  1.0800
  159MOL0     C21364   6.685  10.638   3.815  1.1361  0.7332 -0.6222
  159MOL0     O21365   6.765  10.739   3.830  0.5244  0.7215  0.4852
  159MOL0     C21366   6.904  10.705   3.801 -0.5057 -0.5091  0.3531
  159MOL0     C21367   7.007  10.785   3.873  0.3548  0.1209  0.2276
  159MOL0     C21368   6.999  10.939   3.827  0.4030 -0.1275  0.0462
  159MOL0     C21369   7.044  10.971   3.683  1.0464  0.1466 -0.2706
  159MOL0     C21370   7.054  11.127   3.675  0.5237 -0.9811  0.3207
  159MOL0     C21371   7.087  11.155   3.533  0.0908 -0.7086  0.1820
  159MOL0     C21372   7.066  11.296   3.491 -0.1068 -0.4710 -0.3680
  159MOL0     C21373   7.111  11.312   3.346  1.0775 -1.2836  0.3812
  159MOL0    Cl21374   7.069  11.467   3.288 -0.1290 -0.3546 -0.4480
  159MOL0     C21375   6.589  10.613   3.920 -0.2817  0.2908 -0.3498
  159MOL0     C21376   6.508  10.500   3.921 -0.3692 -0.4476  0.8106
  159MOL0     O21377   6.260  10.452   3.745 -0.6021 -0.0849  0.6790
  159MOL0     C21378   6.236  10.101   3.818 -0.1201 -0.2496 -0.5744
  159MOL0     C21379   6.151   9.990   3.800  0.4791  0.1105  0.1390
  159MOL0     N21380   5.292   9.922   3.621  0.1186  0.4011  0.2072
  159MOL0     N21381   5.178   9.893   3.575 -0.1249 -0.4482 -0.2751
  159MOL0     C21382   4.040   9.392   3.195  0.5767 -0.0017 -0.6139
  159MOL0     C21383   3.915   9.423   3.152  0.0403  0.9005  0.8712
  159MOL0     C21384   3.517   9.596   3.123  0.3706  0.0854  0.1483
  159MOL0     C21385   3.438   9.684   3.201  0.1359  0.2756  1.3334
  159MOL0     C21386   3.302   9.694   3.174 -0.3100  0.1612 -0.6747
  159MOL0     C21387   3.244   9.627   3.070  0.0142 -0.9422 -0.5340
  159MOL0     O21388   3.115   9.653   3.035  0.1650  0.0393 -0.5966
  159MOL0     C21389   3.034   9.765   3.076  0.1753  0.2313 -0.3972
  159MOL0     C21390   2.915   9.785   2.983  0.5960  0.5389  0.0927
  159MOL0     C21391   2.820   9.666   2.964  0.4106  0.1558  0.4724
  159MOL0     C21392   2.697   9.677   2.878  0.2930 -0.4945  0.0935
  159MOL0     C21393   2.718   9.749   2.754  0.9037 -0.2272 -0.2056
  159MOL0     C21394   2.738   9.807   2.651 -0.2028 -0.2595 -0.1216
  159MOL0     C21395   3.324   9.536   3.000 -0.3493  0.7183  0.5859
  159MOL0     C21396   3.461   9.524   3.021  0.1286 -0.5165 -0.0035
  159MOL0     C21397   3.544   9.426   2.942  0.2207 -0.1861  0.2093
  159MOL0     H21398   3.938   9.764   3.149  1.0988 -0.1585  0.7848
  159MOL0     H21399   4.169   9.695   3.268 -2.1316 -1.4267  3.8951
  159MOL0     H21400   4.391   9.563   3.229  1.2842 -1.9251 -1.5198
  159MOL0     H21401   4.322   9.592   3.395  1.7012  1.1756 -0.8287
  159MOL0     H21402   4.515   9.383   3.308 -1.8067 -1.3111 -0.1594
  159MOL0     H21403   4.440   9.389   3.473  0.7392 -1.5038 -0.8634
  159MOL0     H21404   4.547   9.584   3.531  2.2522  1.9222 -0.3048
  159MOL0     H21405   4.581   9.623   3.361  0.1115  1.3996  1.1597
  159MOL0     H21406   4.713   9.384   3.506 -0.2651 -0.2871 -0.0299
  159MOL0     H21407   4.741   9.439   3.342 -0.9483  0.3147 -0.2265
  159MOL0     H21408   4.799   9.671   3.446  0.6911 -0.7105 -1.8741
  159MOL0     H21409   4.770   9.606   3.607  1.7456  1.3359 -0.2561
  159MOL0     H21410   4.933   9.441   3.586  1.0111 -0.1647 -0.3434
  159MOL0     H21411   4.973   9.487   3.417 -1.7558 -0.5933 -1.2275
  159MOL0     H21412   5.122   9.576   3.605 -0.4601 -0.5103 -0.1982
  159MOL0     H21413   4.997   9.688   3.647 -0.8965 -2.1351  1.8934
  159MOL0     H21414   5.117   9.643   3.364 -1.5633 -2.0711  1.7359
  159MOL0     H21415   5.004   9.779   3.408  1.1416  1.5424  1.1692
  159MOL0     H21416   5.386   9.691   3.414 -0.7999 -0.7718 -0.9530
  159MOL0     H21417   5.589   9.790   3.501  0.9882 -0.6435  1.5077
  159MOL0     H21418   5.583   9.950   3.565 -2.1575  0.6261 -1.2489
  159MOL0     H21419   5.557   9.863   3.789  0.0090  0.3098  0.4252
  159MOL0     H21420   5.530   9.699   3.733 -3.8296  2.1089  0.9629
  159MOL0     H21421   5.783   9.734   3.635 -0.1185  1.4094 -1.2120
  159MOL0     H21422   5.769   9.735   3.815  1.9754  3.9189  0.9997
  159MOL0     H21423   5.764   9.971   3.814 -1.1789 -0.0832 -0.5747
  159MOL0     H21424   5.778   9.965   3.640 -1.4342 -0.9456 -0.3344
  159MOL0     H21425   5.874  10.176   3.702 -0.0925  0.9786  0.4052
  159MOL0     H21426   6.025  10.349   3.730  0.5049  0.7070 -0.4732
  159MOL0     H21427   6.603  10.372   3.625 -1.7139 -1.6585  0.8612
  159MOL0     H21428   6.765  10.549   3.638 -1.5456  2.9758  0.2048
  159MOL0     H21429   6.933  10.601   3.818 -1.4707 -0.8446  0.0224
  159MOL0     H21430   6.905  10.730   3.694 -2.8450  1.4973  0.7053
  159MOL0     H21431   6.996  10.769   3.981  0.3118  0.6928  0.3112
  159MOL0     H21432   7.107  10.754   3.843  0.1399  1.0679 -1.6076
  159MOL0     H21433   6.900  10.984   3.833  0.9149  1.0035  0.2360
  159MOL0     H21434   7.055  10.998   3.900  0.2779 -0.9228  0.7941
  159MOL0     H21435   6.970  10.938   3.610  0.7487  1.6109 -0.6486
  159MOL0     H21436   7.141  10.923   3.665  1.0415  0.6528 -1.7898
  159MOL0     H21437   7.130  11.151   3.750  1.1596 -1.6928 -0.0812
  159MOL0     H21438   6.958  11.168   3.707  0.7652 -0.2468  0.1334
  159MOL0     H21439   7.189  11.125   3.507 -0.4038  0.4450 -3.8389
  159MOL0     H21440   7.024  11.094   3.467 -1.3613  1.7199 -0.8206
  159MOL0     H21441   7.116  11.369   3.555  0.5605 -0.2965 -1.0624
  159MOL0     H21442   6.958  11.317   3.487 -0.2018 -0.3763  1.7006
  159MOL0     H21443   7.220  11.301   3.339  1.2102  0.5677 -1.5694
  159MOL0     H21444   7.064  11.243   3.275 -1.0998  0.8338 -0.3625
  159MOL0     H21445   6.571  10.690   3.995  0.0824 -0.2290  0.2790
  159MOL0     H21446   6.432  10.490   3.998 -1.0406 -1.9744 -0.0052
  159MOL0     H21447   6.342  10.087   3.841  0.4985 -1.0974 -3.5541
  159MOL0     H21448   6.188   9.888   3.807 -0.5086 -0.2439  0.2680
  159MOL0     H21449   4.063   9.286   3.191  2.4845  0.3277  0.3425
  159MOL0     H21450   3.846   9.343   3.128  0.1946  1.0269 -0.0236
  159MOL0     H21451   3.472   9.748   3.283  2.6201 -1.6949  1.9661
  159MOL0     H21452   3.245   9.769   3.229 -2.6178 -0.4516 -2.1018
  159MOL0     H21453   3.087   9.858   3.095 -1.4721  1.8139 -2.8407
  159MOL0     H21454   2.992   9.733   3.172  1.5909  0.5443  0.3570
  159MOL0     H21455   2.964   9.808   2.887 -2.5328  1.9217 -1.3260
  159MOL0     H21456   2.857   9.872   3.016 -0.7700  0.7583 -2.6016
  159MOL0     H21457   2.776   9.620   3.053 -1.6545 -5.0671 -2.8007
  159MOL0     H21458   2.881   9.590   2.914 -2.0528 -1.9664  0.4873
  159MOL0     H21459   2.673   9.573   2.859 -1.0171  0.0713 -1.5788
  159MOL0     H21460   2.611   9.719   2.932  0.5934 -1.8555  1.7328
  159MOL0     H21461   2.763   9.871   2.569 -2.9490  1.3174  0.1311
  159MOL0     H21462   3.274   9.479   2.922 -1.9360  2.2291  0.4396
  159MOL0     H21463   3.477   9.359   2.888 -0.8514  0.5886  0.5352
  159MOL0     H21464   3.610   9.473   2.868  1.0570 -2.2161 -0.4041
  159MOL0     H21465   3.601   9.367   3.014 -3.4669 -3.4100  0.8091
  160MOL0     O21466   6.104   4.545   1.246 -0.0452 -0.1068 -0.1941
  160MOL0     C21467   6.051   4.475   1.334  0.3446  0.5916 -0.1858
  160MOL0     O21468   6.097   4.464   1.460 -0.7000  0.2786  0.1950
  160MOL0     C21469   6.221   4.523   1.502  1.1157  0.6108  0.0778
  160MOL0     C21470   6.267   4.649   1.468 -0.4987 -0.7008  0.1127
  160MOL0     C21471   6.388   4.695   1.521  0.2849  0.0339 -0.9945
  160MOL0     C21472   6.458   4.625   1.618  0.6166  0.4817 -0.0157
  160MOL0     O21473   6.564   4.680   1.682  0.3830  0.3245  0.4332
  160MOL0     C21474   6.688   4.601   1.697  0.3787 -0.1338  0.3272
  160MOL0     C21475   6.805   4.685   1.753  0.7046 -0.5360 -0.1282
  160MOL0     C21476   6.862   4.772   1.645  0.3287 -0.0744 -0.3108
  160MOL0     C21477   6.988   4.845   1.690  0.0309 -0.4182  0.1168
  160MOL0     C21478   7.027   4.943   1.576 -0.1709  0.2867  0.3349
  160MOL0     C21479   7.160   5.012   1.607  0.3448  0.4493  0.8464
  160MOL0     C21480   7.185   5.134   1.516 -0.3902 -0.0389  0.1429
  160MOL0     C21481   7.331   5.188   1.535  0.9567  0.5247  0.3083
  160MOL0     N21482   7.335   5.236   1.677 -0.1949  0.2658  0.3266
  160MOL0     C21483   7.386   5.163   1.778 -0.6619  0.1436 -0.8739
  160MOL0     C21484   7.374   5.235   1.889 -0.2777 -0.3323  0.2649
  160MOL0     C21485   7.415   5.186   2.022  0.6471  0.4269 -0.0072
  160MOL0     C21486   7.568   5.185   2.046 -0.2563 -1.0125 -0.4510
  160MOL0     C21487   7.643   5.317   2.010  0.4557 -0.2120  0.0211
  160MOL0     C21488   7.792   5.308   2.030 -0.0360  0.4435 -0.5952
  160MOL0     O21489   7.852   5.431   1.987 -0.0228 -0.0798 -0.1727
  160MOL0     C21490   7.988   5.448   1.985  0.0228  0.0914  0.0465
  160MOL0     C21491   8.044   5.570   1.947  0.0240 -0.6939 -0.0692
  160MOL0     C21492   8.183   5.594   1.941  0.4182 -0.3005 -1.0253
  160MOL0     C21493   8.266   5.490   1.982 -1.1686  0.0310  0.4737
  160MOL0     C21494   8.410   5.507   1.991 -0.5064  0.2879 -0.0695
  160MOL0     O21495   8.494   5.399   2.025  0.2170  0.6332 -0.0254
  160MOL0     C21496   8.628   5.409   1.997  0.7350 -0.6110 -0.5445
  160MOL0     C21497   8.679   5.445   1.865  0.6270 -0.5146  0.0232
  160MOL0     C21498   8.820   5.439   1.839  0.2051  1.4578 -1.1125
  160MOL0     C21499   8.912   5.399   1.945 -0.0172 -0.5250  1.0858
  160MOL0     O21500   9.046   5.395   1.912 -0.3936 -0.0077 -0.4707
  160MOL0     C21501   9.131   5.305   1.986  0.5911 -0.3583 -0.3001
  160MOL0     C21502   9.283   5.331   1.953 -0.1831  0.0877  0.4477
  160MOL0     C21503   9.338   5.309   1.815  0.9261  0.6384 -0.0729
  160MOL0     C21504   9.309   5.425   1.726 -0.2185 -0.2552  0.3756
  160MOL0     C21505   9.361   5.412   1.593  0.9101 -0.1126  0.1914
  160MOL0     C21506   9.311   5.530   1.505  0.6476 -0.5061 -0.4848
  160MOL0     C21507   9.354   5.521   1.353  0.3245 -0.5134 -0.1366
  160MOL0     C21508   9.503   5.568   1.344 -0.6277 -0.7114  0.5777
  160MOL0    Cl21509   9.552   5.578   1.170  0.3484  0.5410 -0.1100
  160MOL0     C21510   8.853   5.365   2.067 -0.1685 -0.6471  1.2725
  160MOL0     C21511   8.714   5.373   2.095 -0.1805  0.8210 -0.1218
  160MOL0     O21512   8.446   5.615   1.934 -0.9032  0.6109  0.0185
  160MOL0     C21513   8.212   5.364   2.012 -0.5739 -0.1411 -0.0278
  160MOL0     C21514   8.077   5.341   2.019 -0.0978  0.8532  0.3647
  160MOL0     N21515   7.327   5.361   1.850 -0.4568 -0.3607 -0.3825
  160MOL0     N21516   7.291   5.356   1.724 -0.0289  0.7558  0.1013
  160MOL0     C21517   6.408   4.499   1.656 -0.2430  0.3200 -0.0458
  160MOL0     C21518   6.293   4.450   1.598 -0.2854 -0.7809 -0.7419
  160MOL0     C21519   5.932   4.390   1.290 -0.6452  0.9230 -0.2174
  160MOL0     C21520   5.869   4.317   1.394 -0.7580 -0.5384  0.1798
  160MOL0     C21521   5.741   4.263   1.381 -0.2399 -0.2941  0.2853
  160MOL0     C21522   5.680   4.268   1.257  0.1665  0.0348  0.7569
  160MOL0     O21523   5.548   4.241   1.232  0.3617  0.5543 -0.7230
  160MOL0     C21524   5.472   4.188   1.341  0.5157  0.7550  0.1047
  160MOL0     C21525   5.361   4.102   1.265 -0.1065  0.3050 -0.2419
  160MOL0     C21526   5.241   4.105   1.362  0.2666  0.2367  0.8070
  160MOL0     C21527   5.216   3.968   1.422 -0.0499 -0.9751 -0.1559
  160MOL0     C21528   5.075   3.954   1.476 -1.1924 -0.0385 -0.5421
  160MOL0     C21529   4.968   3.919   1.504  0.2967  0.0508  0.5441
  160MOL0     C21530   5.740   4.328   1.143  0.9644 -0.0775  0.2340
  160MOL0     C21531   5.864   4.391   1.163  0.3481 -1.1400  0.0805
  160MOL0     C21532   5.902   4.491   1.054  0.5855  0.3351 -1.2143
  160MOL0     H21533   6.207   4.702   1.394 -1.6753 -3.3434 -0.9686
  160MOL0     H21534   6.424   4.794   1.495 -0.5167  0.6994  0.3635
  160MOL0     H21535   6.682   4.509   1.757  0.3195 -0.5339 -0.2798
  160MOL0     H21536   6.727   4.569   1.600 -1.4659  1.2624 -0.9404
  160MOL0     H21537   6.881   4.620   1.798 -0.1858 -1.3312  0.2806
  160MOL0     H21538   6.773   4.737   1.844 -2.4370 -5.9245  2.3999
  160MOL0     H21539   6.786   4.844   1.614 -1.4779 -0.2823  3.1532
  160MOL0     H21540   6.883   4.703   1.563 -1.1574  0.8936 -1.5607
  160MOL0     H21541   6.966   4.908   1.776  0.7637 -0.5998  0.4470
  160MOL0     H21542   7.068   4.777   1.718  0.9449  1.0990  1.3440
  160MOL0     H21543   7.041   4.886   1.484 -2.9632 -2.6729  1.5588
  160MOL0     H21544   6.955   5.024   1.562  0.1986  0.7079  0.7863
  160MOL0     H21545   7.145   5.045   1.710 -2.8021  0.7779  0.3748
  160MOL0     H21546   7.243   4.941   1.603 -0.7072 -1.0203  3.2964
  160MOL0     H21547   7.107   5.208   1.538  0.4320  0.7370  0.5259
  160MOL0     H21548   7.176   5.102   1.412  0.3274 -1.1462  0.4103
  160MOL0     H21549   7.406   5.112   1.511  0.1711 -0.1623 -0.0266
  160MOL0     H21550   7.346   5.280   1.478  4.0900 -0.6968 -1.0585
  160MOL0     H21551   7.425   5.062   1.773  0.6173  0.5693 -0.0901
  160MOL0     H21552   7.363   5.240   2.102 -0.8090  0.4066 -0.8983
  160MOL0     H21553   7.378   5.084   2.035  0.6766  0.2369 -1.2882
  160MOL0     H21554   7.592   5.166   2.151  2.0932  0.6383 -0.6118
  160MOL0     H21555   7.598   5.102   1.981 -1.1059 -1.0922 -0.7649
  160MOL0     H21556   7.595   5.393   2.073 -1.4985 -0.2838 -1.3051
  160MOL0     H21557   7.622   5.338   1.905  0.3466 -0.0377  0.0764
  160MOL0     H21558   7.835   5.220   1.980  2.7787  0.2981  1.8208
  160MOL0     H21559   7.800   5.290   2.137 -1.3345 -0.8546 -0.6834
  160MOL0     H21560   7.974   5.650   1.924 -1.0983 -1.6850 -0.1965
  160MOL0     H21561   8.210   5.693   1.905  1.4400 -0.8089 -1.7202
  160MOL0     H21562   8.624   5.470   1.775  1.6538 -1.7135 -0.9870
  160MOL0     H21563   8.859   5.468   1.742 -1.4639 -2.8358 -3.3346
  160MOL0     H21564   9.125   5.331   2.092  3.4933  0.0551 -0.1439
  160MOL0     H21565   9.106   5.200   1.972 -2.0370 -0.0523  1.3937
  160MOL0     H21566   9.292   5.436   1.981  2.1039 -0.1399  0.7783
  160MOL0     H21567   9.347   5.294   2.034  2.0917  3.5206  0.4438
  160MOL0     H21568   9.439   5.267   1.819  0.1845 -1.1693  0.8569
  160MOL0     H21569   9.277   5.224   1.784  0.8752 -0.4468  2.7654
  160MOL0     H21570   9.358   5.508   1.778 -1.4032  0.3761  0.5362
  160MOL0     H21571   9.201   5.443   1.733 -0.2255 -0.8683  4.0217
  160MOL0     H21572   9.330   5.316   1.551 -1.2435  1.2492 -1.5634
  160MOL0     H21573   9.470   5.413   1.604  0.7728 -0.4700  1.8191
  160MOL0     H21574   9.202   5.542   1.509  0.8887  1.6586  1.1222
  160MOL0     H21575   9.350   5.621   1.552 -0.1671  1.1711 -2.8787
  160MOL0     H21576   9.283   5.590   1.307  0.8269  1.3887  1.7921
  160MOL0     H21577   9.332   5.418   1.322  0.3532 -0.9733  1.3249
  160MOL0     H21578   9.523   5.664   1.393  0.6260  1.6888 -4.0870
  160MOL0     H21579   9.565   5.490   1.391 -0.5214 -1.6355 -1.0318
  160MOL0     H21580   8.916   5.328   2.148 -0.5890 -2.6151  0.7444
  160MOL0     H21581   8.671   5.343   2.190 -0.8713  1.4419 -0.2245
  160MOL0     H21582   8.278   5.279   2.027  0.2963  0.4046 -0.6600
  160MOL0     H21583   8.048   5.242   2.054 -0.9306  0.5449 -1.1221
  160MOL0     H21584   6.456   4.438   1.732  0.2141  4.0706  2.9531
  160MOL0     H21585   6.265   4.347   1.619  2.3606 -1.2776  0.9351
  160MOL0     H21586   5.911   4.322   1.494 -1.7714 -1.2963  0.6585
  160MOL0     H21587   5.697   4.210   1.464  0.6356 -0.5055  0.6248
  160MOL0     H21588   5.432   4.274   1.395 -1.0392  1.0927 -1.4545
  160MOL0     H21589   5.527   4.120   1.406  0.2776  1.1800  0.7542
  160MOL0     H21590   5.402   4.001   1.254 -1.9870 -0.4961 -0.3444
  160MOL0     H21591   5.328   4.148   1.172 -2.9301 -0.6086  0.2056
  160MOL0     H21592   5.148   4.136   1.312  1.3951  0.9060 -0.9803
  160MOL0     H21593   5.258   4.184   1.436  0.2239  1.5084 -0.4720
  160MOL0     H21594   5.244   3.886   1.354  2.8498 -0.7175  0.6256
  160MOL0     H21595   5.276   3.961   1.512 -0.8585  1.1399  0.6056
  160MOL0     H21596   4.867   3.889   1.525 -0.8694  1.3416 -2.6275
  160MOL0     H21597   5.677   4.328   1.055  0.3203  0.4722  0.6871
  160MOL0     H21598   5.886   4.593   1.090  0.9434 -0.2481  0.6921
  160MOL0     H21599   6.003   4.475   1.015  0.9319  0.7686 -0.4946
  160MOL0     H21600   5.838   4.466   0.968 -0.5142 -2.9105  0.3859
  161MOL0     O21601   8.656   3.526   4.665 -0.3928  0.1608  0.4745
  161MOL0     C21602   8.612   3.445   4.580  0.4778 -0.2305 -0.5650
  161MOL0     O21603   8.680   3.364   4.503  0.1759  0.0910 -0.4362
  161MOL0     C21604   8.798   3.397   4.447  0.2370  0.0392  0.1331
  161MOL0     C21605   8.851   3.296   4.375  0.2441 -0.1203  0.2336
  161MOL0     C21606   8.965   3.320   4.300 -0.5245  0.4100 -0.5516
  161MOL0     C21607   9.036   3.443   4.302  0.1305  0.1631  0.2560
  161MOL0     O21608   9.148   3.452   4.231 -0.2384  0.0891  0.3033
  161MOL0     C21609   9.175   3.594   4.203 -1.3439  0.5600  0.6138
  161MOL0     C21610   9.294   3.589   4.105  0.0157 -0.1267  0.4313
  161MOL0     C21611   9.432   3.565   4.169 -0.1933  0.0857  0.3363
  161MOL0     C21612   9.547   3.601   4.083 -0.5320  0.5254  1.0301
  161MOL0     C21613   9.684   3.546   4.130 -0.2428  0.1109  0.2077
  161MOL0     C21614   9.790   3.578   4.029 -0.2799 -0.1101 -0.0560
  161MOL0     C21615   9.925   3.531   4.070  0.2669  0.7865  0.4161
  161MOL0     C21616   9.999   3.626   4.166  0.0272 -0.4712 -0.7526
  161MOL0     N21617  10.051   3.743   4.083  0.1511  0.5384  0.2798
  161MOL0     C21618  10.175   3.762   4.037 -0.1121  0.0677 -0.4666
  161MOL0     C21619  10.183   3.889   3.997  0.4556  0.0190  0.4500
  161MOL0     C21620  10.313   3.933   3.942 -0.3163 -0.0757 -0.3476
  161MOL0     C21621  10.391   3.964   4.075 -0.4142  0.4831  1.1047
  161MOL0     C21622  10.527   4.025   4.037  0.7796 -0.2655 -0.2169
  161MOL0     C21623  10.625   4.054   4.147  0.2309 -0.9203 -0.6543
  161MOL0     O21624  10.710   4.170   4.122  0.5081 -0.3251 -0.2940
  161MOL0     C21625  10.837   4.141   4.097 -0.2058 -0.5481  0.1149
  161MOL0     C21626  10.874   4.101   3.973 -0.4544  0.2346 -0.2284
  161MOL0     C21627  11.012   4.064   3.947  0.6916 -0.2640  0.5488
  161MOL0     C21628  11.102   4.057   4.049  0.4451 -0.2009 -0.4379
  161MOL0     C21629  11.250   4.025   4.031 -0.6318 -0.4416 -0.1753
  161MOL0     O21630  11.275   3.995   3.901  0.0687 -0.1506 -0.4367
  161MOL0     C21631  11.401   4.011   3.852 -0.7200  0.6037  0.7704
  161MOL0     C21632  11.420   4.072   3.725  0.4061 -0.0904 -1.0085
  161MOL0     C21633  11.547   4.101   3.677  0.3809 -0.7776 -1.4860
  161MOL0     C21634  11.664   4.060   3.753  1.0344 -0.0045  0.6412
  161MOL0     O21635  11.792   4.081   3.711 -0.5002  0.8376  0.5665
  161MOL0     C21636  11.823   4.127   3.579 -0.1090  0.6662 -0.3727
  161MOL0     C21637  11.973   4.156   3.567  0.4252 -0.1106 -0.3415
  161MOL0     C21638  11.998   4.286   3.644  0.4935 -1.3013 -0.8892
  161MOL0     C21639  12.015   4.270   3.799  0.6419 -1.0628 -0.1226
  161MOL0     C21640  12.078   4.392   3.863  0.5616  0.2294  0.1135
  161MOL0     C21641  12.133   4.386   4.006 -0.4274  0.1133  0.2603
  161MOL0     C21642  12.272   4.333   4.008 -0.1605  0.4099  0.0800
  161MOL0     C21643  12.350   4.361   4.131  0.0018 -1.1905 -0.6539
  161MOL0    Cl21644  12.244   4.335   4.273  0.0972  0.5145 -0.1947
  161MOL0     C21645  11.641   3.989   3.866 -0.1257  1.1787  0.1427
  161MOL0     C21646  11.515   3.963   3.915  0.4731 -0.0854 -0.1559
  161MOL0     O21647  11.330   4.018   4.124  0.0091 -0.1600  0.6100
  161MOL0     C21648  11.063   4.099   4.177  0.4912 -1.1890 -0.4901
  161MOL0     C21649  10.930   4.138   4.197 -0.4597 -0.4400 -1.0439
  161MOL0     N21650  10.061   3.935   3.990  0.3934  0.3173 -0.2720
  161MOL0     N21651   9.984   3.853   4.051  0.5096  0.2947  0.2946
  161MOL0     C21652   8.975   3.555   4.380  0.2249 -0.1384 -0.3687
  161MOL0     C21653   8.857   3.525   4.450 -0.4984  0.3614  0.0815
  161MOL0     C21654   8.466   3.425   4.602  0.8426 -0.4896 -0.3152
  161MOL0     C21655   8.401   3.453   4.724  0.7035  0.3416 -0.2963
  161MOL0     C21656   8.269   3.423   4.752  0.1593  0.3760  0.8342
  161MOL0     C21657   8.192   3.361   4.652  0.5568  1.2440 -0.6125
  161MOL0     O21658   8.057   3.336   4.677 -0.1429 -0.1505  0.2133
  161MOL0     C21659   7.969   3.279   4.580  0.2658  1.2165 -0.4318
  161MOL0     C21660   7.822   3.272   4.630  0.0102 -0.4088 -0.4903
  161MOL0     C21661   7.739   3.190   4.540 -0.2149  0.0837  0.5500
  161MOL0     C21662   7.695   3.261   4.408 -0.1175 -0.5261  0.7043
  161MOL0     C21663   7.610   3.167   4.336  0.4275 -0.8950  0.4179
  161MOL0     C21664   7.539   3.079   4.292 -0.3887  0.9865 -0.0564
  161MOL0     C21665   8.249   3.329   4.532  0.0485  0.2256  0.1190
  161MOL0     C21666   8.378   3.367   4.504 -0.2860  0.0305 -0.8204
  161MOL0     C21667   8.425   3.348   4.364  0.2909 -0.2289  0.0477
  161MOL0     H21668   8.806   3.197   4.379 -1.2236  0.5376  3.5945
  161MOL0     H21669   9.006   3.232   4.252 -0.9560  0.9175 -1.8778
  161MOL0     H21670   9.083   3.637   4.163 -1.0475 -1.3623 -2.4849
  161MOL0     H21671   9.216   3.657   4.283  1.5414  1.4632 -1.4127
  161MOL0     H21672   9.295   3.677   4.041 -2.7137 -2.3039 -2.9862
  161MOL0     H21673   9.274   3.499   4.045 -0.4044 -0.5882  1.2483
  161MOL0     H21674   9.439   3.457   4.186 -1.1688  0.1650  1.3982
  161MOL0     H21675   9.443   3.617   4.265  1.5545  2.2539 -0.9602
  161MOL0     H21676   9.518   3.560   3.985  0.0812 -2.0488  1.8488
  161MOL0     H21677   9.547   3.710   4.075  0.3209  0.5779  1.7097
  161MOL0     H21678   9.723   3.581   4.227  1.7049 -2.2256  0.3687
  161MOL0     H21679   9.681   3.437   4.124  0.8413  0.0050  1.1478
  161MOL0     H21680   9.758   3.535   3.934 -2.4190 -1.0787  1.0400
  161MOL0     H21681   9.793   3.686   4.008  0.6393 -0.3026 -0.9779
  161MOL0     H21682   9.979   3.515   3.976 -1.7509 -2.2046 -0.3868
  161MOL0     H21683   9.926   3.430   4.113  0.6553 -1.6131 -4.4243
  161MOL0     H21684   9.933   3.675   4.238 -1.6790  0.4894 -2.8492
  161MOL0     H21685  10.082   3.575   4.216 -0.4433  0.3171  0.8718
  161MOL0     H21686  10.248   3.681   4.038 -0.4647 -0.2552  0.4823
  161MOL0     H21687  10.364   3.857   3.883  1.5196  0.9511 -0.1624
  161MOL0     H21688  10.300   4.028   3.889 -3.8947  1.2876  2.4968
  161MOL0     H21689  10.334   4.023   4.148 -0.6933  0.5090  0.8646
  161MOL0     H21690  10.419   3.867   4.116 -0.9766  0.5102  1.5668
  161MOL0     H21691  10.517   4.123   3.988 -0.3985 -0.9841 -1.4939
  161MOL0     H21692  10.577   3.959   3.965  2.4336  1.8726 -1.1392
  161MOL0     H21693  10.693   3.970   4.166  1.1636 -0.0404 -0.0475
  161MOL0     H21694  10.576   4.059   4.245  1.3531  0.0395 -0.1249
  161MOL0     H21695  10.808   4.097   3.887 -0.6832  1.8484 -0.1410
  161MOL0     H21696  11.047   4.036   3.848 -0.7404  2.4272 -0.8656
  161MOL0     H21697  11.340   4.115   3.666 -0.9436 -1.1196  0.0229
  161MOL0     H21698  11.552   4.159   3.585 -0.2881  2.9038  0.6105
  161MOL0     H21699  11.807   4.053   3.500  1.1579  0.7920 -0.7729
  161MOL0     H21700  11.764   4.215   3.552 -0.1472  0.6936 -0.2059
  161MOL0     H21701  12.038   4.073   3.596  1.3253  1.1739  1.5070
  161MOL0     H21702  11.997   4.173   3.461  1.9744  3.7814  0.4494
  161MOL0     H21703  12.094   4.316   3.603  0.3492  0.1249 -0.2386
  161MOL0     H21704  11.919   4.359   3.624  0.1443 -1.7190 -1.0718
  161MOL0     H21705  12.077   4.183   3.821  0.2405 -0.8897  1.9548
  161MOL0     H21706  11.914   4.247   3.835  0.8361 -0.6479  0.7146
  161MOL0     H21707  12.006   4.474   3.861 -0.2303 -0.4679 -0.6190
  161MOL0     H21708  12.158   4.422   3.793  1.1970 -0.3081  0.5962
  161MOL0     H21709  12.146   4.492   4.033 -2.0418  1.4618 -3.5884
  161MOL0     H21710  12.061   4.338   4.073 -0.5660  1.9172  1.4975
  161MOL0     H21711  12.341   4.376   3.935  0.0105  0.0064 -0.0017
  161MOL0     H21712  12.268   4.224   3.994 -0.4363 -0.3337  4.4557
  161MOL0     H21713  12.439   4.297   4.130 -0.9659 -2.7026 -3.6898
  161MOL0     H21714  12.382   4.465   4.133 -2.4185 -0.4122  1.3806
  161MOL0     H21715  11.726   3.943   3.915 -0.4741  2.2637  1.8873
  161MOL0     H21716  11.507   3.920   4.015  0.5044  3.9225  1.8016
  161MOL0     H21717  11.120   4.106   4.269 -3.0103  1.8422  1.7227
  161MOL0     H21718  10.901   4.167   4.298  1.6180  2.4762 -1.1847
  161MOL0     H21719   9.019   3.654   4.382  1.3120 -0.6179  1.6439
  161MOL0     H21720   8.796   3.607   4.486  0.2251  0.4629  1.1278
  161MOL0     H21721   8.449   3.506   4.805  0.9776  0.3962 -0.4947
  161MOL0     H21722   8.223   3.461   4.843 -1.3974  0.9117 -0.1415
  161MOL0     H21723   8.004   3.179   4.556  1.6424  1.0259  2.0506
  161MOL0     H21724   7.963   3.340   4.489 -0.0539  0.5685 -0.8486
  161MOL0     H21725   7.788   3.374   4.647 -1.2056 -0.7077 -1.0040
  161MOL0     H21726   7.826   3.240   4.734 -2.0705  2.5057  0.6143
  161MOL0     H21727   7.653   3.146   4.593 -0.7414 -2.2204 -1.9675
  161MOL0     H21728   7.801   3.105   4.511  1.7849  0.8268  2.3862
  161MOL0     H21729   7.651   3.358   4.433  0.9918 -0.2673  1.7187
  161MOL0     H21730   7.787   3.282   4.353 -1.3960  0.1453 -1.2953
  161MOL0     H21731   7.482   2.995   4.256 -0.0724  0.8250 -0.1842
  161MOL0     H21732   8.204   3.270   4.453  2.2407  1.6929 -2.3960
  161MOL0     H21733   8.488   3.434   4.338  0.1664  0.1619  1.0071
  161MOL0     H21734   8.475   3.252   4.346  1.9606  0.3731  1.1740
  161MOL0     H21735   8.345   3.368   4.292  1.4157  0.3873 -1.0788
  162MOL0     O21736   5.653   7.686   7.357 -0.5755  0.1798 -0.3380
  162MOL0     C21737   5.643   7.807   7.383 -0.8450  0.2565 -0.6032
  162MOL0     O21738   5.754   7.888   7.381  0.1668 -1.1224 -0.1920
  162MOL0     C21739   5.880   7.836   7.404 -0.2569 -0.7379 -0.2780
  162MOL0     C21740   5.970   7.801   7.299  0.7344  0.6093  0.8088
  162MOL0     C21741   6.098   7.760   7.333  0.0826 -0.3285  0.5258
  162MOL0     C21742   6.147   7.749   7.463  0.0848  0.1058  0.8696
  162MOL0     O21743   6.274   7.708   7.487 -0.4481 -0.4047 -0.2618
  162MOL0     C21744   6.378   7.738   7.391  0.8799  0.0097 -0.1139
  162MOL0     C21745   6.511   7.730   7.467  0.2044 -0.1587  0.2927
  162MOL0     C21746   6.629   7.752   7.373  0.2795 -0.1615  0.6211
  162MOL0     C21747   6.751   7.778   7.448  0.4164  0.7350  0.5365
  162MOL0     C21748   6.876   7.805   7.364 -0.0013 -0.4450 -0.2690
  162MOL0     C21749   7.018   7.837   7.438  0.2739  0.4146  0.0840
  162MOL0     C21750   7.113   7.918   7.352 -0.2808  0.0496  0.4949
  162MOL0     C21751   7.188   7.850   7.238  0.6051 -0.7634  0.0659
  162MOL0     N21752   7.299   7.939   7.191 -0.4555  0.0280 -0.3513
  162MOL0     C21753   7.419   7.952   7.250 -1.1744 -0.1790 -1.2365
  162MOL0     C21754   7.481   8.055   7.194 -0.2814  0.0372  0.0256
  162MOL0     C21755   7.625   8.105   7.193 -0.2239 -0.5196 -0.2722
  162MOL0     C21756   7.694   8.087   7.323 -0.0072 -0.6180 -0.0358
  162MOL0     C21757   7.833   8.147   7.313 -0.5246  0.1423 -0.0386
  162MOL0     C21758   7.910   8.164   7.441  0.1022 -0.2336  0.4560
  162MOL0     O21759   7.962   8.036   7.473 -0.3472  0.5366  0.0901
  162MOL0     C21760   8.095   8.035   7.507  0.2313 -0.9990  0.2140
  162MOL0     C21761   8.204   8.001   7.426  0.4277  0.8405  0.0675
  162MOL0     C21762   8.333   8.009   7.466 -0.2713  0.1294  0.1320
  162MOL0     C21763   8.362   8.038   7.608 -0.4392 -0.2859  0.7720
  162MOL0     C21764   8.499   8.053   7.652 -0.5903 -0.0186  0.4119
  162MOL0     O21765   8.597   8.056   7.557  0.2284 -0.4401  0.0360
  162MOL0     C21766   8.729   8.083   7.586 -0.6403 -0.3832 -0.3604
  162MOL0     C21767   8.793   8.193   7.527  0.8705  0.5330 -0.3808
  162MOL0     C21768   8.929   8.213   7.550  1.1089  0.7177  0.1976
  162MOL0     C21769   9.009   8.122   7.621  0.5264  0.3265 -0.4020
  162MOL0     O21770   9.148   8.137   7.620 -0.4485 -0.2876 -0.3351
  162MOL0     C21771   9.196   8.261   7.564 -0.4436  0.1258 -0.1783
  162MOL0     C21772   9.350   8.260   7.583  0.2813  0.9496  0.1080
  162MOL0     C21773   9.425   8.354   7.492 -0.1065  0.8985 -0.6915
  162MOL0     C21774   9.406   8.497   7.514  0.4322  0.6539 -0.2505
  162MOL0     C21775   9.469   8.581   7.409 -0.2210  0.0866  0.4747
  162MOL0     C21776   9.620   8.596   7.419  0.1492  0.1533 -0.5093
  162MOL0     C21777   9.667   8.698   7.319 -0.0984 -0.0668  0.0896
  162MOL0     C21778   9.816   8.725   7.331 -0.1606 -0.1243 -0.9236
  162MOL0    Cl21779   9.915   8.585   7.326 -0.0711 -0.5637 -0.4958
  162MOL0     C21780   8.949   8.014   7.679 -0.4300  0.6212  0.3482
  162MOL0     C21781   8.805   8.004   7.666 -0.2673 -0.0992 -0.1118
  162MOL0     O21782   8.517   8.068   7.772 -0.1181 -0.0663 -0.1413
  162MOL0     C21783   8.250   8.066   7.693 -0.3207 -0.6961  0.0095
  162MOL0     C21784   8.121   8.064   7.638 -0.1912  0.1880 -0.4298
  162MOL0     N21785   7.397   8.110   7.103  0.3594  0.0713  0.3937
  162MOL0     N21786   7.284   8.033   7.097  0.3913 -0.4820  0.4417
  162MOL0     C21787   6.062   7.769   7.564  0.6215  0.3658  0.5837
  162MOL0     C21788   5.930   7.804   7.541  1.0504  0.0307 -0.0388
  162MOL0     C21789   5.511   7.874   7.382 -0.2005  0.8024  0.9992
  162MOL0     C21790   5.512   8.017   7.392  0.5405  0.2843  0.2612
  162MOL0     C21791   5.391   8.087   7.387  0.0563 -0.6572 -0.4878
  162MOL0     C21792   5.270   8.022   7.386 -0.2413 -1.0712  0.3756
  162MOL0     O21793   5.148   8.093   7.389  0.9706 -0.3605 -0.4022
  162MOL0     C21794   5.147   8.231   7.432  0.1823 -0.5744 -0.9555
  162MOL0     C21795   5.124   8.319   7.316 -0.5233 -0.0806  0.5260
  162MOL0     C21796   4.979   8.338   7.294 -0.1907 -0.3445  1.0213
  162MOL0     C21797   4.912   8.461   7.356 -0.0653  0.1476  0.4065
  162MOL0     C21798   4.966   8.499   7.487  0.1247  1.1579  0.2474
  162MOL0     C21799   5.030   8.536   7.585 -0.3701 -0.2999  0.4878
  162MOL0     C21800   5.266   7.888   7.383 -0.4272  0.6638 -1.0285
  162MOL0     C21801   5.378   7.803   7.378  0.2312 -0.3348 -0.3127
  162MOL0     C21802   5.356   7.652   7.366 -0.3384  0.4606  0.0052
  162MOL0     H21803   5.955   7.817   7.193 -0.7228 -0.9133  0.7360
  162MOL0     H21804   6.171   7.736   7.256  0.7421 -0.3666  1.1473
  162MOL0     H21805   6.386   7.663   7.312 -0.4935 -0.3636  0.0685
  162MOL0     H21806   6.366   7.839   7.351  0.6947 -0.1501 -0.4640
  162MOL0     H21807   6.507   7.631   7.514 -0.3325 -0.8636 -1.1417
  162MOL0     H21808   6.521   7.806   7.545  0.3283  0.4661 -0.3240
  162MOL0     H21809   6.603   7.833   7.305  0.5996  1.1528  2.0106
  162MOL0     H21810   6.643   7.661   7.314 -0.6198 -0.3359  0.6560
  162MOL0     H21811   6.717   7.855   7.518 -2.3858 -1.4594  1.8012
  162MOL0     H21812   6.779   7.691   7.509 -2.7405 -1.2090 -0.5486
  162MOL0     H21813   6.895   7.724   7.293 -2.8693 -0.9538 -0.5844
  162MOL0     H21814   6.852   7.901   7.317  1.5180 -0.7620 -1.7780
  162MOL0     H21815   7.002   7.886   7.534  0.2626 -0.9444  0.7994
  162MOL0     H21816   7.064   7.742   7.466  0.9701  1.0796  1.2807
  162MOL0     H21817   7.188   7.959   7.420 -0.4577 -0.7757  1.2079
  162MOL0     H21818   7.051   8.002   7.319 -0.2888  0.0432  0.4939
  162MOL0     H21819   7.230   7.754   7.270 -0.2515 -0.9444  0.6910
  162MOL0     H21820   7.124   7.829   7.152 -0.2579 -1.0579  0.7599
  162MOL0     H21821   7.466   7.883   7.320 -2.0692  0.5337  0.1185
  162MOL0     H21822   7.676   8.045   7.118  1.8729 -0.3602  0.9578
  162MOL0     H21823   7.621   8.211   7.167  0.8023 -0.4283 -0.0939
  162MOL0     H21824   7.641   8.144   7.401  1.2815  0.8995 -0.2273
  162MOL0     H21825   7.699   7.981   7.349 -0.4108  0.0069  3.0813
  162MOL0     H21826   7.823   8.250   7.279 -0.6994 -0.0333 -0.5207
  162MOL0     H21827   7.898   8.090   7.246  2.4710  2.6133  0.5435
  162MOL0     H21828   7.839   8.194   7.519  0.9125  2.8397  0.1653
  162MOL0     H21829   7.979   8.247   7.421 -0.4462  0.3998  1.1274
  162MOL0     H21830   8.187   7.961   7.326  1.4506 -1.9438  0.8902
  162MOL0     H21831   8.418   7.974   7.408  1.3441 -0.0117  2.4471
  162MOL0     H21832   8.736   8.256   7.458  1.5198  0.8428 -0.6460
  162MOL0     H21833   8.976   8.291   7.491  3.1835 -0.7390 -0.1936
  162MOL0     H21834   9.158   8.274   7.462 -1.6715  0.2420  0.2732
  162MOL0     H21835   9.158   8.342   7.628  0.1048 -0.4366  0.8859
  162MOL0     H21836   9.375   8.267   7.689 -3.1069  0.4341  1.0715
  162MOL0     H21837   9.379   8.160   7.548  2.0253  1.4142  0.1658
  162MOL0     H21838   9.530   8.342   7.520  0.2274 -0.2815 -2.3518
  162MOL0     H21839   9.414   8.321   7.388  0.6817  0.1071 -0.5400
  162MOL0     H21840   9.423   8.513   7.621 -4.1093 -3.0220  1.3756
  162MOL0     H21841   9.297   8.507   7.516  0.1610 -1.9026  1.5504
  162MOL0     H21842   9.430   8.683   7.408 -0.6044 -0.0457 -1.4378
  162MOL0     H21843   9.436   8.547   7.310 -0.2761  1.3482  0.0446
  162MOL0     H21844   9.638   8.620   7.524 -1.0541 -0.5996 -0.1076
  162MOL0     H21845   9.659   8.498   7.389 -1.4271 -0.3257 -1.1189
  162MOL0     H21846   9.621   8.795   7.341 -0.2870 -0.0230 -0.4808
  162MOL0     H21847   9.650   8.666   7.216  2.2534  0.9475 -0.6858
  162MOL0     H21848   9.848   8.784   7.244  0.8197 -0.1852 -0.6141
  162MOL0     H21849   9.838   8.777   7.425  2.2914 -3.1343  0.3053
  162MOL0     H21850   9.012   7.942   7.731  0.6096  0.6747 -0.7926
  162MOL0     H21851   8.743   7.931   7.716 -2.0332 -0.3219 -2.4567
  162MOL0     H21852   8.260   8.095   7.797 -0.2505 -2.6929  0.5898
  162MOL0     H21853   8.040   8.079   7.708 -1.9340 -1.8178 -1.8911
  162MOL0     H21854   6.098   7.740   7.663  2.8525  0.5983 -0.1046
  162MOL0     H21855   5.863   7.813   7.627 -2.9746  0.3733 -2.9317
  162MOL0     H21856   5.602   8.077   7.394 -0.2206  1.4690  0.1070
  162MOL0     H21857   5.407   8.194   7.381  1.7152 -0.8723 -0.2808
  162MOL0     H21858   5.243   8.265   7.469 -0.8456  0.3394  1.0105
  162MOL0     H21859   5.073   8.250   7.511  0.8285  0.4103 -0.5695
  162MOL0     H21860   5.176   8.283   7.228 -2.0986  2.2809 -1.4927
  162MOL0     H21861   5.174   8.416   7.329 -0.2326 -0.2142  0.4046
  162MOL0     H21862   4.929   8.249   7.331  3.0759 -1.8645  2.1439
  162MOL0     H21863   4.959   8.333   7.187 -1.7991 -1.1176  1.3299
  162MOL0     H21864   4.937   8.545   7.290  0.0959 -0.1605  0.0735
  162MOL0     H21865   4.804   8.451   7.369 -0.5198  1.0800 -1.9998
  162MOL0     H21866   5.085   8.546   7.676 -2.9167  0.2791  2.0375
  162MOL0     H21867   5.168   7.843   7.375 -0.5567  0.4564  1.2051
  162MOL0     H21868   5.422   7.598   7.434 -0.9109 -1.2600 -0.7329
  162MOL0     H21869   5.254   7.619   7.388 -0.4879  1.6733  1.2808
  162MOL0     H21870   5.386   7.627   7.264  2.2060  1.1164  0.5332
  163MOL0     O21871   2.187   7.734   3.546  0.0018 -0.0650  0.1246
  163MOL0     C21872   2.145   7.848   3.545  0.3377  0.1108  0.4200
  163MOL0     O21873   2.205   7.955   3.607 -0.3241  0.5808  0.1073
  163MOL0     C21874   2.332   7.953   3.650 -0.0349  0.1184 -0.3416
  163MOL0     C21875   2.373   8.037   3.752  0.1549  0.5777  0.6914
  163MOL0     C21876   2.508   8.052   3.784 -0.3768  0.4551 -0.2211
  163MOL0     C21877   2.604   7.985   3.715 -0.3987  0.7420 -0.3976
  163MOL0     O21878   2.742   7.997   3.730 -0.1557 -0.4578 -0.4662
  163MOL0     C21879   2.787   8.013   3.866  0.6205 -0.1648  0.6092
  163MOL0     C21880   2.838   8.159   3.897 -0.3041 -0.9270  0.5523
  163MOL0     C21881   2.980   8.199   3.845  0.1704 -0.0323  0.2214
  163MOL0     C21882   3.010   8.342   3.887  0.3496  1.3076 -1.2473
  163MOL0     C21883   3.145   8.383   3.840 -0.0107 -0.4952  0.7972
  163MOL0     C21884   3.179   8.524   3.890 -0.6359  0.7002 -0.7985
  163MOL0     C21885   3.332   8.551   3.884  0.1654 -0.8820 -0.7391
  163MOL0     C21886   3.418   8.471   3.975  0.4446  1.0200 -0.0878
  163MOL0     N21887   3.563   8.498   3.950 -0.3220 -0.4378 -0.0574
  163MOL0     C21888   3.630   8.615   3.981 -0.1324  0.4076 -0.1748
  163MOL0     C21889   3.750   8.603   3.925 -0.9853  0.0295 -0.0630
  163MOL0     C21890   3.858   8.714   3.931  0.4424 -0.0242 -0.5688
  163MOL0     C21891   4.008   8.668   3.940 -0.1077  0.6583 -0.3047
  163MOL0     C21892   4.110   8.783   3.982  0.1584 -0.4112 -0.3425
  163MOL0     C21893   4.242   8.767   3.905  0.5077  0.4786 -0.9548
  163MOL0     O21894   4.301   8.895   3.906 -0.2479 -0.5212  0.5925
  163MOL0     C21895   4.435   8.902   3.940  0.0033  0.6225  0.5696
  163MOL0     C21896   4.474   8.943   4.070  0.8210 -0.2769  0.0312
  163MOL0     C21897   4.603   8.954   4.094  0.0983 -0.3312  0.0229
  163MOL0     C21898   4.704   8.903   4.022  0.3830  0.2254  0.1329
  163MOL0     C21899   4.844   8.939   4.064 -0.0383  1.0672  0.9708
  163MOL0     O21900   4.926   8.932   3.955  0.6006 -0.4174  0.3558
  163MOL0     C21901   5.059   8.912   3.975 -0.6494 -0.4656 -0.5389
  163MOL0     C21902   5.150   8.986   3.901 -0.7866  0.1063 -0.0402
  163MOL0     C21903   5.282   8.960   3.907 -0.3983  0.1766  0.4412
  163MOL0     C21904   5.328   8.854   3.985 -0.9234 -0.0098 -0.1376
  163MOL0     O21905   5.458   8.812   3.967  0.1835 -0.0969  0.5225
  163MOL0     C21906   5.543   8.791   4.085  0.3087 -0.8102 -0.0681
  163MOL0     C21907   5.654   8.894   4.077  0.1966 -0.1445 -0.0198
  163MOL0     C21908   5.759   8.851   3.977 -0.7517  0.8658  0.0985
  163MOL0     C21909   5.897   8.898   4.022  0.2643  0.5849  0.0085
  163MOL0     C21910   6.002   8.888   3.906 -0.1523  1.0132 -0.6070
  163MOL0     C21911   6.072   8.756   3.903  0.3246 -0.1640  0.1719
  163MOL0     C21912   6.166   8.750   3.788 -0.1280 -0.1755 -0.1090
  163MOL0     C21913   6.298   8.799   3.836 -0.0973 -0.4992  0.9302
  163MOL0    Cl21914   6.385   8.835   3.688 -0.3625 -0.0312  0.6067
  163MOL0     C21915   5.240   8.782   4.070  0.0455 -0.3920  1.1547
  163MOL0     C21916   5.106   8.804   4.055  0.0950 -0.3823 -0.2513
  163MOL0     O21917   4.869   8.984   4.176 -0.2704 -0.6264 -0.1756
  163MOL0     C21918   4.671   8.851   3.895 -0.0919 -0.0405  0.2010
  163MOL0     C21919   4.536   8.856   3.855 -0.1861 -0.5133  0.7445
  163MOL0     N21920   3.755   8.484   3.857  0.3998 -0.1406  0.4548
  163MOL0     N21921   3.644   8.420   3.869 -0.4344  0.5934 -0.3447
  163MOL0     C21922   2.564   7.909   3.608  0.5486 -0.0279  0.2053
  163MOL0     C21923   2.431   7.884   3.572  0.2045 -0.1779 -0.4653
  163MOL0     C21924   2.005   7.875   3.488 -0.1768 -0.4336  0.2055
  163MOL0     C21925   1.970   8.005   3.462 -0.3464 -0.4161 -0.2590
  163MOL0     C21926   1.846   8.028   3.404  0.0040 -0.0187 -0.3541
  163MOL0     C21927   1.751   7.926   3.388 -0.0868  0.1061 -0.3286
  163MOL0     O21928   1.621   7.923   3.347  0.6597 -0.1170  0.7847
  163MOL0     C21929   1.561   8.051   3.320 -0.5674 -0.1319 -0.0750
  163MOL0     C21930   1.414   8.044   3.280 -0.4898 -0.2457  0.4397
  163MOL0     C21931   1.326   8.053   3.407 -0.2579 -0.7371 -0.1790
  163MOL0     C21932   1.181   8.027   3.367  0.0157 -0.0340  0.5052
  163MOL0     C21933   1.131   8.145   3.289  0.7381  0.8707  0.1578
  163MOL0     C21934   1.093   8.251   3.246 -0.6342 -0.1033  0.3912
  163MOL0     C21935   1.783   7.797   3.420 -0.6900  0.5919  0.2667
  163MOL0     C21936   1.917   7.764   3.466 -0.4179 -0.8523 -0.5766
  163MOL0     C21937   1.942   7.621   3.502 -0.0327 -0.4447 -1.1462
  163MOL0     H21938   2.291   8.086   3.804 -0.0689 -0.2177  1.1028
  163MOL0     H21939   2.548   8.109   3.867 -0.8682 -0.9268  1.0002
  163MOL0     H21940   2.710   7.981   3.936 -1.8141 -0.5164 -2.0821
  163MOL0     H21941   2.878   7.951   3.873  0.9085  0.0622 -0.7918
  163MOL0     H21942   2.842   8.173   4.005 -1.0630 -0.4111  0.5164
  163MOL0     H21943   2.771   8.240   3.866  0.9039  0.4076  1.3393
  163MOL0     H21944   2.998   8.198   3.737  1.1964 -2.4711  0.3732
  163MOL0     H21945   3.052   8.128   3.886  2.6849  1.9920 -0.4120
  163MOL0     H21946   2.934   8.417   3.862  1.7506  3.3124  0.1551
  163MOL0     H21947   3.019   8.335   3.995  1.4152  0.3012 -1.3705
  163MOL0     H21948   3.215   8.302   3.862 -2.6799 -3.1734  0.1419
  163MOL0     H21949   3.153   8.392   3.731 -0.3619  3.6087  0.9433
  163MOL0     H21950   3.129   8.602   3.832  0.0971  0.3612 -1.9270
  163MOL0     H21951   3.157   8.523   3.997  1.2213 -3.9592 -0.2103
  163MOL0     H21952   3.351   8.656   3.906 -3.2107  0.1275 -1.9933
  163MOL0     H21953   3.364   8.540   3.780  2.0325  1.6801 -0.5168
  163MOL0     H21954   3.387   8.493   4.078 -1.3464  0.7212 -0.5336
  163MOL0     H21955   3.394   8.366   3.958 -0.8874  1.1054  1.0978
  163MOL0     H21956   3.598   8.705   4.033 -0.0329 -0.2740  1.1112
  163MOL0     H21957   3.839   8.777   3.844  0.6154  0.8935  0.0488
  163MOL0     H21958   3.837   8.781   4.016  0.0405 -0.0322 -0.6601
  163MOL0     H21959   4.018   8.579   4.003 -2.0813  0.2260 -0.5301
  163MOL0     H21960   4.023   8.632   3.838 -0.1763  1.4718 -0.6038
  163MOL0     H21961   4.128   8.772   4.089 -2.1877 -1.3136  0.0143
  163MOL0     H21962   4.071   8.884   3.966  0.9574  0.2179  1.4118
  163MOL0     H21963   4.231   8.736   3.800  2.6631  0.5515 -1.2352
  163MOL0     H21964   4.303   8.686   3.945 -0.3909 -0.7778 -2.0393
  163MOL0     H21965   4.401   8.976   4.143  0.9160  1.4853 -0.6234
  163MOL0     H21966   4.625   8.998   4.191 -0.2652 -1.3779  0.5930
  163MOL0     H21967   5.109   9.064   3.837  2.3653  2.3046  0.4041
  163MOL0     H21968   5.345   9.018   3.841 -2.9218  0.7134 -1.6602
  163MOL0     H21969   5.486   8.805   4.177 -0.1673 -0.0728 -0.4678
  163MOL0     H21970   5.578   8.688   4.078 -1.4207 -1.4324 -0.0346
  163MOL0     H21971   5.608   8.989   4.048 -2.5976 -0.6873  2.2231
  163MOL0     H21972   5.685   8.912   4.181  1.2951  1.1533 -0.5394
  163MOL0     H21973   5.764   8.743   3.961 -1.0316  1.0473 -1.3980
  163MOL0     H21974   5.745   8.895   3.878  1.7928 -0.8914 -1.1618
  163MOL0     H21975   5.931   8.837   4.106 -3.1094 -1.5826  0.0004
  163MOL0     H21976   5.887   9.005   4.044  0.6492  1.2138 -2.5405
  163MOL0     H21977   6.073   8.970   3.912  2.6980 -1.3722  3.4390
  163MOL0     H21978   5.949   8.903   3.812 -0.5881  1.5961 -0.2731
  163MOL0     H21979   6.121   8.737   3.998  2.8008  1.4662 -0.6830
  163MOL0     H21980   5.995   8.681   3.884  1.2123 -0.9405 -0.4049
  163MOL0     H21981   6.133   8.806   3.700  0.1943  1.1354  0.5832
  163MOL0     H21982   6.176   8.644   3.765 -2.0439 -0.5894  0.7675
  163MOL0     H21983   6.292   8.890   3.897 -0.6235 -1.0115  1.6657
  163MOL0     H21984   6.366   8.734   3.892  2.9949  0.9058 -0.9170
  163MOL0     H21985   5.279   8.701   4.130 -1.3257 -0.4184  2.0784
  163MOL0     H21986   5.045   8.735   4.113 -0.9163  1.2531  0.7246
  163MOL0     H21987   4.744   8.816   3.822 -0.0117 -2.2409  1.2509
  163MOL0     H21988   4.526   8.834   3.749  1.5661  1.5879  0.0720
  163MOL0     H21989   2.647   7.863   3.555  2.2243 -0.0690  2.7024
  163MOL0     H21990   2.404   7.833   3.481  0.9322 -2.9590  0.7751
  163MOL0     H21991   2.041   8.087   3.460 -1.5038  0.6111 -0.9570
  163MOL0     H21992   1.819   8.129   3.375 -0.9474 -0.7802 -2.2977
  163MOL0     H21993   1.619   8.088   3.235  0.9672  0.7225  1.2665
  163MOL0     H21994   1.582   8.116   3.406  1.8108 -1.3116  0.3181
  163MOL0     H21995   1.394   7.949   3.229 -1.0179  1.0774 -1.9710
  163MOL0     H21996   1.390   8.133   3.221  2.5236  0.9696  0.8645
  163MOL0     H21997   1.341   8.156   3.442 -2.8036  0.1781 -1.5017
  163MOL0     H21998   1.365   7.978   3.476 -1.5248  0.9844  2.6095
  163MOL0     H21999   1.171   7.940   3.301  0.4638  1.4015 -1.5823
  163MOL0     H22000   1.118   8.005   3.454  1.3428 -2.3001  0.9720
  163MOL0     H22001   1.078   8.341   3.190  0.5671 -0.6948 -0.9529
  163MOL0     H22002   1.713   7.716   3.400  1.0931 -0.3634 -2.7224
  163MOL0     H22003   1.849   7.564   3.500 -2.0691  2.6064 -2.1913
  163MOL0     H22004   2.007   7.573   3.429 -1.7898 -1.1811 -2.2756
  163MOL0     H22005   1.986   7.618   3.602 -0.8842 -1.9697 -0.7903
  164MOL0     O22006  10.405   6.446   2.871 -0.1947 -0.2666  0.4510
  164MOL0     C22007  10.368   6.380   2.965  0.9913  0.0140 -0.5890
  164MOL0     O22008  10.366   6.242   2.968 -0.8970  0.0725 -0.4170
  164MOL0     C22009  10.446   6.172   2.875 -0.2958  0.3621  0.0609
  164MOL0     C22010  10.413   6.167   2.747 -0.0058  0.2188 -0.1865
  164MOL0     C22011  10.492   6.104   2.654 -0.4888 -1.2933  0.6209
  164MOL0     C22012  10.601   6.022   2.689  0.6709  0.0980 -0.5550
  164MOL0     O22013  10.676   5.951   2.603 -0.1198 -0.0097  0.4654
  164MOL0     C22014  10.631   5.932   2.465  0.0217  0.3371 -0.2536
  164MOL0     C22015  10.738   5.847   2.390 -0.1954 -0.3907 -0.7127
  164MOL0     C22016  10.682   5.798   2.260  0.7186 -0.7092  0.1144
  164MOL0     C22017  10.769   5.693   2.192  0.4738  0.7402  0.0001
  164MOL0     C22018  10.693   5.637   2.076 -0.2975  0.4979  0.9994
  164MOL0     C22019  10.788   5.558   1.989  0.4275 -0.6295 -1.0218
  164MOL0     C22020  10.840   5.435   2.067  0.3108 -0.0028  0.5204
  164MOL0     C22021  10.933   5.348   1.970  0.5113  0.0632  0.7402
  164MOL0     N22022  10.945   5.209   2.004 -0.0822  0.0068  0.3278
  164MOL0     C22023  11.011   5.157   2.112 -0.6210  0.2054  0.0183
  164MOL0     C22024  11.027   5.025   2.084 -0.3994  0.2908 -0.4677
  164MOL0     C22025  11.102   4.931   2.172  0.2882  0.2819 -0.2005
  164MOL0     C22026  11.180   4.813   2.101 -0.5441  0.5278 -0.5855
  164MOL0     C22027  11.273   4.750   2.200  0.8779 -0.3759 -0.3788
  164MOL0     C22028  11.360   4.644   2.132 -0.4118  0.2070 -0.2490
  164MOL0     O22029  11.451   4.582   2.224 -0.5669  0.2332  0.0615
  164MOL0     C22030  11.553   4.654   2.286 -0.5303  0.1022  0.3441
  164MOL0     C22031  11.615   4.771   2.228  0.7430  0.7801  1.0109
  164MOL0     C22032  11.733   4.819   2.282 -0.6875  0.2644  0.0672
  164MOL0     C22033  11.799   4.756   2.390 -0.6868  0.0899 -0.2323
  164MOL0     C22034  11.932   4.789   2.442 -0.3085 -0.5193 -0.1971
  164MOL0     O22035  12.006   4.881   2.371 -0.6501  0.4356  0.1923
  164MOL0     C22036  12.123   4.923   2.436  0.1224  0.6816 -0.6177
  164MOL0     C22037  12.165   5.052   2.407 -0.5176 -0.8351  0.3883
  164MOL0     C22038  12.275   5.113   2.470  0.2846 -0.0704 -0.1994
  164MOL0     C22039  12.356   5.051   2.563  0.2477  0.0619 -0.0208
  164MOL0     O22040  12.464   5.108   2.625  0.4068 -0.1810  0.1477
  164MOL0     C22041  12.459   5.249   2.657 -0.3616 -0.3031 -0.8117
  164MOL0     C22042  12.576   5.302   2.728  0.3694 -0.4338  0.4704
  164MOL0     C22043  12.546   5.452   2.751  0.0826 -0.6764  0.0694
  164MOL0     C22044  12.673   5.512   2.810  0.6796 -0.3181 -0.1465
  164MOL0     C22045  12.662   5.663   2.838 -0.1123  0.1715  0.1500
  164MOL0     C22046  12.533   5.708   2.906  0.7070 -0.0090 -0.2990
  164MOL0     C22047  12.534   5.858   2.911  0.2279 -1.5250  0.3203
  164MOL0     C22048  12.411   5.906   2.999  0.1348  0.2891 -0.0562
  164MOL0    Cl22049  12.458   6.033   3.102  0.0174 -0.1833 -0.0579
  164MOL0     C22050  12.327   4.913   2.582 -0.6137  0.2721  0.6001
  164MOL0     C22051  12.213   4.847   2.521 -0.5760  0.4256  0.3418
  164MOL0     O22052  11.958   4.759   2.556 -0.4424  0.4899 -0.9093
  164MOL0     C22053  11.723   4.660   2.457  0.2658  0.4014 -0.3497
  164MOL0     C22054  11.601   4.609   2.403 -0.2403  0.2667  0.0740
  164MOL0     N22055  10.955   4.994   1.973  0.3528  0.4580 -0.5440
  164MOL0     N22056  10.898   5.107   1.929 -0.0448 -0.0637 -0.4139
  164MOL0     C22057  10.640   6.028   2.824  0.0216  0.4654  0.0237
  164MOL0     C22058  10.563   6.096   2.914  0.0866  0.3017 -0.6894
  164MOL0     C22059  10.292   6.448   3.067  0.8632 -0.7383  0.0686
  164MOL0     C22060  10.231   6.571   3.032 -1.2752  0.2787  0.3555
  164MOL0     C22061  10.153   6.643   3.119 -0.3286 -0.6504 -0.3481
  164MOL0     C22062  10.133   6.597   3.249 -0.0460 -0.8861  0.3222
  164MOL0     O22063  10.051   6.659   3.343 -0.0381 -0.1373 -0.2494
  164MOL0     C22064   9.941   6.732   3.291  0.8542 -0.7540  0.0735
  164MOL0     C22065   9.840   6.655   3.204 -0.2699 -0.1156  0.4853
  164MOL0     C22066   9.725   6.602   3.285  0.4220 -0.1606 -0.1558
  164MOL0     C22067   9.632   6.525   3.203  0.1259  0.6900  0.0235
  164MOL0     C22068   9.508   6.506   3.280 -0.1294  0.9558 -0.4384
  164MOL0     C22069   9.417   6.485   3.354 -0.0128  0.1733  0.7448
  164MOL0     C22070  10.205   6.485   3.289 -0.5620  0.0885 -0.0743
  164MOL0     C22071  10.279   6.405   3.203 -0.4631 -0.0427 -0.4993
  164MOL0     C22072  10.358   6.289   3.252  0.5157 -0.9818 -0.4536
  164MOL0     H22073  10.334   6.227   2.703  0.5754  0.6772 -0.6120
  164MOL0     H22074  10.472   6.108   2.547  2.3225  0.0782  0.0433
  164MOL0     H22075  10.549   5.864   2.486  1.9714 -0.8732  5.0383
  164MOL0     H22076  10.607   6.026   2.414  1.9193  2.0125  1.7422
  164MOL0     H22077  10.757   5.765   2.461 -1.4293  0.3078  0.4839
  164MOL0     H22078  10.830   5.903   2.374 -0.6367  0.8787  0.9186
  164MOL0     H22079  10.680   5.887   2.196 -1.5797  1.7172  3.2144
  164MOL0     H22080  10.580   5.764   2.280  0.4601  0.9530  1.8953
  164MOL0     H22081  10.861   5.742   2.159  0.8195 -0.4529 -0.8615
  164MOL0     H22082  10.795   5.615   2.265 -3.7964  0.4877  1.5059
  164MOL0     H22083  10.611   5.573   2.111 -0.9853  0.8630  0.1027
  164MOL0     H22084  10.650   5.714   2.011  2.4606  2.4823  1.3560
  164MOL0     H22085  10.735   5.524   1.900  1.8181 -0.1622 -2.0672
  164MOL0     H22086  10.876   5.617   1.961  1.2856 -1.6376 -0.5472
  164MOL0     H22087  10.755   5.383   2.112 -2.2110  3.8536  0.6910
  164MOL0     H22088  10.903   5.463   2.153 -0.1815 -0.7550  1.1323
  164MOL0     H22089  10.885   5.359   1.872  0.0809 -1.3523  0.7760
  164MOL0     H22090  11.031   5.396   1.966  1.5785 -2.0826 -0.8287
  164MOL0     H22091  11.069   5.210   2.187  1.6435 -2.9618  0.7003
  164MOL0     H22092  11.181   4.992   2.217 -0.2941  1.4586 -0.7152
  164MOL0     H22093  11.035   4.901   2.252  0.7929 -0.1711  0.0610
  164MOL0     H22094  11.120   4.727   2.069  1.7853 -1.8008  0.9114
  164MOL0     H22095  11.246   4.843   2.019  1.4896 -2.7355 -0.2773
  164MOL0     H22096  11.213   4.692   2.270 -0.4123  0.6996 -0.5692
  164MOL0     H22097  11.339   4.817   2.256  1.0752 -0.9859  0.1313
  164MOL0     H22098  11.411   4.693   2.048  1.9358 -1.7528 -0.0490
  164MOL0     H22099  11.298   4.564   2.091  0.7574 -0.4855 -0.7193
  164MOL0     H22100  11.582   4.825   2.141  0.1213  2.9553  2.5148
  164MOL0     H22101  11.775   4.898   2.220  1.6175  0.5017  1.8408
  164MOL0     H22102  12.112   5.110   2.331  1.1894  1.8259  1.0630
  164MOL0     H22103  12.294   5.216   2.444 -0.0913  0.4047  1.3277
  164MOL0     H22104  12.447   5.304   2.562  0.0820  1.0828 -0.0981
  164MOL0     H22105  12.370   5.272   2.717 -1.3194  2.3908 -3.0026
  164MOL0     H22106  12.592   5.251   2.823 -1.6714  0.8625  1.5782
  164MOL0     H22107  12.662   5.291   2.662  1.1333  1.9349  0.9720
  164MOL0     H22108  12.519   5.511   2.663  3.0961 -1.3674 -1.4423
  164MOL0     H22109  12.470   5.464   2.830  1.2407 -2.8468  1.6002
  164MOL0     H22110  12.756   5.496   2.741  0.2840  0.1624 -0.7447
  164MOL0     H22111  12.703   5.452   2.896 -0.0955 -1.9060 -0.9366
  164MOL0     H22112  12.670   5.724   2.748  1.1117  2.3621  1.6391
  164MOL0     H22113  12.744   5.675   2.910 -1.1678  0.9469  1.2491
  164MOL0     H22114  12.443   5.667   2.860  0.3710  0.2957  0.0830
  164MOL0     H22115  12.522   5.644   2.994 -0.8508 -3.4124 -2.7355
  164MOL0     H22116  12.519   5.903   2.812  1.2744 -1.2041  0.2942
  164MOL0     H22117  12.623   5.901   2.956 -1.8280  1.2159  2.1076
  164MOL0     H22118  12.324   5.933   2.939 -0.1252 -1.7194 -0.6670
  164MOL0     H22119  12.382   5.818   3.057 -0.1882  0.4506  0.0324
  164MOL0     H22120  12.392   4.864   2.655  0.7157  2.1129  0.7168
  164MOL0     H22121  12.199   4.743   2.549 -0.5963  0.1157 -0.7770
  164MOL0     H22122  11.751   4.620   2.553 -2.0003  1.0771  0.6532
  164MOL0     H22123  11.539   4.539   2.459  0.3765  0.3705  0.9029
  164MOL0     H22124  10.720   5.970   2.869 -1.0635 -1.1970 -0.0856
  164MOL0     H22125  10.578   6.099   3.022  0.8980  2.4167 -0.7972
  164MOL0     H22126  10.252   6.615   2.935 -0.3148 -0.5933  0.1380
  164MOL0     H22127  10.121   6.737   3.076 -0.9375 -1.7377 -2.4068
  164MOL0     H22128   9.982   6.820   3.242  0.7060 -0.1169  1.0716
  164MOL0     H22129   9.879   6.775   3.370 -1.0731 -1.7438 -0.8267
  164MOL0     H22130   9.890   6.569   3.160 -0.2022  0.4759 -0.6286
  164MOL0     H22131   9.807   6.715   3.119 -1.1290  2.0523  2.2338
  164MOL0     H22132   9.675   6.682   3.341  1.1962  0.4038 -0.2464
  164MOL0     H22133   9.772   6.530   3.352 -1.4406 -0.5598  0.7672
  164MOL0     H22134   9.608   6.559   3.102  1.9650 -2.0370 -1.4731
  164MOL0     H22135   9.681   6.427   3.191 -2.0089 -0.2577 -1.5387
  164MOL0     H22136   9.331   6.481   3.419 -0.6610 -1.7233 -0.1596
  164MOL0     H22137  10.203   6.444   3.390  0.7872  0.4814  0.1287
  164MOL0     H22138  10.372   6.294   3.360 -0.4387  1.1134 -0.3692
  164MOL0     H22139  10.306   6.200   3.216 -1.4443 -0.2040  0.3160
  164MOL0     H22140  10.457   6.297   3.205  0.4555 -1.6443 -0.7047
  165MOL0     O22141   2.253   1.275   1.742 -0.3140 -0.2205 -0.8217
  165MOL0     C22142   2.264   1.302   1.626  0.0251  0.1268  0.3731
  165MOL0     O22143   2.381   1.326   1.564  0.0360 -0.1875 -0.5717
  165MOL0     C22144   2.493   1.332   1.636  0.3841 -0.5690  0.8373
  165MOL0     C22145   2.601   1.271   1.572 -0.3269 -0.5398 -0.2836
  165MOL0     C22146   2.732   1.282   1.627  0.5718 -0.0460 -0.4613
  165MOL0     C22147   2.750   1.354   1.749 -0.6777  0.3752  0.3199
  165MOL0     O22148   2.872   1.382   1.806  0.1026  0.1179  0.3845
  165MOL0     C22149   2.986   1.315   1.752  0.7477 -0.7795 -0.2698
  165MOL0     C22150   3.100   1.329   1.857  0.9980  0.1269 -0.6043
  165MOL0     C22151   3.159   1.479   1.880  0.5683  0.4197 -0.2309
  165MOL0     C22152   3.301   1.444   1.918 -0.3025 -0.6069 -0.3136
  165MOL0     C22153   3.388   1.570   1.952  0.7164  0.3988  0.0064
  165MOL0     C22154   3.352   1.633   2.084 -0.6981 -0.8955  0.0661
  165MOL0     C22155   3.436   1.743   2.143  0.0408 -0.0264 -0.1574
  165MOL0     C22156   3.590   1.694   2.165  0.8035  0.8855 -0.1368
  165MOL0     N22157   3.657   1.802   2.230  0.6088 -0.2389  0.5947
  165MOL0     C22158   3.665   1.934   2.189 -0.3058  0.2213 -0.1194
  165MOL0     C22159   3.692   1.995   2.309  0.8283  0.4187 -0.6884
  165MOL0     C22160   3.695   2.147   2.316 -0.3381 -0.3074  0.7794
  165MOL0     C22161   3.840   2.201   2.312 -0.8018  0.3849  0.0007
  165MOL0     C22162   3.916   2.180   2.449  0.8022 -0.0152  0.3146
  165MOL0     C22163   4.060   2.242   2.468  0.3428 -0.1644  0.6340
  165MOL0     O22164   4.151   2.188   2.373 -1.0931 -0.4425  0.2970
  165MOL0     C22165   4.272   2.258   2.390 -0.6030  0.1374 -0.1069
  165MOL0     C22166   4.349   2.240   2.506  0.3739  0.1337  0.4902
  165MOL0     C22167   4.474   2.299   2.512 -0.1284 -0.5844  0.8116
  165MOL0     C22168   4.541   2.352   2.405 -0.1087  0.2012  0.8454
  165MOL0     C22169   4.686   2.376   2.414 -0.3304 -0.0640  0.1821
  165MOL0     O22170   4.744   2.331   2.529  0.4424  0.5802 -0.5499
  165MOL0     C22171   4.880   2.325   2.545 -0.9303 -0.0129  0.3698
  165MOL0     C22172   4.924   2.327   2.677 -0.2005 -0.7573 -0.5895
  165MOL0     C22173   5.060   2.318   2.707 -0.0246 -0.1536  0.4507
  165MOL0     C22174   5.157   2.294   2.607  0.4306  0.2215  0.0563
  165MOL0     O22175   5.295   2.288   2.638 -0.6989  0.0716  0.0388
  165MOL0     C22176   5.352   2.256   2.767  0.3193 -0.0089 -0.2382
  165MOL0     C22177   5.392   2.108   2.775  0.5294  0.8886 -0.6191
  165MOL0     C22178   5.274   2.010   2.779  0.9698  0.6567  0.4807
  165MOL0     C22179   5.334   1.872   2.790  0.7379  0.5519 -0.4707
  165MOL0     C22180   5.370   1.812   2.930 -1.0640  0.8719 -0.0903
  165MOL0     C22181   5.464   1.689   2.917 -0.4554 -0.5638 -0.0211
  165MOL0     C22182   5.501   1.642   3.059 -0.0259  0.3980 -0.0483
  165MOL0     C22183   5.632   1.569   3.063 -0.2904  0.2334 -0.0872
  165MOL0    Cl22184   5.650   1.498   3.235  0.2589  0.3603  0.2426
  165MOL0     C22185   5.111   2.267   2.480 -0.0461  0.2750 -0.0368
  165MOL0     C22186   4.975   2.290   2.443  0.4269  0.6333  1.0082
  165MOL0     O22187   4.741   2.428   2.325 -0.5789 -0.3096  0.3561
  165MOL0     C22188   4.467   2.352   2.288  0.6897 -0.9836  0.9413
  165MOL0     C22189   4.332   2.320   2.286  0.2600 -0.3605 -0.2387
  165MOL0     N22190   3.711   1.908   2.411 -0.1357  0.1120 -0.3388
  165MOL0     N22191   3.685   1.791   2.368 -0.7194  0.0826 -0.6100
  165MOL0     C22192   2.641   1.424   1.803 -0.1000  0.9166  0.5966
  165MOL0     C22193   2.518   1.416   1.742 -0.2553  0.3094  0.4359
  165MOL0     C22194   2.143   1.296   1.549  0.7850 -0.2555 -0.0945
  165MOL0     C22195   2.128   1.375   1.436 -1.1431  0.2795 -0.1133
  165MOL0     C22196   2.023   1.368   1.347 -0.0805  0.1262 -0.0045
  165MOL0     C22197   1.923   1.270   1.354 -0.0889 -0.1689  0.0050
  165MOL0     O22198   1.819   1.270   1.261  0.3820  0.0667 -0.4531
  165MOL0     C22199   1.733   1.155   1.258  0.5729 -0.5238 -0.5025
  165MOL0     C22200   1.629   1.165   1.146  1.1319  0.0186  0.3875
  165MOL0     C22201   1.511   1.064   1.141 -0.1770  0.9681  0.3689
  165MOL0     C22202   1.426   1.063   1.005 -1.1548  0.4102 -0.6655
  165MOL0     C22203   1.341   1.178   0.989  0.2340 -0.5447  0.8081
  165MOL0     C22204   1.274   1.275   0.970 -0.0118 -0.6906 -0.1962
  165MOL0     C22205   1.937   1.184   1.467  0.0132  0.1160  0.5733
  165MOL0     C22206   2.046   1.193   1.556 -0.0246  0.0571 -0.5844
  165MOL0     C22207   2.047   1.086   1.664 -0.6474  0.1596  1.1306
  165MOL0     H22208   2.579   1.213   1.483  0.9547 -1.9285  0.2504
  165MOL0     H22209   2.814   1.237   1.573  0.7265  0.1479 -0.3872
  165MOL0     H22210   2.962   1.208   1.748 -2.9607 -0.0438 -1.0657
  165MOL0     H22211   3.009   1.354   1.653  0.3359 -1.9967 -0.8681
  165MOL0     H22212   3.183   1.262   1.836  0.7358 -0.8977  1.3473
  165MOL0     H22213   3.066   1.280   1.949  0.6101 -1.2173 -1.4316
  165MOL0     H22214   3.113   1.537   1.962  3.1292  1.5560  0.4929
  165MOL0     H22215   3.142   1.535   1.788 -0.8250  0.3157 -0.0739
  165MOL0     H22216   3.299   1.383   2.009  0.7534 -1.8274 -1.0828
  165MOL0     H22217   3.361   1.387   1.846  2.2015 -1.3581  2.1830
  165MOL0     H22218   3.493   1.539   1.959  0.6728  0.6569  4.0194
  165MOL0     H22219   3.368   1.645   1.875 -2.6529  0.4119  0.7460
  165MOL0     H22220   3.250   1.669   2.072 -1.0609 -1.8902  0.0100
  165MOL0     H22221   3.342   1.551   2.156 -0.6064 -0.6741  0.3343
  165MOL0     H22222   3.394   1.778   2.238  3.5505  1.8727  0.8697
  165MOL0     H22223   3.428   1.829   2.076 -0.6797 -1.0661 -1.4582
  165MOL0     H22224   3.604   1.613   2.236  3.7618  0.8335 -0.6598
  165MOL0     H22225   3.639   1.672   2.070  1.1950 -1.4491  0.5419
  165MOL0     H22226   3.630   1.979   2.096  1.5063  0.0935 -0.9113
  165MOL0     H22227   3.635   2.176   2.229  0.0134 -1.3035  0.1867
  165MOL0     H22228   3.633   2.180   2.400  0.8702  0.4413  1.4058
  165MOL0     H22229   3.897   2.148   2.236 -0.4942 -0.5039  0.8327
  165MOL0     H22230   3.831   2.309   2.297 -2.1798  0.4740  1.2416
  165MOL0     H22231   3.920   2.073   2.473 -0.9833 -0.3165 -0.6013
  165MOL0     H22232   3.847   2.222   2.522 -0.8779 -0.5466 -0.9003
  165MOL0     H22233   4.093   2.212   2.568  0.3298  1.0661  1.0164
  165MOL0     H22234   4.055   2.351   2.458  2.8133 -0.2150 -3.1739
  165MOL0     H22235   4.310   2.202   2.600  0.3973  0.9051  0.8172
  165MOL0     H22236   4.521   2.280   2.608 -3.1499 -2.8161  2.0246
  165MOL0     H22237   4.851   2.350   2.754  1.0318  2.5670 -0.2559
  165MOL0     H22238   5.102   2.340   2.804 -2.3949  0.5808  1.3654
  165MOL0     H22239   5.450   2.304   2.768  1.9927 -3.0453  2.9542
  165MOL0     H22240   5.299   2.298   2.853  0.9152 -1.4083  0.8596
  165MOL0     H22241   5.456   2.088   2.688 -1.1520 -1.4654 -1.3977
  165MOL0     H22242   5.457   2.087   2.860  0.3131 -0.0736 -0.6868
  165MOL0     H22243   5.201   2.022   2.859  0.3171 -1.6171  0.2933
  165MOL0     H22244   5.219   2.015   2.684  1.1907  2.7214  0.4027
  165MOL0     H22245   5.414   1.871   2.715  2.1708 -0.6029  1.0116
  165MOL0     H22246   5.274   1.788   2.755  0.8097 -0.7426  2.3148
  165MOL0     H22247   5.289   1.777   2.993 -0.0445 -1.8306 -0.1328
  165MOL0     H22248   5.434   1.881   2.986 -0.1294 -0.7977  0.9856
  165MOL0     H22249   5.411   1.617   2.854 -2.0744 -1.1831  1.9435
  165MOL0     H22250   5.552   1.718   2.859 -0.3219 -0.7478  0.0852
  165MOL0     H22251   5.423   1.573   3.094 -0.9000  1.7727  0.7755
  165MOL0     H22252   5.497   1.724   3.130 -0.8160 -0.5494  1.0428
  165MOL0     H22253   5.637   1.478   3.003  0.7331 -0.9577  1.6960
  165MOL0     H22254   5.721   1.628   3.042  0.1367  0.6494  2.5531
  165MOL0     H22255   5.177   2.231   2.401 -0.0776  0.1011  0.0144
  165MOL0     H22256   4.949   2.266   2.341 -1.7505  1.6510  1.2502
  165MOL0     H22257   4.504   2.376   2.188  1.5222  3.3605  2.0796
  165MOL0     H22258   4.285   2.340   2.190  0.7513  0.6153 -0.2887
  165MOL0     H22259   2.651   1.495   1.885  1.2788 -0.8734  2.0748
  165MOL0     H22260   2.436   1.474   1.782 -1.1492 -0.1725 -0.6504
  165MOL0     H22261   2.202   1.455   1.432  1.0070 -1.6186 -0.3703
  165MOL0     H22262   2.039   1.443   1.270  0.9757 -1.7397 -1.7060
  165MOL0     H22263   1.671   1.159   1.348 -0.2645 -2.5159 -0.9162
  165MOL0     H22264   1.777   1.054   1.257  0.3549 -0.6226 -1.1834
  165MOL0     H22265   1.689   1.142   1.057 -0.8534 -1.1508 -0.7319
  165MOL0     H22266   1.584   1.265   1.144 -0.2786 -0.5881  0.5707
  165MOL0     H22267   1.439   1.071   1.223 -0.1851  1.8411  0.2910
  165MOL0     H22268   1.555   0.965   1.156 -2.0154 -0.0550 -0.5861
  165MOL0     H22269   1.496   1.056   0.921  0.3891 -1.0912  0.6894
  165MOL0     H22270   1.347   0.988   1.014 -1.2390  0.6715  1.1443
  165MOL0     H22271   1.214   1.363   0.963  1.3472  0.1595 -2.0234
  165MOL0     H22272   1.861   1.110   1.489 -0.4382  0.5402  0.4758
  165MOL0     H22273   2.055   1.137   1.760  1.2278  0.3090  0.9367
  165MOL0     H22274   1.956   1.025   1.670 -1.3904  0.9473 -1.1600
  165MOL0     H22275   2.135   1.021   1.653 -1.2558 -0.5111 -0.0189
  166MOL0     O22276   2.561   5.126   2.653 -0.1918  0.2328  0.1968
  166MOL0     C22277   2.523   5.160   2.774 -0.5907  1.0733  0.9744
  166MOL0     O22278   2.612   5.150   2.883  0.6696 -0.5402  0.6030
  166MOL0     C22279   2.742   5.136   2.852 -0.6275 -1.0100 -0.1516
  166MOL0     C22280   2.791   5.007   2.867 -0.7524  0.1510  0.0404
  166MOL0     C22281   2.931   4.983   2.859  0.0735  0.4618 -0.1618
  166MOL0     C22282   3.013   5.080   2.797  0.3746  1.0110 -0.1954
  166MOL0     O22283   3.140   5.053   2.756  0.3606  0.3173  0.2550
  166MOL0     C22284   3.223   4.982   2.854 -0.4855 -0.8253  1.2674
  166MOL0     C22285   3.363   4.972   2.803 -0.5355 -0.2114 -0.5090
  166MOL0     C22286   3.447   4.865   2.871  0.4112 -0.1964  0.0121
  166MOL0     C22287   3.591   4.884   2.832  0.3448 -0.2458 -0.5975
  166MOL0     C22288   3.673   4.766   2.884 -0.4108 -1.5000  0.5860
  166MOL0     C22289   3.822   4.787   2.857 -0.4144  0.0768 -0.1014
  166MOL0     C22290   3.858   4.754   2.706 -0.6388  0.0272 -0.6142
  166MOL0     C22291   4.013   4.756   2.665 -0.2478 -0.0549 -0.7091
  166MOL0     N22292   4.109   4.728   2.780  0.5949  0.3163  0.6540
  166MOL0     C22293   4.174   4.613   2.786 -0.1792  1.2778 -1.2303
  166MOL0     C22294   4.251   4.619   2.891  0.1640  0.4017 -0.2479
  166MOL0     C22295   4.322   4.496   2.945  0.2989  0.2331 -0.3044
  166MOL0     C22296   4.459   4.529   3.014  1.0286 -0.2552 -0.7993
  166MOL0     C22297   4.554   4.410   3.015 -0.1062 -0.9281  0.7605
  166MOL0     C22298   4.684   4.432   3.095  0.5036 -0.3415 -0.1786
  166MOL0     O22299   4.730   4.298   3.098  0.4263 -0.1421 -0.9467
  166MOL0     C22300   4.872   4.289   3.080 -0.2872  0.6543  1.1997
  166MOL0     C22301   4.974   4.369   3.147  1.2215  0.8586  0.2816
  166MOL0     C22302   5.101   4.376   3.111 -0.2955  0.0051  0.0131
  166MOL0     C22303   5.141   4.295   2.996 -1.1547  0.6179  0.4436
  166MOL0     C22304   5.282   4.305   2.951 -0.2039 -0.1222  0.3243
  166MOL0     O22305   5.364   4.388   3.020  0.4199 -0.3284 -0.0017
  166MOL0     C22306   5.501   4.383   3.005 -0.3331 -0.5515  0.1930
  166MOL0     C22307   5.580   4.304   2.914 -0.0570  0.1419 -0.4999
  166MOL0     C22308   5.714   4.332   2.899 -0.5603 -0.0020  0.9057
  166MOL0     C22309   5.786   4.411   2.992  0.9455  0.0267 -0.7565
  166MOL0     O22310   5.918   4.441   2.966  0.4309  0.7114  0.1074
  166MOL0     C22311   6.005   4.320   2.952  0.6833 -0.1914 -0.5566
  166MOL0     C22312   6.150   4.371   2.953 -0.6587  0.5012 -0.4246
  166MOL0     C22313   6.195   4.421   3.084 -0.7328 -0.3146  0.1393
  166MOL0     C22314   6.321   4.518   3.073  0.7521  0.4682  0.3476
  166MOL0     C22315   6.458   4.457   3.111 -0.3468  0.5870  0.6948
  166MOL0     C22316   6.514   4.371   2.996 -0.4440  0.6047 -0.1527
  166MOL0     C22317   6.662   4.325   3.006 -0.3195  0.0127  0.1575
  166MOL0     C22318   6.736   4.273   2.873 -0.2426  0.6419  0.2221
  166MOL0    Cl22319   6.651   4.149   2.777 -0.1259  0.3217  0.3562
  166MOL0     C22320   5.714   4.480   3.087  0.5846  0.1129  0.1771
  166MOL0     C22321   5.570   4.461   3.102  0.3069 -0.0501  1.0692
  166MOL0     O22322   5.310   4.240   2.849 -0.5094 -0.2055  0.0102
  166MOL0     C22323   5.043   4.233   2.920  0.0018  0.3722  0.0575
  166MOL0     C22324   4.912   4.220   2.965  0.5276  0.1306  0.2241
  166MOL0     N22325   4.230   4.747   2.948  0.2929  0.1544  0.0880
  166MOL0     N22326   4.142   4.811   2.877 -0.1865 -0.1475  1.2539
  166MOL0     C22327   2.960   5.206   2.771 -0.2243 -0.2756 -0.4682
  166MOL0     C22328   2.827   5.244   2.803 -0.2218  0.2028  0.0224
  166MOL0     C22329   2.382   5.194   2.809  0.3792  0.7529  1.2856
  166MOL0     C22330   2.354   5.217   2.943 -0.4343 -0.0858  0.3748
  166MOL0     C22331   2.225   5.233   2.994 -0.9222  0.8113  0.3969
  166MOL0     C22332   2.120   5.228   2.906  0.7221 -0.1799  1.0870
  166MOL0     O22333   1.988   5.247   2.950 -0.0952 -0.7537  0.0579
  166MOL0     C22334   1.880   5.216   2.862 -0.9970  0.0924 -0.7449
  166MOL0     C22335   1.753   5.245   2.939  0.4088 -0.2256  0.3262
  166MOL0     C22336   1.636   5.200   2.858  0.0230  0.5722 -1.2223
  166MOL0     C22337   1.603   5.045   2.864  0.0921  1.0160 -0.2548
  166MOL0     C22338   1.568   5.005   2.726  0.1198 -0.5610  0.1685
  166MOL0     C22339   1.528   4.974   2.615 -0.2762 -0.7216  0.4177
  166MOL0     C22340   2.144   5.198   2.771  0.2533 -0.3523 -0.3718
  166MOL0     C22341   2.274   5.175   2.720 -0.4281  1.0424 -0.3468
  166MOL0     C22342   2.284   5.131   2.576 -0.2980 -0.4531  0.1958
  166MOL0     H22343   2.725   4.938   2.919 -1.0318  0.2473 -0.1862
  166MOL0     H22344   2.972   4.886   2.886  2.8090  1.1997 -1.2685
  166MOL0     H22345   3.225   5.028   2.953 -0.7299  0.3799  0.7256
  166MOL0     H22346   3.183   4.880   2.860 -1.8629 -0.2389  2.8440
  166MOL0     H22347   3.409   5.067   2.834 -1.6407 -0.1197  0.9734
  166MOL0     H22348   3.365   4.960   2.695  0.5504  3.0688 -0.9742
  166MOL0     H22349   3.422   4.763   2.840  0.8869  0.4085 -2.6164
  166MOL0     H22350   3.433   4.866   2.980  1.1679  0.4663  0.1092
  166MOL0     H22351   3.589   4.900   2.724 -1.6487 -0.4974 -0.6218
  166MOL0     H22352   3.631   4.970   2.888 -0.8569 -0.3365  0.4306
  166MOL0     H22353   3.665   4.756   2.993  2.0314 -1.9445  0.7810
  166MOL0     H22354   3.637   4.678   2.830  0.1562  0.7952 -4.0676
  166MOL0     H22355   3.848   4.892   2.873  0.8227 -0.2053 -0.1801
  166MOL0     H22356   3.882   4.726   2.925 -0.5219  0.8406  0.6967
  166MOL0     H22357   3.807   4.827   2.642 -2.5350 -0.3131  0.4455
  166MOL0     H22358   3.818   4.655   2.681  1.4655 -1.5241  1.7744
  166MOL0     H22359   4.028   4.684   2.585 -0.6813 -0.5084 -0.3898
  166MOL0     H22360   4.037   4.859   2.635 -2.4785  0.9567  0.7260
  166MOL0     H22361   4.159   4.520   2.731  1.6551 -1.3210  2.2816
  166MOL0     H22362   4.251   4.441   3.009 -2.0011  2.1208 -1.0822
  166MOL0     H22363   4.342   4.426   2.863 -2.1083 -1.7496  0.6600
  166MOL0     H22364   4.501   4.623   2.976  1.6609  0.8872  2.4145
  166MOL0     H22365   4.431   4.548   3.118 -0.4874 -2.1380 -0.7927
  166MOL0     H22366   4.583   4.378   2.914  0.9323  1.6054  0.1670
  166MOL0     H22367   4.497   4.323   3.049 -1.3730 -1.6530 -2.8166
  166MOL0     H22368   4.660   4.457   3.199  2.8323 -1.1865  0.6422
  166MOL0     H22369   4.753   4.508   3.058 -0.2696  0.1110 -0.7163
  166MOL0     H22370   4.934   4.429   3.228 -1.1459 -0.5420  0.2317
  166MOL0     H22371   5.168   4.449   3.154  0.1547 -0.4752  0.1289
  166MOL0     H22372   5.537   4.227   2.851 -1.9331 -0.8958  1.8755
  166MOL0     H22373   5.768   4.281   2.819 -1.2130  1.5075 -0.5462
  166MOL0     H22374   5.979   4.249   3.031 -1.4487  1.1652  0.0400
  166MOL0     H22375   5.984   4.282   2.851  1.0101  1.1263 -1.1364
  166MOL0     H22376   6.213   4.286   2.926 -2.4561 -1.2714  0.7561
  166MOL0     H22377   6.159   4.449   2.876  1.0467  1.5002  0.7172
  166MOL0     H22378   6.109   4.481   3.116 -1.5676 -0.0907 -2.3174
  166MOL0     H22379   6.218   4.339   3.153  2.6152  0.6304  0.3353
  166MOL0     H22380   6.301   4.596   3.147 -3.1559  0.5004 -0.5328
  166MOL0     H22381   6.333   4.567   2.976  0.8071  1.8453  1.0244
  166MOL0     H22382   6.443   4.402   3.204 -0.7000  0.3405  0.4938
  166MOL0     H22383   6.530   4.538   3.123  1.9235 -1.1718 -0.2571
  166MOL0     H22384   6.454   4.279   2.990  2.5252 -1.4164 -1.5688
  166MOL0     H22385   6.493   4.426   2.904 -0.1922 -0.4899 -0.8919
  166MOL0     H22386   6.683   4.249   3.082 -1.2643 -0.1372  0.2832
  166MOL0     H22387   6.728   4.410   3.027 -0.4907  0.6112 -1.6137
  166MOL0     H22388   6.750   4.355   2.802 -0.6377  0.0268 -0.5771
  166MOL0     H22389   6.833   4.229   2.897 -0.3897 -1.2923 -2.3088
  166MOL0     H22390   5.771   4.551   3.146  0.5673  1.4936 -1.4268
  166MOL0     H22391   5.518   4.514   3.181  1.0577 -0.1916  1.6721
  166MOL0     H22392   5.082   4.195   2.826 -0.9478  0.0475 -0.2152
  166MOL0     H22393   4.838   4.163   2.911  1.8961  0.9574 -2.7534
  166MOL0     H22394   3.011   5.288   2.722 -1.1315 -0.4278 -1.7253
  166MOL0     H22395   2.778   5.335   2.771 -0.2401 -0.5944 -2.4079
  166MOL0     H22396   2.440   5.229   3.007  1.5289 -1.3572 -1.8704
  166MOL0     H22397   2.213   5.251   3.101 -1.4552 -0.8663  0.6444
  166MOL0     H22398   1.881   5.110   2.838  0.0673  0.1368 -0.9581
  166MOL0     H22399   1.894   5.282   2.775 -0.4162  2.5274  1.0986
  166MOL0     H22400   1.745   5.353   2.954  2.2946  0.3155 -1.8767
  166MOL0     H22401   1.767   5.205   3.040  2.8522 -1.0967 -0.2898
  166MOL0     H22402   1.642   5.234   2.754 -0.7805  1.4070 -1.0047
  166MOL0     H22403   1.544   5.244   2.898  0.5510  1.1279 -0.6064
  166MOL0     H22404   1.694   5.003   2.907 -2.6662 -1.3894  4.0069
  166MOL0     H22405   1.519   5.021   2.931 -0.6500 -2.6689 -2.2407
  166MOL0     H22406   1.496   4.930   2.523 -1.2562 -0.6172  0.6920
  166MOL0     H22407   2.068   5.178   2.697 -0.3607 -1.7418  0.6023
  166MOL0     H22408   2.340   5.037   2.567 -1.3860 -0.9887 -1.3956
  166MOL0     H22409   2.185   5.128   2.529 -1.0994 -1.6728  1.8225
  166MOL0     H22410   2.342   5.212   2.532  0.2329 -0.6633  0.5021
  167MOL0     O22411   9.246   4.770   9.603 -0.0050  0.4876  0.1872
  167MOL0     C22412   9.153   4.731   9.666 -0.2073 -0.1301 -0.0147
  167MOL0     O22413   9.157   4.629   9.764  0.0712  0.4259 -0.2439
  167MOL0     C22414   9.276   4.615   9.840 -0.3352  0.0898  0.6937
  167MOL0     C22415   9.316   4.486   9.884  0.1511  0.2449 -0.1495
  167MOL0     C22416   9.434   4.466   9.962 -0.0179 -0.2517  0.2732
  167MOL0     C22417   9.516   4.583   9.990  0.2898  0.0437 -0.4901
  167MOL0     O22418   9.629   4.569  10.065 -0.1315 -0.6530 -0.5231
  167MOL0     C22419   9.723   4.476  10.001  0.2507  0.2950 -0.6216
  167MOL0     C22420   9.864   4.497  10.057  0.5378 -0.3219 -0.1991
  167MOL0     C22421   9.962   4.390  10.010 -0.0543 -0.1031 -0.2378
  167MOL0     C22422  10.047   4.423   9.886 -0.1313 -0.6313  0.0707
  167MOL0     C22423  10.158   4.322   9.861 -0.1188  0.8788 -0.8349
  167MOL0     C22424  10.263   4.305   9.965 -0.0518 -0.9523 -0.4198
  167MOL0     C22425  10.387   4.219   9.925  0.4777 -0.2822 -0.3531
  167MOL0     C22426  10.490   4.303   9.839  0.2552 -0.5151  0.1206
  167MOL0     N22427  10.607   4.231   9.808 -0.2678 -1.0168  0.5513
  167MOL0     C22428  10.686   4.235   9.691 -0.5442  0.1701  0.9923
  167MOL0     C22429  10.796   4.167   9.717  0.0487  0.6501 -0.3205
  167MOL0     C22430  10.918   4.164   9.630 -0.2582 -0.0636 -0.8086
  167MOL0     C22431  11.006   4.295   9.644  0.8390 -0.0254 -0.1235
  167MOL0     C22432  11.051   4.327   9.782 -0.6697  0.3600  0.7670
  167MOL0     C22433  11.176   4.410   9.793 -0.0266 -0.6323 -0.4057
  167MOL0     O22434  11.285   4.343   9.725 -0.9150 -0.5749 -0.0067
  167MOL0     C22435  11.408   4.374   9.779 -0.2195  0.2674 -0.7301
  167MOL0     C22436  11.441   4.508   9.797 -0.3070 -0.5586  0.2135
  167MOL0     C22437  11.563   4.554   9.850  0.1872  0.3747 -0.3105
  167MOL0     C22438  11.651   4.458   9.903 -0.2977  0.1720  0.6864
  167MOL0     C22439  11.776   4.499   9.980 -0.1007 -0.2295 -0.1631
  167MOL0     O22440  11.860   4.401  10.023 -0.8650 -0.6779  0.5466
  167MOL0     C22441  11.983   4.426  10.064 -1.1512  0.2655  0.8755
  167MOL0     C22442  12.067   4.512   9.992  0.4554  0.1415 -0.0309
  167MOL0     C22443  12.206   4.525  10.025 -0.1771 -0.2062  0.8706
  167MOL0     C22444  12.256   4.454  10.130  0.0727  0.0726 -0.2479
  167MOL0     O22445  12.384   4.442  10.172 -0.8386  0.5261  0.6050
  167MOL0     C22446  12.486   4.525  10.105 -0.7166  0.5853 -0.0371
  167MOL0     C22447  12.598   4.544  10.212 -0.3762  0.1643  0.4795
  167MOL0     C22448  12.715   4.654  10.183 -0.2084  0.1903 -0.0943
  167MOL0     C22449  12.855   4.615  10.235  0.4579 -1.0261 -0.4147
  167MOL0     C22450  12.967   4.692  10.171  0.0007  0.3622  0.3211
  167MOL0     C22451  13.007   4.620  10.045  0.1301  0.9045  0.0055
  167MOL0     C22452  13.117   4.692   9.969 -0.6451 -0.4606  0.5183
  167MOL0     C22453  13.137   4.622   9.838  0.4645  0.6708 -0.8536
  167MOL0    Cl22454  13.284   4.678   9.767 -0.1096  0.0768 -0.2565
  167MOL0     C22455  12.179   4.360  10.191 -0.3243  0.3817 -0.2418
  167MOL0     C22456  12.042   4.337  10.155  0.7080  0.5772 -0.4188
  167MOL0     O22457  11.795   4.620   9.989 -0.1538  0.3613 -0.1979
  167MOL0     C22458  11.620   4.322   9.885 -0.5880 -0.3859  0.7930
  167MOL0     C22459  11.503   4.282   9.819  1.0509 -0.8862  0.1058
  167MOL0     N22460  10.781   4.115   9.844 -0.4779 -0.4407 -0.3052
  167MOL0     N22461  10.672   4.158   9.900  0.0453 -0.5501  0.2166
  167MOL0     C22462   9.476   4.713   9.958 -0.4019  0.5233  0.4240
  167MOL0     C22463   9.361   4.724   9.877  0.5280  0.1492  0.7272
  167MOL0     C22464   9.026   4.789   9.630  0.2222  0.1411  0.2494
  167MOL0     C22465   8.909   4.737   9.694 -0.7149 -0.5742 -0.6522
  167MOL0     C22466   8.775   4.774   9.666 -0.3797  0.2943  0.5262
  167MOL0     C22467   8.757   4.866   9.561  0.3893  0.1377  0.0535
  167MOL0     O22468   8.625   4.891   9.533 -0.1835 -0.1432 -0.2929
  167MOL0     C22469   8.595   5.000   9.444 -0.6718 -0.5438  0.1866
  167MOL0     C22470   8.454   5.044   9.453  0.7187  0.4660  0.4109
  167MOL0     C22471   8.349   4.943   9.485 -0.7685 -0.2618 -0.5484
  167MOL0     C22472   8.356   4.827   9.383 -0.1420  0.2484 -0.2982
  167MOL0     C22473   8.225   4.753   9.403 -0.2643 -0.4270 -0.1078
  167MOL0     C22474   8.109   4.709   9.419  0.0887  0.3696  0.4357
  167MOL0     C22475   8.870   4.916   9.489 -0.1844 -0.0410  0.1357
  167MOL0     C22476   9.001   4.887   9.530  0.1194 -0.7939 -0.1646
  167MOL0     C22477   9.105   4.963   9.461 -0.0770 -0.0859 -0.4536
  167MOL0     H22478   9.250   4.400   9.873  1.0244 -0.8940  2.4804
  167MOL0     H22479   9.478   4.373   9.996 -0.7973 -0.2038  1.4776
  167MOL0     H22480   9.690   4.377  10.035  1.6158  0.9282  3.0385
  167MOL0     H22481   9.720   4.477   9.892 -1.2447  1.7918 -0.6183
  167MOL0     H22482   9.854   4.505  10.166 -0.5324  1.9613 -0.4134
  167MOL0     H22483   9.894   4.597  10.026 -2.0613  1.3048  1.9696
  167MOL0     H22484   9.908   4.296  10.003 -1.5989  0.6720  0.6075
  167MOL0     H22485  10.026   4.385  10.099 -2.8707 -0.3265  1.9084
  167MOL0     H22486   9.981   4.428   9.799 -2.2262 -2.9321  1.4048
  167MOL0     H22487  10.108   4.513   9.897  2.4974 -2.4818  1.9159
  167MOL0     H22488  10.112   4.224   9.848  0.2076  1.0385 -3.8156
  167MOL0     H22489  10.207   4.349   9.767  0.1421  1.7568 -0.4526
  167MOL0     H22490  10.296   4.401  10.005 -0.3205 -0.4241 -1.4434
  167MOL0     H22491  10.215   4.252  10.049  1.6144  0.3459  1.4428
  167MOL0     H22492  10.349   4.132   9.870  0.0786 -1.6582  1.9711
  167MOL0     H22493  10.438   4.197  10.019 -2.3779 -1.0842  1.1115
  167MOL0     H22494  10.439   4.337   9.749  1.4686 -0.1327 -0.4321
  167MOL0     H22495  10.517   4.386   9.904  0.6953  0.6931 -1.5468
  167MOL0     H22496  10.668   4.291   9.599  1.5746 -0.0979  0.3513
  167MOL0     H22497  10.976   4.079   9.667 -0.3901  0.3376  0.3330
  167MOL0     H22498  10.883   4.168   9.526 -1.4100  0.5085 -0.4091
  167MOL0     H22499  11.089   4.288   9.575 -0.8377  0.4264 -2.2919
  167MOL0     H22500  10.933   4.371   9.616 -0.6204 -1.4454 -0.3424
  167MOL0     H22501  11.070   4.232   9.833 -1.4784 -0.2278  0.0123
  167MOL0     H22502  10.963   4.372   9.829 -2.2054  2.3925 -3.5135
  167MOL0     H22503  11.205   4.422   9.899  2.4529  1.9554 -1.2236
  167MOL0     H22504  11.165   4.506   9.742  1.0709 -1.2423 -1.8509
  167MOL0     H22505  11.372   4.584   9.762 -1.1294 -1.4704 -0.1970
  167MOL0     H22506  11.576   4.661   9.859 -3.7316  0.8896  1.0127
  167MOL0     H22507  12.021   4.567   9.910 -0.5191  2.6789  2.0678
  167MOL0     H22508  12.270   4.579   9.956 -1.0092 -1.9142 -1.3991
  167MOL0     H22509  12.523   4.484  10.011  0.2236  0.9771  0.1556
  167MOL0     H22510  12.445   4.625  10.090  0.7049  1.4147  1.3274
  167MOL0     H22511  12.547   4.576  10.303 -0.7265 -0.6653  0.5838
  167MOL0     H22512  12.640   4.446  10.239 -1.4977  0.2485  2.7850
  167MOL0     H22513  12.723   4.674  10.076 -0.1071 -0.5369 -0.2287
  167MOL0     H22514  12.679   4.748  10.225  2.0443  0.9593  0.2734
  167MOL0     H22515  12.874   4.507  10.231 -1.8594 -1.4818 -0.8217
  167MOL0     H22516  12.858   4.634  10.342 -0.9966  1.2833 -0.7313
  167MOL0     H22517  13.049   4.695  10.243 -0.5658  0.5321  0.9683
  167MOL0     H22518  12.939   4.795  10.148  0.2625  0.4620  0.4501
  167MOL0     H22519  13.046   4.520  10.070 -0.8059 -0.3963 -3.1849
  167MOL0     H22520  12.916   4.609   9.985  0.2111  1.0993 -0.1521
  167MOL0     H22521  13.210   4.685  10.026 -1.3560  1.2915  1.9879
  167MOL0     H22522  13.093   4.798   9.959  3.6825  0.7316  0.8500
  167MOL0     H22523  13.131   4.514   9.852 -1.2313  0.7808 -0.4642
  167MOL0     H22524  13.055   4.642   9.768 -0.2905 -0.4078 -0.3160
  167MOL0     H22525  12.220   4.296  10.269  1.4485 -0.4516 -1.7841
  167MOL0     H22526  11.984   4.252  10.190  1.7704 -0.2443 -0.5946
  167MOL0     H22527  11.686   4.249   9.932  2.0911  2.0014  1.0081
  167MOL0     H22528  11.487   4.175   9.805  1.9998 -1.3231  2.0041
  167MOL0     H22529   9.523   4.805   9.994 -1.6466  0.7743  1.4858
  167MOL0     H22530   9.323   4.824   9.862 -0.2216 -0.3130 -0.6120
  167MOL0     H22531   8.935   4.678   9.781  0.7399  0.6288 -0.2309
  167MOL0     H22532   8.694   4.733   9.725 -0.7042 -2.1814 -1.4403
  167MOL0     H22533   8.638   4.992   9.344 -0.0659  0.5807  0.3355
  167MOL0     H22534   8.656   5.080   9.488  1.9401 -2.0595 -0.4633
  167MOL0     H22535   8.434   5.103   9.363  1.1609 -0.8847 -0.6136
  167MOL0     H22536   8.466   5.117   9.533 -1.7350 -0.4485  1.7089
  167MOL0     H22537   8.251   4.991   9.476 -0.7476  0.7593  2.9186
  167MOL0     H22538   8.364   4.895   9.583  2.0603 -2.5564 -1.9543
  167MOL0     H22539   8.359   4.871   9.283 -2.2420 -1.1404 -1.0377
  167MOL0     H22540   8.448   4.769   9.393 -0.1296  0.5311  1.5170
  167MOL0     H22541   8.010   4.668   9.427 -0.4841  1.3419 -1.0500
  167MOL0     H22542   8.860   4.977   9.400  1.5894 -1.4119 -1.0696
  167MOL0     H22543   9.140   4.912   9.370 -2.4994 -1.4879 -0.6930
  167MOL0     H22544   9.059   5.059   9.437  0.0327  0.1543  0.2904
  167MOL0     H22545   9.179   4.987   9.537 -2.8938 -0.9360  2.8023
  168MOL0     O22546   9.242   7.458   1.620  0.5261 -0.6368  0.1130
  168MOL0     C22547   9.201   7.411   1.518  0.2710 -0.2549 -0.0344
  168MOL0     O22548   9.275   7.410   1.407  0.1700  0.0508  0.5211
  168MOL0     C22549   9.406   7.450   1.399  0.7735 -0.5636  0.2746
  168MOL0     C22550   9.502   7.387   1.470  0.4269  0.2374  0.4214
  168MOL0     C22551   9.638   7.416   1.452 -0.1384  0.2240 -1.2361
  168MOL0     C22552   9.682   7.519   1.368  0.2331 -1.1464 -0.0632
  168MOL0     O22553   9.811   7.547   1.370 -0.6977 -0.2090  0.5164
  168MOL0     C22554   9.852   7.675   1.318 -0.2334  0.4349  0.3937
  168MOL0     C22555  10.001   7.669   1.285 -0.5309 -0.6919 -0.9379
  168MOL0     C22556  10.025   7.555   1.182 -0.8366 -0.6139  0.1858
  168MOL0     C22557  10.165   7.549   1.134 -0.8431  0.1299  0.8287
  168MOL0     C22558  10.167   7.449   1.022  0.0775 -0.1172 -0.2130
  168MOL0     C22559  10.303   7.384   1.002 -0.8682 -0.0204 -0.3121
  168MOL0     C22560  10.308   7.278   0.884 -0.3649 -0.0775  0.3346
  168MOL0     C22561  10.267   7.335   0.750  0.1443 -0.4350  0.1316
  168MOL0     N22562  10.357   7.434   0.697 -0.8405  0.0639 -0.6932
  168MOL0     C22563  10.470   7.409   0.624  0.0026 -0.0270 -0.4260
  168MOL0     C22564  10.514   7.535   0.585  0.1515  0.2345 -0.2082
  168MOL0     C22565  10.628   7.565   0.489 -0.7902 -0.2152  0.2945
  168MOL0     C22566  10.631   7.480   0.361  0.5458 -0.8117  0.1202
  168MOL0     C22567  10.722   7.530   0.244  0.6991 -0.3228  0.1094
  168MOL0     C22568  10.872   7.518   0.257  0.5934 -0.2544 -0.0491
  168MOL0     O22569  10.933   7.633   0.188 -0.4797  0.1287  0.1664
  168MOL0     C22570  11.075   7.627   0.180  0.7232 -0.4786  0.7229
  168MOL0     C22571  11.144   7.750   0.170 -0.7236 -0.4599 -0.0308
  168MOL0     C22572  11.281   7.769   0.180 -0.7481  0.0961 -0.2597
  168MOL0     C22573  11.365   7.659   0.207  0.8546 -0.1236  0.4669
  168MOL0     C22574  11.508   7.682   0.229  0.8332 -0.0587 -0.4521
  168MOL0     O22575  11.597   7.577   0.246  0.4727  0.3168 -0.0787
  168MOL0     C22576  11.728   7.616   0.275  0.3703  0.0282 -0.4507
  168MOL0     C22577  11.830   7.678   0.190  0.5396 -0.1464 -0.3639
  168MOL0     C22578  11.965   7.699   0.237  0.1815  0.3949 -0.7695
  168MOL0     C22579  11.999   7.651   0.366  0.4571  0.0642 -0.3135
  168MOL0     O22580  12.134   7.671   0.403  0.6918 -0.2300 -0.5860
  168MOL0     C22581  12.194   7.578   0.503  1.1188  0.3889  0.2417
  168MOL0     C22582  12.335   7.621   0.556 -0.4706  0.3455 -0.6203
  168MOL0     C22583  12.454   7.580   0.466 -0.5017 -0.2219 -0.0949
  168MOL0     C22584  12.451   7.642   0.328 -0.3903  0.5652  0.0444
  168MOL0     C22585  12.587   7.629   0.261 -0.0455 -0.5409  0.3228
  168MOL0     C22586  12.619   7.481   0.231 -0.0462  0.0531  0.1495
  168MOL0     C22587  12.720   7.469   0.116 -0.5802 -0.4394  0.2393
  168MOL0     C22588  12.851   7.543   0.127 -0.0749 -0.0482 -0.4299
  168MOL0    Cl22589  12.964   7.459   0.216 -0.2981 -0.2907  0.1386
  168MOL0     C22590  11.900   7.587   0.452 -0.7646  0.0766  0.7547
  168MOL0     C22591  11.767   7.575   0.407 -0.2327  0.4487 -0.0792
  168MOL0     O22592  11.543   7.798   0.230 -1.1303 -0.2992  0.1397
  168MOL0     C22593  11.295   7.536   0.212  0.1950 -0.4034  0.7075
  168MOL0     C22594  11.160   7.516   0.199  0.9181 -0.7926  0.3877
  168MOL0     N22595  10.437   7.632   0.644 -0.0974  0.1198 -0.2157
  168MOL0     N22596  10.342   7.562   0.706  0.5044  0.0364  0.3993
  168MOL0     C22597   9.579   7.578   1.292  0.1728 -0.4866 -0.5520
  168MOL0     C22598   9.442   7.546   1.302 -0.2845  0.2412  0.4820
  168MOL0     C22599   9.067   7.351   1.507 -0.7978  0.4234 -0.1647
  168MOL0     C22600   9.034   7.267   1.402  0.2389  0.4469  0.3881
  168MOL0     C22601   8.903   7.227   1.376 -0.9977 -0.0780 -0.2363
  168MOL0     C22602   8.796   7.265   1.461  0.1042  0.3951 -0.1003
  168MOL0     O22603   8.663   7.238   1.446 -0.8139  0.2612  0.1928
  168MOL0     C22604   8.615   7.172   1.330  0.3089  0.2582 -0.5754
  168MOL0     C22605   8.488   7.243   1.269 -0.3575 -0.2819 -0.2361
  168MOL0     C22606   8.528   7.383   1.221 -0.2480 -0.6479  0.1947
  168MOL0     C22607   8.406   7.463   1.170  0.9608  0.5297  0.1945
  168MOL0     C22608   8.450   7.566   1.086 -0.2486  0.5245  0.2265
  168MOL0     C22609   8.468   7.657   1.011 -0.0207 -0.1398 -0.4042
  168MOL0     C22610   8.832   7.334   1.574 -0.0862 -0.0213 -0.2497
  168MOL0     C22611   8.961   7.384   1.597 -0.0682  0.3903  0.2173
  168MOL0     C22612   8.967   7.466   1.719 -1.2864 -0.3965 -0.9541
  168MOL0     H22613   9.480   7.305   1.537 -1.0065  1.0781  1.0242
  168MOL0     H22614   9.709   7.365   1.517 -0.3843  1.5873  0.1600
  168MOL0     H22615   9.809   7.696   1.220  1.7678 -2.3253 -1.2121
  168MOL0     H22616   9.844   7.746   1.401  2.3948  0.1956  0.9528
  168MOL0     H22617  10.057   7.652   1.378  2.2760  3.1390 -1.6532
  168MOL0     H22618  10.032   7.768   1.249 -1.2883 -0.9208 -2.2914
  168MOL0     H22619   9.964   7.581   1.095  2.9318  0.7801 -2.3004
  168MOL0     H22620   9.999   7.457   1.222 -2.5142 -1.1276 -1.9597
  168MOL0     H22621  10.222   7.634   1.096  0.5703 -1.6497 -1.3769
  168MOL0     H22622  10.224   7.519   1.222  2.0075  1.4871 -0.4680
  168MOL0     H22623  10.094   7.368   1.018  0.2508 -0.3859 -5.4863
  168MOL0     H22624  10.150   7.506   0.930  1.6434 -0.5709 -0.8300
  168MOL0     H22625  10.384   7.455   0.984  2.6229 -3.4241  0.7044
  168MOL0     H22626  10.338   7.329   1.089  4.8638  0.9834 -1.5637
  168MOL0     H22627  10.237   7.196   0.898  1.0183 -0.8602  3.8932
  168MOL0     H22628  10.406   7.230   0.879 -0.3056 -0.0340  1.0148
  168MOL0     H22629  10.254   7.251   0.682 -0.4499 -0.1364 -0.1291
  168MOL0     H22630  10.169   7.383   0.757  0.7746  1.2317 -1.5819
  168MOL0     H22631  10.515   7.320   0.582  0.6082 -1.4399  2.8389
  168MOL0     H22632  10.609   7.670   0.466 -0.7344 -0.7698 -2.6735
  168MOL0     H22633  10.729   7.559   0.531 -1.7230 -0.4784  2.6360
  168MOL0     H22634  10.652   7.376   0.386 -0.8499 -1.1697 -0.1288
  168MOL0     H22635  10.528   7.475   0.325  0.3270  0.8754  0.4175
  168MOL0     H22636  10.693   7.635   0.230  1.8628  0.1129  0.7896
  168MOL0     H22637  10.691   7.467   0.160 -2.6402 -0.3543  1.2058
  168MOL0     H22638  10.896   7.421   0.213  1.4503 -0.4740  0.8828
  168MOL0     H22639  10.906   7.527   0.360  2.8793  1.5541 -0.8609
  168MOL0     H22640  11.081   7.837   0.153 -1.5451 -0.8936  0.6823
  168MOL0     H22641  11.318   7.871   0.179  1.0900 -0.4968  1.2952
  168MOL0     H22642  11.791   7.728   0.102  0.2016  1.3633  0.5988
  168MOL0     H22643  12.047   7.755   0.193  0.1909  0.3705 -0.7827
  168MOL0     H22644  12.133   7.582   0.593 -0.5011 -0.1501 -0.7834
  168MOL0     H22645  12.196   7.475   0.467 -1.5508  0.4770 -0.3974
  168MOL0     H22646  12.332   7.729   0.576 -4.1748  0.1784  0.4593
  168MOL0     H22647  12.350   7.580   0.656 -3.1121  1.9819  0.5690
  168MOL0     H22648  12.550   7.592   0.518 -0.1949 -0.8190 -0.5087
  168MOL0     H22649  12.443   7.473   0.448  3.5712 -0.5373 -1.7326
  168MOL0     H22650  12.429   7.748   0.337  0.1125  1.0511 -3.2666
  168MOL0     H22651  12.373   7.591   0.271  2.3306 -3.5311 -0.5174
  168MOL0     H22652  12.656   7.672   0.333  1.2251  0.3828 -1.3753
  168MOL0     H22653  12.592   7.696   0.174  3.4756 -2.9155 -1.5678
  168MOL0     H22654  12.654   7.433   0.322  0.0412  0.3832  0.2906
  168MOL0     H22655  12.532   7.420   0.206 -0.8894  0.7388  1.2760
  168MOL0     H22656  12.668   7.512   0.030 -1.7853 -1.7990  0.2642
  168MOL0     H22657  12.753   7.366   0.104  0.2593 -0.0449 -1.1081
  168MOL0     H22658  12.889   7.543   0.024 -1.4441  0.9568 -0.9650
  168MOL0     H22659  12.841   7.645   0.166  1.3785  0.6788 -1.7993
  168MOL0     H22660  11.929   7.544   0.547 -2.9901  0.3054  1.6043
  168MOL0     H22661  11.689   7.532   0.469 -0.2825  0.7620  0.0778
  168MOL0     H22662  11.365   7.453   0.220  0.4553 -0.1026  1.6818
  168MOL0     H22663  11.124   7.413   0.193  0.5869 -1.2501  5.7916
  168MOL0     H22664   9.610   7.645   1.212  0.5481  0.0482  0.0389
  168MOL0     H22665   9.358   7.581   1.242 -0.4120 -0.1789  0.4135
  168MOL0     H22666   9.110   7.245   1.327  1.6237  2.9143  0.9787
  168MOL0     H22667   8.875   7.177   1.284 -1.2484 -1.1699  0.4161
  168MOL0     H22668   8.595   7.068   1.358  0.9603  0.6411  1.5245
  168MOL0     H22669   8.686   7.169   1.247 -0.3861 -1.9924 -1.1538
  168MOL0     H22670   8.410   7.244   1.345  0.8960  0.3360  1.1031
  168MOL0     H22671   8.464   7.178   1.185  0.3769  0.4324 -1.0191
  168MOL0     H22672   8.600   7.384   1.139 -1.0037 -0.7498 -0.4783
  168MOL0     H22673   8.570   7.435   1.308  3.6179 -0.7870 -1.3947
  168MOL0     H22674   8.335   7.401   1.113  1.1942  0.7428 -0.3331
  168MOL0     H22675   8.352   7.504   1.256 -0.1035  1.2827 -0.7841
  168MOL0     H22676   8.478   7.730   0.934  2.6290  0.0014 -0.0096
  168MOL0     H22677   8.761   7.363   1.652  1.8895 -1.6408  2.3323
  168MOL0     H22678   8.898   7.432   1.798 -0.2325  1.8291  1.0815
  168MOL0     H22679   9.067   7.469   1.763 -1.3486 -1.4258 -0.7127
  168MOL0     H22680   8.937   7.568   1.693 -0.5396  0.6174  1.7543
  169MOL0     O22681   0.207   3.985   2.713  0.6591  0.2803  0.7162
  169MOL0     C22682   0.213   4.044   2.608  0.1907 -0.6197 -0.2064
  169MOL0     O22683   0.332   4.065   2.541  0.1116 -0.1063  0.7877
  169MOL0     C22684   0.456   4.046   2.593 -0.6061 -0.2558  0.0494
  169MOL0     C22685   0.484   4.029   2.734 -0.1845 -0.7859 -0.0092
  169MOL0     C22686   0.620   4.045   2.771  0.8615  0.2939  0.1909
  169MOL0     C22687   0.727   4.059   2.683  0.4639  0.4129  0.8713
  169MOL0     O22688   0.852   4.061   2.727  0.4595 -0.8423 -0.3749
  169MOL0     C22689   0.948   3.993   2.648 -0.4696 -0.0924 -0.8565
  169MOL0     C22690   1.076   4.001   2.733 -0.1548 -0.2705 -0.5476
  169MOL0     C22691   1.193   3.951   2.660 -0.2695 -0.6373 -0.4374
  169MOL0     C22692   1.325   3.971   2.731  0.1156  0.4788 -0.2889
  169MOL0     C22693   1.438   3.915   2.648 -1.3272  0.5806 -1.4653
  169MOL0     C22694   1.448   3.758   2.633  0.2047 -0.7097  0.1335
  169MOL0     C22695   1.462   3.691   2.766  0.4586  0.1195 -0.0546
  169MOL0     C22696   1.585   3.733   2.844 -0.2068 -0.3208 -0.4305
  169MOL0     N22697   1.705   3.665   2.796 -0.2589 -0.2956 -0.4768
  169MOL0     C22698   1.805   3.735   2.719  0.5109  0.1966 -0.0698
  169MOL0     C22699   1.896   3.647   2.700 -0.6284  0.7689 -0.2960
  169MOL0     C22700   2.011   3.660   2.599 -0.0146 -0.1159  0.2138
  169MOL0     C22701   2.144   3.715   2.646 -0.4398  0.6825 -0.0436
  169MOL0     C22702   2.231   3.724   2.514 -0.2292 -0.0191  0.0535
  169MOL0     C22703   2.360   3.785   2.536 -0.3161  0.1029  0.1683
  169MOL0     O22704   2.446   3.692   2.592  0.0283  0.4038 -0.8893
  169MOL0     C22705   2.574   3.725   2.638 -0.0028 -0.4922  0.8841
  169MOL0     C22706   2.650   3.843   2.606 -0.3782  0.2318 -0.0104
  169MOL0     C22707   2.787   3.852   2.636  0.2019 -0.2527 -0.6185
  169MOL0     C22708   2.856   3.744   2.695  0.4602  0.3527 -0.0878
  169MOL0     C22709   3.001   3.739   2.736 -0.0879  0.2371  0.3242
  169MOL0     O22710   3.049   3.636   2.803  0.6093 -0.1850 -0.6176
  169MOL0     C22711   3.184   3.627   2.836  1.0549  0.2159 -0.1016
  169MOL0     C22712   3.242   3.499   2.803  0.0012 -0.2219 -0.5045
  169MOL0     C22713   3.373   3.470   2.840  0.2175  0.0921 -0.0395
  169MOL0     C22714   3.448   3.568   2.911  0.2852 -0.0730  0.8885
  169MOL0     O22715   3.573   3.536   2.945 -0.2267 -0.0635  0.4877
  169MOL0     C22716   3.604   3.545   3.086 -1.4199  0.3539 -0.2121
  169MOL0     C22717   3.692   3.670   3.097  0.3774  0.2734 -0.2784
  169MOL0     C22718   3.848   3.647   3.096  0.1185  1.1637  0.2740
  169MOL0     C22719   3.939   3.770   3.093 -0.4485 -0.0399 -0.2100
  169MOL0     C22720   4.073   3.742   3.169  0.3127  0.0699  0.0738
  169MOL0     C22721   4.168   3.866   3.144 -0.5386 -0.6140 -0.5451
  169MOL0     C22722   4.309   3.844   3.219  0.3863 -0.4797 -0.3301
  169MOL0     C22723   4.297   3.850   3.372 -0.0251 -0.7906  0.3273
  169MOL0    Cl22724   4.454   3.885   3.458  0.0084 -0.0605  0.3077
  169MOL0     C22725   3.384   3.690   2.940 -0.0657 -0.1456  0.1129
  169MOL0     C22726   3.256   3.721   2.907 -0.0701  0.3045 -0.1208
  169MOL0     O22727   3.068   3.842   2.707 -0.6427  0.3363 -0.3398
  169MOL0     C22728   2.778   3.628   2.729  0.2755 -0.2966  0.0061
  169MOL0     C22729   2.644   3.627   2.709  0.5430  0.2007 -0.4915
  169MOL0     N22730   1.861   3.522   2.756 -0.3544  0.2352  0.5347
  169MOL0     N22731   1.743   3.534   2.810 -0.3444  0.1157  0.2830
  169MOL0     C22732   0.695   4.080   2.546  0.4757 -0.0240  0.1728
  169MOL0     C22733   0.568   4.067   2.497 -0.0861 -0.4822  0.0769
  169MOL0     C22734   0.092   4.106   2.541 -0.2654  0.0860 -0.1549
  169MOL0     C22735   0.122   4.178   2.423  0.5773 -0.8226  0.7423
  169MOL0     C22736   0.021   4.229   2.341 -0.3202 -0.5888  0.2158
  169MOL0     C22737  -0.112   4.208   2.378  0.3917  0.7527 -0.3618
  169MOL0     O22738  -0.213   4.236   2.297 -0.0018  0.4930  0.1363
  169MOL0     C22739  -0.242   4.374   2.289 -0.4201  0.0648 -0.3402
  169MOL0     C22740  -0.350   4.407   2.179  0.0963 -0.3519  0.4142
  169MOL0     C22741  -0.489   4.371   2.216  0.1085 -0.4249 -0.1451
  169MOL0     C22742  -0.577   4.393   2.093  0.3290  1.1203  0.5623
  169MOL0     C22743  -0.722   4.388   2.121 -0.6636  0.4197 -0.3987
  169MOL0     C22744  -0.843   4.384   2.148  0.0148  0.0363  0.3351
  169MOL0     C22745  -0.143   4.141   2.498  0.2130  0.2029 -0.9122
  169MOL0     C22746  -0.042   4.099   2.592  0.0137 -0.3051  1.1738
  169MOL0     C22747  -0.088   4.044   2.721 -0.0981 -0.4537 -0.3012
  169MOL0     H22748   0.403   4.030   2.807 -1.3843 -0.0047 -1.2936
  169MOL0     H22749   0.634   4.035   2.878  0.9451 -1.7399  0.0322
  169MOL0     H22750   0.923   3.887   2.637  1.9522 -0.6600 -1.4883
  169MOL0     H22751   0.953   4.043   2.551 -2.6704 -2.3782 -2.2741
  169MOL0     H22752   1.072   3.952   2.830 -0.7312 -0.2226 -0.5374
  169MOL0     H22753   1.112   4.098   2.768  1.6253 -1.6599  1.6894
  169MOL0     H22754   1.204   3.993   2.560  0.2826  1.0163  0.2828
  169MOL0     H22755   1.166   3.851   2.626 -0.8809 -0.7315  0.2935
  169MOL0     H22756   1.347   4.074   2.759 -0.6599 -0.1040  2.8549
  169MOL0     H22757   1.323   3.922   2.829  1.3210 -1.3578 -1.1100
  169MOL0     H22758   1.441   3.956   2.546 -0.2279 -1.6989 -2.4165
  169MOL0     H22759   1.519   3.963   2.702 -1.6567 -1.1433  0.6860
  169MOL0     H22760   1.354   3.723   2.589  1.3454  1.0397 -4.2611
  169MOL0     H22761   1.527   3.723   2.567  0.0722 -4.7076  1.8113
  169MOL0     H22762   1.460   3.581   2.765 -1.1750  0.1031 -2.7055
  169MOL0     H22763   1.374   3.721   2.823  0.0659 -2.7429  1.0229
  169MOL0     H22764   1.603   3.840   2.849 -0.3021 -0.3515  0.8502
  169MOL0     H22765   1.565   3.698   2.946 -0.8849  1.2162 -0.0055
  169MOL0     H22766   1.806   3.841   2.695 -0.1619  0.3438  0.5228
  169MOL0     H22767   2.024   3.566   2.545 -0.0203  0.8106 -1.4535
  169MOL0     H22768   1.969   3.726   2.523 -1.9116 -0.6283  0.7624
  169MOL0     H22769   2.134   3.818   2.682 -1.1940  1.6561 -2.7677
  169MOL0     H22770   2.185   3.658   2.730 -2.1866 -0.3387  0.1589
  169MOL0     H22771   2.186   3.798   2.447  2.3842  3.6598  2.0489
  169MOL0     H22772   2.243   3.626   2.467 -0.9997 -0.7342  1.3143
  169MOL0     H22773   2.353   3.876   2.596  3.0509  0.5421  0.0583
  169MOL0     H22774   2.398   3.807   2.436 -0.4994 -0.6027 -0.0601
  169MOL0     H22775   2.600   3.926   2.556 -2.0137 -0.5945  0.1902
  169MOL0     H22776   2.850   3.936   2.611 -1.8493  1.5192 -0.1039
  169MOL0     H22777   3.178   3.425   2.757 -0.1986 -0.8187  0.6745
  169MOL0     H22778   3.416   3.371   2.832 -0.9666 -0.4140 -0.4708
  169MOL0     H22779   3.519   3.551   3.155 -1.1211  1.6648  0.0624
  169MOL0     H22780   3.669   3.459   3.107 -1.2044 -0.1955 -2.8117
  169MOL0     H22781   3.666   3.745   3.023 -1.9066  0.1384  0.3259
  169MOL0     H22782   3.666   3.714   3.194 -0.3768 -0.9159  0.0749
  169MOL0     H22783   3.860   3.599   3.194  1.4020  2.8225  0.9691
  169MOL0     H22784   3.873   3.581   3.012  1.7817  2.3774 -0.2284
  169MOL0     H22785   3.888   3.850   3.147 -1.3599  0.2980 -1.5118
  169MOL0     H22786   3.965   3.808   2.994  2.3338  0.7563  0.7358
  169MOL0     H22787   4.124   3.653   3.131  0.5499 -1.6703  3.9555
  169MOL0     H22788   4.052   3.728   3.275 -1.1680 -0.8776 -0.3246
  169MOL0     H22789   4.174   3.872   3.035  0.4347  0.2941 -0.4540
  169MOL0     H22790   4.112   3.951   3.186 -1.9469 -1.5543 -0.4707
  169MOL0     H22791   4.377   3.921   3.181 -0.7878  0.0637 -1.4075
  169MOL0     H22792   4.351   3.744   3.206  1.2073 -0.4183  1.4572
  169MOL0     H22793   4.238   3.939   3.394  0.9576 -0.4749  1.8038
  169MOL0     H22794   4.243   3.766   3.416 -1.2437 -0.6034 -0.7457
  169MOL0     H22795   3.437   3.764   2.998  2.9212 -1.1490 -1.1511
  169MOL0     H22796   3.199   3.813   2.922 -0.2231  0.2800 -0.5337
  169MOL0     H22797   2.822   3.543   2.780  0.7946  0.8120  1.4784
  169MOL0     H22798   2.574   3.551   2.743  0.0411 -1.2702 -4.2740
  169MOL0     H22799   0.772   4.111   2.476  1.8335  1.6062  2.2675
  169MOL0     H22800   0.536   4.079   2.395 -1.6285  3.4914  0.8720
  169MOL0     H22801   0.221   4.199   2.383  0.4816 -0.0372  0.8844
  169MOL0     H22802   0.046   4.265   2.242 -0.2758 -2.7625 -0.6321
  169MOL0     H22803  -0.153   4.430   2.262 -1.9033  1.0606 -3.6653
  169MOL0     H22804  -0.281   4.407   2.386  0.6984  0.4115  0.0019
  169MOL0     H22805  -0.334   4.354   2.085  0.6760 -0.7936  0.7503
  169MOL0     H22806  -0.355   4.514   2.162  0.0343 -0.4768 -0.3800
  169MOL0     H22807  -0.536   4.415   2.305  0.7527 -0.8298  0.4104
  169MOL0     H22808  -0.485   4.267   2.251 -1.9849 -0.5455 -0.1172
  169MOL0     H22809  -0.558   4.490   2.045  0.5600  0.7791 -0.0550
  169MOL0     H22810  -0.550   4.310   2.026  0.5764  1.9002 -0.3286
  169MOL0     H22811  -0.943   4.405   2.181  0.5613  2.0507  0.8402
  169MOL0     H22812  -0.246   4.123   2.527  0.2366  0.4828 -0.6473
  169MOL0     H22813  -0.048   4.117   2.792  1.5538 -1.1316 -0.4755
  169MOL0     H22814  -0.196   4.044   2.737  0.3727 -0.0138  4.1769
  169MOL0     H22815  -0.035   3.950   2.737  0.4024  0.1063  1.4805
  170MOL0     O22816  10.132   3.663   7.836 -0.1685 -0.8399 -0.1952
  170MOL0     C22817  10.012   3.648   7.811 -0.3354  1.5760  0.0849
  170MOL0     O22818   9.979   3.549   7.717  0.4781  0.1093  0.2938
  170MOL0     C22819  10.076   3.496   7.631  0.2307 -1.0857 -0.2400
  170MOL0     C22820  10.165   3.571   7.559 -0.0050 -0.0458 -0.1435
  170MOL0     C22821  10.264   3.502   7.486  0.3300 -0.5844  0.2120
  170MOL0     C22822  10.248   3.370   7.453  0.3101  0.5476 -0.7375
  170MOL0     O22823  10.313   3.294   7.361 -0.6614 -0.2951  0.2091
  170MOL0     C22824  10.448   3.259   7.402  0.1229 -0.5231  0.1511
  170MOL0     C22825  10.525   3.208   7.272  0.5384 -0.2002 -0.2016
  170MOL0     C22826  10.667   3.151   7.275 -0.5933 -0.3451  0.4749
  170MOL0     C22827  10.770   3.256   7.330 -0.4521 -0.5332 -0.7316
  170MOL0     C22828  10.913   3.195   7.346  0.3947 -0.5003  0.4413
  170MOL0     C22829  11.012   3.301   7.381  0.1947 -0.5660  0.4584
  170MOL0     C22830  11.148   3.235   7.380 -0.2377 -0.8191 -0.4410
  170MOL0     C22831  11.253   3.330   7.442 -0.5146 -0.4557  0.2962
  170MOL0     N22832  11.384   3.267   7.446 -0.1472  0.6810  0.1969
  170MOL0     C22833  11.439   3.228   7.567 -0.1805  0.1519  0.5830
  170MOL0     C22834  11.564   3.196   7.522  0.1508  0.4188 -0.3322
  170MOL0     C22835  11.671   3.131   7.592 -0.2384  0.3933 -0.5403
  170MOL0     C22836  11.767   3.241   7.645  0.6961  0.0951 -0.2050
  170MOL0     C22837  11.869   3.181   7.746  0.3361  0.0295  0.0716
  170MOL0     C22838  11.968   3.282   7.807  0.3085 -0.2208 -0.5747
  170MOL0     O22839  12.063   3.217   7.885  0.0930 -0.1766 -0.6551
  170MOL0     C22840  12.182   3.181   7.830  0.1300  0.5706 -1.1128
  170MOL0     C22841  12.230   3.054   7.851 -0.2359 -0.3200  0.0114
  170MOL0     C22842  12.348   3.009   7.782 -0.0000  0.6489 -0.6044
  170MOL0     C22843  12.418   3.104   7.708 -0.4040  0.0018 -0.1944
  170MOL0     C22844  12.543   3.071   7.642 -0.1452  0.5673  1.1464
  170MOL0     O22845  12.622   2.974   7.701 -0.1012 -0.2803  0.7963
  170MOL0     C22846  12.738   2.928   7.645 -0.3920 -0.3955 -0.2271
  170MOL0     C22847  12.759   2.797   7.683  0.1388 -1.2080  0.5069
  170MOL0     C22848  12.868   2.724   7.636 -0.3510 -0.0468  1.0172
  170MOL0     C22849  12.967   2.782   7.556 -0.2074 -0.1059  0.3516
  170MOL0     O22850  13.075   2.699   7.529  0.0835  0.1256 -0.3682
  170MOL0     C22851  13.159   2.737   7.414 -0.2133  0.2817  0.6756
  170MOL0     C22852  13.269   2.618   7.417 -0.2167  0.5545 -0.3367
  170MOL0     C22853  13.388   2.660   7.335  0.1682 -0.2093 -0.2986
  170MOL0     C22854  13.486   2.553   7.316 -0.4381 -0.1051 -1.0050
  170MOL0     C22855  13.565   2.569   7.186  0.7101 -0.0869 -0.3532
  170MOL0     C22856  13.690   2.472   7.180  0.4128 -0.8277  0.3550
  170MOL0     C22857  13.757   2.460   7.039  0.1776  0.5296  0.0005
  170MOL0     C22858  13.814   2.596   6.985  0.4214 -0.4709 -0.0271
  170MOL0    Cl22859  13.900   2.569   6.830 -0.0522 -0.1777  0.2982
  170MOL0     C22860  12.945   2.921   7.512 -0.2215  0.1697  0.6897
  170MOL0     C22861  12.831   2.992   7.560 -0.5893  0.2270  0.4064
  170MOL0     O22862  12.565   3.127   7.531 -0.4043 -0.9047  0.2834
  170MOL0     C22863  12.370   3.237   7.698  0.3607  0.0698 -0.8435
  170MOL0     C22864  12.255   3.281   7.765 -0.1176  0.7421 -0.2596
  170MOL0     N22865  11.580   3.231   7.389  0.0635 -0.1064  0.0431
  170MOL0     N22866  11.467   3.264   7.338 -0.2898  0.3554  0.6112
  170MOL0     C22867  10.136   3.301   7.512  0.7836  0.7320  0.6375
  170MOL0     C22868  10.059   3.367   7.612  0.3711 -0.0302 -0.7185
  170MOL0     C22869   9.905   3.705   7.889  0.2110  0.0196  0.6541
  170MOL0     C22870   9.946   3.738   8.019 -0.2273 -0.4175  0.1440
  170MOL0     C22871   9.852   3.797   8.112 -0.1935  0.5140  0.9480
  170MOL0     C22872   9.728   3.848   8.076 -1.1991 -0.1189 -0.3284
  170MOL0     O22873   9.635   3.901   8.164 -0.2805  0.0783  0.1041
  170MOL0     C22874   9.662   3.894   8.306 -0.6112 -0.0925 -0.1026
  170MOL0     C22875   9.648   3.744   8.347 -0.1625 -0.2775 -0.7695
  170MOL0     C22876   9.507   3.691   8.374  0.1457 -0.3247 -0.8517
  170MOL0     C22877   9.464   3.708   8.521 -0.6690 -0.4656 -0.2003
  170MOL0     C22878   9.319   3.695   8.545 -0.7567 -0.3321  0.6325
  170MOL0     C22879   9.201   3.698   8.558  0.9686  0.1914  0.0469
  170MOL0     C22880   9.692   3.826   7.941 -0.1965  0.0719  0.3739
  170MOL0     C22881   9.772   3.742   7.855  0.8126 -0.4767  0.3720
  170MOL0     C22882   9.706   3.712   7.718 -0.2637  0.0919 -0.1217
  170MOL0     H22883  10.170   3.678   7.573  3.2381 -0.2129  0.8664
  170MOL0     H22884  10.348   3.557   7.446  1.6879 -1.0161  2.3373
  170MOL0     H22885  10.497   3.341   7.456  1.1033 -0.9738 -0.0263
  170MOL0     H22886  10.449   3.170   7.467 -0.3679  0.0749  1.0036
  170MOL0     H22887  10.537   3.295   7.207  0.4454  0.1151  0.1949
  170MOL0     H22888  10.462   3.130   7.228  0.5895 -2.2183  2.9729
  170MOL0     H22889  10.692   3.142   7.169 -1.9165  0.2030  0.0933
  170MOL0     H22890  10.667   3.056   7.328  0.0346 -0.3974  0.3895
  170MOL0     H22891  10.785   3.346   7.269  1.9244  0.1090  0.6423
  170MOL0     H22892  10.732   3.287   7.428  1.9161  0.3990 -0.0312
  170MOL0     H22893  10.895   3.119   7.422 -0.5997  1.3430  2.1326
  170MOL0     H22894  10.939   3.149   7.250 -1.0903 -1.0569  0.2915
  170MOL0     H22895  11.004   3.386   7.313 -1.0084 -0.1580  1.0865
  170MOL0     H22896  10.985   3.334   7.482  0.3294  0.4415  0.1792
  170MOL0     H22897  11.181   3.225   7.277 -1.9351 -1.0074 -0.9974
  170MOL0     H22898  11.156   3.144   7.441  1.9399 -0.1112  0.4246
  170MOL0     H22899  11.274   3.412   7.372 -1.5888 -1.8945 -1.8155
  170MOL0     H22900  11.230   3.377   7.538  4.2034  3.0202  0.1078
  170MOL0     H22901  11.403   3.219   7.669 -2.1413  0.7417 -0.0173
  170MOL0     H22902  11.633   3.078   7.679 -1.8710 -0.8520 -1.9543
  170MOL0     H22903  11.723   3.067   7.520 -1.2536 -0.1559 -0.7955
  170MOL0     H22904  11.825   3.282   7.563 -0.2164  1.7845 -0.0371
  170MOL0     H22905  11.707   3.321   7.688 -1.1105 -0.6167 -1.2673
  170MOL0     H22906  11.932   3.110   7.692 -0.7952 -2.1924  1.5337
  170MOL0     H22907  11.824   3.142   7.838  2.6839  0.0466  1.3004
  170MOL0     H22908  11.907   3.346   7.871 -2.3009 -1.1267 -2.0063
  170MOL0     H22909  12.012   3.352   7.734  1.1328 -1.1082 -0.9479
  170MOL0     H22910  12.177   2.986   7.916  0.8061 -0.1634  1.0601
  170MOL0     H22911  12.380   2.906   7.783 -0.7224  0.4040  1.7780
  170MOL0     H22912  12.692   2.748   7.753  0.9729 -1.6322  1.0202
  170MOL0     H22913  12.876   2.616   7.647 -0.7261 -0.1985 -0.0520
  170MOL0     H22914  13.107   2.736   7.318 -1.7274  1.7383  1.4338
  170MOL0     H22915  13.199   2.838   7.426  0.1162  0.0870  1.2095
  170MOL0     H22916  13.313   2.598   7.515  0.5280 -1.1417 -0.9922
  170MOL0     H22917  13.229   2.527   7.373 -0.0169  1.1737 -1.8875
  170MOL0     H22918  13.352   2.701   7.240 -1.0850 -0.8903 -0.1412
  170MOL0     H22919  13.443   2.741   7.383  0.9260 -0.1779 -1.1904
  170MOL0     H22920  13.442   2.455   7.300  0.5534 -0.6963 -0.1947
  170MOL0     H22921  13.557   2.543   7.399 -0.3959 -0.6462 -1.1081
  170MOL0     H22922  13.595   2.674   7.184  1.7576 -0.3804 -1.2030
  170MOL0     H22923  13.500   2.561   7.099  0.3847  1.1957 -0.2478
  170MOL0     H22924  13.765   2.511   7.249 -1.2339 -1.0225  2.3424
  170MOL0     H22925  13.655   2.375   7.216 -1.3023  0.0892  1.2574
  170MOL0     H22926  13.684   2.426   6.965  1.4495  0.3614 -1.2034
  170MOL0     H22927  13.839   2.388   7.046  1.6931  2.2277  0.4344
  170MOL0     H22928  13.731   2.665   6.968 -1.3701 -2.3131  0.8180
  170MOL0     H22929  13.878   2.648   7.057 -0.5353 -1.5079  1.6426
  170MOL0     H22930  13.027   2.970   7.460  1.6315 -0.9548  2.4294
  170MOL0     H22931  12.818   3.097   7.535 -1.2276  0.2503  0.8050
  170MOL0     H22932  12.418   3.314   7.637  0.0230 -1.2070 -2.8252
  170MOL0     H22933  12.235   3.387   7.765 -0.3683  0.6984 -1.0783
  170MOL0     H22934  10.110   3.197   7.494  1.1310  0.2766  2.5438
  170MOL0     H22935   9.991   3.301   7.665  1.8999 -1.6837 -0.7144
  170MOL0     H22936  10.044   3.705   8.053 -0.2120  0.1058  0.6439
  170MOL0     H22937   9.871   3.805   8.219 -1.1307  0.5587  1.1166
  170MOL0     H22938   9.589   3.956   8.358 -2.6018 -0.5291 -2.1556
  170MOL0     H22939   9.764   3.924   8.328  0.0166  0.1007 -2.9171
  170MOL0     H22940   9.705   3.732   8.440 -0.3407  2.4042 -0.2281
  170MOL0     H22941   9.681   3.685   8.261  3.1731  0.4686 -0.1499
  170MOL0     H22942   9.498   3.583   8.364 -3.3196 -0.2961  0.4786
  170MOL0     H22943   9.435   3.752   8.318  2.1691  0.6252 -2.5737
  170MOL0     H22944   9.514   3.621   8.565  1.4031 -1.1301 -3.4906
  170MOL0     H22945   9.507   3.794   8.574  2.9898 -2.3304  0.1662
  170MOL0     H22946   9.094   3.691   8.565  1.0837  0.0731  2.4454
  170MOL0     H22947   9.593   3.859   7.909  0.4983  2.0192  0.0916
  170MOL0     H22948   9.778   3.691   7.639 -2.3188  0.8365 -2.3264
  170MOL0     H22949   9.627   3.636   7.725 -1.8256  1.7619  2.5375
  170MOL0     H22950   9.654   3.800   7.677  1.0613  0.1585 -1.7731
  171MOL0     O22951  10.630   4.837   0.444  0.6726  0.0160  0.8050
  171MOL0     C22952  10.600   4.834   0.324  0.0820 -0.8835 -0.1010
  171MOL0     O22953  10.685   4.784   0.226  0.0646  0.2064 -0.5567
  171MOL0     C22954  10.814   4.772   0.259 -0.9661  0.1198 -0.0476
  171MOL0     C22955  10.869   4.648   0.285  0.2207 -0.2221  0.0971
  171MOL0     C22956  11.001   4.625   0.325  0.3800 -0.2903 -0.2844
  171MOL0     C22957  11.089   4.736   0.313 -0.6637 -0.9191  0.7270
  171MOL0     O22958  11.223   4.737   0.330  0.6413 -0.1254 -0.1533
  171MOL0     C22959  11.286   4.611   0.372  0.0884 -0.3083 -0.2442
  171MOL0     C22960  11.442   4.638   0.379  0.1592 -0.4021  0.5375
  171MOL0     C22961  11.520   4.531   0.449  0.7402 -0.3118  0.2042
  171MOL0     C22962  11.496   4.393   0.396 -0.2163 -0.1757 -0.0957
  171MOL0     C22963  11.539   4.280   0.493 -0.0282 -0.0335 -0.2839
  171MOL0     C22964  11.494   4.141   0.436 -0.2098 -0.3527 -0.8765
  171MOL0     C22965  11.520   4.040   0.553  0.2244  0.1113 -0.1669
  171MOL0     C22966  11.433   3.914   0.533 -0.1164 -0.7057 -0.4080
  171MOL0     N22967  11.449   3.845   0.398  0.3095  0.1651  0.6954
  171MOL0     C22968  11.369   3.853   0.290 -0.6309 -0.3902  0.9674
  171MOL0     C22969  11.412   3.761   0.194  0.4683  0.0444 -0.1956
  171MOL0     C22970  11.339   3.715   0.076 -0.2766  0.2911 -0.0565
  171MOL0     C22971  11.428   3.690  -0.047 -0.0939 -0.3098 -0.3544
  171MOL0     C22972  11.455   3.819  -0.111  0.8151 -0.4688 -0.4816
  171MOL0     C22973  11.490   3.803  -0.254 -0.3854 -0.5084 -0.2566
  171MOL0     O22974  11.629   3.751  -0.247 -0.0707 -0.2132  0.0573
  171MOL0     C22975  11.694   3.729  -0.364 -0.7152 -0.7214 -0.3735
  171MOL0     C22976  11.633   3.707  -0.481 -0.0732  0.1118  0.1261
  171MOL0     C22977  11.713   3.659  -0.595  0.4036 -0.1181 -0.0461
  171MOL0     C22978  11.852   3.660  -0.588 -0.0477 -0.2062  0.0432
  171MOL0     C22979  11.940   3.617  -0.701  0.1863 -0.6910 -0.1861
  171MOL0     O22980  12.072   3.591  -0.669  0.0861  0.7284 -0.3425
  171MOL0     C22981  12.163   3.554  -0.768  0.0023 -0.3784  0.1564
  171MOL0     C22982  12.174   3.418  -0.785  0.7811  0.2032 -0.3750
  171MOL0     C22983  12.253   3.364  -0.884 -1.4774  0.6457  0.2615
  171MOL0     C22984  12.335   3.451  -0.956 -0.2462  0.5239 -0.5104
  171MOL0     O22985  12.426   3.411  -1.045 -0.0690 -0.2014  0.1802
  171MOL0     C22986  12.453   3.271  -1.073 -0.2189 -0.6860 -0.1860
  171MOL0     C22987  12.363   3.209  -1.185  0.0451 -0.1264  0.0604
  171MOL0     C22988  12.390   3.266  -1.324 -0.3863  1.0329 -0.2921
  171MOL0     C22989  12.408   3.157  -1.434  0.5908  0.2874  0.5793
  171MOL0     C22990  12.511   3.058  -1.423  0.2844  0.5751 -1.0273
  171MOL0     C22991  12.657   3.102  -1.367  0.2866 -0.4285  0.0093
  171MOL0     C22992  12.771   2.996  -1.386  0.0772 -0.4002 -0.0266
  171MOL0     C22993  12.831   3.007  -1.523 -1.3014 -0.4099  0.0269
  171MOL0    Cl22994  12.961   2.887  -1.544 -0.1529  0.0662 -0.3270
  171MOL0     C22995  12.338   3.590  -0.928  0.0889  0.0708 -0.4344
  171MOL0     C22996  12.250   3.641  -0.834  0.3430  0.5823 -0.6888
  171MOL0     O22997  11.894   3.621  -0.817  0.5162  0.0412 -0.2491
  171MOL0     C22998  11.904   3.700  -0.461  0.0783 -0.2922 -0.4682
  171MOL0     C22999  11.831   3.722  -0.351  0.3357 -0.7376  0.4069
  171MOL0     N23000  11.520   3.695   0.250 -0.7067  0.3506  0.1107
  171MOL0     N23001  11.542   3.751   0.364 -0.6986  0.1685 -0.4661
  171MOL0     C23002  11.036   4.856   0.281 -0.6423 -1.3545  0.2608
  171MOL0     C23003  10.900   4.879   0.252 -1.3626  0.0893  0.1699
  171MOL0     C23004  10.463   4.891   0.277  0.6137  0.9033 -0.1839
  171MOL0     C23005  10.452   4.931   0.141  0.2700 -0.0593  0.3278
  171MOL0     C23006  10.326   4.956   0.078  0.3865  0.3933  0.0171
  171MOL0     C23007  10.208   4.948   0.156  0.6304  0.3534 -0.2476
  171MOL0     O23008  10.077   4.954   0.109 -0.4148 -0.0205 -0.2010
  171MOL0     C23009  10.053   5.012  -0.022 -0.2051 -0.4227  0.3414
  171MOL0     C23010   9.915   5.058  -0.050 -0.9050 -0.2397  0.5368
  171MOL0     C23011   9.817   4.956   0.006  0.7286  0.5256 -0.2405
  171MOL0     C23012   9.793   4.831  -0.093  0.3539  0.2729 -0.7362
  171MOL0     C23013   9.732   4.859  -0.223  0.6583 -0.6210 -0.3339
  171MOL0     C23014   9.675   4.876  -0.330 -0.3281  0.8512  0.9102
  171MOL0     C23015  10.216   4.904   0.293  0.0749 -0.8870 -0.3413
  171MOL0     C23016  10.339   4.888   0.354  0.2437 -0.1199  0.0565
  171MOL0     C23017  10.334   4.863   0.506 -0.4243  0.7101  0.1073
  171MOL0     H23018  10.796   4.568   0.291 -1.5671  1.4224  0.8228
  171MOL0     H23019  11.039   4.526   0.347 -0.1254 -0.1597  1.3312
  171MOL0     H23020  11.259   4.583   0.474  1.2192 -1.1035 -0.1425
  171MOL0     H23021  11.273   4.525   0.306 -0.2103 -0.5502  0.1335
  171MOL0     H23022  11.452   4.732   0.434 -1.5154 -1.8318  3.5350
  171MOL0     H23023  11.483   4.647   0.278  1.3990 -0.5955  1.0095
  171MOL0     H23024  11.497   4.540   0.556  2.4565 -1.2576  0.6953
  171MOL0     H23025  11.627   4.555   0.441  0.9060 -1.4173 -1.2536
  171MOL0     H23026  11.393   4.373   0.368 -0.3878  1.9846 -1.1722
  171MOL0     H23027  11.555   4.385   0.304  0.9623 -1.1734  0.6991
  171MOL0     H23028  11.646   4.270   0.512 -0.3566 -2.9025  0.6330
  171MOL0     H23029  11.491   4.301   0.589  3.1673 -0.6053  1.5798
  171MOL0     H23030  11.393   4.157   0.397 -0.2727 -0.1874 -0.6483
  171MOL0     H23031  11.555   4.113   0.350  0.3436  0.9066 -0.9184
  171MOL0     H23032  11.485   4.078   0.649 -0.8556 -2.1125  0.3945
  171MOL0     H23033  11.623   4.010   0.574  0.1627 -0.0143 -0.0440
  171MOL0     H23034  11.451   3.847   0.617 -0.9531  0.5528  0.8159
  171MOL0     H23035  11.329   3.943   0.549  0.1017  1.5228 -2.3742
  171MOL0     H23036  11.274   3.906   0.287 -0.3368  0.0995  0.0217
  171MOL0     H23037  11.299   3.618   0.103  0.3082  0.1817  0.4373
  171MOL0     H23038  11.254   3.780   0.055  0.5160  1.8413  1.2813
  171MOL0     H23039  11.523   3.646  -0.016  0.8966  2.1549  0.3091
  171MOL0     H23040  11.376   3.624  -0.118 -0.0108 -0.6235 -0.1263
  171MOL0     H23041  11.537   3.868  -0.057 -1.0914  0.4112  1.7601
  171MOL0     H23042  11.364   3.879  -0.105  0.0019 -1.6611 -0.5923
  171MOL0     H23043  11.479   3.894  -0.314 -4.8220 -2.7181 -3.3591
  171MOL0     H23044  11.418   3.734  -0.299 -2.1913  1.7404 -0.9964
  171MOL0     H23045  11.525   3.704  -0.492  0.1301 -1.9438 -2.0867
  171MOL0     H23046  11.665   3.633  -0.688 -0.6991 -3.6681  1.3695
  171MOL0     H23047  12.126   3.349  -0.717 -0.5189  1.4617  0.0365
  171MOL0     H23048  12.256   3.257  -0.904 -1.5774  0.3074  1.8626
  171MOL0     H23049  12.557   3.258  -1.107 -0.6373 -4.2386 -0.4185
  171MOL0     H23050  12.450   3.213  -0.980 -1.4717  1.1585  1.0104
  171MOL0     H23051  12.385   3.102  -1.182 -1.1042 -0.4259 -1.1489
  171MOL0     H23052  12.257   3.226  -1.164  0.7277  2.9931  1.4584
  171MOL0     H23053  12.309   3.333  -1.352 -0.4690  0.3710 -1.7132
  171MOL0     H23054  12.482   3.324  -1.312 -0.2070  0.3266  2.2705
  171MOL0     H23055  12.426   3.216  -1.525  3.5443  1.3684  1.7354
  171MOL0     H23056  12.312   3.106  -1.449  0.6914  0.2482  0.0320
  171MOL0     H23057  12.522   3.019  -1.525 -0.4028  2.9541 -2.0866
  171MOL0     H23058  12.476   2.976  -1.360  0.1065  1.5714  0.2048
  171MOL0     H23059  12.678   3.198  -1.414  0.3938  0.2933  1.4941
  171MOL0     H23060  12.635   3.120  -1.261  0.6599 -0.4893  0.0959
  171MOL0     H23061  12.718   2.901  -1.372 -1.0910  0.4523  1.8042
  171MOL0     H23062  12.848   3.015  -1.311 -0.5083  3.6859 -0.2238
  171MOL0     H23063  12.753   2.992  -1.599  0.2655 -3.1158 -1.1892
  171MOL0     H23064  12.869   3.110  -1.527 -2.6001  0.2380  2.3425
  171MOL0     H23065  12.393   3.651  -0.998 -0.7033 -1.2217 -2.2664
  171MOL0     H23066  12.243   3.749  -0.825 -1.2052  0.4622 -0.0791
  171MOL0     H23067  12.011   3.701  -0.445 -0.2641 -0.7783  2.2840
  171MOL0     H23068  11.877   3.750  -0.257  1.2317  1.4504 -0.6233
  171MOL0     H23069  11.101   4.942   0.274 -1.0683 -1.0750 -0.4130
  171MOL0     H23070  10.867   4.981   0.237 -0.6739  0.1270 -1.2898
  171MOL0     H23071  10.548   4.927   0.090 -0.1714  2.7075 -0.8725
  171MOL0     H23072  10.320   4.985  -0.026  0.4374  1.6747  0.3589
  171MOL0     H23073  10.071   4.929  -0.091  1.9217 -1.1965  1.7264
  171MOL0     H23074  10.117   5.100  -0.035 -0.1977 -0.1883  1.7749
  171MOL0     H23075   9.907   5.073  -0.158  0.1136 -1.0562  0.3328
  171MOL0     H23076   9.889   5.157  -0.011  0.7491  0.1480  0.7406
  171MOL0     H23077   9.718   5.001   0.018 -0.4389 -1.9370  0.0443
  171MOL0     H23078   9.833   4.929   0.111 -0.3262  1.6413  0.2362
  171MOL0     H23079   9.888   4.778  -0.105 -0.3585 -1.5047  1.0189
  171MOL0     H23080   9.726   4.759  -0.046  0.7387 -0.0101 -0.6183
  171MOL0     H23081   9.629   4.892  -0.426 -0.4079 -2.3366  0.3103
  171MOL0     H23082  10.122   4.906   0.347  1.6613 -2.0775  2.7813
  171MOL0     H23083  10.354   4.757   0.525  0.5969  0.8128 -0.3664
  171MOL0     H23084  10.411   4.916   0.562 -0.8044  0.2033  1.1512
  171MOL0     H23085  10.236   4.875   0.553 -0.4527 -1.2654  0.6806
  172MOL0     O23086   1.208   1.155   7.232 -0.4840 -0.1132 -0.2893
  172MOL0     C23087   1.209   1.124   7.353 -0.1502  0.5239  0.1530
  172MOL0     O23088   1.307   1.169   7.439  0.6415  0.4680  0.3765
  172MOL0     C23089   1.411   1.238   7.389  0.2332 -0.2749 -0.3299
  172MOL0     C23090   1.489   1.189   7.288 -0.4581  0.1402  0.3383
  172MOL0     C23091   1.613   1.254   7.258  1.0195  0.6428  1.0988
  172MOL0     C23092   1.653   1.364   7.329  1.2693  0.7765 -0.5206
  172MOL0     O23093   1.770   1.435   7.296  0.0129  0.4066 -0.6734
  172MOL0     C23094   1.896   1.395   7.363  0.5729 -0.5915 -1.0898
  172MOL0     C23095   1.991   1.394   7.246  0.2970  0.0527 -0.3392
  172MOL0     C23096   2.128   1.318   7.273 -0.2189  0.1222 -0.9826
  172MOL0     C23097   2.224   1.372   7.171 -0.3747 -0.8019 -0.2198
  172MOL0     C23098   2.366   1.306   7.193 -0.8040 -0.3086 -0.1310
  172MOL0     C23099   2.386   1.158   7.157 -0.4937  0.3287 -0.2286
  172MOL0     C23100   2.530   1.130   7.201 -0.0896  0.3334 -0.5166
  172MOL0     C23101   2.573   0.981   7.205 -0.1002  0.8446 -0.3055
  172MOL0     N23102   2.712   0.951   7.196 -0.4865 -0.3287 -0.6321
  172MOL0     C23103   2.792   0.970   7.310 -0.4227 -0.5474  0.2691
  172MOL0     C23104   2.918   0.963   7.266  0.5190 -0.0210 -0.1225
  172MOL0     C23105   3.035   0.999   7.352 -0.2869 -0.5351 -0.0419
  172MOL0     C23106   3.117   0.891   7.434  0.7090 -0.0130  0.8763
  172MOL0     C23107   3.241   0.937   7.503  1.1901  0.0924  0.1794
  172MOL0     C23108   3.225   0.974   7.650 -0.3524  0.3030 -0.1692
  172MOL0     O23109   3.350   1.026   7.698  0.4546 -0.0877 -0.0952
  172MOL0     C23110   3.459   0.944   7.704  0.7839  0.6850  0.0435
  172MOL0     C23111   3.578   1.001   7.734  0.1850 -1.1553  0.2345
  172MOL0     C23112   3.701   0.937   7.767  1.1923  1.2571  0.2020
  172MOL0     C23113   3.697   0.791   7.776  0.0249  0.2552 -0.5952
  172MOL0     C23114   3.816   0.712   7.809  0.6433 -0.2705  0.4344
  172MOL0     O23115   3.804   0.575   7.811  0.0191 -0.4024  0.7436
  172MOL0     C23116   3.914   0.504   7.839  0.5474  0.0693  0.1425
  172MOL0     C23117   4.046   0.524   7.793 -0.0173  0.2681 -0.7038
  172MOL0     C23118   4.149   0.447   7.842  0.0932  0.1101  0.3765
  172MOL0     C23119   4.132   0.342   7.933 -0.2608  0.2881  0.7306
  172MOL0     O23120   4.229   0.253   7.966 -0.5249 -1.1365  0.2476
  172MOL0     C23121   4.372   0.266   7.924  0.1665 -0.3430 -0.5873
  172MOL0     C23122   4.444   0.382   7.993 -0.8074  0.0088  0.1534
  172MOL0     C23123   4.478   0.358   8.137 -0.0033 -0.5809  0.5636
  172MOL0     C23124   4.544   0.482   8.202  0.0218  0.4265  0.3295
  172MOL0     C23125   4.696   0.479   8.174  0.2444  0.4192 -0.0876
  172MOL0     C23126   4.762   0.595   8.251 -0.7105 -0.3227 -0.2825
  172MOL0     C23127   4.736   0.737   8.185  0.2662  0.9103 -0.8860
  172MOL0     C23128   4.830   0.837   8.252  0.4503 -0.0237  0.4992
  172MOL0    Cl23129   4.781   1.010   8.206 -0.1401  0.1247 -0.2028
  172MOL0     C23130   4.002   0.314   7.979 -0.9428  0.4489 -0.8358
  172MOL0     C23131   3.895   0.398   7.933  0.3895  0.0180 -0.0497
  172MOL0     O23132   3.917   0.773   7.821 -0.8102 -0.1842 -0.9701
  172MOL0     C23133   3.571   0.734   7.749  0.1812 -0.4616 -0.0255
  172MOL0     C23134   3.460   0.806   7.709  0.2874 -0.0258 -0.0445
  172MOL0     N23135   2.924   0.926   7.131 -0.7847  0.5517 -0.1551
  172MOL0     N23136   2.802   0.908   7.098 -0.5815 -0.1829 -0.4540
  172MOL0     C23137   1.572   1.409   7.437 -0.3371 -0.0361  1.0487
  172MOL0     C23138   1.456   1.343   7.469 -0.9206 -1.2725  0.1558
  172MOL0     C23139   1.097   1.033   7.405 -0.4567 -0.2473 -0.2764
  172MOL0     C23140   1.111   1.002   7.537 -0.1703  0.1543 -0.1853
  172MOL0     C23141   1.016   0.924   7.608 -0.1278  0.6503  0.2251
  172MOL0     C23142   0.903   0.882   7.540 -0.3809  0.4401 -1.2204
  172MOL0     O23143   0.807   0.812   7.608 -0.0751 -0.0489 -0.7841
  172MOL0     C23144   0.689   0.761   7.549 -0.2759 -0.1822 -0.2272
  172MOL0     C23145   0.615   0.684   7.655  0.4812  0.0160 -0.3612
  172MOL0     C23146   0.589   0.764   7.785  0.1463  0.2429 -0.4835
  172MOL0     C23147   0.453   0.843   7.779  0.4858  0.2539  0.3541
  172MOL0     C23148   0.347   0.761   7.836 -0.8288 -0.5690 -0.1328
  172MOL0     C23149   0.270   0.691   7.896 -0.5071 -0.1335 -0.4604
  172MOL0     C23150   0.886   0.917   7.408 -0.4719  0.5196  0.1875
  172MOL0     C23151   0.982   0.989   7.340  0.0300  0.8655 -0.5759
  172MOL0     C23152   0.959   0.996   7.194  0.2845  0.3462 -0.0973
  172MOL0     H23153   1.448   1.110   7.226 -0.3707  0.8831 -0.6939
  172MOL0     H23154   1.670   1.234   7.168  0.5953  0.8682  0.7819
  172MOL0     H23155   1.925   1.465   7.442  1.3552 -0.2739 -1.6508
  172MOL0     H23156   1.879   1.299   7.413 -2.0936  0.8220  1.0762
  172MOL0     H23157   2.010   1.501   7.229  0.1953  0.1905  0.3724
  172MOL0     H23158   1.944   1.351   7.157 -2.0391  0.8754  0.4264
  172MOL0     H23159   2.114   1.211   7.252  1.6508  0.1503 -2.7096
  172MOL0     H23160   2.169   1.335   7.373  1.3135 -2.7896 -1.0190
  172MOL0     H23161   2.191   1.354   7.068  0.1455 -0.1224 -0.5066
  172MOL0     H23162   2.236   1.481   7.173 -2.5494 -0.4957 -0.7396
  172MOL0     H23163   2.442   1.360   7.136 -1.4176  0.7166 -0.0138
  172MOL0     H23164   2.386   1.323   7.299 -1.4235  1.3291 -0.2358
  172MOL0     H23165   2.311   1.092   7.204 -1.5873  1.4090 -0.4070
  172MOL0     H23166   2.378   1.157   7.048  0.5622 -1.4833 -0.3341
  172MOL0     H23167   2.556   1.175   7.297 -1.0829 -0.6987  0.2768
  172MOL0     H23168   2.585   1.184   7.124  0.5858  0.1827 -0.1483
  172MOL0     H23169   2.518   0.934   7.287 -1.1422 -0.5758 -1.7490
  172MOL0     H23170   2.527   0.939   7.115 -0.1510  0.1467  0.0370
  172MOL0     H23171   2.757   0.994   7.411  1.9984 -0.5139  1.1579
  172MOL0     H23172   3.112   1.044   7.288  1.9909  1.8991  3.9377
  172MOL0     H23173   3.011   1.075   7.427 -0.2869  0.0884 -0.6683
  172MOL0     H23174   3.052   0.839   7.504  0.5831  0.9223  1.4660
  172MOL0     H23175   3.151   0.816   7.361  0.4579  0.1561  0.5847
  172MOL0     H23176   3.286   1.024   7.454  1.0397  0.3998  0.5823
  172MOL0     H23177   3.304   0.847   7.504 -0.7635 -1.3500 -0.5715
  172MOL0     H23178   3.196   0.896   7.722 -0.8665  1.6466  1.1501
  172MOL0     H23179   3.142   1.046   7.658  0.6647  1.6381 -1.2387
  172MOL0     H23180   3.589   1.108   7.750  2.9392 -1.0893 -1.3844
  172MOL0     H23181   3.791   0.988   7.798  0.8742  2.6221 -1.0203
  172MOL0     H23182   4.073   0.594   7.715 -3.5378  1.4432 -1.0317
  172MOL0     H23183   4.243   0.471   7.794  1.1474 -2.8653  0.7430
  172MOL0     H23184   4.420   0.173   7.953  2.0077  0.8761  0.4912
  172MOL0     H23185   4.380   0.275   7.816  1.8920  1.0609 -0.3958
  172MOL0     H23186   4.540   0.397   7.943 -1.0404  1.9600  0.2254
  172MOL0     H23187   4.388   0.475   7.978  2.5652  1.9819 -1.1083
  172MOL0     H23188   4.387   0.339   8.195  0.4458 -0.3867  1.3456
  172MOL0     H23189   4.541   0.269   8.133 -0.1497 -0.6714  0.2638
  172MOL0     H23190   4.532   0.493   8.310 -0.3331  0.2322  0.3121
  172MOL0     H23191   4.495   0.570   8.159  0.0200 -0.9232 -2.6383
  172MOL0     H23192   4.709   0.506   8.069 -0.5517  1.5602  0.0882
  172MOL0     H23193   4.744   0.385   8.204 -0.4840 -0.4491 -1.5397
  172MOL0     H23194   4.740   0.586   8.358 -1.3925  0.5014 -0.3461
  172MOL0     H23195   4.871   0.582   8.246 -0.4126  1.3386  1.0698
  172MOL0     H23196   4.632   0.764   8.205  0.1621 -0.3556  0.4017
  172MOL0     H23197   4.748   0.725   8.077  0.2291 -2.3941 -0.6137
  172MOL0     H23198   4.810   0.833   8.359 -0.9446  1.0297  0.3047
  172MOL0     H23199   4.934   0.809   8.229  0.6473  0.7844  0.3889
  172MOL0     H23200   3.995   0.224   8.038  3.4171  0.7228  0.4299
  172MOL0     H23201   3.795   0.401   7.976  0.2360  1.9901 -0.4106
  172MOL0     H23202   3.552   0.628   7.761 -7.0598  0.2798 -0.8092
  172MOL0     H23203   3.364   0.756   7.707  1.2663 -2.0021 -0.1885
  172MOL0     H23204   1.601   1.498   7.492  0.8891  0.2514  0.0010
  172MOL0     H23205   1.387   1.382   7.543 -2.7655 -2.9728 -0.5853
  172MOL0     H23206   1.196   1.032   7.597  0.0028 -1.3349  0.3606
  172MOL0     H23207   1.028   0.897   7.712 -2.4345  2.5022  1.0900
  172MOL0     H23208   0.714   0.716   7.453 -1.1096  1.6070 -1.3364
  172MOL0     H23209   0.625   0.847   7.529 -0.2636 -0.2690 -0.6371
  172MOL0     H23210   0.675   0.596   7.680  1.3567  0.3297 -1.2719
  172MOL0     H23211   0.517   0.656   7.616 -1.5333  1.7891  2.9263
  172MOL0     H23212   0.671   0.836   7.797 -0.9160  1.3227  0.4418
  172MOL0     H23213   0.586   0.695   7.870 -1.8723  1.3733  0.4215
  172MOL0     H23214   0.457   0.939   7.832  0.5697  0.0981  0.6330
  172MOL0     H23215   0.426   0.866   7.676 -0.2126  0.3802  0.5607
  172MOL0     H23216   0.214   0.630   7.963 -1.1129 -3.9254 -3.9843
  172MOL0     H23217   0.794   0.895   7.354  0.0771 -2.6391  0.3238
  172MOL0     H23218   0.899   0.916   7.150  0.8951  0.6535 -1.5707
  172MOL0     H23219   0.907   1.088   7.164  0.7784  0.3806 -0.8881
  172MOL0     H23220   1.056   0.991   7.143 -0.7932  0.8505 -2.3586
  173MOL0     O23221   6.745   5.526   8.950  0.0856 -0.1197  0.3202
  173MOL0     C23222   6.796   5.431   8.886 -0.3485  0.1819  1.2243
  173MOL0     O23223   6.929   5.414   8.854 -0.3858  0.2714 -0.8837
  173MOL0     C23224   7.015   5.503   8.909 -0.7361 -0.6058  0.5838
  173MOL0     C23225   7.004   5.645   8.902  0.2034  0.6033  0.7475
  173MOL0     C23226   7.094   5.725   8.967 -0.6705  0.0294  0.2517
  173MOL0     C23227   7.196   5.677   9.044 -0.7131  0.7333  0.6861
  173MOL0     O23228   7.270   5.769   9.118  0.0776 -0.0554  0.3117
  173MOL0     C23229   7.404   5.730   9.158 -0.1650 -0.0672 -1.0649
  173MOL0     C23230   7.490   5.854   9.181 -0.1532  0.8503 -0.6653
  173MOL0     C23231   7.535   5.918   9.050 -0.0524  0.2290 -0.2740
  173MOL0     C23232   7.619   6.048   9.080  0.5149  0.9302 -0.4571
  173MOL0     C23233   7.755   6.034   9.141 -0.9497 -0.3476  0.9219
  173MOL0     C23234   7.846   6.160   9.109 -1.0200  0.1917  0.4545
  173MOL0     C23235   7.980   6.144   9.183 -0.3344  0.7568 -0.1070
  173MOL0     C23236   8.082   6.247   9.137 -0.3407  0.2989 -0.1119
  173MOL0     N23237   8.101   6.231   8.995 -0.6822  0.0682 -0.1177
  173MOL0     C23238   8.187   6.148   8.923 -0.3090 -0.6353  0.0062
  173MOL0     C23239   8.208   6.203   8.798 -0.5387  0.9256 -0.6862
  173MOL0     C23240   8.315   6.149   8.698 -0.6256 -0.0058  0.1204
  173MOL0     C23241   8.310   6.194   8.558 -0.2379 -0.3972 -0.6793
  173MOL0     C23242   8.404   6.107   8.463 -0.1629 -0.1474 -0.6339
  173MOL0     C23243   8.550   6.137   8.488 -0.6669 -0.5793 -0.9137
  173MOL0     O23244   8.566   6.277   8.458  0.4903 -0.0707  0.7826
  173MOL0     C23245   8.679   6.338   8.444  0.2611 -0.5645 -0.8927
  173MOL0     C23246   8.800   6.276   8.471  0.1699  0.4705 -0.1031
  173MOL0     C23247   8.924   6.326   8.444  0.7192 -0.3196  0.4279
  173MOL0     C23248   8.925   6.455   8.391  0.2334  0.7388 -0.7788
  173MOL0     C23249   9.049   6.509   8.349  0.1114 -0.6602  0.0132
  173MOL0     O23250   9.169   6.453   8.402 -0.2838  0.0020 -0.1901
  173MOL0     C23251   9.282   6.518   8.363 -0.0955 -0.2202 -0.1467
  173MOL0     C23252   9.363   6.571   8.469  0.5687  1.4988 -0.0645
  173MOL0     C23253   9.476   6.628   8.433  0.0818 -0.0613 -0.4718
  173MOL0     C23254   9.519   6.646   8.300 -0.9425 -0.6380 -0.0345
  173MOL0     O23255   9.645   6.686   8.267  0.4410  0.4008  0.6831
  173MOL0     C23256   9.699   6.795   8.344 -0.3479  0.4987  0.2176
  173MOL0     C23257   9.841   6.830   8.289 -0.7919 -0.7507 -0.1302
  173MOL0     C23258   9.945   6.724   8.343  0.3735 -0.6633  0.7183
  173MOL0     C23259  10.083   6.769   8.292  0.1276 -0.2762 -0.1121
  173MOL0     C23260  10.203   6.682   8.326 -0.1836 -0.1223  0.3921
  173MOL0     C23261  10.335   6.732   8.254  0.0579  0.3559 -0.5332
  173MOL0     C23262  10.460   6.677   8.327  0.4811  0.6075  0.1844
  173MOL0     C23263  10.584   6.745   8.276 -0.3883 -0.1732  0.0854
  173MOL0    Cl23264  10.595   6.733   8.102 -0.4568 -0.0886  0.4471
  173MOL0     C23265   9.437   6.596   8.199 -0.7791  0.0074 -0.3365
  173MOL0     C23266   9.323   6.533   8.238  0.2049  0.3722  0.5925
  173MOL0     O23267   9.040   6.599   8.259  0.8659 -0.1580 -0.5647
  173MOL0     C23268   8.802   6.522   8.369 -0.3016  0.1170  0.7119
  173MOL0     C23269   8.680   6.467   8.402  0.2423 -0.8630  0.2108
  173MOL0     N23270   8.123   6.306   8.797 -0.1952 -0.4747  0.5060
  173MOL0     N23271   8.067   6.323   8.913  0.4734 -0.3512  0.1987
  173MOL0     C23272   7.213   5.541   9.055 -0.1420  0.6278 -0.0022
  173MOL0     C23273   7.120   5.459   8.987 -0.7343 -0.5110 -0.6310
  173MOL0     C23274   6.709   5.317   8.845 -0.7134 -0.1360 -0.1117
  173MOL0     C23275   6.766   5.191   8.822 -0.4887  0.3150  0.3081
  173MOL0     C23276   6.683   5.083   8.777  0.3012 -0.2208  0.0512
  173MOL0     C23277   6.548   5.106   8.743 -0.2227  0.8348  0.6898
  173MOL0     O23278   6.483   4.990   8.707 -0.4591 -0.0502  0.0968
  173MOL0     C23279   6.347   5.006   8.674 -0.1521  1.4725  0.2777
  173MOL0     C23280   6.265   5.003   8.799  0.3493 -0.6757 -0.6492
  173MOL0     C23281   6.298   4.879   8.890  0.1381 -0.9197 -0.0123
  173MOL0     C23282   6.182   4.842   8.988 -0.0801 -0.0448 -0.2483
  173MOL0     C23283   6.074   4.791   8.906  0.3794 -0.2097  0.6150
  173MOL0     C23284   5.981   4.767   8.836  0.0807  0.3846 -0.4682
  173MOL0     C23285   6.499   5.231   8.777  0.1803 -0.8043 -0.5892
  173MOL0     C23286   6.571   5.340   8.822  0.1661 -0.3727 -0.7538
  173MOL0     C23287   6.493   5.462   8.851 -0.1842 -0.2661 -0.4604
  173MOL0     H23288   6.925   5.689   8.842  0.0424 -0.4274  0.1736
  173MOL0     H23289   7.078   5.831   8.949  0.6912  0.3106  0.5761
  173MOL0     H23290   7.404   5.674   9.252 -0.8419  1.7336  0.0698
  173MOL0     H23291   7.457   5.668   9.085  1.4302 -0.6198  0.5027
  173MOL0     H23292   7.564   5.827   9.256 -1.5228  1.0999  0.8431
  173MOL0     H23293   7.425   5.926   9.232 -2.5885 -1.6190 -0.0357
  173MOL0     H23294   7.446   5.938   8.989 -1.5468 -0.7651  1.4718
  173MOL0     H23295   7.607   5.852   9.003  2.4280  1.5358  1.4492
  173MOL0     H23296   7.634   6.099   8.984  0.8251  0.5336 -0.6220
  173MOL0     H23297   7.548   6.108   9.137 -1.4490 -1.0035 -0.6958
  173MOL0     H23298   7.744   6.010   9.247 -0.6927 -1.1508  0.7705
  173MOL0     H23299   7.802   5.943   9.103 -1.9445 -1.2159  1.6984
  173MOL0     H23300   7.849   6.178   9.002 -1.3075  0.1775  0.4440
  173MOL0     H23301   7.797   6.251   9.145 -2.9942  0.3385 -2.3130
  173MOL0     H23302   8.019   6.044   9.163 -2.9784 -0.0646 -1.6657
  173MOL0     H23303   7.946   6.164   9.284 -1.9840 -2.9927  0.2371
  173MOL0     H23304   8.043   6.348   9.153  0.6108  0.8450 -1.0890
  173MOL0     H23305   8.176   6.234   9.192 -0.2612 -0.9433 -0.5154
  173MOL0     H23306   8.235   6.055   8.952  0.6835 -0.8120 -1.9893
  173MOL0     H23307   8.413   6.164   8.746 -1.3608  0.6558  1.4890
  173MOL0     H23308   8.297   6.042   8.690  2.0026 -0.5241  0.2801
  173MOL0     H23309   8.208   6.178   8.521 -0.3959  2.3112 -1.6195
  173MOL0     H23310   8.320   6.302   8.550 -3.3245  0.0029 -0.2868
  173MOL0     H23311   8.386   6.124   8.356  0.0870  0.2014 -0.6229
  173MOL0     H23312   8.392   6.001   8.487  0.6860 -0.1934 -0.3798
  173MOL0     H23313   8.609   6.075   8.420 -1.7313  0.6790 -3.0967
  173MOL0     H23314   8.577   6.131   8.594 -0.5579  1.6554 -0.7747
  173MOL0     H23315   8.801   6.179   8.520  0.6429  0.8576  0.6809
  173MOL0     H23316   9.014   6.268   8.464  1.2236 -0.0431 -0.9417
  173MOL0     H23317   9.331   6.552   8.571 -2.1667 -2.4280 -1.3971
  173MOL0     H23318   9.528   6.662   8.521  0.0512  0.4090 -0.6330
  173MOL0     H23319   9.637   6.884   8.338  0.4864  1.1064  0.4395
  173MOL0     H23320   9.717   6.761   8.447  2.4256 -0.4948 -0.5076
  173MOL0     H23321   9.849   6.832   8.180 -0.7802  2.1021 -0.1580
  173MOL0     H23322   9.865   6.932   8.320 -1.6207 -1.2930  2.5188
  173MOL0     H23323   9.944   6.702   8.450 -0.2297  0.6306  0.9931
  173MOL0     H23324   9.919   6.631   8.292 -1.4748  1.2573 -2.1333
  173MOL0     H23325  10.100   6.869   8.333 -1.7098 -0.3837  1.0683
  173MOL0     H23326  10.077   6.763   8.183 -2.6759  1.5591 -0.1611
  173MOL0     H23327  10.181   6.575   8.318 -5.1514  0.6838 -0.4722
  173MOL0     H23328  10.225   6.702   8.431 -0.5605  3.1555 -0.0377
  173MOL0     H23329  10.342   6.701   8.150 -1.9700 -0.8080 -0.3639
  173MOL0     H23330  10.352   6.839   8.272  2.0632  0.5550 -3.1071
  173MOL0     H23331  10.460   6.568   8.321  0.1009  0.6047  0.2412
  173MOL0     H23332  10.461   6.697   8.435  0.4920 -0.1658  0.3322
  173MOL0     H23333  10.580   6.852   8.300  1.4654  1.3661 -4.9249
  173MOL0     H23334  10.669   6.696   8.325 -0.7899 -0.5516  0.4064
  173MOL0     H23335   9.480   6.594   8.100  3.7702 -1.0649  1.3928
  173MOL0     H23336   9.260   6.489   8.162  0.3804 -0.8110  1.1128
  173MOL0     H23337   8.801   6.626   8.337 -2.3698  0.9085  3.0367
  173MOL0     H23338   8.588   6.521   8.386 -0.1854 -1.4073  0.7764
  173MOL0     H23339   7.293   5.492   9.109  0.2683 -0.5202 -1.5963
  173MOL0     H23340   7.124   5.352   9.002 -2.4963 -1.0621 -3.4015
  173MOL0     H23341   6.872   5.178   8.839 -0.1197  0.4458 -1.6449
  173MOL0     H23342   6.733   4.987   8.764  0.9115 -0.0388  0.9828
  173MOL0     H23343   6.312   4.931   8.602 -0.3101  1.4369  0.3911
  173MOL0     H23344   6.324   5.101   8.624  2.0251  1.1491 -1.4849
  173MOL0     H23345   6.158   5.002   8.779 -0.5206 -2.0659  3.2849
  173MOL0     H23346   6.283   5.091   8.861  0.5661 -0.9353 -0.3346
  173MOL0     H23347   6.380   4.908   8.956  0.0721 -2.4864  0.8245
  173MOL0     H23348   6.320   4.794   8.825 -2.1239 -2.6475  1.2861
  173MOL0     H23349   6.215   4.766   9.059  1.7604 -0.2552 -1.2900
  173MOL0     H23350   6.149   4.929   9.046 -0.4188 -0.7280  0.6121
  173MOL0     H23351   5.897   4.737   8.778 -1.0961  0.8239  0.9625
  173MOL0     H23352   6.394   5.251   8.754  0.6988  3.0439 -0.3576
  173MOL0     H23353   6.515   5.552   8.793 -0.9452 -0.2738 -0.7685
  173MOL0     H23354   6.387   5.448   8.828 -0.7968  0.8645  1.4968
  173MOL0     H23355   6.492   5.472   8.960 -2.3162 -2.7407 -0.1567
  174MOL0     O23356   3.689  10.306   9.894  0.5129  0.0222  0.1806
  174MOL0     C23357   3.575  10.293   9.942 -0.7521 -0.0565 -0.4512
  174MOL0     O23358   3.549  10.210  10.054  0.1735 -0.7116 -0.3126
  174MOL0     C23359   3.642  10.130  10.112 -0.1100 -0.4045  0.4440
  174MOL0     C23360   3.724  10.051  10.038 -0.4652 -0.0444  0.2001
  174MOL0     C23361   3.826   9.979  10.099  0.1517 -0.2608  0.1629
  174MOL0     C23362   3.842   9.976  10.237  0.2234  0.0486  0.2469
  174MOL0     O23363   3.943   9.907  10.292 -0.2729  0.4419  0.3503
  174MOL0     C23364   4.075   9.962  10.275 -0.6279 -0.7085  0.9093
  174MOL0     C23365   4.182   9.853  10.298 -0.8082  0.1172  0.5325
  174MOL0     C23366   4.226   9.761  10.186 -0.7488  0.6165  0.0217
  174MOL0     C23367   4.110   9.675  10.123  0.3221 -0.5539 -0.5704
  174MOL0     C23368   4.128   9.664   9.970  0.5531  0.3877 -0.3312
  174MOL0     C23369   4.244   9.577   9.923  0.4667 -0.1105 -0.5216
  174MOL0     C23370   4.219   9.431   9.962  0.3473 -0.6113 -0.2426
  174MOL0     C23371   4.331   9.340   9.936  0.3807 -0.6327 -0.2119
  174MOL0     N23372   4.287   9.201   9.914 -0.0917 -0.3556 -0.4687
  174MOL0     C23373   4.222   9.151   9.806  0.6491  0.9779 -0.4182
  174MOL0     C23374   4.215   9.023   9.845  0.0561  0.8093  0.2422
  174MOL0     C23375   4.169   8.900   9.765  0.1234 -0.1563 -0.8595
  174MOL0     C23376   4.019   8.878   9.772  0.4453  0.2712 -0.2526
  174MOL0     C23377   3.982   8.742   9.710 -0.3669  0.3057 -0.0963
  174MOL0     C23378   3.833   8.719   9.690 -0.2660 -0.8316  0.4556
  174MOL0     O23379   3.792   8.772   9.567 -0.3296  0.3874  0.7055
  174MOL0     C23380   3.661   8.803   9.548  0.0167 -0.8824  0.3188
  174MOL0     C23381   3.642   8.897   9.453 -0.5346 -1.1329 -1.0907
  174MOL0     C23382   3.516   8.935   9.415  1.1404  0.7109 -0.1098
  174MOL0     C23383   3.401   8.880   9.478 -0.7119 -0.0114 -0.6303
  174MOL0     C23384   3.274   8.942   9.451  0.4818  0.4655 -0.0662
  174MOL0     O23385   3.165   8.898   9.526  0.7690  0.0973 -0.5210
  174MOL0     C23386   3.045   8.962   9.517 -0.2507  0.4636  0.6563
  174MOL0     C23387   2.966   8.965   9.638  0.4899 -0.2701  0.1815
  174MOL0     C23388   2.848   9.041   9.639 -0.3369 -0.5791 -0.2803
  174MOL0     C23389   2.795   9.097   9.525 -0.0835  0.3912  0.0846
  174MOL0     O23390   2.666   9.148   9.546  0.3542  0.0701  0.1350
  174MOL0     C23391   2.602   9.219   9.448 -0.3965 -0.4551  0.2625
  174MOL0     C23392   2.488   9.305   9.510 -0.4571 -0.2179 -0.1987
  174MOL0     C23393   2.426   9.404   9.409 -0.1110  0.0336 -0.0336
  174MOL0     C23394   2.294   9.460   9.458 -0.1852 -0.3467 -0.7612
  174MOL0     C23395   2.175   9.364   9.481  0.0661 -0.3728  0.7024
  174MOL0     C23396   2.113   9.336   9.344  0.3499 -0.2671 -0.1038
  174MOL0     C23397   1.968   9.293   9.354  0.4587 -0.2147  0.2305
  174MOL0     C23398   1.895   9.272   9.218  0.4396 -0.6249  0.4513
  174MOL0    Cl23399   1.865   9.418   9.111 -0.0716 -0.3464  0.9241
  174MOL0     C23400   2.871   9.088   9.407  1.0506  0.4043  0.2388
  174MOL0     C23401   2.995   9.031   9.398 -0.2733 -0.3248 -0.4770
  174MOL0     O23402   3.272   9.039   9.375 -0.1301  0.1292 -0.0491
  174MOL0     C23403   3.413   8.787   9.581 -0.0052  0.4033 -0.8287
  174MOL0     C23404   3.546   8.753   9.618 -1.4732  0.5719 -0.3931
  174MOL0     N23405   4.280   8.998   9.966 -0.4475 -0.0032 -0.3845
  174MOL0     N23406   4.312   9.115  10.015  1.1407  0.0921 -0.3170
  174MOL0     C23407   3.755  10.057  10.310  0.4519 -0.4190 -0.3932
  174MOL0     C23408   3.653  10.133  10.251  0.2077 -0.1050  0.5551
  174MOL0     C23409   3.469  10.376   9.884 -0.6781  0.1460  0.2189
  174MOL0     C23410   3.505  10.482   9.800  0.8581  0.7327 -0.5212
  174MOL0     C23411   3.413  10.571   9.744 -0.1484  0.5147 -0.2245
  174MOL0     C23412   3.276  10.558   9.766  0.2550  0.0325  0.0866
  174MOL0     O23413   3.200  10.645   9.691 -1.0187  0.0336 -0.3903
  174MOL0     C23414   3.059  10.651   9.714 -0.5026  0.3828 -0.3858
  174MOL0     C23415   3.045  10.712   9.860 -0.3335 -0.4121 -0.3536
  174MOL0     C23416   3.147  10.827   9.900 -0.4477 -0.6203 -0.0115
  174MOL0     C23417   3.116  10.954   9.824 -1.3118  1.3497  0.9559
  174MOL0     C23418   3.006  11.025   9.880 -0.2213 -1.2400  0.0056
  174MOL0     C23419   2.895  11.074   9.900 -0.2636  0.0707 -0.3566
  174MOL0     C23420   3.237  10.452   9.839  0.0238 -0.3073 -0.8461
  174MOL0     C23421   3.330  10.363   9.902 -0.0149  0.7296  0.6660
  174MOL0     C23422   3.277  10.246   9.988  0.0645 -0.9755  0.1635
  174MOL0     H23423   3.703  10.052   9.931 -2.1744  1.8561  0.4857
  174MOL0     H23424   3.887   9.926  10.026 -1.5767 -0.1877 -1.4186
  174MOL0     H23425   4.092  10.008  10.178 -1.0086 -1.2164  0.5934
  174MOL0     H23426   4.093  10.040  10.350  0.9014 -1.4216  1.3223
  174MOL0     H23427   4.146   9.794  10.383 -0.7972  0.4654  0.7833
  174MOL0     H23428   4.278   9.901  10.322  0.0769 -1.7355  0.8940
  174MOL0     H23429   4.306   9.707  10.238 -0.8085 -0.6556 -1.1557
  174MOL0     H23430   4.259   9.823  10.101 -0.5738 -2.0204 -1.9714
  174MOL0     H23431   4.099   9.573  10.159 -1.9030 -0.5446 -1.0378
  174MOL0     H23432   4.012   9.723  10.132  0.8073  0.4579 -0.5499
  174MOL0     H23433   4.032   9.626   9.933  0.3772 -2.6920  2.8600
  174MOL0     H23434   4.129   9.763   9.922 -1.9210 -0.0023 -1.3497
  174MOL0     H23435   4.268   9.574   9.817  0.2677 -4.4437 -0.6265
  174MOL0     H23436   4.336   9.609   9.974  0.5373 -0.0947 -0.6600
  174MOL0     H23437   4.131   9.408   9.900  0.5505  0.9645 -1.1547
  174MOL0     H23438   4.191   9.426  10.067  1.5499 -1.0506  0.0719
  174MOL0     H23439   4.384   9.370   9.845  0.5779 -1.0728 -0.2452
  174MOL0     H23440   4.399   9.339  10.021  0.1134 -1.4584 -0.0003
  174MOL0     H23441   4.208   9.185   9.704 -0.8239 -0.3830 -0.7049
  174MOL0     H23442   4.189   8.916   9.658 -0.3615 -3.2478 -1.5126
  174MOL0     H23443   4.219   8.813   9.809  1.7426  0.3050 -1.6713
  174MOL0     H23444   3.984   8.878   9.876 -2.2556 -3.1062 -0.9725
  174MOL0     H23445   3.960   8.953   9.720 -2.3088 -0.7945  1.1520
  174MOL0     H23446   4.022   8.661   9.771  0.8637 -0.5188 -1.9102
  174MOL0     H23447   4.039   8.749   9.617  0.9471  2.0858  0.7846
  174MOL0     H23448   3.781   8.764   9.775  0.9802 -0.3177  0.9770
  174MOL0     H23449   3.822   8.610   9.684 -0.1465 -0.8122 -0.1228
  174MOL0     H23450   3.731   8.948   9.417 -0.9722 -0.2230 -0.9084
  174MOL0     H23451   3.516   9.018   9.345  0.6823  1.2533  0.5273
  174MOL0     H23452   3.004   8.926   9.732 -3.0750 -1.7697  1.1437
  174MOL0     H23453   2.800   9.055   9.736  1.5210  3.3919  0.2829
  174MOL0     H23454   2.665   9.292   9.398 -1.3891  0.0981 -0.2165
  174MOL0     H23455   2.559   9.153   9.372  0.1731  2.2131 -2.5471
  174MOL0     H23456   2.405   9.246   9.552  0.9725 -1.7786  0.5398
  174MOL0     H23457   2.530   9.367   9.589 -0.7646 -0.9649  0.5650
  174MOL0     H23458   2.503   9.481   9.399  0.8010 -1.0436 -2.2293
  174MOL0     H23459   2.422   9.359   9.309 -1.1058 -0.2988  0.1430
  174MOL0     H23460   2.265   9.548   9.399 -0.2486 -1.3639 -2.3229
  174MOL0     H23461   2.312   9.503   9.556  1.7255  0.7948 -1.5711
  174MOL0     H23462   2.112   9.409   9.558  2.2695 -0.0810  2.4385
  174MOL0     H23463   2.203   9.271   9.532  0.0684  0.4842  2.3223
  174MOL0     H23464   2.113   9.424   9.279  0.2136 -0.1087  0.1088
  174MOL0     H23465   2.175   9.267   9.286  1.5706  1.8046 -1.3930
  174MOL0     H23466   1.915   9.369   9.414  1.2809  0.6600 -0.1262
  174MOL0     H23467   1.987   9.198   9.404  3.5792 -0.6650 -1.5879
  174MOL0     H23468   1.947   9.193   9.163 -0.6423 -1.2543  0.3239
  174MOL0     H23469   1.794   9.238   9.241 -0.3366  0.4742 -1.0791
  174MOL0     H23470   2.825   9.146   9.328  0.5412 -0.5909 -0.2090
  174MOL0     H23471   3.060   9.041   9.312 -0.2036  0.7293 -0.3202
  174MOL0     H23472   3.326   8.745   9.630 -0.1832  0.8258 -0.7792
  174MOL0     H23473   3.554   8.674   9.693 -3.3173 -0.3582 -1.1035
  174MOL0     H23474   3.774  10.055  10.416 -0.6639  1.8821 -0.0944
  174MOL0     H23475   3.580  10.188  10.309 -1.7708 -0.5431 -1.3951
  174MOL0     H23476   3.608  10.487   9.767  0.3437 -1.8782 -2.8652
  174MOL0     H23477   3.436  10.652   9.676 -0.8380  0.1197 -0.9303
  174MOL0     H23478   3.020  10.549   9.711 -2.4601  1.0847 -0.6246
  174MOL0     H23479   3.005  10.711   9.640  0.8228  3.6505  1.1093
  174MOL0     H23480   3.057  10.627   9.927 -1.3098 -1.2114 -1.1705
  174MOL0     H23481   2.945  10.751   9.880  0.6945  1.7725  1.0166
  174MOL0     H23482   3.253  10.802   9.885 -0.9734 -1.3305 -3.4538
  174MOL0     H23483   3.140  10.850  10.006 -1.6353  1.7668 -0.5307
  174MOL0     H23484   3.201  11.023   9.813 -2.0178  2.0538 -0.4387
  174MOL0     H23485   3.090  10.922   9.722 -0.3572 -2.4650  1.7442
  174MOL0     H23486   2.799  11.118   9.914  0.6272  2.4052 -1.1786
  174MOL0     H23487   3.130  10.437   9.846 -0.2558  0.9278 -2.0666
  174MOL0     H23488   3.286  10.262  10.096  0.9145 -1.2796  0.1427
  174MOL0     H23489   3.172  10.234   9.959  0.4597  2.5843 -3.7707
  174MOL0     H23490   3.335  10.155   9.970 -0.9023 -2.4681  3.7154
  175MOL0     O23491  10.387   8.127   5.588  0.0394  0.3702 -0.4891
  175MOL0     C23492  10.360   8.133   5.467  0.3919  0.4164 -0.0288
  175MOL0     O23493  10.385   8.035   5.368 -0.8799  0.4547  0.2137
  175MOL0     C23494  10.484   7.942   5.409 -0.5353 -0.9979 -0.3661
  175MOL0     C23495  10.616   7.986   5.417  0.3508 -1.1697  0.6779
  175MOL0     C23496  10.713   7.910   5.470  0.1952  0.3346  0.4977
  175MOL0     C23497  10.688   7.778   5.505  0.2067  0.1324  0.2172
  175MOL0     O23498  10.787   7.687   5.546 -0.2549  0.0094 -0.4596
  175MOL0     C23499  10.919   7.736   5.573 -0.2279  0.3529  0.3551
  175MOL0     C23500  11.007   7.626   5.633 -0.0505 -0.3051 -0.5501
  175MOL0     C23501  11.160   7.652   5.619 -0.5269 -0.3216 -0.7326
  175MOL0     C23502  11.242   7.533   5.665  0.3289 -0.2191  0.4951
  175MOL0     C23503  11.387   7.574   5.678  0.8386  0.3319 -0.6014
  175MOL0     C23504  11.485   7.465   5.709 -1.0471 -0.3994 -0.3434
  175MOL0     C23505  11.639   7.500   5.704  0.3933  0.9450  0.4602
  175MOL0     C23506  11.713   7.370   5.739 -0.2173  0.0154  0.8251
  175MOL0     N23507  11.845   7.377   5.675  0.0930 -0.1701  0.3917
  175MOL0     C23508  11.963   7.440   5.718  0.1277  0.9161 -0.6853
  175MOL0     C23509  12.057   7.396   5.631 -0.1783 -0.4532 -0.8967
  175MOL0     C23510  12.200   7.448   5.643 -0.5184 -0.0049  0.3645
  175MOL0     C23511  12.269   7.444   5.780  0.2695 -1.5379 -0.4762
  175MOL0     C23512  12.280   7.298   5.836  0.4618 -0.8988  0.6985
  175MOL0     C23513  12.401   7.264   5.925 -0.3035  0.0086 -0.1300
  175MOL0     O23514  12.522   7.313   5.876  0.2792 -1.1870  0.4715
  175MOL0     C23515  12.629   7.311   5.960 -0.0158 -0.8036  0.9980
  175MOL0     C23516  12.733   7.398   5.934  0.7566 -0.7364 -0.9131
  175MOL0     C23517  12.845   7.403   6.014 -0.4292 -0.6227 -0.7463
  175MOL0     C23518  12.863   7.320   6.130  1.2818  0.3169  0.0383
  175MOL0     C23519  12.990   7.310   6.214 -0.3258 -0.1553 -0.1547
  175MOL0     O23520  13.098   7.372   6.172 -0.7175  0.6267 -0.4298
  175MOL0     C23521  13.220   7.378   6.246  0.6785  0.3315  0.7565
  175MOL0     C23522  13.232   7.420   6.373  0.2833 -0.3128  0.2228
  175MOL0     C23523  13.355   7.454   6.440  0.3105  0.0364 -0.0220
  175MOL0     C23524  13.471   7.437   6.369 -0.9993 -0.1888  0.5139
  175MOL0     O23525  13.585   7.476   6.430 -0.5829 -0.2668 -0.1546
  175MOL0     C23526  13.708   7.476   6.369  0.2332 -0.0379 -1.5207
  175MOL0     C23527  13.804   7.571   6.432  0.1128  0.3778 -0.6372
  175MOL0     C23528  13.951   7.553   6.375  0.5667 -1.6513  0.2645
  175MOL0     C23529  14.042   7.651   6.458 -0.6168  0.6530  0.5791
  175MOL0     C23530  14.178   7.654   6.392 -0.6797 -0.5504  0.6548
  175MOL0     C23531  14.267   7.759   6.447  0.1365 -0.0405 -0.0719
  175MOL0     C23532  14.410   7.737   6.399  0.5016 -0.1015 -0.0434
  175MOL0     C23533  14.516   7.833   6.470  0.4768  0.4807  0.2564
  175MOL0    Cl23534  14.673   7.807   6.382  0.0897 -0.2251  0.1737
  175MOL0     C23535  13.470   7.377   6.239 -1.0989  0.4652  0.5264
  175MOL0     C23536  13.348   7.342   6.185  1.5225  0.2604 -0.2701
  175MOL0     O23537  12.982   7.245   6.318  0.2201  0.0839 -0.5259
  175MOL0     C23538  12.750   7.245   6.160  0.0183 -0.1247 -0.4463
  175MOL0     C23539  12.638   7.236   6.078 -0.1826 -0.1718 -0.6012
  175MOL0     N23540  11.997   7.305   5.547 -0.3183  0.1967  0.9904
  175MOL0     N23541  11.870   7.288   5.572 -0.6619  0.1787 -0.5948
  175MOL0     C23542  10.556   7.738   5.508 -0.3156 -0.2316  0.8115
  175MOL0     C23543  10.452   7.816   5.452 -0.6220  0.1216 -0.0049
  175MOL0     C23544  10.287   8.252   5.414  0.2486  0.0387 -0.4310
  175MOL0     C23545  10.221   8.245   5.285  0.3710 -0.4324 -1.2731
  175MOL0     C23546  10.169   8.357   5.224  0.5612 -0.1198 -0.5796
  175MOL0     C23547  10.169   8.485   5.275 -0.6650  0.3306 -0.0633
  175MOL0     O23548  10.127   8.592   5.209  0.2447 -0.3887  0.7258
  175MOL0     C23549  10.031   8.686   5.274  0.7987  0.1662 -0.5404
  175MOL0     C23550  10.021   8.814   5.208 -0.7929 -0.8016  0.2065
  175MOL0     C23551   9.926   8.908   5.283  0.1868  0.5382  0.7780
  175MOL0     C23552   9.905   9.036   5.193 -0.5350  0.6278 -0.3463
  175MOL0     C23553  10.019   9.131   5.196  0.7940  0.6739 -0.0023
  175MOL0     C23554  10.112   9.203   5.200 -0.3906 -0.9904  0.5170
  175MOL0     C23555  10.228   8.489   5.405 -0.0560 -0.0138 -0.1032
  175MOL0     C23556  10.294   8.381   5.473  0.3744  0.3838 -0.4783
  175MOL0     C23557  10.369   8.414   5.602  0.9463  0.2509  1.0420
  175MOL0     H23558  10.634   8.088   5.384 -0.5923 -1.0392  0.5352
  175MOL0     H23559  10.818   7.938   5.463  0.2410  0.0113 -0.1441
  175MOL0     H23560  10.960   7.757   5.474 -0.8471  1.3411  0.2938
  175MOL0     H23561  10.916   7.830   5.629 -1.8941 -0.5161  1.8107
  175MOL0     H23562  10.973   7.533   5.587  0.7544 -0.0636 -1.6925
  175MOL0     H23563  10.991   7.618   5.741  0.5151  0.7241 -0.3821
  175MOL0     H23564  11.183   7.733   5.690  0.6025  0.5062 -1.9732
  175MOL0     H23565  11.192   7.683   5.519  3.1489 -2.4102 -0.3940
  175MOL0     H23566  11.201   7.499   5.761 -0.5128  0.3947  0.3662
  175MOL0     H23567  11.236   7.455   5.589  1.1110  1.0107 -0.8908
  175MOL0     H23568  11.414   7.617   5.581 -0.2500  0.6203 -0.7901
  175MOL0     H23569  11.397   7.652   5.754  0.4903 -1.1078  0.9934
  175MOL0     H23570  11.459   7.420   5.805 -3.3454  2.4235  0.4861
  175MOL0     H23571  11.471   7.381   5.639 -2.5979 -0.7745  0.3712
  175MOL0     H23572  11.671   7.575   5.778 -0.5547  1.2514  0.5762
  175MOL0     H23573  11.664   7.519   5.600 -0.0156 -2.1313 -0.2959
  175MOL0     H23574  11.727   7.353   5.846  2.5641  1.3330  0.7554
  175MOL0     H23575  11.651   7.289   5.698  0.3121 -0.1859  0.4132
  175MOL0     H23576  11.969   7.501   5.808 -1.8816  0.0318  0.1261
  175MOL0     H23577  12.254   7.377   5.580 -1.4034 -2.7512  2.4942
  175MOL0     H23578  12.207   7.547   5.599 -1.6254 -0.7144 -1.5579
  175MOL0     H23579  12.368   7.489   5.778 -0.7183  0.8692  1.0887
  175MOL0     H23580  12.199   7.490   5.851 -1.7516 -3.5194 -1.0376
  175MOL0     H23581  12.289   7.234   5.748 -1.5486 -0.6014  0.2435
  175MOL0     H23582  12.186   7.275   5.887 -0.8927  1.3440 -0.6299
  175MOL0     H23583  12.407   7.155   5.921 -0.0446 -0.0497  1.2663
  175MOL0     H23584  12.372   7.297   6.025 -2.7410 -2.5608  0.1460
  175MOL0     H23585  12.720   7.466   5.850  2.2812  1.3088  0.3969
  175MOL0     H23586  12.926   7.470   5.987 -0.6709 -0.0417 -0.0486
  175MOL0     H23587  13.138   7.435   6.426  0.3049  2.5014 -0.3817
  175MOL0     H23588  13.365   7.491   6.541  1.0403 -2.4756  0.9237
  175MOL0     H23589  13.754   7.377   6.380  4.3222  1.8332  0.5632
  175MOL0     H23590  13.704   7.489   6.260 -1.0384  1.0192 -1.3797
  175MOL0     H23591  13.776   7.675   6.415  1.8034  1.1701  0.9933
  175MOL0     H23592  13.814   7.542   6.537  0.4828 -0.0165 -0.7783
  175MOL0     H23593  13.981   7.448   6.386  1.8108 -1.4661 -1.0552
  175MOL0     H23594  13.948   7.579   6.268  1.1468  1.1334  0.8526
  175MOL0     H23595  14.041   7.604   6.556  2.4068 -0.4080  0.2009
  175MOL0     H23596  14.001   7.751   6.472  1.7496  1.2332  5.1059
  175MOL0     H23597  14.169   7.668   6.284 -3.6498 -2.9265  0.5014
  175MOL0     H23598  14.223   7.558   6.417 -1.4500 -1.0547  0.1257
  175MOL0     H23599  14.242   7.862   6.420  2.3664  0.2238 -1.3536
  175MOL0     H23600  14.283   7.749   6.555 -0.3922  2.3944  0.2919
  175MOL0     H23601  14.425   7.768   6.295  0.4723 -1.3039 -0.4206
  175MOL0     H23602  14.437   7.631   6.404 -0.7818 -0.4433  0.0966
  175MOL0     H23603  14.485   7.937   6.454  1.1494  1.0836  2.4910
  175MOL0     H23604  14.523   7.811   6.577 -1.3323 -2.3794 -0.1038
  175MOL0     H23605  13.559   7.347   6.185  0.4220  1.7695  2.1658
  175MOL0     H23606  13.345   7.301   6.085 -1.0960 -0.7360  0.1093
  175MOL0     H23607  12.757   7.180   6.247  1.1459  1.4800  0.7242
  175MOL0     H23608  12.563   7.167   6.112  0.7721  0.1700  2.5174
  175MOL0     H23609  10.543   7.634   5.535 -0.0956 -0.7212 -0.8169
  175MOL0     H23610  10.348   7.786   5.443 -0.1107 -1.3410 -1.5901
  175MOL0     H23611  10.203   8.152   5.232 -2.4621  0.2943 -1.7517
  175MOL0     H23612  10.123   8.327   5.130  0.4988 -0.0229 -0.5799
  175MOL0     H23613  10.069   8.700   5.375  1.8109 -1.3139 -0.6859
  175MOL0     H23614   9.932   8.641   5.276  0.1717  1.3922 -1.7400
  175MOL0     H23615   9.990   8.795   5.105  1.6186 -2.0371 -0.3420
  175MOL0     H23616  10.120   8.861   5.211 -1.1370  0.2327 -2.0861
  175MOL0     H23617   9.954   8.928   5.387  1.1829 -0.3378  0.6932
  175MOL0     H23618   9.827   8.861   5.292  0.9463 -1.1403  0.8757
  175MOL0     H23619   9.889   9.001   5.091  0.1412 -0.7114 -0.0093
  175MOL0     H23620   9.813   9.087   5.224  0.3573  2.3792 -0.4496
  175MOL0     H23621  10.187   9.277   5.217  1.2715 -3.2899  4.4372
  175MOL0     H23622  10.224   8.585   5.456 -2.0006 -0.5848  0.9246
  175MOL0     H23623  10.411   8.515   5.599  2.9817 -0.5655 -1.7326
  175MOL0     H23624  10.306   8.384   5.686 -2.3256  2.1875 -0.5358
  175MOL0     H23625  10.462   8.356   5.599 -0.0652 -1.3975 -1.3818
  176MOL0     O23626   9.750   8.727   8.022  0.2895 -0.0463  0.3280
  176MOL0     C23627   9.691   8.637   7.960 -0.1862 -1.0025 -0.4902
  176MOL0     O23628   9.742   8.569   7.842  0.2907  0.4332 -0.3315
  176MOL0     C23629   9.876   8.530   7.832  0.4065  0.1272  0.2303
  176MOL0     C23630   9.966   8.507   7.930  0.0904 -0.3538  0.3397
  176MOL0     C23631  10.093   8.444   7.910  0.3038 -0.3250 -0.1433
  176MOL0     C23632  10.137   8.420   7.780 -0.2256  0.3178 -0.4145
  176MOL0     O23633  10.266   8.382   7.746 -0.3658  0.1071  0.1304
  176MOL0     C23634  10.359   8.365   7.851 -0.5475  0.4143 -0.1904
  176MOL0     C23635  10.497   8.392   7.797  0.3428 -0.6765  0.0831
  176MOL0     C23636  10.612   8.373   7.902 -0.0062  0.1625 -0.0161
  176MOL0     C23637  10.598   8.236   7.982 -0.1955  0.3683 -0.2988
  176MOL0     C23638  10.739   8.198   8.021 -0.5882  0.4281  1.1999
  176MOL0     C23639  10.753   8.085   8.117 -0.0778  0.4451  0.0511
  176MOL0     C23640  10.902   8.060   8.144 -0.1387 -0.0465 -0.1986
  176MOL0     C23641  10.912   7.925   8.219 -0.2119  0.8148  0.2093
  176MOL0     N23642  11.053   7.868   8.218 -0.3879 -0.7379 -0.6911
  176MOL0     C23643  11.107   7.802   8.111  0.2480  0.5084 -0.3992
  176MOL0     C23644  11.206   7.727   8.166 -0.0445  0.0038 -0.7734
  176MOL0     C23645  11.287   7.624   8.101 -0.2214 -0.1323 -0.9739
  176MOL0     C23646  11.439   7.664   8.114  0.0171  0.0125  0.0075
  176MOL0     C23647  11.528   7.556   8.073 -0.2613 -0.0113  0.3616
  176MOL0     C23648  11.516   7.420   8.148 -0.1882  0.4552  0.2369
  176MOL0     O23649  11.618   7.323   8.122 -0.0898 -0.5728 -0.4693
  176MOL0     C23650  11.750   7.341   8.161 -0.3972  0.2719  0.1969
  176MOL0     C23651  11.836   7.243   8.112  0.6951 -0.4390  0.5780
  176MOL0     C23652  11.967   7.243   8.149 -0.3387 -0.3925  0.2079
  176MOL0     C23653  12.016   7.332   8.243 -0.1485 -0.1979 -0.7085
  176MOL0     C23654  12.154   7.346   8.292  0.2433 -0.3256  0.0970
  176MOL0     O23655  12.167   7.425   8.400 -0.0687 -1.0288  0.9009
  176MOL0     C23656  12.281   7.426   8.482  0.1848  0.0464  0.4133
  176MOL0     C23657  12.323   7.551   8.544  0.8877  0.6235  0.2389
  176MOL0     C23658  12.436   7.551   8.625  0.0089 -0.1764 -0.1246
  176MOL0     C23659  12.516   7.438   8.650  0.0069  0.2664  0.0071
  176MOL0     O23660  12.619   7.453   8.737  0.6735  0.1950  0.2283
  176MOL0     C23661  12.715   7.358   8.769 -0.2902 -0.5216  0.7459
  176MOL0     C23662  12.827   7.435   8.844 -0.1242 -0.4372  0.7199
  176MOL0     C23663  12.950   7.349   8.852 -0.6170  0.0006 -0.0600
  176MOL0     C23664  13.064   7.442   8.896  0.0226 -0.0200  0.4282
  176MOL0     C23665  13.197   7.372   8.922  0.2078  0.2878 -0.0183
  176MOL0     C23666  13.309   7.475   8.932 -0.0838  0.3375  0.0016
  176MOL0     C23667  13.440   7.400   8.921 -0.2787 -0.5179  0.3317
  176MOL0     C23668  13.556   7.498   8.926 -0.5819 -0.4156 -0.1166
  176MOL0    Cl23669  13.707   7.426   8.875  0.1490  0.0542  0.0352
  176MOL0     C23670  12.466   7.320   8.604 -0.5013  0.2512  0.3698
  176MOL0     C23671  12.350   7.312   8.519  0.1464 -0.3064 -0.3192
  176MOL0     O23672  12.242   7.287   8.232  0.1264 -0.4482 -0.1081
  176MOL0     C23673  11.930   7.434   8.291  1.0846  0.4082  0.5628
  176MOL0     C23674  11.799   7.442   8.251  0.4117 -0.4114  0.5562
  176MOL0     N23675  11.206   7.755   8.299 -0.1989  0.1296 -0.3837
  176MOL0     N23676  11.120   7.830   8.337  0.0519 -0.1211  0.4759
  176MOL0     C23677  10.050   8.457   7.672  0.0042 -0.6522 -0.0143
  176MOL0     C23678   9.919   8.499   7.701 -0.6860 -0.1579 -0.7601
  176MOL0     C23679   9.548   8.597   7.996 -0.2501 -0.7541 -0.1807
  176MOL0     C23680   9.475   8.499   7.921 -0.7177  0.7920  0.2947
  176MOL0     C23681   9.348   8.451   7.943 -0.1245 -0.2367 -0.3375
  176MOL0     C23682   9.278   8.499   8.050 -0.9081 -0.0388 -0.1305
  176MOL0     O23683   9.154   8.469   8.080 -0.2151 -0.6451 -0.3029
  176MOL0     C23684   9.074   8.398   7.981 -0.1372  0.1456 -0.5385
  176MOL0     C23685   8.926   8.386   8.031  0.0165  0.2021 -0.3034
  176MOL0     C23686   8.845   8.303   7.928  0.0102  0.6705  0.2224
  176MOL0     C23687   8.695   8.307   7.963  0.1941  0.5932 -0.0417
  176MOL0     C23688   8.661   8.247   8.090  0.1783  0.3514 -0.8596
  176MOL0     C23689   8.631   8.194   8.191  1.5703 -0.0016  0.4958
  176MOL0     C23690   9.343   8.587   8.140 -1.0647 -0.2862 -0.0286
  176MOL0     C23691   9.479   8.637   8.117 -0.2642 -0.0995  0.0392
  176MOL0     C23692   9.546   8.711   8.226 -0.7540 -1.0044 -0.0012
  176MOL0     H23693   9.939   8.537   8.031  0.0228  2.7430 -0.4984
  176MOL0     H23694  10.151   8.419   7.998 -2.3642 -0.8695  1.5644
  176MOL0     H23695  10.339   8.430   7.937  0.3704  1.0157 -0.4131
  176MOL0     H23696  10.359   8.259   7.877  0.8626  0.2422 -0.7849
  176MOL0     H23697  10.502   8.492   7.753  1.3920  0.5262  2.7515
  176MOL0     H23698  10.521   8.329   7.711  1.7697  0.0710 -0.1126
  176MOL0     H23699  10.608   8.460   7.968 -2.2329  0.4662 -0.4661
  176MOL0     H23700  10.707   8.365   7.849 -0.5728  2.2090 -1.4806
  176MOL0     H23701  10.545   8.239   8.077 -0.7622 -0.7203 -0.5656
  176MOL0     H23702  10.550   8.161   7.917 -3.3481  3.0892 -1.3974
  176MOL0     H23703  10.797   8.171   7.932  1.2581  3.2845  1.4143
  176MOL0     H23704  10.795   8.280   8.066  0.5188  0.2671  0.1640
  176MOL0     H23705  10.700   8.097   8.212 -1.1257 -2.4984 -0.0466
  176MOL0     H23706  10.696   8.004   8.069 -1.5941  1.5961 -0.1622
  176MOL0     H23707  10.951   8.145   8.191  2.3918 -0.8233 -1.2366
  176MOL0     H23708  10.945   8.035   8.046  0.2097 -0.4514  0.0507
  176MOL0     H23709  10.883   7.937   8.324  0.0571 -0.0271  0.3860
  176MOL0     H23710  10.850   7.853   8.164  1.4483  0.5220 -1.4126
  176MOL0     H23711  11.079   7.811   8.006 -0.3590  1.0972 -0.1947
  176MOL0     H23712  11.262   7.534   8.156 -1.0268  0.9580  0.5158
  176MOL0     H23713  11.264   7.603   7.996  0.8536 -5.9398 -0.3409
  176MOL0     H23714  11.445   7.752   8.050 -5.2146  0.4843 -0.2400
  176MOL0     H23715  11.467   7.696   8.215  1.8463  0.3932 -0.5705
  176MOL0     H23716  11.630   7.594   8.083  0.6775 -2.0633 -0.7705
  176MOL0     H23717  11.515   7.533   7.967 -1.8805 -0.3623  0.6163
  176MOL0     H23718  11.425   7.372   8.111  0.1756 -0.1053  0.0538
  176MOL0     H23719  11.511   7.441   8.255 -1.6187  1.0637  0.0755
  176MOL0     H23720  11.791   7.160   8.059 -1.6988  1.0842  0.0551
  176MOL0     H23721  12.034   7.166   8.111 -0.6341  0.1715 -1.5785
  176MOL0     H23722  12.261   7.635   8.512  1.0600  0.7149  0.1482
  176MOL0     H23723  12.460   7.648   8.669 -0.9153 -0.3217  0.7188
  176MOL0     H23724  12.669   7.284   8.836 -1.3824 -0.5622 -0.0272
  176MOL0     H23725  12.751   7.303   8.682  3.7668  0.6768  1.4717
  176MOL0     H23726  12.848   7.525   8.785  0.5787 -1.1704 -0.1724
  176MOL0     H23727  12.804   7.470   8.945  1.2747 -2.7623  1.9173
  176MOL0     H23728  12.929   7.270   8.926 -0.7614  1.1537  1.1575
  176MOL0     H23729  12.981   7.319   8.752  2.8148  1.5587  0.3940
  176MOL0     H23730  13.036   7.498   8.986  0.8610 -0.9024  1.2599
  176MOL0     H23731  13.081   7.512   8.814 -0.4778  0.4396  0.7014
  176MOL0     H23732  13.216   7.312   8.832  0.6765  0.6929 -0.1899
  176MOL0     H23733  13.201   7.303   9.007  2.1258 -0.8842 -0.9998
  176MOL0     H23734  13.314   7.556   8.859  0.7616  0.1282 -0.1845
  176MOL0     H23735  13.298   7.525   9.029  0.0637  1.6680 -0.6436
  176MOL0     H23736  13.448   7.345   8.827 -1.6750  0.7814 -0.5706
  176MOL0     H23737  13.453   7.323   8.998  1.7147 -0.6652 -0.0943
  176MOL0     H23738  13.541   7.587   8.864  2.2021  1.7481  2.0494
  176MOL0     H23739  13.570   7.531   9.029 -2.2503 -0.6736  0.2249
  176MOL0     H23740  12.507   7.227   8.642 -0.8021  0.7091  1.9057
  176MOL0     H23741  12.302   7.221   8.485 -1.5228 -0.7016  2.6908
  176MOL0     H23742  11.969   7.512   8.355  2.7447  0.8428 -0.9145
  176MOL0     H23743  11.727   7.504   8.303  0.4456  0.9480 -0.9467
  176MOL0     H23744  10.084   8.454   7.569 -0.4045  2.0777 -0.2976
  176MOL0     H23745   9.855   8.516   7.615  1.0946  2.7504 -1.6652
  176MOL0     H23746   9.529   8.451   7.840 -1.0758 -1.5528  1.3454
  176MOL0     H23747   9.313   8.380   7.869  1.4623 -1.3315 -0.0845
  176MOL0     H23748   9.109   8.297   7.959 -0.2968  0.5027 -2.6264
  176MOL0     H23749   9.077   8.450   7.884 -0.2304  1.1486 -0.0214
  176MOL0     H23750   8.896   8.491   8.040  2.1873  1.4940 -4.9304
  176MOL0     H23751   8.920   8.338   8.129 -0.4196  0.4759 -0.1927
  176MOL0     H23752   8.873   8.197   7.927 -0.2835  0.5929 -0.0706
  176MOL0     H23753   8.868   8.349   7.832  2.6698 -1.8715 -0.5016
  176MOL0     H23754   8.656   8.409   7.966  0.3324  0.6307  1.5935
  176MOL0     H23755   8.644   8.248   7.887  0.0887 -2.2339  2.0575
  176MOL0     H23756   8.590   8.138   8.272 -1.0071 -0.0379 -0.7355
  176MOL0     H23757   9.294   8.607   8.235 -0.8379  1.5203 -0.2598
  176MOL0     H23758   9.638   8.665   8.262 -0.1633  1.8826  2.5622
  176MOL0     H23759   9.566   8.809   8.180 -1.9504 -1.1602 -0.9330
  176MOL0     H23760   9.480   8.725   8.312  0.7019 -1.4713  1.2284
  177MOL0     O23761   4.303   2.983   1.843  0.4913  0.5081 -0.1915
  177MOL0     C23762   4.244   2.886   1.883 -0.1399 -0.7951  0.1870
  177MOL0     O23763   4.281   2.782   1.958 -0.6796  0.3460 -0.3953
  177MOL0     C23764   4.418   2.767   2.000 -0.0844  0.3682  0.0492
  177MOL0     C23765   4.509   2.874   2.010 -0.1418 -0.3277 -0.3301
  177MOL0     C23766   4.643   2.837   2.038 -0.4177  0.7285 -0.0014
  177MOL0     C23767   4.686   2.700   2.063  0.3997 -1.2811  0.0475
  177MOL0     O23768   4.815   2.658   2.086  0.6979 -0.0602 -0.1924
  177MOL0     C23769   4.893   2.741   2.174 -0.6846 -0.1812  0.2388
  177MOL0     C23770   4.988   2.666   2.262 -0.7810  0.0871  0.2165
  177MOL0     C23771   5.113   2.620   2.185  0.8561 -1.2706 -1.2976
  177MOL0     C23772   5.218   2.552   2.272  0.3228 -0.6325  0.5278
  177MOL0     C23773   5.300   2.648   2.366 -0.2194  0.0638 -0.5956
  177MOL0     C23774   5.341   2.786   2.301 -0.0861  0.7715 -0.3139
  177MOL0     C23775   5.449   2.764   2.186 -0.8334  0.0173 -0.3232
  177MOL0     C23776   5.585   2.721   2.241  0.0215 -0.2271  0.0592
  177MOL0     N23777   5.645   2.811   2.346  0.1719 -0.0966  0.4989
  177MOL0     C23778   5.755   2.895   2.337 -0.2881  0.4932 -0.3908
  177MOL0     C23779   5.784   2.926   2.465  0.1982 -0.1581  0.2378
  177MOL0     C23780   5.894   3.021   2.506  0.0850 -0.0932  0.0019
  177MOL0     C23781   5.834   3.132   2.604  0.0214  0.1032 -0.5178
  177MOL0     C23782   5.717   3.218   2.552  0.4287 -0.0865  0.3355
  177MOL0     C23783   5.578   3.167   2.553 -0.0912 -0.3387  0.4050
  177MOL0     O23784   5.481   3.269   2.537  0.5449  0.3616 -0.9304
  177MOL0     C23785   5.347   3.240   2.543 -0.0092  0.2108 -0.4456
  177MOL0     C23786   5.270   3.357   2.524 -0.0501  0.5323 -0.6995
  177MOL0     C23787   5.126   3.347   2.516 -0.0523 -0.3399  0.8874
  177MOL0     C23788   5.073   3.218   2.529  0.2291  0.2463 -0.0971
  177MOL0     C23789   4.927   3.206   2.506 -0.1440  0.5630  0.6216
  177MOL0     O23790   4.886   3.102   2.432 -0.2196  0.3871  0.1897
  177MOL0     C23791   4.743   3.101   2.415 -0.4962  0.7998  0.2742
  177MOL0     C23792   4.657   3.086   2.528  0.2617  0.4951  0.3213
  177MOL0     C23793   4.512   3.087   2.500 -0.8328 -0.4979  0.5043
  177MOL0     C23794   4.464   3.110   2.374 -0.2213  0.8707 -0.6565
  177MOL0     O23795   4.325   3.128   2.368 -0.3775 -0.1987  0.6574
  177MOL0     C23796   4.266   3.148   2.239 -0.2086 -0.5254 -0.4305
  177MOL0     C23797   4.260   3.297   2.204  0.0933 -0.5124  0.1199
  177MOL0     C23798   4.228   3.327   2.057 -0.6049  0.0359  0.2011
  177MOL0     C23799   4.262   3.474   2.019 -0.2169  0.1435 -0.4358
  177MOL0     C23800   4.260   3.519   1.877  0.5739 -0.3035  0.9401
  177MOL0     C23801   4.119   3.515   1.822 -0.5240  0.3171 -0.0333
  177MOL0     C23802   4.102   3.575   1.687  0.1374  0.0443 -0.6917
  177MOL0     C23803   3.960   3.610   1.669  1.3155  0.4295 -0.3307
  177MOL0    Cl23804   3.852   3.458   1.653 -0.2451 -0.0120 -0.3155
  177MOL0     C23805   4.554   3.124   2.269 -0.2550 -0.1783 -0.3940
  177MOL0     C23806   4.694   3.124   2.290 -0.2926 -1.2257  0.5368
  177MOL0     O23807   4.857   3.298   2.554 -0.0800  0.4363  0.1534
  177MOL0     C23808   5.152   3.104   2.545 -0.0676  0.3745  0.0735
  177MOL0     C23809   5.293   3.114   2.559  0.2307 -0.8024 -0.2546
  177MOL0     N23810   5.689   2.864   2.554 -1.1341 -0.1734  0.0230
  177MOL0     N23811   5.605   2.807   2.478 -0.1841  0.3973 -0.1116
  177MOL0     C23812   4.592   2.602   2.050 -0.1410 -0.1171  0.8441
  177MOL0     C23813   4.463   2.639   2.017  0.1762  0.1364  0.0893
  177MOL0     C23814   4.095   2.871   1.847  0.0762 -0.1039 -0.0705
  177MOL0     C23815   4.052   2.759   1.770  1.0609 -0.2203 -0.6586
  177MOL0     C23816   3.917   2.737   1.743  0.1595  0.1576 -0.2204
  177MOL0     C23817   3.816   2.822   1.789  0.4182 -0.0912 -0.7352
  177MOL0     O23818   3.681   2.814   1.753  0.3234  0.0651 -0.1329
  177MOL0     C23819   3.634   2.714   1.671  0.9559 -0.3421  0.4315
  177MOL0     C23820   3.488   2.665   1.704  0.9133 -0.1227 -0.4058
  177MOL0     C23821   3.398   2.683   1.581  0.0034  0.1464 -0.0526
  177MOL0     C23822   3.249   2.662   1.594 -0.3969  0.6395  0.3195
  177MOL0     C23823   3.181   2.750   1.691  0.4592  1.1037  0.1438
  177MOL0     C23824   3.119   2.819   1.776 -0.0494 -0.1775  0.6764
  177MOL0     C23825   3.856   2.936   1.860  0.3921 -0.2327  0.2839
  177MOL0     C23826   3.991   2.964   1.885  0.2740  0.3431 -0.1241
  177MOL0     C23827   4.035   3.084   1.951  0.3593 -0.0568  0.5483
  177MOL0     H23828   4.487   2.980   2.000 -0.1027 -0.2970 -0.0749
  177MOL0     H23829   4.725   2.908   2.039 -1.7430  2.3569  0.9816
  177MOL0     H23830   4.947   2.804   2.102 -2.8199  1.6426  0.1131
  177MOL0     H23831   4.829   2.809   2.231 -1.0524  0.8776 -1.3647
  177MOL0     H23832   4.946   2.577   2.309 -0.6771 -0.7439 -1.1990
  177MOL0     H23833   5.006   2.731   2.348 -2.8101  0.4502  0.4103
  177MOL0     H23834   5.144   2.706   2.126 -3.1480  0.5283 -1.1029
  177MOL0     H23835   5.080   2.542   2.116  0.5916 -1.9383 -0.4346
  177MOL0     H23836   5.177   2.472   2.335 -0.1871 -0.7690  0.0407
  177MOL0     H23837   5.294   2.517   2.202  1.9010  3.3639  0.0007
  177MOL0     H23838   5.249   2.673   2.460  1.5458  0.5620  0.2736
  177MOL0     H23839   5.387   2.587   2.390  0.7435 -0.2428 -4.2966
  177MOL0     H23840   5.254   2.842   2.265  0.2357  2.0941  0.8468
  177MOL0     H23841   5.371   2.854   2.382 -1.9534 -0.7212  1.7580
  177MOL0     H23842   5.455   2.858   2.130 -0.0980  0.2384  0.1212
  177MOL0     H23843   5.420   2.687   2.114 -1.9700  0.9888 -0.9566
  177MOL0     H23844   5.570   2.620   2.282  0.1649 -0.2649  0.0183
  177MOL0     H23845   5.647   2.722   2.152  1.3126  0.8031  0.9264
  177MOL0     H23846   5.811   2.929   2.250  1.0933 -1.3979 -0.3149
  177MOL0     H23847   5.980   2.976   2.556  1.0423 -0.1941 -1.6733
  177MOL0     H23848   5.946   3.067   2.421  0.2943  0.3174  0.3472
  177MOL0     H23849   5.815   3.087   2.701 -0.6671 -1.0064 -1.1456
  177MOL0     H23850   5.910   3.205   2.631  0.1912 -0.0138 -0.6748
  177MOL0     H23851   5.739   3.266   2.456  0.1314 -0.8975 -0.1469
  177MOL0     H23852   5.710   3.298   2.626 -0.9358 -1.1146  1.3756
  177MOL0     H23853   5.570   3.124   2.653 -2.2509  1.1763  0.9494
  177MOL0     H23854   5.567   3.090   2.476  0.0078 -0.5740  0.6262
  177MOL0     H23855   5.326   3.449   2.513 -0.9558  1.0269 -1.3060
  177MOL0     H23856   5.058   3.430   2.502  0.8034  0.2123 -0.1509
  177MOL0     H23857   4.690   3.075   2.631 -2.1105  3.0582  1.4716
  177MOL0     H23858   4.437   3.075   2.577 -0.1306  1.1513  1.5037
  177MOL0     H23859   4.307   3.088   2.156  0.8159 -1.4949  0.7277
  177MOL0     H23860   4.162   3.121   2.256 -0.8663  1.8662 -0.2947
  177MOL0     H23861   4.188   3.349   2.268  0.3787 -2.1930  1.9197
  177MOL0     H23862   4.356   3.339   2.233  1.0173 -1.9699 -0.7297
  177MOL0     H23863   4.286   3.265   1.988  0.3347  0.5269  0.5429
  177MOL0     H23864   4.121   3.312   2.037 -0.0618 -2.9478 -0.9792
  177MOL0     H23865   4.365   3.476   2.055 -0.0855  2.1506 -0.8183
  177MOL0     H23866   4.194   3.539   2.075 -1.1733  0.2106 -1.6186
  177MOL0     H23867   4.325   3.455   1.816 -0.9504 -2.5549  1.5481
  177MOL0     H23868   4.301   3.621   1.875  0.4169 -0.2119  1.8540
  177MOL0     H23869   4.080   3.413   1.827 -1.2235  0.6472  2.5524
  177MOL0     H23870   4.057   3.563   1.899 -0.8437  1.5985 -1.0301
  177MOL0     H23871   4.127   3.499   1.612 -1.0129 -1.4753  0.3864
  177MOL0     H23872   4.170   3.657   1.663  2.4063 -1.1629  1.1474
  177MOL0     H23873   3.925   3.680   1.746 -0.1143 -0.3738 -0.2068
  177MOL0     H23874   3.950   3.655   1.570 -2.1759 -0.2998 -0.4245
  177MOL0     H23875   4.521   3.152   2.170 -3.1471 -0.5946  0.3874
  177MOL0     H23876   4.761   3.141   2.206 -1.2542  0.7569  0.1060
  177MOL0     H23877   5.100   3.009   2.545 -2.6592  1.6787  1.0910
  177MOL0     H23878   5.356   3.027   2.572  0.7987 -0.1838  1.5666
  177MOL0     H23879   4.615   2.499   2.074  0.3558 -0.0138  0.8181
  177MOL0     H23880   4.393   2.556   2.022 -0.2811  0.5795  1.1542
  177MOL0     H23881   4.133   2.697   1.734 -1.0772 -3.0400 -0.9678
  177MOL0     H23882   3.885   2.659   1.673 -1.0411  0.7178 -0.3121
  177MOL0     H23883   3.693   2.621   1.675  2.9930  0.5447 -3.5458
  177MOL0     H23884   3.646   2.746   1.567 -0.3657 -0.1359  0.3204
  177MOL0     H23885   3.450   2.724   1.788 -1.1242 -1.5047 -0.2730
  177MOL0     H23886   3.481   2.561   1.739 -0.2633 -0.3967 -1.3518
  177MOL0     H23887   3.448   2.615   1.512  1.3181 -0.4995  1.4705
  177MOL0     H23888   3.413   2.791   1.566 -2.5776  0.8899  1.8732
  177MOL0     H23889   3.207   2.675   1.493  1.8997  0.1257 -0.7689
  177MOL0     H23890   3.225   2.558   1.617  0.9268  0.3273  0.3953
  177MOL0     H23891   3.079   2.892   1.844 -0.4069  0.4432 -0.1779
  177MOL0     H23892   3.789   3.021   1.872  3.4962  2.3621  0.9151
  177MOL0     H23893   4.079   3.156   1.882 -0.7708  0.9684  0.8491
  177MOL0     H23894   3.938   3.127   1.980 -1.2480 -1.1050 -2.7707
  177MOL0     H23895   4.098   3.057   2.036  0.3428 -2.6144 -0.1807
  178MOL0     O23896   0.296  10.687   9.746 -0.1519 -0.4681  0.0672
  178MOL0     C23897   0.341  10.634   9.846  0.0432 -0.2410 -0.7081
  178MOL0     O23898   0.473  10.593   9.868  0.2538  0.3749  0.9053
  178MOL0     C23899   0.563  10.634   9.775 -0.0114  0.2664  0.2091
  178MOL0     C23900   0.606  10.768   9.767 -0.5391 -0.2435 -0.6321
  178MOL0     C23901   0.717  10.800   9.675  0.3321 -0.0347 -0.2555
  178MOL0     C23902   0.763  10.699   9.583 -0.1089  0.0529  0.3005
  178MOL0     O23903   0.863  10.722   9.495  0.2669  0.1819 -0.0995
  178MOL0     C23904   0.972  10.808   9.531 -0.8861 -0.3592 -0.9022
  178MOL0     C23905   1.070  10.816   9.421 -0.6050 -0.0147  0.4526
  178MOL0     C23906   1.210  10.871   9.452 -0.2483  0.0574 -0.2627
  178MOL0     C23907   1.291  10.870   9.312 -0.2582 -0.3580 -1.2083
  178MOL0     C23908   1.425  10.940   9.332 -0.4513  0.2542  0.4268
  178MOL0     C23909   1.513  10.837   9.408 -0.5577 -0.0036 -0.7798
  178MOL0     C23910   1.658  10.888   9.374  0.6549 -0.3747 -0.4129
  178MOL0     C23911   1.763  10.811   9.472  0.0958 -0.2911 -0.1779
  178MOL0     N23912   1.904  10.838   9.431  0.7166  0.1528  0.0978
  178MOL0     C23913   1.985  10.928   9.486  0.0684 -0.3944  0.2269
  178MOL0     C23914   2.099  10.899   9.421  0.5247 -0.1054 -0.1161
  178MOL0     C23915   2.231  10.967   9.442  0.2497  0.0361  0.0736
  178MOL0     C23916   2.265  11.069   9.333 -0.6416 -0.1920  0.0058
  178MOL0     C23917   2.163  11.172   9.302  0.3412 -0.0443  0.6027
  178MOL0     C23918   2.211  11.271   9.189  0.0983  0.2381  0.3696
  178MOL0     O23919   2.335  11.333   9.219 -0.3893  0.7444  1.0149
  178MOL0     C23920   2.449  11.271   9.170  0.5013  0.6171 -0.2887
  178MOL0     C23921   2.457  11.161   9.086 -1.1421 -0.3188  0.1527
  178MOL0     C23922   2.587  11.108   9.059  0.4283 -0.4572  0.2992
  178MOL0     C23923   2.696  11.167   9.118 -0.2922 -0.3708  0.4987
  178MOL0     C23924   2.832  11.111   9.090  0.1837 -0.1971  0.7104
  178MOL0     O23925   2.855  10.983   9.049  0.0115 -0.5474 -0.2874
  178MOL0     C23926   2.976  10.932   9.014  0.7327 -0.8655 -0.0697
  178MOL0     C23927   3.024  10.824   9.089 -0.3597 -0.1095  0.2990
  178MOL0     C23928   3.146  10.764   9.042 -0.3052 -0.9291  0.2622
  178MOL0     C23929   3.203  10.813   8.923  0.1903 -1.4219  0.1957
  178MOL0     O23930   3.323  10.765   8.876  0.1081 -0.8493 -0.3051
  178MOL0     C23931   3.439  10.763   8.969 -0.2670 -0.6826 -0.4428
  178MOL0     C23932   3.540  10.877   8.934  0.0315 -0.4587  0.3828
  178MOL0     C23933   3.685  10.844   8.989  0.1266  0.3429 -0.1369
  178MOL0     C23934   3.778  10.955   8.945  0.0639  0.8918 -0.6097
  178MOL0     C23935   3.915  10.913   9.000 -0.1007  0.1741 -0.6608
  178MOL0     C23936   4.027  11.015   8.991  0.3614  0.1443  0.6419
  178MOL0     C23937   3.991  11.146   9.050 -0.3554  0.3479  0.0664
  178MOL0     C23938   4.117  11.230   9.082 -0.6458 -0.0083  0.6616
  178MOL0    Cl23939   4.069  11.364   9.187 -0.1061 -0.1779  0.1348
  178MOL0     C23940   3.153  10.921   8.848 -0.3823  0.3858  0.5807
  178MOL0     C23941   3.035  10.985   8.897 -0.5792  0.0094  0.0275
  178MOL0     O23942   2.917  11.198   9.100  0.8033 -0.2322 -0.0948
  178MOL0     C23943   2.692  11.277   9.206  0.6246  0.2612  0.6879
  178MOL0     C23944   2.564  11.326   9.229 -0.1928  0.1211  0.8055
  178MOL0     N23945   2.085  10.808   9.324  0.2749 -0.1472 -0.3561
  178MOL0     N23946   1.962  10.768   9.329 -0.3988  0.0528  0.5575
  178MOL0     C23947   0.704  10.574   9.581  0.3333  0.2376  0.0170
  178MOL0     C23948   0.612  10.538   9.683 -1.5946 -0.0978 -0.2767
  178MOL0     C23949   0.255  10.613   9.966  0.1739  0.2776  0.0263
  178MOL0     C23950   0.317  10.613  10.092  0.1842 -0.1630 -0.1347
  178MOL0     C23951   0.252  10.584  10.208  0.1972  0.4695  0.5261
  178MOL0     C23952   0.120  10.547  10.206 -0.5131  0.0511  1.1059
  178MOL0     O23953   0.065  10.527  10.331 -0.7416 -0.4794 -0.4454
  178MOL0     C23954  -0.081  10.547  10.345 -0.3923 -0.2890 -0.8280
  178MOL0     C23955  -0.106  10.568  10.507  0.5976 -0.7632 -1.0391
  178MOL0     C23956  -0.250  10.591  10.534 -0.1702 -0.4516  0.6098
  178MOL0     C23957  -0.302  10.734  10.509  0.2126  0.0785 -0.4639
  178MOL0     C23958  -0.450  10.739  10.526  0.3121 -0.4793 -0.8290
  178MOL0     C23959  -0.566  10.741  10.548  0.7460 -0.2704 -0.0374
  178MOL0     C23960   0.054  10.554  10.081  0.2217 -0.0653  0.0880
  178MOL0     C23961   0.123  10.585   9.963  0.9990 -0.2310  0.0834
  178MOL0     C23962   0.051  10.566   9.828  0.5090 -0.6808  0.8357
  178MOL0     H23963   0.578  10.845   9.839  2.3267 -2.4763  3.2359
  178MOL0     H23964   0.757  10.901   9.670 -2.5495  1.2406 -0.0908
  178MOL0     H23965   0.933  10.907   9.557 -1.2554 -0.7233 -0.0274
  178MOL0     H23966   1.027  10.772   9.618 -1.3500  2.6155  0.7461
  178MOL0     H23967   1.018  10.870   9.341  0.5121 -1.4692 -1.3378
  178MOL0     H23968   1.075  10.714   9.383 -1.3163  0.6682 -1.6515
  178MOL0     H23969   1.269  10.808   9.520  0.0473 -1.4949 -1.8783
  178MOL0     H23970   1.210  10.969   9.500  0.8998  0.6547 -1.4396
  178MOL0     H23971   1.300  10.765   9.281  1.4542 -0.1081 -1.6985
  178MOL0     H23972   1.234  10.920   9.234 -0.3594  0.8453 -0.3821
  178MOL0     H23973   1.470  10.961   9.235  0.7077  0.6971  1.0500
  178MOL0     H23974   1.408  11.034   9.386 -0.7966  0.4083  0.0575
  178MOL0     H23975   1.490  10.830   9.515  1.1431  0.3412 -0.3564
  178MOL0     H23976   1.501  10.735   9.372  0.0636  0.5787 -2.7514
  178MOL0     H23977   1.656  10.997   9.380 -1.6314 -0.4439  1.3296
  178MOL0     H23978   1.675  10.860   9.269  1.4950  1.2742 -0.7397
  178MOL0     H23979   1.755  10.837   9.578  0.0801 -0.5351 -0.1181
  178MOL0     H23980   1.747  10.703   9.466 -1.5479 -0.0115 -1.4648
  178MOL0     H23981   1.972  11.005   9.561  1.7539  2.4362 -2.1332
  178MOL0     H23982   2.227  11.015   9.541 -1.2245  4.0290 -1.7151
  178MOL0     H23983   2.305  10.887   9.444 -0.4290 -0.6043  0.0770
  178MOL0     H23984   2.362  11.114   9.358 -0.3485 -0.3634 -0.7709
  178MOL0     H23985   2.290  11.018   9.239  1.0016  2.7797 -1.3006
  178MOL0     H23986   2.132  11.227   9.391 -0.8517 -4.1028  2.9321
  178MOL0     H23987   2.070  11.122   9.274 -2.0148  4.0597  0.2323
  178MOL0     H23988   2.136  11.348   9.171  1.5965  1.2432 -2.1053
  178MOL0     H23989   2.211  11.211   9.098 -2.8704 -0.7773  0.9500
  178MOL0     H23990   2.371  11.119   9.036 -1.2985  0.1579  0.0154
  178MOL0     H23991   2.593  11.024   8.990  0.2834 -0.4382  0.2607
  178MOL0     H23992   2.973  10.799   9.182 -0.0119  1.1038  0.8255
  178MOL0     H23993   3.190  10.690   9.107 -2.6360 -0.9826  1.8667
  178MOL0     H23994   3.404  10.775   9.072 -0.0836  0.8506 -0.5331
  178MOL0     H23995   3.492  10.668   8.952 -0.9393 -1.3035  0.8198
  178MOL0     H23996   3.550  10.890   8.826 -0.5806 -2.3327  0.0507
  178MOL0     H23997   3.512  10.968   8.988 -1.4761 -0.6315 -0.0636
  178MOL0     H23998   3.690  10.845   9.099  1.6481 -2.7703 -0.0850
  178MOL0     H23999   3.726  10.749   8.955 -0.7599  0.5317 -1.8062
  178MOL0     H24000   3.747  11.051   8.989  1.7457  1.0049  0.3923
  178MOL0     H24001   3.777  10.963   8.835 -2.4894 -0.2335 -0.7296
  178MOL0     H24002   3.947  10.818   8.955  0.2011  2.0029 -4.7675
  178MOL0     H24003   3.908  10.893   9.108 -0.4810  1.6527 -0.3981
  178MOL0     H24004   4.106  10.967   9.050 -1.3338 -2.4477  1.0263
  178MOL0     H24005   4.045  11.034   8.885 -3.2956 -1.1176 -0.3629
  178MOL0     H24006   3.933  11.120   9.138 -2.1985 -1.8953 -1.6940
  178MOL0     H24007   3.932  11.204   8.978 -0.3015  2.5607  1.7144
  178MOL0     H24008   4.187  11.170   9.140  0.6320  2.7022  2.0978
  178MOL0     H24009   4.163  11.263   8.988  0.1172 -1.2463  0.5849
  178MOL0     H24010   3.215  10.945   8.763 -2.4579  0.6589 -0.9230
  178MOL0     H24011   2.978  11.066   8.852  0.3835  0.1247 -1.0239
  178MOL0     H24012   2.778  11.308   9.264  1.2390  0.5799 -0.3756
  178MOL0     H24013   2.550  11.414   9.291 -3.8407 -1.1700  2.1104
  178MOL0     H24014   0.733  10.498   9.509 -0.4102 -0.1251  0.0849
  178MOL0     H24015   0.589  10.435   9.708  2.8295 -0.9606  1.1983
  178MOL0     H24016   0.414  10.661  10.102  0.7213 -1.3831  0.8322
  178MOL0     H24017   0.292  10.589  10.309  0.3619  0.5295  0.4582
  178MOL0     H24018  -0.152  10.471  10.308 -2.4609 -0.0403  2.2917
  178MOL0     H24019  -0.108  10.639  10.293 -2.2722 -1.7089 -2.5616
  178MOL0     H24020  -0.043  10.649  10.545  0.5487 -0.5167 -1.4737
  178MOL0     H24021  -0.076  10.477  10.560 -1.6655 -0.7547  0.3982
  178MOL0     H24022  -0.251  10.568  10.641 -1.5894 -2.0118  0.3045
  178MOL0     H24023  -0.311  10.528  10.469 -1.6954  2.0885 -0.6111
  178MOL0     H24024  -0.255  10.800  10.583 -3.4512  0.7107  1.5206
  178MOL0     H24025  -0.282  10.775  10.410 -0.7348 -1.0478 -1.1434
  178MOL0     H24026  -0.671  10.739  10.569  0.8109 -3.1556  0.4332
  178MOL0     H24027  -0.051  10.524  10.074 -0.3211  1.8857 -0.8260
  178MOL0     H24028  -0.048  10.526   9.852  0.5448 -0.1070  2.0389
  178MOL0     H24029   0.052  10.659   9.769  0.3929 -0.1973  1.5755
  178MOL0     H24030   0.096  10.488   9.768 -0.2729 -0.3317 -0.2333
  179MOL0     O24031  10.951   9.028   1.419 -0.2964  0.0083 -0.1525
  179MOL0     C24032  10.869   9.112   1.439  0.0772  0.0606  0.0375
  179MOL0     O24033  10.893   9.245   1.466  0.0384 -0.7364 -0.1837
  179MOL0     C24034  11.018   9.294   1.485 -0.4228 -0.0025  0.0559
  179MOL0     C24035  11.054   9.407   1.411  0.0686  0.1900  0.2423
  179MOL0     C24036  11.183   9.455   1.431  0.5523  0.3820  0.4062
  179MOL0     C24037  11.270   9.398   1.523  0.0661 -1.3489 -0.2526
  179MOL0     O24038  11.392   9.457   1.535 -0.1846  0.3026  0.9466
  179MOL0     C24039  11.474   9.421   1.643 -0.2868 -0.6355 -0.1821
  179MOL0     C24040  11.574   9.306   1.614  1.0273 -0.8235 -0.1568
  179MOL0     C24041  11.688   9.311   1.720  1.1970  0.2970  0.5926
  179MOL0     C24042  11.820   9.252   1.663 -0.4218  0.0425  0.5001
  179MOL0     C24043  11.960   9.284   1.720  0.1419  0.0902  0.4374
  179MOL0     C24044  11.966   9.201   1.848 -0.1403  0.0411 -0.3849
  179MOL0     C24045  12.082   9.250   1.927 -0.5002 -0.3459  0.0618
  179MOL0     C24046  12.100   9.169   2.058  0.3533 -0.3618 -0.4314
  179MOL0     N24047  12.156   9.036   2.037 -0.5328 -0.3086  0.0974
  179MOL0     C24048  12.098   8.921   1.990  0.5015  0.4028  0.6383
  179MOL0     C24049  12.203   8.840   1.963 -0.7367  1.7556  0.3944
  179MOL0     C24050  12.173   8.700   1.928  0.6775 -0.1381 -0.4260
  179MOL0     C24051  12.294   8.615   1.944  0.6473 -0.0627 -0.1378
  179MOL0     C24052  12.272   8.472   1.906  0.7925  0.3375 -0.6192
  179MOL0     C24053  12.404   8.400   1.905 -0.0835 -0.1275 -0.2936
  179MOL0     O24054  12.446   8.379   2.045 -0.3602  0.5730 -0.5826
  179MOL0     C24055  12.570   8.426   2.076  0.5895  0.1761 -0.2713
  179MOL0     C24056  12.589   8.443   2.212 -0.1770  0.6459 -0.1984
  179MOL0     C24057  12.717   8.472   2.270 -0.0470 -0.4965 -0.8823
  179MOL0     C24058  12.828   8.479   2.191  0.1974 -0.5474  0.4143
  179MOL0     C24059  12.956   8.521   2.258 -0.1389  0.0066  0.3670
  179MOL0     O24060  12.952   8.534   2.392 -0.5482 -0.5417  0.2405
  179MOL0     C24061  13.072   8.526   2.467  1.2503 -0.1864  1.0672
  179MOL0     C24062  13.094   8.601   2.577 -0.4616  0.1589 -0.0566
  179MOL0     C24063  13.218   8.597   2.653 -0.4465 -0.1261 -0.1537
  179MOL0     C24064  13.318   8.501   2.618  0.7810 -0.4518  0.4407
  179MOL0     O24065  13.445   8.489   2.671  0.0510 -0.2556  0.0996
  179MOL0     C24066  13.485   8.569   2.780  0.4940  1.1096  0.4764
  179MOL0     C24067  13.613   8.495   2.822 -0.2061  0.0636 -1.0437
  179MOL0     C24068  13.723   8.513   2.717 -0.0917  0.0830  0.6972
  179MOL0     C24069  13.856   8.480   2.756 -0.2334 -0.7937  1.0535
  179MOL0     C24070  13.953   8.467   2.643  0.3781  0.0962  0.3340
  179MOL0     C24071  14.006   8.599   2.600 -0.9983  0.1372 -0.0130
  179MOL0     C24072  14.116   8.654   2.698 -0.0509 -0.2107 -0.2074
  179MOL0     C24073  14.213   8.754   2.623 -0.6492 -0.1502 -0.0240
  179MOL0    Cl24074  14.351   8.802   2.735 -0.3023  0.2956  0.3107
  179MOL0     C24075  13.288   8.423   2.512 -0.2896 -0.5328  1.8473
  179MOL0     C24076  13.169   8.437   2.431  0.3068  0.9436  0.5495
  179MOL0     O24077  13.053   8.525   2.181  0.4482 -0.0183 -0.3042
  179MOL0     C24078  12.817   8.454   2.051 -0.0382 -0.6477 -0.1792
  179MOL0     C24079  12.685   8.438   1.998 -1.2247 -0.8128  0.4766
  179MOL0     N24080  12.327   8.906   1.981  0.3808  0.5414 -0.2359
  179MOL0     N24081  12.293   9.023   2.022  0.2430 -0.8911  0.4071
  179MOL0     C24082  11.236   9.282   1.590 -0.3690 -0.5543 -0.5672
  179MOL0     C24083  11.103   9.234   1.572 -0.5438  0.5033 -0.8527
  179MOL0     C24084  10.723   9.073   1.449  0.0677  0.2793  0.0748
  179MOL0     C24085  10.642   9.160   1.525  0.0509 -0.1248 -0.0233
  179MOL0     C24086  10.503   9.135   1.541 -0.3258 -0.4759 -0.1717
  179MOL0     C24087  10.443   9.018   1.490  0.3643 -0.0664 -0.7921
  179MOL0     O24088  10.317   9.009   1.518  0.3769 -0.0405  0.0481
  179MOL0     C24089  10.245   8.900   1.463  1.1789  0.2239  0.1528
  179MOL0     C24090  10.101   8.921   1.476  0.6073  0.2787 -0.7147
  179MOL0     C24091  10.045   8.888   1.623 -0.3699 -0.3325  0.4119
  179MOL0     C24092   9.888   8.891   1.629 -0.3440 -0.5424 -0.2675
  179MOL0     C24093   9.841   9.032   1.610  0.6165  0.3033  0.5179
  179MOL0     C24094   9.797   9.144   1.579 -0.1926  0.5537 -0.2961
  179MOL0     C24095  10.525   8.931   1.420  0.1789  0.2912 -0.2303
  179MOL0     C24096  10.663   8.951   1.396  0.6834 -0.2824  0.0639
  179MOL0     C24097  10.736   8.846   1.316 -0.2222  0.1802 -0.4907
  179MOL0     H24098  10.992   9.456   1.338 -2.0303  1.5590  2.7725
  179MOL0     H24099  11.204   9.547   1.377  0.6648 -0.7357 -1.5531
  179MOL0     H24100  11.535   9.509   1.664  0.9118 -1.8516  1.7847
  179MOL0     H24101  11.416   9.410   1.735 -0.5569 -2.4764 -0.5350
  179MOL0     H24102  11.624   9.313   1.517  1.6836  0.7505  0.2743
  179MOL0     H24103  11.519   9.211   1.622 -1.4647  0.3065 -2.4621
  179MOL0     H24104  11.651   9.252   1.804 -0.1062 -0.0620 -0.2077
  179MOL0     H24105  11.702   9.410   1.764  0.2836  0.2886  0.9329
  179MOL0     H24106  11.804   9.144   1.671  0.5736 -0.0681  1.2960
  179MOL0     H24107  11.829   9.287   1.560 -1.5366 -0.4641  0.2236
  179MOL0     H24108  12.044   9.253   1.657 -0.6078  0.8773 -1.0200
  179MOL0     H24109  11.976   9.391   1.741 -0.8750  0.2617  0.3876
  179MOL0     H24110  11.878   9.213   1.911  1.1952  2.4210  1.1953
  179MOL0     H24111  11.974   9.096   1.817  1.8264 -0.0032  0.1056
  179MOL0     H24112  12.072   9.352   1.967 -3.0918 -0.2536 -0.6477
  179MOL0     H24113  12.176   9.250   1.871  0.0356  0.4562  0.9135
  179MOL0     H24114  12.170   9.218   2.126  0.6288 -5.3489  3.3783
  179MOL0     H24115  12.004   9.164   2.110  0.4300  1.5779 -0.0266
  179MOL0     H24116  11.993   8.896   1.992  1.1267 -2.5846  0.7677
  179MOL0     H24117  12.090   8.665   1.991  0.1089  0.7623 -0.6462
  179MOL0     H24118  12.134   8.703   1.825 -2.5698 -1.8610  0.6055
  179MOL0     H24119  12.381   8.648   1.887  1.0316  0.7324  0.8736
  179MOL0     H24120  12.311   8.621   2.052  0.5610 -0.1140 -0.1215
  179MOL0     H24121  12.225   8.478   1.807 -1.8174  0.6444  0.5473
  179MOL0     H24122  12.191   8.431   1.967 -0.1980  0.1174 -2.0133
  179MOL0     H24123  12.480   8.455   1.847  0.0693 -1.7552 -1.7130
  179MOL0     H24124  12.397   8.297   1.869  0.1764 -0.1508 -0.2834
  179MOL0     H24125  12.503   8.434   2.278  0.7569 -0.4037  0.9233
  179MOL0     H24126  12.719   8.491   2.377  0.6918 -2.9448 -0.3954
  179MOL0     H24127  13.025   8.673   2.620  1.1710 -0.1913  3.5804
  179MOL0     H24128  13.236   8.665   2.736  3.3336  1.7058 -2.2304
  179MOL0     H24129  13.502   8.668   2.738 -3.7681  0.5732 -3.3432
  179MOL0     H24130  13.410   8.577   2.859  0.3101  2.9447  0.1498
  179MOL0     H24131  13.643   8.539   2.918  4.0468 -1.7548 -1.3030
  179MOL0     H24132  13.591   8.390   2.841 -2.0805  0.6315  0.1557
  179MOL0     H24133  13.703   8.451   2.629  2.0644 -1.6820  1.3639
  179MOL0     H24134  13.720   8.615   2.677 -0.4738  0.2379  1.1243
  179MOL0     H24135  13.855   8.387   2.814  0.9924  1.0441  4.2571
  179MOL0     H24136  13.894   8.548   2.833  0.3182 -0.0893  0.1807
  179MOL0     H24137  13.901   8.416   2.562 -2.0256 -1.2282  2.5779
  179MOL0     H24138  14.030   8.392   2.665 -0.1807 -2.3613 -4.7236
  179MOL0     H24139  14.063   8.578   2.509  0.6960  1.2374  0.7508
  179MOL0     H24140  13.926   8.672   2.584 -0.8522  0.5192  0.9483
  179MOL0     H24141  14.169   8.575   2.751  2.9353  2.9235  1.9156
  179MOL0     H24142  14.060   8.704   2.777 -0.9012 -0.1126 -0.8575
  179MOL0     H24143  14.250   8.700   2.535  2.7821  1.8576  0.0184
  179MOL0     H24144  14.167   8.844   2.584 -1.0619 -0.8631 -1.2469
  179MOL0     H24145  13.369   8.362   2.475 -1.0980  0.2366 -1.5488
  179MOL0     H24146  13.156   8.361   2.353  1.0859 -2.4363  3.4466
  179MOL0     H24147  12.911   8.445   1.998  0.4866  0.8252  0.4453
  179MOL0     H24148  12.685   8.412   1.893  2.4423 -3.9577  1.0278
  179MOL0     H24149  11.297   9.218   1.652 -1.6470 -1.6765 -0.4098
  179MOL0     H24150  11.071   9.144   1.622 -0.3001  1.2120  0.6382
  179MOL0     H24151  10.684   9.246   1.576  0.3778 -0.5376  0.4086
  179MOL0     H24152  10.448   9.202   1.606  1.3123 -1.1293  2.0108
  179MOL0     H24153  10.278   8.808   1.512 -2.2560 -1.7983 -0.9795
  179MOL0     H24154  10.270   8.885   1.357 -1.4197  0.2082 -0.5068
  179MOL0     H24155  10.051   8.851   1.410  3.2634  0.0088 -2.5878
  179MOL0     H24156  10.076   9.025   1.454  4.5909  1.5450 -0.0342
  179MOL0     H24157  10.087   8.961   1.692 -2.0923  0.4869  0.6183
  179MOL0     H24158  10.082   8.791   1.658 -0.6138 -0.3945  0.4969
  179MOL0     H24159   9.843   8.834   1.546 -0.3573  1.3254 -1.6099
  179MOL0     H24160   9.855   8.849   1.724  2.3531 -1.0755  0.5112
  179MOL0     H24161   9.754   9.236   1.546  1.7601  0.8122 -2.3862
  179MOL0     H24162  10.489   8.840   1.372  1.4370  0.0192 -0.6980
  179MOL0     H24163  10.727   8.861   1.208 -1.5726  1.1502 -0.2800
  179MOL0     H24164  10.841   8.834   1.342 -0.6491 -1.1245  0.7886
  179MOL0     H24165  10.682   8.753   1.335 -1.0719  0.9763  1.2204
  180MOL0     O24166   9.096   9.378   7.276 -0.2512  0.0497  0.0803
  180MOL0     C24167   9.034   9.436   7.364 -0.4565 -0.5370 -0.5783
  180MOL0     O24168   9.088   9.522   7.458 -0.0045  0.2677 -0.0180
  180MOL0     C24169   9.208   9.568   7.426  0.4299 -0.0827  0.9652
  180MOL0     C24170   9.219   9.706   7.399  0.0131  0.1575  0.3539
  180MOL0     C24171   9.340   9.758   7.368 -0.3404  0.1486  0.4130
  180MOL0     C24172   9.455   9.684   7.380 -0.1051  0.3072  0.1805
  180MOL0     O24173   9.575   9.745   7.356 -1.2184 -0.2532 -0.0491
  180MOL0     C24174   9.698   9.667   7.365 -0.1459  0.4294  0.2203
  180MOL0     C24175   9.733   9.592   7.237 -0.0157  0.0278 -0.6954
  180MOL0     C24176   9.871   9.515   7.254  0.9855 -0.3586 -0.2294
  180MOL0     C24177   9.937   9.505   7.112 -0.3794  0.2246  0.3557
  180MOL0     C24178  10.085   9.457   7.146 -0.7982 -0.7753 -0.3629
  180MOL0     C24179  10.168   9.439   7.018 -0.0746  0.2107 -0.1968
  180MOL0     C24180  10.315   9.425   7.032  0.6527 -0.4517  0.4004
  180MOL0     C24181  10.366   9.314   7.124  0.0117  0.1419  0.5654
  180MOL0     N24182  10.509   9.312   7.125 -0.9114  0.3904  0.0723
  180MOL0     C24183  10.587   9.414   7.157 -0.5451  0.5268 -0.0940
  180MOL0     C24184  10.714   9.361   7.142  0.1990  0.8728 -0.5562
  180MOL0     C24185  10.838   9.443   7.151  0.5907 -0.4002 -0.4386
  180MOL0     C24186  10.930   9.394   7.256 -0.8388  0.5255 -0.6331
  180MOL0     C24187  11.069   9.462   7.258 -0.6612  0.6437 -0.1445
  180MOL0     C24188  11.162   9.404   7.361  0.5241 -0.9095 -0.4103
  180MOL0     O24189  11.272   9.324   7.306  0.0625 -0.3257 -0.1360
  180MOL0     C24190  11.386   9.388   7.255  0.8052 -0.0188 -0.3838
  180MOL0     C24191  11.437   9.349   7.131  0.0812 -0.5503  0.9707
  180MOL0     C24192  11.561   9.404   7.081 -0.1654  0.2440 -0.1004
  180MOL0     C24193  11.639   9.486   7.167 -0.0693  0.0755  0.2029
  180MOL0     C24194  11.783   9.507   7.142  0.1295  0.2805 -1.0970
  180MOL0     O24195  11.859   9.562   7.246  0.6256  0.1677  0.4729
  180MOL0     C24196  11.991   9.586   7.211  0.3901 -0.6128  0.1297
  180MOL0     C24197  12.049   9.636   7.087  0.6920 -0.0893 -0.8417
  180MOL0     C24198  12.185   9.653   7.071  0.3035 -0.1274  0.0314
  180MOL0     C24199  12.271   9.630   7.184  0.3930  0.0234  0.5379
  180MOL0     O24200  12.400   9.666   7.164 -0.4462 -0.5650 -0.3056
  180MOL0     C24201  12.437   9.776   7.240  0.2518 -0.6864 -0.2663
  180MOL0     C24202  12.582   9.796   7.208  0.2823 -0.5458  0.1137
  180MOL0     C24203  12.626   9.907   7.281 -0.4462  0.6876 -0.1557
  180MOL0     C24204  12.776   9.946   7.261  0.1579 -0.4718  0.2848
  180MOL0     C24205  12.834   9.995   7.392 -0.7678  0.0348  0.5596
  180MOL0     C24206  12.967  10.074   7.380  0.5227  0.4108 -1.0761
  180MOL0     C24207  13.014  10.116   7.520  0.2767  0.0589 -0.1542
  180MOL0     C24208  13.131  10.204   7.505 -0.0439  0.5334  0.6242
  180MOL0    Cl24209  13.278  10.109   7.504 -0.1698  0.1980  0.1969
  180MOL0     C24210  12.219   9.574   7.304 -0.0149 -0.0573 -0.8204
  180MOL0     C24211  12.083   9.558   7.316  0.0795 -0.2836  0.4851
  180MOL0     O24212  11.819   9.483   7.025  0.0400 -0.5845  0.2758
  180MOL0     C24213  11.575   9.538   7.282  1.2072  0.4976  0.2437
  180MOL0     C24214  11.455   9.481   7.327 -0.5970  0.2881 -0.0120
  180MOL0     N24215  10.711   9.225   7.111 -0.1579 -0.3271  0.1236
  180MOL0     N24216  10.584   9.198   7.093  0.0007  0.4602 -0.3600
  180MOL0     C24217   9.451   9.544   7.402  0.5490 -0.3236 -1.0122
  180MOL0     C24218   9.328   9.489   7.440  0.7127 -0.0715  0.3747
  180MOL0     C24219   8.894   9.407   7.387  0.0458  0.5451  0.3726
  180MOL0     C24220   8.808   9.522   7.399  0.5500  1.0000 -0.7861
  180MOL0     C24221   8.666   9.502   7.405  0.3217 -0.7162  0.5251
  180MOL0     C24222   8.618   9.370   7.415  0.1062 -0.6906  0.0624
  180MOL0     O24223   8.483   9.343   7.423 -0.2691  0.5064 -0.2564
  180MOL0     C24224   8.379   9.447   7.441 -0.0868  1.2417  0.0434
  180MOL0     C24225   8.234   9.381   7.442  0.1249 -0.0817  0.1550
  180MOL0     C24226   8.157   9.386   7.314 -0.3996 -0.1805  0.1500
  180MOL0     C24227   8.238   9.309   7.207  0.3658  0.4398 -0.2008
  180MOL0     C24228   8.160   9.300   7.081  0.0380  0.0779 -0.2930
  180MOL0     C24229   8.100   9.287   6.976 -0.8904 -0.7297  0.1576
  180MOL0     C24230   8.703   9.266   7.398 -1.2208  0.3894 -0.0331
  180MOL0     C24231   8.845   9.272   7.393  0.4532 -0.4489  0.0214
  180MOL0     C24232   8.930   9.151   7.388  0.7012  0.8067  0.1444
  180MOL0     H24233   9.139   9.780   7.398  0.9320  1.2271 -2.0490
  180MOL0     H24234   9.342   9.862   7.338 -1.6316 -0.1845 -0.9436
  180MOL0     H24235   9.780   9.738   7.380 -1.5750  2.1804  0.0544
  180MOL0     H24236   9.702   9.599   7.451 -2.0945  1.4158  1.1540
  180MOL0     H24237   9.737   9.665   7.156  1.3282 -0.3772 -1.0287
  180MOL0     H24238   9.654   9.518   7.217  1.5891 -2.5004  1.6480
  180MOL0     H24239   9.852   9.417   7.297 -0.0844  0.1094  0.4127
  180MOL0     H24240   9.935   9.562   7.330 -1.4286  2.5305  0.2041
  180MOL0     H24241   9.873   9.433   7.060 -2.0424 -0.5845  3.2759
  180MOL0     H24242   9.942   9.604   7.065 -0.6385 -0.1339 -0.4516
  180MOL0     H24243  10.138   9.528   7.209 -0.0865 -0.2857 -1.4959
  180MOL0     H24244  10.080   9.364   7.204 -0.4900 -1.0243 -0.7319
  180MOL0     H24245  10.131   9.347   6.971 -0.3269  0.4640 -0.4935
  180MOL0     H24246  10.141   9.519   6.949  0.0047 -0.6516 -1.2566
  180MOL0     H24247  10.358   9.522   7.058 -2.4447  0.8390  1.0970
  180MOL0     H24248  10.361   9.396   6.938 -0.5504 -0.9595 -0.0535
  180MOL0     H24249  10.331   9.337   7.225  2.2248 -0.5469  1.5393
  180MOL0     H24250  10.340   9.212   7.096  0.0433  0.3620 -0.2928
  180MOL0     H24251  10.556   9.517   7.170  0.2137  1.2213 -3.1154
  180MOL0     H24252  10.896   9.453   7.059 -0.3459  0.2364 -0.9785
  180MOL0     H24253  10.805   9.544   7.174  1.7000 -0.8047  3.5224
  180MOL0     H24254  10.883   9.441   7.343  0.9769 -0.7144  1.1095
  180MOL0     H24255  10.938   9.285   7.268  0.0035  0.7764  1.5629
  180MOL0     H24256  11.055   9.568   7.279  2.5035  1.0855  0.2351
  180MOL0     H24257  11.121   9.464   7.162  1.1343  0.4937  0.7745
  180MOL0     H24258  11.100   9.338   7.423  0.5765  0.8798  1.6468
  180MOL0     H24259  11.183   9.488   7.427 -2.8804 -1.5375  1.7112
  180MOL0     H24260  11.398   9.275   7.063  1.3947  0.3241 -0.8311
  180MOL0     H24261  11.599   9.372   6.984 -0.4641  1.6446 -0.7011
  180MOL0     H24262  11.988   9.650   6.998  0.2546  0.6315 -0.4370
  180MOL0     H24263  12.227   9.696   6.980  1.4884  1.4454  1.2510
  180MOL0     H24264  12.384   9.868   7.214 -0.6987 -0.1221  3.1192
  180MOL0     H24265  12.417   9.757   7.346 -2.4045  1.0574 -0.3561
  180MOL0     H24266  12.643   9.712   7.243  0.0547 -1.9002 -2.5466
  180MOL0     H24267  12.606   9.798   7.102  1.3269  1.4172  0.3279
  180MOL0     H24268  12.571   9.998   7.254 -1.1986 -0.1322 -1.5006
  180MOL0     H24269  12.622   9.879   7.387  0.5238 -1.7482 -0.6992
  180MOL0     H24270  12.782  10.032   7.194  3.7296 -1.3549 -0.7682
  180MOL0     H24271  12.836   9.866   7.216 -0.8100 -0.5272 -0.9515
  180MOL0     H24272  12.855   9.909   7.455  1.4062 -0.7606 -1.1633
  180MOL0     H24273  12.757  10.058   7.440 -2.1694 -0.3770 -1.0342
  180MOL0     H24274  13.041  10.003   7.343  0.4641  0.8093 -1.9952
  180MOL0     H24275  12.961  10.159   7.311  0.8385 -1.0158 -2.9532
  180MOL0     H24276  13.033  10.027   7.580 -0.7202 -0.3475 -0.4247
  180MOL0     H24277  12.930  10.169   7.564 -2.7996 -3.1002 -1.7419
  180MOL0     H24278  13.120  10.265   7.414 -0.9995 -0.1469  0.2676
  180MOL0     H24279  13.122  10.281   7.582 -1.3976  3.0712 -1.8744
  180MOL0     H24280  12.273   9.548   7.394 -2.1035  0.3484  0.6295
  180MOL0     H24281  12.044   9.514   7.407 -1.0280  0.3494  0.3413
  180MOL0     H24282  11.620   9.611   7.348 -0.1135  0.4303  1.2652
  180MOL0     H24283  11.417   9.522   7.421 -0.0801 -0.3121  0.4642
  180MOL0     H24284   9.534   9.474   7.408 -0.0291 -1.0307 -1.1458
  180MOL0     H24285   9.327   9.385   7.472  0.4381 -0.1508  0.1121
  180MOL0     H24286   8.856   9.620   7.398 -2.3213  2.5251 -1.1753
  180MOL0     H24287   8.600   9.589   7.406  0.4486 -0.6266  1.6038
  180MOL0     H24288   8.385   9.522   7.361 -0.0215  1.7052  0.4820
  180MOL0     H24289   8.397   9.491   7.539 -0.6352 -1.0511  1.2416
  180MOL0     H24290   8.174   9.436   7.515 -1.0759  0.5007 -1.2284
  180MOL0     H24291   8.242   9.277   7.474 -3.8194 -0.8915 -1.0356
  180MOL0     H24292   8.154   9.492   7.286 -1.3207  0.1636  1.4465
  180MOL0     H24293   8.055   9.348   7.327 -0.1796 -0.8218  0.0620
  180MOL0     H24294   8.337   9.353   7.198  0.8903 -0.6981 -0.1869
  180MOL0     H24295   8.257   9.211   7.253 -0.1742 -0.0477 -0.9950
  180MOL0     H24296   8.053   9.285   6.879 -2.1718  0.9304  0.7033
  180MOL0     H24297   8.661   9.165   7.401 -0.4959  0.0892  0.5141
  180MOL0     H24298   9.010   9.166   7.460  0.5690 -2.1308  1.0096
  180MOL0     H24299   8.876   9.061   7.419  0.4643  0.8654 -0.0873
  180MOL0     H24300   8.970   9.144   7.286 -1.3460 -0.4301 -0.6451
  181MOL0     O24301   9.975   3.213   5.355 -0.6783  1.1394  0.3163
  181MOL0     C24302   9.963   3.114   5.283  0.0120  0.0335  0.3862
  181MOL0     O24303  10.058   3.054   5.206  0.5218 -0.8605 -0.2261
  181MOL0     C24304  10.179   3.110   5.223 -0.0888  0.3408 -1.4387
  181MOL0     C24305  10.249   3.086   5.340 -0.4793  0.3895 -0.3084
  181MOL0     C24306  10.387   3.125   5.341  0.2373  0.3108  1.0459
  181MOL0     C24307  10.450   3.172   5.223 -0.3938  0.0925 -0.6548
  181MOL0     O24308  10.588   3.186   5.236 -0.5526  0.1446 -0.0976
  181MOL0     C24309  10.669   3.195   5.118  0.4624 -0.0992  0.9042
  181MOL0     C24310  10.816   3.226   5.165 -0.2383  0.2721 -0.2394
  181MOL0     C24311  10.928   3.209   5.064 -0.8409 -0.1805 -0.1602
  181MOL0     C24312  11.058   3.258   5.117 -0.5149 -0.3549  0.0365
  181MOL0     C24313  11.178   3.242   5.030  0.4319  0.7497  1.3770
  181MOL0     C24314  11.163   3.308   4.881 -0.8664 -0.4379 -0.0939
  181MOL0     C24315  11.288   3.289   4.797  0.1355  0.1652  0.3111
  181MOL0     C24316  11.295   3.142   4.735 -0.6900 -0.9767  0.0020
  181MOL0     N24317  11.209   3.130   4.616 -0.1577  0.5316  0.4670
  181MOL0     C24318  11.153   3.013   4.570 -0.3862 -0.1184 -0.5220
  181MOL0     C24319  11.117   3.043   4.439 -0.1366  0.1277 -0.8007
  181MOL0     C24320  11.064   2.950   4.343  0.0995  0.2340  0.7322
  181MOL0     C24321  11.175   2.854   4.286  0.9731  0.1390 -0.2192
  181MOL0     C24322  11.259   2.778   4.402  0.3086  0.2900  0.2096
  181MOL0     C24323  11.348   2.670   4.336 -0.7177 -0.8866  0.4913
  181MOL0     O24324  11.445   2.748   4.253 -0.3683  0.0482 -1.0679
  181MOL0     C24325  11.568   2.689   4.239 -0.2182 -0.0484 -0.1191
  181MOL0     C24326  11.674   2.772   4.213  0.1129 -0.1441  0.1935
  181MOL0     C24327  11.804   2.730   4.182 -0.0697  0.2849 -0.4207
  181MOL0     C24328  11.832   2.592   4.182  0.0232 -1.1348  0.1152
  181MOL0     C24329  11.969   2.549   4.141 -0.1193  0.1898 -0.0310
  181MOL0     O24330  11.997   2.413   4.110  0.4537 -0.9104 -0.5988
  181MOL0     C24331  12.125   2.392   4.056  0.7295  0.4272  0.4380
  181MOL0     C24332  12.229   2.366   4.137 -0.7493 -0.4718  0.1871
  181MOL0     C24333  12.349   2.320   4.080 -0.1130 -0.6070 -0.6523
  181MOL0     C24334  12.361   2.310   3.933  0.4548 -0.1668 -0.8843
  181MOL0     O24335  12.483   2.264   3.890 -0.2919  0.0692 -0.0477
  181MOL0     C24336  12.530   2.308   3.760  0.6618  0.1601 -0.4244
  181MOL0     C24337  12.670   2.258   3.749  0.2471 -0.6490  0.0219
  181MOL0     C24338  12.757   2.291   3.874 -0.0193 -0.7424 -0.1541
  181MOL0     C24339  12.768   2.448   3.920 -0.5850  1.0261 -0.1546
  181MOL0     C24340  12.913   2.500   3.938 -0.1043 -1.1862 -0.7702
  181MOL0     C24341  12.913   2.646   4.003 -0.1511 -0.0564 -0.1215
  181MOL0     C24342  13.059   2.702   3.989  0.3152 -0.2797 -0.5358
  181MOL0     C24343  13.178   2.616   4.040  0.0568 -0.7391  1.0472
  181MOL0    Cl24344  13.141   2.547   4.208  0.2621 -0.8749 -0.0398
  181MOL0     C24345  12.258   2.356   3.852  0.2561  0.0294 -0.5192
  181MOL0     C24346  12.139   2.393   3.915 -0.2249 -0.1126  0.0992
  181MOL0     O24347  12.058   2.635   4.145 -0.1071  0.6460  0.0141
  181MOL0     C24348  11.727   2.506   4.215 -0.0553  0.3399 -0.4153
  181MOL0     C24349  11.599   2.544   4.239 -0.3007  0.1536 -0.0388
  181MOL0     N24350  11.160   3.168   4.415  0.4784 -0.4099  0.1032
  181MOL0     N24351  11.216   3.218   4.516 -0.4667  0.3119 -0.0367
  181MOL0     C24352  10.373   3.203   5.109 -0.8217  0.4903 -0.2501
  181MOL0     C24353  10.237   3.178   5.116 -0.3133 -0.0391  0.6116
  181MOL0     C24354   9.830   3.049   5.276  0.0712  0.3160  0.2342
  181MOL0     C24355   9.809   2.950   5.176 -0.7466  0.2899 -0.5272
  181MOL0     C24356   9.686   2.888   5.162  0.5487  0.1690  1.4653
  181MOL0     C24357   9.583   2.913   5.246  0.1357 -0.6114  0.1408
  181MOL0     O24358   9.471   2.832   5.255  0.4912  0.2760 -0.5923
  181MOL0     C24359   9.420   2.773   5.135  0.1677  0.5257 -0.7756
  181MOL0     C24360   9.389   2.866   5.022 -0.6454 -0.7511  0.0614
  181MOL0     C24361   9.324   2.995   5.077  0.0711 -0.1630  0.3152
  181MOL0     C24362   9.259   3.066   4.960  0.4882  0.3616  0.0222
  181MOL0     C24363   9.353   3.096   4.857 -0.5460  0.6973 -0.1425
  181MOL0     C24364   9.443   3.137   4.783 -0.4522 -0.1856  0.3268
  181MOL0     C24365   9.609   2.998   5.362  0.0203 -0.1544  0.0105
  181MOL0     C24366   9.727   3.071   5.371  0.2441 -0.1191  0.3794
  181MOL0     C24367   9.745   3.164   5.484  0.5878 -0.6297 -0.7363
  181MOL0     H24368  10.203   3.034   5.424 -1.6897 -1.0021 -1.7631
  181MOL0     H24369  10.451   3.106   5.426  1.5537 -0.1025  0.0073
  181MOL0     H24370  10.671   3.099   5.065  0.0265  0.1105  0.5090
  181MOL0     H24371  10.625   3.273   5.056  1.5003  1.0229  1.5489
  181MOL0     H24372  10.836   3.152   5.243 -0.4240 -0.1284 -0.5702
  181MOL0     H24373  10.818   3.332   5.191  0.0260  0.9217 -2.6789
  181MOL0     H24374  10.884   3.260   4.978 -3.6863 -0.7991  0.8010
  181MOL0     H24375  10.942   3.104   5.038 -0.3140 -0.5508  1.4980
  181MOL0     H24376  11.053   3.367   5.132 -0.7495 -0.3394 -0.1537
  181MOL0     H24377  11.078   3.200   5.207  0.5458  0.5185  0.3928
  181MOL0     H24378  11.268   3.282   5.076  1.3445 -0.2901  0.5589
  181MOL0     H24379  11.205   3.137   5.015 -0.9539  0.6532 -1.1558
  181MOL0     H24380  11.069   3.270   4.840 -0.6370 -0.8786 -0.2168
  181MOL0     H24381  11.159   3.416   4.896  1.3235 -0.4815  1.2976
  181MOL0     H24382  11.380   3.320   4.848  0.4292  0.1730 -0.2204
  181MOL0     H24383  11.283   3.362   4.716 -1.0227 -0.0034  0.2048
  181MOL0     H24384  11.398   3.131   4.700 -0.7278  1.7029 -1.2022
  181MOL0     H24385  11.278   3.067   4.812  1.1792 -0.5265  0.9281
  181MOL0     H24386  11.144   2.916   4.618 -0.0308  0.1330  0.0651
  181MOL0     H24387  10.986   2.889   4.389  1.6464 -0.5197  2.5367
  181MOL0     H24388  11.029   3.006   4.256  0.9710  1.4082  1.0979
  181MOL0     H24389  11.133   2.772   4.226 -1.8531  0.8618  0.5924
  181MOL0     H24390  11.243   2.900   4.214 -0.5636  0.2863 -1.6304
  181MOL0     H24391  11.190   2.734   4.473  3.1087  2.7149  4.9408
  181MOL0     H24392  11.328   2.848   4.451 -0.5359  1.5180 -0.3057
  181MOL0     H24393  11.293   2.609   4.265 -1.6888 -1.4052  1.6643
  181MOL0     H24394  11.381   2.599   4.412 -1.1592 -0.1036  1.4323
  181MOL0     H24395  11.652   2.878   4.212 -2.9287 -0.6884  0.0773
  181MOL0     H24396  11.870   2.809   4.147 -2.1023  1.2822 -2.2931
  181MOL0     H24397  12.218   2.366   4.245  0.8721 -1.4975  0.3970
  181MOL0     H24398  12.421   2.281   4.151  2.0638  0.7373 -2.0305
  181MOL0     H24399  12.453   2.279   3.687  0.1528 -1.5541  0.7461
  181MOL0     H24400  12.523   2.417   3.764 -1.6247  0.2134 -2.7167
  181MOL0     H24401  12.673   2.149   3.744 -1.6376 -0.7232 -0.1650
  181MOL0     H24402  12.722   2.280   3.655  1.1790 -2.1853  0.1383
  181MOL0     H24403  12.720   2.235   3.961  1.0529  0.6055  1.2116
  181MOL0     H24404  12.859   2.266   3.845  0.2870  0.5106 -0.2306
  181MOL0     H24405  12.723   2.456   4.019 -0.5392  0.8139 -0.1161
  181MOL0     H24406  12.716   2.505   3.843  0.5948  0.6034 -1.3046
  181MOL0     H24407  12.961   2.498   3.839 -1.5559 -1.5650 -1.5023
  181MOL0     H24408  12.963   2.432   4.007  1.5044 -0.1001 -0.8147
  181MOL0     H24409  12.845   2.707   3.943 -0.8431 -2.7846 -2.3246
  181MOL0     H24410  12.877   2.642   4.106  2.1500  2.8567  0.9263
  181MOL0     H24411  13.062   2.796   4.045  2.6027 -0.5166 -0.1664
  181MOL0     H24412  13.067   2.738   3.886  0.5380 -1.3002 -0.8878
  181MOL0     H24413  13.199   2.540   3.964 -2.2975  1.6990 -2.3637
  181MOL0     H24414  13.267   2.679   4.047 -0.0478 -0.5420  0.6570
  181MOL0     H24415  12.267   2.357   3.744 -0.9439  0.8631 -0.6403
  181MOL0     H24416  12.056   2.397   3.845  0.8446  0.5521 -1.1666
  181MOL0     H24417  11.753   2.401   4.207  0.7126  0.5033 -0.1278
  181MOL0     H24418  11.522   2.472   4.266  0.6923 -1.6182 -1.6652
  181MOL0     H24419  10.417   3.236   5.015  1.4097  1.4334  1.0625
  181MOL0     H24420  10.163   3.192   5.038 -0.8806  3.9223  1.6704
  181MOL0     H24421   9.886   2.915   5.108  3.4035  0.9401  3.3680
  181MOL0     H24422   9.670   2.800   5.101  1.9824 -0.4288  1.9217
  181MOL0     H24423   9.322   2.733   5.164  0.7090 -1.0142 -1.0002
  181MOL0     H24424   9.487   2.698   5.091  1.6276  2.4132 -1.8998
  181MOL0     H24425   9.327   2.820   4.944 -1.6688  1.5350 -0.5629
  181MOL0     H24426   9.479   2.897   4.967 -2.4499  0.7685 -2.2205
  181MOL0     H24427   9.397   3.065   5.118 -0.4894  1.8784 -1.9275
  181MOL0     H24428   9.246   2.986   5.153 -0.1896  2.2825  0.4234
  181MOL0     H24429   9.173   3.009   4.923  1.1073 -1.2356  0.9382
  181MOL0     H24430   9.221   3.165   4.986 -0.2796  0.1563 -0.2969
  181MOL0     H24431   9.521   3.174   4.719 -1.8697 -0.1087 -1.4331
  181MOL0     H24432   9.530   3.014   5.435  1.6978 -0.2624  1.9257
  181MOL0     H24433   9.830   3.146   5.551 -0.1025 -0.9387  0.0700
  181MOL0     H24434   9.759   3.267   5.448  1.2486 -1.2516 -2.3017
  181MOL0     H24435   9.662   3.162   5.555  1.2320 -1.6627  0.0159
  182MOL0     O24436   1.723  11.147   5.130  0.4490  0.2958  0.9617
  182MOL0     C24437   1.669  11.138   5.236  0.7986 -0.3385 -0.1939
  182MOL0     O24438   1.722  11.119   5.357  0.5336  0.4947 -0.0505
  182MOL0     C24439   1.845  11.064   5.371  0.2393 -0.8176 -0.7357
  182MOL0     C24440   1.899  11.068   5.507  0.5674  0.0053 -0.5282
  182MOL0     C24441   2.020  11.011   5.530  0.5081  0.7495  0.7781
  182MOL0     C24442   2.093  10.932   5.443  0.0524 -0.4545  1.0754
  182MOL0     O24443   2.225  10.885   5.454  0.5296  0.5797 -1.1350
  182MOL0     C24444   2.273  10.837   5.580  0.0022 -0.5083  0.7816
  182MOL0     C24445   2.397  10.754   5.565 -0.6070 -0.4157 -0.0660
  182MOL0     C24446   2.378  10.635   5.474 -0.3738 -0.2629  0.4034
  182MOL0     C24447   2.394  10.664   5.325  0.2073 -0.3868 -0.1003
  182MOL0     C24448   2.372  10.547   5.228 -0.6883 -0.3803  0.4148
  182MOL0     C24449   2.411  10.587   5.082  1.8689  0.2752 -0.4227
  182MOL0     C24450   2.551  10.635   5.061  0.0818  0.2243 -0.5841
  182MOL0     C24451   2.590  10.627   4.916  0.0639  0.3794  0.0189
  182MOL0     N24452   2.738  10.654   4.915  0.3440  1.0098  0.4988
  182MOL0     C24453   2.800  10.745   4.839  0.2291 -0.6998 -0.1084
  182MOL0     C24454   2.931  10.703   4.838  0.3446  0.0356  0.3565
  182MOL0     C24455   3.050  10.767   4.763  0.7556  0.4614 -0.3312
  182MOL0     C24456   3.027  10.795   4.620  0.3861  0.1509  0.0536
  182MOL0     C24457   2.958  10.689   4.534  0.0918 -0.1471 -0.0302
  182MOL0     C24458   3.011  10.547   4.543 -0.0802 -0.0044 -0.1870
  182MOL0     O24459   3.155  10.532   4.551 -0.0385  0.2674 -0.7774
  182MOL0     C24460   3.225  10.528   4.436  0.5324 -0.0765 -0.5296
  182MOL0     C24461   3.368  10.535   4.446  0.1918 -0.5090 -0.1250
  182MOL0     C24462   3.455  10.523   4.333  0.1103  0.7591 -0.1704
  182MOL0     C24463   3.397  10.486   4.205 -1.1257  0.1478  0.0774
  182MOL0     C24464   3.483  10.469   4.084  0.5004 -0.4379 -0.3641
  182MOL0     O24465   3.415  10.449   3.963 -0.4821  0.0850  0.7871
  182MOL0     C24466   3.488  10.402   3.854  0.0357 -0.1448 -0.7476
  182MOL0     C24467   3.460  10.271   3.810  1.0434  1.1284  0.1620
  182MOL0     C24468   3.539  10.214   3.710  0.2470  0.7183  0.5790
  182MOL0     C24469   3.642  10.284   3.643 -0.4023 -0.0675  0.6118
  182MOL0     O24470   3.710  10.238   3.533 -0.5136 -0.3817 -0.2916
  182MOL0     C24471   3.705  10.096   3.501  0.1560 -0.4412  0.0183
  182MOL0     C24472   3.769  10.074   3.367  0.0443  0.7483  0.1978
  182MOL0     C24473   3.920  10.072   3.376 -0.6283  0.1466  0.8305
  182MOL0     C24474   3.980  10.096   3.235 -0.9798 -0.8027  0.8783
  182MOL0     C24475   4.137  10.066   3.232 -1.2472  0.7439  0.2245
  182MOL0     C24476   4.200  10.126   3.105 -0.2838 -0.7391 -0.7769
  182MOL0     C24477   4.355  10.145   3.124  0.2181 -0.8901 -0.4928
  182MOL0     C24478   4.428  10.148   2.991  0.2046  1.1432 -0.4438
  182MOL0    Cl24479   4.388  10.276   2.882  0.0806 -0.2004  0.3360
  182MOL0     C24480   3.658  10.415   3.684 -0.3689 -0.0649  0.5228
  182MOL0     C24481   3.595  10.470   3.796  0.2419 -0.0967  0.4063
  182MOL0     O24482   3.604  10.448   4.105 -0.0285 -0.8669  0.1742
  182MOL0     C24483   3.258  10.473   4.198  0.8217 -0.4667  0.4886
  182MOL0     C24484   3.173  10.498   4.304  0.3896 -0.1803 -0.2517
  182MOL0     N24485   2.941  10.591   4.917  0.6318  0.0548  0.3460
  182MOL0     N24486   2.823  10.561   4.957 -0.5971 -0.3775 -0.4192
  182MOL0     C24487   2.037  10.925   5.314 -0.4879  0.3539  0.1068
  182MOL0     C24488   1.923  10.997   5.277  0.0588 -0.4800 -0.0756
  182MOL0     C24489   1.521  11.156   5.249 -0.1821 -0.3617  0.2703
  182MOL0     C24490   1.445  11.101   5.150  0.4184 -0.3467 -0.2086
  182MOL0     C24491   1.310  11.116   5.145  0.8505  0.3249 -1.3075
  182MOL0     C24492   1.239  11.182   5.245 -0.3582 -0.3105 -0.7897
  182MOL0     O24493   1.105  11.186   5.228  0.1358 -0.0737 -0.6265
  182MOL0     C24494   1.028  11.262   5.326  0.1552 -0.2817  1.0232
  182MOL0     C24495   0.880  11.275   5.262  0.0303  0.6804  0.3647
  182MOL0     C24496   0.801  11.379   5.346  0.1680 -0.6635  1.2028
  182MOL0     C24497   0.650  11.382   5.305  0.8725 -0.1488 -0.4413
  182MOL0     C24498   0.573  11.270   5.362 -0.1473 -0.4638  0.3974
  182MOL0     C24499   0.507  11.181   5.410  0.0054  0.1997 -0.5202
  182MOL0     C24500   1.311  11.245   5.346 -1.4674  0.5287  0.7288
  182MOL0     C24501   1.452  11.230   5.352 -0.1376 -0.4310 -0.0294
  182MOL0     C24502   1.506  11.282   5.483  0.1045 -0.4093  0.4000
  182MOL0     H24503   1.848  11.113   5.592 -3.2952 -3.2653 -0.8434
  182MOL0     H24504   2.063  11.022   5.630  1.2430 -1.3196  0.7348
  182MOL0     H24505   2.298  10.917   5.650 -0.6427 -0.3043  0.7846
  182MOL0     H24506   2.184  10.789   5.621 -0.7275 -0.8106 -1.0620
  182MOL0     H24507   2.417  10.731   5.670 -0.5857  6.0993  1.8317
  182MOL0     H24508   2.477  10.822   5.535 -0.8141 -1.6010 -3.8167
  182MOL0     H24509   2.283  10.587   5.502  0.6035 -1.0712  2.5322
  182MOL0     H24510   2.457  10.562   5.495  0.9117  0.9592 -0.0827
  182MOL0     H24511   2.313  10.733   5.302  0.5246 -0.3636 -1.2245
  182MOL0     H24512   2.495  10.706   5.315  0.1400 -0.2798 -0.3374
  182MOL0     H24513   2.441  10.467   5.256  1.4616  0.4843 -2.0523
  182MOL0     H24514   2.268  10.514   5.238 -0.8193 -0.5271 -1.1759
  182MOL0     H24515   2.395  10.501   5.016  2.1949  0.2920 -0.5237
  182MOL0     H24516   2.341  10.667   5.056 -3.0775 -2.1007  3.6640
  182MOL0     H24517   2.609  10.557   5.110 -1.4000 -0.4829  0.1012
  182MOL0     H24518   2.570  10.732   5.109 -0.6232 -1.1882  2.8246
  182MOL0     H24519   2.571  10.525   4.880  0.5272 -0.2284  1.4267
  182MOL0     H24520   2.544  10.703   4.852  0.6069 -1.0211 -2.1349
  182MOL0     H24521   2.764  10.832   4.786  2.5834 -0.0208 -0.6921
  182MOL0     H24522   3.076  10.861   4.812  0.5413  1.5435 -2.1881
  182MOL0     H24523   3.135  10.698   4.771  0.4126 -1.0935 -5.9360
  182MOL0     H24524   2.987  10.895   4.603  0.3730  0.1063 -0.1907
  182MOL0     H24525   3.128  10.810   4.583  0.2141  0.2257 -0.3941
  182MOL0     H24526   2.973  10.727   4.433  1.4381 -1.3340 -0.3128
  182MOL0     H24527   2.850  10.685   4.549  0.0586 -0.1180 -0.2634
  182MOL0     H24528   2.968  10.483   4.465 -0.3962  2.0098 -1.7273
  182MOL0     H24529   2.973  10.506   4.637 -0.3125  1.0691  0.1918
  182MOL0     H24530   3.408  10.552   4.546 -3.3051 -3.3062  1.9930
  182MOL0     H24531   3.562  10.541   4.342  0.1673  0.2616  0.2119
  182MOL0     H24532   3.379  10.210   3.849 -0.0184  1.2163 -1.7845
  182MOL0     H24533   3.518  10.111   3.682  0.5513  0.1017  2.4801
  182MOL0     H24534   3.758  10.030   3.570 -0.3084  0.7453  1.5685
  182MOL0     H24535   3.600  10.071   3.485 -0.5600  2.6640 -0.8414
  182MOL0     H24536   3.740   9.974   3.334  1.3562  0.3567  0.1705
  182MOL0     H24537   3.743  10.140   3.284 -2.6932 -0.9011 -0.3779
  182MOL0     H24538   3.948  10.149   3.449  1.2612  0.7372 -0.4371
  182MOL0     H24539   3.951   9.970   3.399  0.3828  0.6199  1.6549
  182MOL0     H24540   3.970  10.202   3.208  2.7334 -0.4103  0.4944
  182MOL0     H24541   3.939  10.029   3.159  2.7664 -3.7595  1.1628
  182MOL0     H24542   4.161   9.961   3.251 -0.8539  0.4149 -1.9186
  182MOL0     H24543   4.187  10.129   3.306  4.2850 -2.2394 -0.4176
  182MOL0     H24544   4.173  10.065   3.019 -2.1890  0.7349 -1.2829
  182MOL0     H24545   4.167  10.225   3.074  2.7308  0.6796  0.0959
  182MOL0     H24546   4.404  10.067   3.183 -0.0990 -0.0648  0.9228
  182MOL0     H24547   4.364  10.242   3.175 -1.6190 -1.3367  0.7997
  182MOL0     H24548   4.533  10.134   3.020 -0.4824  1.0510  2.2835
  182MOL0     H24549   4.406  10.049   2.951  0.2176  1.0261 -0.1682
  182MOL0     H24550   3.719  10.474   3.616 -0.7092 -2.4330 -1.9816
  182MOL0     H24551   3.619  10.574   3.811 -1.0190  0.8813 -3.1848
  182MOL0     H24552   3.213  10.446   4.102  1.0443  1.0976 -0.0883
  182MOL0     H24553   3.065  10.495   4.290  0.1858  2.6367  0.0966
  182MOL0     H24554   2.095  10.874   5.237  0.6529  2.3937 -0.4595
  182MOL0     H24555   1.886  10.979   5.176  0.8054 -0.7617 -0.3073
  182MOL0     H24556   1.488  11.054   5.062 -1.8978 -1.4666 -0.8267
  182MOL0     H24557   1.247  11.066   5.073  3.5752 -3.6557 -1.2930
  182MOL0     H24558   1.072  11.354   5.364  2.3465 -1.0076  0.3707
  182MOL0     H24559   1.023  11.187   5.406 -0.3817 -0.4276  0.8599
  182MOL0     H24560   0.832  11.178   5.276  0.8631  0.3300  0.8705
  182MOL0     H24561   0.893  11.299   5.156  0.4053 -2.0725 -0.2992
  182MOL0     H24562   0.835  11.480   5.321 -1.8886 -0.5245 -1.5232
  182MOL0     H24563   0.798  11.357   5.453  2.1798 -3.4881  0.7999
  182MOL0     H24564   0.613  11.478   5.341  1.2885 -0.4152  0.7462
  182MOL0     H24565   0.630  11.380   5.198  0.2000  0.4321 -0.3357
  182MOL0     H24566   0.447  11.108   5.461 -0.2519  1.8432  1.6637
  182MOL0     H24567   1.271  11.298   5.432 -0.4560 -0.7863  2.0517
  182MOL0     H24568   1.485  11.205   5.558 -1.5401  0.7648  1.2183
  182MOL0     H24569   1.610  11.315   5.487  0.0730 -0.1247 -0.9008
  182MOL0     H24570   1.446  11.371   5.504  1.9763  0.3171  3.0797
  183MOL0     O24571   2.175   5.828   0.604  0.3751  0.6231 -0.3975
  183MOL0     C24572   2.110   5.917   0.661 -0.2266 -0.3802 -0.5433
  183MOL0     O24573   2.151   6.012   0.746 -0.1059  0.0896  0.0571
  183MOL0     C24574   2.284   6.031   0.745 -0.5555  0.6815  0.4741
  183MOL0     C24575   2.346   6.037   0.866 -0.0110  0.8189  0.6173
  183MOL0     C24576   2.488   6.052   0.871 -0.1215  0.7579  0.3300
  183MOL0     C24577   2.565   6.073   0.752  0.6689 -0.0227 -0.8189
  183MOL0     O24578   2.695   6.113   0.742  0.4574  0.6282 -0.8121
  183MOL0     C24579   2.777   6.096   0.860 -0.0917  0.3402 -0.3848
  183MOL0     C24580   2.905   6.178   0.826  0.1488  0.0224  0.5671
  183MOL0     C24581   3.012   6.152   0.930 -0.5351 -0.0252  0.3384
  183MOL0     C24582   3.150   6.180   0.868  0.7290  0.0641 -0.0322
  183MOL0     C24583   3.263   6.157   0.969  0.3677 -0.2570 -0.7357
  183MOL0     C24584   3.402   6.210   0.926  0.4732  0.7086 -0.1254
  183MOL0     C24585   3.511   6.157   1.012 -0.2446 -0.3660  0.4609
  183MOL0     C24586   3.627   6.256   1.026 -0.6748  0.0173  0.0425
  183MOL0     N24587   3.722   6.200   1.127 -0.3618 -0.3032  0.4914
  183MOL0     C24588   3.806   6.094   1.102 -0.3965 -0.9027 -0.5113
  183MOL0     C24589   3.854   6.051   1.223 -0.6711 -0.5767 -0.0555
  183MOL0     C24590   3.945   5.940   1.261  1.1188 -0.1329  0.5586
  183MOL0     C24591   4.072   5.981   1.317  0.1251 -0.3223  0.4147
  183MOL0     C24592   4.067   6.002   1.473  1.3009 -0.4915 -0.8127
  183MOL0     C24593   4.195   6.075   1.523 -0.4016 -0.9158 -0.0781
  183MOL0     O24594   4.310   6.008   1.460  0.7324 -0.5494 -0.3746
  183MOL0     C24595   4.434   6.055   1.467 -0.1630 -0.4768  0.5019
  183MOL0     C24596   4.534   5.968   1.436 -0.3841  0.1609  0.7454
  183MOL0     C24597   4.668   6.004   1.436  0.7732  0.1018 -0.0532
  183MOL0     C24598   4.711   6.138   1.466  0.9398 -1.2967 -0.4467
  183MOL0     C24599   4.854   6.169   1.473 -0.6875 -0.8067 -0.5246
  183MOL0     O24600   4.887   6.291   1.523 -0.2362  0.2891  0.5557
  183MOL0     C24601   5.018   6.332   1.545  0.3478 -0.1198 -0.1762
  183MOL0     C24602   5.057   6.451   1.484 -0.6725 -0.1166  0.5498
  183MOL0     C24603   5.187   6.499   1.506  0.4791  0.6700 -0.2405
  183MOL0     C24604   5.273   6.429   1.597 -0.1613  0.0139  0.4795
  183MOL0     O24605   5.406   6.463   1.617 -0.3732 -0.3491  1.0492
  183MOL0     C24606   5.488   6.448   1.504 -0.3660 -0.5337  0.1432
  183MOL0     C24607   5.633   6.440   1.556  0.2011  0.7387  0.0106
  183MOL0     C24608   5.671   6.554   1.655  0.2676  0.9191  0.1600
  183MOL0     C24609   5.769   6.651   1.588 -1.1805 -0.4955  0.5543
  183MOL0     C24610   5.839   6.760   1.672  0.4339  0.4242 -0.1650
  183MOL0     C24611   5.880   6.717   1.818 -0.5695  0.0631 -0.5194
  183MOL0     C24612   6.012   6.791   1.848  0.6148 -0.8978 -0.7144
  183MOL0     C24613   6.143   6.737   1.792 -1.0000 -0.3452  0.4681
  183MOL0    Cl24614   6.287   6.830   1.829 -0.2419  0.6515  0.1898
  183MOL0     C24615   5.222   6.320   1.668 -0.3283 -0.7025  0.6565
  183MOL0     C24616   5.097   6.266   1.641 -0.5302  0.2736 -0.2297
  183MOL0     O24617   4.937   6.090   1.438  0.2143  0.1043 -0.2485
  183MOL0     C24618   4.602   6.231   1.502  0.1008  0.9006 -0.5928
  183MOL0     C24619   4.468   6.190   1.504  0.4053 -0.0867 -0.1694
  183MOL0     N24620   3.804   6.138   1.318 -0.1336  0.4716 -0.0255
  183MOL0     N24621   3.721   6.211   1.263 -0.0382 -0.4128 -0.3967
  183MOL0     C24622   2.499   6.081   0.631 -0.4737  0.7928 -0.2586
  183MOL0     C24623   2.363   6.047   0.626  0.0093  0.1589  0.5882
  183MOL0     C24624   1.964   5.922   0.652  0.7669  0.1262 -0.6592
  183MOL0     C24625   1.882   5.981   0.750 -0.3229 -0.0480 -0.4031
  183MOL0     C24626   1.741   5.978   0.747  0.1143 -0.5834  0.2122
  183MOL0     C24627   1.674   5.926   0.636 -0.3533  0.0588  0.7331
  183MOL0     O24628   1.533   5.927   0.626 -0.2364 -0.8457 -0.2069
  183MOL0     C24629   1.479   5.995   0.517 -0.2064 -0.3169  0.0208
  183MOL0     C24630   1.523   6.141   0.517  1.2979 -0.3903  0.6806
  183MOL0     C24631   1.472   6.218   0.644 -0.3714  0.0504  0.3072
  183MOL0     C24632   1.325   6.232   0.662 -0.2658  0.4430 -0.8316
  183MOL0     C24633   1.258   6.304   0.548  0.3734  0.1458 -0.5458
  183MOL0     C24634   1.222   6.362   0.447 -0.3674 -1.0075 -0.9130
  183MOL0     C24635   1.751   5.871   0.535 -0.0110 -0.0582 -0.4536
  183MOL0     C24636   1.894   5.872   0.534 -0.0003  0.3052  0.8503
  183MOL0     C24637   1.962   5.801   0.416  0.1705  0.0432  0.2279
  183MOL0     H24638   2.276   6.021   0.948 -1.7857  2.7205 -0.4430
  183MOL0     H24639   2.536   6.042   0.968 -1.4489 -0.2995  0.8995
  183MOL0     H24640   2.730   6.147   0.944  2.5498 -0.5871  1.7965
  183MOL0     H24641   2.794   5.990   0.882 -2.7907 -0.2696 -0.8639
  183MOL0     H24642   2.883   6.285   0.827  1.2440  0.3204 -1.3886
  183MOL0     H24643   2.946   6.150   0.728 -2.6048 -0.5130 -0.5224
  183MOL0     H24644   3.012   6.053   0.977  1.9674  0.2976  1.1410
  183MOL0     H24645   2.998   6.233   1.002 -2.4865  0.8311 -0.9324
  183MOL0     H24646   3.175   6.112   0.786 -0.0115  1.1735 -1.2139
  183MOL0     H24647   3.147   6.280   0.824 -1.7451  1.9689  3.9265
  183MOL0     H24648   3.235   6.213   1.059 -2.7593  1.0729 -2.4013
  183MOL0     H24649   3.265   6.051   0.996 -4.0498 -0.6372 -1.2807
  183MOL0     H24650   3.421   6.181   0.823  0.0312  1.9715 -0.5899
  183MOL0     H24651   3.394   6.320   0.927 -0.0611  0.6966  2.0232
  183MOL0     H24652   3.551   6.070   0.960 -0.0767 -0.0037 -0.0187
  183MOL0     H24653   3.479   6.128   1.113  1.3829  0.7262  1.3380
  183MOL0     H24654   3.677   6.280   0.932  0.4712 -2.2756 -0.0055
  183MOL0     H24655   3.584   6.346   1.071 -1.1001 -0.4151  0.5130
  183MOL0     H24656   3.824   6.036   1.012  0.7477  0.2522 -1.0677
  183MOL0     H24657   3.894   5.863   1.319  0.3485  2.0304  2.9319
  183MOL0     H24658   3.968   5.893   1.164 -0.1015  1.0702 -0.3459
  183MOL0     H24659   4.147   5.909   1.283  2.1623  1.1312  1.6738
  183MOL0     H24660   4.095   6.074   1.264 -0.2735 -1.0021 -1.0111
  183MOL0     H24661   4.067   5.907   1.527 -1.0063  0.3961  0.9291
  183MOL0     H24662   3.980   6.061   1.503  1.2517 -1.1948  0.4994
  183MOL0     H24663   4.206   6.089   1.631  2.2782 -1.3462 -0.2203
  183MOL0     H24664   4.189   6.177   1.485  0.3009 -0.7087  0.3575
  183MOL0     H24665   4.501   5.868   1.411 -0.2633  0.3693 -0.3060
  183MOL0     H24666   4.744   5.928   1.429 -0.9072 -1.8143  1.4625
  183MOL0     H24667   4.995   6.502   1.412 -0.1336 -3.1753 -2.2818
  183MOL0     H24668   5.224   6.585   1.450 -0.5266  2.4249  1.6500
  183MOL0     H24669   5.463   6.349   1.463  0.0896 -1.0603  1.0978
  183MOL0     H24670   5.490   6.532   1.435  2.9438  0.0071  0.7158
  183MOL0     H24671   5.636   6.349   1.616  2.2759  1.8719  1.7577
  183MOL0     H24672   5.698   6.427   1.470  0.0264  1.2268 -0.2014
  183MOL0     H24673   5.581   6.610   1.685  0.3791  1.7707 -1.0060
  183MOL0     H24674   5.704   6.507   1.748 -1.0643  0.1487  0.2685
  183MOL0     H24675   5.728   6.699   1.499  0.8447  1.1213  0.4111
  183MOL0     H24676   5.843   6.585   1.542 -0.7022  1.0131 -0.9165
  183MOL0     H24677   5.766   6.840   1.688  0.1754 -0.5394  5.3050
  183MOL0     H24678   5.924   6.790   1.611  1.2593  0.0469  0.7774
  183MOL0     H24679   5.806   6.745   1.892 -0.3911  2.8710 -1.3125
  183MOL0     H24680   5.920   6.615   1.830  0.9048  0.5574 -1.0089
  183MOL0     H24681   6.030   6.801   1.955  0.5173  2.1612 -0.8951
  183MOL0     H24682   6.004   6.895   1.815  0.8334 -0.5495  0.2882
  183MOL0     H24683   6.149   6.635   1.831  0.3186 -0.6507 -0.4826
  183MOL0     H24684   6.152   6.727   1.684  1.2966  2.0964  0.3037
  183MOL0     H24685   5.285   6.260   1.733 -1.8740 -3.5826 -0.2899
  183MOL0     H24686   5.075   6.176   1.696  0.7318 -0.3362 -0.6949
  183MOL0     H24687   4.626   6.334   1.528 -1.2660  1.2679 -0.7481
  183MOL0     H24688   4.393   6.266   1.525 -0.9495 -1.6432  0.9265
  183MOL0     H24689   2.551   6.106   0.539 -2.5367  1.1175 -1.4009
  183MOL0     H24690   2.315   6.038   0.529  0.2194 -0.7602  0.5603
  183MOL0     H24691   1.933   6.016   0.839 -0.5164  0.0556 -0.3302
  183MOL0     H24692   1.695   6.034   0.828  3.4160 -1.0401  2.6147
  183MOL0     H24693   1.370   5.989   0.516 -0.1615 -1.1621 -0.9207
  183MOL0     H24694   1.515   5.941   0.429 -0.7506  0.9589 -1.0146
  183MOL0     H24695   1.476   6.188   0.430  1.9019  3.3232  2.1833
  183MOL0     H24696   1.631   6.152   0.523  1.1598  0.0249  3.5920
  183MOL0     H24697   1.519   6.316   0.649 -1.6142  0.6346  1.3850
  183MOL0     H24698   1.510   6.162   0.730 -2.2697 -0.0083  1.1607
  183MOL0     H24699   1.287   6.132   0.683  0.9415  0.7499  3.7512
  183MOL0     H24700   1.311   6.288   0.755 -0.1781 -1.2899  0.2480
  183MOL0     H24701   1.187   6.400   0.352 -2.2506 -2.6866 -0.9433
  183MOL0     H24702   1.689   5.825   0.459 -1.0215 -0.8189  0.7789
  183MOL0     H24703   1.881   5.780   0.345  0.6509 -0.0642 -0.2869
  183MOL0     H24704   2.042   5.862   0.373  0.6652  0.1436  1.2686
  183MOL0     H24705   2.011   5.708   0.444  3.1164  0.7490 -2.1039
  184MOL0     O24706   8.334   8.818   0.048 -0.0734  0.3952 -0.3265
  184MOL0     C24707   8.312   8.780  -0.067 -0.4362 -0.3836  0.3654
  184MOL0     O24708   8.388   8.788  -0.172 -0.4825  0.2265 -0.8435
  184MOL0     C24709   8.504   8.862  -0.154  0.3653  0.2134 -1.0988
  184MOL0     C24710   8.503   8.982  -0.212  0.2763 -0.4405 -0.0064
  184MOL0     C24711   8.622   9.060  -0.206  0.0914  0.0476 -0.6149
  184MOL0     C24712   8.729   9.022  -0.127 -0.3402 -0.3028  1.1137
  184MOL0     O24713   8.827   9.114  -0.125 -0.0319 -0.0312 -0.1078
  184MOL0     C24714   8.934   9.074  -0.037 -0.1198 -0.0361 -0.0416
  184MOL0     C24715   9.035   9.196  -0.029  0.4910  0.1043  0.0605
  184MOL0     C24716   9.177   9.152   0.023  0.3886  0.2948  0.0368
  184MOL0     C24717   9.274   9.272   0.010 -0.8837 -0.4447 -0.1042
  184MOL0     C24718   9.422   9.236   0.046  0.3102 -0.3860 -0.2051
  184MOL0     C24719   9.518   9.354   0.013  0.7321  0.6011  0.4303
  184MOL0     C24720   9.671   9.320   0.021  0.3960  0.0546  0.1626
  184MOL0     C24721   9.746   9.450  -0.002 -0.2491  0.3983  0.2220
  184MOL0     N24722   9.887   9.407   0.023 -0.4431 -0.3613 -0.0743
  184MOL0     C24723   9.952   9.388   0.149  0.3162 -0.0059 -0.1989
  184MOL0     C24724  10.063   9.322   0.115  0.2170  0.1379  0.4550
  184MOL0     C24725  10.174   9.273   0.203 -1.2819  0.5837 -0.0212
  184MOL0     C24726  10.128   9.165   0.304  0.3720 -0.0441 -0.7199
  184MOL0     C24727  10.230   9.120   0.418  0.9150  0.3969  0.5743
  184MOL0     C24728  10.354   9.059   0.352  0.5181 -0.0014  0.4661
  184MOL0     O24729  10.461   9.152   0.319  0.6950 -0.4952 -0.0216
  184MOL0     C24730  10.586   9.103   0.289 -0.8860 -0.2676 -0.2900
  184MOL0     C24731  10.699   9.150   0.353 -0.2861  0.1114  0.0206
  184MOL0     C24732  10.833   9.099   0.319 -0.2978 -0.3774 -0.2465
  184MOL0     C24733  10.848   8.998   0.227 -0.4570  0.7583  0.4136
  184MOL0     C24734  10.977   8.949   0.193  0.2114  0.0389  0.2603
  184MOL0     O24735  11.082   8.967   0.277  0.4091 -0.5198  0.0369
  184MOL0     C24736  11.208   8.930   0.238 -0.8947 -0.1555  0.6613
  184MOL0     C24737  11.314   9.012   0.286  0.6969  0.2598  0.1961
  184MOL0     C24738  11.449   8.972   0.269 -0.6142 -0.4142 -0.3063
  184MOL0     C24739  11.483   8.859   0.206 -0.4905  0.4209  0.2340
  184MOL0     O24740  11.609   8.821   0.210 -0.3331  0.6269  0.9409
  184MOL0     C24741  11.680   8.838   0.079  0.1217  0.1043 -0.2286
  184MOL0     C24742  11.818   8.781   0.097 -0.9242  0.4427  0.5456
  184MOL0     C24743  11.811   8.623   0.097 -0.3491 -1.6028  0.8000
  184MOL0     C24744  11.936   8.569   0.165 -0.4359 -0.1208 -0.6415
  184MOL0     C24745  11.922   8.406   0.168 -0.0804 -0.1101  0.0925
  184MOL0     C24746  11.821   8.362   0.276  0.2654  0.9830  0.4391
  184MOL0     C24747  11.813   8.206   0.304 -0.0398  0.3010  0.1514
  184MOL0     C24748  11.779   8.116   0.185  0.6151 -0.2985 -0.2925
  184MOL0    Cl24749  11.916   8.009   0.183  0.1882 -0.0934  0.3648
  184MOL0     C24750  11.388   8.773   0.170  0.0046 -0.5704  0.4183
  184MOL0     C24751  11.245   8.807   0.178 -0.0754 -0.3892 -0.4947
  184MOL0     O24752  10.989   8.897   0.081 -0.0844  0.0040  0.9343
  184MOL0     C24753  10.734   8.951   0.162 -0.6207  0.0206 -0.3751
  184MOL0     C24754  10.610   9.010   0.188 -0.1292  0.0751 -0.3508
  184MOL0     N24755  10.072   9.314  -0.020  0.2088  0.6367  0.2910
  184MOL0     N24756   9.962   9.347  -0.077 -0.1468  0.5191 -0.4132
  184MOL0     C24757   8.727   8.894  -0.064 -0.6637 -0.0176  0.1463
  184MOL0     C24758   8.617   8.809  -0.084  0.4211 -0.1975  0.0976
  184MOL0     C24759   8.179   8.728  -0.092  0.9415 -0.4806  0.3917
  184MOL0     C24760   8.084   8.753  -0.001 -0.1517 -0.1632 -0.6847
  184MOL0     C24761   7.951   8.704  -0.008 -0.3330 -0.1547  0.1025
  184MOL0     C24762   7.919   8.625  -0.113  0.5365  0.4424  0.1989
  184MOL0     O24763   7.791   8.595  -0.115  0.4420 -0.0219  0.0410
  184MOL0     C24764   7.735   8.528  -0.228  0.5608 -0.4352  0.2082
  184MOL0     C24765   7.595   8.509  -0.207  0.1987 -0.2920  0.1956
  184MOL0     C24766   7.511   8.632  -0.255 -0.1752  0.2431  0.3884
  184MOL0     C24767   7.366   8.593  -0.256  1.4612 -0.9645  0.4327
  184MOL0     C24768   7.309   8.617  -0.121 -0.0404  1.0928  0.2766
  184MOL0     C24769   7.255   8.637  -0.018  0.3703  0.0569  0.2013
  184MOL0     C24770   8.017   8.592  -0.204 -0.5854  0.9057 -0.5218
  184MOL0     C24771   8.148   8.636  -0.195 -0.1436  0.7065  0.3308
  184MOL0     C24772   8.253   8.573  -0.295 -0.1599  0.0374 -0.9316
  184MOL0     H24773   8.422   9.023  -0.271  0.9927  1.1540  0.0655
  184MOL0     H24774   8.621   9.155  -0.259  0.9494  0.5892  0.2820
  184MOL0     H24775   8.889   9.052   0.060 -2.9463  2.3724 -0.6600
  184MOL0     H24776   8.988   8.987  -0.077 -0.6329  0.0807 -1.0228
  184MOL0     H24777   8.996   9.274   0.038  3.1752 -0.3594  2.3650
  184MOL0     H24778   9.047   9.228  -0.132 -1.7346 -0.3397 -0.4031
  184MOL0     H24779   9.206   9.068  -0.041 -0.6520 -0.2977  0.3221
  184MOL0     H24780   9.173   9.121   0.127  1.1950 -2.7731 -0.7590
  184MOL0     H24781   9.264   9.301  -0.095 -1.2559 -1.0552 -0.2451
  184MOL0     H24782   9.241   9.357   0.070  3.1292  0.5303  1.0447
  184MOL0     H24783   9.440   9.214   0.151  1.0132  0.6236 -0.1025
  184MOL0     H24784   9.449   9.143  -0.007  1.6409 -0.9490  1.3908
  184MOL0     H24785   9.505   9.380  -0.093  0.8290 -0.8320  0.0402
  184MOL0     H24786   9.485   9.435   0.078 -1.0732 -0.7542  1.3029
  184MOL0     H24787   9.706   9.246  -0.051  0.1469  2.1808 -2.2826
  184MOL0     H24788   9.691   9.295   0.126 -0.3357 -1.5842 -0.0601
  184MOL0     H24789   9.740   9.481  -0.107 -0.9625 -3.6387 -1.0965
  184MOL0     H24790   9.719   9.540   0.053  0.6723  2.9781 -3.1578
  184MOL0     H24791   9.916   9.426   0.244  1.4644 -2.4858  1.3318
  184MOL0     H24792  10.258   9.237   0.142 -0.7694  1.5091  0.1075
  184MOL0     H24793  10.212   9.353   0.267 -1.6456  1.7927 -1.2413
  184MOL0     H24794  10.039   9.204   0.355 -0.2397  0.1402 -1.8852
  184MOL0     H24795  10.107   9.070   0.254  4.5960 -0.4759 -2.0165
  184MOL0     H24796  10.185   9.043   0.480  2.3699  1.6426  3.3464
  184MOL0     H24797  10.254   9.211   0.474 -2.9853  1.7894  0.2772
  184MOL0     H24798  10.323   9.007   0.261 -0.9016  3.1936 -1.0501
  184MOL0     H24799  10.389   8.993   0.432 -0.8407 -1.6349 -0.2300
  184MOL0     H24800  10.687   9.228   0.428 -2.1915  0.3904 -0.5067
  184MOL0     H24801  10.919   9.145   0.367 -0.3636 -1.4479  0.9680
  184MOL0     H24802  11.289   9.110   0.325 -0.9320  0.2893 -0.8117
  184MOL0     H24803  11.531   9.026   0.315 -0.1073 -0.2840 -1.3328
  184MOL0     H24804  11.640   8.780  -0.005  1.1626  0.0083 -0.6659
  184MOL0     H24805  11.682   8.946   0.059  4.2871  0.7254  2.4675
  184MOL0     H24806  11.886   8.821   0.020  1.0226  0.1123  1.9986
  184MOL0     H24807  11.859   8.823   0.190 -1.8238  1.1970  0.6141
  184MOL0     H24808  11.720   8.587   0.145 -1.1829 -2.5510 -1.3769
  184MOL0     H24809  11.803   8.599  -0.010  1.5281 -0.5721  0.3890
  184MOL0     H24810  11.961   8.609   0.263 -2.6849 -0.3059  0.0805
  184MOL0     H24811  12.020   8.603   0.105 -0.6152  0.1273 -0.7545
  184MOL0     H24812  12.018   8.359   0.188 -0.6934 -0.8167  1.5514
  184MOL0     H24813  11.893   8.375   0.068  0.4083  0.1907 -0.1433
  184MOL0     H24814  11.851   8.414   0.367  0.2816 -0.6449  1.4053
  184MOL0     H24815  11.717   8.382   0.251 -0.1118 -1.9105 -0.7221
  184MOL0     H24816  11.738   8.196   0.383  0.2982 -0.3227  0.3958
  184MOL0     H24817  11.903   8.172   0.355 -2.0674 -0.5786  3.4911
  184MOL0     H24818  11.689   8.055   0.198  1.3235 -1.1696  0.7155
  184MOL0     H24819  11.777   8.178   0.095  2.4813  2.5537  1.4568
  184MOL0     H24820  11.441   8.690   0.124  1.2703  0.8874 -0.8796
  184MOL0     H24821  11.176   8.737   0.133 -0.5545 -0.2628  0.0330
  184MOL0     H24822  10.742   8.874   0.086  0.6573 -0.7150  0.4522
  184MOL0     H24823  10.519   8.989   0.134 -0.3657 -0.7260  0.3315
  184MOL0     H24824   8.811   8.854  -0.008 -0.8629 -0.2633  0.2691
  184MOL0     H24825   8.610   8.711  -0.038 -0.1580  0.7891  2.2136
  184MOL0     H24826   8.110   8.824   0.077  2.7002 -1.1698 -0.6073
  184MOL0     H24827   7.873   8.741   0.058 -1.2985  1.6103 -1.8932
  184MOL0     H24828   7.779   8.428  -0.222  0.0331 -0.7115 -0.3243
  184MOL0     H24829   7.763   8.560  -0.329 -0.1500 -0.1327  0.1047
  184MOL0     H24830   7.573   8.484  -0.103  0.9529  1.5596  0.8436
  184MOL0     H24831   7.569   8.419  -0.263  1.3943 -0.1635 -0.5996
  184MOL0     H24832   7.537   8.665  -0.356 -0.1820  3.6163  1.3450
  184MOL0     H24833   7.533   8.719  -0.193 -0.2421  1.3395 -1.0602
  184MOL0     H24834   7.305   8.637  -0.336  1.2908 -2.9244 -0.5797
  184MOL0     H24835   7.363   8.486  -0.278 -0.4247 -1.6415  3.3779
  184MOL0     H24836   7.217   8.657   0.080  2.7870  3.3850  0.6276
  184MOL0     H24837   7.992   8.520  -0.281 -0.0237 -2.0066  1.7862
  184MOL0     H24838   8.263   8.646  -0.376 -1.5844  1.0749 -0.2122
  184MOL0     H24839   8.349   8.565  -0.243 -0.1134  2.1069 -0.6198
  184MOL0     H24840   8.224   8.471  -0.323 -1.5850 -0.8221  3.1013
  185MOL0     O24841   1.127   5.848   8.541  0.3281  0.4562  0.3911
  185MOL0     C24842   1.049   5.800   8.625 -0.3773  0.4380  0.4525
  185MOL0     O24843   1.083   5.744   8.741  0.2488 -0.0674 -0.4100
  185MOL0     C24844   1.208   5.747   8.795 -0.5804 -0.7465  0.1537
  185MOL0     C24845   1.224   5.772   8.933 -0.3407  0.0076 -0.0551
  185MOL0     C24846   1.356   5.774   8.987  0.6914  0.2623  0.3427
  185MOL0     C24847   1.463   5.743   8.911  1.0003 -0.2854 -0.2543
  185MOL0     O24848   1.575   5.729   8.979  0.3820  0.1363 -0.3811
  185MOL0     C24849   1.699   5.685   8.922  0.3515  0.0814  0.1208
  185MOL0     C24850   1.824   5.664   9.009  0.2910  0.3725 -0.0943
  185MOL0     C24851   1.808   5.584   9.141 -0.0443  0.3655 -0.3382
  185MOL0     C24852   1.944   5.574   9.214 -0.6824 -0.8221 -0.4606
  185MOL0     C24853   2.032   5.471   9.142 -0.0868 -0.7896 -0.1723
  185MOL0     C24854   2.137   5.418   9.239 -0.5437 -0.2258  1.2691
  185MOL0     C24855   2.254   5.336   9.181 -0.0300  0.5319 -0.0856
  185MOL0     C24856   2.205   5.224   9.093 -0.1010 -0.1978 -0.6640
  185MOL0     N24857   2.312   5.123   9.070  0.0453 -0.3377 -0.0989
  185MOL0     C24858   2.452   5.134   9.109  0.0152  0.5622  0.4079
  185MOL0     C24859   2.508   5.029   9.049  0.0157 -0.0777  0.3103
  185MOL0     C24860   2.652   4.983   9.061  0.3849 -0.4812  0.1906
  185MOL0     C24861   2.746   5.054   8.959  0.7098 -0.8914  0.0993
  185MOL0     C24862   2.786   5.203   8.994 -0.7209  0.2960  0.7622
  185MOL0     C24863   2.894   5.259   8.904 -0.4386 -0.2656 -0.6066
  185MOL0     O24864   3.019   5.235   8.972 -0.3883  0.3966  0.8466
  185MOL0     C24865   3.132   5.288   8.911 -1.2373 -0.0439 -0.7946
  185MOL0     C24866   3.259   5.277   8.971  0.7496 -0.8864 -0.1202
  185MOL0     C24867   3.367   5.343   8.927 -1.2210 -0.6115  0.6106
  185MOL0     C24868   3.369   5.429   8.813 -0.1860 -0.1231 -0.2648
  185MOL0     C24869   3.492   5.501   8.783 -0.7743 -1.1295 -0.5209
  185MOL0     O24870   3.612   5.469   8.847  0.1419  0.4316 -0.3965
  185MOL0     C24871   3.733   5.545   8.846  0.0721  0.1279 -0.1207
  185MOL0     C24872   3.814   5.522   8.955 -0.4528 -0.6094  0.5079
  185MOL0     C24873   3.943   5.583   8.958 -0.8591 -0.4676  0.1917
  185MOL0     C24874   3.981   5.669   8.847  0.4457 -0.0586 -1.0971
  185MOL0     O24875   4.105   5.731   8.846  0.7097 -0.5757  0.3508
  185MOL0     C24876   4.110   5.839   8.937 -0.0452  0.0005  0.0923
  185MOL0     C24877   4.230   5.928   8.886 -0.3881  0.9069 -0.7110
  185MOL0     C24878   4.369   5.860   8.869  0.6683 -0.8306  0.9619
  185MOL0     C24879   4.471   5.973   8.837 -0.0931  0.0623  0.7051
  185MOL0     C24880   4.590   5.922   8.753  0.0011 -0.1820  0.2029
  185MOL0     C24881   4.681   5.829   8.837  0.4131  0.4820  0.6187
  185MOL0     C24882   4.765   5.732   8.741  0.1992  0.0488 -0.1934
  185MOL0     C24883   4.720   5.587   8.749 -0.2882 -0.0418  0.4953
  185MOL0    Cl24884   4.842   5.478   8.700 -0.1539  0.1886 -0.0646
  185MOL0     C24885   3.896   5.685   8.739  0.3871 -0.1429  1.1769
  185MOL0     C24886   3.774   5.615   8.732 -0.1111  0.0663  0.4487
  185MOL0     O24887   3.478   5.595   8.700 -0.4615 -0.4594 -0.3826
  185MOL0     C24888   3.246   5.423   8.748  0.1287 -0.3087 -1.1745
  185MOL0     C24889   3.132   5.360   8.794  0.3478  0.0250 -0.4016
  185MOL0     N24890   2.404   4.947   9.001 -0.0419 -0.2189  0.2109
  185MOL0     N24891   2.289   5.014   8.998  0.3627 -0.0812 -0.0773
  185MOL0     C24892   1.449   5.722   8.775 -0.3582  0.1418  0.0706
  185MOL0     C24893   1.324   5.734   8.715 -0.5771  0.7371  0.0011
  185MOL0     C24894   0.902   5.797   8.603 -0.9346  0.9032  0.0786
  185MOL0     C24895   0.819   5.761   8.718  0.6639  0.2733 -0.9555
  185MOL0     C24896   0.677   5.763   8.705 -1.1856  0.3388  0.1879
  185MOL0     C24897   0.615   5.800   8.592 -0.0424  0.0092  0.6097
  185MOL0     O24898   0.475   5.807   8.570  0.5452 -1.0077 -0.9846
  185MOL0     C24899   0.392   5.810   8.698  0.2057 -0.7024 -0.2299
  185MOL0     C24900   0.245   5.822   8.651  0.2130 -0.4572 -0.3568
  185MOL0     C24901   0.239   5.946   8.564  0.8039 -0.1353  0.4898
  185MOL0     C24902   0.085   5.984   8.541 -0.1271 -0.1151 -0.1982
  185MOL0     C24903   0.063   6.042   8.404 -0.4011  1.0178  0.3468
  185MOL0     C24904   0.047   6.107   8.304  0.2603  0.2422  0.5947
  185MOL0     C24905   0.701   5.829   8.479  0.5536 -0.8769 -0.4837
  185MOL0     C24906   0.839   5.819   8.484 -0.2589 -0.2149 -1.0570
  185MOL0     C24907   0.914   5.833   8.359  0.0246  0.7679 -0.1933
  185MOL0     H24908   1.140   5.789   9.000 -0.3373 -1.3941  0.3365
  185MOL0     H24909   1.373   5.816   9.086 -0.2589  1.7049 -0.0702
  185MOL0     H24910   1.679   5.589   8.871 -1.3675 -0.7059  2.1592
  185MOL0     H24911   1.732   5.767   8.858  2.2201  1.2213  2.4186
  185MOL0     H24912   1.862   5.762   9.037  0.3028  0.2116  0.4701
  185MOL0     H24913   1.902   5.625   8.943  2.0478 -0.4757  2.3164
  185MOL0     H24914   1.770   5.484   9.120  0.2495 -0.3917  2.4019
  185MOL0     H24915   1.735   5.636   9.204  0.1443  1.7258 -1.1876
  185MOL0     H24916   1.988   5.674   9.223 -0.8351 -0.8507  0.6553
  185MOL0     H24917   1.930   5.533   9.314 -1.4022  0.5697  0.0364
  185MOL0     H24918   1.969   5.395   9.095 -1.9451  1.0223 -0.7656
  185MOL0     H24919   2.083   5.518   9.058 -0.5040 -0.6373 -0.3381
  185MOL0     H24920   2.190   5.501   9.287 -3.1308  1.1379  1.8914
  185MOL0     H24921   2.092   5.362   9.321 -2.4575  1.7716  1.6579
  185MOL0     H24922   2.315   5.307   9.267 -0.1587  2.9376  0.9140
  185MOL0     H24923   2.318   5.401   9.121  1.8550 -0.4355  0.7898
  185MOL0     H24924   2.125   5.173   9.148 -0.1381 -2.6396 -2.7710
  185MOL0     H24925   2.173   5.259   8.995  0.3934  1.7475 -0.1607
  185MOL0     H24926   2.508   5.218   9.149  0.1275 -1.1790  4.3745
  185MOL0     H24927   2.688   5.013   9.160  0.9142  0.7045 -0.3384
  185MOL0     H24928   2.660   4.874   9.064  0.7996 -0.4245  2.0971
  185MOL0     H24929   2.835   4.991   8.955 -0.4529 -2.5884 -3.2672
  185MOL0     H24930   2.697   5.050   8.861  0.0611 -2.0547  0.4563
  185MOL0     H24931   2.828   5.213   9.095  1.2821 -1.1742  0.1182
  185MOL0     H24932   2.697   5.266   8.978 -1.5051 -1.2829 -1.4805
  185MOL0     H24933   2.875   5.367   8.903 -0.9356 -0.2929  1.3897
  185MOL0     H24934   2.871   5.221   8.804 -1.7929 -2.4593  0.4701
  185MOL0     H24935   3.263   5.229   9.069  0.8700 -1.4938 -0.4214
  185MOL0     H24936   3.449   5.338   8.998 -1.9577 -1.3909  1.4465
  185MOL0     H24937   3.789   5.444   9.027  2.2796 -2.9909 -0.9175
  185MOL0     H24938   4.006   5.581   9.046  0.4967  0.2995 -0.7166
  185MOL0     H24939   4.024   5.906   8.932  0.9072  1.1971 -1.0265
  185MOL0     H24940   4.120   5.799   9.038 -2.3583 -1.7099 -0.2934
  185MOL0     H24941   4.192   5.968   8.792  1.6195 -0.6901 -2.3038
  185MOL0     H24942   4.244   6.005   8.963 -0.5859 -0.9952  1.3299
  185MOL0     H24943   4.390   5.804   8.961 -1.1094 -1.6077  0.9460
  185MOL0     H24944   4.356   5.802   8.778 -1.6195  2.7440 -1.2186
  185MOL0     H24945   4.506   6.017   8.931  2.3389 -0.3449  0.0366
  185MOL0     H24946   4.409   6.049   8.787 -1.0620 -1.1737 -0.0241
  185MOL0     H24947   4.646   6.009   8.718  2.5913 -1.9155 -0.2167
  185MOL0     H24948   4.548   5.880   8.661 -0.8923  0.8474  0.1264
  185MOL0     H24949   4.759   5.889   8.886  2.2472 -1.5877  0.3742
  185MOL0     H24950   4.631   5.772   8.916 -0.8849  2.1527  1.0812
  185MOL0     H24951   4.871   5.738   8.769  0.2902 -2.6656  0.3383
  185MOL0     H24952   4.754   5.763   8.637  1.3463  1.5372  0.0893
  185MOL0     H24953   4.692   5.560   8.851 -1.8508 -0.5219 -0.0363
  185MOL0     H24954   4.627   5.582   8.693 -1.0119  1.0276  1.5595
  185MOL0     H24955   3.923   5.744   8.652 -2.0691 -1.2420 -0.4471
  185MOL0     H24956   3.707   5.617   8.647  2.6674  0.3263 -1.8893
  185MOL0     H24957   3.234   5.499   8.671 -2.6574  0.6099  0.0130
  185MOL0     H24958   3.039   5.367   8.738 -1.2953  0.8898  2.2470
  185MOL0     H24959   1.540   5.695   8.723 -1.4147  0.7622 -2.2315
  185MOL0     H24960   1.318   5.715   8.608 -0.3177  3.4106 -0.5541
  185MOL0     H24961   0.850   5.740   8.820 -3.3276  1.0860  0.6116
  185MOL0     H24962   0.626   5.741   8.798  0.2105  4.1535  2.0753
  185MOL0     H24963   0.403   5.901   8.758  1.0691 -1.5837  0.9824
  185MOL0     H24964   0.415   5.729   8.767  1.1552 -1.9260 -1.9296
  185MOL0     H24965   0.183   5.829   8.742 -1.4106 -3.1172 -1.1452
  185MOL0     H24966   0.212   5.737   8.591  0.4518 -0.1773 -0.8879
  185MOL0     H24967   0.272   5.928   8.461 -0.1187 -0.7165  0.2890
  185MOL0     H24968   0.293   6.033   8.603 -0.1578  1.8155 -2.2522
  185MOL0     H24969   0.024   5.893   8.541 -0.5979  0.1966 -0.5666
  185MOL0     H24970   0.044   6.056   8.613 -0.1172  1.3151 -1.5673
  185MOL0     H24971   0.021   6.155   8.212 -2.5148 -0.0133  1.1390
  185MOL0     H24972   0.653   5.848   8.384 -0.5688  0.7055  0.3439
  185MOL0     H24973   0.962   5.932   8.355 -1.3734  1.7956  3.8424
  185MOL0     H24974   0.993   5.759   8.349 -1.1609 -0.5217 -0.2856
  185MOL0     H24975   0.845   5.821   8.274 -1.6738  0.9850  1.0990
  186MOL0     O24976   7.869   0.279   7.752  0.0373 -0.1223  0.1892
  186MOL0     C24977   7.862   0.228   7.642 -0.5868 -0.1892 -0.0320
  186MOL0     O24978   7.957   0.235   7.549 -0.1016  0.6032  0.2511
  186MOL0     C24979   8.089   0.256   7.593  0.0642 -0.7224  0.1170
  186MOL0     C24980   8.145   0.195   7.703 -0.1778  0.6830 -0.3331
  186MOL0     C24981   8.284   0.202   7.727 -0.1396  0.4806  0.2826
  186MOL0     C24982   8.361   0.283   7.643  0.6849  0.0581  0.0823
  186MOL0     O24983   8.493   0.299   7.677  0.5331 -0.1254  0.1639
  186MOL0     C24984   8.594   0.371   7.594 -0.4486 -0.2579 -0.1231
  186MOL0     C24985   8.718   0.361   7.666  0.0204  0.0047  0.3604
  186MOL0     C24986   8.846   0.431   7.609  0.3520  0.1566 -0.2848
  186MOL0     C24987   8.864   0.381   7.465  0.0315  0.2041 -0.1549
  186MOL0     C24988   9.004   0.414   7.417  0.1564  0.1176 -0.0110
  186MOL0     C24989   9.044   0.559   7.425 -0.2271 -0.2240 -1.3167
  186MOL0     C24990   9.167   0.589   7.327  0.4036 -0.3196 -0.1043
  186MOL0     C24991   9.289   0.505   7.369  0.2952 -0.5060 -0.1848
  186MOL0     N24992   9.409   0.590   7.359  0.2173  0.5878 -0.0665
  186MOL0     C24993   9.451   0.626   7.242 -0.5351 -0.2238  0.5249
  186MOL0     C24994   9.555   0.708   7.268 -0.0502  0.4713 -0.2582
  186MOL0     C24995   9.652   0.760   7.156  0.7596  0.1779  0.0679
  186MOL0     C24996   9.588   0.811   7.033  0.0434 -0.5139  0.8666
  186MOL0     C24997   9.492   0.933   7.062 -0.8184  0.9587  0.8486
  186MOL0     C24998   9.564   1.069   7.062  0.9368  0.3505  0.1751
  186MOL0     O24999   9.635   1.071   7.183  0.3363  0.4574 -0.1503
  186MOL0     C25000   9.729   1.158   7.212 -0.8355  0.0802 -0.3211
  186MOL0     C25001   9.811   1.125   7.317 -0.4133 -0.0600 -0.4789
  186MOL0     C25002   9.919   1.210   7.355 -0.2419  0.3894 -0.6964
  186MOL0     C25003   9.948   1.324   7.282 -0.5243 -0.5197 -0.4771
  186MOL0     C25004  10.079   1.394   7.294  0.7321  0.1969  0.6104
  186MOL0     O25005  10.151   1.353   7.400 -0.1960 -0.5097  0.9609
  186MOL0     C25006  10.275   1.403   7.419  0.2166  0.8992  0.1279
  186MOL0     C25007  10.388   1.316   7.398  0.1583 -0.3798 -0.2784
  186MOL0     C25008  10.513   1.360   7.445 -0.4844 -0.7287 -0.5492
  186MOL0     C25009  10.538   1.486   7.507  0.4892  0.3801 -0.0504
  186MOL0     O25010  10.656   1.529   7.568  0.8727 -0.3068  0.6615
  186MOL0     C25011  10.750   1.431   7.597  0.2858 -0.6485 -0.0084
  186MOL0     C25012  10.880   1.473   7.661  0.4182 -0.1127 -0.0470
  186MOL0     C25013  10.860   1.561   7.787 -1.0072  0.8237 -0.4314
  186MOL0     C25014  10.992   1.590   7.855 -0.3086  0.3600  0.2078
  186MOL0     C25015  10.987   1.615   8.005 -0.4221 -0.3525 -0.2443
  186MOL0     C25016  11.128   1.617   8.073 -0.1455 -0.3364 -0.5774
  186MOL0     C25017  11.214   1.491   8.071  0.8260  0.3939  0.0739
  186MOL0     C25018  11.160   1.368   8.129 -0.3325  0.5965 -0.2533
  186MOL0    Cl25019  11.121   1.384   8.298  0.1705  0.1368  0.4006
  186MOL0     C25020  10.423   1.563   7.521 -1.4912 -0.3546  0.7923
  186MOL0     C25021  10.297   1.530   7.478 -0.1288 -0.4477 -0.1341
  186MOL0     O25022  10.085   1.497   7.227 -0.8437 -0.2035 -0.4155
  186MOL0     C25023   9.850   1.362   7.184 -0.6454 -0.3824 -0.1663
  186MOL0     C25024   9.748   1.284   7.149 -1.4807  0.2251 -0.9083
  186MOL0     N25025   9.575   0.719   7.399  0.1036  0.6884 -0.3640
  186MOL0     N25026   9.488   0.644   7.457  0.0480 -0.2679 -0.1874
  186MOL0     C25027   8.301   0.350   7.537 -0.3683  0.1572  0.8737
  186MOL0     C25028   8.169   0.338   7.515 -0.0701  0.4247 -0.2297
  186MOL0     C25029   7.740   0.148   7.614  0.3170 -0.6118 -0.3323
  186MOL0     C25030   7.746   0.055   7.508 -0.1247  0.9790 -0.7489
  186MOL0     C25031   7.638  -0.022   7.479  0.3194 -0.5529  0.2197
  186MOL0     C25032   7.516   0.003   7.540  0.3742 -0.1294 -0.9581
  186MOL0     O25033   7.404  -0.055   7.474  0.2275 -0.4445 -0.6415
  186MOL0     C25034   7.283  -0.066   7.549 -0.5894  0.0939  0.3075
  186MOL0     C25035   7.167  -0.119   7.459 -0.3719  0.0934 -0.1890
  186MOL0     C25036   7.126  -0.013   7.359 -0.4393 -0.8392 -0.0126
  186MOL0     C25037   7.042  -0.075   7.250  0.0117  1.2152 -0.5842
  186MOL0     C25038   6.979   0.019   7.155 -0.4712  0.1915 -0.4618
  186MOL0     C25039   6.926   0.104   7.091  0.1579  0.1572  0.0157
  186MOL0     C25040   7.508   0.089   7.651 -0.1969 -0.4317  0.8365
  186MOL0     C25041   7.614   0.171   7.685  0.3621  0.2601  0.3604
  186MOL0     C25042   7.587   0.266   7.800  0.2284  0.8483  0.4447
  186MOL0     H25043   8.085   0.130   7.766 -0.4703 -1.1613 -2.4061
  186MOL0     H25044   8.334   0.139   7.801 -1.9541 -0.6992  0.5761
  186MOL0     H25045   8.599   0.313   7.501 -1.0315 -0.5305  0.0094
  186MOL0     H25046   8.559   0.473   7.579  0.1360  0.1976  1.3833
  186MOL0     H25047   8.728   0.253   7.682 -0.8815 -0.2540 -0.7216
  186MOL0     H25048   8.714   0.401   7.768  2.2150  2.8084 -0.5295
  186MOL0     H25049   8.934   0.396   7.665 -0.6631 -1.3484  0.4418
  186MOL0     H25050   8.851   0.540   7.607 -0.1008  0.2994 -5.1964
  186MOL0     H25051   8.858   0.274   7.446  1.6566  0.3017 -1.5239
  186MOL0     H25052   8.789   0.424   7.399 -1.3766  1.8556  2.3452
  186MOL0     H25053   9.081   0.361   7.474 -1.6430 -1.4437  1.1263
  186MOL0     H25054   9.007   0.379   7.314  4.5439 -0.2380  0.0726
  186MOL0     H25055   8.951   0.605   7.389  1.1664  2.2984 -1.9616
  186MOL0     H25056   9.056   0.586   7.530 -1.1260 -4.9799  0.2308
  186MOL0     H25057   9.182   0.697   7.320 -0.1117 -0.2760 -0.6569
  186MOL0     H25058   9.138   0.545   7.230 -2.4342  2.1163 -0.5168
  186MOL0     H25059   9.289   0.474   7.474  0.5574  1.0580  0.3088
  186MOL0     H25060   9.287   0.415   7.308  2.1862 -0.9359  0.3108
  186MOL0     H25061   9.413   0.585   7.150 -1.9114  1.2591  0.3853
  186MOL0     H25062   9.725   0.831   7.197 -0.8744  1.4063  0.9893
  186MOL0     H25063   9.710   0.673   7.124 -0.1554 -0.1180 -0.8242
  186MOL0     H25064   9.665   0.826   6.956 -1.6620  0.1632 -0.7806
  186MOL0     H25065   9.522   0.731   6.996  0.2953 -1.0113  1.4743
  186MOL0     H25066   9.434   0.910   7.152 -0.7288  0.8631  0.8820
  186MOL0     H25067   9.428   0.947   6.975  0.0929  1.5608  0.2601
  186MOL0     H25068   9.488   1.146   7.047 -1.1998 -1.4660  1.1336
  186MOL0     H25069   9.634   1.073   6.977  0.1819 -1.9616 -0.6412
  186MOL0     H25070   9.785   1.034   7.370 -1.2097 -0.3758 -1.3777
  186MOL0     H25071   9.974   1.188   7.446 -0.6251  0.8858 -0.3452
  186MOL0     H25072  10.378   1.214   7.361  2.4846 -0.3338 -1.2243
  186MOL0     H25073  10.598   1.293   7.439  0.5957  0.6617 -1.6395
  186MOL0     H25074  10.705   1.360   7.667 -0.0096  1.4564  2.0823
  186MOL0     H25075  10.776   1.382   7.503 -2.3802 -0.4138 -0.9426
  186MOL0     H25076  10.943   1.387   7.685  1.1708  0.1924 -0.8531
  186MOL0     H25077  10.933   1.531   7.586  1.6570  1.2643  1.8182
  186MOL0     H25078  10.807   1.653   7.762  0.0267  1.7525  0.6908
  186MOL0     H25079  10.803   1.499   7.857  1.3546  0.8168  1.6251
  186MOL0     H25080  11.046   1.676   7.814  0.9782 -0.6193 -0.2385
  186MOL0     H25081  11.061   1.507   7.835  0.4884  1.0125  0.1850
  186MOL0     H25082  10.928   1.541   8.061  0.1031 -0.8245 -0.3031
  186MOL0     H25083  10.939   1.710   8.030  1.8088 -0.0442  3.4601
  186MOL0     H25084  11.190   1.696   8.029 -1.4199 -0.3592 -2.5855
  186MOL0     H25085  11.118   1.662   8.172  0.1823  0.4657 -0.8981
  186MOL0     H25086  11.306   1.513   8.125  1.2280  0.8665 -0.7877
  186MOL0     H25087  11.238   1.468   7.967  0.4412 -2.2393  0.5107
  186MOL0     H25088  11.074   1.339   8.068 -0.1986 -1.4937  0.4822
  186MOL0     H25089  11.240   1.294   8.135  0.9672  2.0692  3.6642
  186MOL0     H25090  10.449   1.660   7.563  1.3460  0.0883 -1.6486
  186MOL0     H25091  10.219   1.605   7.487  0.7055  0.1856  2.6925
  186MOL0     H25092   9.860   1.454   7.127 -1.6215  1.3512  2.2760
  186MOL0     H25093   9.672   1.311   7.076 -1.2596  0.1375 -1.1715
  186MOL0     H25094   8.360   0.409   7.467 -3.0330  2.9039  0.7079
  186MOL0     H25095   8.121   0.382   7.428  0.9531  1.7503 -0.1448
  186MOL0     H25096   7.839   0.045   7.454  1.6075 -2.1295  2.3579
  186MOL0     H25097   7.639  -0.098   7.402  2.7880 -1.6724  1.2676
  186MOL0     H25098   7.255   0.033   7.587 -0.6860  0.9873 -1.8808
  186MOL0     H25099   7.293  -0.136   7.632  3.0488  0.2513  0.1850
  186MOL0     H25100   7.077  -0.145   7.516  0.0224 -1.8713 -0.3983
  186MOL0     H25101   7.199  -0.214   7.415  1.7834  0.4286  0.5060
  186MOL0     H25102   7.212   0.045   7.326 -0.6979 -0.9351 -0.8835
  186MOL0     H25103   7.073   0.060   7.422  0.9712  0.4886 -0.3100
  186MOL0     H25104   7.103  -0.148   7.197 -0.0624  0.2904  0.5754
  186MOL0     H25105   6.958  -0.121   7.303 -1.1935  2.2637 -1.4980
  186MOL0     H25106   6.872   0.170   7.026 -0.4046  0.4639  0.7827
  186MOL0     H25107   7.406   0.097   7.687  0.1832 -3.0006  2.7836
  186MOL0     H25108   7.639   0.360   7.777  1.4803  0.1012  0.1466
  186MOL0     H25109   7.478   0.275   7.809  0.0815 -0.8131  0.5529
  186MOL0     H25110   7.625   0.232   7.897  2.2976 -0.5425 -0.7813
  187MOL0     O25111  10.557   6.113  10.206 -0.1654 -0.3166 -0.5967
  187MOL0     C25112  10.602   6.077  10.103 -0.0803  0.4076 -0.1050
  187MOL0     O25113  10.698   5.984  10.094  0.0702 -0.6730 -0.3138
  187MOL0     C25114  10.743   5.936  10.217 -0.5207  0.0357  0.0378
  187MOL0     C25115  10.826   6.006  10.305 -0.5956  0.2421  0.1271
  187MOL0     C25116  10.867   5.947  10.422  0.3590 -0.3289  0.0744
  187MOL0     C25117  10.838   5.812  10.450  0.9652 -0.1321 -0.8941
  187MOL0     O25118  10.877   5.747  10.568 -0.7692 -0.2600  0.0083
  187MOL0     C25119  11.014   5.701  10.556  0.2013 -0.1735 -0.3301
  187MOL0     C25120  11.111   5.797  10.644 -0.2307 -0.3221  0.3050
  187MOL0     C25121  11.262   5.758  10.621  0.4834 -0.6052 -0.0171
  187MOL0     C25122  11.365   5.856  10.674  0.2025 -0.1161  0.3330
  187MOL0     C25123  11.507   5.806  10.667  0.0108 -0.1375 -0.6042
  187MOL0     C25124  11.596   5.891  10.757 -1.0418  0.0239  0.9925
  187MOL0     C25125  11.748   5.842  10.776 -0.8889  0.3488  0.4707
  187MOL0     C25126  11.840   5.865  10.653  0.3113  0.1065  0.5545
  187MOL0     N25127  11.968   5.810  10.674 -0.4773  0.2010  0.3762
  187MOL0     C25128  12.064   5.855  10.761 -0.3111 -0.2084 -0.2403
  187MOL0     C25129  12.174   5.785  10.716 -0.2256 -0.9039 -0.4479
  187MOL0     C25130  12.306   5.799  10.771  0.2636 -0.9371 -0.0273
  187MOL0     C25131  12.408   5.847  10.661  0.9377  0.6644 -0.3819
  187MOL0     C25132  12.542   5.890  10.711  0.0475 -0.3280  0.0148
  187MOL0     C25133  12.621   5.974  10.603 -0.1298  0.5996 -0.0888
  187MOL0     O25134  12.664   5.895  10.493 -0.4670 -0.0917 -0.2161
  187MOL0     C25135  12.783   5.825  10.508 -0.2248  0.2161  0.6496
  187MOL0     C25136  12.829   5.751  10.398  0.5867  0.6484 -0.9653
  187MOL0     C25137  12.943   5.664  10.407  0.8008 -0.0314 -0.2067
  187MOL0     C25138  13.014   5.653  10.524 -0.6038  0.0035  0.2138
  187MOL0     C25139  13.133   5.570  10.524  0.2887 -0.3355  0.4502
  187MOL0     O25140  13.163   5.495  10.414 -0.3166  0.1519  0.4336
  187MOL0     C25141  13.292   5.442  10.391 -0.1655 -1.1247 -1.1504
  187MOL0     C25142  13.293   5.304  10.354 -0.2091 -0.2458 -0.1318
  187MOL0     C25143  13.416   5.246  10.332  0.1933 -0.1284 -0.3844
  187MOL0     C25144  13.537   5.323  10.332 -0.4151  0.8857 -0.1458
  187MOL0     O25145  13.664   5.260  10.321 -0.3819  0.1108  0.5446
  187MOL0     C25146  13.659   5.135  10.254 -0.2250 -0.1869  0.4242
  187MOL0     C25147  13.782   5.117  10.157 -0.1902 -0.1120 -0.3441
  187MOL0     C25148  13.904   5.061  10.231  0.0497 -0.5157 -0.7752
  187MOL0     C25149  14.038   5.117  10.183  0.0117  0.3833  0.1427
  187MOL0     C25150  14.083   5.037  10.058 -0.8397 -0.4472  0.0169
  187MOL0     C25151  14.030   5.073   9.919 -0.7596  0.7776  0.1746
  187MOL0     C25152  14.073   5.214   9.874 -0.4010  0.5300  0.2616
  187MOL0     C25153  14.005   5.260   9.745 -0.3675 -0.0652 -0.2917
  187MOL0    Cl25154  14.097   5.407   9.703  0.1654  0.1843  0.4272
  187MOL0     C25155  13.539   5.457  10.359  0.5733  1.1605  0.1020
  187MOL0     C25156  13.415   5.514  10.394  0.3086  0.2745 -0.2856
  187MOL0     O25157  13.207   5.587  10.624 -0.4869  0.2509  0.1493
  187MOL0     C25158  12.984   5.740  10.632 -0.3196  0.6869 -0.3576
  187MOL0     C25159  12.871   5.826  10.616  0.0391 -0.0881 -0.1089
  187MOL0     N25160  12.139   5.687  10.624 -0.3488 -0.2091  0.4094
  187MOL0     N25161  12.017   5.711  10.600  0.0440  0.5115 -0.1283
  187MOL0     C25162  10.746   5.748  10.367  0.3082 -0.7706  0.6180
  187MOL0     C25163  10.700   5.808  10.245  0.0025  0.7751 -0.3336
  187MOL0     C25164  10.536   6.138   9.976 -0.4790  0.0140 -0.7453
  187MOL0     C25165  10.607   6.124   9.848 -0.3266  0.5201 -0.2208
  187MOL0     C25166  10.551   6.173   9.736  0.4958  0.6643  0.4050
  187MOL0     C25167  10.424   6.226   9.736  0.1315 -0.9156 -0.0707
  187MOL0     O25168  10.372   6.272   9.621  0.9702 -0.1278 -0.1116
  187MOL0     C25169  10.410   6.412   9.600  0.2161 -0.1277  0.5825
  187MOL0     C25170  10.312   6.463   9.487  0.5434  0.4792 -0.0447
  187MOL0     C25171  10.161   6.452   9.529 -0.3931  0.3113 -0.4627
  187MOL0     C25172  10.064   6.552   9.453  0.3775  0.2664  0.2161
  187MOL0     C25173  10.071   6.692   9.498  0.4245 -0.6036 -0.2176
  187MOL0     C25174  10.092   6.799   9.543 -0.0314 -1.2548 -0.4248
  187MOL0     C25175  10.350   6.232   9.850 -0.2210  0.0358  0.4993
  187MOL0     C25176  10.405   6.201   9.977  0.2268  0.6074  0.5144
  187MOL0     C25177  10.315   6.196  10.098  0.5083  0.4520  0.8647
  187MOL0     H25178  10.862   6.107  10.290  0.5888 -0.1001  0.5374
  187MOL0     H25179  10.936   5.996  10.490 -0.9113 -1.5464  2.3844
  187MOL0     H25180  11.025   5.603  10.605  0.2210 -0.7040 -1.3745
  187MOL0     H25181  11.054   5.691  10.455  1.5023  2.8537 -0.2252
  187MOL0     H25182  11.084   5.804  10.750 -0.1435 -3.5924  0.6272
  187MOL0     H25183  11.100   5.901  10.611  0.5541  0.2438  1.7299
  187MOL0     H25184  11.271   5.757  10.512 -0.9055  1.2909 -0.2141
  187MOL0     H25185  11.280   5.657  10.658  0.0818 -1.3409 -1.7302
  187MOL0     H25186  11.360   5.950  10.619  1.9349  0.5845  1.2811
  187MOL0     H25187  11.343   5.881  10.778 -0.7030 -0.2371  0.1758
  187MOL0     H25188  11.514   5.704  10.706  3.1074 -0.4598 -1.7002
  187MOL0     H25189  11.545   5.806  10.564 -1.3986  0.7711 -1.1422
  187MOL0     H25190  11.589   5.998  10.735 -1.7935 -0.1966  0.0994
  187MOL0     H25191  11.558   5.869  10.857  1.1576 -2.0293  1.4599
  187MOL0     H25192  11.751   5.734  10.794 -0.5461  0.1556 -0.6433
  187MOL0     H25193  11.787   5.887  10.867 -1.1545 -0.3254  0.9222
  187MOL0     H25194  11.793   5.820  10.565  1.4000 -1.2332  0.6200
  187MOL0     H25195  11.855   5.972  10.637 -4.0120  1.4106  3.5811
  187MOL0     H25196  12.066   5.930  10.839  1.6442  0.5083 -0.9310
  187MOL0     H25197  12.306   5.873  10.852 -0.4736 -1.2385  0.2600
  187MOL0     H25198  12.340   5.706  10.817 -1.0198 -0.5782  1.7947
  187MOL0     H25199  12.428   5.768  10.587  2.9473 -0.2650  1.0506
  187MOL0     H25200  12.368   5.924  10.595 -0.2909  0.0365 -0.3997
  187MOL0     H25201  12.592   5.804  10.755  1.2572 -0.8398 -2.1890
  187MOL0     H25202  12.516   5.964  10.788 -1.5529 -0.4294 -0.3852
  187MOL0     H25203  12.711   6.014  10.650 -0.3853 -0.3279  1.2135
  187MOL0     H25204  12.566   6.060  10.562  3.1666  1.5466 -3.0231
  187MOL0     H25205  12.777   5.754  10.303  1.7698  0.1509 -1.6582
  187MOL0     H25206  12.981   5.616  10.317  3.2381 -0.3815  0.9294
  187MOL0     H25207  13.201   5.247  10.368 -0.4010  0.7431  4.2689
  187MOL0     H25208  13.402   5.138  10.325 -0.7977 -0.3297  2.9076
  187MOL0     H25209  13.651   5.048  10.319  0.2046 -2.2532 -2.1132
  187MOL0     H25210  13.570   5.127  10.192  0.4140  3.1602 -1.1543
  187MOL0     H25211  13.752   5.044  10.081  0.0654 -0.9707  0.3631
  187MOL0     H25212  13.805   5.212  10.109 -0.4280  1.6515  2.7691
  187MOL0     H25213  13.903   5.079  10.339  1.6063 -0.8737 -0.6865
  187MOL0     H25214  13.904   4.953  10.218 -1.3692 -0.5647 -0.6154
  187MOL0     H25215  14.110   5.102  10.264 -0.8522  2.0725  1.2784
  187MOL0     H25216  14.038   5.226  10.173 -0.7767  0.7420  3.1043
  187MOL0     H25217  14.054   4.932  10.070  1.1182 -1.0506 -0.1724
  187MOL0     H25218  14.192   5.035  10.049 -0.9437 -3.8821 -2.5869
  187MOL0     H25219  14.073   5.003   9.847  2.6607  0.9942  1.8214
  187MOL0     H25220  13.922   5.060   9.913 -0.6134 -2.5197  2.3690
  187MOL0     H25221  14.182   5.210   9.871 -0.1787  3.1958  1.9976
  187MOL0     H25222  14.052   5.279   9.959 -0.6265  0.2516  0.4218
  187MOL0     H25223  14.024   5.190   9.663  4.6104  0.5663  0.0125
  187MOL0     H25224  13.898   5.280   9.758 -0.2806 -0.3400  0.9588
  187MOL0     H25225  13.629   5.513  10.337  1.3236 -0.8798 -2.4597
  187MOL0     H25226  13.393   5.619  10.412 -0.2322 -0.1028  1.4489
  187MOL0     H25227  13.042   5.744  10.724  0.7252  0.3102 -0.9852
  187MOL0     H25228  12.859   5.897  10.697  1.4941  1.3889 -1.1354
  187MOL0     H25229  10.720   5.647  10.394  1.9056 -0.8544  1.9753
  187MOL0     H25230  10.650   5.740  10.177  1.1522  2.5332 -3.0794
  187MOL0     H25231  10.704   6.077   9.849 -1.1585 -1.3735 -2.1049
  187MOL0     H25232  10.594   6.162   9.636  0.3978  0.2036  0.4093
  187MOL0     H25233  10.514   6.424   9.571  0.6459  1.3854  2.5127
  187MOL0     H25234  10.399   6.479   9.686  0.5323 -1.1662  1.4528
  187MOL0     H25235  10.338   6.412   9.394 -1.4194 -0.2573 -0.2231
  187MOL0     H25236  10.314   6.571   9.470 -0.4042  0.6331  0.7546
  187MOL0     H25237  10.161   6.480   9.635  0.1381  2.0261 -0.8735
  187MOL0     H25238  10.122   6.351   9.515 -1.1995  0.4545  0.6051
  187MOL0     H25239  10.091   6.546   9.347  2.4911 -0.0125  0.7301
  187MOL0     H25240   9.963   6.522   9.479 -0.0851  1.7899  0.2950
  187MOL0     H25241  10.112   6.895   9.587  1.0465 -1.8377  0.4094
  187MOL0     H25242  10.248   6.269   9.847 -0.5562 -0.9071 -0.7953
  187MOL0     H25243  10.361   6.257  10.178  0.1184  0.9135  0.7441
  187MOL0     H25244  10.215   6.236  10.080 -0.9279 -1.8756  2.9061
  187MOL0     H25245  10.302   6.094  10.136  1.8053 -0.4132 -0.8864
  188MOL0     O25246   6.061   6.180  10.075 -1.0056 -0.3903 -0.4076
  188MOL0     C25247   5.982   6.139   9.995 -0.6045 -0.3906  0.0479
  188MOL0     O25248   5.976   6.182   9.864 -0.1133 -0.6446  0.4548
  188MOL0     C25249   6.080   6.270   9.812  0.0414 -0.0287 -1.1548
  188MOL0     C25250   6.218   6.262   9.842  0.0573  0.7911  0.6247
  188MOL0     C25251   6.310   6.338   9.773 -0.5582 -0.0852  0.3797
  188MOL0     C25252   6.270   6.445   9.689  0.2419 -0.0995  0.5707
  188MOL0     O25253   6.366   6.514   9.628 -0.7193  0.5452  0.2136
  188MOL0     C25254   6.331   6.622   9.547  0.9477  0.1033 -0.4821
  188MOL0     C25255   6.465   6.659   9.482  0.1954 -0.7892  0.3491
  188MOL0     C25256   6.573   6.693   9.595  0.0883  0.4746  0.6120
  188MOL0     C25257   6.681   6.796   9.544  0.7602  0.1426  0.1529
  188MOL0     C25258   6.814   6.807   9.622  0.2881 -0.0482  0.1424
  188MOL0     C25259   6.786   6.865   9.766 -0.5035  0.6154 -0.0271
  188MOL0     C25260   6.700   6.987   9.792  0.5011  0.3280 -0.0217
  188MOL0     C25261   6.741   7.114   9.723 -0.0923 -0.2767 -0.0643
  188MOL0     N25262   6.888   7.139   9.731 -0.0966 -0.0281 -0.7490
  188MOL0     C25263   6.989   7.126   9.639 -1.0039 -0.2567 -0.4102
  188MOL0     C25264   7.110   7.120   9.704  0.2120  0.0019 -0.5650
  188MOL0     C25265   7.240   7.104   9.637 -0.8507  0.5334 -0.1141
  188MOL0     C25266   7.260   6.977   9.555  0.9818  0.0805  1.0460
  188MOL0     C25267   7.339   7.000   9.422  0.4403  0.3607  0.0207
  188MOL0     C25268   7.488   7.058   9.449  1.5440  0.1213 -0.3150
  188MOL0     O25269   7.579   6.957   9.499  0.3526 -0.6739  0.1709
  188MOL0     C25270   7.708   6.996   9.535 -0.0428  0.1086  0.8366
  188MOL0     C25271   7.759   7.130   9.530  0.1499 -0.3287 -0.3141
  188MOL0     C25272   7.871   7.170   9.598 -0.1798  0.3165 -0.6974
  188MOL0     C25273   7.951   7.073   9.659  0.0368  0.2654 -0.1900
  188MOL0     C25274   8.081   7.112   9.720 -0.1187 -1.1634  0.7925
  188MOL0     O25275   8.187   7.029   9.703  0.2122  0.9164  0.6371
  188MOL0     C25276   8.322   7.064   9.711 -0.1077  0.6638  0.6857
  188MOL0     C25277   8.361   7.178   9.645 -0.2594 -0.1812  0.3259
  188MOL0     C25278   8.495   7.205   9.620  0.1847  0.1708 -0.3223
  188MOL0     C25279   8.598   7.123   9.669 -0.5504 -0.1706  0.6279
  188MOL0     O25280   8.723   7.161   9.642  0.4147  0.0014  0.1442
  188MOL0     C25281   8.830   7.082   9.686  0.1732 -0.1847 -0.2436
  188MOL0     C25282   8.947   7.162   9.659  0.5572  0.4055 -0.7351
  188MOL0     C25283   9.063   7.069   9.637  0.0658  0.6236 -0.3296
  188MOL0     C25284   9.192   7.134   9.625 -0.1374 -0.2407  0.1987
  188MOL0     C25285   9.301   7.033   9.592  0.5007 -0.7901  0.4884
  188MOL0     C25286   9.394   7.007   9.713 -0.0086 -0.9589  0.2035
  188MOL0     C25287   9.526   6.949   9.684 -1.3718  0.6425 -0.3964
  188MOL0     C25288   9.621   6.946   9.801  0.0603 -0.0607  0.3138
  188MOL0    Cl25289   9.774   6.866   9.758 -0.0892 -0.4115 -0.2688
  188MOL0     C25290   8.558   7.003   9.734 -0.3875 -0.3388 -0.0096
  188MOL0     C25291   8.425   6.970   9.754 -0.1506 -0.4396 -0.1812
  188MOL0     O25292   8.099   7.224   9.756  0.4415 -0.9647  0.0303
  188MOL0     C25293   7.907   6.937   9.652 -0.2379 -0.1089  0.4965
  188MOL0     C25294   7.788   6.899   9.592 -0.5502  0.5421  0.3404
  188MOL0     N25295   7.082   7.157   9.828  0.4711 -0.5842 -0.0501
  188MOL0     N25296   6.950   7.162   9.850  0.2856  0.1554 -0.6440
  188MOL0     C25297   6.134   6.463   9.675 -0.3640  0.8991  0.4168
  188MOL0     C25298   6.040   6.375   9.730  0.0630  0.6681 -0.2156
  188MOL0     C25299   5.877   6.052  10.048  0.7850  0.2474 -0.6635
  188MOL0     C25300   5.892   6.006  10.182  1.2095  0.1041  0.0549
  188MOL0     C25301   5.797   5.925  10.244 -0.3088 -0.3419  0.3708
  188MOL0     C25302   5.688   5.877  10.174 -0.3817  0.2719  0.6277
  188MOL0     O25303   5.607   5.799  10.248  0.6885 -0.3136  0.5236
  188MOL0     C25304   5.490   5.730  10.183 -0.6912 -0.0706 -0.7209
  188MOL0     C25305   5.366   5.810  10.187  0.5940 -0.3918 -0.0051
  188MOL0     C25306   5.340   5.869  10.327  0.0604  0.5322 -0.2612
  188MOL0     C25307   5.189   5.899  10.344 -0.7050  1.0992 -0.6608
  188MOL0     C25308   5.162   5.951  10.481  0.5550 -0.6698  0.4374
  188MOL0     C25309   5.130   5.992  10.591  0.4812  0.8907  0.0309
  188MOL0     C25310   5.675   5.920  10.040  0.3691  0.5136  0.3871
  188MOL0     C25311   5.766   6.002   9.974  0.1654 -0.6461  0.5579
  188MOL0     C25312   5.739   6.036   9.821  0.7857 -0.0614 -0.6265
  188MOL0     H25313   6.257   6.181   9.903 -0.4711  0.3467  0.3837
  188MOL0     H25314   6.417   6.333   9.787 -0.7282 -1.4225  1.4435
  188MOL0     H25315   6.258   6.586   9.474 -1.3775  0.3410  1.6227
  188MOL0     H25316   6.288   6.697   9.614 -0.7046 -1.3481  0.1275
  188MOL0     H25317   6.451   6.752   9.426 -0.1307 -0.8943  0.2552
  188MOL0     H25318   6.500   6.590   9.405 -2.2514  1.0256 -2.6052
  188MOL0     H25319   6.630   6.602   9.619  0.0972  0.5029  0.6978
  188MOL0     H25320   6.523   6.726   9.686  0.3347  0.7968  0.6316
  188MOL0     H25321   6.708   6.766   9.442 -1.4909 -0.2449 -0.3878
  188MOL0     H25322   6.637   6.896   9.534  0.5566  0.0751  0.3800
  188MOL0     H25323   6.862   6.711   9.645  1.3371  0.5382  0.4648
  188MOL0     H25324   6.884   6.875   9.574 -0.0962 -0.1337 -0.5462
  188MOL0     H25325   6.736   6.786   9.822 -0.0761 -0.9949 -1.8031
  188MOL0     H25326   6.882   6.883   9.815  1.3026  0.9735 -3.3962
  188MOL0     H25327   6.696   7.000   9.901 -2.0083 -3.2658  0.5358
  188MOL0     H25328   6.592   6.973   9.776  0.4382  0.8090 -0.0250
  188MOL0     H25329   6.697   7.117   9.623 -0.2090 -2.0756 -0.0930
  188MOL0     H25330   6.701   7.206   9.767  0.3661 -0.3086  0.4269
  188MOL0     H25331   6.986   7.094   9.535  0.4983 -0.4750 -0.4006
  188MOL0     H25332   7.257   7.193   9.576 -3.0234  1.0288 -0.0832
  188MOL0     H25333   7.316   7.090   9.714  0.8663 -2.7777 -2.1800
  188MOL0     H25334   7.299   6.888   9.604 -1.0531 -1.2245  0.4209
  188MOL0     H25335   7.158   6.947   9.529  1.2697 -1.3162  1.4349
  188MOL0     H25336   7.290   7.071   9.355  2.9506  1.7823 -0.4421
  188MOL0     H25337   7.341   6.905   9.369  1.8423  0.5737 -0.3678
  188MOL0     H25338   7.484   7.143   9.519  3.1748 -0.4107  0.4870
  188MOL0     H25339   7.517   7.101   9.353 -2.0371  0.2238 -1.5064
  188MOL0     H25340   7.698   7.200   9.476  1.4933 -1.6816 -3.9095
  188MOL0     H25341   7.895   7.275   9.603  0.8293  0.0437  0.6374
  188MOL0     H25342   8.285   7.246   9.610  0.6608  0.6090 -0.1957
  188MOL0     H25343   8.515   7.297   9.566  1.3677 -0.8961 -1.7954
  188MOL0     H25344   8.826   7.063   9.794 -1.5238  0.1192 -0.2242
  188MOL0     H25345   8.844   6.990   9.628  4.4382  0.7790 -1.0586
  188MOL0     H25346   8.944   7.210   9.561  2.5019  2.5449  0.1821
  188MOL0     H25347   8.960   7.241   9.733 -2.5447 -1.8039  2.5114
  188MOL0     H25348   9.059   6.998   9.720 -2.4101  2.8476  1.6596
  188MOL0     H25349   9.040   7.019   9.542 -1.1292  1.7756 -0.6825
  188MOL0     H25350   9.214   7.188   9.717 -1.4788  0.2904  0.2195
  188MOL0     H25351   9.203   7.201   9.540  1.0033 -0.7893 -0.1154
  188MOL0     H25352   9.351   7.073   9.503 -2.2292  0.0937 -0.7556
  188MOL0     H25353   9.258   6.937   9.563  2.6722 -1.2957 -1.3638
  188MOL0     H25354   9.407   7.098   9.773 -0.2906 -1.0102  0.3417
  188MOL0     H25355   9.337   6.952   9.788  2.0274 -0.5742  2.1173
  188MOL0     H25356   9.582   7.010   9.613 -2.3514 -0.2374 -1.9875
  188MOL0     H25357   9.514   6.847   9.646 -1.4148  1.4773 -2.7894
  188MOL0     H25358   9.638   7.044   9.846  1.2352  1.1786 -2.5848
  188MOL0     H25359   9.572   6.877   9.870 -0.3987 -0.6121 -0.5457
  188MOL0     H25360   8.637   6.931   9.752  1.7809  1.2292 -2.4652
  188MOL0     H25361   8.394   6.873   9.791  1.4291 -0.6704  0.6048
  188MOL0     H25362   7.972   6.869   9.706 -2.2368 -3.0611 -0.5817
  188MOL0     H25363   7.756   6.795   9.584 -1.8267  1.0148 -1.3860
  188MOL0     H25364   6.101   6.547   9.615  0.3387  0.8652 -0.0337
  188MOL0     H25365   5.934   6.393   9.711 -0.3869 -1.3909  0.0703
  188MOL0     H25366   5.978   6.036  10.241  0.2974  2.3421  0.3648
  188MOL0     H25367   5.823   5.889  10.342 -1.1114 -0.3915  0.5706
  188MOL0     H25368   5.477   5.634  10.233 -0.0121 -0.9442 -2.1687
  188MOL0     H25369   5.522   5.694  10.084 -0.0641 -4.7269  0.9534
  188MOL0     H25370   5.278   5.754  10.155 -0.1370  1.7104 -1.9388
  188MOL0     H25371   5.388   5.895  10.121  3.2191  0.6245  1.9578
  188MOL0     H25372   5.393   5.964  10.339 -1.3189  1.2508  0.2865
  188MOL0     H25373   5.369   5.799  10.406 -1.4877 -1.8756 -1.6976
  188MOL0     H25374   5.152   5.969  10.268 -1.4189  1.5689  0.0991
  188MOL0     H25375   5.129   5.808  10.342  0.3587  0.1822  2.7913
  188MOL0     H25376   5.101   6.026  10.688 -1.7196 -0.5472 -0.0446
  188MOL0     H25377   5.594   5.883   9.978  1.3723 -0.8735 -0.1559
  188MOL0     H25378   5.726   6.144   9.816  2.3019  0.2159  0.4485
  188MOL0     H25379   5.820   5.990   9.762  2.0679  2.8244 -1.2868
  188MOL0     H25380   5.639   6.004   9.790  0.1437  1.1188  0.1598
  189MOL0     O25381   2.187   0.629   0.179  0.1098  0.5014 -0.1916
  189MOL0     C25382   2.138   0.663   0.071 -0.1542 -0.0554 -0.9379
  189MOL0     O25383   2.191   0.640  -0.051 -0.1658 -0.5448 -0.1685
  189MOL0     C25384   2.324   0.612  -0.058  0.2277 -0.4897 -0.6256
  189MOL0     C25385   2.422   0.683   0.013  0.9701 -0.0116 -0.4517
  189MOL0     C25386   2.559   0.663  -0.015  0.2510 -0.7150  0.3500
  189MOL0     C25387   2.596   0.562  -0.104 -0.7958 -0.5442  0.8594
  189MOL0     O25388   2.734   0.547  -0.134 -0.2133 -0.8606 -0.2571
  189MOL0     C25389   2.770   0.431  -0.208  0.3827  0.4626 -0.2231
  189MOL0     C25390   2.911   0.401  -0.155 -0.4474 -0.0523  0.6895
  189MOL0     C25391   2.987   0.308  -0.249  0.4215  0.6071 -0.0883
  189MOL0     C25392   3.126   0.277  -0.194  0.2517 -0.2595 -0.3443
  189MOL0     C25393   3.212   0.203  -0.301  0.2113 -0.5235 -0.7329
  189MOL0     C25394   3.352   0.171  -0.234  0.5029  0.0533  0.1088
  189MOL0     C25395   3.436   0.083  -0.342  0.5397 -0.9773  0.1858
  189MOL0     C25396   3.399  -0.063  -0.312  0.1088  0.9503  1.0705
  189MOL0     N25397   3.490  -0.165  -0.370  0.4029 -0.4917 -0.4107
  189MOL0     C25398   3.629  -0.145  -0.401  0.2731 -0.5189  0.5824
  189MOL0     C25399   3.672  -0.252  -0.472  0.3710  0.5952  0.6639
  189MOL0     C25400   3.798  -0.270  -0.549 -0.4813  0.0619  0.1916
  189MOL0     C25401   3.792  -0.387  -0.644  0.1756  0.9032 -0.5307
  189MOL0     C25402   3.887  -0.376  -0.766  0.4100  0.0001 -0.2790
  189MOL0     C25403   4.026  -0.340  -0.732 -1.0642  0.4068 -0.1750
  189MOL0     O25404   4.123  -0.373  -0.844  0.1076  1.3465  0.3336
  189MOL0     C25405   4.264  -0.351  -0.819  1.1873 -0.8185  0.3752
  189MOL0     C25406   4.318  -0.306  -0.696 -0.3059 -0.5050  0.3263
  189MOL0     C25407   4.455  -0.294  -0.682 -0.6645 -0.7415  0.8039
  189MOL0     C25408   4.539  -0.305  -0.799  0.3974 -0.8373 -0.4034
  189MOL0     C25409   4.680  -0.250  -0.796  0.4946 -0.1614 -0.2484
  189MOL0     O25410   4.756  -0.266  -0.907  0.3131 -0.2193  0.0118
  189MOL0     C25411   4.891  -0.241  -0.894 -0.2998  0.1454  0.0637
  189MOL0     C25412   4.966  -0.259  -0.771 -0.8202 -0.0531  0.2643
  189MOL0     C25413   5.108  -0.223  -0.770 -0.3352  0.2749  0.1455
  189MOL0     C25414   5.173  -0.163  -0.872 -0.1608  0.6572  0.0742
  189MOL0     O25415   5.301  -0.114  -0.852  0.5874 -0.8306  0.0850
  189MOL0     C25416   5.395  -0.158  -0.948 -0.8739 -0.0479 -1.7860
  189MOL0     C25417   5.460  -0.291  -0.896 -0.1709  0.0163  0.7350
  189MOL0     C25418   5.567  -0.360  -0.983 -0.4770  0.0370 -0.4041
  189MOL0     C25419   5.692  -0.269  -1.016 -0.3958  0.6748  0.0659
  189MOL0     C25420   5.800  -0.352  -1.079 -0.3475  0.5577 -0.0936
  189MOL0     C25421   5.902  -0.259  -1.154  0.2921 -0.6428  0.2291
  189MOL0     C25422   6.023  -0.339  -1.201  0.1961 -0.2165  0.4994
  189MOL0     C25423   6.147  -0.248  -1.210  0.6535  0.1469 -0.3921
  189MOL0    Cl25424   6.290  -0.322  -1.279 -0.0113  0.6425  0.3302
  189MOL0     C25425   5.102  -0.154  -0.990 -0.1439 -0.7227 -0.0425
  189MOL0     C25426   4.966  -0.192  -1.003 -0.1184 -0.1617 -0.0719
  189MOL0     O25427   4.713  -0.193  -0.695  0.4951 -0.0055  0.1014
  189MOL0     C25428   4.484  -0.347  -0.921  0.6196 -0.9095 -0.2134
  189MOL0     C25429   4.343  -0.376  -0.929 -0.2758  0.0978 -0.0025
  189MOL0     N25430   3.558  -0.334  -0.483 -0.0761 -0.7664 -0.9200
  189MOL0     N25431   3.452  -0.273  -0.428 -0.0211  0.2597 -0.3130
  189MOL0     C25432   2.492   0.490  -0.163 -0.7407 -0.0904  0.5449
  189MOL0     C25433   2.361   0.518  -0.152  0.0389 -0.5173 -0.3210
  189MOL0     C25434   1.999   0.723   0.069 -1.2007  0.0242 -0.7930
  189MOL0     C25435   1.945   0.758  -0.060  0.2944 -0.9630 -0.1247
  189MOL0     C25436   1.811   0.805  -0.075 -0.1141 -0.4344 -0.0920
  189MOL0     C25437   1.731   0.827   0.034 -0.5288 -0.5189  0.3079
  189MOL0     O25438   1.604   0.875   0.013 -0.8338 -0.5872  0.4283
  189MOL0     C25439   1.606   1.024   0.009 -0.2104 -0.1926 -0.6614
  189MOL0     C25440   1.466   1.080   0.001 -0.0270  1.4267  0.3823
  189MOL0     C25441   1.385   1.057   0.131 -0.9629  0.1219 -0.0501
  189MOL0     C25442   1.240   1.087   0.109  0.4491 -0.2334 -0.4432
  189MOL0     C25443   1.200   1.224   0.150  0.4209  0.2124  0.0725
  189MOL0     C25444   1.179   1.338   0.182 -0.1431  0.1092  0.2826
  189MOL0     C25445   1.780   0.800   0.161  0.2459  0.2974  0.1576
  189MOL0     C25446   1.907   0.744   0.179 -0.1131 -0.4810  0.4522
  189MOL0     C25447   1.948   0.718   0.321 -0.6943  0.3103  0.6955
  189MOL0     H25448   2.393   0.763   0.081  1.3768 -1.4321  1.4706
  189MOL0     H25449   2.634   0.723   0.034 -0.3020 -0.6941  1.1804
  189MOL0     H25450   2.705   0.345  -0.188  1.8723 -0.4779  0.9344
  189MOL0     H25451   2.791   0.448  -0.314  0.1829 -0.9481 -0.5141
  189MOL0     H25452   2.907   0.349  -0.059  0.7680 -1.6484 -0.0570
  189MOL0     H25453   2.966   0.495  -0.150  0.2277 -0.3368 -0.8403
  189MOL0     H25454   3.000   0.354  -0.348 -0.3181 -1.5202 -1.2549
  189MOL0     H25455   2.927   0.217  -0.262 -0.3311  1.3889 -2.8970
  189MOL0     H25456   3.179   0.367  -0.162  0.7255 -0.8848  0.6624
  189MOL0     H25457   3.117   0.215  -0.104  3.2501 -0.4409 -0.0599
  189MOL0     H25458   3.170   0.104  -0.322 -2.5008  0.5212 -0.5988
  189MOL0     H25459   3.229   0.257  -0.394 -3.5059 -1.3540 -2.0866
  189MOL0     H25460   3.403   0.263  -0.204  0.8772 -0.2681  0.4714
  189MOL0     H25461   3.342   0.112  -0.143 -0.0693 -1.4872 -0.9245
  189MOL0     H25462   3.540   0.110  -0.318 -0.2577  2.0080  0.6623
  189MOL0     H25463   3.431   0.120  -0.445  0.8454  1.1382  0.8784
  189MOL0     H25464   3.409  -0.090  -0.206  1.2468 -2.3585  0.2490
  189MOL0     H25465   3.299  -0.099  -0.339  0.3267 -1.2888  2.9083
  189MOL0     H25466   3.687  -0.053  -0.390 -1.2169  0.3604  1.4239
  189MOL0     H25467   3.824  -0.189  -0.617  0.1877  0.1331  0.5241
  189MOL0     H25468   3.885  -0.276  -0.484  2.4859  0.1483 -3.4537
  189MOL0     H25469   3.826  -0.474  -0.587 -0.2196  1.2805  0.3007
  189MOL0     H25470   3.690  -0.398  -0.682 -0.7387 -4.9595  2.4646
  189MOL0     H25471   3.849  -0.290  -0.820  0.5940  1.3190  1.5842
  189MOL0     H25472   3.883  -0.470  -0.822 -0.8024 -0.3846  0.4220
  189MOL0     H25473   4.060  -0.387  -0.639  2.0206 -0.9651 -1.8397
  189MOL0     H25474   4.034  -0.235  -0.701 -0.7310  0.8701 -1.7334
  189MOL0     H25475   4.255  -0.282  -0.610  0.4608 -0.4387  0.8851
  189MOL0     H25476   4.510  -0.257  -0.596  0.3959 -1.0353  0.2714
  189MOL0     H25477   4.922  -0.304  -0.683 -0.0564 -0.1976  0.5771
  189MOL0     H25478   5.178  -0.246  -0.690 -1.0134  0.3088  0.7596
  189MOL0     H25479   5.369  -0.171  -1.054  0.7470 -0.7754 -2.1380
  189MOL0     H25480   5.472  -0.080  -0.953 -1.2312  0.4518  0.0534
  189MOL0     H25481   5.507  -0.275  -0.799 -1.2468  3.5460  0.8290
  189MOL0     H25482   5.381  -0.367  -0.893  1.3053 -1.5996  0.0281
  189MOL0     H25483   5.603  -0.444  -0.923  1.7902  0.0219 -1.6530
  189MOL0     H25484   5.521  -0.399  -1.074 -1.2072  3.9871 -1.9126
  189MOL0     H25485   5.727  -0.223  -0.924  1.9345 -0.1874 -0.3359
  189MOL0     H25486   5.663  -0.186  -1.082  0.8605 -0.4962 -2.0617
  189MOL0     H25487   5.760  -0.438  -1.133 -2.9666  1.1991  0.7000
  189MOL0     H25488   5.846  -0.409  -0.998 -2.7111  1.2228  1.8200
  189MOL0     H25489   5.842  -0.219  -1.237 -0.5267  0.1455  1.1643
  189MOL0     H25490   5.934  -0.184  -1.082  2.8185 -1.9592  0.5908
  189MOL0     H25491   6.015  -0.370  -1.306  1.1415  1.6404 -0.1649
  189MOL0     H25492   6.045  -0.420  -1.131  1.2264 -1.2036 -0.8883
  189MOL0     H25493   6.113  -0.162  -1.269  0.5767  1.5256  1.5829
  189MOL0     H25494   6.171  -0.204  -1.113 -2.3760 -0.8063  0.8966
  189MOL0     H25495   5.158  -0.110  -1.072 -1.2170  1.9505  0.5584
  189MOL0     H25496   4.916  -0.181  -1.099 -1.2820 -0.1485  0.5256
  189MOL0     H25497   4.542  -0.350  -1.013  3.2398 -1.5565  1.3772
  189MOL0     H25498   4.300  -0.420  -1.018 -0.9444 -0.2525  0.4903
  189MOL0     H25499   2.503   0.404  -0.228 -2.4442  0.7119 -0.8895
  189MOL0     H25500   2.282   0.460  -0.198 -1.5033  0.6137  0.7957
  189MOL0     H25501   2.001   0.746  -0.152  1.8633 -0.1037  0.6790
  189MOL0     H25502   1.787   0.830  -0.178 -0.1410  0.9165  0.2322
  189MOL0     H25503   1.659   1.051  -0.083  1.8158 -3.3290 -0.5816
  189MOL0     H25504   1.645   1.057   0.106  1.2989 -1.6893 -0.6942
  189MOL0     H25505   1.417   1.039  -0.088 -0.8754  0.2340  1.3697
  189MOL0     H25506   1.474   1.187  -0.019  0.7303  0.8598 -3.0048
  189MOL0     H25507   1.413   1.118   0.217 -0.3430  1.4666 -1.1762
  189MOL0     H25508   1.392   0.953   0.164  0.0527  0.2695  0.2084
  189MOL0     H25509   1.210   1.087   0.004  2.3028 -1.0585 -1.0254
  189MOL0     H25510   1.172   1.019   0.162 -0.0606  2.4776  2.6807
  189MOL0     H25511   1.165   1.439   0.216  2.1733  0.0442  1.6159
  189MOL0     H25512   1.723   0.828   0.249 -0.6032  0.3050 -0.3819
  189MOL0     H25513   1.947   0.610   0.337  0.7650  0.1774  0.0357
  189MOL0     H25514   2.039   0.770   0.354 -1.1011  0.4242  1.6708
  189MOL0     H25515   1.871   0.762   0.384 -1.4840 -1.2050  0.8280
  190MOL0     O25516   1.260   2.281   4.587 -0.6084 -0.3229  0.5825
  190MOL0     C25517   1.223   2.369   4.513  0.8815  0.5955  0.1588
  190MOL0     O25518   1.295   2.422   4.411  0.0764  0.0574  0.3392
  190MOL0     C25519   1.411   2.360   4.381 -0.1757 -0.1985 -0.1294
  190MOL0     C25520   1.412   2.252   4.290  0.6152 -0.2117  0.0980
  190MOL0     C25521   1.532   2.197   4.238 -0.1916  0.1967 -0.2391
  190MOL0     C25522   1.653   2.256   4.274 -0.4065 -0.3444 -0.0704
  190MOL0     O25523   1.772   2.217   4.225 -0.1116 -0.2175 -0.1084
  190MOL0     C25524   1.792   2.083   4.174  0.2753 -0.0386 -0.3608
  190MOL0     C25525   1.773   1.970   4.278  0.3188  0.1380  0.8081
  190MOL0     C25526   1.821   1.835   4.215 -0.2335 -0.1807  0.5866
  190MOL0     C25527   1.784   1.725   4.309  0.5414  0.5738 -0.4429
  190MOL0     C25528   1.849   1.587   4.272  0.9460 -0.3703 -0.7894
  190MOL0     C25529   1.996   1.577   4.317 -0.3303  0.0713 -0.3948
  190MOL0     C25530   2.042   1.433   4.277 -0.8713  0.0638  0.6998
  190MOL0     C25531   2.175   1.389   4.329  0.4441  0.4394 -0.5162
  190MOL0     N25532   2.296   1.467   4.280 -0.2059 -0.4416 -0.3994
  190MOL0     C25533   2.351   1.583   4.337 -0.5035 -0.1134 -0.0785
  190MOL0     C25534   2.458   1.617   4.261 -0.2941  0.1865 -0.7000
  190MOL0     C25535   2.546   1.736   4.263  0.1374 -0.2058 -0.0169
  190MOL0     C25536   2.691   1.711   4.305 -1.2995 -0.2293 -0.9153
  190MOL0     C25537   2.780   1.835   4.304 -0.0366  0.1330 -0.8345
  190MOL0     C25538   2.913   1.825   4.389  0.0610 -0.2134  0.6151
  190MOL0     O25539   2.886   1.840   4.527  0.7367  0.6566  1.0299
  190MOL0     C25540   2.984   1.859   4.610 -0.4461 -0.3502 -0.1602
  190MOL0     C25541   3.118   1.881   4.573  0.3719  0.1263 -0.0935
  190MOL0     C25542   3.218   1.899   4.666  0.0052 -0.2402  0.6816
  190MOL0     C25543   3.187   1.911   4.798 -0.1625 -0.0782 -0.2284
  190MOL0     C25544   3.306   1.948   4.885 -0.1413  0.9029 -0.2216
  190MOL0     O25545   3.420   1.971   4.831 -0.5473 -0.2518 -0.4012
  190MOL0     C25546   3.547   1.982   4.883 -0.0562  0.2585 -0.9433
  190MOL0     C25547   3.574   1.992   5.020 -0.5231  0.0343  0.2800
  190MOL0     C25548   3.709   2.003   5.066  0.4499 -0.4879  0.7915
  190MOL0     C25549   3.811   1.989   4.974 -0.5908 -0.4581  0.1175
  190MOL0     O25550   3.939   1.987   5.020  0.6022  0.6273  0.1113
  190MOL0     C25551   4.047   2.018   4.931  0.2135 -0.0482 -0.5011
  190MOL0     C25552   4.175   2.062   5.006 -0.2803 -0.6152 -0.2799
  190MOL0     C25553   4.287   2.125   4.905  0.2849 -0.1080  0.2883
  190MOL0     C25554   4.422   2.156   4.980 -0.6410  0.9363  0.9849
  190MOL0     C25555   4.532   2.188   4.869  0.1638  0.8843 -0.3894
  190MOL0     C25556   4.672   2.179   4.934  0.0058 -0.3720 -0.2497
  190MOL0     C25557   4.781   2.154   4.830  1.1866 -0.3769 -0.0119
  190MOL0     C25558   4.910   2.116   4.897  0.2574 -0.0443  0.6260
  190MOL0    Cl25559   5.038   2.117   4.772 -0.0804  0.0303  0.5228
  190MOL0     C25560   3.785   1.977   4.838 -0.8809  0.0564 -0.2821
  190MOL0     C25561   3.649   1.965   4.799 -0.4371 -0.2347  0.8476
  190MOL0     O25562   3.294   1.914   5.003 -0.8581  0.2576 -0.2229
  190MOL0     C25563   3.054   1.887   4.845 -0.2182 -0.2175 -0.1771
  190MOL0     C25564   2.961   1.849   4.748  0.2664 -0.5125  0.1852
  190MOL0     N25565   2.483   1.523   4.173  0.2908 -0.0676 -0.1096
  190MOL0     N25566   2.386   1.437   4.182 -0.0195 -0.3319 -0.1253
  190MOL0     C25567   1.653   2.360   4.367 -0.9020  0.6474  0.7832
  190MOL0     C25568   1.536   2.418   4.418  0.2458  0.1695  0.5449
  190MOL0     C25569   1.072   2.394   4.525 -0.9432  0.0314  0.3055
  190MOL0     C25570   1.022   2.512   4.463 -0.5255  0.7309  0.3487
  190MOL0     C25571   0.887   2.557   4.478  0.1647 -0.0558 -0.2646
  190MOL0     C25572   0.797   2.476   4.539 -0.1847  0.3036  0.3048
  190MOL0     O25573   0.670   2.521   4.554  0.1705  0.1695  0.0780
  190MOL0     C25574   0.563   2.432   4.563  1.4110  0.6395  0.1339
  190MOL0     C25575   0.424   2.497   4.579 -0.2318 -0.2189 -0.1075
  190MOL0     C25576   0.388   2.568   4.707  0.5035  0.8187 -0.3413
  190MOL0     C25577   0.292   2.683   4.682 -0.1948  0.6063  0.5739
  190MOL0     C25578   0.251   2.757   4.802 -0.4806  0.2543  0.8234
  190MOL0     C25579   0.209   2.815   4.897 -0.1536 -0.6915 -0.5923
  190MOL0     C25580   0.841   2.355   4.599  0.4174 -0.3562  0.0030
  190MOL0     C25581   0.979   2.312   4.595  0.3982 -0.5774 -0.1150
  190MOL0     C25582   1.012   2.178   4.667 -0.9205 -0.7521  1.0722
  190MOL0     H25583   1.315   2.210   4.264  0.4107  0.5907 -0.4839
  190MOL0     H25584   1.533   2.104   4.182  0.5170 -0.3121  0.6014
  190MOL0     H25585   1.721   2.069   4.092  0.2591  2.3072 -0.8233
  190MOL0     H25586   1.894   2.087   4.135  0.4462 -0.6324  0.0198
  190MOL0     H25587   1.673   1.965   4.323  1.2831 -0.3140  3.0139
  190MOL0     H25588   1.829   2.011   4.362 -1.5080  1.4307  1.4572
  190MOL0     H25589   1.925   1.838   4.183 -0.2325  1.3900  0.6300
  190MOL0     H25590   1.761   1.818   4.125 -0.9291 -2.6376  1.4532
  190MOL0     H25591   1.807   1.745   4.414  0.8710 -1.9953  0.0287
  190MOL0     H25592   1.676   1.707   4.306  0.4924  0.4234  1.3544
  190MOL0     H25593   1.795   1.502   4.313  0.2937 -0.2228 -1.3276
  190MOL0     H25594   1.845   1.589   4.163 -3.6607  1.1273 -0.7898
  190MOL0     H25595   2.051   1.653   4.262 -0.1912 -1.1564 -2.0292
  190MOL0     H25596   2.003   1.595   4.425 -3.9287  1.0878 -0.2139
  190MOL0     H25597   2.036   1.393   4.175  1.4261  0.2974  0.4314
  190MOL0     H25598   1.978   1.366   4.335  1.7438 -0.5209  3.0828
  190MOL0     H25599   2.158   1.387   4.437 -2.0413 -0.9524 -0.8549
  190MOL0     H25600   2.193   1.287   4.292  2.8379  1.0973 -1.3468
  190MOL0     H25601   2.317   1.627   4.430  0.6631 -0.1390  0.3803
  190MOL0     H25602   2.544   1.774   4.161 -0.1396 -1.2471 -0.4104
  190MOL0     H25603   2.511   1.809   4.337  0.2786 -1.9573  1.8681
  190MOL0     H25604   2.675   1.669   4.404 -0.0999  2.6245  0.6112
  190MOL0     H25605   2.740   1.634   4.243  0.7457  0.4334 -0.2100
  190MOL0     H25606   2.723   1.910   4.359  1.1181 -0.3650  1.1315
  190MOL0     H25607   2.803   1.870   4.203 -2.6265  3.0768 -0.5396
  190MOL0     H25608   2.979   1.899   4.343  1.3340 -1.8173 -0.2394
  190MOL0     H25609   2.954   1.726   4.368 -1.3139 -0.6500 -0.1646
  190MOL0     H25610   3.157   1.886   4.472  1.3544  1.1764  0.3079
  190MOL0     H25611   3.317   1.904   4.622 -0.6680  0.1568 -0.8385
  190MOL0     H25612   3.492   2.008   5.090  0.7050  1.3646  1.4800
  190MOL0     H25613   3.737   2.023   5.169  1.1019  0.6004  0.4178
  190MOL0     H25614   4.066   1.928   4.872 -3.3882  0.5410 -2.8564
  190MOL0     H25615   4.023   2.094   4.856 -2.5226  0.2069  0.5231
  190MOL0     H25616   4.153   2.131   5.088  0.5885 -1.6192  0.8200
  190MOL0     H25617   4.218   1.974   5.054 -0.5196 -0.3022  0.5180
  190MOL0     H25618   4.305   2.043   4.835  1.6888  0.1840  0.2884
  190MOL0     H25619   4.244   2.211   4.853  1.6331  0.0824 -0.5427
  190MOL0     H25620   4.462   2.070   5.033 -1.3943 -0.8021 -1.1291
  190MOL0     H25621   4.417   2.250   5.037  1.7065  2.5670 -1.2673
  190MOL0     H25622   4.508   2.283   4.821  0.4274  0.2455 -1.8248
  190MOL0     H25623   4.522   2.107   4.797 -3.1112  0.7060  0.0816
  190MOL0     H25624   4.689   2.265   4.999 -1.7242 -0.2374  0.0768
  190MOL0     H25625   4.667   2.086   4.992  1.0885 -0.7436 -0.7274
  190MOL0     H25626   4.783   2.244   4.768  2.5665 -0.3942 -0.0293
  190MOL0     H25627   4.743   2.073   4.767  2.5929 -0.4777 -0.7672
  190MOL0     H25628   4.927   2.189   4.976 -0.6893  2.1209 -1.0459
  190MOL0     H25629   4.908   2.020   4.949  0.2748 -0.1396  0.4511
  190MOL0     H25630   3.860   1.980   4.760 -1.2274  1.8373 -0.5963
  190MOL0     H25631   3.628   1.973   4.692  0.8352 -2.3030  0.4002
  190MOL0     H25632   3.029   1.877   4.951 -1.0506  0.0509 -0.3439
  190MOL0     H25633   2.861   1.827   4.783  0.4312 -0.3862  0.7345
  190MOL0     H25634   1.752   2.393   4.398 -0.4152 -0.9085  1.0086
  190MOL0     H25635   1.523   2.504   4.483 -0.1838  1.5800 -1.3165
  190MOL0     H25636   1.094   2.565   4.402 -1.4154  1.0365 -0.4588
  190MOL0     H25637   0.859   2.641   4.416  0.2712  1.4444  1.6298
  190MOL0     H25638   0.564   2.368   4.652 -0.4810 -2.6720 -1.9681
  190MOL0     H25639   0.557   2.367   4.475  2.0385  1.6067 -0.6492
  190MOL0     H25640   0.339   2.437   4.545 -0.8046 -1.0884  2.5834
  190MOL0     H25641   0.434   2.573   4.501 -0.5721  0.0771  0.1324
  190MOL0     H25642   0.477   2.607   4.757  0.1553 -0.0916  1.0578
  190MOL0     H25643   0.338   2.502   4.779  0.6901  1.4559  0.3829
  190MOL0     H25644   0.338   2.759   4.618 -2.3057  0.0668 -1.7287
  190MOL0     H25645   0.205   2.644   4.628 -0.0910  0.0305  0.8085
  190MOL0     H25646   0.192   2.867   4.989  0.7715 -1.7053  0.1678
  190MOL0     H25647   0.765   2.305   4.659 -2.0642  0.7156 -2.0851
  190MOL0     H25648   1.075   2.111   4.608  0.3188 -0.8222  2.4121
  190MOL0     H25649   1.078   2.198   4.752  0.8103  0.6822 -0.5119
  190MOL0     H25650   0.917   2.130   4.692 -0.4678 -2.1944  0.1505
  191MOL0     O25651   0.063   6.240   2.613 -0.0963 -0.3499  0.0797
  191MOL0     C25652   0.081   6.249   2.735 -0.2247  0.2412  0.1613
  191MOL0     O25653   0.163   6.167   2.809  0.6540 -0.2577  0.0246
  191MOL0     C25654   0.236   6.066   2.757 -0.6421 -0.6385  0.2083
  191MOL0     C25655   0.236   6.019   2.627  0.3253  0.0372  1.5519
  191MOL0     C25656   0.313   5.907   2.590  0.3028  0.2292 -0.9003
  191MOL0     C25657   0.393   5.851   2.692  0.8204  0.1891  0.5636
  191MOL0     O25658   0.470   5.742   2.665 -0.2136  0.9482  0.5369
  191MOL0     C25659   0.446   5.655   2.546  0.1875 -0.2898 -0.3389
  191MOL0     C25660   0.544   5.705   2.434 -0.1691 -0.0143  0.6363
  191MOL0     C25661   0.498   5.656   2.294  0.9923  0.6869  0.0952
  191MOL0     C25662   0.562   5.735   2.178  0.1937  0.5864 -0.3452
  191MOL0     C25663   0.707   5.681   2.153 -0.0754  0.3854  0.1792
  191MOL0     C25664   0.756   5.751   2.024  0.4221 -0.3722  0.4298
  191MOL0     C25665   0.893   5.709   1.987  0.4866 -0.1090 -0.5828
  191MOL0     C25666   0.952   5.788   1.869  0.1327 -0.3168  0.0690
  191MOL0     N25667   1.097   5.796   1.877  0.1084  0.5109  0.1238
  191MOL0     C25668   1.161   5.896   1.943 -0.0017 -0.1100  0.1819
  191MOL0     C25669   1.300   5.872   1.923 -0.5346 -0.1270 -0.4450
  191MOL0     C25670   1.417   5.963   1.968  0.1502 -0.6779  0.1273
  191MOL0     C25671   1.462   6.055   1.850  0.7501 -0.7428 -0.3513
  191MOL0     C25672   1.576   6.141   1.907 -0.6665  0.8456  0.6469
  191MOL0     C25673   1.567   6.284   1.848 -0.1483  0.4279  0.2080
  191MOL0     O25674   1.661   6.366   1.909  0.1011  0.0934  0.3324
  191MOL0     C25675   1.795   6.368   1.873  0.2292  0.6040  0.4428
  191MOL0     C25676   1.872   6.437   1.952 -0.2536 -0.4844  0.0171
  191MOL0     C25677   2.014   6.461   1.936  0.3421  0.2383  0.2999
  191MOL0     C25678   2.081   6.404   1.824  0.3456  0.1573  0.1356
  191MOL0     C25679   2.229   6.412   1.796  0.0991 -0.4977  0.7431
  191MOL0     O25680   2.289   6.337   1.699 -0.6567 -0.1149  0.2113
  191MOL0     C25681   2.429   6.325   1.692 -0.1330  0.4685 -0.7855
  191MOL0     C25682   2.495   6.349   1.571  0.3716  0.1647  0.5946
  191MOL0     C25683   2.629   6.324   1.566 -0.4754 -0.4141  0.3420
  191MOL0     C25684   2.706   6.292   1.678 -0.0843 -0.0794 -0.1521
  191MOL0     O25685   2.837   6.275   1.657 -0.1974 -0.0158  0.2206
  191MOL0     C25686   2.924   6.277   1.773 -0.4237  0.6589 -0.0231
  191MOL0     C25687   3.069   6.248   1.726 -0.0748  0.4270  1.2075
  191MOL0     C25688   3.174   6.272   1.832 -0.3686  0.5914  0.0854
  191MOL0     C25689   3.316   6.219   1.792 -0.4192 -0.3231 -0.5869
  191MOL0     C25690   3.416   6.249   1.894 -0.6367 -0.2335  0.6195
  191MOL0     C25691   3.447   6.405   1.905 -1.1783 -0.6665 -0.2990
  191MOL0     C25692   3.586   6.431   1.977  0.1576 -0.5794 -0.4987
  191MOL0     C25693   3.611   6.350   2.101 -0.4259 -0.1955 -0.6757
  191MOL0    Cl25694   3.750   6.439   2.176  0.3379  0.3752  0.2125
  191MOL0     C25695   2.644   6.281   1.807 -0.0399  1.1249  0.1682
  191MOL0     C25696   2.509   6.292   1.811  0.2923  0.9572  0.0623
  191MOL0     O25697   2.287   6.486   1.872 -0.4035  0.4854  0.0066
  191MOL0     C25698   1.990   6.334   1.743 -0.6632  0.0819 -0.1119
  191MOL0     C25699   1.854   6.314   1.763 -0.2503  1.0301 -0.3768
  191MOL0     N25700   1.305   5.758   1.842 -0.0110 -0.2940 -0.1949
  191MOL0     N25701   1.189   5.723   1.800  0.8747  0.5123  0.2462
  191MOL0     C25702   0.394   5.891   2.822  0.5164  1.0656  0.7547
  191MOL0     C25703   0.319   6.001   2.853  0.3689 -0.4449 -1.0042
  191MOL0     C25704   0.015   6.366   2.792  0.4187 -1.0813 -0.3573
  191MOL0     C25705  -0.095   6.423   2.740  1.2320  0.0439 -0.2359
  191MOL0     C25706  -0.167   6.526   2.796  0.5831 -0.0759  0.1122
  191MOL0     C25707  -0.130   6.584   2.914 -0.7005  0.1068  0.9867
  191MOL0     O25708  -0.198   6.691   2.964 -0.5391 -0.3085 -0.1611
  191MOL0     C25709  -0.154   6.801   2.884 -0.2386 -0.4369 -0.1359
  191MOL0     C25710  -0.204   6.934   2.946  0.4167  0.4533 -0.8577
  191MOL0     C25711  -0.172   6.950   3.100 -0.0156 -0.3119 -0.4679
  191MOL0     C25712  -0.205   7.095   3.140 -0.6839 -0.1229  0.8541
  191MOL0     C25713  -0.141   7.139   3.266  0.3592 -0.7378 -0.5117
  191MOL0     C25714  -0.116   7.189   3.375 -0.0749 -0.2040 -0.1373
  191MOL0     C25715  -0.010   6.536   2.964 -0.1416  0.5123 -0.0934
  191MOL0     C25716   0.073   6.441   2.900  0.1047  0.3971 -0.0849
  191MOL0     C25717   0.209   6.408   2.956  0.2925 -0.6224 -0.6176
  191MOL0     H25718   0.175   6.057   2.545 -0.5819  0.7516  2.5299
  191MOL0     H25719   0.299   5.861   2.492  0.4831 -1.4309 -0.1872
  191MOL0     H25720   0.455   5.552   2.579 -3.4516 -0.3424  0.9957
  191MOL0     H25721   0.347   5.659   2.499  0.3847 -2.1191 -0.9858
  191MOL0     H25722   0.644   5.665   2.450 -0.3444 -0.0694  1.6707
  191MOL0     H25723   0.546   5.814   2.428  0.3718  0.1508  2.8197
  191MOL0     H25724   0.390   5.674   2.294  0.5701 -1.5504 -0.6158
  191MOL0     H25725   0.508   5.547   2.292 -0.7013  0.3869  2.7740
  191MOL0     H25726   0.497   5.724   2.091 -2.0072 -0.3546  1.3276
  191MOL0     H25727   0.566   5.836   2.221 -2.7365  0.6782 -0.1122
  191MOL0     H25728   0.764   5.700   2.244 -1.5795  3.2611  0.6379
  191MOL0     H25729   0.707   5.572   2.141  1.1095  0.5014 -1.2066
  191MOL0     H25730   0.691   5.721   1.941  1.4339 -0.8638 -0.2104
  191MOL0     H25731   0.748   5.860   2.038  0.0284 -0.5832  2.0031
  191MOL0     H25732   0.874   5.604   1.963 -5.3067  0.7390 -1.0151
  191MOL0     H25733   0.958   5.718   2.074 -0.8716 -0.7709  0.5278
  191MOL0     H25734   0.929   5.733   1.777  1.5500  0.7738 -0.9833
  191MOL0     H25735   0.913   5.888   1.848 -1.8453 -1.1838 -0.6028
  191MOL0     H25736   1.122   5.975   2.006  2.7740  1.7210 -0.2179
  191MOL0     H25737   1.386   6.017   2.058  2.4487  0.2068  0.4492
  191MOL0     H25738   1.500   5.897   1.993  0.6417 -0.6970 -1.4223
  191MOL0     H25739   1.499   6.008   1.758 -0.7939  2.6028 -2.9079
  191MOL0     H25740   1.373   6.114   1.826  0.8465  1.0566  3.1309
  191MOL0     H25741   1.672   6.095   1.881 -1.2882  0.0291 -0.2727
  191MOL0     H25742   1.574   6.153   2.015  1.7731 -1.4262  1.0339
  191MOL0     H25743   1.468   6.326   1.867 -1.4652 -2.4821  0.3364
  191MOL0     H25744   1.591   6.279   1.742  0.3381 -1.4184  0.3664
  191MOL0     H25745   1.821   6.481   2.037 -1.9346 -1.2857 -0.5360
  191MOL0     H25746   2.065   6.524   2.008  0.2344  1.0888 -0.3473
  191MOL0     H25747   2.431   6.379   1.488  0.4979  0.6050  0.6524
  191MOL0     H25748   2.687   6.322   1.475 -0.7965 -1.1406  0.1452
  191MOL0     H25749   2.915   6.366   1.835 -2.1840 -0.5209  1.4976
  191MOL0     H25750   2.896   6.188   1.828 -0.5335 -1.5299 -3.3193
  191MOL0     H25751   3.061   6.142   1.700 -0.3148  0.7628 -0.1412
  191MOL0     H25752   3.083   6.307   1.636  1.3396 -1.4369  0.1424
  191MOL0     H25753   3.181   6.380   1.845  0.2757  0.8140 -1.8676
  191MOL0     H25754   3.144   6.224   1.926  2.2642  0.3463  0.8660
  191MOL0     H25755   3.349   6.243   1.691 -0.2774 -2.1752 -1.0081
  191MOL0     H25756   3.302   6.111   1.786 -1.9245 -0.5482  3.4706
  191MOL0     H25757   3.505   6.199   1.855 -1.4071 -2.9725  2.1011
  191MOL0     H25758   3.391   6.202   1.990 -0.4871 -1.3428  0.1342
  191MOL0     H25759   3.460   6.459   1.811 -1.9333  1.6213  0.8492
  191MOL0     H25760   3.365   6.444   1.965 -1.8099  0.3117 -1.7599
  191MOL0     H25761   3.585   6.537   2.004 -3.9889 -0.6498  0.3711
  191MOL0     H25762   3.669   6.414   1.908  1.4443  2.1995  0.2308
  191MOL0     H25763   3.524   6.353   2.169  2.0157  1.4456  2.6964
  191MOL0     H25764   3.649   6.251   2.076  0.8726  0.1805 -0.2914
  191MOL0     H25765   2.701   6.258   1.897 -1.4493 -4.0929  0.0117
  191MOL0     H25766   2.461   6.266   1.905  0.4009 -2.3892 -0.6660
  191MOL0     H25767   2.030   6.287   1.654 -2.4558 -2.5308  0.3333
  191MOL0     H25768   1.798   6.240   1.705  0.4747  0.7119 -0.6853
  191MOL0     H25769   0.458   5.851   2.900 -1.2221  2.2471  2.8915
  191MOL0     H25770   0.310   6.041   2.953  0.2098 -1.2087 -0.7054
  191MOL0     H25771  -0.128   6.400   2.639 -1.3239 -0.9813  0.7323
  191MOL0     H25772  -0.253   6.555   2.736  0.6736  0.0069  0.0204
  191MOL0     H25773  -0.191   6.792   2.782  0.5252  1.9039 -0.6864
  191MOL0     H25774  -0.045   6.813   2.890 -0.2192 -0.3557 -0.6009
  191MOL0     H25775  -0.312   6.922   2.939  0.4256 -1.4138  1.1288
  191MOL0     H25776  -0.164   7.015   2.884  1.8571  0.3485 -0.1188
  191MOL0     H25777  -0.069   6.920   3.119 -0.2366 -0.7396  0.1027
  191MOL0     H25778  -0.219   6.877   3.167  3.7935 -1.3651  1.3604
  191MOL0     H25779  -0.183   7.170   3.064  0.5994  0.4996  1.7928
  191MOL0     H25780  -0.313   7.110   3.147 -0.3575  2.3435  1.6813
  191MOL0     H25781  -0.110   7.249   3.463 -0.1152  0.6818 -0.7309
  191MOL0     H25782   0.030   6.581   3.055 -1.3674 -1.3993  1.4806
  191MOL0     H25783   0.243   6.487   3.023 -0.9486 -1.1005  0.6283
  191MOL0     H25784   0.201   6.318   3.018  2.4949 -0.8661 -0.6199
  191MOL0     H25785   0.274   6.396   2.869 -1.7100  0.1110 -2.3085
  192MOL0     O25786   6.399   0.414   9.845  0.4586  0.4568 -0.0967
  192MOL0     C25787   6.310   0.451   9.919  0.4257  1.0018  0.4205
  192MOL0     O25788   6.291   0.404  10.046 -0.5782  0.9353 -0.2192
  192MOL0     C25789   6.368   0.299  10.088 -0.5890 -0.0525  0.3049
  192MOL0     C25790   6.508   0.305  10.104  0.0155  0.4396  0.7842
  192MOL0     C25791   6.577   0.185  10.144  0.4386 -0.0057  0.6344
  192MOL0     C25792   6.508   0.064  10.170 -0.6978  0.2801  0.3813
  192MOL0     O25793   6.592  -0.046  10.192  0.4542 -0.4238  0.7258
  192MOL0     C25794   6.534  -0.162  10.246  0.0440  0.9961  0.7437
  192MOL0     C25795   6.481  -0.141  10.390  0.2653 -0.8022 -0.2187
  192MOL0     C25796   6.574  -0.076  10.494  0.2093  0.5972  0.5894
  192MOL0     C25797   6.639  -0.179  10.590 -0.3287  0.3792 -0.0419
  192MOL0     C25798   6.536  -0.223  10.691  0.1309  0.6029 -0.5492
  192MOL0     C25799   6.603  -0.306  10.802  0.8503  0.4544 -0.3676
  192MOL0     C25800   6.503  -0.338  10.915 -0.4419  0.1068  0.7374
  192MOL0     C25801   6.562  -0.437  11.014  0.0439 -0.4997 -0.3297
  192MOL0     N25802   6.674  -0.377  11.093 -0.5702  0.6595 -0.2457
  192MOL0     C25803   6.806  -0.404  11.085 -0.1022 -0.0004 -1.1172
  192MOL0     C25804   6.865  -0.327  11.189 -0.4878 -0.3231  1.1136
  192MOL0     C25805   7.006  -0.342  11.250  0.1942  0.3381 -0.4670
  192MOL0     C25806   7.113  -0.299  11.148 -0.2716 -0.4011 -0.0946
  192MOL0     C25807   7.248  -0.345  11.185 -0.7152 -0.1294  0.3127
  192MOL0     C25808   7.365  -0.287  11.094  1.2196  0.8665 -0.6665
  192MOL0     O25809   7.358  -0.350  10.965  0.3316 -0.1835 -0.3289
  192MOL0     C25810   7.442  -0.303  10.866  1.0527 -0.1647 -1.4205
  192MOL0     C25811   7.441  -0.361  10.741 -0.3534 -0.9614  0.0026
  192MOL0     C25812   7.520  -0.300  10.640 -0.6945  1.0443  0.3572
  192MOL0     C25813   7.605  -0.188  10.664 -0.1990  0.5013 -0.3743
  192MOL0     C25814   7.674  -0.128  10.550 -0.0957  0.2658 -0.6952
  192MOL0     O25815   7.688  -0.206  10.444 -0.6049  0.1339  0.4873
  192MOL0     C25816   7.773  -0.168  10.342  0.9868  0.3552  0.4720
  192MOL0     C25817   7.915  -0.178  10.344  0.6220  0.4166 -0.2939
  192MOL0     C25818   7.988  -0.166  10.231 -0.2565 -0.8075  0.2800
  192MOL0     C25819   7.930  -0.127  10.108  1.1014  0.1947  0.0075
  192MOL0     O25820   8.003  -0.119   9.996 -0.1209  0.1128 -0.6788
  192MOL0     C25821   8.108  -0.020  10.006  0.0659 -0.7728 -0.5178
  192MOL0     C25822   8.173  -0.013   9.860  0.0486 -0.2892  0.7079
  192MOL0     C25823   8.277   0.101   9.846  0.2047  0.1836  0.1211
  192MOL0     C25824   8.360   0.086   9.717 -0.1818 -0.1490  0.1655
  192MOL0     C25825   8.470   0.196   9.704 -0.7322  0.5530 -0.0047
  192MOL0     C25826   8.586   0.149   9.617 -0.2158  0.1394  0.5567
  192MOL0     C25827   8.689   0.261   9.614  0.0350 -0.4133 -1.0216
  192MOL0     C25828   8.806   0.237   9.514 -0.3782  0.3650 -0.1146
  192MOL0    Cl25829   8.914   0.109   9.587 -0.2086 -0.3903  0.5868
  192MOL0     C25830   7.791  -0.100  10.107 -1.4518 -0.4086  0.3558
  192MOL0     C25831   7.720  -0.123  10.222 -0.0444 -0.1493  0.0158
  192MOL0     O25832   7.719  -0.014  10.567  0.0271  0.2078 -0.5480
  192MOL0     C25833   7.613  -0.135  10.794 -1.2450 -0.3805  0.6141
  192MOL0     C25834   7.528  -0.195  10.890 -0.7897 -0.3282 -0.0696
  192MOL0     N25835   6.766  -0.251  11.246  0.4403 -0.4901  0.1505
  192MOL0     N25836   6.653  -0.288  11.191 -0.3549 -0.4364  0.2332
  192MOL0     C25837   6.371   0.063  10.142 -0.6735 -0.0662  0.6987
  192MOL0     C25838   6.308   0.174  10.105  0.5784 -0.3327  0.1989
  192MOL0     C25839   6.206   0.545   9.863 -0.0018  0.2802  0.1824
  192MOL0     C25840   6.079   0.551   9.931  0.2804  0.7686  0.3493
  192MOL0     C25841   5.976   0.626   9.870  0.3205  0.5633 -0.4585
  192MOL0     C25842   5.995   0.700   9.753 -0.4418 -0.0054 -0.0685
  192MOL0     O25843   5.880   0.767   9.705 -0.2579 -0.8098 -0.1123
  192MOL0     C25844   5.904   0.849   9.593  1.0819  0.0112 -0.3529
  192MOL0     C25845   5.772   0.909   9.549 -0.2748  0.2822 -0.3082
  192MOL0     C25846   5.786   1.032   9.447 -0.1036  1.2065 -0.5730
  192MOL0     C25847   5.759   1.178   9.498 -0.5658  0.3638 -0.2485
  192MOL0     C25848   5.814   1.199   9.635 -0.3459 -0.0202  0.3629
  192MOL0     C25849   5.870   1.210   9.739  0.1053 -0.4667  0.2066
  192MOL0     C25850   6.123   0.708   9.701  0.7230  0.2401  0.0871
  192MOL0     C25851   6.227   0.628   9.750  0.1746 -0.1901 -0.5788
  192MOL0     C25852   6.362   0.655   9.685  0.1445 -0.1693  0.4012
  192MOL0     H25853   6.558   0.401  10.107  0.5498  0.1611  0.8282
  192MOL0     H25854   6.683   0.197  10.164  1.4813 -3.3796 -1.8799
  192MOL0     H25855   6.447  -0.180  10.183  0.8791  0.2448 -0.2156
  192MOL0     H25856   6.602  -0.247  10.234 -0.4671  0.6981 -0.0949
  192MOL0     H25857   6.440  -0.233  10.433  1.3016  0.2887  3.5399
  192MOL0     H25858   6.396  -0.073  10.378 -0.5206 -1.1751  2.4409
  192MOL0     H25859   6.523  -0.005  10.559 -1.0027  0.8581 -0.6202
  192MOL0     H25860   6.648  -0.016  10.440 -0.2713 -1.4394 -2.6095
  192MOL0     H25861   6.689  -0.253  10.527 -0.9816 -0.5500  0.5112
  192MOL0     H25862   6.724  -0.124  10.630  1.7475 -1.4381 -1.7192
  192MOL0     H25863   6.494  -0.134  10.739  1.7971  0.0013  2.2743
  192MOL0     H25864   6.458  -0.282  10.642 -0.0452  1.8810 -1.8699
  192MOL0     H25865   6.638  -0.397  10.752 -0.7030  0.5415 -1.7313
  192MOL0     H25866   6.686  -0.248  10.842 -0.4836  0.3990  2.7276
  192MOL0     H25867   6.406  -0.361  10.871 -0.2711  1.9119 -0.6933
  192MOL0     H25868   6.482  -0.244  10.968 -0.3145  0.4776  0.1405
  192MOL0     H25869   6.481  -0.456  11.085  0.7075  2.4892  1.4052
  192MOL0     H25870   6.600  -0.515  10.947 -1.4048 -1.0816 -0.5133
  192MOL0     H25871   6.851  -0.484  11.027 -1.3184 -2.2252  0.8156
  192MOL0     H25872   7.022  -0.284  11.341 -0.2646  1.4965 -1.1076
  192MOL0     H25873   7.025  -0.448  11.270 -1.6119  0.0895  0.1207
  192MOL0     H25874   7.097  -0.353  11.054  2.0135  0.8045 -1.2859
  192MOL0     H25875   7.101  -0.192  11.129  0.5603 -0.7413 -3.1507
  192MOL0     H25876   7.244  -0.452  11.209  1.8098 -0.2356  0.5919
  192MOL0     H25877   7.274  -0.316  11.288  0.6579 -1.0881  0.2740
  192MOL0     H25878   7.465  -0.305  11.134 -0.0710 -0.6750  2.2372
  192MOL0     H25879   7.348  -0.179  11.087  3.2182  1.1513 -1.9116
  192MOL0     H25880   7.381  -0.449  10.721  0.8004 -1.6164 -0.6752
  192MOL0     H25881   7.522  -0.356  10.547 -2.6130  0.3235  0.6938
  192MOL0     H25882   7.961  -0.219  10.434 -1.6364 -2.1315 -0.1499
  192MOL0     H25883   8.096  -0.168  10.232 -0.2562 -1.1182  1.4845
  192MOL0     H25884   8.060   0.078  10.016 -0.0144 -1.0583  3.2058
  192MOL0     H25885   8.182  -0.038  10.085 -0.4785  0.6171  0.3478
  192MOL0     H25886   8.210  -0.113   9.836  0.9088  0.1487  0.1910
  192MOL0     H25887   8.089   0.021   9.798 -0.2428  2.1280  2.3015
  192MOL0     H25888   8.226   0.197   9.836 -0.2029 -0.1895 -1.8467
  192MOL0     H25889   8.338   0.106   9.936  0.9143 -0.0078 -0.3479
  192MOL0     H25890   8.290   0.104   9.635  2.6106 -0.8082 -2.5270
  192MOL0     H25891   8.412  -0.009   9.710  1.4609  0.8498 -3.9182
  192MOL0     H25892   8.508   0.218   9.804 -0.4988 -0.8219  0.2346
  192MOL0     H25893   8.423   0.282   9.655 -1.0338  0.4044  0.0236
  192MOL0     H25894   8.625   0.051   9.647 -1.3418 -0.8667 -1.1182
  192MOL0     H25895   8.539   0.141   9.519  2.4799 -0.4764 -0.7894
  192MOL0     H25896   8.734   0.268   9.713 -0.7660  0.1692 -0.6846
  192MOL0     H25897   8.655   0.361   9.586 -0.0996  0.3679  1.6914
  192MOL0     H25898   8.758   0.200   9.423  1.6986 -1.0704 -0.6863
  192MOL0     H25899   8.853   0.333   9.489 -2.8203  0.9699 -2.9365
  192MOL0     H25900   7.747  -0.080  10.009  2.4517  1.2653 -1.3068
  192MOL0     H25901   7.615  -0.097  10.228  0.1408  0.9870 -1.1423
  192MOL0     H25902   7.668  -0.043  10.814 -0.5884 -1.2613  3.2585
  192MOL0     H25903   7.543  -0.142  10.983  0.8066  0.6364 -0.8343
  192MOL0     H25904   6.301  -0.018  10.159 -1.8726  0.9198  0.6316
  192MOL0     H25905   6.203   0.169  10.077  1.1654 -0.1341 -2.2553
  192MOL0     H25906   6.062   0.493  10.021 -0.1869  0.0136 -0.2076
  192MOL0     H25907   5.888   0.623   9.934  1.1646 -0.1086  0.7128
  192MOL0     H25908   5.943   0.793   9.507 -0.4506  1.3129 -1.9656
  192MOL0     H25909   5.971   0.930   9.625  1.1519 -0.1043 -0.2095
  192MOL0     H25910   5.718   0.952   9.634 -1.8544 -0.4593 -0.9013
  192MOL0     H25911   5.711   0.828   9.509 -2.1516  1.3061  0.3340
  192MOL0     H25912   5.725   1.027   9.356 -0.2907 -0.7581 -0.3757
  192MOL0     H25913   5.886   1.031   9.404 -0.6411 -4.7774 -2.5780
  192MOL0     H25914   5.794   1.253   9.426 -1.0439  1.1381  0.3093
  192MOL0     H25915   5.651   1.193   9.500 -1.0337 -2.3039 -1.4093
  192MOL0     H25916   5.925   1.233   9.828 -3.6599  1.4171  2.2836
  192MOL0     H25917   6.149   0.774   9.620 -2.5228  1.6084 -0.0042
  192MOL0     H25918   6.346   0.716   9.595 -2.4081  0.2912  1.0989
  192MOL0     H25919   6.431   0.703   9.754  2.5109 -1.6984 -0.7632
  192MOL0     H25920   6.404   0.557   9.658 -0.5157 -1.3481  3.3169
  193MOL0     O25921   5.626   5.754   8.628  0.1236 -0.1665 -0.0038
  193MOL0     C25922   5.658   5.651   8.691 -0.0769  0.2407  0.6607
  193MOL0     O25923   5.790   5.616   8.712 -0.3646 -0.2360  0.8647
  193MOL0     C25924   5.895   5.704   8.675 -0.2941 -0.4364  0.3138
  193MOL0     C25925   5.900   5.838   8.724 -0.3010 -0.4343  0.3347
  193MOL0     C25926   6.018   5.916   8.709  0.2715 -0.5103 -0.3967
  193MOL0     C25927   6.127   5.871   8.638 -0.0688 -0.3720  1.0284
  193MOL0     O25928   6.236   5.954   8.623  0.0472 -0.2292 -0.1060
  193MOL0     C25929   6.370   5.904   8.629  0.7446  0.1409  1.0075
  193MOL0     C25930   6.443   5.897   8.493  0.4286 -0.7619 -0.5594
  193MOL0     C25931   6.598   5.904   8.520  0.9664 -1.4716 -0.4714
  193MOL0     C25932   6.662   5.936   8.386 -1.0310 -0.7131  0.9810
  193MOL0     C25933   6.807   5.966   8.396  0.4788  0.4566  0.9198
  193MOL0     C25934   6.850   5.987   8.255  0.2801 -0.4139  0.4146
  193MOL0     C25935   6.983   6.056   8.249 -1.2938 -0.1386 -0.6391
  193MOL0     C25936   7.101   5.978   8.299  0.6324  0.3313 -0.2749
  193MOL0     N25937   7.212   6.072   8.274  0.0031  0.3958 -0.5674
  193MOL0     C25938   7.255   6.166   8.371 -0.7176  0.6222  0.3192
  193MOL0     C25939   7.357   6.226   8.302  0.6725  0.3699  0.0661
  193MOL0     C25940   7.449   6.330   8.360  0.3703  0.8362  0.2822
  193MOL0     C25941   7.419   6.479   8.346  0.2538  0.4187  0.5813
  193MOL0     C25942   7.523   6.575   8.393  0.6368  0.2094 -0.7265
  193MOL0     C25943   7.490   6.726   8.369 -0.8908  0.1620 -0.5161
  193MOL0     O25944   7.486   6.737   8.228  0.1852 -0.2456  0.0276
  193MOL0     C25945   7.599   6.767   8.153 -0.3507  0.0759 -0.3562
  193MOL0     C25946   7.590   6.793   8.020 -0.4296 -0.1994 -0.4225
  193MOL0     C25947   7.707   6.819   7.943  0.6838 -0.6243 -0.2038
  193MOL0     C25948   7.834   6.824   8.000  0.0942 -0.0359 -0.2516
  193MOL0     C25949   7.942   6.876   7.923 -0.8267 -0.2751 -0.0821
  193MOL0     O25950   8.011   6.981   7.976  0.0679 -0.3024  0.1510
  193MOL0     C25951   8.136   7.010   7.934  0.0290 -0.1986  0.5878
  193MOL0     C25952   8.227   6.909   7.912 -1.3801  0.9106 -0.2326
  193MOL0     C25953   8.360   6.933   7.867 -0.0811  0.8967 -0.3797
  193MOL0     C25954   8.407   7.062   7.849  1.0835 -0.1099 -0.3470
  193MOL0     O25955   8.534   7.084   7.805  0.0404 -0.3819 -0.1157
  193MOL0     C25956   8.611   7.198   7.858  0.0746  0.6072  0.4353
  193MOL0     C25957   8.646   7.189   8.005 -0.2090  0.2552  0.2242
  193MOL0     C25958   8.756   7.080   8.019  0.0598  0.1637  0.1094
  193MOL0     C25959   8.818   7.078   8.159 -0.0274 -0.4962 -0.4408
  193MOL0     C25960   8.951   6.991   8.165  1.1532  0.1614 -0.8705
  193MOL0     C25961   9.030   7.007   8.299  0.2953  0.1868 -0.0715
  193MOL0     C25962   9.163   6.929   8.294  0.9405 -0.2811 -0.3496
  193MOL0     C25963   9.216   6.918   8.438 -0.4772  0.6975 -0.7263
  193MOL0    Cl25964   9.238   7.083   8.517  0.1057 -0.2677  0.3216
  193MOL0     C25965   8.311   7.164   7.871  0.2483  0.3560  0.0265
  193MOL0     C25966   8.181   7.141   7.912  0.5264 -0.3238 -0.2254
  193MOL0     O25967   7.972   6.808   7.827  0.3882 -0.3109 -0.6835
  193MOL0     C25968   7.842   6.800   8.132 -0.5929 -0.3860 -0.1702
  193MOL0     C25969   7.732   6.766   8.209 -0.1259 -0.0666  0.2613
  193MOL0     N25970   7.365   6.179   8.178  0.2175 -1.0976  0.3051
  193MOL0     N25971   7.282   6.089   8.162  0.1233  0.2943  0.8241
  193MOL0     C25972   6.114   5.736   8.591 -0.2625 -0.4819 -0.2277
  193MOL0     C25973   6.009   5.655   8.620  0.3574  0.4823 -0.8202
  193MOL0     C25974   5.558   5.558   8.759  0.2829 -0.1079  0.1434
  193MOL0     C25975   5.614   5.446   8.834 -0.2730 -0.7532  0.1327
  193MOL0     C25976   5.531   5.340   8.883  0.1704 -0.7630  0.4882
  193MOL0     C25977   5.390   5.352   8.873 -0.7044 -0.1862  0.7337
  193MOL0     O25978   5.330   5.252   8.944  0.1505  0.4113  0.0997
  193MOL0     C25979   5.191   5.257   8.928 -0.0841 -0.1658 -0.2710
  193MOL0     C25980   5.135   5.138   9.005 -0.0800  0.3346 -0.3987
  193MOL0     C25981   4.986   5.151   8.999 -0.2493 -0.1602 -0.2972
  193MOL0     C25982   4.909   5.055   9.096  0.3817  0.0102  0.3723
  193MOL0     C25983   4.763   5.054   9.073  0.4974  0.2307  0.2809
  193MOL0     C25984   4.645   5.036   9.050  0.1957 -0.1516  0.1638
  193MOL0     C25985   5.336   5.463   8.802 -0.9140  0.6148  0.0974
  193MOL0     C25986   5.412   5.570   8.744 -0.0189  0.1538 -0.1435
  193MOL0     C25987   5.337   5.693   8.680  0.9826  1.2975  0.5257
  193MOL0     H25988   5.819   5.881   8.781 -1.3679 -1.5012 -0.3308
  193MOL0     H25989   6.015   6.014   8.755  0.4255 -0.6997  0.0159
  193MOL0     H25990   6.424   5.960   8.705  0.6649 -1.0337  1.9638
  193MOL0     H25991   6.366   5.805   8.675 -1.9697  0.2925  1.2672
  193MOL0     H25992   6.424   5.986   8.432  3.1622  0.7641  0.6302
  193MOL0     H25993   6.413   5.811   8.433 -1.1608 -1.0208  0.5410
  193MOL0     H25994   6.630   5.806   8.558  0.5943 -1.8163 -1.0335
  193MOL0     H25995   6.624   5.984   8.589 -1.4369 -0.1902 -0.9576
  193MOL0     H25996   6.665   5.850   8.319  0.8952  0.4577 -0.5356
  193MOL0     H25997   6.606   6.018   8.339 -0.3518  0.5826  2.3711
  193MOL0     H25998   6.812   6.066   8.440  0.9175  0.3305  1.1637
  193MOL0     H25999   6.852   5.883   8.451  3.0874  1.7550  0.8830
  193MOL0     H26000   6.866   5.890   8.206  1.2139 -0.1591  0.1845
  193MOL0     H26001   6.777   6.049   8.202 -0.5870 -1.8170 -0.0814
  193MOL0     H26002   6.989   6.150   8.304 -1.4214 -0.6691  0.3167
  193MOL0     H26003   7.000   6.086   8.146  2.0107 -3.4666 -1.2604
  193MOL0     H26004   7.081   5.949   8.403  1.3004 -0.0105 -0.2413
  193MOL0     H26005   7.118   5.889   8.238  1.4522  0.4126 -0.1677
  193MOL0     H26006   7.219   6.165   8.473 -2.9485 -1.2922 -0.4029
  193MOL0     H26007   7.453   6.314   8.468 -2.5116 -0.5747  0.2774
  193MOL0     H26008   7.549   6.319   8.317  0.7499  0.5233  1.2093
  193MOL0     H26009   7.401   6.511   8.243  1.6625  0.9228  0.4770
  193MOL0     H26010   7.331   6.486   8.410  0.5136 -1.7673  1.2779
  193MOL0     H26011   7.619   6.553   8.344  1.6705 -0.1696  1.3450
  193MOL0     H26012   7.524   6.544   8.498  0.4692 -1.1548 -1.1051
  193MOL0     H26013   7.566   6.791   8.413 -0.0498 -1.6279  0.7709
  193MOL0     H26014   7.405   6.766   8.426  0.1664 -0.1590  1.3902
  193MOL0     H26015   7.491   6.788   7.975 -0.0759 -0.4162 -1.1965
  193MOL0     H26016   7.693   6.835   7.837 -1.4609  0.0647  0.1388
  193MOL0     H26017   8.201   6.804   7.906  0.5364  0.2186  1.9198
  193MOL0     H26018   8.423   6.847   7.846  0.2933  1.1065 -0.1280
  193MOL0     H26019   8.703   7.207   7.800  0.3127  0.6605  0.8131
  193MOL0     H26020   8.547   7.285   7.842 -1.7932 -0.5985  0.9574
  193MOL0     H26021   8.685   7.289   8.026  0.5669 -0.2115  1.0078
  193MOL0     H26022   8.556   7.168   8.064  1.2638 -3.7526  1.3860
  193MOL0     H26023   8.727   6.981   7.985  1.5285 -0.3747  0.3511
  193MOL0     H26024   8.842   7.104   7.956 -0.8239  2.0137 -0.4680
  193MOL0     H26025   8.740   7.043   8.227 -2.7041  0.9152 -2.5706
  193MOL0     H26026   8.833   7.182   8.190 -1.7837 -0.9275  2.1234
  193MOL0     H26027   9.025   7.000   8.084  1.6182  0.4170 -0.4193
  193MOL0     H26028   8.914   6.888   8.171 -2.2123  1.3181  2.4349
  193MOL0     H26029   9.075   7.107   8.305  3.7325 -1.0843 -1.7086
  193MOL0     H26030   8.968   6.978   8.384 -1.1245 -0.5955 -1.3436
  193MOL0     H26031   9.235   6.987   8.235 -1.1951  1.4474 -1.3797
  193MOL0     H26032   9.144   6.829   8.254  0.2509 -0.8660  1.3299
  193MOL0     H26033   9.140   6.870   8.501 -1.6368  2.7597 -0.4365
  193MOL0     H26034   9.310   6.865   8.448 -1.0131 -0.1870 -0.2383
  193MOL0     H26035   8.336   7.268   7.853 -1.7167  0.6204 -1.5294
  193MOL0     H26036   8.112   7.223   7.928 -0.6028 -0.8636 -2.0767
  193MOL0     H26037   7.936   6.812   8.185 -1.1618  0.2797  0.7057
  193MOL0     H26038   7.758   6.725   8.306 -0.3687 -1.5961 -0.2948
  193MOL0     H26039   6.197   5.680   8.549 -1.7107 -0.1060 -3.9796
  193MOL0     H26040   6.010   5.549   8.596 -2.9579 -0.7859  3.4461
  193MOL0     H26041   5.720   5.425   8.842  0.3132  2.0837  1.0456
  193MOL0     H26042   5.576   5.254   8.932 -0.0530 -0.1563  1.8166
  193MOL0     H26043   5.157   5.244   8.825 -1.4499 -0.4859  0.1953
  193MOL0     H26044   5.154   5.352   8.967 -3.2549 -1.0128 -0.9414
  193MOL0     H26045   5.165   5.149   9.109  0.1208 -1.5746 -0.2077
  193MOL0     H26046   5.157   5.037   8.968  0.2855  0.1650  0.2814
  193MOL0     H26047   4.953   5.129   8.897 -1.5794 -0.0101  0.0829
  193MOL0     H26048   4.957   5.254   9.018  1.7842  0.0451  2.2379
  193MOL0     H26049   4.947   4.952   9.097 -0.7095 -0.4240  1.7125
  193MOL0     H26050   4.909   5.099   9.196  0.2067  3.5028 -1.0227
  193MOL0     H26051   4.539   5.044   9.046  0.3289  2.0022  0.0111
  193MOL0     H26052   5.228   5.469   8.813 -1.0026  0.5340 -0.7180
  193MOL0     H26053   5.230   5.674   8.661  1.3098  1.6853 -2.1247
  193MOL0     H26054   5.340   5.776   8.751  1.6651  0.4226  1.5418
  193MOL0     H26055   5.376   5.712   8.580 -1.6444  1.7936 -0.5011
  194MOL0     O26056   4.334   0.809   7.441  1.1417  0.3380 -0.2121
  194MOL0     C26057   4.245   0.858   7.507 -0.4881 -0.9676 -0.4160
  194MOL0     O26058   4.264   0.949   7.615  0.5682  0.4599  0.4346
  194MOL0     C26059   4.392   0.926   7.674  1.0624 -0.8030 -0.4254
  194MOL0     C26060   4.502   1.014   7.649 -0.4761  0.1939  0.0180
  194MOL0     C26061   4.632   0.973   7.701 -0.1274 -0.6516  0.2247
  194MOL0     C26062   4.648   0.855   7.776  0.0505 -0.0558 -0.5609
  194MOL0     O26063   4.766   0.794   7.800  0.0066 -0.5556 -0.4164
  194MOL0     C26064   4.879   0.878   7.829 -0.0429 -0.4343 -1.0033
  194MOL0     C26065   4.993   0.795   7.863 -0.3029 -0.1886  0.0832
  194MOL0     C26066   5.113   0.885   7.893 -0.2466 -0.9328  1.1598
  194MOL0     C26067   5.242   0.810   7.905  0.1493  0.1251  0.0156
  194MOL0     C26068   5.360   0.892   7.954  0.3270 -0.6102  0.3073
  194MOL0     C26069   5.502   0.831   7.926  1.0164 -0.3186 -0.5087
  194MOL0     C26070   5.607   0.901   8.011 -0.7386  0.0129 -0.2637
  194MOL0     C26071   5.742   0.847   7.996 -0.0438 -0.4239 -0.1221
  194MOL0     N26072   5.836   0.924   8.081 -0.7300 -0.0396 -0.3042
  194MOL0     C26073   5.907   1.035   8.036  0.0121 -0.2128  1.0825
  194MOL0     C26074   6.013   1.042   8.119 -0.5593 -0.2020  1.3113
  194MOL0     C26075   6.134   1.131   8.115  0.6237 -0.3127  1.2777
  194MOL0     C26076   6.203   1.128   7.970 -0.3158  0.4191  0.1008
  194MOL0     C26077   6.291   1.253   7.946  0.6320  0.0159  0.5808
  194MOL0     C26078   6.393   1.269   8.052  0.4691 -0.0822  0.1350
  194MOL0     O26079   6.468   1.143   8.064 -0.5019  0.2667 -0.2150
  194MOL0     C26080   6.596   1.155   8.118  0.2819  1.0635 -0.7336
  194MOL0     C26081   6.679   1.269   8.121  0.0421  1.0561  0.4251
  194MOL0     C26082   6.812   1.274   8.152  0.3056  0.6713 -0.4201
  194MOL0     C26083   6.872   1.154   8.198  0.8102  0.0737 -0.5289
  194MOL0     C26084   7.012   1.150   8.229 -0.5337 -0.0698 -0.6547
  194MOL0     O26085   7.071   1.031   8.258  0.3083  0.0150 -0.4597
  194MOL0     C26086   7.206   1.030   8.282  0.7352  0.3826  0.0042
  194MOL0     C26087   7.292   1.008   8.178 -0.4498  0.1485 -0.1979
  194MOL0     C26088   7.438   1.018   8.201 -0.0175  0.0837 -1.0017
  194MOL0     C26089   7.492   1.037   8.333 -0.1250 -0.4270  0.2515
  194MOL0     O26090   7.630   1.024   8.360  0.4901  0.1524 -0.0070
  194MOL0     C26091   7.711   1.094   8.268  0.2312  0.0267 -0.3005
  194MOL0     C26092   7.831   1.147   8.342 -0.0013 -0.3593 -0.1157
  194MOL0     C26093   7.911   1.031   8.410 -0.4174  0.0488  0.5582
  194MOL0     C26094   8.023   0.990   8.321  0.0527 -0.9279  0.1038
  194MOL0     C26095   8.104   0.882   8.396  0.7394  0.0238 -0.6719
  194MOL0     C26096   8.227   0.828   8.314  0.4182 -0.2967  0.2330
  194MOL0     C26097   8.331   0.734   8.376 -0.6338  0.0076  0.0227
  194MOL0     C26098   8.462   0.730   8.287 -0.4306 -0.3025 -0.7811
  194MOL0    Cl26099   8.568   0.595   8.325 -0.0664  0.3407  0.1335
  194MOL0     C26100   7.401   1.064   8.432  0.1263  0.2636 -0.5754
  194MOL0     C26101   7.264   1.058   8.409  0.1156  0.2869  0.2743
  194MOL0     O26102   7.080   1.254   8.214 -0.3836 -0.3049  0.1034
  194MOL0     C26103   6.789   1.033   8.211 -0.3545 -0.0092 -0.1038
  194MOL0     C26104   6.662   1.038   8.162 -0.6416  0.2136 -0.2930
  194MOL0     N26105   6.006   0.947   8.215  0.5194  0.5214  0.6518
  194MOL0     N26106   5.896   0.875   8.195 -1.0925 -0.5611 -0.8268
  194MOL0     C26107   4.539   0.779   7.803 -0.4332 -0.8133 -0.3018
  194MOL0     C26108   4.412   0.813   7.758 -0.1108  0.1430  0.3673
  194MOL0     C26109   4.112   0.806   7.479 -0.2531  0.3974 -0.0571
  194MOL0     C26110   4.090   0.673   7.420  0.2007  1.0325 -0.0176
  194MOL0     C26111   3.961   0.617   7.400 -0.0657 -0.1333 -0.9689
  194MOL0     C26112   3.842   0.692   7.430 -0.5176  0.2134  0.2014
  194MOL0     O26113   3.733   0.624   7.388 -0.6816 -0.3733  0.1260
  194MOL0     C26114   3.612   0.690   7.360  0.3933  0.2369  0.7695
  194MOL0     C26115   3.626   0.766   7.228 -0.2806 -0.5129  0.8427
  194MOL0     C26116   3.514   0.857   7.192  0.0649 -0.3652  0.5731
  194MOL0     C26117   3.404   0.772   7.119 -0.1764 -0.0279 -0.1406
  194MOL0     C26118   3.318   0.874   7.055  0.3518  0.8249 -0.0454
  194MOL0     C26119   3.249   0.935   6.980 -0.6062 -0.6199  0.3200
  194MOL0     C26120   3.867   0.823   7.473  0.5962 -0.1237 -0.3083
  194MOL0     C26121   3.991   0.879   7.499 -0.8404  0.1693  0.0298
  194MOL0     C26122   3.996   1.025   7.538  0.1961 -0.0996 -0.2126
  194MOL0     H26123   4.488   1.103   7.589 -1.4438 -1.1447 -1.8406
  194MOL0     H26124   4.715   1.030   7.661  1.0703 -2.8119 -0.4820
  194MOL0     H26125   4.903   0.935   7.739 -0.2408  0.3739 -0.5496
  194MOL0     H26126   4.852   0.951   7.906 -0.9336 -0.3808 -1.3526
  194MOL0     H26127   5.017   0.731   7.777  0.0645 -2.6566  1.8820
  194MOL0     H26128   4.968   0.743   7.956 -0.2167  0.6781  0.6006
  194MOL0     H26129   5.088   0.957   7.972 -0.9231 -0.7491  0.7901
  194MOL0     H26130   5.129   0.949   7.805 -3.7679 -0.2574  0.8358
  194MOL0     H26131   5.241   0.735   7.985 -2.9537  0.4557  0.4174
  194MOL0     H26132   5.260   0.762   7.809 -2.0889  0.4788 -0.6172
  194MOL0     H26133   5.351   0.994   7.916  0.6755 -0.9427 -0.7048
  194MOL0     H26134   5.350   0.900   8.063  2.9500 -1.7738  0.7418
  194MOL0     H26135   5.512   0.731   7.969 -1.3187  0.3349  1.8252
  194MOL0     H26136   5.521   0.831   7.818 -0.2002 -0.3342 -0.7410
  194MOL0     H26137   5.585   0.890   8.118 -0.4175  0.7823 -0.1137
  194MOL0     H26138   5.615   1.007   7.987 -2.3132  0.1149 -0.4880
  194MOL0     H26139   5.744   0.739   8.011 -2.9370 -0.6055 -0.5279
  194MOL0     H26140   5.770   0.849   7.890 -1.0720  0.7129 -0.3906
  194MOL0     H26141   5.883   1.093   7.948  0.1354  0.5254  1.5258
  194MOL0     H26142   6.095   1.233   8.117  0.0868 -0.3004 -2.2581
  194MOL0     H26143   6.207   1.110   8.194  0.8877 -3.1350  0.4143
  194MOL0     H26144   6.263   1.037   7.968 -0.5432  0.2188 -3.2487
  194MOL0     H26145   6.132   1.124   7.887  1.9218  0.9221 -1.9038
  194MOL0     H26146   6.228   1.342   7.938 -1.7506 -1.6846 -0.5173
  194MOL0     H26147   6.350   1.236   7.855 -0.7495 -0.8232 -0.1796
  194MOL0     H26148   6.353   1.295   8.150  0.8360 -0.0314  0.2714
  194MOL0     H26149   6.463   1.345   8.016  1.4389 -0.8627  0.3340
  194MOL0     H26150   6.645   1.366   8.084 -2.7154  0.0987  0.2724
  194MOL0     H26151   6.859   1.372   8.151 -1.5757  1.8404  3.7745
  194MOL0     H26152   7.245   0.992   8.081 -1.4122  0.7482  0.1659
  194MOL0     H26153   7.499   0.980   8.120 -2.7560 -3.9978 -1.4612
  194MOL0     H26154   7.749   1.027   8.190  0.0881 -1.4189  0.8097
  194MOL0     H26155   7.651   1.178   8.233 -1.6748 -1.6303 -1.2375
  194MOL0     H26156   7.889   1.203   8.269 -0.6048  0.2846 -0.1031
  194MOL0     H26157   7.809   1.221   8.419  4.9482  0.4804  0.8761
  194MOL0     H26158   7.964   1.075   8.495  0.7770  1.7430 -1.0017
  194MOL0     H26159   7.847   0.952   8.452 -1.4331  0.7659  0.3988
  194MOL0     H26160   8.089   1.073   8.293 -0.3467 -1.1655 -1.6653
  194MOL0     H26161   7.979   0.951   8.228  0.8361  1.6753 -1.4488
  194MOL0     H26162   8.037   0.796   8.407 -0.8698  0.4858 -5.1109
  194MOL0     H26163   8.121   0.916   8.499 -1.4354 -3.6629  1.1271
  194MOL0     H26164   8.175   0.779   8.231 -1.4272 -1.2122  1.8329
  194MOL0     H26165   8.289   0.912   8.283 -0.4155 -1.0950 -4.2683
  194MOL0     H26166   8.280   0.639   8.390  1.1313 -0.6448  2.7509
  194MOL0     H26167   8.364   0.758   8.478 -0.5790 -2.8231  0.7461
  194MOL0     H26168   8.440   0.727   8.180 -0.9308 -0.4520 -0.6757
  194MOL0     H26169   8.514   0.822   8.317 -2.3873  0.1121  1.6310
  194MOL0     H26170   7.438   1.082   8.532 -0.8645  0.9535 -0.3215
  194MOL0     H26171   7.189   1.098   8.476  0.2664 -0.9910  1.2380
  194MOL0     H26172   6.835   0.946   8.256  1.4225  0.6785 -0.4667
  194MOL0     H26173   6.622   0.937   8.166  2.8451 -1.2631  0.9588
  194MOL0     H26174   4.559   0.687   7.857  0.5394  0.4490  1.6463
  194MOL0     H26175   4.342   0.733   7.776 -0.1321  0.4174  1.5950
  194MOL0     H26176   4.180   0.622   7.387 -0.4245  1.5080 -2.6754
  194MOL0     H26177   3.954   0.517   7.358  1.9719  0.3180 -2.5326
  194MOL0     H26178   3.592   0.765   7.437  1.3473  0.6645  0.6065
  194MOL0     H26179   3.535   0.612   7.364  1.5555 -1.0782 -1.0335
  194MOL0     H26180   3.660   0.700   7.148  1.1575 -0.6280  1.5199
  194MOL0     H26181   3.709   0.837   7.239  0.5899 -1.3295 -0.2238
  194MOL0     H26182   3.548   0.936   7.125 -0.2751 -0.7209 -0.0369
  194MOL0     H26183   3.479   0.902   7.285  0.3065 -0.5378  0.7469
  194MOL0     H26184   3.450   0.722   7.032 -1.8705  0.9363 -1.6681
  194MOL0     H26185   3.341   0.704   7.177 -3.2993  0.9859 -2.0718
  194MOL0     H26186   3.195   0.999   6.913  1.5518 -0.2980 -1.2277
  194MOL0     H26187   3.782   0.888   7.489 -0.6845 -2.2210  2.3919
  194MOL0     H26188   3.896   1.068   7.526  1.1026  1.8767 -1.0193
  194MOL0     H26189   4.027   1.026   7.643  0.1033 -2.6568 -0.1047
  194MOL0     H26190   4.074   1.081   7.486 -0.2252  0.3942 -0.3175
  195MOL0     O26191  10.211   0.930   4.099  0.1153  0.5008 -0.0119
  195MOL0     C26192  10.144   0.897   4.006  0.4514 -0.5401 -0.9877
  195MOL0     O26193  10.197   0.845   3.891 -0.3274 -0.1510 -0.1310
  195MOL0     C26194  10.317   0.787   3.898 -0.1238  0.3277  0.2676
  195MOL0     C26195  10.327   0.665   3.971  0.9803 -0.3108 -0.7521
  195MOL0     C26196  10.446   0.592   3.978 -0.3393 -0.3003 -0.2354
  195MOL0     C26197  10.553   0.637   3.904 -0.3856  0.0827  0.4501
  195MOL0     O26198  10.659   0.547   3.907 -0.0636 -0.5042  0.3451
  195MOL0     C26199  10.751   0.561   3.795 -0.8350 -0.1592  0.3538
  195MOL0     C26200  10.854   0.451   3.804  0.6688 -0.5998  0.1113
  195MOL0     C26201  10.966   0.482   3.698  0.2113  0.2423 -1.4759
  195MOL0     C26202  11.069   0.363   3.715  0.3440  0.2560  0.3437
  195MOL0     C26203  11.187   0.369   3.629  0.3208  0.0707 -0.4687
  195MOL0     C26204  11.267   0.244   3.652  0.5165  1.0759  0.0605
  195MOL0     C26205  11.406   0.248   3.594  0.0628 -0.3824 -0.3981
  195MOL0     C26206  11.506   0.316   3.692 -0.3221 -1.2491  0.0289
  195MOL0     N26207  11.609   0.407   3.628 -0.4769 -0.1272  0.2821
  195MOL0     C26208  11.587   0.525   3.568 -0.3218  0.4909  0.0031
  195MOL0     C26209  11.713   0.567   3.522  0.6720  0.5989  1.3153
  195MOL0     C26210  11.751   0.692   3.453  0.0584 -0.4857 -0.3614
  195MOL0     C26211  11.821   0.791   3.550  0.5015  0.1597  0.2276
  195MOL0     C26212  11.939   0.735   3.619 -0.5853  0.6612 -0.2059
  195MOL0     C26213  12.052   0.703   3.513 -0.3678 -0.4207  0.1672
  195MOL0     O26214  12.182   0.728   3.567 -0.3378 -0.1245  0.0438
  195MOL0     C26215  12.255   0.624   3.606  0.6205 -0.4651  0.2539
  195MOL0     C26216  12.204   0.500   3.652  0.0221  0.2185 -0.4306
  195MOL0     C26217  12.283   0.398   3.678  0.6553  0.9195 -0.5783
  195MOL0     C26218  12.424   0.412   3.689  0.1294  0.3951 -0.3353
  195MOL0     C26219  12.516   0.295   3.704  0.4692 -1.1771 -0.4010
  195MOL0     O26220  12.652   0.307   3.673  0.3537  0.2309  0.0249
  195MOL0     C26221  12.728   0.194   3.649  0.1540 -0.5815  0.3644
  195MOL0     C26222  12.679   0.084   3.579  0.1365  0.8505  0.5444
  195MOL0     C26223  12.761  -0.016   3.541 -0.3073  0.2695  0.0710
  195MOL0     C26224  12.902  -0.010   3.571 -0.0134 -0.3659  0.8004
  195MOL0     O26225  12.989  -0.112   3.525 -0.1854 -0.4706 -0.2468
  195MOL0     C26226  13.093  -0.061   3.441  0.8104  0.3020  0.9896
  195MOL0     C26227  13.025  -0.048   3.304  0.3416 -0.5417 -0.3088
  195MOL0     C26228  13.107  -0.079   3.184 -0.2811  0.5291 -0.1877
  195MOL0     C26229  13.032  -0.055   3.052  0.4556 -0.3195 -1.1395
  195MOL0     C26230  13.111  -0.046   2.924  0.1939 -0.6173 -0.8459
  195MOL0     C26231  13.187  -0.173   2.906  0.2664 -0.7583 -0.0644
  195MOL0     C26232  13.103  -0.294   2.896  0.7181  0.0753  0.6661
  195MOL0     C26233  13.184  -0.414   2.859 -0.2808 -0.9644  0.1659
  195MOL0    Cl26234  13.300  -0.451   2.996  0.2273 -0.2016 -0.2545
  195MOL0     C26235  12.951   0.093   3.647  0.6051  0.4517  0.1771
  195MOL0     C26236  12.867   0.202   3.684 -0.1941  0.2161 -0.1673
  195MOL0     O26237  12.464   0.192   3.740  0.3885 -1.3431 -0.3240
  195MOL0     C26238  12.475   0.537   3.652  1.0933 -0.1421 -0.5271
  195MOL0     C26239  12.389   0.637   3.603 -0.5312  0.7086  0.4912
  195MOL0     N26240  11.799   0.461   3.537 -0.0219  0.1110 -0.5294
  195MOL0     N26241  11.740   0.368   3.610  0.0290  0.3530 -0.0650
  195MOL0     C26242  10.553   0.762   3.827  0.1018 -0.6476 -0.3611
  195MOL0     C26243  10.430   0.839   3.834 -0.6547 -0.1976 -0.1547
  195MOL0     C26244   9.997   0.930   4.005 -0.3390  0.5760 -0.2494
  195MOL0     C26245   9.931   0.902   3.891  0.7240 -0.3326 -0.6950
  195MOL0     C26246   9.800   0.936   3.875  0.5465  0.6416  0.1328
  195MOL0     C26247   9.730   0.999   3.976  0.3125  0.4563 -0.0584
  195MOL0     O26248   9.600   1.035   3.942 -0.6757  0.1486 -0.1848
  195MOL0     C26249   9.534   1.140   4.010  0.9281 -0.1274  0.0532
  195MOL0     C26250   9.376   1.134   3.978 -0.2745 -1.5446  0.2749
  195MOL0     C26251   9.358   1.174   3.833 -0.1753  0.6615 -0.0787
  195MOL0     C26252   9.212   1.159   3.790 -0.5735 -0.1793 -0.4628
  195MOL0     C26253   9.197   1.200   3.647  0.6270 -0.0817 -0.1643
  195MOL0     C26254   9.184   1.209   3.526  0.4861 -0.6330  0.5319
  195MOL0     C26255   9.792   1.018   4.102  0.1869  0.1964  0.1506
  195MOL0     C26256   9.921   0.975   4.124 -0.1329  0.4392  0.2015
  195MOL0     C26257   9.984   1.013   4.258  0.9626 -0.6870 -0.2189
  195MOL0     H26258  10.241   0.626   4.024  0.9286 -0.3720 -0.8806
  195MOL0     H26259  10.456   0.503   4.040  1.6969  0.1326  0.1176
  195MOL0     H26260  10.700   0.561   3.698 -1.4462  0.2427  0.6663
  195MOL0     H26261  10.802   0.657   3.800  0.9586 -0.8825 -2.1725
  195MOL0     H26262  10.800   0.358   3.779 -1.0008 -0.5900  3.2378
  195MOL0     H26263  10.906   0.428   3.897  0.2165 -1.0110  0.2715
  195MOL0     H26264  11.017   0.578   3.711  3.2798 -1.3503 -0.7049
  195MOL0     H26265  10.923   0.480   3.598 -0.7769 -0.3595 -1.0576
  195MOL0     H26266  11.103   0.359   3.819  1.8679 -0.9143 -0.1632
  195MOL0     H26267  11.013   0.274   3.685 -0.4629  1.7391 -2.9698
  195MOL0     H26268  11.157   0.375   3.524  0.2819 -0.4104 -0.4848
  195MOL0     H26269  11.246   0.459   3.648 -0.6556  0.4438  0.9122
  195MOL0     H26270  11.273   0.218   3.758  3.3007  0.5711 -0.1486
  195MOL0     H26271  11.214   0.167   3.594 -0.2219  1.8952 -0.3761
  195MOL0     H26272  11.399   0.311   3.504 -0.9334  0.9409  0.5694
  195MOL0     H26273  11.444   0.147   3.572 -2.6370 -2.1459  2.2109
  195MOL0     H26274  11.447   0.381   3.757 -0.6862 -0.5852 -0.9263
  195MOL0     H26275  11.556   0.235   3.745  1.6285  0.2665  0.6323
  195MOL0     H26276  11.494   0.578   3.587 -0.7693 -0.2091 -0.1872
  195MOL0     H26277  11.818   0.665   3.371  0.0362  2.7548 -1.5893
  195MOL0     H26278  11.661   0.733   3.406  0.5210 -1.0775 -1.8084
  195MOL0     H26279  11.854   0.883   3.502  0.3064  0.1169  0.0092
  195MOL0     H26280  11.755   0.823   3.631 -0.4172 -1.2329  0.0613
  195MOL0     H26281  11.922   0.646   3.681 -0.1541  0.7366  0.0214
  195MOL0     H26282  11.981   0.815   3.680 -1.9946  2.5994 -1.6486
  195MOL0     H26283  12.039   0.775   3.432  2.1223  1.4206  1.2825
  195MOL0     H26284  12.041   0.605   3.464  0.8147 -1.3892  1.7368
  195MOL0     H26285  12.097   0.482   3.660  0.4270 -2.1694  0.3830
  195MOL0     H26286  12.237   0.303   3.703  1.0200  1.3040  1.8094
  195MOL0     H26287  12.577   0.062   3.550  0.7913  0.9417 -2.0391
  195MOL0     H26288  12.730  -0.104   3.485  0.1303 -0.7374  1.3424
  195MOL0     H26289  13.143   0.031   3.471 -0.1892  2.3455 -2.9463
  195MOL0     H26290  13.183  -0.121   3.424  0.8575  1.1230 -2.4470
  195MOL0     H26291  12.937  -0.114   3.305  0.0860 -0.2043 -0.3863
  195MOL0     H26292  12.990   0.055   3.302 -2.2649 -1.2720  1.3314
  195MOL0     H26293  13.210  -0.042   3.183  1.0141 -2.7090  1.0146
  195MOL0     H26294  13.124  -0.184   3.210 -1.3079  1.0236  2.7764
  195MOL0     H26295  12.976   0.037   3.071  2.8153  0.5715  2.4565
  195MOL0     H26296  12.955  -0.132   3.048  0.0298 -0.0220  0.5934
  195MOL0     H26297  13.182   0.036   2.937  0.3970 -0.9820  0.5768
  195MOL0     H26298  13.046  -0.026   2.839 -1.8166  0.2592  0.8294
  195MOL0     H26299  13.240  -0.168   2.811 -2.7170 -0.2136 -1.8498
  195MOL0     H26300  13.262  -0.178   2.985 -2.1518 -0.2521  2.4171
  195MOL0     H26301  13.030  -0.278   2.816 -1.5833  0.0060  2.6419
  195MOL0     H26302  13.055  -0.316   2.992 -0.1603  0.6317  0.3765
  195MOL0     H26303  13.119  -0.496   2.827  0.5839 -1.1822 -1.1273
  195MOL0     H26304  13.249  -0.390   2.774  0.1506 -0.5322  0.6101
  195MOL0     H26305  13.055   0.101   3.677  1.6720  1.6668 -3.2991
  195MOL0     H26306  12.913   0.282   3.741  2.3809 -1.6827  0.6135
  195MOL0     H26307  12.580   0.565   3.654  0.6445  1.6433  0.3954
  195MOL0     H26308  12.424   0.739   3.586 -2.2134  1.4805  1.4514
  195MOL0     H26309  10.640   0.809   3.780 -0.4112  1.6275  0.8289
  195MOL0     H26310  10.408   0.930   3.780 -2.4961  0.3603  1.4241
  195MOL0     H26311   9.971   0.840   3.811  2.2193  0.1947 -0.3853
  195MOL0     H26312   9.744   0.918   3.784 -0.3517 -2.8240  1.1993
  195MOL0     H26313   9.577   1.235   3.976  2.4146 -0.5253  0.6937
  195MOL0     H26314   9.550   1.138   4.118 -0.9875  0.1159  0.3681
  195MOL0     H26315   9.326   1.202   4.047 -0.2935  0.1289 -1.3290
  195MOL0     H26316   9.331   1.034   3.986 -2.2009 -0.7738 -0.2762
  195MOL0     H26317   9.431   1.118   3.773  1.7276  0.0457  2.6434
  195MOL0     H26318   9.390   1.278   3.825  1.2504  0.2412 -0.0964
  195MOL0     H26319   9.169   1.060   3.807  1.0581 -0.7402  0.6977
  195MOL0     H26320   9.160   1.241   3.840 -1.6494 -0.0157 -1.7946
  195MOL0     H26321   9.175   1.210   3.419  2.7169 -0.3746  0.3000
  195MOL0     H26322   9.747   1.076   4.182 -0.5322  0.5155 -0.4747
  195MOL0     H26323   9.915   1.036   4.339  0.7753  0.3183 -0.6430
  195MOL0     H26324  10.058   0.942   4.295  2.7461  1.1759  0.0292
  195MOL0     H26325  10.041   1.106   4.248 -2.0126  1.4055  0.7691
  196MOL0     O26326   3.302   7.706   9.303 -0.1040  0.5444 -0.7277
  196MOL0     C26327   3.272   7.822   9.334 -0.1038 -1.0756 -0.5326
  196MOL0     O26328   3.358   7.927   9.314 -0.0059  0.6373 -0.7819
  196MOL0     C26329   3.487   7.910   9.280  0.3299  0.0167 -0.1458
  196MOL0     C26330   3.528   8.010   9.196  0.6911 -0.7051  0.3248
  196MOL0     C26331   3.663   8.022   9.152 -0.2248  0.5425  0.8517
  196MOL0     C26332   3.755   7.940   9.199 -0.5946  1.1758  0.6867
  196MOL0     O26333   3.889   7.976   9.181  0.5493  0.1564 -0.4082
  196MOL0     C26334   3.936   8.021   9.053 -1.3420 -0.1374 -0.9785
  196MOL0     C26335   4.088   7.994   9.061  0.4603  0.7793  0.1946
  196MOL0     C26336   4.152   8.062   9.179  0.5861  0.0357 -0.7477
  196MOL0     C26337   4.305   8.066   9.144  0.6023 -0.0582 -0.7068
  196MOL0     C26338   4.390   8.122   9.259 -0.3237  0.4613  0.1179
  196MOL0     C26339   4.544   8.095   9.242 -0.4930 -0.9637 -0.1683
  196MOL0     C26340   4.623   8.160   9.354  0.7016 -0.4072 -0.3838
  196MOL0     C26341   4.749   8.077   9.385 -0.6377 -0.0845 -0.4805
  196MOL0     N26342   4.832   8.151   9.482  0.6831  0.0052 -0.2575
  196MOL0     C26343   4.913   8.100   9.580  0.4757 -0.3559  0.3172
  196MOL0     C26344   4.964   8.202   9.653 -0.0566 -0.2674 -0.8248
  196MOL0     C26345   5.060   8.186   9.775  0.0432 -0.0537  0.2351
  196MOL0     C26346   5.156   8.311   9.783  0.7581 -0.1426 -0.7137
  196MOL0     C26347   5.249   8.337   9.657  0.0779 -0.2630  0.1981
  196MOL0     C26348   5.334   8.458   9.669 -0.5139  0.3775  0.7702
  196MOL0     O26349   5.461   8.421   9.727  0.8363  0.4349  0.3979
  196MOL0     C26350   5.568   8.507   9.737  0.4586  0.4294 -0.6338
  196MOL0     C26351   5.691   8.464   9.789  0.4792 -0.3672  0.0388
  196MOL0     C26352   5.800   8.544   9.780 -0.0908 -0.4346 -0.3073
  196MOL0     C26353   5.796   8.668   9.720  0.0002  0.4396 -0.3879
  196MOL0     C26354   5.912   8.757   9.698  0.2778  0.0341 -0.0784
  196MOL0     O26355   6.031   8.713   9.726 -0.4014  0.4154 -0.3474
  196MOL0     C26356   6.136   8.794   9.691 -0.4522  0.0065  0.3503
  196MOL0     C26357   6.233   8.755   9.601  0.5231 -0.1494  0.1112
  196MOL0     C26358   6.337   8.833   9.563  0.0623 -0.1364 -1.0659
  196MOL0     C26359   6.352   8.971   9.606  0.0115  0.5426 -0.4191
  196MOL0     O26360   6.458   9.056   9.563 -0.2481  0.3664  0.2846
  196MOL0     C26361   6.492   9.181   9.625  0.7120  0.8777 -0.0532
  196MOL0     C26362   6.598   9.258   9.540  0.2928  0.7405 -0.5425
  196MOL0     C26363   6.740   9.204   9.558  0.1657 -0.5751 -0.1950
  196MOL0     C26364   6.846   9.292   9.483  0.3033  0.5888 -0.2226
  196MOL0     C26365   6.974   9.212   9.455  0.2066  0.2780  0.3578
  196MOL0     C26366   7.086   9.316   9.428 -0.0639 -0.0098  1.0018
  196MOL0     C26367   7.225   9.255   9.393  0.6101  1.2699  0.4422
  196MOL0     C26368   7.286   9.158   9.495 -0.1644 -0.8057  0.2777
  196MOL0    Cl26369   7.283   9.241   9.652  0.4231 -0.2209 -0.5530
  196MOL0     C26370   6.265   9.001   9.703 -0.0484 -0.6785  0.0328
  196MOL0     C26371   6.150   8.924   9.745 -0.1053  0.0577 -0.3046
  196MOL0     O26372   5.882   8.861   9.640 -0.4471  0.1362  0.1562
  196MOL0     C26373   5.674   8.714   9.671  0.0730 -0.1283  1.1330
  196MOL0     C26374   5.568   8.633   9.683 -0.1149 -0.0607 -0.1722
  196MOL0     N26375   4.920   8.319   9.590 -0.3729  0.4136  0.5236
  196MOL0     N26376   4.827   8.286   9.505  0.4640 -0.1610  0.4275
  196MOL0     C26377   3.713   7.829   9.277 -0.3050 -0.6764 -0.0867
  196MOL0     C26378   3.588   7.817   9.316  0.1158  0.3827  0.2792
  196MOL0     C26379   3.134   7.858   9.378  0.7874 -0.3022  0.4151
  196MOL0     C26380   3.103   7.990   9.423  0.6656 -0.3472  0.3384
  196MOL0     C26381   2.971   8.032   9.447  0.4423  0.1388 -0.3017
  196MOL0     C26382   2.867   7.939   9.444 -0.3863  0.4964 -0.5074
  196MOL0     O26383   2.737   7.981   9.465 -0.0900  0.2612  0.3950
  196MOL0     C26384   2.717   8.105   9.541  0.5640  0.5984  0.0491
  196MOL0     C26385   2.561   8.113   9.579 -0.1457  0.1335  0.5451
  196MOL0     C26386   2.542   8.255   9.625 -0.4901 -0.4820  0.3014
  196MOL0     C26387   2.391   8.280   9.651  0.2522 -0.0489  0.0817
  196MOL0     C26388   2.363   8.423   9.663 -0.6003 -0.2003  0.1753
  196MOL0     C26389   2.324   8.535   9.651 -0.2820  0.0893 -0.6184
  196MOL0     C26390   2.898   7.806   9.416 -0.6186 -0.7803  0.3474
  196MOL0     C26391   3.027   7.766   9.373 -0.4718 -0.7768 -0.3852
  196MOL0     C26392   3.033   7.621   9.331  0.4682  0.0354 -0.5010
  196MOL0     H26393   3.445   8.069   9.159  0.6855 -0.9849 -0.1096
  196MOL0     H26394   3.688   8.101   9.082  0.7695  0.7613  1.4393
  196MOL0     H26395   3.895   7.963   8.970 -0.1733 -0.3571 -1.4195
  196MOL0     H26396   3.915   8.128   9.047  0.6839  0.5866  2.0490
  196MOL0     H26397   4.129   8.014   8.962 -0.8118  1.3956 -0.2279
  196MOL0     H26398   4.097   7.886   9.082 -3.1918 -0.3433 -2.9709
  196MOL0     H26399   4.148   8.002   9.271  3.4319  2.1057  0.8837
  196MOL0     H26400   4.104   8.160   9.188  0.6351  0.2241 -2.3485
  196MOL0     H26401   4.347   7.966   9.125  0.0862 -0.8961  2.0361
  196MOL0     H26402   4.315   8.133   9.059 -1.8436  0.6460 -0.5032
  196MOL0     H26403   4.362   8.227   9.269  0.4288  0.7547 -0.6997
  196MOL0     H26404   4.372   8.083   9.359  1.8420  0.6281  0.6282
  196MOL0     H26405   4.559   7.987   9.244 -1.1123 -1.0546 -0.1925
  196MOL0     H26406   4.577   8.140   9.148 -2.7003  1.0513 -0.0816
  196MOL0     H26407   4.571   8.160   9.450  1.0494  1.3965 -0.1531
  196MOL0     H26408   4.654   8.263   9.331  0.8396 -0.2117  0.6261
  196MOL0     H26409   4.717   7.983   9.431  1.5079 -0.1884  0.9373
  196MOL0     H26410   4.812   8.052   9.299  2.3652  0.2019  1.4803
  196MOL0     H26411   4.941   7.997   9.599  1.9179  0.4060  2.8179
  196MOL0     H26412   4.998   8.179   9.865 -1.0436  1.2829 -0.3850
  196MOL0     H26413   5.119   8.095   9.757  1.6925  1.0945 -0.4791
  196MOL0     H26414   5.089   8.396   9.797  0.0069 -0.4629 -2.2104
  196MOL0     H26415   5.225   8.295   9.867  0.4346  0.3678 -0.3400
  196MOL0     H26416   5.190   8.358   9.567 -2.6389 -1.1498  1.6709
  196MOL0     H26417   5.318   8.253   9.645 -1.6570 -1.7887  0.5224
  196MOL0     H26418   5.288   8.545   9.716  0.5749  0.8516  0.9880
  196MOL0     H26419   5.355   8.488   9.566 -1.7867  0.4758  0.5249
  196MOL0     H26420   5.698   8.370   9.843 -0.8151  0.1848  1.2324
  196MOL0     H26421   5.900   8.511   9.808  0.2760  2.1761  1.8712
  196MOL0     H26422   6.239   8.655   9.559  0.2186 -0.2386  0.2746
  196MOL0     H26423   6.406   8.791   9.491 -0.2369  0.2342 -1.5776
  196MOL0     H26424   6.411   9.254   9.631  0.9728  1.0233  3.4286
  196MOL0     H26425   6.525   9.165   9.728 -1.6855  0.3796  0.7036
  196MOL0     H26426   6.575   9.239   9.435  0.4020 -3.9468  0.0259
  196MOL0     H26427   6.586   9.362   9.569  0.0560  1.5052 -3.1710
  196MOL0     H26428   6.758   9.212   9.666  0.1002 -2.5174 -0.0089
  196MOL0     H26429   6.740   9.096   9.539  1.4898 -0.9716  1.7258
  196MOL0     H26430   6.856   9.377   9.553  1.6811  0.9938 -0.8722
  196MOL0     H26431   6.805   9.335   9.391 -2.0323  0.3352  0.6381
  196MOL0     H26432   6.976   9.147   9.367 -0.6098 -0.3355  0.7732
  196MOL0     H26433   6.999   9.153   9.544 -1.4880  1.8501  1.9816
  196MOL0     H26434   7.073   9.375   9.336  1.0193  0.5711  1.2115
  196MOL0     H26435   7.093   9.385   9.513  0.1506 -0.1342  1.0833
  196MOL0     H26436   7.286   9.344   9.378 -0.6461  1.8362 -1.7470
  196MOL0     H26437   7.237   9.203   9.298  1.4508 -0.8670  1.6244
  196MOL0     H26438   7.234   9.063   9.497 -3.3756  0.7256 -1.6846
  196MOL0     H26439   7.389   9.136   9.464 -0.3639 -1.3740  0.0075
  196MOL0     H26440   6.267   9.100   9.749  0.6317 -0.9350  0.5761
  196MOL0     H26441   6.090   8.958   9.828  0.1837  1.2202 -0.5530
  196MOL0     H26442   5.654   8.814   9.634  0.1239  0.4353  2.5378
  196MOL0     H26443   5.482   8.689   9.648 -1.0266 -2.6492 -2.3695
  196MOL0     H26444   3.793   7.766   9.316 -0.7637 -1.7704 -0.8549
  196MOL0     H26445   3.568   7.727   9.374  0.6456  0.2076  0.1906
  196MOL0     H26446   3.184   8.063   9.425  0.4214 -0.0568 -0.3372
  196MOL0     H26447   2.954   8.138   9.457 -1.3541 -0.1878  0.6664
  196MOL0     H26448   2.751   8.193   9.485  1.5435  0.2490  0.0659
  196MOL0     H26449   2.779   8.104   9.631  0.1808 -0.3900  0.3030
  196MOL0     H26450   2.526   8.035   9.648  2.2807 -0.9826  0.6124
  196MOL0     H26451   2.503   8.100   9.488 -1.1956  0.5016  1.1488
  196MOL0     H26452   2.573   8.335   9.557  2.2681  0.4362  2.4316
  196MOL0     H26453   2.596   8.266   9.720 -1.0793  1.3473  0.4667
  196MOL0     H26454   2.324   8.234   9.578  0.6782  1.5873 -1.4140
  196MOL0     H26455   2.372   8.233   9.747 -0.1214 -1.4213 -0.6425
  196MOL0     H26456   2.283   8.633   9.666 -0.2674 -0.2172  1.7113
  196MOL0     H26457   2.817   7.739   9.390 -2.7255  1.9583 -0.6557
  196MOL0     H26458   3.077   7.601   9.233  0.2636 -2.1185 -0.2004
  196MOL0     H26459   3.090   7.562   9.404 -0.6678 -0.3299  0.1296
  196MOL0     H26460   2.934   7.575   9.321 -0.4920  1.4450  1.6348
  197MOL0     O26461   7.783   9.746   6.128  0.0669 -0.1575  0.4605
  197MOL0     C26462   7.792   9.629   6.102 -0.4715  0.0594  0.2082
  197MOL0     O26463   7.905   9.564   6.073  0.1082  0.5353  0.4803
  197MOL0     C26464   8.024   9.599   6.123 -0.0569  0.1015  0.2725
  197MOL0     C26465   8.125   9.546   6.050  0.1945  0.1190 -0.2379
  197MOL0     C26466   8.257   9.578   6.081  1.4276 -0.3126  0.1516
  197MOL0     C26467   8.288   9.660   6.185  0.0970 -0.4620  0.0391
  197MOL0     O26468   8.422   9.694   6.191 -0.7574 -0.1342 -0.7064
  197MOL0     C26469   8.467   9.769   6.306  0.5592 -0.1357 -0.1202
  197MOL0     C26470   8.619   9.809   6.298 -0.3839  0.1835 -0.4959
  197MOL0     C26471   8.692   9.704   6.226 -0.2747 -0.9948  0.9829
  197MOL0     C26472   8.842   9.739   6.218 -0.2609  0.2292  0.0866
  197MOL0     C26473   8.916   9.664   6.109 -0.4173 -0.2355  0.7880
  197MOL0     C26474   9.044   9.734   6.056  0.5761  0.9088 -0.1310
  197MOL0     C26475   9.101   9.659   5.927 -0.1673 -0.2965 -0.0634
  197MOL0     C26476   9.223   9.726   5.863 -0.2809 -0.0960 -0.1111
  197MOL0     N26477   9.199   9.861   5.807  0.2549 -0.1884  0.0985
  197MOL0     C26478   9.137   9.900   5.699 -0.4055  0.7231 -0.1086
  197MOL0     C26479   9.168  10.029   5.688 -0.2670  0.5607 -0.1018
  197MOL0     C26480   9.113  10.115   5.580  0.0113 -0.4209 -0.7828
  197MOL0     C26481   9.213  10.121   5.464 -0.5409  0.0807  0.1301
  197MOL0     C26482   9.328  10.225   5.485 -0.1127  0.4173  0.4790
  197MOL0     C26483   9.396  10.242   5.347  0.3980 -0.9015 -0.0959
  197MOL0     O26484   9.499  10.340   5.371  0.3912  0.5538 -0.4425
  197MOL0     C26485   9.587  10.380   5.273  1.0463  0.4463  0.1331
  197MOL0     C26486   9.682  10.477   5.302  0.3138  0.6483 -0.7547
  197MOL0     C26487   9.782  10.512   5.211 -0.3067  0.0011  0.8718
  197MOL0     C26488   9.786  10.454   5.080 -0.3175  0.5982  0.2790
  197MOL0     C26489   9.877  10.497   4.978  0.3297 -0.4440  0.1190
  197MOL0     O26490   9.952  10.613   5.004 -0.0806  0.1639  0.0219
  197MOL0     C26491  10.034  10.651   4.900  0.0858 -0.2134  0.5262
  197MOL0     C26492  10.149  10.576   4.867 -0.0555  0.7022  0.1191
  197MOL0     C26493  10.217  10.610   4.747 -0.3919  0.9564  0.8584
  197MOL0     C26494  10.180  10.721   4.665 -0.2185  0.0313  0.7315
  197MOL0     O26495  10.234  10.764   4.552  0.4117 -0.1132 -0.1929
  197MOL0     C26496  10.358  10.716   4.511  0.5508 -0.4573  0.3239
  197MOL0     C26497  10.375  10.775   4.371 -0.2173  0.1701 -0.3986
  197MOL0     C26498  10.248  10.774   4.283  0.2596 -0.7375 -0.0136
  197MOL0     C26499  10.185  10.634   4.263  0.7664 -0.7149 -0.2685
  197MOL0     C26500  10.077  10.647   4.149  0.1979  1.0108  0.8828
  197MOL0     C26501   9.991  10.522   4.126 -0.2397 -0.1801  0.9145
  197MOL0     C26502  10.078  10.408   4.074  0.0710  0.5437  0.1429
  197MOL0     C26503  10.147  10.450   3.942 -0.1640 -0.7318 -0.8096
  197MOL0    Cl26504  10.029  10.463   3.813 -0.1104 -0.5606  0.3002
  197MOL0     C26505  10.063  10.798   4.707 -0.2915  0.0956  0.3695
  197MOL0     C26506   9.996  10.755   4.821  0.1781  0.2180 -0.4108
  197MOL0     O26507   9.895  10.425   4.879  0.1512  0.3617 -0.5626
  197MOL0     C26508   9.683  10.359   5.052 -0.3668  0.4384 -0.1120
  197MOL0     C26509   9.581  10.329   5.146 -0.3224  0.3465  0.6640
  197MOL0     N26510   9.246  10.074   5.793 -0.0132 -0.0480 -0.2126
  197MOL0     N26511   9.259   9.968   5.860 -0.2154  0.7723 -0.5775
  197MOL0     C26512   8.182   9.706   6.269 -0.2665 -0.3359 -0.1637
  197MOL0     C26513   8.051   9.664   6.242  0.7631  0.2062  0.2604
  197MOL0     C26514   7.668   9.558   6.075 -0.0134  0.1214 -0.0547
  197MOL0     C26515   7.684   9.420   6.039 -0.7205  0.2544  0.1266
  197MOL0     C26516   7.576   9.330   6.030 -0.6812 -0.2726  0.3357
  197MOL0     C26517   7.448   9.378   6.045 -0.2585  0.3137 -0.0654
  197MOL0     O26518   7.348   9.289   6.027  0.3216 -0.1666 -0.7959
  197MOL0     C26519   7.216   9.316   6.084 -0.2617  0.0260 -0.1478
  197MOL0     C26520   7.218   9.313   6.242 -0.2238 -0.5568  0.5285
  197MOL0     C26521   7.077   9.291   6.304 -0.2504 -0.0215  0.1389
  197MOL0     C26522   7.093   9.254   6.453 -0.3526 -0.0014  0.0882
  197MOL0     C26523   6.955   9.215   6.487 -0.2510  0.8010 -0.0386
  197MOL0     C26524   6.848   9.191   6.527  0.1020  0.2195 -0.5248
  197MOL0     C26525   7.427   9.515   6.072  0.2942  0.2354 -0.1646
  197MOL0     C26526   7.530   9.606   6.087 -0.3759 -0.2606 -0.0700
  197MOL0     C26527   7.487   9.746   6.143 -0.1012 -0.5261  0.1633
  197MOL0     H26528   8.109   9.492   5.957 -0.9590  1.7636 -1.0573
  197MOL0     H26529   8.330   9.523   6.022 -0.6545 -2.6728 -0.4179
  197MOL0     H26530   8.398   9.853   6.321 -1.9474 -2.3140  1.5726
  197MOL0     H26531   8.452   9.703   6.392 -1.0220  1.1101  0.6300
  197MOL0     H26532   8.660   9.812   6.400  0.2607 -0.0179 -0.7440
  197MOL0     H26533   8.637   9.895   6.234 -0.7069  0.5892 -0.0519
  197MOL0     H26534   8.657   9.695   6.123  0.9253 -0.9899  0.5594
  197MOL0     H26535   8.678   9.606   6.273  3.8158 -0.3919  4.0030
  197MOL0     H26536   8.854   9.848   6.219 -0.0165  0.2032  0.2677
  197MOL0     H26537   8.888   9.712   6.314 -0.6476 -2.9088 -0.5050
  197MOL0     H26538   8.923   9.565   6.155 -5.1588 -0.4327  1.5380
  197MOL0     H26539   8.848   9.665   6.023 -0.4346  0.0299  0.8070
  197MOL0     H26540   9.032   9.840   6.031  2.3965  1.5124  1.3381
  197MOL0     H26541   9.116   9.735   6.138  2.5710 -0.0903 -1.7745
  197MOL0     H26542   9.018   9.630   5.862 -0.0759 -1.5029  0.3427
  197MOL0     H26543   9.135   9.562   5.963  1.1241 -0.5012 -1.6766
  197MOL0     H26544   9.295   9.719   5.945 -1.1304  1.3547  0.7865
  197MOL0     H26545   9.260   9.655   5.787 -2.7152 -0.9235 -0.6246
  197MOL0     H26546   9.074   9.840   5.634 -1.5242  2.6258 -0.8984
  197MOL0     H26547   9.013  10.076   5.558  0.6076 -0.5700 -3.5734
  197MOL0     H26548   9.103  10.213   5.628  0.6736 -0.9831  0.5753
  197MOL0     H26549   9.252  10.019   5.461 -0.9680 -0.0701 -0.4861
  197MOL0     H26550   9.159  10.141   5.371  0.0186 -2.5114 -0.8459
  197MOL0     H26551   9.397  10.188   5.561  1.8333  2.2527 -0.2877
  197MOL0     H26552   9.290  10.316   5.531  0.3055  0.2987  1.0670
  197MOL0     H26553   9.336  10.290   5.270  1.9617  1.1063 -0.1620
  197MOL0     H26554   9.443  10.149   5.316  0.0821 -1.1133  0.0538
  197MOL0     H26555   9.674  10.518   5.403 -2.5863 -3.4524  0.9791
  197MOL0     H26556   9.861  10.585   5.221  1.2711 -1.0452 -2.4993
  197MOL0     H26557  10.181  10.496   4.933 -2.8555 -0.6812 -0.0551
  197MOL0     H26558  10.307  10.552   4.733 -1.0242 -0.1002  1.0705
  197MOL0     H26559  10.428  10.770   4.575 -2.0935  2.1076  1.2398
  197MOL0     H26560  10.373  10.607   4.520 -0.0488 -0.6071 -0.4349
  197MOL0     H26561  10.399  10.881   4.383 -0.9642  0.4567 -1.2924
  197MOL0     H26562  10.466  10.731   4.331  0.1626 -1.5532  2.0813
  197MOL0     H26563  10.174  10.844   4.324  1.3899 -1.3429  3.4732
  197MOL0     H26564  10.279  10.815   4.187  1.4883  0.4074  0.8351
  197MOL0     H26565  10.137  10.596   4.354  1.3896  0.9575  0.8042
  197MOL0     H26566  10.264  10.564   4.234  1.4664 -1.0474  2.2119
  197MOL0     H26567  10.121  10.690   4.058 -2.5310  0.3615 -0.8937
  197MOL0     H26568  10.016  10.735   4.175 -0.7849  0.7599 -0.4108
  197MOL0     H26569   9.953  10.490   4.223 -0.0214 -0.2999  0.9628
  197MOL0     H26570   9.917  10.535   4.047  1.1886 -0.8198 -0.5965
  197MOL0     H26571  10.012  10.320   4.070  0.4547  0.2887 -1.0324
  197MOL0     H26572  10.148  10.385   4.155 -0.0965  0.9425  0.4027
  197MOL0     H26573  10.207  10.541   3.953 -2.3135  0.4750  2.4117
  197MOL0     H26574  10.205  10.361   3.915  0.6461 -0.0910 -1.2090
  197MOL0     H26575  10.014  10.877   4.650 -2.2652 -1.4921 -0.2709
  197MOL0     H26576   9.910  10.809   4.860  0.4475  0.6372 -0.3953
  197MOL0     H26577   9.680  10.320   4.951  2.1256 -0.5357  0.1178
  197MOL0     H26578   9.510  10.252   5.119  2.4073 -1.9153 -0.7275
  197MOL0     H26579   8.200   9.762   6.360 -3.6746 -1.1436  1.1912
  197MOL0     H26580   7.969   9.703   6.302 -0.0833 -0.9481 -0.0942
  197MOL0     H26581   7.783   9.375   6.040  0.4212  2.5765 -1.2427
  197MOL0     H26582   7.580   9.223   6.012 -1.0972  0.0572 -1.9363
  197MOL0     H26583   7.152   9.242   6.035  0.6176  0.6226 -2.3191
  197MOL0     H26584   7.176   9.413   6.052 -0.5699  0.3990  1.3286
  197MOL0     H26585   7.260   9.403   6.289 -0.0072 -1.3778  1.9578
  197MOL0     H26586   7.301   9.250   6.276  1.8115  2.5887  1.8560
  197MOL0     H26587   7.020   9.216   6.249  0.1155  0.2062 -0.5615
  197MOL0     H26588   7.036   9.391   6.290 -1.7019 -0.6941 -0.5873
  197MOL0     H26589   7.162   9.169   6.458 -2.4440 -2.0708 -2.9542
  197MOL0     H26590   7.131   9.337   6.513 -1.3703  1.3123 -1.0335
  197MOL0     H26591   6.752   9.158   6.562  0.1121  0.1465 -0.5664
  197MOL0     H26592   7.325   9.550   6.085 -0.5534 -1.9623 -0.3580
  197MOL0     H26593   7.544   9.824   6.092 -1.0187 -0.5715 -0.9604
  197MOL0     H26594   7.385   9.786   6.135  0.6396  1.2766 -1.1180
  197MOL0     H26595   7.521   9.750   6.247  0.6254  0.1899 -0.0877
  198MOL0     O26596   3.433   2.994   6.392  0.2731  0.7120 -0.0187
  198MOL0     C26597   3.342   2.966   6.475 -0.6733 -0.1806 -0.6432
  198MOL0     O26598   3.364   2.925   6.604 -0.5234 -0.0718 -0.0491
  198MOL0     C26599   3.495   2.897   6.638 -1.2295  0.3158 -0.8141
  198MOL0     C26600   3.561   2.973   6.737 -0.9427  1.3982 -0.3351
  198MOL0     C26601   3.683   2.930   6.786 -0.0190 -0.1832  0.3928
  198MOL0     C26602   3.750   2.810   6.751 -0.3614 -0.6835 -0.6144
  198MOL0     O26603   3.881   2.789   6.804  0.4377 -0.3154 -0.4418
  198MOL0     C26604   3.896   2.679   6.897  0.3629  0.6832  0.8750
  198MOL0     C26605   4.026   2.677   6.969 -0.2652 -0.4400 -0.2141
  198MOL0     C26606   4.141   2.661   6.878 -0.1186  0.5004  0.2762
  198MOL0     C26607   4.246   2.580   6.950 -0.0778  0.0912  0.5166
  198MOL0     C26608   4.381   2.562   6.875  0.0913 -0.4713 -0.7366
  198MOL0     C26609   4.479   2.460   6.934  0.2040  0.0424 -0.5248
  198MOL0     C26610   4.623   2.456   6.890  1.0446  0.8016 -0.2328
  198MOL0     C26611   4.691   2.575   6.961 -0.3969  0.0820 -0.3672
  198MOL0     N26612   4.827   2.581   6.927 -0.0745 -0.1072  0.0397
  198MOL0     C26613   4.919   2.678   6.956  0.2888 -0.3035  0.5949
  198MOL0     C26614   5.049   2.622   6.949  0.4558 -0.6740  0.4450
  198MOL0     C26615   5.180   2.700   6.963  0.1458 -0.8237 -0.1951
  198MOL0     C26616   5.301   2.616   6.992 -0.5527 -0.6557 -0.3364
  198MOL0     C26617   5.345   2.638   7.137  0.4141  0.0231 -0.4227
  198MOL0     C26618   5.372   2.518   7.228 -0.0766 -0.0749 -0.8086
  198MOL0     O26619   5.303   2.528   7.357 -0.8128  0.3269  0.2179
  198MOL0     C26620   5.173   2.489   7.359 -0.0478  0.0183  0.4237
  198MOL0     C26621   5.091   2.456   7.252  0.4329 -0.6325  0.5203
  198MOL0     C26622   4.957   2.440   7.274  0.9904  0.3296 -0.1012
  198MOL0     C26623   4.903   2.436   7.402  0.6767  0.5075 -0.6274
  198MOL0     C26624   4.763   2.398   7.431  0.1101 -0.4238 -0.1119
  198MOL0     O26625   4.718   2.397   7.560 -0.1784 -0.1833 -0.6541
  198MOL0     C26626   4.584   2.361   7.592 -0.0719 -0.0108  0.1006
  198MOL0     C26627   4.522   2.435   7.695  0.2747 -0.0730 -0.2052
  198MOL0     C26628   4.396   2.406   7.745 -0.5892 -0.2810 -0.3458
  198MOL0     C26629   4.331   2.289   7.695  0.2492 -0.1046 -0.3294
  198MOL0     O26630   4.223   2.231   7.759 -0.2721 -0.0893  0.2663
  198MOL0     C26631   4.155   2.294   7.872 -0.7056 -0.0481  0.2071
  198MOL0     C26632   4.062   2.401   7.821  0.0368  0.3513 -0.1743
  198MOL0     C26633   3.927   2.395   7.888 -0.2640 -0.1478 -0.6021
  198MOL0     C26634   3.938   2.489   8.015  1.1141  0.2787 -0.2769
  198MOL0     C26635   3.838   2.460   8.120  0.2722 -0.3410  0.6463
  198MOL0     C26636   3.813   2.565   8.229  0.1427 -0.7734  0.2472
  198MOL0     C26637   3.692   2.530   8.314 -0.2866  0.3373 -0.8100
  198MOL0     C26638   3.623   2.664   8.341  0.3947 -0.1288  0.1446
  198MOL0    Cl26639   3.718   2.759   8.456  0.1823 -0.3172  0.2578
  198MOL0     C26640   4.385   2.218   7.590  0.2019 -0.3386 -0.1837
  198MOL0     C26641   4.511   2.249   7.538 -0.4170  0.4741 -0.3605
  198MOL0     O26642   4.692   2.389   7.330  0.2192  0.0234  0.4852
  198MOL0     C26643   4.992   2.441   7.509  1.5522 -0.0276  0.3698
  198MOL0     C26644   5.125   2.476   7.486 -0.0126 -0.2704 -0.4368
  198MOL0     N26645   5.028   2.497   6.900  0.6660  0.5069  0.0472
  198MOL0     N26646   4.900   2.475   6.885  1.1003 -0.2712 -0.4725
  198MOL0     C26647   3.687   2.733   6.657  0.4519 -0.7343  0.5821
  198MOL0     C26648   3.561   2.777   6.600 -0.2314  0.5369 -0.2397
  198MOL0     C26649   3.198   2.955   6.435 -0.5312  0.4977  0.6654
  198MOL0     C26650   3.097   2.909   6.519 -0.4834  0.7170  0.3436
  198MOL0     C26651   2.969   2.885   6.481  0.0584 -0.3580  0.4008
  198MOL0     C26652   2.932   2.901   6.350 -0.7037 -0.5499  0.7453
  198MOL0     O26653   2.808   2.885   6.300 -0.2806  0.1796  0.1336
  198MOL0     C26654   2.704   2.808   6.359 -0.3451  0.6555  1.3422
  198MOL0     C26655   2.619   2.915   6.428  0.1620  0.2816 -0.6345
  198MOL0     C26656   2.506   2.849   6.514  0.8441  0.7547 -0.1993
  198MOL0     C26657   2.415   2.949   6.590  0.1887  0.0441 -0.0284
  198MOL0     C26658   2.491   3.027   6.696 -0.1527 -0.3025 -0.0164
  198MOL0     C26659   2.559   3.064   6.794  0.3460 -1.0598  0.5955
  198MOL0     C26660   3.025   2.960   6.265  0.8158 -0.1459  1.0011
  198MOL0     C26661   3.153   2.986   6.303  0.9535 -0.3494  0.0655
  198MOL0     C26662   3.235   3.064   6.198  0.0447 -0.0441  0.6031
  198MOL0     H26663   3.511   3.054   6.790  0.3965  0.4406  2.6532
  198MOL0     H26664   3.716   3.005   6.857 -3.9977  0.5804  1.6883
  198MOL0     H26665   3.810   2.680   6.965 -1.4335  1.9647 -1.2729
  198MOL0     H26666   3.897   2.597   6.825 -1.7798  1.0416  0.3489
  198MOL0     H26667   4.032   2.600   7.046  1.4541  1.6917  1.9433
  198MOL0     H26668   4.033   2.770   7.026 -2.5577  0.0974 -0.6945
  198MOL0     H26669   4.184   2.756   6.846 -0.3443 -0.0095 -1.6420
  198MOL0     H26670   4.111   2.610   6.786  1.7778  2.0541 -1.3064
  198MOL0     H26671   4.273   2.645   7.034 -0.7215  2.5649 -1.0711
  198MOL0     H26672   4.207   2.482   6.980  1.2938 -0.7173 -0.2667
  198MOL0     H26673   4.359   2.532   6.772 -0.3549  0.3593 -0.8997
  198MOL0     H26674   4.430   2.660   6.871  0.2201 -0.5585 -1.6305
  198MOL0     H26675   4.489   2.466   7.043  4.1131  3.7143 -0.8271
  198MOL0     H26676   4.441   2.359   6.914 -0.7376  0.0711  0.9521
  198MOL0     H26677   4.638   2.463   6.782 -0.8760 -3.2092 -0.9522
  198MOL0     H26678   4.665   2.357   6.911  0.6271  0.8148  0.6869
  198MOL0     H26679   4.654   2.674   6.933 -1.1045 -0.5069 -1.6168
  198MOL0     H26680   4.687   2.564   7.069 -0.3720 -0.5258 -0.4277
  198MOL0     H26681   4.904   2.785   6.969 -0.3117  0.1493 -2.7604
  198MOL0     H26682   5.202   2.750   6.868 -1.5103 -1.5977 -1.0268
  198MOL0     H26683   5.160   2.773   7.042 -2.9264 -0.2827 -1.3253
  198MOL0     H26684   5.288   2.508   6.982  1.5325 -1.0036  0.3109
  198MOL0     H26685   5.382   2.637   6.922  0.9859 -1.6588  1.0532
  198MOL0     H26686   5.282   2.703   7.198  1.0383 -1.2258  1.6428
  198MOL0     H26687   5.432   2.703   7.123 -0.9182  1.5505 -2.0181
  198MOL0     H26688   5.479   2.512   7.249 -0.1560 -0.7817 -0.5891
  198MOL0     H26689   5.343   2.420   7.189 -0.8555  0.0212 -0.4770
  198MOL0     H26690   5.118   2.436   7.149 -0.0791  0.2853  0.1950
  198MOL0     H26691   4.898   2.410   7.188  1.3513 -1.6708  0.3085
  198MOL0     H26692   4.579   2.518   7.735  0.7416 -0.8959  0.8882
  198MOL0     H26693   4.356   2.461   7.830 -0.3169 -1.5085  0.6028
  198MOL0     H26694   4.112   2.206   7.921 -0.5634 -1.1353 -1.5667
  198MOL0     H26695   4.220   2.344   7.945 -1.3642  0.0520  0.7308
  198MOL0     H26696   4.111   2.498   7.828  2.1131 -0.4304 -2.3924
  198MOL0     H26697   4.044   2.375   7.716 -0.9349  1.2018 -0.2309
  198MOL0     H26698   3.858   2.447   7.821  1.3753  1.5110 -1.0972
  198MOL0     H26699   3.891   2.295   7.911 -0.0543 -0.1798 -0.4046
  198MOL0     H26700   3.920   2.593   7.984  0.5506  0.0221 -0.8345
  198MOL0     H26701   4.037   2.482   8.062  1.6185  2.3895 -0.9348
  198MOL0     H26702   3.867   2.367   8.169 -4.1641 -3.0867 -1.3213
  198MOL0     H26703   3.746   2.448   8.062 -0.6500  1.0276  1.7491
  198MOL0     H26704   3.900   2.575   8.295 -1.1515  3.2233  1.6231
  198MOL0     H26705   3.802   2.659   8.174 -0.9304 -1.3714 -0.5913
  198MOL0     H26706   3.722   2.476   8.404 -3.5555  2.3903  1.7535
  198MOL0     H26707   3.622   2.468   8.256  0.7348 -0.0577 -1.6566
  198MOL0     H26708   3.597   2.717   8.249  0.9563  0.9062  0.5599
  198MOL0     H26709   3.524   2.645   8.384  0.2248 -0.1091 -0.2343
  198MOL0     H26710   4.314   2.148   7.546 -0.8198  1.2453 -1.1493
  198MOL0     H26711   4.542   2.188   7.453 -1.8315 -1.3396  0.3598
  198MOL0     H26712   4.965   2.443   7.615  2.2863 -1.8195  0.6201
  198MOL0     H26713   5.189   2.488   7.573 -1.1706 -0.8809  0.5227
  198MOL0     H26714   3.728   2.638   6.627 -3.0799 -1.5958 -2.1417
  198MOL0     H26715   3.520   2.718   6.518  2.3394 -4.0885  1.4475
  198MOL0     H26716   3.115   2.887   6.624  0.3611 -0.8415 -0.1017
  198MOL0     H26717   2.902   2.847   6.557  0.8410  1.6963  2.2320
  198MOL0     H26718   2.739   2.736   6.433  1.7404 -1.3821 -1.4254
  198MOL0     H26719   2.647   2.761   6.278  0.5503  3.4582 -1.1106
  198MOL0     H26720   2.573   2.990   6.363  0.3631  1.1114  0.1478
  198MOL0     H26721   2.677   2.982   6.492 -0.2465  0.5399 -0.5279
  198MOL0     H26722   2.556   2.778   6.581  0.2917 -1.4462 -1.9862
  198MOL0     H26723   2.445   2.790   6.445 -1.2695  1.0154  1.3389
  198MOL0     H26724   2.375   3.012   6.510  0.4673 -0.9058 -0.9429
  198MOL0     H26725   2.323   2.909   6.634 -0.1843  0.8657 -0.0436
  198MOL0     H26726   2.608   3.113   6.876 -1.5287 -0.0231  1.1721
  198MOL0     H26727   3.001   2.989   6.163  0.4709  0.7543  1.3234
  198MOL0     H26728   3.313   3.125   6.244  1.2130 -1.3623  0.4492
  198MOL0     H26729   3.281   2.981   6.144  4.3925  1.0024  2.2559
  198MOL0     H26730   3.173   3.125   6.132  2.5212 -0.7516 -2.6434
  199MOL0     O26731   9.559   9.743  11.211 -0.2125  0.6831 -0.0116
  199MOL0     C26732   9.573   9.863  11.195 -0.2471  0.4013 -0.5421
  199MOL0     O26733   9.667   9.934  11.256 -0.4113  0.0967  0.1790
  199MOL0     C26734   9.732   9.876  11.364  0.2895 -0.4560 -0.1271
  199MOL0     C26735   9.691   9.888  11.498  0.2296 -1.0376  0.3991
  199MOL0     C26736   9.743   9.824  11.606 -0.2461 -1.6311  0.1922
  199MOL0     C26737   9.853   9.746  11.582 -0.8652 -0.6963  1.0266
  199MOL0     O26738   9.908   9.678  11.681 -0.0590  0.4844 -0.0746
  199MOL0     C26739  10.054   9.678  11.700  1.0592  0.0462  0.6453
  199MOL0     C26740  10.103   9.570  11.798 -0.1874 -0.0408  0.1940
  199MOL0     C26741  10.244   9.621  11.847  0.5926  0.1542  0.7041
  199MOL0     C26742  10.332   9.507  11.915  0.1967  0.2240 -0.1137
  199MOL0     C26743  10.437   9.573  11.996 -0.3003 -0.3517  0.3604
  199MOL0     C26744  10.567   9.492  11.991  0.7225 -0.1912  0.7516
  199MOL0     C26745  10.675   9.555  12.078 -0.7225  0.3933 -0.8499
  199MOL0     C26746  10.765   9.431  12.095  0.4638  0.0973 -0.4675
  199MOL0     N26747  10.871   9.464  12.187  0.1867  0.0767  0.3603
  199MOL0     C26748  11.000   9.470  12.146 -0.7025  0.2127  0.4097
  199MOL0     C26749  11.067   9.495  12.258  1.1219  0.2304  0.5274
  199MOL0     C26750  11.207   9.535  12.268  0.0462  0.2570 -0.1143
  199MOL0     C26751  11.309   9.432  12.271 -0.0784  0.2830  0.4483
  199MOL0     C26752  11.454   9.471  12.285  0.9123 -1.2478  1.0674
  199MOL0     C26753  11.480   9.602  12.357  0.4035 -0.1888  0.6199
  199MOL0     O26754  11.617   9.625  12.348 -0.0897 -0.4382  0.1410
  199MOL0     C26755  11.716   9.542  12.399 -0.4999 -0.4040 -0.8435
  199MOL0     C26756  11.688   9.451  12.493  0.7923  0.3969  0.9055
  199MOL0     C26757  11.790   9.374  12.539 -0.3908  0.5262  0.3411
  199MOL0     C26758  11.929   9.400  12.509 -0.3176 -0.1625 -0.3853
  199MOL0     C26759  12.040   9.317  12.555 -0.2475 -0.5291  0.0490
  199MOL0     O26760  12.160   9.373  12.550  0.3638  0.5691 -0.5482
  199MOL0     C26761  12.273   9.291  12.557 -0.2581 -0.2893  0.2667
  199MOL0     C26762  12.300   9.218  12.673  0.9076 -0.1332  0.1970
  199MOL0     C26763  12.409   9.132  12.670 -0.9705  0.7792 -0.1423
  199MOL0     C26764  12.498   9.126  12.565  0.5542  0.6926  0.4634
  199MOL0     O26765  12.607   9.037  12.568  0.3247  0.1148  0.3196
  199MOL0     C26766  12.709   9.054  12.472  0.0948 -0.4372 -0.4882
  199MOL0     C26767  12.823   8.963  12.518  0.1487  0.2443 -0.4945
  199MOL0     C26768  12.945   8.960  12.425 -0.3029  0.1064  0.0616
  199MOL0     C26769  13.054   8.882  12.499  0.2114  0.9122  0.0739
  199MOL0     C26770  13.189   8.879  12.419 -0.0770  0.0880 -0.5369
  199MOL0     C26771  13.285   8.783  12.492  0.1612 -0.5521  0.8766
  199MOL0     C26772  13.426   8.811  12.445 -1.0134 -0.6019  0.1351
  199MOL0     C26773  13.532   8.706  12.493 -0.1405  0.2133  0.3834
  199MOL0    Cl26774  13.703   8.717  12.430  0.3355 -0.1651  0.2354
  199MOL0     C26775  12.471   9.201  12.454 -0.4096 -0.1024 -0.4269
  199MOL0     C26776  12.356   9.290  12.453  0.0820  0.2455  0.6632
  199MOL0     O26777  12.023   9.200  12.582 -0.1697  0.4235 -0.1571
  199MOL0     C26778  11.959   9.505  12.420 -0.3269 -0.7105  0.0384
  199MOL0     C26779  11.851   9.571  12.358 -0.3611 -0.1657 -0.4298
  199MOL0     N26780  10.981   9.514  12.360  0.3265 -0.4618 -0.1124
  199MOL0     N26781  10.857   9.483  12.321 -0.0790 -0.3084  0.0440
  199MOL0     C26782   9.909   9.734  11.456  0.0682  0.0676  0.4082
  199MOL0     C26783   9.849   9.801  11.348 -0.1244 -0.3160  0.4605
  199MOL0     C26784   9.476   9.938  11.125  0.3570 -0.7886  0.3189
  199MOL0     C26785   9.531  10.050  11.056  0.4300  0.1253 -0.3841
  199MOL0     C26786   9.448  10.134  10.984 -0.1663 -0.5151 -0.0657
  199MOL0     C26787   9.308  10.117  10.980  0.1293  0.2569 -0.1837
  199MOL0     O26788   9.238  10.224  10.936  0.0372  0.0504  0.0732
  199MOL0     C26789   9.095  10.223  10.964 -0.4779 -0.2252 -0.4472
  199MOL0     C26790   9.044  10.360  10.927 -0.0369  0.1014 -0.0924
  199MOL0     C26791   8.923  10.409  10.993  0.6894  0.5497  0.3943
  199MOL0     C26792   8.964  10.478  11.125  0.5419  0.2074 -0.4609
  199MOL0     C26793   8.850  10.528  11.208 -1.0671  1.0213 -0.3547
  199MOL0     C26794   8.762  10.578  11.270 -0.2492 -0.5676 -0.0299
  199MOL0     C26795   9.254   9.997  11.044  0.1095 -0.2141 -0.2748
  199MOL0     C26796   9.338   9.906  11.110  0.1394 -0.3441 -0.1793
  199MOL0     C26797   9.282   9.786  11.180  0.0706 -0.0472  0.2775
  199MOL0     H26798   9.593   9.933  11.515 -1.3020 -3.2597 -1.7707
  199MOL0     H26799   9.705   9.845  11.705 -2.2632  1.7096 -1.1274
  199MOL0     H26800  10.105   9.662  11.604  0.9470 -1.4564  0.8223
  199MOL0     H26801  10.075   9.784  11.715 -1.4748  0.8147 -0.7205
  199MOL0     H26802  10.095   9.468  11.759 -2.7197 -0.8063  2.4321
  199MOL0     H26803  10.032   9.572  11.882  0.6721  0.2020  0.9285
  199MOL0     H26804  10.220   9.703  11.915 -3.2966  0.4353 -0.7861
  199MOL0     H26805  10.300   9.667  11.765 -0.1795 -4.1694 -2.6111
  199MOL0     H26806  10.262   9.446  11.973  1.2765  1.3284  2.5107
  199MOL0     H26807  10.379   9.448  11.836 -1.4342 -1.1450 -0.1328
  199MOL0     H26808  10.459   9.673  11.960 -1.7324 -0.1833 -0.0905
  199MOL0     H26809  10.414   9.582  12.103  1.3297 -3.9715  1.1810
  199MOL0     H26810  10.535   9.393  12.023  1.3283 -0.9747 -0.9210
  199MOL0     H26811  10.595   9.484  11.885 -0.6078 -1.1647  0.4566
  199MOL0     H26812  10.642   9.574  12.181  1.1591 -3.4658  0.6582
  199MOL0     H26813  10.725   9.641  12.032 -0.2423  0.9784  0.7018
  199MOL0     H26814  10.703   9.353  12.141  0.6432 -0.4982 -1.2116
  199MOL0     H26815  10.811   9.396  12.002  0.4207 -1.9375  0.2353
  199MOL0     H26816  11.027   9.466  12.041 -0.1121 -0.7253  0.5898
  199MOL0     H26817  11.229   9.593  12.178 -0.2104 -1.0692 -1.0663
  199MOL0     H26818  11.218   9.605  12.351  1.7286 -0.9646  0.7646
  199MOL0     H26819  11.281   9.367  12.354 -0.1123 -1.7361 -1.0733
  199MOL0     H26820  11.312   9.367  12.183  1.9292  1.5814 -0.5098
  199MOL0     H26821  11.498   9.470  12.185 -1.7820  0.2147 -0.2486
  199MOL0     H26822  11.512   9.391  12.332  3.1005  0.7626  2.0476
  199MOL0     H26823  11.448   9.589  12.461  0.2425 -0.6388  0.5186
  199MOL0     H26824  11.427   9.686  12.312 -2.0272 -2.8708 -1.9474
  199MOL0     H26825  11.585   9.442  12.524  0.6157  0.9258  0.4970
  199MOL0     H26826  11.766   9.291  12.605  2.6707 -0.9406 -0.2117
  199MOL0     H26827  12.239   9.218  12.763 -1.2171  0.0815 -1.1755
  199MOL0     H26828  12.427   9.070  12.757 -0.8186  2.0685  0.7826
  199MOL0     H26829  12.672   9.020  12.375  2.0843 -1.9438 -0.7994
  199MOL0     H26830  12.741   9.158  12.468 -0.5430 -0.1585  1.2016
  199MOL0     H26831  12.860   8.994  12.616 -1.0758  0.8015 -0.1928
  199MOL0     H26832  12.784   8.861  12.519  1.8803 -0.4681 -1.1061
  199MOL0     H26833  12.918   8.903  12.336  1.9909  0.3888 -0.8983
  199MOL0     H26834  12.973   9.063  12.399  2.3682 -0.8626 -1.3614
  199MOL0     H26835  13.011   8.786  12.530 -0.5352  0.8783 -1.0192
  199MOL0     H26836  13.079   8.935  12.592  1.2912  0.8740 -0.1882
  199MOL0     H26837  13.222   8.983  12.425  1.3660 -0.3607 -0.2953
  199MOL0     H26838  13.183   8.837  12.318  2.7215 -2.5567  0.2571
  199MOL0     H26839  13.290   8.801  12.599  2.2622 -0.2090  0.7685
  199MOL0     H26840  13.262   8.678  12.474 -1.1143 -0.0001 -1.0945
  199MOL0     H26841  13.463   8.909  12.477 -2.1057 -0.5677  1.3482
  199MOL0     H26842  13.437   8.820  12.336  0.0115  1.5482  0.3574
  199MOL0     H26843  13.534   8.709  12.602  0.1572  0.2043  0.3790
  199MOL0     H26844  13.511   8.604  12.462  1.9171 -0.0856 -0.1751
  199MOL0     H26845  12.536   9.212  12.368 -1.9866  1.1896 -1.5117
  199MOL0     H26846  12.333   9.348  12.365  2.4936  0.4819  0.0998
  199MOL0     H26847  12.061   9.529  12.390 -2.0647  1.9213 -5.0241
  199MOL0     H26848  11.874   9.647  12.284  2.0484  0.5670  0.9627
  199MOL0     H26849   9.991   9.667  11.430 -0.5244 -0.0785 -1.2398
  199MOL0     H26850   9.889   9.788  11.249  0.4728  0.1903  0.6266
  199MOL0     H26851   9.639  10.063  11.048  0.7649 -1.7159  0.5276
  199MOL0     H26852   9.492  10.225  10.944 -0.1288  1.7728  4.4980
  199MOL0     H26853   9.060  10.202  11.066 -3.1103 -0.7018 -1.3744
  199MOL0     H26854   9.049  10.153  10.894  0.1793  0.2553 -1.3828
  199MOL0     H26855   9.041  10.373  10.818  1.6664  1.6223 -0.0238
  199MOL0     H26856   9.120  10.435  10.953  0.2452 -0.5278  0.9764
  199MOL0     H26857   8.850  10.331  11.016  0.7200 -0.4119 -2.4007
  199MOL0     H26858   8.879  10.474  10.917 -1.0435 -1.0020 -0.0003
  199MOL0     H26859   9.012  10.400  11.185 -0.2437 -1.3901 -1.8181
  199MOL0     H26860   9.039  10.556  11.108 -0.8469  1.5536 -0.6378
  199MOL0     H26861   8.672  10.621  11.309  0.3281  0.1243  0.5525
  199MOL0     H26862   9.148   9.980  11.036 -0.2038 -0.5685  3.1851
  199MOL0     H26863   9.306   9.691  11.131 -0.4395  1.0567 -2.2650
  199MOL0     H26864   9.305   9.789  11.287  2.7794  0.9068 -0.2349
  199MOL0     H26865   9.175   9.804  11.173  0.2860  0.6958 -5.0585
  200MOL0     O26866   6.503   0.691  11.268 -0.1181  0.1306  0.2376
  200MOL0     C26867   6.426   0.676  11.174 -0.2608  0.6710 -0.3839
  200MOL0     O26868   6.472   0.693  11.042 -0.2772 -0.2396  0.4405
  200MOL0     C26869   6.603   0.717  11.026 -0.0326 -0.2462 -1.0487
  200MOL0     C26870   6.691   0.618  11.053 -0.2810 -0.0339  0.4200
  200MOL0     C26871   6.834   0.643  11.050  0.2814  0.1331 -0.5073
  200MOL0     C26872   6.882   0.773  11.029 -0.1130 -0.2874  0.5283
  200MOL0     O26873   7.019   0.792  11.025 -0.8888 -0.2568 -0.5665
  200MOL0     C26874   7.061   0.917  11.062 -0.8421 -0.3676  0.6732
  200MOL0     C26875   7.208   0.910  11.095 -0.5438 -1.2286 -0.2763
  200MOL0     C26876   7.241   0.822  11.218  0.0887 -0.2963 -0.8783
  200MOL0     C26877   7.377   0.748  11.203  1.0081 -0.7382  0.2450
  200MOL0     C26878   7.420   0.674  11.328 -0.0231  0.2575  0.2530
  200MOL0     C26879   7.544   0.587  11.302  0.4469  0.4978 -0.3742
  200MOL0     C26880   7.582   0.526  11.430  0.0481 -0.1998 -0.5428
  200MOL0     C26881   7.673   0.409  11.398  0.0240 -0.3236 -0.2348
  200MOL0     N26882   7.813   0.446  11.388 -0.4109 -0.2135  0.0797
  200MOL0     C26883   7.907   0.431  11.488  0.6310 -0.0566 -0.6155
  200MOL0     C26884   8.022   0.440  11.425  0.0584 -0.4254 -0.5217
  200MOL0     C26885   8.158   0.408  11.488  0.1530  0.3739 -0.1665
  200MOL0     C26886   8.281   0.465  11.425 -0.1278  0.0724 -0.6268
  200MOL0     C26887   8.289   0.619  11.445  0.7125 -0.4078 -0.8699
  200MOL0     C26888   8.412   0.682  11.381  0.2887 -0.0948  0.0814
  200MOL0     O26889   8.536   0.620  11.411 -0.0440  0.4407  0.2090
  200MOL0     C26890   8.657   0.673  11.379 -0.8543  0.7197  0.3937
  200MOL0     C26891   8.770   0.603  11.436  0.0503  0.5619  0.6988
  200MOL0     C26892   8.898   0.654  11.420 -0.1660  0.3098  0.5939
  200MOL0     C26893   8.917   0.770  11.340 -0.5513  0.0867  1.3975
  200MOL0     C26894   9.051   0.826  11.308  0.4267  1.2377 -0.0461
  200MOL0     O26895   9.147   0.733  11.343 -0.1865 -0.8766 -0.0310
  200MOL0     C26896   9.275   0.737  11.311  0.3688 -0.8078 -0.1621
  200MOL0     C26897   9.341   0.837  11.229 -0.4969  0.0495  0.7811
  200MOL0     C26898   9.478   0.818  11.201 -0.1721  0.3709  0.0231
  200MOL0     C26899   9.546   0.714  11.257  0.2047  0.2041 -0.1282
  200MOL0     O26900   9.676   0.691  11.216  0.0600 -0.0422  0.1067
  200MOL0     C26901   9.687   0.632  11.089 -0.3122 -0.0876  0.5930
  200MOL0     C26902   9.813   0.543  11.081 -0.6083  0.0595  0.4657
  200MOL0     C26903   9.807   0.407  11.147  0.1628  0.1010 -0.6977
  200MOL0     C26904   9.923   0.325  11.122  0.8406 -0.3823 -0.7932
  200MOL0     C26905   9.922   0.207  11.225  0.1609 -0.0337 -0.0783
  200MOL0     C26906   9.794   0.121  11.238 -0.1661 -0.1650  0.2897
  200MOL0     C26907   9.812  -0.014  11.304  0.2072  0.4997  0.1958
  200MOL0     C26908   9.678  -0.077  11.334 -0.1794 -0.0237 -0.6646
  200MOL0    Cl26909   9.589   0.004  11.459  0.2064  0.2867  0.2924
  200MOL0     C26910   9.481   0.627  11.339 -0.0032  0.1755 -0.7393
  200MOL0     C26911   9.352   0.641  11.372  0.5220 -0.4308  0.3021
  200MOL0     O26912   9.068   0.934  11.259 -0.1993 -0.3793 -0.0573
  200MOL0     C26913   8.807   0.833  11.285  0.1634 -0.6498 -0.0346
  200MOL0     C26914   8.679   0.788  11.301 -0.1816  0.3453  0.6534
  200MOL0     N26915   8.007   0.478  11.293  0.6837  0.1508  0.1127
  200MOL0     N26916   7.882   0.474  11.270  0.4118  0.3530 -0.1891
  200MOL0     C26917   6.787   0.878  11.008 -0.7303 -0.1623  1.1486
  200MOL0     C26918   6.651   0.844  11.004 -1.3876 -0.4045  0.4571
  200MOL0     C26919   6.279   0.647  11.210 -1.0543  0.0014 -0.0172
  200MOL0     C26920   6.250   0.592  11.341  0.0315 -0.0742  0.4407
  200MOL0     C26921   6.118   0.560  11.376  0.0213  0.1694  0.3666
  200MOL0     C26922   6.016   0.580  11.285 -0.2031  0.1488  0.0530
  200MOL0     O26923   5.889   0.556  11.335  0.0331 -0.1336 -0.0394
  200MOL0     C26924   5.776   0.598  11.259 -0.1726 -0.3773 -0.1989
  200MOL0     C26925   5.714   0.488  11.172 -0.4419 -0.0703 -0.3737
  200MOL0     C26926   5.663   0.365  11.260 -0.5675 -0.7652  1.1956
  200MOL0     C26927   5.595   0.255  11.187  0.2265  0.4169  0.4841
  200MOL0     C26928   5.467   0.304  11.138  0.1673  0.2592 -0.3058
  200MOL0     C26929   5.369   0.362  11.101  0.0364  0.8694  0.1489
  200MOL0     C26930   6.046   0.633  11.156 -0.5464 -1.4977 -0.5302
  200MOL0     C26931   6.178   0.666  11.120  0.7877 -0.4546  0.1360
  200MOL0     C26932   6.202   0.738  10.987  1.0926 -0.3485 -0.3169
  200MOL0     H26933   6.656   0.519  11.082 -0.3649  0.1432  0.9238
  200MOL0     H26934   6.902   0.565  11.084  0.2956  1.1362  1.9793
  200MOL0     H26935   7.031   0.978  10.976  1.0635 -2.1579 -1.4040
  200MOL0     H26936   7.011   0.952  11.153 -2.8060 -1.1649 -0.0437
  200MOL0     H26937   7.258   1.007  11.101  1.1050 -1.9110 -2.0699
  200MOL0     H26938   7.251   0.867  11.004  1.1690  0.8855 -0.5373
  200MOL0     H26939   7.167   0.744  11.234  0.8066 -1.7763 -4.0156
  200MOL0     H26940   7.236   0.882  11.310  0.9754 -0.8772 -0.4399
  200MOL0     H26941   7.372   0.669  11.128  0.3329 -3.2827  2.7855
  200MOL0     H26942   7.455   0.817  11.168  1.4910 -0.8177  1.1213
  200MOL0     H26943   7.440   0.758  11.396  2.3547  1.2371 -1.5073
  200MOL0     H26944   7.333   0.610  11.344  1.4845 -1.8009  0.6296
  200MOL0     H26945   7.514   0.513  11.227 -2.1945  1.7365 -0.6756
  200MOL0     H26946   7.630   0.645  11.269  0.7495 -0.8539 -2.0960
  200MOL0     H26947   7.485   0.492  11.467  0.0414  0.4323  0.0337
  200MOL0     H26948   7.637   0.596  11.493  1.3417  0.1123 -1.9547
  200MOL0     H26949   7.657   0.341  11.481  0.0014  0.2643  0.2472
  200MOL0     H26950   7.652   0.351  11.307  2.1513 -0.4512 -0.7101
  200MOL0     H26951   7.877   0.411  11.591 -0.5159  0.4553 -0.8360
  200MOL0     H26952   8.156   0.431  11.595  0.6118  1.4349 -0.3750
  200MOL0     H26953   8.167   0.299  11.487  1.2709  0.4355 -2.2349
  200MOL0     H26954   8.364   0.406  11.466 -2.6285 -3.1357  0.2425
  200MOL0     H26955   8.284   0.459  11.316 -2.2819 -0.2078 -0.7170
  200MOL0     H26956   8.283   0.636  11.553 -1.5275  0.1032 -1.0220
  200MOL0     H26957   8.197   0.665  11.408  1.6759  3.1501  0.7704
  200MOL0     H26958   8.412   0.790  11.398  1.1350  0.1589 -1.3474
  200MOL0     H26959   8.408   0.666  11.272  2.1849 -1.4288  0.1640
  200MOL0     H26960   8.760   0.504  11.480  3.1917  1.0010  2.7944
  200MOL0     H26961   8.984   0.608  11.468  1.5599  1.0443 -1.6051
  200MOL0     H26962   9.293   0.922  11.183  1.0142  1.3005  1.4180
  200MOL0     H26963   9.522   0.883  11.126 -4.4580  1.8095 -1.5921
  200MOL0     H26964   9.601   0.570  11.061 -0.3961  0.5635 -0.6599
  200MOL0     H26965   9.693   0.702  11.006  2.6731 -0.2915  0.5289
  200MOL0     H26966   9.837   0.526  10.976  3.9691  0.5207  1.2059
  200MOL0     H26967   9.898   0.600  11.120  0.0419  0.1142 -0.9778
  200MOL0     H26968   9.801   0.411  11.257 -3.2150 -4.3956 -0.4097
  200MOL0     H26969   9.717   0.358  11.109 -0.5131  1.1210 -0.4542
  200MOL0     H26970  10.013   0.386  11.131 -1.1271  2.5646  0.5244
  200MOL0     H26971   9.918   0.275  11.024  1.5136 -0.0149 -1.0218
  200MOL0     H26972   9.947   0.241  11.326 -1.6306  0.6212  0.1827
  200MOL0     H26973  10.007   0.143  11.201 -1.0503 -1.1550 -1.5438
  200MOL0     H26974   9.709   0.165  11.289 -0.2404  0.8188 -0.6513
  200MOL0     H26975   9.749   0.099  11.140 -1.8922  0.5339  0.8974
  200MOL0     H26976   9.873  -0.003  11.394  0.7579 -3.2446  0.4541
  200MOL0     H26977   9.855  -0.095  11.244 -1.2953 -0.2170  0.0314
  200MOL0     H26978   9.619  -0.075  11.242 -2.4754  2.0521  0.7141
  200MOL0     H26979   9.689  -0.178  11.374 -0.9188  0.0171 -0.3418
  200MOL0     H26980   9.531   0.536  11.372 -0.2870  0.5781  0.9208
  200MOL0     H26981   9.296   0.567  11.429  0.2954  1.3323  2.4759
  200MOL0     H26982   8.821   0.926  11.230 -2.8045 -0.1770 -0.1458
  200MOL0     H26983   8.584   0.834  11.275 -1.7636 -1.6435  2.5295
  200MOL0     H26984   6.813   0.980  10.982  1.4973 -0.3806  2.2252
  200MOL0     H26985   6.581   0.925  10.986  2.2097  2.5144 -2.1067
  200MOL0     H26986   6.325   0.578  11.418  3.2659  3.7366 -1.6541
  200MOL0     H26987   6.099   0.523  11.476  2.7552 -1.4842  0.3720
  200MOL0     H26988   5.792   0.689  11.200 -3.1111  0.5708  0.3391
  200MOL0     H26989   5.702   0.638  11.328  2.6570 -0.1083  2.9839
  200MOL0     H26990   5.793   0.451  11.106 -1.0219 -2.4134  0.1590
  200MOL0     H26991   5.634   0.532  11.112 -0.5396 -3.6998 -3.2473
  200MOL0     H26992   5.604   0.407  11.341  1.6822 -0.6683  2.8700
  200MOL0     H26993   5.753   0.325  11.308 -1.0602 -2.0034  1.1145
  200MOL0     H26994   5.652   0.220  11.100 -1.0112  1.5808 -0.8400
  200MOL0     H26995   5.574   0.180  11.264 -1.4096 -1.1532 -1.3988
  200MOL0     H26996   5.292   0.426  11.061  1.7784  3.1183  0.1668
  200MOL0     H26997   5.962   0.638  11.087 -0.3818  2.3258 -0.6898
  200MOL0     H26998   6.105   0.775  10.951  0.7689  0.3078  1.1722
  200MOL0     H26999   6.268   0.825  10.992  0.6275 -0.0243  0.3054
  200MOL0     H27000   6.240   0.676  10.906 -3.5098 -1.4694 -1.9442
  201MOL0     O27001   6.752   1.581   4.524  0.3096  0.1863 -0.7309
  201MOL0     C27002   6.788   1.475   4.488 -0.4652 -0.0385  0.0188
  201MOL0     O27003   6.915   1.434   4.466 -0.0516  0.3003 -0.1571
  201MOL0     C27004   7.023   1.521   4.492 -0.4952 -0.0318 -0.7012
  201MOL0     C27005   7.119   1.528   4.390 -0.5977  0.0358 -0.2749
  201MOL0     C27006   7.246   1.587   4.424  0.3674 -0.7572 -0.1893
  201MOL0     C27007   7.270   1.653   4.544 -0.5724 -0.8143 -0.0301
  201MOL0     O27008   7.397   1.724   4.564  1.4155 -0.2502  0.3604
  201MOL0     C27009   7.404   1.814   4.676 -0.0923  0.6547 -0.6268
  201MOL0     C27010   7.495   1.929   4.640  0.3008 -0.8264 -0.4673
  201MOL0     C27011   7.640   1.880   4.641 -0.0307 -0.2266 -0.0161
  201MOL0     C27012   7.738   1.979   4.704  0.1318 -0.0836  0.4911
  201MOL0     C27013   7.879   1.933   4.726 -1.3648  0.4604 -0.7457
  201MOL0     C27014   7.962   2.032   4.805 -0.0816 -0.8112  0.6418
  201MOL0     C27015   8.003   2.154   4.719 -0.0070 -0.0608 -0.0459
  201MOL0     C27016   8.116   2.127   4.621 -0.1753 -0.0474  0.6542
  201MOL0     N27017   8.249   2.094   4.681  0.2930 -0.6328  0.7489
  201MOL0     C27018   8.301   2.149   4.790 -0.9089 -0.5467 -0.4555
  201MOL0     C27019   8.421   2.085   4.824 -0.0516  0.3942 -0.0498
  201MOL0     C27020   8.498   2.127   4.942 -0.4527  1.3309  1.1858
  201MOL0     C27021   8.647   2.099   4.903 -0.3920  0.1781  0.7013
  201MOL0     C27022   8.737   2.138   5.028 -0.1624 -0.5677 -0.4025
  201MOL0     C27023   8.880   2.096   4.980  0.0080 -1.0045 -1.1475
  201MOL0     O27024   8.929   2.188   4.886 -0.3124 -0.6097  0.0516
  201MOL0     C27025   9.066   2.179   4.845 -0.8071  0.2568 -0.2035
  201MOL0     C27026   9.162   2.087   4.888  0.4914  1.2669  0.2950
  201MOL0     C27027   9.291   2.072   4.833  0.1021  0.1318 -1.0725
  201MOL0     C27028   9.332   2.168   4.738 -0.1911 -0.2299 -0.0501
  201MOL0     C27029   9.464   2.163   4.681 -0.3829  0.3484  0.4336
  201MOL0     O27030   9.504   2.275   4.608  0.3263 -0.3410  0.2184
  201MOL0     C27031   9.623   2.292   4.533  0.8106  0.3055 -0.3490
  201MOL0     C27032   9.726   2.199   4.511  0.0437  0.5836 -1.0436
  201MOL0     C27033   9.841   2.235   4.436 -0.1411 -0.0236 -0.0218
  201MOL0     C27034   9.855   2.372   4.406 -0.6409 -0.3067 -0.5734
  201MOL0     O27035   9.974   2.423   4.361 -0.3219  1.3787 -0.7376
  201MOL0     C27036  10.064   2.345   4.278  0.0450  0.2824  0.7161
  201MOL0     C27037  10.174   2.299   4.368 -0.6411 -0.1199 -0.0073
  201MOL0     C27038  10.291   2.220   4.307 -0.1771 -0.0975 -0.5256
  201MOL0     C27039  10.249   2.107   4.207  0.1932 -0.7765 -0.1609
  201MOL0     C27040  10.371   2.036   4.143  0.8847  0.2994 -0.9825
  201MOL0     C27041  10.446   2.128   4.042 -0.3480 -0.1035  0.1892
  201MOL0     C27042  10.525   2.041   3.947 -0.3201 -0.3275  0.3759
  201MOL0     C27043  10.638   1.973   4.024  0.2019  0.0866  0.5025
  201MOL0    Cl27044  10.767   1.912   3.910  0.3234 -0.1931  0.1360
  201MOL0     C27045   9.750   2.463   4.431  0.0746  0.9567 -0.3122
  201MOL0     C27046   9.634   2.430   4.493 -0.0105  2.1587 -0.0116
  201MOL0     O27047   9.528   2.060   4.688 -0.8185 -0.1241 -0.4173
  201MOL0     C27048   9.235   2.260   4.692  0.2229 -0.4467  0.6148
  201MOL0     C27049   9.104   2.270   4.747 -0.2785 -0.3313 -0.1271
  201MOL0     N27050   8.425   1.974   4.739 -0.2468 -0.5159 -0.7850
  201MOL0     N27051   8.320   1.981   4.659  0.2318  0.1308 -0.1677
  201MOL0     C27052   7.171   1.636   4.644 -0.0594 -0.9256  0.1890
  201MOL0     C27053   7.052   1.567   4.619  0.5341  0.4831  0.2112
  201MOL0     C27054   6.695   1.366   4.447  0.3537  0.2341 -0.0107
  201MOL0     C27055   6.747   1.260   4.367 -0.2722 -0.5876  0.6916
  201MOL0     C27056   6.671   1.152   4.325  0.5360  1.2031 -0.3096
  201MOL0     C27057   6.536   1.155   4.344 -0.3153 -0.0894  0.1472
  201MOL0     O27058   6.466   1.049   4.293  0.0199 -0.2663  0.4498
  201MOL0     C27059   6.324   1.077   4.260 -0.4214  0.2473 -0.5427
  201MOL0     C27060   6.294   1.018   4.128 -0.6863 -0.4232  0.6119
  201MOL0     C27061   6.242   0.879   4.143 -0.2192  0.1543 -0.6292
  201MOL0     C27062   6.237   0.782   4.020  0.1960  0.3660  0.5900
  201MOL0     C27063   6.227   0.637   4.057  0.0636  0.0089  0.1917
  201MOL0     C27064   6.231   0.518   4.093 -0.2913 -0.8545  0.6644
  201MOL0     C27065   6.480   1.259   4.416  0.2310 -0.4539  0.2296
  201MOL0     C27066   6.561   1.360   4.478  0.5488 -0.6939  0.1789
  201MOL0     C27067   6.485   1.469   4.561 -0.1025 -0.4328 -0.5273
  201MOL0     H27068   7.097   1.468   4.303 -1.9865 -2.3416  1.5875
  201MOL0     H27069   7.321   1.585   4.346 -0.0457 -1.3056 -0.5829
  201MOL0     H27070   7.309   1.848   4.717 -1.4951 -1.4025 -1.9650
  201MOL0     H27071   7.458   1.773   4.761  1.4855  1.9137 -0.9684
  201MOL0     H27072   7.483   2.000   4.723 -2.9099 -0.3984 -1.1481
  201MOL0     H27073   7.467   1.985   4.550  0.2010  2.4058  1.4324
  201MOL0     H27074   7.676   1.844   4.544  0.2374  0.3295 -0.1286
  201MOL0     H27075   7.643   1.799   4.714 -1.1951 -0.2270  0.0457
  201MOL0     H27076   7.760   2.065   4.641  4.4226 -0.5192  1.0559
  201MOL0     H27077   7.695   2.011   4.800  0.7856 -0.0233  0.7691
  201MOL0     H27078   7.889   1.837   4.779 -2.1979  0.4387 -0.6200
  201MOL0     H27079   7.930   1.906   4.633  1.0168  1.5648  0.1559
  201MOL0     H27080   7.913   2.077   4.892 -1.4818 -1.6529  0.3136
  201MOL0     H27081   8.055   1.982   4.836  2.1140  3.7308  2.3487
  201MOL0     H27082   8.023   2.240   4.784 -1.9115  1.7896 -1.7259
  201MOL0     H27083   7.923   2.188   4.652  1.0283 -1.7246 -2.2538
  201MOL0     H27084   8.075   2.048   4.557 -4.0952  1.9588  0.4172
  201MOL0     H27085   8.120   2.221   4.566  1.5170 -0.1200  0.5944
  201MOL0     H27086   8.260   2.239   4.836 -1.7433 -0.6178 -1.0545
  201MOL0     H27087   8.470   2.225   4.981 -3.0223  1.8911 -1.7232
  201MOL0     H27088   8.474   2.058   5.024  1.9770  1.4893  2.1322
  201MOL0     H27089   8.658   1.993   4.878 -3.7784  0.0231 -0.6490
  201MOL0     H27090   8.667   2.169   4.821 -0.6282 -1.5824 -0.9349
  201MOL0     H27091   8.712   2.073   5.112 -0.4676 -1.3211 -1.0592
  201MOL0     H27092   8.727   2.243   5.057 -0.3616 -0.1688 -1.8361
  201MOL0     H27093   8.886   1.996   4.937  0.1025 -2.1035  1.2597
  201MOL0     H27094   8.942   2.104   5.069 -0.8549 -0.7966 -0.5499
  201MOL0     H27095   9.133   2.027   4.974 -0.7029  0.7342 -0.4559
  201MOL0     H27096   9.353   2.010   4.896 -0.7479  2.6284  2.5171
  201MOL0     H27097   9.716   2.095   4.539 -1.1013  0.4453 -1.9115
  201MOL0     H27098   9.923   2.167   4.413  1.7911  2.9887 -2.8034
  201MOL0     H27099  10.008   2.262   4.234  0.7378 -1.0241  2.1885
  201MOL0     H27100  10.094   2.414   4.198 -0.9538 -0.9995 -0.8209
  201MOL0     H27101  10.231   2.387   4.397  1.0254 -1.6197  1.5667
  201MOL0     H27102  10.134   2.246   4.456 -0.7684 -1.3212 -0.7667
  201MOL0     H27103  10.362   2.293   4.266 -0.3690  0.2626 -0.2220
  201MOL0     H27104  10.353   2.166   4.379  0.0412 -0.3965 -0.9314
  201MOL0     H27105  10.188   2.147   4.125  0.5638 -0.0724 -0.0982
  201MOL0     H27106  10.185   2.033   4.256  1.7589 -1.3846  1.0335
  201MOL0     H27107  10.332   1.946   4.096 -2.3502  1.3607 -0.5722
  201MOL0     H27108  10.445   2.007   4.219 -0.2967 -0.2166  0.0030
  201MOL0     H27109  10.374   2.189   3.987  1.0687  1.2322 -0.2246
  201MOL0     H27110  10.516   2.194   4.094  0.9734 -2.9066  2.2898
  201MOL0     H27111  10.570   2.103   3.869 -0.7683  0.2303  0.5471
  201MOL0     H27112  10.458   1.967   3.903  1.5060 -0.9403 -1.5304
  201MOL0     H27113  10.687   2.043   4.092 -2.0948  0.6326  1.6960
  201MOL0     H27114  10.601   1.880   4.068 -0.2273 -0.2563 -0.5451
  201MOL0     H27115   9.783   2.564   4.411  1.4433  0.5478 -0.2735
  201MOL0     H27116   9.552   2.498   4.510 -0.4729  0.9973  2.9657
  201MOL0     H27117   9.259   2.332   4.615  0.7925 -1.4871 -0.2178
  201MOL0     H27118   9.036   2.349   4.715 -1.9581 -2.3378 -1.7719
  201MOL0     H27119   7.186   1.672   4.746 -0.4506  2.5930 -0.8811
  201MOL0     H27120   6.982   1.546   4.699  0.6543 -1.5852 -0.1730
  201MOL0     H27121   6.849   1.271   4.332 -0.8668  2.3756 -0.3400
  201MOL0     H27122   6.704   1.061   4.275 -1.4528  0.4461 -0.3171
  201MOL0     H27123   6.302   1.184   4.254 -0.0953  0.5330  2.1806
  201MOL0     H27124   6.254   1.042   4.336 -1.5862  1.5760 -0.9641
  201MOL0     H27125   6.384   1.022   4.065 -1.5099 -0.2396 -0.5952
  201MOL0     H27126   6.217   1.080   4.081 -2.6460 -1.8150  1.8417
  201MOL0     H27127   6.135   0.893   4.160  0.2634  0.8836  2.4194
  201MOL0     H27128   6.285   0.830   4.231  3.8753 -0.8054 -2.9142
  201MOL0     H27129   6.151   0.800   3.955  0.6166  0.1791 -0.0365
  201MOL0     H27130   6.321   0.794   3.950  0.0889 -4.5726 -0.7859
  201MOL0     H27131   6.227   0.414   4.116 -2.3662 -1.2804 -1.2975
  201MOL0     H27132   6.373   1.263   4.437 -0.0407 -1.7722 -0.7518
  201MOL0     H27133   6.547   1.500   4.645  0.0364  2.3799 -1.5828
  201MOL0     H27134   6.474   1.551   4.490 -0.3330 -0.7054 -0.8109
  201MOL0     H27135   6.388   1.430   4.596  0.0016  0.7841  1.2226
  202MOL0     O27136   8.914  10.893   6.018  0.4094 -0.6126  0.5520
  202MOL0     C27137   8.832  10.939   6.098  0.4183 -0.0009  0.2939
  202MOL0     O27138   8.848  11.052   6.173  0.0324  0.2019 -0.3816
  202MOL0     C27139   8.978  11.087   6.200 -0.8425 -0.3201  0.2918
  202MOL0     C27140   9.053  11.006   6.291  0.4226  0.3363 -0.1931
  202MOL0     C27141   9.191  11.033   6.290  0.3189  0.0753  0.2562
  202MOL0     C27142   9.253  11.140   6.232  0.9428 -0.6243 -0.4060
  202MOL0     O27143   9.380  11.184   6.247 -0.5600 -0.0411  0.5389
  202MOL0     C27144   9.479  11.077   6.274 -1.3428 -1.2777 -0.2645
  202MOL0     C27145   9.562  11.119   6.395  0.1368 -0.7474  0.1356
  202MOL0     C27146   9.691  11.040   6.415  0.1022 -0.4322  0.1920
  202MOL0     C27147   9.738  11.068   6.560  0.5409  0.1558  0.3932
  202MOL0     C27148   9.882  11.010   6.602  0.6696  0.4665  0.2652
  202MOL0     C27149  10.002  11.084   6.531  1.0290 -0.5932  0.4801
  202MOL0     C27150  10.148  11.048   6.571 -0.4073 -0.1561 -0.3362
  202MOL0     C27151  10.191  11.125   6.697 -0.2562  0.6848 -0.1119
  202MOL0     N27152  10.341  11.153   6.693  0.2791  0.7700 -0.4085
  202MOL0     C27153  10.405  11.273   6.705  0.2745 -0.0098 -0.8456
  202MOL0     C27154  10.537  11.250   6.705 -0.3793  0.1345  0.0010
  202MOL0     C27155  10.648  11.337   6.738  0.8816  0.2158  0.3615
  202MOL0     C27156  10.719  11.412   6.619 -0.1438 -1.1796 -0.9991
  202MOL0     C27157  10.760  11.311   6.512  0.2879  0.3106  0.3001
  202MOL0     C27158  10.861  11.371   6.424 -0.1984 -0.2160  0.4526
  202MOL0     O27159  10.984  11.415   6.491 -0.0341  0.1917 -0.2275
  202MOL0     C27160  11.060  11.487   6.406 -0.1737 -0.1046 -0.1185
  202MOL0     C27161  11.028  11.624   6.397  0.0306 -0.4533 -0.3524
  202MOL0     C27162  11.091  11.713   6.305 -0.3961  0.1431  0.5019
  202MOL0     C27163  11.191  11.654   6.224 -0.4388  0.0365 -0.3105
  202MOL0     C27164  11.268  11.737   6.131  0.4978 -0.0253  0.4129
  202MOL0     O27165  11.227  11.870   6.109 -0.0165  0.7025  0.2868
  202MOL0     C27166  11.302  11.939   6.020 -0.6885 -0.0512 -0.9318
  202MOL0     C27167  11.379  12.043   6.067  0.3880  0.6250  0.6391
  202MOL0     C27168  11.445  12.132   5.982 -0.3251  0.5913 -0.5710
  202MOL0     C27169  11.451  12.099   5.842  0.3575 -0.2165 -0.3727
  202MOL0     O27170  11.521  12.169   5.752 -1.1138 -0.0479 -0.0059
  202MOL0     C27171  11.576  12.301   5.781  0.7073 -0.0665 -0.2320
  202MOL0     C27172  11.717  12.288   5.847  0.1479  1.0405  0.2115
  202MOL0     C27173  11.820  12.206   5.775 -0.1836  0.2845 -0.2575
  202MOL0     C27174  11.945  12.176   5.850  0.0413  0.0460 -0.0043
  202MOL0     C27175  11.943  12.111   5.983 -0.0108  0.3848 -0.3846
  202MOL0     C27176  12.087  12.063   6.027 -0.3344  0.1000 -0.6393
  202MOL0     C27177  12.156  11.957   5.945  0.3347  1.2485 -0.3364
  202MOL0     C27178  12.281  11.894   6.022  0.1593 -0.5002  1.0849
  202MOL0    Cl27179  12.407  12.018   6.048 -0.7879 -0.2899 -0.0377
  202MOL0     C27180  11.383  11.988   5.797 -0.6474  1.5430 -0.6226
  202MOL0     C27181  11.313  11.905   5.885 -0.3415 -0.4485  0.1224
  202MOL0     O27182  11.374  11.687   6.091  0.5757  0.1822 -0.1089
  202MOL0     C27183  11.218  11.512   6.233 -0.3958 -0.4106  0.0395
  202MOL0     C27184  11.161  11.434   6.334 -0.4987 -0.4842  0.1515
  202MOL0     N27185  10.547  11.110   6.704 -1.6491  0.1687 -0.3450
  202MOL0     N27186  10.434  11.057   6.684  0.3417 -0.0666 -0.1279
  202MOL0     C27187   9.171  11.228   6.162 -0.2310  0.9070 -0.4059
  202MOL0     C27188   9.033  11.202   6.146 -0.1560 -0.0472  0.4705
  202MOL0     C27189   8.707  10.872   6.125  0.5401  1.2432  0.3921
  202MOL0     C27190   8.577  10.938   6.114 -1.0485  0.1336  0.1392
  202MOL0     C27191   8.461  10.867   6.138  0.7970  0.0352 -0.4842
  202MOL0     C27192   8.457  10.735   6.177 -0.4882  0.6259  0.3957
  202MOL0     O27193   8.351  10.660   6.222 -0.3759 -0.5130 -0.9580
  202MOL0     C27194   8.226  10.724   6.238  0.0510  0.0256 -0.1866
  202MOL0     C27195   8.118  10.642   6.303  1.6847 -0.2644  0.2540
  202MOL0     C27196   7.977  10.706   6.280  0.4118  0.7492  0.3289
  202MOL0     C27197   7.876  10.651   6.378  0.3490  0.6726  0.7428
  202MOL0     C27198   7.736  10.667   6.333 -0.0880  0.3965 -0.9501
  202MOL0     C27199   7.620  10.665   6.287 -1.0921  0.3365 -0.5292
  202MOL0     C27200   8.580  10.665   6.171  1.0191  0.1804  0.0594
  202MOL0     C27201   8.702  10.733   6.148  0.7212  0.1249 -0.6178
  202MOL0     C27202   8.829  10.650   6.163 -0.3395  0.5242 -0.2652
  202MOL0     H27203   9.012  10.918   6.338  0.4365  1.2196  1.5458
  202MOL0     H27204   9.245  10.968   6.358  0.9163 -1.3164 -1.4602
  202MOL0     H27205   9.437  10.979   6.297  0.8626 -1.8128  1.9382
  202MOL0     H27206   9.542  11.070   6.185 -2.0526 -0.5880 -0.8312
  202MOL0     H27207   9.498  11.123   6.483  0.9290 -0.8900  0.7307
  202MOL0     H27208   9.586  11.226   6.387  0.9485 -0.9875 -0.9692
  202MOL0     H27209   9.762  11.073   6.339 -1.1600  0.3173 -0.7189
  202MOL0     H27210   9.672  10.932   6.415  0.7450 -0.6228  3.1027
  202MOL0     H27211   9.742  11.178   6.566 -0.5938  0.3872 -2.0826
  202MOL0     H27212   9.662  11.032   6.631 -0.1235  1.3518  0.3208
  202MOL0     H27213   9.890  11.021   6.710  0.0219  0.7563  0.2889
  202MOL0     H27214   9.892  10.902   6.587  0.3301  0.3305  0.9894
  202MOL0     H27215   9.997  11.064   6.424  1.9819  0.2596  0.2578
  202MOL0     H27216   9.990  11.191   6.548 -2.4681 -0.7495 -0.2390
  202MOL0     H27217  10.215  11.078   6.490 -1.6635 -0.1229 -1.3928
  202MOL0     H27218  10.156  10.939   6.571  0.8516 -0.0965 -1.3790
  202MOL0     H27219  10.136  11.220   6.697  0.7461  1.2992 -1.0437
  202MOL0     H27220  10.172  11.066   6.787  4.9416 -0.2177  0.7439
  202MOL0     H27221  10.366  11.374   6.708  0.7184  0.1704  2.3871
  202MOL0     H27222  10.632  11.402   6.824  1.6570  0.0313  0.6580
  202MOL0     H27223  10.728  11.271   6.774  0.5647  0.6347  1.9241
  202MOL0     H27224  10.651  11.489   6.581  1.3566  1.1815  0.8214
  202MOL0     H27225  10.802  11.469   6.662 -0.5647  0.5494 -2.3484
  202MOL0     H27226  10.679  11.269   6.451  1.9951 -1.4667 -0.8508
  202MOL0     H27227  10.811  11.226   6.559  1.2354  0.3756 -0.5847
  202MOL0     H27228  10.814  11.455   6.373  0.5095  0.8255  1.4572
  202MOL0     H27229  10.901  11.297   6.353 -2.2086 -2.2392  1.3029
  202MOL0     H27230  10.947  11.664   6.458 -1.1401 -2.8404 -0.2094
  202MOL0     H27231  11.060  11.817   6.315  0.7596  0.3792  2.1901
  202MOL0     H27232  11.371  12.054   6.174  0.1965  1.1983  0.5711
  202MOL0     H27233  11.508  12.214   6.015  0.0654  0.7731 -1.7194
  202MOL0     H27234  11.593  12.353   5.686 -3.1005  2.5034  0.2587
  202MOL0     H27235  11.507  12.367   5.835 -0.5878  0.7923 -2.7390
  202MOL0     H27236  11.761  12.388   5.853 -2.3984  2.6403 -3.8025
  202MOL0     H27237  11.719  12.253   5.951 -1.4657 -4.1493 -1.1882
  202MOL0     H27238  11.755  12.118   5.766 -2.2579  1.6275  0.7559
  202MOL0     H27239  11.838  12.252   5.677  0.7789 -3.9057 -2.2870
  202MOL0     H27240  12.004  12.267   5.862  1.7819 -0.5462 -3.0318
  202MOL0     H27241  11.997  12.105   5.784  0.5184  0.3536  0.0317
  202MOL0     H27242  11.871  12.029   5.981  0.0259  0.3369 -3.3242
  202MOL0     H27243  11.916  12.187   6.057  1.1674 -0.2902  0.7813
  202MOL0     H27244  12.147  12.154   6.017  1.8914 -1.3022 -0.7680
  202MOL0     H27245  12.085  12.033   6.132 -2.6283  0.0652 -0.6515
  202MOL0     H27246  12.188  11.999   5.849  3.5227  0.4321  0.2478
  202MOL0     H27247  12.086  11.875   5.927 -0.8312  2.0148  0.5376
  202MOL0     H27248  12.244  11.851   6.116 -1.1248 -0.6680  0.5266
  202MOL0     H27249  12.332  11.810   5.973 -0.4853 -0.5531  0.4902
  202MOL0     H27250  11.400  11.957   5.695  1.7434 -0.7638  0.3535
  202MOL0     H27251  11.282  11.808   5.847  1.0102 -1.2116  0.8920
  202MOL0     H27252  11.293  11.475   6.163 -0.5017 -0.3809 -0.0887
  202MOL0     H27253  11.182  11.328   6.346  0.3372 -0.2570  0.7753
  202MOL0     H27254   9.219  11.318   6.125 -0.6307  1.0410 -0.6100
  202MOL0     H27255   8.984  11.278   6.087  2.7006  0.1957 -1.8442
  202MOL0     H27256   8.572  11.044   6.090  0.0184 -0.4983 -3.5351
  202MOL0     H27257   8.363  10.915   6.131  0.8490 -0.0074 -1.5655
  202MOL0     H27258   8.187  10.748   6.139  0.1316  3.4819  0.4875
  202MOL0     H27259   8.247  10.811   6.301  0.9881 -1.3497  1.5134
  202MOL0     H27260   8.126  10.642   6.413 -0.5681 -3.1457  0.5359
  202MOL0     H27261   8.126  10.540   6.264 -0.3341 -0.4426  0.1635
  202MOL0     H27262   7.948  10.685   6.176 -0.2252  1.8087  0.2814
  202MOL0     H27263   7.976  10.814   6.293 -1.8539  1.1465 -2.1398
  202MOL0     H27264   7.890  10.543   6.387 -2.4641  0.3032  1.7989
  202MOL0     H27265   7.885  10.700   6.476 -1.3591  0.3691  1.0826
  202MOL0     H27266   7.522  10.646   6.249 -1.8463  1.5700  0.7018
  202MOL0     H27267   8.587  10.559   6.194  0.3395  0.2694  0.7545
  202MOL0     H27268   8.807  10.543   6.164 -1.6726  0.7755 -0.0826
  202MOL0     H27269   8.900  10.665   6.082  0.2861 -0.9343 -0.0161
  202MOL0     H27270   8.889  10.670   6.252  2.0133 -0.5027 -1.5461
  203MOL0     O27271   2.265   2.278   5.527  0.2764 -0.3011 -0.4667
  203MOL0     C27272   2.271   2.272   5.409 -0.0170 -0.6199 -0.0319
  203MOL0     O27273   2.386   2.277   5.346 -0.4109 -0.4357 -0.2419
  203MOL0     C27274   2.505   2.272   5.413 -0.6399  0.7519 -0.4072
  203MOL0     C27275   2.560   2.379   5.486 -1.6997  0.4015  0.7355
  203MOL0     C27276   2.693   2.368   5.539 -0.1374  0.1556 -0.1124
  203MOL0     C27277   2.768   2.252   5.511 -0.3030 -0.2785 -0.6612
  203MOL0     O27278   2.901   2.245   5.554 -0.0734 -0.8965  0.0510
  203MOL0     C27279   2.977   2.122   5.564  1.8183  0.4120  0.2415
  203MOL0     C27280   3.096   2.149   5.647 -0.1746 -0.5646  0.1007
  203MOL0     C27281   3.193   2.031   5.664  0.2368  0.6254 -0.1697
  203MOL0     C27282   3.315   2.060   5.759  0.5475  0.4431 -0.6143
  203MOL0     C27283   3.402   1.939   5.783  0.2822 -1.4129 -0.3209
  203MOL0     C27284   3.509   1.964   5.890 -0.7851 -0.2542 -0.4420
  203MOL0     C27285   3.564   1.828   5.940 -0.5854 -0.7800 -0.0149
  203MOL0     C27286   3.686   1.854   6.023 -0.2151 -0.6853  0.1219
  203MOL0     N27287   3.724   1.733   6.103  0.0270  0.3055 -0.6058
  203MOL0     C27288   3.641   1.647   6.170  0.6348  0.8518  0.9383
  203MOL0     C27289   3.725   1.545   6.209  0.1491 -0.4289  0.1565
  203MOL0     C27290   3.694   1.414   6.286 -0.1285 -0.6060  1.1019
  203MOL0     C27291   3.676   1.455   6.430 -0.3714  0.2707 -0.8390
  203MOL0     C27292   3.656   1.341   6.537 -0.3062  0.4463 -0.0443
  203MOL0     C27293   3.767   1.240   6.536 -1.1585 -0.0267  0.5617
  203MOL0     O27294   3.876   1.315   6.598  0.5109  1.0317 -0.1453
  203MOL0     C27295   3.994   1.251   6.628 -0.1574  1.1845 -0.2436
  203MOL0     C27296   4.077   1.317   6.724  0.3714 -0.0861 -1.0056
  203MOL0     C27297   4.190   1.253   6.784 -0.3451 -0.3793 -0.1513
  203MOL0     C27298   4.221   1.119   6.747  0.3766 -0.0562 -0.8612
  203MOL0     C27299   4.333   1.053   6.819  0.1688 -0.0213  0.3496
  203MOL0     O27300   4.390   1.120   6.915 -0.2593  0.6211  0.2752
  203MOL0     C27301   4.478   1.045   6.993  0.1170  0.2924  0.1625
  203MOL0     C27302   4.447   1.027   7.126 -0.6611  0.2178  1.1498
  203MOL0     C27303   4.532   0.942   7.196  0.0802 -0.3531 -1.2461
  203MOL0     C27304   4.647   0.884   7.148  0.3686  0.8687 -0.1036
  203MOL0     O27305   4.740   0.824   7.222  0.2931  0.0049 -0.4542
  203MOL0     C27306   4.726   0.789   7.354  0.1665  0.7986  0.4193
  203MOL0     C27307   4.823   0.675   7.400 -0.3366 -0.5228 -0.1607
  203MOL0     C27308   4.962   0.745   7.403 -0.6971 -0.1506 -0.0837
  203MOL0     C27309   5.064   0.647   7.452  0.4823  0.5073  0.1472
  203MOL0     C27310   5.198   0.699   7.493 -1.0302  0.1104 -0.3004
  203MOL0     C27311   5.300   0.601   7.544  0.2236 -0.2486  0.5274
  203MOL0     C27312   5.442   0.662   7.548  0.0430 -0.2802  0.0387
  203MOL0     C27313   5.547   0.543   7.559 -0.4253 -0.3549 -0.3842
  203MOL0    Cl27314   5.707   0.601   7.597 -0.1276 -0.3656 -0.3070
  203MOL0     C27315   4.686   0.919   7.024  0.3701  0.1032  0.7588
  203MOL0     C27316   4.599   0.992   6.939 -0.1301  0.2897 -0.0083
  203MOL0     O27317   4.357   0.937   6.785 -0.5647 -0.3240 -1.1890
  203MOL0     C27318   4.141   1.049   6.649 -0.0802 -0.7814  0.5097
  203MOL0     C27319   4.031   1.123   6.590 -0.8413  0.0314  0.2307
  203MOL0     N27320   3.850   1.566   6.155  0.3606 -0.6380  0.4442
  203MOL0     N27321   3.848   1.680   6.096 -0.7203 -0.7083  0.0672
  203MOL0     C27322   2.716   2.151   5.432 -0.3223  0.0929 -0.3947
  203MOL0     C27323   2.591   2.164   5.375 -0.0718 -0.3460 -0.5893
  203MOL0     C27324   2.145   2.285   5.340  1.1237  0.2126  0.7816
  203MOL0     C27325   2.030   2.217   5.382 -0.0635 -0.1001  0.2106
  203MOL0     C27326   1.909   2.235   5.317 -0.6426  0.0288 -0.4337
  203MOL0     C27327   1.896   2.322   5.207 -0.4161 -0.2367 -0.3029
  203MOL0     O27328   1.786   2.313   5.127 -0.2478 -0.2441  0.0636
  203MOL0     C27329   1.719   2.431   5.081  0.3867  0.8810 -0.0960
  203MOL0     C27330   1.573   2.423   5.100  0.5109  0.3156  0.7907
  203MOL0     C27331   1.522   2.382   5.241  0.2320 -0.8179 -0.1406
  203MOL0     C27332   1.368   2.388   5.241 -0.5070 -0.8502 -0.3172
  203MOL0     C27333   1.317   2.529   5.237 -0.4470 -0.0325 -0.5477
  203MOL0     C27334   1.310   2.649   5.238  0.1419  0.5150 -0.5652
  203MOL0     C27335   2.006   2.403   5.167  0.6632  0.2788 -0.7478
  203MOL0     C27336   2.127   2.379   5.231 -0.4424 -0.1065  0.8429
  203MOL0     C27337   2.256   2.468   5.184  0.0734 -1.4535  0.4071
  203MOL0     H27338   2.507   2.469   5.514 -0.8961  1.0200  0.3325
  203MOL0     H27339   2.728   2.448   5.604 -0.4976 -0.6148  1.0504
  203MOL0     H27340   2.914   2.043   5.604  2.4067 -0.8489 -1.2309
  203MOL0     H27341   3.014   2.087   5.467  0.4050 -1.2546  0.2582
  203MOL0     H27342   3.059   2.193   5.740 -0.5247 -2.0279  0.6869
  203MOL0     H27343   3.148   2.232   5.597 -0.3146 -1.3068 -1.3278
  203MOL0     H27344   3.234   2.011   5.565 -2.9963  2.8546 -2.1259
  203MOL0     H27345   3.142   1.942   5.703  0.6229 -0.3874 -1.8984
  203MOL0     H27346   3.362   2.144   5.708  2.5048  1.2416  2.2638
  203MOL0     H27347   3.279   2.099   5.855  0.3226 -2.8100  0.7426
  203MOL0     H27348   3.349   1.848   5.813 -0.6104 -0.3381  1.5716
  203MOL0     H27349   3.460   1.921   5.692  0.1258 -1.5401 -0.3956
  203MOL0     H27350   3.590   2.021   5.843 -0.3297 -0.9185 -0.4779
  203MOL0     H27351   3.470   2.024   5.973 -0.8320  1.6358 -1.7696
  203MOL0     H27352   3.590   1.767   5.853  0.6368 -0.4378  0.0894
  203MOL0     H27353   3.485   1.770   5.987  0.0113 -2.4004 -0.9122
  203MOL0     H27354   3.776   1.862   5.962 -0.3928  1.6287  0.0874
  203MOL0     H27355   3.669   1.941   6.087  1.7223 -0.3608  0.2297
  203MOL0     H27356   3.535   1.665   6.178  0.3024  0.4395 -1.5123
  203MOL0     H27357   3.608   1.370   6.235  0.0887  0.8755 -0.6512
  203MOL0     H27358   3.780   1.348   6.273  0.0185 -0.3718  0.8652
  203MOL0     H27359   3.764   1.512   6.463  1.6978 -3.2089  0.1874
  203MOL0     H27360   3.592   1.524   6.436 -1.0485 -0.6175  0.3692
  203MOL0     H27361   3.569   1.280   6.510 -0.4844  0.2443  0.9571
  203MOL0     H27362   3.639   1.375   6.640 -2.7359 -2.3385  0.6222
  203MOL0     H27363   3.798   1.209   6.436 -2.7477  0.1842 -0.0103
  203MOL0     H27364   3.752   1.145   6.588  3.3782 -0.8344  0.8597
  203MOL0     H27365   4.040   1.411   6.763  0.3580 -1.0263  1.3977
  203MOL0     H27366   4.232   1.313   6.864 -1.8098  0.0674  0.3199
  203MOL0     H27367   4.369   1.079   7.180 -0.9734 -0.0069  0.9156
  203MOL0     H27368   4.506   0.933   7.301  0.3149  1.7741 -0.9576
  203MOL0     H27369   4.725   0.878   7.419 -2.0709  0.6513  0.6843
  203MOL0     H27370   4.628   0.742   7.369  1.2729 -1.6278  0.4388
  203MOL0     H27371   4.803   0.635   7.500  2.0570 -2.1759 -0.2516
  203MOL0     H27372   4.823   0.589   7.333  1.4996 -1.9791  1.5705
  203MOL0     H27373   4.995   0.777   7.303  2.1519 -1.4362  0.3361
  203MOL0     H27374   4.954   0.835   7.465 -3.2538  1.8743 -3.0147
  203MOL0     H27375   5.087   0.564   7.386 -0.0991 -0.5984  1.2810
  203MOL0     H27376   5.019   0.605   7.543 -2.1502  1.0135 -0.8139
  203MOL0     H27377   5.186   0.781   7.565 -0.6199  0.0281 -0.1397
  203MOL0     H27378   5.232   0.736   7.395  0.0423  0.3536  0.1518
  203MOL0     H27379   5.270   0.568   7.645  3.5336 -0.4461  1.5581
  203MOL0     H27380   5.303   0.514   7.478  0.9721 -0.9511  1.4489
  203MOL0     H27381   5.448   0.729   7.634 -2.0458  1.1906 -0.8932
  203MOL0     H27382   5.469   0.712   7.455 -0.6410  1.4188  0.7238
  203MOL0     H27383   5.511   0.476   7.637  0.6332 -1.2466 -0.6279
  203MOL0     H27384   5.551   0.485   7.466  0.2415  1.4365 -1.5485
  203MOL0     H27385   4.778   0.879   6.982 -1.0142 -2.6884  0.0953
  203MOL0     H27386   4.630   1.020   6.839 -0.0151 -0.3119 -0.1418
  203MOL0     H27387   4.163   0.946   6.626  2.1831 -0.4090  0.8223
  203MOL0     H27388   3.979   1.071   6.510 -0.2180 -1.6666  0.8910
  203MOL0     H27389   2.771   2.060   5.407  1.8263  1.5013 -1.0170
  203MOL0     H27390   2.559   2.093   5.299  4.1698 -1.5815 -1.5091
  203MOL0     H27391   2.036   2.163   5.475  0.8989  0.1837  0.3257
  203MOL0     H27392   1.824   2.177   5.352  0.8509 -1.8771  0.1787
  203MOL0     H27393   1.735   2.434   4.973 -0.8882  0.9538 -0.3001
  203MOL0     H27394   1.764   2.521   5.124 -0.5320  1.7821 -0.9664
  203MOL0     H27395   1.533   2.352   5.027 -0.0260  0.4042  0.9947
  203MOL0     H27396   1.535   2.522   5.072  0.4949  0.1652  0.2649
  203MOL0     H27397   1.567   2.453   5.310  1.1017  0.2396 -1.7451
  203MOL0     H27398   1.548   2.277   5.258 -3.1063 -1.7909 -0.2411
  203MOL0     H27399   1.326   2.340   5.152 -0.0074  0.4493 -1.2749
  203MOL0     H27400   1.326   2.341   5.331  1.0536  0.3620  1.1193
  203MOL0     H27401   1.305   2.755   5.250  3.8610  0.5339  3.1841
  203MOL0     H27402   1.983   2.467   5.083 -2.1226 -1.1407 -1.1937
  203MOL0     H27403   2.344   2.416   5.146  0.4900 -0.3375 -0.2160
  203MOL0     H27404   2.232   2.534   5.100 -1.2862  0.3074  2.0695
  203MOL0     H27405   2.292   2.534   5.264 -1.0349 -0.6442  0.2738
  204MOL0     O27406   9.429   2.579   7.965 -0.6032 -0.1311 -0.6222
  204MOL0     C27407   9.417   2.468   8.011  0.6122 -0.5162 -0.0164
  204MOL0     O27408   9.495   2.358   7.976  0.1425  0.0238 -0.3000
  204MOL0     C27409   9.604   2.380   7.898  0.6052 -0.2016 -0.8775
  204MOL0     C27410   9.626   2.281   7.804  0.2238 -0.1138 -0.2606
  204MOL0     C27411   9.739   2.283   7.729 -0.3883  0.5124  0.1144
  204MOL0     C27412   9.841   2.378   7.754  0.0992 -0.0590  0.7093
  204MOL0     O27413   9.953   2.388   7.677  0.7880  0.4913 -0.4416
  204MOL0     C27414  10.010   2.262   7.637  0.3184 -0.0080 -0.4938
  204MOL0     C27415  10.156   2.279   7.590 -0.4504 -0.8606  0.1392
  204MOL0     C27416  10.248   2.303   7.704  0.1864 -0.3985  0.4751
  204MOL0     C27417  10.389   2.273   7.661 -0.0757  0.1670 -0.3464
  204MOL0     C27418  10.485   2.291   7.783 -0.0134 -0.3885  0.0255
  204MOL0     C27419  10.533   2.437   7.800  0.3564 -0.6002 -0.3462
  204MOL0     C27420  10.578   2.515   7.684  0.0516 -0.6450  0.7365
  204MOL0     C27421  10.690   2.449   7.604  0.5310 -0.8433 -0.0462
  204MOL0     N27422  10.822   2.471   7.665 -0.3605 -0.4221  0.1024
  204MOL0     C27423  10.864   2.396   7.779  0.5569  0.5015  0.1690
  204MOL0     C27424  10.979   2.461   7.813  0.9448 -0.5225 -0.0447
  204MOL0     C27425  11.060   2.422   7.937  0.0865 -0.2301 -0.0310
  204MOL0     C27426  11.207   2.468   7.926  0.2806 -0.7301  0.0574
  204MOL0     C27427  11.289   2.466   8.057 -0.2106 -0.4481  0.8872
  204MOL0     C27428  11.441   2.469   8.037 -0.5609  0.0773  0.1186
  204MOL0     O27429  11.512   2.445   8.163 -0.1937 -0.8288 -0.6649
  204MOL0     C27430  11.649   2.445   8.168  0.2168  0.7199  0.3392
  204MOL0     C27431  11.724   2.472   8.047 -0.3291  0.1885 -0.5575
  204MOL0     C27432  11.866   2.480   8.066  0.2077 -1.6268  0.1479
  204MOL0     C27433  11.935   2.459   8.190  0.5999 -0.5872  0.1307
  204MOL0     C27434  12.083   2.483   8.186  0.1320 -0.1117 -0.6861
  204MOL0     O27435  12.140   2.502   8.062 -0.2758 -0.1120 -0.4049
  204MOL0     C27436  12.278   2.503   8.045 -0.3175  0.0751 -0.4379
  204MOL0     C27437  12.369   2.417   8.105 -0.7573 -0.7107  0.7820
  204MOL0     C27438  12.505   2.441   8.090 -0.5786  1.1477  0.8155
  204MOL0     C27439  12.556   2.533   8.001  0.5260  0.7596  0.6570
  204MOL0     O27440  12.690   2.540   7.974 -0.3941 -0.0919 -1.2954
  204MOL0     C27441  12.787   2.484   8.068  0.1746  0.3600 -0.1396
  204MOL0     C27442  12.824   2.340   8.042 -0.5281  0.0633  0.7087
  204MOL0     C27443  12.890   2.300   7.897 -0.7613 -0.2467  0.5133
  204MOL0     C27444  13.037   2.333   7.891 -0.1683 -0.3556  0.0616
  204MOL0     C27445  13.095   2.319   7.753 -0.4105  0.1078  0.9332
  204MOL0     C27446  13.243   2.324   7.756 -0.5970 -0.6527  0.0578
  204MOL0     C27447  13.285   2.261   7.623  0.7774  0.3490 -0.1452
  204MOL0     C27448  13.431   2.277   7.601 -0.3103  0.3284  0.3483
  204MOL0    Cl27449  13.500   2.180   7.460  0.0647  0.0333 -0.0854
  204MOL0     C27450  12.468   2.620   7.939  0.3414  0.2293 -0.0132
  204MOL0     C27451  12.332   2.602   7.958  0.1961  0.1232 -0.2127
  204MOL0     O27452  12.141   2.480   8.296  0.4063 -0.1185 -0.0712
  204MOL0     C27453  11.854   2.433   8.298  0.6723 -0.7010 -0.4894
  204MOL0     C27454  11.720   2.442   8.289  1.2719  0.0414  0.3059
  204MOL0     N27455  11.004   2.567   7.731  0.7162 -0.2766 -0.1726
  204MOL0     N27456  10.911   2.573   7.640  0.8868  0.8013 -0.0158
  204MOL0     C27457   9.821   2.485   7.850 -0.0748  0.3499 -0.1203
  204MOL0     C27458   9.703   2.484   7.919  0.2682 -0.5329  0.2687
  204MOL0     C27459   9.295   2.437   8.100 -0.2129  0.4442  0.2944
  204MOL0     C27460   9.246   2.547   8.171 -0.2316  0.2675 -1.0616
  204MOL0     C27461   9.129   2.537   8.250  0.2183 -0.5005  0.0906
  204MOL0     C27462   9.059   2.422   8.260  0.4777 -0.4516  0.1765
  204MOL0     O27463   8.948   2.420   8.338  0.3896  0.0947 -0.9859
  204MOL0     C27464   8.894   2.294   8.373 -0.4514  0.7276 -0.4117
  204MOL0     C27465   8.763   2.320   8.444  0.0984  0.5067 -0.4803
  204MOL0     C27466   8.789   2.408   8.569 -0.7215 -0.0925  0.3295
  204MOL0     C27467   8.901   2.363   8.665 -0.1868 -1.0109 -0.3037
  204MOL0     C27468   8.880   2.229   8.720  0.3586 -0.4724 -0.4493
  204MOL0     C27469   8.865   2.126   8.783 -0.5216 -0.4523 -0.2448
  204MOL0     C27470   9.108   2.315   8.188  0.0728  1.3048 -0.3539
  204MOL0     C27471   9.226   2.315   8.105  0.4109 -0.2698  1.1921
  204MOL0     C27472   9.270   2.193   8.019  0.0411 -0.9082 -0.1912
  204MOL0     H27473   9.550   2.203   7.802  3.0758 -3.0610 -1.2815
  204MOL0     H27474   9.744   2.197   7.662 -3.3040 -0.5904  1.1625
  204MOL0     H27475  10.009   2.185   7.715 -0.1845  1.2738  0.7989
  204MOL0     H27476   9.942   2.219   7.562 -0.5483  0.6328 -0.1011
  204MOL0     H27477  10.155   2.369   7.527 -1.2149  0.0049  1.3384
  204MOL0     H27478  10.183   2.194   7.527  0.0100  0.0222 -0.8849
  204MOL0     H27479  10.228   2.235   7.788 -0.7091 -1.6893 -0.7312
  204MOL0     H27480  10.237   2.402   7.749  1.6593  0.7050 -1.4440
  204MOL0     H27481  10.392   2.165   7.639 -0.4312  0.1888 -0.5111
  204MOL0     H27482  10.413   2.338   7.576 -0.3328  1.3126  0.4389
  204MOL0     H27483  10.429   2.259   7.871 -1.1279  1.5676  0.0706
  204MOL0     H27484  10.577   2.231   7.775  0.8512  1.0838 -1.9788
  204MOL0     H27485  10.445   2.485   7.844  0.4372 -2.5586  2.1633
  204MOL0     H27486  10.607   2.441   7.881 -1.0101  1.7135  0.8917
  204MOL0     H27487  10.606   2.614   7.721  0.5739  0.6803 -2.7885
  204MOL0     H27488  10.490   2.526   7.619  1.8084 -0.5148 -1.7870
  204MOL0     H27489  10.678   2.341   7.592  1.8723 -0.8030 -2.1142
  204MOL0     H27490  10.694   2.497   7.506 -1.7751  2.2527  1.2193
  204MOL0     H27491  10.805   2.321   7.832 -0.3430  2.0562  1.4382
  204MOL0     H27492  11.006   2.471   8.019  0.6569 -2.4140  1.7588
  204MOL0     H27493  11.062   2.316   7.966 -1.2297 -0.1261  0.5424
  204MOL0     H27494  11.253   2.405   7.850  1.3442  0.4156 -0.2726
  204MOL0     H27495  11.222   2.569   7.888  1.5145 -0.0792  2.1236
  204MOL0     H27496  11.250   2.378   8.110 -1.1828  0.0593  1.0448
  204MOL0     H27497  11.257   2.553   8.116 -0.5167 -1.2724  1.9755
  204MOL0     H27498  11.462   2.573   8.008 -1.3948  0.2511  0.1101
  204MOL0     H27499  11.473   2.397   7.962 -0.5168  1.4687 -1.2603
  204MOL0     H27500  11.679   2.488   7.950  2.4047  1.0689 -1.7767
  204MOL0     H27501  11.914   2.502   7.971  0.0827  0.6400  0.5525
  204MOL0     H27502  12.337   2.347   8.182 -4.3355 -1.5035 -1.1786
  204MOL0     H27503  12.577   2.369   8.127  1.2752  1.5705 -1.7347
  204MOL0     H27504  12.876   2.547   8.057 -0.8786  2.0477  0.5222
  204MOL0     H27505  12.755   2.480   8.172  0.0360 -3.0512 -0.1949
  204MOL0     H27506  12.910   2.334   8.109  0.2101  2.7571  0.0963
  204MOL0     H27507  12.753   2.261   8.070 -0.0885 -1.3073 -1.6774
  204MOL0     H27508  12.877   2.195   7.873 -1.5543  0.3596 -1.9352
  204MOL0     H27509  12.842   2.355   7.816 -0.2074 -3.0294 -1.8712
  204MOL0     H27510  13.096   2.282   7.967 -0.9722 -1.9472 -0.3417
  204MOL0     H27511  13.053   2.439   7.912  2.5281 -0.7245  0.1747
  204MOL0     H27512  13.055   2.396   7.687 -2.8676 -0.6116  1.4741
  204MOL0     H27513  13.065   2.218   7.724  0.5364  0.1296 -0.2115
  204MOL0     H27514  13.268   2.430   7.760 -0.7915 -0.4102 -2.8963
  204MOL0     H27515  13.282   2.269   7.842 -1.4246 -0.7682  0.3772
  204MOL0     H27516  13.236   2.301   7.534  0.2955 -1.9910 -0.9884
  204MOL0     H27517  13.250   2.158   7.621 -0.6427  0.8095 -1.7871
  204MOL0     H27518  13.450   2.384   7.586  0.9971  0.2060  1.0618
  204MOL0     H27519  13.497   2.258   7.686  1.8018 -0.4362 -1.3661
  204MOL0     H27520  12.501   2.700   7.873 -0.2073  0.4034 -0.0788
  204MOL0     H27521  12.271   2.668   7.897  0.9233  0.0174 -1.0672
  204MOL0     H27522  11.911   2.412   8.388 -0.0372 -1.5931 -0.2254
  204MOL0     H27523  11.658   2.423   8.376  1.2724  1.5833  0.6655
  204MOL0     H27524   9.888   2.569   7.865 -3.0914  2.9385 -0.0544
  204MOL0     H27525   9.696   2.565   7.990  3.7864  1.5224 -1.4537
  204MOL0     H27526   9.296   2.643   8.165 -2.0971  1.2246 -2.5967
  204MOL0     H27527   9.094   2.627   8.299 -0.3731 -1.3853  1.3575
  204MOL0     H27528   8.968   2.246   8.438  0.5708  1.7832 -0.7548
  204MOL0     H27529   8.877   2.228   8.287  1.2956 -0.3810  0.0462
  204MOL0     H27530   8.730   2.223   8.482  0.0304  0.6696 -0.1219
  204MOL0     H27531   8.686   2.360   8.377 -1.3454 -0.6641  0.4001
  204MOL0     H27532   8.693   2.426   8.618  0.8866  2.2621  2.9278
  204MOL0     H27533   8.823   2.507   8.538  5.0881 -1.9123 -0.2143
  204MOL0     H27534   9.000   2.364   8.617  0.2196 -0.2168  0.5361
  204MOL0     H27535   8.900   2.427   8.753 -0.1762  1.6590 -2.1240
  204MOL0     H27536   8.854   2.027   8.822  0.9568 -1.3564 -1.9910
  204MOL0     H27537   9.046   2.226   8.185  0.4845  0.9994  0.0450
  204MOL0     H27538   9.288   2.242   7.922 -2.2611  2.8519  1.0869
  204MOL0     H27539   9.359   2.149   8.066  0.7016  1.5861  1.0478
  204MOL0     H27540   9.190   2.122   7.997  0.7377 -1.2040 -1.9961
  205MOL0     O27541   4.823  10.792  10.870  0.7743 -0.4029  0.4963
  205MOL0     C27542   4.879  10.743  10.768  0.1428 -0.6011  0.8398
  205MOL0     O27543   4.813  10.681  10.659  0.5353  0.1117 -0.3864
  205MOL0     C27544   4.681  10.649  10.666  0.5348  0.3600 -0.7392
  205MOL0     C27545   4.601  10.643  10.553 -0.2221 -0.1038  0.2715
  205MOL0     C27546   4.477  10.592  10.548 -0.2587 -1.1452  0.5109
  205MOL0     C27547   4.409  10.556  10.666 -0.0283 -0.3693  0.4860
  205MOL0     O27548   4.278  10.519  10.676 -0.1876  0.3933  0.5301
  205MOL0     C27549   4.200  10.518  10.560  0.0694 -0.7089  0.6229
  205MOL0     C27550   4.067  10.440  10.583 -0.0311 -0.4796  0.1134
  205MOL0     C27551   3.997  10.436  10.452 -0.4686  0.4441  0.1019
  205MOL0     C27552   3.884  10.323  10.438  0.1332  0.1921 -1.2029
  205MOL0     C27553   3.767  10.337  10.530  0.0996  1.3562 -0.4455
  205MOL0     C27554   3.710  10.475  10.545  0.0391  0.0157 -0.6850
  205MOL0     C27555   3.572  10.471  10.612 -0.2101 -0.4860 -0.6664
  205MOL0     C27556   3.564  10.426  10.764  0.1734  0.4828 -0.3557
  205MOL0     N27557   3.662  10.486  10.860 -0.0468 -0.2991  0.1021
  205MOL0     C27558   3.673  10.624  10.875  0.9454 -0.0434  0.2284
  205MOL0     C27559   3.743  10.632  10.993  0.4577  0.3828 -0.4997
  205MOL0     C27560   3.776  10.761  11.060  0.0655 -0.0366  0.0805
  205MOL0     C27561   3.678  10.799  11.174  0.5743  0.3635  0.2022
  205MOL0     C27562   3.686  10.949  11.211 -0.3964 -0.0485  0.0065
  205MOL0     C27563   3.826  10.986  11.257 -0.4657 -0.4660  0.4632
  205MOL0     O27564   3.901  11.030  11.146 -0.4067  0.1719  0.5415
  205MOL0     C27565   3.997  11.127  11.169  0.0190 -0.0632 -0.8734
  205MOL0     C27566   4.060  11.137  11.291 -0.1901  0.0479  0.9177
  205MOL0     C27567   4.151  11.237  11.320  0.6680  0.3508  0.7496
  205MOL0     C27568   4.184  11.330  11.221 -0.5827  0.0140 -1.0131
  205MOL0     C27569   4.289  11.431  11.254 -0.1777 -0.1852 -0.1153
  205MOL0     O27570   4.387  11.390  11.346  0.4445 -0.5966  0.2014
  205MOL0     C27571   4.492  11.477  11.376 -0.2609 -0.3815  0.3804
  205MOL0     C27572   4.538  11.467  11.513  0.3045 -0.5173 -0.6903
  205MOL0     C27573   4.635  11.558  11.561 -0.8790 -0.1193  0.2619
  205MOL0     C27574   4.687  11.656  11.475  0.6491 -1.1534  1.0092
  205MOL0     O27575   4.782  11.740  11.532  0.0850  0.0714  0.0884
  205MOL0     C27576   4.820  11.863  11.462 -0.6509 -0.5039  0.2852
  205MOL0     C27577   4.937  11.931  11.536  0.1791  0.0764  0.5438
  205MOL0     C27578   4.911  12.023  11.656  0.5248 -0.4662  0.3578
  205MOL0     C27579   5.030  12.096  11.716 -0.2673 -0.0474  0.2209
  205MOL0     C27580   5.007  12.189  11.835  0.3505  0.0751  0.2538
  205MOL0     C27581   4.906  12.300  11.785 -0.5170 -0.4829 -1.4235
  205MOL0     C27582   4.890  12.407  11.893  0.1957  0.8005  0.3453
  205MOL0     C27583   4.767  12.506  11.873  0.5531 -0.2456 -0.5956
  205MOL0    Cl27584   4.754  12.559  11.709  0.4062  0.3198 -0.3333
  205MOL0     C27585   4.643  11.666  11.341 -0.7318 -0.4810 -0.2811
  205MOL0     C27586   4.547  11.570  11.296  0.5631  0.5298 -0.6497
  205MOL0     O27587   4.291  11.531  11.195 -0.6586  0.0253 -0.2059
  205MOL0     C27588   4.122  11.320  11.100  0.2686  0.3196 -0.0613
  205MOL0     C27589   4.033  11.218  11.073  0.4651  0.4395  0.1157
  205MOL0     N27590   3.773  10.508  11.042  1.5063 -0.1471 -0.0300
  205MOL0     N27591   3.724  10.421  10.957  0.4755 -0.2019  0.3327
  205MOL0     C27592   4.478  10.566  10.786 -0.0230 -0.6530 -0.4569
  205MOL0     C27593   4.614  10.614  10.784  0.4997 -0.2298 -1.0029
  205MOL0     C27594   5.022  10.751  10.752 -0.1756 -0.1885 -0.2178
  205MOL0     C27595   5.092  10.655  10.679 -0.3165  0.7121  0.0222
  205MOL0     C27596   5.232  10.644  10.679 -0.4778 -0.4357 -0.0395
  205MOL0     C27597   5.308  10.745  10.741 -0.2981  0.0352  1.1044
  205MOL0     O27598   5.447  10.753  10.746  0.5790 -0.0474 -0.6213
  205MOL0     C27599   5.512  10.653  10.663 -0.7269  0.2986  0.2519
  205MOL0     C27600   5.660  10.702  10.637  0.1291  0.3462 -0.8971
  205MOL0     C27601   5.739  10.612  10.540  0.1245 -0.7263 -0.4908
  205MOL0     C27602   5.877  10.660  10.507 -0.1159 -0.0566  0.0502
  205MOL0     C27603   5.924  10.596  10.381  1.5824 -0.5687 -0.4517
  205MOL0     C27604   5.966  10.566  10.271 -0.2198 -0.2860 -0.7796
  205MOL0     C27605   5.241  10.842  10.815  0.5730 -0.3156  0.6805
  205MOL0     C27606   5.098  10.853  10.822  0.2008  0.7133  1.5237
  205MOL0     C27607   5.052  10.957  10.915  1.0845  0.4750  0.8289
  205MOL0     H27608   4.633  10.676  10.455  0.4271  1.2850  0.9225
  205MOL0     H27609   4.434  10.598  10.448  1.0935 -3.7517 -0.3260
  205MOL0     H27610   4.180  10.622  10.532  1.7242 -0.8923 -1.5816
  205MOL0     H27611   4.258  10.469  10.481 -0.8048 -0.1000 -0.4199
  205MOL0     H27612   4.007  10.481  10.665  0.8465  2.4902 -0.5813
  205MOL0     H27613   4.100  10.340  10.611 -1.1880 -0.4203  1.8339
  205MOL0     H27614   4.066  10.406  10.372 -1.3986  1.1650 -1.0142
  205MOL0     H27615   3.977  10.539  10.420 -0.4194  0.3158 -0.3515
  205MOL0     H27616   3.846  10.322  10.335  2.2983  0.9568 -2.0654
  205MOL0     H27617   3.938  10.228  10.441 -0.2207  0.0027 -0.6263
  205MOL0     H27618   3.691  10.273  10.484  1.0453  0.6611 -1.0673
  205MOL0     H27619   3.798  10.290  10.624  0.2664  1.2284 -0.5640
  205MOL0     H27620   3.775  10.549  10.593  0.1905  0.0827 -0.9892
  205MOL0     H27621   3.695  10.518  10.446 -2.1867 -0.4324 -0.5993
  205MOL0     H27622   3.509  10.400  10.558 -3.6593  0.5935  1.6045
  205MOL0     H27623   3.519  10.566  10.600  0.8868  0.0428 -1.5587
  205MOL0     H27624   3.462  10.444  10.799 -0.8677 -0.2026 -2.8480
  205MOL0     H27625   3.566  10.317  10.764 -0.7216  0.4568  0.0304
  205MOL0     H27626   3.631  10.705  10.817  1.5406 -0.4116 -0.7524
  205MOL0     H27627   3.872  10.750  11.110 -0.4538 -1.2558  0.8453
  205MOL0     H27628   3.776  10.839  10.982 -2.9808  0.4482  0.4306
  205MOL0     H27629   3.575  10.784  11.142  0.7232  2.7795 -1.6945
  205MOL0     H27630   3.695  10.733  11.260 -2.8942 -2.1611 -0.8392
  205MOL0     H27631   3.614  10.971  11.290 -0.3603  1.5748 -0.3807
  205MOL0     H27632   3.653  11.007  11.124  0.1427 -0.8119 -0.7312
  205MOL0     H27633   3.877  10.904  11.309  1.8277  1.5457  1.6012
  205MOL0     H27634   3.816  11.069  11.328  0.1593 -1.6905  2.0604
  205MOL0     H27635   4.030  11.063  11.365 -1.5397  1.6954  2.0947
  205MOL0     H27636   4.210  11.246  11.411  3.6950 -1.2454 -0.8997
  205MOL0     H27637   4.494  11.389  11.574 -0.2067  0.7654  0.6527
  205MOL0     H27638   4.676  11.553  11.662  2.0566 -0.1873 -0.8371
  205MOL0     H27639   4.857  11.844  11.361 -0.4866 -3.3908  0.7952
  205MOL0     H27640   4.734  11.929  11.453  0.7669  1.4582  0.5425
  205MOL0     H27641   4.999  11.852  11.579  0.3866 -1.4113 -2.2456
  205MOL0     H27642   5.000  12.001  11.479  1.6180  1.2332  3.3563
  205MOL0     H27643   4.837  12.101  11.632 -1.2915 -1.6854  1.6905
  205MOL0     H27644   4.869  11.957  11.733 -0.2488  1.1876  1.4297
  205MOL0     H27645   5.084  12.149  11.637  1.2600 -2.2770 -0.3446
  205MOL0     H27646   5.100  12.020  11.752 -2.8244 -2.3392  0.6732
  205MOL0     H27647   5.099  12.238  11.867 -0.7047  0.5373  2.8437
  205MOL0     H27648   4.967  12.141  11.925  0.8004  0.1720  0.5058
  205MOL0     H27649   4.965  12.352  11.709  1.2804 -1.4433 -0.7622
  205MOL0     H27650   4.808  12.264  11.751 -1.0372  0.3147 -0.7837
  205MOL0     H27651   4.978  12.469  11.911  0.2443  1.3233 -1.4820
  205MOL0     H27652   4.874  12.356  11.989 -3.5725  0.2448 -0.4142
  205MOL0     H27653   4.677  12.458  11.912  2.5889 -0.6254  4.3671
  205MOL0     H27654   4.776  12.597  11.935  0.9824  1.4699 -3.0396
  205MOL0     H27655   4.681  11.741  11.272  1.0836 -1.8839 -0.9033
  205MOL0     H27656   4.522  11.562  11.190 -1.0564  0.1429 -0.2655
  205MOL0     H27657   4.149  11.394  11.025  1.0766  3.9564  3.4776
  205MOL0     H27658   4.001  11.212  10.969 -1.7472  3.0667  0.5159
  205MOL0     H27659   4.425  10.525  10.872 -0.5825 -1.0935 -1.0078
  205MOL0     H27660   4.666  10.601  10.879  0.3644  0.1367 -0.8782
  205MOL0     H27661   5.043  10.571  10.630  3.2117 -0.7745 -1.3125
  205MOL0     H27662   5.271  10.560  10.622 -0.3947 -1.0567  0.9062
  205MOL0     H27663   5.466  10.647  10.564 -1.3801 -2.1056  0.6457
  205MOL0     H27664   5.504  10.555  10.710  0.7383 -0.0580 -0.1920
  205MOL0     H27665   5.718  10.709  10.729 -0.7703  0.2781 -0.3068
  205MOL0     H27666   5.650  10.798  10.587  0.4122  0.5462 -0.5731
  205MOL0     H27667   5.678  10.611  10.449  0.5701 -1.4880 -0.7868
  205MOL0     H27668   5.744  10.514  10.589  3.4864  0.5218  1.9914
  205MOL0     H27669   5.883  10.768  10.497 -0.4546 -0.1741 -1.8323
  205MOL0     H27670   5.947  10.637  10.588  0.3704  0.6368 -0.1670
  205MOL0     H27671   6.017  10.551  10.177 -1.0213  1.9188 -1.6202
  205MOL0     H27672   5.292  10.918  10.873  0.0592  0.1304  0.5587
  205MOL0     H27673   4.951  10.990  10.887  1.0401  0.0161  0.4321
  205MOL0     H27674   5.057  10.932  11.021  1.8640 -0.2388  0.6305
  205MOL0     H27675   5.114  11.047  10.910  0.2126  1.2026  2.3577
  206MOL0     O27676   5.456   0.295   6.348 -0.4782 -0.0157  0.2917
  206MOL0     C27677   5.420   0.301   6.233 -0.0041  0.6816  0.1641
  206MOL0     O27678   5.495   0.343   6.128  0.5882  0.4911 -0.3276
  206MOL0     C27679   5.629   0.359   6.140  0.2726  0.0964  0.1773
  206MOL0     C27680   5.710   0.246   6.166  0.3681 -0.0332 -0.0156
  206MOL0     C27681   5.847   0.262   6.190 -1.0705  0.3005  0.8120
  206MOL0     C27682   5.910   0.389   6.174  0.0168  0.9808  0.6701
  206MOL0     O27683   6.043   0.416   6.186 -0.3964  0.6090  0.5093
  206MOL0     C27684   6.121   0.312   6.239 -0.1512 -0.7500  0.4419
  206MOL0     C27685   6.260   0.372   6.284 -0.5545  1.0449  0.2209
  206MOL0     C27686   6.356   0.256   6.286  0.0739 -0.4926  0.4116
  206MOL0     C27687   6.471   0.273   6.381 -0.0578 -0.2259 -0.4822
  206MOL0     C27688   6.584   0.169   6.351 -0.2070  0.4831  0.1753
  206MOL0     C27689   6.721   0.234   6.355  0.5678  0.0522 -0.0473
  206MOL0     C27690   6.752   0.316   6.229  0.4058  0.9057 -0.0865
  206MOL0     C27691   6.897   0.342   6.245  0.7748 -0.1136  0.2269
  206MOL0     N27692   6.941   0.428   6.131 -0.2516  0.6755  0.3126
  206MOL0     C27693   6.942   0.563   6.119 -0.3850 -0.2176  0.1052
  206MOL0     C27694   6.990   0.591   5.995 -0.1131  0.0025  1.0069
  206MOL0     C27695   7.021   0.726   5.944 -0.0857  0.5784 -0.2058
  206MOL0     C27696   7.151   0.768   5.996 -0.2941 -0.8466  0.4139
  206MOL0     C27697   7.263   0.663   5.973 -0.0023 -0.7531 -0.2090
  206MOL0     C27698   7.399   0.727   6.000 -0.4129 -0.3458 -0.4322
  206MOL0     O27699   7.498   0.627   6.020 -0.0918 -0.0348 -0.7212
  206MOL0     C27700   7.616   0.672   6.076 -0.9200 -0.4366 -0.1402
  206MOL0     C27701   7.644   0.807   6.102 -0.0553  0.9625 -0.8530
  206MOL0     C27702   7.768   0.853   6.143  0.0339 -1.0227  1.0766
  206MOL0     C27703   7.876   0.762   6.164  0.0128 -0.5674 -0.3482
  206MOL0     C27704   8.002   0.813   6.213  0.4470  0.7449 -0.5128
  206MOL0     O27705   8.105   0.732   6.214 -0.5422  0.0474 -0.1578
  206MOL0     C27706   8.223   0.781   6.262  0.2276 -0.5550  0.0256
  206MOL0     C27707   8.265   0.764   6.394  0.1581  0.0495  0.8006
  206MOL0     C27708   8.392   0.814   6.434  0.0981  0.0873 -0.3823
  206MOL0     C27709   8.481   0.865   6.337  0.2297 -0.2382  0.2028
  206MOL0     O27710   8.611   0.904   6.372  0.5544 -0.0117 -0.1768
  206MOL0     C27711   8.714   0.808   6.361 -0.5514  0.3845 -0.5915
  206MOL0     C27712   8.840   0.893   6.378 -0.1113 -0.4917 -0.4565
  206MOL0     C27713   8.965   0.817   6.419  0.0463 -0.2837  0.3410
  206MOL0     C27714   9.090   0.905   6.443  0.4898 -0.5424 -0.2599
  206MOL0     C27715   9.194   0.831   6.522  0.5720 -0.3760 -0.1730
  206MOL0     C27716   9.321   0.917   6.539 -0.7308 -0.0796  0.0173
  206MOL0     C27717   9.430   0.841   6.618 -0.3469  0.7807  0.3330
  206MOL0     C27718   9.528   0.943   6.667 -1.1546 -0.5966 -0.1397
  206MOL0    Cl27719   9.605   1.017   6.524  0.2299  0.2630  0.3224
  206MOL0     C27720   8.435   0.882   6.207 -0.6988 -0.2713  0.0862
  206MOL0     C27721   8.304   0.842   6.172 -0.9162 -0.0123 -0.4615
  206MOL0     O27722   8.006   0.932   6.245  0.7041  0.2316 -0.4317
  206MOL0     C27723   7.848   0.630   6.149 -0.0100 -0.4416 -0.3236
  206MOL0     C27724   7.721   0.582   6.108  0.6164  0.3475 -0.4690
  206MOL0     N27725   7.004   0.472   5.926 -0.1727 -0.3146 -0.1372
  206MOL0     N27726   6.973   0.376   6.006 -0.3469  0.3112 -0.4752
  206MOL0     C27727   5.820   0.493   6.126  0.0997 -0.4480 -0.5097
  206MOL0     C27728   5.687   0.481   6.106  0.5714 -0.4307  0.1381
  206MOL0     C27729   5.273   0.310   6.212 -0.6967 -0.1051  0.6532
  206MOL0     C27730   5.187   0.203   6.248 -0.4401 -0.5163 -0.5820
  206MOL0     C27731   5.051   0.202   6.225 -0.3083 -0.6196 -0.5949
  206MOL0     C27732   4.990   0.312   6.159  0.3383  0.0562 -0.5663
  206MOL0     O27733   4.855   0.306   6.152 -0.0270  0.6108 -0.0111
  206MOL0     C27734   4.781   0.423   6.129  0.0519 -0.0735 -0.2719
  206MOL0     C27735   4.635   0.381   6.118  0.5519 -0.7007  0.0379
  206MOL0     C27736   4.553   0.505   6.064 -0.0797  0.7078  0.8294
  206MOL0     C27737   4.409   0.455   6.061  0.7092 -0.1328 -0.8187
  206MOL0     C27738   4.333   0.558   5.992 -0.0871  0.2702  0.3862
  206MOL0     C27739   4.248   0.627   5.952  0.6076  0.1971  0.0757
  206MOL0     C27740   5.074   0.414   6.115  0.1183  0.4209  0.2535
  206MOL0     C27741   5.213   0.420   6.143 -0.4125 -0.0075 -0.4542
  206MOL0     C27742   5.290   0.544   6.100 -0.9600 -0.2478 -0.4562
  206MOL0     H27743   5.658   0.153   6.186 -1.3337  0.6647 -0.9605
  206MOL0     H27744   5.897   0.177   6.237 -0.7479  1.5678  2.8615
  206MOL0     H27745   6.080   0.264   6.328 -0.3857 -1.2897  0.0458
  206MOL0     H27746   6.133   0.230   6.167  4.4026 -1.2565  1.4315
  206MOL0     H27747   6.267   0.422   6.381 -1.6842  0.8626  0.3993
  206MOL0     H27748   6.287   0.446   6.209 -0.2575  1.0701  0.3490
  206MOL0     H27749   6.396   0.245   6.185  0.9956  2.5129  0.3688
  206MOL0     H27750   6.302   0.164   6.313 -1.5416 -0.2522 -1.7450
  206MOL0     H27751   6.507   0.376   6.370  2.0522 -0.6645  1.6406
  206MOL0     H27752   6.430   0.260   6.482 -2.2601  1.3102 -1.0937
  206MOL0     H27753   6.588   0.088   6.425 -2.1161  0.0710 -0.1189
  206MOL0     H27754   6.556   0.132   6.252 -1.2494  2.3506 -0.2613
  206MOL0     H27755   6.743   0.269   6.456  2.2466 -2.7779  0.6938
  206MOL0     H27756   6.795   0.155   6.341 -1.0192 -1.3927 -0.7415
  206MOL0     H27757   6.689   0.405   6.226  3.7600  3.4937 -1.7816
  206MOL0     H27758   6.725   0.263   6.137 -0.4646 -0.8763  1.1439
  206MOL0     H27759   6.925   0.396   6.336  1.3053  3.1940 -1.7549
  206MOL0     H27760   6.960   0.254   6.230  0.6330 -0.3127  0.7729
  206MOL0     H27761   6.919   0.638   6.195 -0.0901  0.2297 -0.2455
  206MOL0     H27762   7.018   0.723   5.834  0.4430  1.5317 -0.2578
  206MOL0     H27763   6.941   0.794   5.975 -1.0382  0.6469 -2.6062
  206MOL0     H27764   7.175   0.865   5.952 -0.9454 -0.3564  1.1278
  206MOL0     H27765   7.128   0.793   6.100 -1.5105  0.6572 -0.1793
  206MOL0     H27766   7.246   0.625   5.872 -1.4362  3.2523 -1.6822
  206MOL0     H27767   7.256   0.581   6.045 -1.8704  1.0858  1.8399
  206MOL0     H27768   7.377   0.784   6.091  0.2216 -1.2976  0.3364
  206MOL0     H27769   7.442   0.787   5.919  1.2383 -0.9111  0.0097
  206MOL0     H27770   7.563   0.879   6.097 -1.3489  0.0160  3.2055
  206MOL0     H27771   7.780   0.958   6.167  1.1331 -1.0637  0.7454
  206MOL0     H27772   8.194   0.722   6.465  1.5133  0.0341  2.1895
  206MOL0     H27773   8.422   0.812   6.539 -1.5684 -1.0671  0.1103
  206MOL0     H27774   8.698   0.736   6.442 -3.2019  2.2651  0.7289
  206MOL0     H27775   8.713   0.757   6.264  1.6722  1.1620 -1.0648
  206MOL0     H27776   8.855   0.948   6.284 -1.6539  0.7905 -0.0088
  206MOL0     H27777   8.826   0.972   6.452  0.9739 -1.8161  1.2192
  206MOL0     H27778   8.936   0.767   6.512 -0.4102 -0.7232 -0.0328
  206MOL0     H27779   8.982   0.747   6.338  2.1080  1.4107 -0.7885
  206MOL0     H27780   9.065   0.995   6.500 -0.5243  0.6704 -2.4871
  206MOL0     H27781   9.132   0.939   6.348 -0.0224  1.3826  0.1604
  206MOL0     H27782   9.215   0.733   6.479 -2.2341 -1.4914  0.7817
  206MOL0     H27783   9.158   0.813   6.623 -0.7043 -2.7986 -0.9900
  206MOL0     H27784   9.352   0.954   6.441 -0.1181 -0.2918  0.1318
  206MOL0     H27785   9.288   1.001   6.601 -3.3277 -0.9377 -0.0726
  206MOL0     H27786   9.474   0.767   6.551  0.3843  0.9473  0.6078
  206MOL0     H27787   9.397   0.786   6.706  2.8463 -0.4854  0.8868
  206MOL0     H27788   9.480   1.022   6.724 -3.8417 -0.5537 -2.2808
  206MOL0     H27789   9.608   0.895   6.725 -0.3052 -2.1293 -2.4055
  206MOL0     H27790   8.504   0.916   6.131 -0.3115 -1.7888 -0.2807
  206MOL0     H27791   8.274   0.833   6.068 -0.8450  1.8229 -0.6836
  206MOL0     H27792   7.929   0.558   6.159  2.0499  1.5703 -1.4383
  206MOL0     H27793   7.703   0.477   6.089 -1.5254  0.5650  0.0747
  206MOL0     H27794   5.856   0.595   6.123 -0.2432 -0.3427 -2.3054
  206MOL0     H27795   5.621   0.565   6.083  2.5721  0.7023 -1.8086
  206MOL0     H27796   5.227   0.112   6.291 -1.5975 -1.0858 -0.6683
  206MOL0     H27797   4.988   0.121   6.259 -1.1101 -0.3221 -1.3295
  206MOL0     H27798   4.814   0.476   6.039 -0.0174 -0.6815 -0.6577
  206MOL0     H27799   4.798   0.495   6.210 -0.5163  0.5074 -0.6663
  206MOL0     H27800   4.599   0.349   6.216 -0.9727 -0.8759 -0.5568
  206MOL0     H27801   4.623   0.297   6.049 -1.4232 -0.2611 -0.2067
  206MOL0     H27802   4.575   0.528   5.960  0.5820  1.2231  1.0800
  206MOL0     H27803   4.572   0.592   6.128  2.4273  0.9899 -0.1866
  206MOL0     H27804   4.385   0.366   6.002 -0.6780  0.8589 -1.8255
  206MOL0     H27805   4.385   0.444   6.167  0.7367  2.0172 -0.5481
  206MOL0     H27806   4.170   0.690   5.913  0.2198  1.2898  2.4094
  206MOL0     H27807   5.027   0.492   6.057 -2.0182 -0.6022  0.4988
  206MOL0     H27808   5.338   0.516   6.006  3.2290  0.3012  1.2857
  206MOL0     H27809   5.222   0.628   6.086  1.0753  1.6506  0.3618
  206MOL0     H27810   5.361   0.570   6.180 -2.0432 -0.5456  0.6352
  207MOL0     O27811   1.554  10.919   1.844 -0.3420 -0.0513  0.5833
  207MOL0     C27812   1.559  10.981   1.743  0.0659 -0.2051  0.3997
  207MOL0     O27813   1.663  11.031   1.683  0.5951  0.4637  0.0117
  207MOL0     C27814   1.776  11.065   1.754 -0.3223  0.3010  0.3335
  207MOL0     C27815   1.784  11.198   1.804 -0.8467  1.0049 -0.3504
  207MOL0     C27816   1.891  11.233   1.890  0.3268  1.0055 -0.1771
  207MOL0     C27817   1.990  11.136   1.913  0.6212 -0.0696 -0.3253
  207MOL0     O27818   2.089  11.171   1.993 -0.3814  1.0950 -0.3879
  207MOL0     C27819   2.217  11.109   1.965 -0.0470 -0.4449  0.5706
  207MOL0     C27820   2.318  11.182   2.057  0.3477  0.7940  1.2775
  207MOL0     C27821   2.460  11.125   2.053  0.3807  0.1643 -0.1527
  207MOL0     C27822   2.569  11.224   2.128 -0.5291 -0.2873  0.1062
  207MOL0     C27823   2.608  11.355   2.062 -0.0269 -0.1324 -0.5604
  207MOL0     C27824   2.669  11.340   1.914 -0.6235 -0.6201 -0.3687
  207MOL0     C27825   2.692  11.472   1.836  0.3554  0.6899  0.8876
  207MOL0     C27826   2.783  11.574   1.910  0.0264 -0.0866 -1.0251
  207MOL0     N27827   2.923  11.531   1.914  0.4367  0.4393 -0.2315
  207MOL0     C27828   3.000  11.542   1.803 -0.4526 -0.5992 -0.2708
  207MOL0     C27829   3.119  11.483   1.851 -0.0647  0.2679  0.7834
  207MOL0     C27830   3.248  11.470   1.785  0.2290  0.5811 -0.2085
  207MOL0     C27831   3.340  11.581   1.836  0.6549  0.3724 -0.3202
  207MOL0     C27832   3.490  11.549   1.832  0.1145  0.5905 -0.3521
  207MOL0     C27833   3.578  11.669   1.857 -0.6783 -0.8256 -0.5213
  207MOL0     O27834   3.705  11.626   1.901 -0.2349  0.7408 -0.2775
  207MOL0     C27835   3.792  11.717   1.945 -0.3954  0.6158  0.7085
  207MOL0     C27836   3.767  11.856   1.974  0.2636 -0.6175  0.0841
  207MOL0     C27837   3.866  11.936   2.025  0.0301  0.3520 -0.2716
  207MOL0     C27838   3.994  11.886   2.049  0.0574  0.3841  0.2499
  207MOL0     C27839   4.097  11.976   2.110 -0.1502 -0.1464  0.4401
  207MOL0     O27840   4.071  12.101   2.155  1.0182 -0.4792 -0.0169
  207MOL0     C27841   4.173  12.164   2.223  0.5510  0.7897 -0.1125
  207MOL0     C27842   4.161  12.173   2.363 -0.2735 -0.9494 -0.2989
  207MOL0     C27843   4.271  12.233   2.431  0.3721  0.4620  0.5983
  207MOL0     C27844   4.370  12.303   2.362 -0.4158  0.4320  0.8747
  207MOL0     O27845   4.461  12.375   2.427  0.7877  0.1086 -0.6495
  207MOL0     C27846   4.432  12.418   2.567 -0.3794  0.8604  0.6503
  207MOL0     C27847   4.542  12.521   2.606 -0.2663 -0.1192 -0.7730
  207MOL0     C27848   4.521  12.575   2.748  0.0021  0.0959  0.1557
  207MOL0     C27849   4.383  12.638   2.774  0.2722  0.3830  0.2970
  207MOL0     C27850   4.385  12.699   2.915  0.4078 -0.6824 -0.2923
  207MOL0     C27851   4.265  12.785   2.946 -0.4079 -0.3067 -0.8615
  207MOL0     C27852   4.276  12.842   3.094 -0.5205 -0.0387 -0.3576
  207MOL0     C27853   4.211  12.981   3.103 -0.0705 -0.0334  0.1065
  207MOL0    Cl27854   4.031  12.967   3.059  0.1529  0.4792  0.1183
  207MOL0     C27855   4.377  12.299   2.221  0.9525 -0.6688  0.3547
  207MOL0     C27856   4.278  12.225   2.154  0.5753 -0.1573 -0.4641
  207MOL0     O27857   4.205  11.932   2.125  0.0730  0.6574 -0.6811
  207MOL0     C27858   4.021  11.749   2.018  0.8679 -0.1827  0.0944
  207MOL0     C27859   3.919  11.666   1.971 -1.0037 -0.1615 -0.0944
  207MOL0     N27860   3.110  11.457   1.983 -0.6657  0.1579 -0.3939
  207MOL0     N27861   2.994  11.493   2.020 -0.4390 -0.3499 -0.2923
  207MOL0     C27862   1.971  11.004   1.876  0.0842 -0.6385  0.5322
  207MOL0     C27863   1.858  10.964   1.797 -1.0690  0.5470 -0.8516
  207MOL0     C27864   1.420  10.998   1.680 -0.3702 -0.9046 -0.0249
  207MOL0     C27865   1.314  10.922   1.724 -0.5382 -0.4489  0.9261
  207MOL0     C27866   1.188  10.925   1.672  0.5895 -0.0653 -0.3526
  207MOL0     C27867   1.153  11.023   1.586 -0.5174  0.7538  0.2941
  207MOL0     O27868   1.016  11.023   1.552 -0.4379  0.2042 -0.7861
  207MOL0     C27869   0.985  11.108   1.440 -0.9509  0.9263 -0.3006
  207MOL0     C27870   0.831  11.090   1.414  0.1030 -0.1387  0.8080
  207MOL0     C27871   0.785  11.183   1.293  0.5043  0.0731 -1.0186
  207MOL0     C27872   0.636  11.182   1.282  0.4804 -0.4165 -0.3716
  207MOL0     C27873   0.601  11.260   1.160  0.9361 -1.0790  0.2031
  207MOL0     C27874   0.563  11.309   1.051  0.6968 -0.0138  0.2378
  207MOL0     C27875   1.251  11.102   1.527 -0.1951  0.1944 -0.7099
  207MOL0     C27876   1.386  11.097   1.575  0.0149  0.5741 -0.1875
  207MOL0     C27877   1.491  11.184   1.502  0.5357  0.4772 -1.0044
  207MOL0     H27878   1.702  11.266   1.786 -2.4026 -1.1788 -2.0830
  207MOL0     H27879   1.910  11.332   1.929  3.6257  0.6120 -0.4508
  207MOL0     H27880   2.228  11.000   1.976 -0.6736 -0.4939  0.7865
  207MOL0     H27881   2.244  11.129   1.861  3.6971 -0.2166  1.4663
  207MOL0     H27882   2.280  11.176   2.159  1.1992 -1.2587  1.5242
  207MOL0     H27883   2.340  11.285   2.027  0.7895  0.9608  2.1245
  207MOL0     H27884   2.492  11.114   1.950  0.7484 -0.7332  0.0461
  207MOL0     H27885   2.455  11.023   2.093 -1.7430 -0.8632 -2.7442
  207MOL0     H27886   2.529  11.244   2.228 -1.0725  2.0626 -0.5263
  207MOL0     H27887   2.657  11.159   2.134 -1.6887 -1.9645 -0.3136
  207MOL0     H27888   2.528  11.429   2.060  1.4229  1.5077  0.0743
  207MOL0     H27889   2.686  11.405   2.120 -0.2287  0.1397 -0.5193
  207MOL0     H27890   2.766  11.292   1.931 -0.5918 -0.0898  1.1111
  207MOL0     H27891   2.609  11.271   1.854  0.5135 -0.3178 -1.9279
  207MOL0     H27892   2.595  11.514   1.807 -0.1156 -1.0914 -0.2359
  207MOL0     H27893   2.734  11.444   1.739  0.3860 -1.9762  1.5902
  207MOL0     H27894   2.767  11.667   1.854 -1.7263 -0.0105 -0.4399
  207MOL0     H27895   2.761  11.608   2.012  2.3487 -1.8807  0.1723
  207MOL0     H27896   2.983  11.579   1.702 -1.1614  0.3574  0.1797
  207MOL0     H27897   3.301  11.380   1.817  1.2649  2.0529  2.5665
  207MOL0     H27898   3.233  11.478   1.677 -0.6740  1.4217 -0.0391
  207MOL0     H27899   3.313  11.662   1.767 -1.5405 -1.7003 -2.0961
  207MOL0     H27900   3.317  11.604   1.940 -0.2918  0.2801 -0.4973
  207MOL0     H27901   3.531  11.508   1.739  2.1802  1.0631  0.2975
  207MOL0     H27902   3.514  11.469   1.904  2.2707 -2.0857 -3.7161
  207MOL0     H27903   3.537  11.729   1.938 -0.5828 -0.6706 -0.5862
  207MOL0     H27904   3.569  11.728   1.765  1.2784 -0.5946 -0.6094
  207MOL0     H27905   3.670  11.903   1.961 -0.3688 -1.5409  1.2258
  207MOL0     H27906   3.849  12.040   2.052  2.3119  0.2417  1.8987
  207MOL0     H27907   4.077  12.137   2.421 -0.0445  0.9858  1.3568
  207MOL0     H27908   4.266  12.234   2.539 -0.0184 -0.9776  0.6169
  207MOL0     H27909   4.332  12.462   2.562 -1.1466 -0.7906  0.8380
  207MOL0     H27910   4.432  12.335   2.639  1.8253 -0.1263 -0.3806
  207MOL0     H27911   4.642  12.477   2.596 -0.6501 -1.4625  0.8898
  207MOL0     H27912   4.544  12.605   2.535  2.9010  1.1261  0.5576
  207MOL0     H27913   4.546  12.497   2.821  1.3207 -0.2813 -0.6677
  207MOL0     H27914   4.597  12.653   2.757  0.9342 -1.0213  3.3279
  207MOL0     H27915   4.305  12.568   2.742  0.8795 -0.0620 -0.2332
  207MOL0     H27916   4.389  12.717   2.699  2.2512 -0.9628 -1.0731
  207MOL0     H27917   4.466  12.767   2.940  0.3439 -1.3416  1.9959
  207MOL0     H27918   4.392  12.619   2.989  1.1743  0.2323  0.6498
  207MOL0     H27919   4.239  12.854   2.866 -0.1247 -2.3333 -2.7868
  207MOL0     H27920   4.189  12.707   2.942 -0.0524 -0.5934 -2.3336
  207MOL0     H27921   4.379  12.861   3.126 -0.8961 -0.1593  0.9792
  207MOL0     H27922   4.235  12.776   3.171  1.5839 -2.4901 -1.2066
  207MOL0     H27923   4.212  13.026   3.202  0.2913  2.0355 -0.7796
  207MOL0     H27924   4.252  13.061   3.041 -2.1708  1.7756  0.9379
  207MOL0     H27925   4.451  12.355   2.166  0.7743 -0.9702 -0.1975
  207MOL0     H27926   4.280  12.232   2.046 -2.2734  2.4716 -0.4962
  207MOL0     H27927   4.118  11.703   2.033  0.3696 -0.4585  3.2851
  207MOL0     H27928   3.944  11.565   1.941  0.0769  0.5160 -1.5926
  207MOL0     H27929   2.042  10.931   1.915 -1.4902 -0.8048  3.2666
  207MOL0     H27930   1.831  10.861   1.776  1.3197 -0.4026  0.3429
  207MOL0     H27931   1.329  10.847   1.800 -1.6351 -1.6312  0.0139
  207MOL0     H27932   1.121  10.846   1.706 -0.7311  0.6185 -1.2463
  207MOL0     H27933   1.045  11.079   1.353  2.6432 -0.0924  2.2592
  207MOL0     H27934   1.000  11.215   1.459  1.4697  0.8368 -1.3618
  207MOL0     H27935   0.773  11.116   1.503  0.5106 -1.0231  1.3452
  207MOL0     H27936   0.804  10.988   1.383 -2.5341  0.6961  0.0372
  207MOL0     H27937   0.833  11.162   1.197  1.9867 -2.5550  0.1761
  207MOL0     H27938   0.815  11.283   1.324 -0.4200 -0.3448  1.4568
  207MOL0     H27939   0.592  11.082   1.276  0.3206 -0.5357  1.9142
  207MOL0     H27940   0.589  11.226   1.370  0.3958  0.6261 -0.9188
  207MOL0     H27941   0.532  11.348   0.957  0.5507  1.3621  0.8323
  207MOL0     H27942   1.234  11.171   1.446  1.9561  1.8161  0.1029
  207MOL0     H27943   1.532  11.250   1.580 -0.1866  1.4598 -1.4412
  207MOL0     H27944   1.565  11.134   1.440  1.2558 -0.1074  0.2724
  207MOL0     H27945   1.444  11.244   1.424 -1.5938 -0.0876 -0.2143
  208MOL0     O27946   8.138   5.378   4.277  0.0349  0.2797 -0.0484
  208MOL0     C27947   8.087   5.313   4.365  0.3166 -0.3762 -0.5847
  208MOL0     O27948   8.155   5.273   4.483 -0.8452  0.2107 -0.3512
  208MOL0     C27949   8.289   5.298   4.507 -0.2403 -0.1461  0.0935
  208MOL0     C27950   8.351   5.420   4.474  0.2128 -0.5398  0.6570
  208MOL0     C27951   8.482   5.451   4.503 -0.6787  0.0393  0.0111
  208MOL0     C27952   8.561   5.358   4.578  0.3037 -0.2100  0.3829
  208MOL0     O27953   8.691   5.371   4.613  0.0950  0.8131  0.1818
  208MOL0     C27954   8.755   5.497   4.614  0.8162 -0.3181  0.0843
  208MOL0     C27955   8.841   5.500   4.741  0.7905  0.2024 -0.4288
  208MOL0     C27956   8.938   5.624   4.738 -0.5533  0.3650 -0.5057
  208MOL0     C27957   9.048   5.607   4.850  0.2318  0.4846 -0.2403
  208MOL0     C27958   9.099   5.749   4.879 -1.3573 -0.6787 -0.0575
  208MOL0     C27959   9.230   5.777   4.799  0.3314 -0.2664 -0.1403
  208MOL0     C27960   9.305   5.905   4.830 -0.4391  0.0580 -0.3344
  208MOL0     C27961   9.438   5.915   4.748 -0.5384  0.2458 -0.1121
  208MOL0     N27962   9.543   5.851   4.830 -0.2064 -0.5065  0.0849
  208MOL0     C27963   9.610   5.731   4.816 -0.1700  0.0288 -0.1719
  208MOL0     C27964   9.698   5.722   4.921  0.4944  0.0525  0.4833
  208MOL0     C27965   9.788   5.611   4.963 -0.1547  0.2631  0.4246
  208MOL0     C27966   9.935   5.624   4.932  0.4677  0.1429  0.1002
  208MOL0     C27967  10.000   5.740   4.996 -0.1667 -0.1462  0.3237
  208MOL0     C27968  10.151   5.738   4.980  0.4476 -0.4976 -0.6692
  208MOL0     O27969  10.205   5.636   5.072 -0.6378  0.4079 -0.4987
  208MOL0     C27970  10.342   5.635   5.071 -0.1081  0.0468 -0.5295
  208MOL0     C27971  10.403   5.652   5.200 -0.1262  0.4833  0.1271
  208MOL0     C27972  10.541   5.628   5.213 -0.1018  0.5868  0.8974
  208MOL0     C27973  10.618   5.586   5.095  0.7041 -0.2118  0.0125
  208MOL0     C27974  10.756   5.540   5.097 -0.8068  0.1497  0.0974
  208MOL0     O27975  10.824   5.583   5.210  0.3444  0.1345  0.1611
  208MOL0     C27976  10.951   5.531   5.222 -0.5018 -0.6775  0.4145
  208MOL0     C27977  10.970   5.403   5.249  1.1004  0.6285  0.1449
  208MOL0     C27978  11.099   5.349   5.269  0.7110 -0.9647  1.2641
  208MOL0     C27979  11.212   5.439   5.272  0.7787  0.1894  0.0191
  208MOL0     O27980  11.325   5.372   5.311 -0.1274 -0.5926 -0.0712
  208MOL0     C27981  11.445   5.446   5.334  0.5171  0.1011  0.7152
  208MOL0     C27982  11.554   5.354   5.390 -0.5959 -0.5333  0.1496
  208MOL0     C27983  11.562   5.223   5.314  0.7873  0.3901  0.5051
  208MOL0     C27984  11.672   5.140   5.382  0.3723 -0.8132  0.2858
  208MOL0     C27985  11.708   5.008   5.316 -0.2346 -0.1855 -0.0432
  208MOL0     C27986  11.799   4.921   5.393 -0.0332 -0.0519 -0.4163
  208MOL0     C27987  11.772   4.773   5.366 -0.6182  0.2712  0.0715
  208MOL0     C27988  11.886   4.700   5.434  0.7469  0.0663 -0.4543
  208MOL0    Cl27989  11.889   4.736   5.617  0.3359 -0.1800  0.2086
  208MOL0     C27990  11.194   5.577   5.256  0.6102  0.1912  0.2240
  208MOL0     C27991  11.067   5.617   5.222  0.1855  0.1747  0.9706
  208MOL0     O27992  10.803   5.464   5.012 -0.4285  1.3097  0.0560
  208MOL0     C27993  10.553   5.593   4.973 -0.4212 -0.5981 -0.1901
  208MOL0     C27994  10.419   5.608   4.955 -0.2435 -0.8965  0.2632
  208MOL0     N27995   9.679   5.834   4.999  0.1880 -0.3411 -0.4426
  208MOL0     N27996   9.593   5.919   4.942  0.3591  0.5186  1.2964
  208MOL0     C27997   8.500   5.234   4.613 -0.2422  0.0879 -0.4187
  208MOL0     C27998   8.366   5.208   4.582 -0.3289  0.1300 -0.0104
  208MOL0     C27999   7.955   5.250   4.350  0.3968 -0.1339  0.3035
  208MOL0     C28000   7.910   5.160   4.450  0.1110  0.1414  0.8777
  208MOL0     C28001   7.784   5.097   4.441 -0.9336  0.8370  0.4456
  208MOL0     C28002   7.702   5.126   4.331 -0.1919  0.3869  0.5517
  208MOL0     O28003   7.583   5.059   4.300  0.4538 -1.0007  0.4620
  208MOL0     C28004   7.530   4.954   4.388 -1.2377 -0.5472  0.0021
  208MOL0     C28005   7.470   5.016   4.513 -0.4521 -0.3917 -0.6503
  208MOL0     C28006   7.471   4.910   4.619 -0.1062  0.0603 -0.7369
  208MOL0     C28007   7.405   4.958   4.750  0.7276 -0.1098 -0.2721
  208MOL0     C28008   7.451   4.867   4.858 -0.3121 -0.0350 -0.2687
  208MOL0     C28009   7.468   4.787   4.951  0.3175 -0.8940 -0.6682
  208MOL0     C28010   7.742   5.223   4.247  0.5663  0.7118 -0.7591
  208MOL0     C28011   7.867   5.283   4.247  0.8282 -0.7911 -0.4282
  208MOL0     C28012   7.893   5.373   4.132 -0.2038 -0.5097  0.4323
  208MOL0     H28013   8.295   5.506   4.440 -0.8658 -0.1557  3.2021
  208MOL0     H28014   8.520   5.550   4.480 -0.3141  0.7940  3.4114
  208MOL0     H28015   8.804   5.511   4.518 -2.5942  0.1005 -1.7617
  208MOL0     H28016   8.689   5.584   4.607  2.5840  0.9932 -1.0920
  208MOL0     H28017   8.902   5.409   4.741  0.2340 -0.2651 -3.1579
  208MOL0     H28018   8.767   5.498   4.821 -0.0669 -0.7253 -1.2065
  208MOL0     H28019   8.871   5.711   4.744 -0.9580  0.0022  0.4633
  208MOL0     H28020   8.997   5.631   4.647 -1.0062 -1.1348 -0.9399
  208MOL0     H28021   8.998   5.558   4.933  1.9280  1.0085  1.1591
  208MOL0     H28022   9.125   5.541   4.808  0.4674  1.2286 -1.0168
  208MOL0     H28023   9.021   5.823   4.860 -1.0009 -0.1369  0.5771
  208MOL0     H28024   9.120   5.748   4.986  0.2887 -0.8375 -0.3657
  208MOL0     H28025   9.289   5.686   4.812 -0.0341 -0.2217  2.4068
  208MOL0     H28026   9.191   5.777   4.697 -2.0033 -1.2591  0.6697
  208MOL0     H28027   9.316   5.917   4.939 -0.5442 -1.8463 -0.0868
  208MOL0     H28028   9.250   5.993   4.795  0.5867  0.9861  0.3030
  208MOL0     H28029   9.416   5.871   4.650 -1.9523  0.6540 -0.0104
  208MOL0     H28030   9.471   6.017   4.727  0.4623 -0.4718 -2.4385
  208MOL0     H28031   9.599   5.663   4.733  1.6295  0.8351 -1.1287
  208MOL0     H28032   9.787   5.600   5.072  1.1677 -0.3290  0.3914
  208MOL0     H28033   9.754   5.515   4.923 -1.1230  0.2411  1.2601
  208MOL0     H28034   9.987   5.534   4.965  1.5010 -0.7484 -3.4640
  208MOL0     H28035   9.956   5.633   4.825 -1.5079  0.5335 -0.3012
  208MOL0     H28036   9.971   5.753   5.100  0.2941  3.3478  0.1392
  208MOL0     H28037   9.961   5.832   4.953  0.3757  0.0878  0.3278
  208MOL0     H28038  10.196   5.835   5.005 -1.5136 -0.0984  1.7991
  208MOL0     H28039  10.172   5.719   4.875 -3.5662 -0.8039 -1.5552
  208MOL0     H28040  10.340   5.679   5.285 -0.2440  0.0822  0.1725
  208MOL0     H28041  10.587   5.633   5.311  0.8508 -1.4070  0.6103
  208MOL0     H28042  10.889   5.331   5.258 -0.3194  2.3167  1.6398
  208MOL0     H28043  11.116   5.242   5.265  0.5405 -1.0359 -3.5994
  208MOL0     H28044  11.474   5.482   5.234  0.1180 -0.0161  0.5549
  208MOL0     H28045  11.422   5.535   5.393 -1.6089  0.5410 -0.6778
  208MOL0     H28046  11.645   5.412   5.371 -0.5239 -0.6073  0.2705
  208MOL0     H28047  11.550   5.339   5.498  2.5209  3.8717  1.1506
  208MOL0     H28048  11.465   5.172   5.317 -0.4810  2.6802  0.9755
  208MOL0     H28049  11.579   5.257   5.211  1.1669  2.6581  1.2606
  208MOL0     H28050  11.626   5.112   5.478 -0.6856  1.2467  0.4404
  208MOL0     H28051  11.766   5.190   5.405 -0.4635  0.3103  1.4804
  208MOL0     H28052  11.748   5.022   5.215 -0.1047  0.3306  0.0790
  208MOL0     H28053  11.612   4.956   5.303  0.7367 -2.0085 -0.3823
  208MOL0     H28054  11.902   4.947   5.364  0.9330 -1.1476  1.8494
  208MOL0     H28055  11.780   4.950   5.496 -0.3907  0.4916 -0.6287
  208MOL0     H28056  11.767   4.759   5.258 -1.3625 -2.4404  0.3899
  208MOL0     H28057  11.674   4.741   5.402 -0.8077  2.1060  1.3452
  208MOL0     H28058  11.867   4.593   5.419  0.0946  0.3679 -1.9771
  208MOL0     H28059  11.980   4.726   5.385  1.3032 -1.3580 -0.2059
  208MOL0     H28060  11.278   5.646   5.256  0.9986 -0.2496 -1.3807
  208MOL0     H28061  11.057   5.721   5.189  1.7384 -0.6975 -2.8538
  208MOL0     H28062  10.615   5.578   4.885 -0.4325  1.0294 -0.5098
  208MOL0     H28063  10.384   5.590   4.854 -0.1217 -1.0757  0.2513
  208MOL0     H28064   8.563   5.159   4.659  0.2639 -0.4257 -1.8957
  208MOL0     H28065   8.331   5.114   4.624  2.5659 -0.3983  1.4532
  208MOL0     H28066   7.968   5.141   4.540  1.1350  1.0942  0.4322
  208MOL0     H28067   7.757   5.023   4.514 -0.7082 -0.8503 -1.1041
  208MOL0     H28068   7.613   4.892   4.420 -0.0691  1.0891  0.3010
  208MOL0     H28069   7.449   4.896   4.344  0.1226 -1.7594 -0.9643
  208MOL0     H28070   7.372   5.063   4.502 -0.1749  0.1349 -0.8746
  208MOL0     H28071   7.533   5.099   4.546 -1.3869  0.5024 -1.0611
  208MOL0     H28072   7.576   4.889   4.643  0.3128  0.9634 -1.6755
  208MOL0     H28073   7.416   4.828   4.572 -0.7671  0.4219 -0.6019
  208MOL0     H28074   7.426   5.062   4.777  0.5109 -0.2992  0.6923
  208MOL0     H28075   7.296   4.946   4.748  0.0612  2.9332  3.3844
  208MOL0     H28076   7.492   4.719   5.031  1.2068 -0.6956 -0.7583
  208MOL0     H28077   7.665   5.232   4.172  0.5736 -0.5782 -0.9312
  208MOL0     H28078   7.985   5.350   4.078 -0.5106  3.4482 -2.2452
  208MOL0     H28079   7.812   5.363   4.059  1.8047 -0.5878 -1.9156
  208MOL0     H28080   7.903   5.473   4.175  1.7980 -0.7203  0.5567
  209MOL0     O28081   1.723  10.026   3.450  0.3463 -0.0077  0.6751
  209MOL0     C28082   1.761  10.126   3.501 -0.0497 -0.0578 -0.8356
  209MOL0     O28083   1.869  10.124   3.581  0.1727 -0.0154 -0.2905
  209MOL0     C28084   1.944  10.012   3.613 -0.6625 -0.2039 -0.0590
  209MOL0     C28085   1.888   9.910   3.693  0.2286  0.7085  0.8532
  209MOL0     C28086   1.964   9.800   3.729 -0.0150 -0.0500 -0.1874
  209MOL0     C28087   2.095   9.788   3.683  0.0515 -0.8821  0.0048
  209MOL0     O28088   2.169   9.681   3.721 -0.4107  0.4180 -0.4439
  209MOL0     C28089   2.207   9.683   3.861  0.6817 -0.0633 -0.1615
  209MOL0     C28090   2.288   9.812   3.903  0.0407  0.1521 -0.5267
  209MOL0     C28091   2.422   9.815   3.835 -0.7031 -0.3255  0.4120
  209MOL0     C28092   2.491   9.951   3.835 -0.1217  0.2610  0.4745
  209MOL0     C28093   2.624   9.943   3.750 -0.8955  0.6320 -0.1270
  209MOL0     C28094   2.714  10.065   3.754  0.0581  0.2378  0.3546
  209MOL0     C28095   2.851  10.040   3.685  0.1888 -0.1725 -1.0210
  209MOL0     C28096   2.955   9.971   3.772  0.5785  0.4516 -0.3252
  209MOL0     N28097   3.091   9.948   3.701  0.6712 -0.5775  0.1663
  209MOL0     C28098   3.127   9.826   3.651 -0.6008 -0.1423  0.5415
  209MOL0     C28099   3.256   9.844   3.618  1.2362  0.3549 -0.5184
  209MOL0     C28100   3.341   9.735   3.547 -0.5204 -0.4504 -0.4864
  209MOL0     C28101   3.359   9.615   3.646 -0.2720 -0.3440  0.1989
  209MOL0     C28102   3.415   9.665   3.784  0.2115  0.8120  0.2430
  209MOL0     C28103   3.560   9.736   3.785  0.5519  0.2514  0.7835
  209MOL0     O28104   3.646   9.665   3.695  0.0859 -0.0828 -0.0329
  209MOL0     C28105   3.768   9.719   3.671 -0.2221 -0.6778 -0.0399
  209MOL0     C28106   3.834   9.819   3.754 -0.6940  0.2547  0.1678
  209MOL0     C28107   3.957   9.873   3.715  0.2670  0.0040 -0.5730
  209MOL0     C28108   4.024   9.819   3.607  0.3497  0.1961  0.5105
  209MOL0     C28109   4.166   9.858   3.582 -0.2561  0.1566  0.3855
  209MOL0     O28110   4.225   9.961   3.650  0.0206  0.0688  0.6982
  209MOL0     C28111   4.355   9.996   3.616 -0.7809 -0.0456 -0.2146
  209MOL0     C28112   4.456   9.903   3.629  0.1649  0.4122 -0.8409
  209MOL0     C28113   4.592   9.946   3.610 -0.2171 -0.2227  1.0258
  209MOL0     C28114   4.632  10.079   3.581 -0.8342 -0.2672 -0.3490
  209MOL0     O28115   4.760  10.125   3.574  0.1701 -0.0119  0.0467
  209MOL0     C28116   4.860  10.050   3.646  0.2000  0.4295  0.5143
  209MOL0     C28117   4.983  10.139   3.674  0.5698 -0.4477  0.6575
  209MOL0     C28118   4.959  10.217   3.805  0.9402  0.9364 -0.1029
  209MOL0     C28119   5.064  10.315   3.847  0.2093  0.0124  1.1672
  209MOL0     C28120   5.184  10.252   3.900 -0.0879  0.1302  0.7347
  209MOL0     C28121   5.294  10.346   3.939  0.2847  0.4953  0.3863
  209MOL0     C28122   5.385  10.406   3.829  0.0959  0.1212  0.1590
  209MOL0     C28123   5.458  10.303   3.733 -0.2736  0.1356  0.3304
  209MOL0    Cl28124   5.599  10.234   3.812 -0.2506 -0.4460  0.3062
  209MOL0     C28125   4.529  10.166   3.563 -0.8440 -0.1963  0.4891
  209MOL0     C28126   4.394  10.125   3.565  0.1577 -0.3162 -0.6885
  209MOL0     O28127   4.225   9.780   3.510 -0.0511  0.2976  0.4734
  209MOL0     C28128   3.958   9.713   3.540 -0.0002 -0.6635 -0.2004
  209MOL0     C28129   3.834   9.674   3.559 -0.0880  0.7242  0.3611
  209MOL0     N28130   3.299   9.967   3.666  0.5420 -0.9390 -0.1865
  209MOL0     N28131   3.199  10.026   3.724  0.3980 -0.5304  0.2735
  209MOL0     C28132   2.153   9.889   3.607  0.0390  0.2001  0.5160
  209MOL0     C28133   2.075  10.000   3.572  0.6835 -0.3862  0.4953
  209MOL0     C28134   1.691  10.260   3.482 -0.4684 -0.0477  0.3725
  209MOL0     C28135   1.757  10.365   3.554  0.0191  0.7622 -0.1689
  209MOL0     C28136   1.698  10.492   3.552  0.2922  0.5483 -1.4035
  209MOL0     C28137   1.570  10.513   3.495  0.6894 -0.5987 -0.3456
  209MOL0     O28138   1.483  10.618   3.510 -0.5165  0.3840  0.1423
  209MOL0     C28139   1.541  10.752   3.531  0.9951  0.8457  0.3577
  209MOL0     C28140   1.615  10.828   3.421  0.6130  0.4297 -0.2701
  209MOL0     C28141   1.562  10.787   3.285  0.1543  0.7674  0.2865
  209MOL0     C28142   1.645  10.828   3.167 -0.5453 -0.5221 -0.4695
  209MOL0     C28143   1.596  10.786   3.034  0.2490 -0.4261 -0.1422
  209MOL0     C28144   1.550  10.752   2.921  0.3148 -0.1566  0.0041
  209MOL0     C28145   1.516  10.401   3.426  0.2702 -0.2241 -0.0196
  209MOL0     C28146   1.568  10.275   3.423 -1.1600 -0.2880 -0.7016
  209MOL0     C28147   1.489  10.177   3.346 -0.0930  0.1966 -0.3401
  209MOL0     H28148   1.788   9.921   3.733  0.9626 -0.2264  3.0736
  209MOL0     H28149   1.916   9.720   3.784 -1.8182 -0.4182 -2.1707
  209MOL0     H28150   2.117   9.675   3.923 -0.5964 -1.7030 -2.1091
  209MOL0     H28151   2.265   9.592   3.879 -0.2633 -0.2020  2.8514
  209MOL0     H28152   2.304   9.808   4.011 -0.5143  0.8864 -0.4131
  209MOL0     H28153   2.234   9.903   3.878 -1.0152 -0.7037 -1.4159
  209MOL0     H28154   2.413   9.796   3.727  0.7070  2.2632 -0.2626
  209MOL0     H28155   2.493   9.757   3.894  2.1574  1.5599 -0.9040
  209MOL0     H28156   2.428  10.030   3.793 -0.6036 -0.8159 -0.8762
  209MOL0     H28157   2.517   9.960   3.941  0.5451 -2.2611  0.5775
  209MOL0     H28158   2.678   9.858   3.793 -2.4838 -0.2168  0.2442
  209MOL0     H28159   2.602   9.927   3.644 -2.6194  1.9092 -0.0052
  209MOL0     H28160   2.657  10.134   3.691 -1.0682 -0.6131  0.4122
  209MOL0     H28161   2.717  10.095   3.859 -0.1229 -0.2488  0.5016
  209MOL0     H28162   2.894  10.139   3.662 -3.0227  1.3739 -0.9167
  209MOL0     H28163   2.837   9.984   3.593 -2.2650 -1.3968  0.0102
  209MOL0     H28164   2.971  10.021   3.868  3.4628 -1.3590  0.2369
  209MOL0     H28165   2.916   9.871   3.790  0.1350  0.5224 -0.8378
  209MOL0     H28166   3.074   9.732   3.641  2.9802 -2.4369  1.2446
  209MOL0     H28167   3.297   9.706   3.451  0.4870 -3.9093 -0.0625
  209MOL0     H28168   3.443   9.772   3.533  0.3691 -1.7980  1.8058
  209MOL0     H28169   3.263   9.566   3.667 -1.7016  2.5820  1.0558
  209MOL0     H28170   3.423   9.548   3.588 -2.0346  1.3364 -4.0793
  209MOL0     H28171   3.418   9.579   3.852  3.1620 -0.0468 -0.8243
  209MOL0     H28172   3.346   9.736   3.831 -0.1899  0.2563  0.5084
  209MOL0     H28173   3.602   9.744   3.885  0.0798 -1.9572  1.2233
  209MOL0     H28174   3.539   9.835   3.743 -0.0201 -0.2362 -0.1252
  209MOL0     H28175   3.777   9.846   3.842 -1.9955 -0.9745 -0.2551
  209MOL0     H28176   4.003   9.950   3.776 -0.4194 -2.0146  2.7794
  209MOL0     H28177   4.436   9.799   3.654  2.3559  0.0345 -0.4508
  209MOL0     H28178   4.670   9.872   3.623 -0.7622 -0.6031  2.3501
  209MOL0     H28179   4.820  10.013   3.741  0.6467  0.0335  0.5526
  209MOL0     H28180   4.881   9.968   3.576 -1.6390  0.7740 -0.4998
  209MOL0     H28181   5.063  10.068   3.696  0.3664 -0.9095 -0.0301
  209MOL0     H28182   5.015  10.209   3.596  0.1985  0.0347  0.9347
  209MOL0     H28183   4.864  10.270   3.807  0.5588  0.4913  4.4523
  209MOL0     H28184   4.959  10.145   3.888  3.0803  1.3582  0.3336
  209MOL0     H28185   5.028  10.394   3.913  1.2816  0.9617  0.6414
  209MOL0     H28186   5.089  10.371   3.756 -0.1671 -1.4607  0.1207
  209MOL0     H28187   5.232  10.176   3.837  0.7018 -0.8317  2.4228
  209MOL0     H28188   5.151  10.191   3.985 -0.9658 -0.8199 -0.2687
  209MOL0     H28189   5.243  10.430   3.988  1.3031  0.1366  2.1187
  209MOL0     H28190   5.359  10.301   4.014  0.8983  0.8494  0.0753
  209MOL0     H28191   5.452  10.482   3.871  0.1056  1.0527 -1.4660
  209MOL0     H28192   5.316  10.459   3.763 -0.0293  0.1507  0.3131
  209MOL0     H28193   5.396  10.224   3.688  0.8607 -1.5723  1.6038
  209MOL0     H28194   5.497  10.351   3.643  2.1260  0.0785  1.2675
  209MOL0     H28195   4.552  10.271   3.548  0.7147 -0.4105  1.1506
  209MOL0     H28196   4.314  10.191   3.534 -1.1644 -0.5314  2.0073
  209MOL0     H28197   4.014   9.664   3.461  0.9920  1.5010 -0.9303
  209MOL0     H28198   3.798   9.603   3.486  3.1461  0.0864 -0.7970
  209MOL0     H28199   2.256   9.864   3.585 -0.1128 -0.8490  0.9468
  209MOL0     H28200   2.111  10.075   3.502 -2.9029 -2.7232 -4.4463
  209MOL0     H28201   1.847  10.353   3.613 -0.9051 -1.7396  0.8629
  209MOL0     H28202   1.749  10.570   3.607  1.5654  0.3428 -2.2391
  209MOL0     H28203   1.608  10.753   3.618  0.9442  2.9087  0.4171
  209MOL0     H28204   1.458  10.815   3.565  1.8618  2.3666 -0.2570
  209MOL0     H28205   1.724  10.813   3.419  0.6857  0.9652 -0.7198
  209MOL0     H28206   1.595  10.935   3.429 -2.3257 -0.0747  0.3770
  209MOL0     H28207   1.458  10.818   3.269 -0.6723 -3.2352 -4.9257
  209MOL0     H28208   1.567  10.678   3.278  1.9463  0.9507 -2.7078
  209MOL0     H28209   1.648  10.937   3.160 -0.0630 -0.4761  0.3587
  209MOL0     H28210   1.749  10.793   3.173 -0.1315  0.4986 -1.3562
  209MOL0     H28211   1.495  10.722   2.835 -0.8933  0.9316  0.3699
  209MOL0     H28212   1.417  10.410   3.381  0.1965  0.5398  0.2870
  209MOL0     H28213   1.542  10.117   3.271 -3.5857 -0.3497 -2.6423
  209MOL0     H28214   1.465  10.111   3.430  0.7965  1.0722  0.6234
  209MOL0     H28215   1.399  10.217   3.297  1.9112  2.8540 -2.1205
  210MOL0     O28216   0.196   3.956   1.343 -0.1725  0.3530 -0.3616
  210MOL0     C28217   0.113   3.991   1.425 -0.9091 -0.2208  0.4440
  210MOL0     O28218   0.133   4.089   1.519 -0.3984 -0.1776 -0.2832
  210MOL0     C28219   0.266   4.100   1.569  0.7455  0.0410 -0.8002
  210MOL0     C28220   0.347   4.206   1.530 -0.2463  0.4427  0.1079
  210MOL0     C28221   0.481   4.216   1.579 -0.2931  0.2635  0.2664
  210MOL0     C28222   0.527   4.120   1.667 -0.6213  0.0246 -0.2956
  210MOL0     O28223   0.650   4.131   1.717 -0.3517  0.6005 -0.2187
  210MOL0     C28224   0.659   4.126   1.860  0.7505 -0.3807  1.0037
  210MOL0     C28225   0.798   4.180   1.908 -0.4328 -0.1469  0.5152
  210MOL0     C28226   0.904   4.075   1.845 -0.0522  0.1475 -1.3894
  210MOL0     C28227   1.025   4.060   1.929 -0.1527  0.2989  0.2158
  210MOL0     C28228   1.117   3.953   1.850 -0.3516 -0.3997 -0.3350
  210MOL0     C28229   1.263   3.940   1.904 -0.8532  0.2339 -0.4634
  210MOL0     C28230   1.342   3.841   1.814 -0.3712 -0.8482  0.1882
  210MOL0     C28231   1.416   3.909   1.699 -1.0108  0.0294  0.3086
  210MOL0     N28232   1.526   4.000   1.745 -0.0874 -0.3557 -0.3081
  210MOL0     C28233   1.652   3.963   1.794 -0.1608 -0.2264 -0.1436
  210MOL0     C28234   1.711   4.082   1.822  0.6654 -0.1056  0.2450
  210MOL0     C28235   1.843   4.101   1.894 -0.4430  0.7941 -0.7450
  210MOL0     C28236   1.829   4.064   2.040 -0.3497 -1.0530 -0.1869
  210MOL0     C28237   1.960   4.077   2.120 -0.9835 -1.2316  0.1333
  210MOL0     C28238   2.051   3.946   2.095 -0.0906  0.2807  0.7305
  210MOL0     O28239   2.167   3.965   2.178  0.6498 -0.9309  0.2077
  210MOL0     C28240   2.291   3.971   2.116 -0.2326  0.4656 -0.5206
  210MOL0     C28241   2.319   4.075   2.028 -0.6237  0.6199 -0.8580
  210MOL0     C28242   2.453   4.072   1.976 -0.8893  0.0145  0.3456
  210MOL0     C28243   2.546   3.965   2.000  1.3754 -0.4097 -0.5129
  210MOL0     C28244   2.677   3.968   1.951 -0.0393  0.3834 -0.1448
  210MOL0     O28245   2.694   4.034   1.840  0.2438  0.0519 -0.5277
  210MOL0     C28246   2.816   4.057   1.777 -0.5671  0.1805 -0.2876
  210MOL0     C28247   2.826   4.167   1.695 -0.0738 -0.1816  0.1605
  210MOL0     C28248   2.941   4.205   1.623 -0.2153 -0.1035  0.0320
  210MOL0     C28249   3.054   4.129   1.643  0.5194  0.7865  0.8544
  210MOL0     O28250   3.174   4.153   1.588  0.9851 -0.2570 -0.3266
  210MOL0     C28251   3.226   4.277   1.646  0.0520 -0.6318  0.1346
  210MOL0     C28252   3.364   4.251   1.711  0.2802  0.1585  0.2874
  210MOL0     C28253   3.449   4.176   1.605  0.3173 -0.7638  0.3225
  210MOL0     C28254   3.602   4.162   1.655 -0.2614  0.8533  0.5874
  210MOL0     C28255   3.701   4.130   1.536 -0.3255  1.4380  0.3112
  210MOL0     C28256   3.838   4.081   1.593 -0.5216 -0.5419 -0.4565
  210MOL0     C28257   3.902   4.001   1.473  0.4735  0.3169  0.0432
  210MOL0     C28258   4.051   4.010   1.470  0.5004  0.5410 -0.0665
  210MOL0    Cl28259   4.108   3.909   1.328  0.4326 -0.0958  0.2689
  210MOL0     C28260   3.047   4.024   1.732 -0.5471  0.1063 -0.2717
  210MOL0     C28261   2.936   3.988   1.801 -0.0140  0.6880 -0.0456
  210MOL0     O28262   2.769   3.905   2.009 -0.0932 -0.5284 -0.2239
  210MOL0     C28263   2.507   3.871   2.091  0.7348 -1.0024  0.1350
  210MOL0     C28264   2.377   3.869   2.139  0.1053  0.1795  0.1672
  210MOL0     N28265   1.621   4.183   1.809  0.6172  0.6232 -0.1537
  210MOL0     N28266   1.509   4.135   1.764  0.0093  0.8267  0.5379
  210MOL0     C28267   0.446   4.011   1.704  0.0052 -0.5100 -0.1046
  210MOL0     C28268   0.311   4.002   1.658  0.2926 -0.0498  0.6784
  210MOL0     C28269  -0.022   3.938   1.412 -0.4256  0.6594  0.6788
  210MOL0     C28270  -0.131   4.028   1.416  0.0431 -0.2426 -0.1528
  210MOL0     C28271  -0.257   3.972   1.383  0.2385  0.2406 -0.0854
  210MOL0     C28272  -0.273   3.841   1.348  0.5767 -0.3967 -0.8405
  210MOL0     O28273  -0.397   3.810   1.310  0.6507 -0.4936 -0.3390
  210MOL0     C28274  -0.437   3.672   1.327 -0.2496  0.3404 -0.1780
  210MOL0     C28275  -0.589   3.653   1.314 -0.1065  0.1620  0.7409
  210MOL0     C28276  -0.664   3.663   1.448  0.0809  0.6666  0.5165
  210MOL0     C28277  -0.807   3.595   1.428 -0.8597 -0.0297 -0.6601
  210MOL0     C28278  -0.892   3.682   1.358  0.4643  0.4849  0.0529
  210MOL0     C28279  -0.953   3.755   1.291  0.0976  0.0188  0.8475
  210MOL0     C28280  -0.168   3.756   1.341  0.0040  0.4181  0.2998
  210MOL0     C28281  -0.042   3.799   1.383 -0.2419  0.0313 -0.2348
  210MOL0     C28282   0.066   3.692   1.398 -0.7941 -0.7330  0.3903
  210MOL0     H28283   0.304   4.280   1.464  1.4084  0.4912 -0.9607
  210MOL0     H28284   0.548   4.295   1.546 -1.4573  1.4130  0.5855
  210MOL0     H28285   0.588   4.181   1.923 -0.8750 -1.1332 -0.1003
  210MOL0     H28286   0.661   4.025   1.900  1.0165 -0.1834  1.4938
  210MOL0     H28287   0.797   4.184   2.017  1.5394  2.6837  0.5483
  210MOL0     H28288   0.807   4.282   1.869  1.3321 -0.5096 -0.1091
  210MOL0     H28289   0.934   4.123   1.752  0.7826  3.2000  0.3137
  210MOL0     H28290   0.861   3.975   1.839 -0.0514 -0.3033  3.0444
  210MOL0     H28291   1.078   4.154   1.944  0.2365 -0.1558  1.8759
  210MOL0     H28292   0.998   4.026   2.029 -3.3351  1.9768  0.0596
  210MOL0     H28293   1.072   3.853   1.854  2.4889 -1.7884  4.1784
  210MOL0     H28294   1.114   3.973   1.742 -0.2572 -0.3342 -0.3263
  210MOL0     H28295   1.321   4.033   1.908  1.2549 -1.0479  0.6101
  210MOL0     H28296   1.266   3.903   2.007 -0.5928  0.5086 -0.3700
  210MOL0     H28297   1.278   3.756   1.787  1.1965 -1.8362 -0.6043
  210MOL0     H28298   1.419   3.811   1.885 -0.9482 -2.1217  0.3115
  210MOL0     H28299   1.443   3.834   1.623  0.0081  0.5798  0.1200
  210MOL0     H28300   1.349   3.966   1.634 -0.4735 -1.2963 -1.5070
  210MOL0     H28301   1.699   3.865   1.797 -1.5736 -0.9190 -0.1575
  210MOL0     H28302   1.924   4.046   1.844  0.0266  1.8154 -1.1378
  210MOL0     H28303   1.874   4.206   1.884  0.5645  0.8393  1.9829
  210MOL0     H28304   1.756   4.133   2.082  2.5953  1.8833  0.5946
  210MOL0     H28305   1.791   3.964   2.060  1.7000 -1.5129  1.8934
  210MOL0     H28306   1.939   4.077   2.227  0.0969 -1.1347  0.3503
  210MOL0     H28307   2.019   4.168   2.108  0.9045 -2.2935  0.9673
  210MOL0     H28308   2.072   3.953   1.987  0.4805  0.9309  0.8755
  210MOL0     H28309   2.002   3.851   2.114  0.4893 -0.1005  0.3510
  210MOL0     H28310   2.247   4.152   2.002 -0.7708  1.0271  0.7014
  210MOL0     H28311   2.480   4.161   1.920 -3.0815 -0.7213 -2.1055
  210MOL0     H28312   2.742   4.237   1.695 -1.1284 -1.4063  0.2055
  210MOL0     H28313   2.949   4.288   1.553  0.1879 -1.0949 -1.1535
  210MOL0     H28314   3.243   4.349   1.565 -1.8476 -0.9891 -0.6152
  210MOL0     H28315   3.160   4.329   1.716 -1.0404  0.5629 -1.6933
  210MOL0     H28316   3.412   4.338   1.756  1.1749  1.7268 -3.3135
  210MOL0     H28317   3.348   4.173   1.786 -1.9501 -0.4050 -0.6849
  210MOL0     H28318   3.409   4.081   1.571  1.3702 -1.1252  0.0657
  210MOL0     H28319   3.448   4.231   1.510 -0.6817 -1.0821  0.1419
  210MOL0     H28320   3.611   4.080   1.726 -0.3816 -2.0615 -2.4816
  210MOL0     H28321   3.638   4.256   1.698 -0.3957  0.4126  1.6812
  210MOL0     H28322   3.722   4.219   1.475  0.8539  0.5094 -0.7053
  210MOL0     H28323   3.656   4.047   1.480 -0.0945  1.7194 -0.3021
  210MOL0     H28324   3.905   4.158   1.630  3.6854 -3.5077 -1.2271
  210MOL0     H28325   3.818   4.015   1.678  3.2280 -0.8058  0.3727
  210MOL0     H28326   3.857   4.034   1.379  1.2042  0.0318 -0.4127
  210MOL0     H28327   3.867   3.897   1.475  0.8922  0.1860  0.9258
  210MOL0     H28328   4.084   4.114   1.473 -1.2929  1.1427  2.9352
  210MOL0     H28329   4.094   3.958   1.556 -0.3279  1.1275  0.7235
  210MOL0     H28330   3.136   3.964   1.749 -0.8621 -0.2085  0.2891
  210MOL0     H28331   2.945   3.914   1.879  0.4167  0.9438  0.1518
  210MOL0     H28332   2.580   3.794   2.113  1.1216 -0.5646  0.4247
  210MOL0     H28333   2.343   3.783   2.196  1.5976 -0.7566 -0.2738
  210MOL0     H28334   0.472   3.918   1.752 -0.3783 -0.4697  0.1810
  210MOL0     H28335   0.254   3.914   1.687  2.5040 -0.8573  2.9277
  210MOL0     H28336  -0.129   4.132   1.447 -0.7491 -0.9600  2.5175
  210MOL0     H28337  -0.348   4.031   1.373 -2.1896 -2.2465  4.3925
  210MOL0     H28338  -0.409   3.641   1.428 -1.4892  0.1622  0.1291
  210MOL0     H28339  -0.383   3.606   1.258  2.5857  2.5092 -0.1984
  210MOL0     H28340  -0.608   3.553   1.275  1.1767  0.1765  0.0342
  210MOL0     H28341  -0.618   3.727   1.240  0.3063  0.0237  0.4367
  210MOL0     H28342  -0.664   3.765   1.487  1.2690  1.5953 -1.7482
  210MOL0     H28343  -0.605   3.604   1.519  2.9295 -0.3302 -2.4208
  210MOL0     H28344  -0.796   3.498   1.379 -1.1401  0.9064 -2.6738
  210MOL0     H28345  -0.841   3.584   1.532  1.3238 -0.5040  0.0451
  210MOL0     H28346  -1.015   3.813   1.226  0.5395 -1.2888 -0.8257
  210MOL0     H28347  -0.174   3.654   1.304  0.7338  0.2950  0.4995
  210MOL0     H28348   0.135   3.729   1.474 -0.7034  1.9320 -0.8970
  210MOL0     H28349   0.016   3.595   1.411  1.0685 -2.0834 -1.9041
  210MOL0     H28350   0.125   3.671   1.309  3.4851 -0.4939  2.9189
  211MOL0     O28351   2.115   6.703   7.273 -0.7969 -0.5917  0.5729
  211MOL0     C28352   2.013   6.677   7.340  0.5532 -0.6283 -0.1207
  211MOL0     O28353   2.003   6.626   7.468 -0.1051 -0.1012 -0.7731
  211MOL0     C28354   2.122   6.598   7.532  0.0982 -0.0213  0.0426
  211MOL0     C28355   2.127   6.641   7.667  0.3975  0.4397 -0.2431
  211MOL0     C28356   2.245   6.624   7.737  0.5167  0.3654 -1.0954
  211MOL0     C28357   2.358   6.579   7.675  0.8283  0.3890  0.4034
  211MOL0     O28358   2.471   6.567   7.742  0.0599  0.0932  0.3086
  211MOL0     C28359   2.475   6.565   7.883  0.4230 -0.1270 -0.5528
  211MOL0     C28360   2.605   6.495   7.926  0.3411  0.5847 -0.1566
  211MOL0     C28361   2.634   6.511   8.077  0.0498  0.4913  0.4779
  211MOL0     C28362   2.747   6.419   8.133  0.7099  0.0599  0.8577
  211MOL0     C28363   2.751   6.397   8.284 -0.3198  0.3472  0.2488
  211MOL0     C28364   2.770   6.524   8.372 -0.5864  0.3827 -0.2553
  211MOL0     C28365   2.906   6.586   8.341  0.0232 -0.0606  0.8299
  211MOL0     C28366   2.933   6.692   8.449 -1.1117  0.6858  0.5598
  211MOL0     N28367   3.076   6.716   8.452  0.3364  0.4204  0.4709
  211MOL0     C28368   3.164   6.617   8.481 -0.0472 -0.7824  1.1810
  211MOL0     C28369   3.281   6.678   8.457  0.2931 -0.1996 -0.6718
  211MOL0     C28370   3.423   6.626   8.488  0.2448 -0.6026  0.4139
  211MOL0     C28371   3.489   6.709   8.608  0.6890 -0.3955 -0.2705
  211MOL0     C28372   3.626   6.654   8.642 -0.4982  0.3253 -0.9715
  211MOL0     C28373   3.697   6.751   8.736 -0.0669  0.5738  0.3308
  211MOL0     O28374   3.834   6.702   8.774  0.8794 -0.1022 -0.3924
  211MOL0     C28375   3.910   6.787   8.861  0.6943 -0.2861  0.5168
  211MOL0     C28376   4.049   6.794   8.836 -0.4631  1.1953 -0.8118
  211MOL0     C28377   4.129   6.866   8.922 -0.6324 -0.1177 -0.3808
  211MOL0     C28378   4.074   6.944   9.027  0.1011 -0.9799  0.0328
  211MOL0     C28379   4.159   7.031   9.115 -0.3814  0.7030  0.1255
  211MOL0     O28380   4.290   6.986   9.120  0.1642  0.4098 -0.1080
  211MOL0     C28381   4.373   7.031   9.221 -0.8739 -0.2861 -0.0739
  211MOL0     C28382   4.484   7.089   9.177  0.0978 -0.3651 -0.4908
  211MOL0     C28383   4.578   7.148   9.270  0.1683 -0.5399  0.3707
  211MOL0     C28384   4.560   7.148   9.409  0.3367 -0.2994  0.0648
  211MOL0     O28385   4.652   7.203   9.494 -0.1305  0.1160  0.5067
  211MOL0     C28386   4.658   7.160   9.632  0.1720 -0.1587  0.3220
  211MOL0     C28387   4.737   7.258   9.699  0.0147 -0.2909 -0.0291
  211MOL0     C28388   4.741   7.258   9.854  0.4678  0.5718  0.2613
  211MOL0     C28389   4.827   7.371   9.895 -0.2732  0.4467  0.6962
  211MOL0     C28390   4.820   7.408  10.051  0.2337  1.0302  0.9452
  211MOL0     C28391   4.869   7.298  10.141  0.4585  0.8304 -0.2459
  211MOL0     C28392   4.936   7.361  10.263  0.5288 -0.1615  0.1446
  211MOL0     C28393   4.960   7.247  10.370 -0.0491  0.1508 -0.4389
  211MOL0    Cl28394   5.107   7.160  10.322 -0.0388  0.1118  0.3240
  211MOL0     C28395   4.444   7.096   9.451 -0.5605 -0.3601  0.3154
  211MOL0     C28396   4.358   7.036   9.361 -0.5121  0.0240  0.8362
  211MOL0     O28397   4.112   7.129   9.176 -0.2027  0.8020 -0.2518
  211MOL0     C28398   3.938   6.938   9.053  0.3131 -0.5999 -0.2040
  211MOL0     C28399   3.857   6.861   8.965 -0.3822  0.1068 -0.6196
  211MOL0     N28400   3.261   6.802   8.404 -0.1528 -0.3053 -0.0099
  211MOL0     N28401   3.135   6.834   8.410  0.6391  0.4131 -0.1316
  211MOL0     C28402   2.354   6.531   7.548  0.4630 -0.2613  1.2425
  211MOL0     C28403   2.232   6.536   7.482 -0.3937 -0.4733  0.1315
  211MOL0     C28404   1.890   6.710   7.274  0.1377  0.2634 -0.3215
  211MOL0     C28405   1.770   6.714   7.355  0.3994 -0.1042 -0.7200
  211MOL0     C28406   1.650   6.743   7.289  0.4577 -0.1137  0.2886
  211MOL0     C28407   1.636   6.771   7.149  0.1417  0.9191 -0.1635
  211MOL0     O28408   1.523   6.765   7.065 -0.0710  0.3064 -0.1590
  211MOL0     C28409   1.411   6.699   7.127 -0.2614  0.4485 -0.4012
  211MOL0     C28410   1.302   6.672   7.027 -0.1549 -0.8714 -0.1406
  211MOL0     C28411   1.350   6.594   6.909  0.8621  0.5859 -0.0642
  211MOL0     C28412   1.232   6.593   6.808 -0.3327  0.2518  0.8637
  211MOL0     C28413   1.288   6.519   6.694 -0.7398  0.1110 -0.8687
  211MOL0     C28414   1.345   6.462   6.605  0.5644  0.2380  1.2885
  211MOL0     C28415   1.750   6.763   7.074  0.0939  1.2774  0.1984
  211MOL0     C28416   1.877   6.737   7.134 -0.3414  0.1055  0.3126
  211MOL0     C28417   1.996   6.755   7.041 -0.0036 -0.0558  0.0731
  211MOL0     H28418   2.033   6.667   7.714 -0.0654 -1.4180 -0.0762
  211MOL0     H28419   2.243   6.660   7.839  2.5914  0.8224 -1.1652
  211MOL0     H28420   2.463   6.669   7.916 -1.9046 -0.4277 -0.2880
  211MOL0     H28421   2.386   6.514   7.919  0.1245  0.0115 -1.0859
  211MOL0     H28422   2.689   6.538   7.870  0.6937 -1.5019 -1.3505
  211MOL0     H28423   2.607   6.388   7.902  0.6512  0.5829 -0.1291
  211MOL0     H28424   2.539   6.488   8.128  1.0330 -4.7797  0.5806
  211MOL0     H28425   2.659   6.614   8.101 -0.8867  0.6545  0.7978
  211MOL0     H28426   2.733   6.322   8.084 -0.0773  0.6547 -0.1414
  211MOL0     H28427   2.843   6.456   8.094 -0.5055  1.4138 -1.0123
  211MOL0     H28428   2.653   6.358   8.312 -0.9392  2.1531  0.7837
  211MOL0     H28429   2.834   6.328   8.301  0.0799  0.1901 -1.9436
  211MOL0     H28430   2.694   6.599   8.350 -1.1038 -0.2023 -0.4742
  211MOL0     H28431   2.772   6.493   8.476  2.2025  1.4932  0.1084
  211MOL0     H28432   2.907   6.633   8.242  2.5447  0.6994  1.1609
  211MOL0     H28433   2.988   6.514   8.330  0.6495  0.4152  2.2571
  211MOL0     H28434   2.878   6.783   8.426 -0.9468  0.2364 -1.9150
  211MOL0     H28435   2.915   6.655   8.551  1.3512 -0.9173  0.4903
  211MOL0     H28436   3.158   6.517   8.524 -0.4949 -0.9211  0.8092
  211MOL0     H28437   3.420   6.519   8.510  0.0769 -1.0333 -1.4893
  211MOL0     H28438   3.477   6.644   8.394 -4.1446  1.2460 -2.0201
  211MOL0     H28439   3.489   6.813   8.574 -0.6448 -0.4803 -0.5826
  211MOL0     H28440   3.419   6.704   8.692 -0.8934 -1.2127 -1.5626
  211MOL0     H28441   3.689   6.647   8.552  0.2431  2.2397 -0.6424
  211MOL0     H28442   3.606   6.555   8.685  0.1255 -0.7282 -2.9536
  211MOL0     H28443   3.635   6.763   8.824  0.7337  0.7159  0.8877
  211MOL0     H28444   3.713   6.845   8.681  1.5602 -1.5773 -3.3063
  211MOL0     H28445   4.100   6.745   8.754 -0.7548 -0.8065  0.1390
  211MOL0     H28446   4.236   6.854   8.905 -0.7190 -1.3056 -0.1721
  211MOL0     H28447   4.496   7.098   9.069 -0.4975  3.6786 -0.3751
  211MOL0     H28448   4.670   7.192   9.231 -0.7908  3.6311  2.3002
  211MOL0     H28449   4.558   7.170   9.677  0.6458  1.5972  1.0725
  211MOL0     H28450   4.692   7.056   9.639 -1.7369 -0.9250 -1.0006
  211MOL0     H28451   4.835   7.220   9.668 -0.1710 -1.4743  0.7607
  211MOL0     H28452   4.713   7.355   9.654 -1.4909 -0.2838  0.7429
  211MOL0     H28453   4.640   7.269   9.894 -0.1161  1.4678 -1.3687
  211MOL0     H28454   4.784   7.161   9.883 -0.5519 -0.5905 -1.9120
  211MOL0     H28455   4.806   7.462   9.840  0.3104  0.8616  1.1484
  211MOL0     H28456   4.933   7.351   9.874  0.3090  3.3961  0.4928
  211MOL0     H28457   4.716   7.438  10.065  0.0697  0.8029  0.2702
  211MOL0     H28458   4.880   7.498  10.063  0.3111  1.0675  0.3212
  211MOL0     H28459   4.789   7.225  10.155 -0.3552  1.2231 -2.4596
  211MOL0     H28460   4.939   7.228  10.096 -1.8812 -1.6309 -0.3104
  211MOL0     H28461   4.863   7.426  10.311  1.5239 -1.2503  3.3635
  211MOL0     H28462   5.023   7.421  10.236  0.1938 -0.1226 -0.9061
  211MOL0     H28463   4.981   7.288  10.469  1.6508 -0.4181 -0.5426
  211MOL0     H28464   4.878   7.174  10.379  0.0518  0.1455  0.4819
  211MOL0     H28465   4.413   7.099   9.554 -0.6621 -1.5818  0.3407
  211MOL0     H28466   4.263   7.008   9.405 -0.8714  0.3353  0.2665
  211MOL0     H28467   3.904   7.006   9.131  2.9948  0.9771 -0.2855
  211MOL0     H28468   3.756   6.886   8.997  0.7034  2.4944  1.2406
  211MOL0     H28469   2.448   6.498   7.505  1.1085 -0.3922  2.7064
  211MOL0     H28470   2.220   6.502   7.380 -1.3293 -2.1580  0.7466
  211MOL0     H28471   1.761   6.708   7.463 -2.2683  1.0961 -0.7993
  211MOL0     H28472   1.564   6.745   7.355  2.0864  0.8556  2.5384
  211MOL0     H28473   1.384   6.766   7.209  3.3562 -0.5422  1.7958
  211MOL0     H28474   1.436   6.599   7.162 -0.1854 -0.1516 -2.0548
  211MOL0     H28475   1.253   6.766   7.000 -2.0108 -1.5995  0.4950
  211MOL0     H28476   1.222   6.622   7.084 -0.9254  2.0489  1.5581
  211MOL0     H28477   1.365   6.493   6.949 -2.4314  1.0588  2.9428
  211MOL0     H28478   1.436   6.641   6.861 -0.9937  0.7820 -3.4774
  211MOL0     H28479   1.152   6.527   6.843  0.8739 -2.3379 -0.8887
  211MOL0     H28480   1.185   6.688   6.784 -0.2559  0.1578  0.3166
  211MOL0     H28481   1.403   6.410   6.532 -0.3495 -0.4285  1.0059
  211MOL0     H28482   1.747   6.779   6.967  1.2466 -3.7465 -0.8651
  211MOL0     H28483   2.070   6.829   7.074  1.0475 -0.0103 -2.1963
  211MOL0     H28484   2.039   6.655   7.042 -1.3519 -0.6538  0.6093
  211MOL0     H28485   1.969   6.779   6.938 -0.5811 -2.4741 -0.3982
  212MOL0     O28486   2.190   2.434   3.153  0.2620 -0.3989 -0.0448
  212MOL0     C28487   2.119   2.371   3.075  0.2237 -0.3956  0.0754
  212MOL0     O28488   2.168   2.283   2.982  0.0584 -0.4519  0.4222
  212MOL0     C28489   2.300   2.258   3.000 -0.2175 -0.0906  0.7069
  212MOL0     C28490   2.404   2.341   2.966 -1.1152 -0.5641  0.3005
  212MOL0     C28491   2.537   2.307   2.989 -0.3008  0.0598  0.3200
  212MOL0     C28492   2.582   2.191   3.046 -0.1349  0.4844 -0.6857
  212MOL0     O28493   2.720   2.172   3.073  1.1280  0.4177 -0.1592
  212MOL0     C28494   2.774   2.034   3.078  0.8646 -0.5383 -0.3996
  212MOL0     C28495   2.920   2.029   3.066  0.4055 -0.4299  0.0748
  212MOL0     C28496   2.987   2.101   3.187 -0.4955  0.4173  0.0345
  212MOL0     C28497   3.135   2.084   3.185  0.1526 -0.0083 -0.2691
  212MOL0     C28498   3.205   2.198   3.250 -1.1973  0.2298 -0.2884
  212MOL0     C28499   3.363   2.186   3.250  0.9808  0.1640 -0.8383
  212MOL0     C28500   3.441   2.263   3.361  0.0107  0.2667 -0.5467
  212MOL0     C28501   3.593   2.269   3.345  0.1560  0.5037 -0.8793
  212MOL0     N28502   3.629   2.371   3.243 -0.7314 -0.0896 -0.1624
  212MOL0     C28503   3.680   2.336   3.119  0.0038  0.0654 -0.4151
  212MOL0     C28504   3.723   2.453   3.072 -0.6355 -0.5063 -0.0072
  212MOL0     C28505   3.782   2.490   2.938 -0.0302 -0.3283  0.0798
  212MOL0     C28506   3.930   2.436   2.927  0.4966 -0.4047  0.4224
  212MOL0     C28507   4.006   2.465   2.794  0.4364  0.6521 -0.3580
  212MOL0     C28508   4.157   2.428   2.812 -0.2993 -1.1769  0.0259
  212MOL0     O28509   4.204   2.489   2.934 -0.2032  0.7982  0.0835
  212MOL0     C28510   4.340   2.468   2.959  0.6499  0.1883 -0.3163
  212MOL0     C28511   4.432   2.398   2.882  0.0547 -0.1429  0.4883
  212MOL0     C28512   4.570   2.393   2.929  0.0443  0.8757 -0.2340
  212MOL0     C28513   4.614   2.458   3.047 -0.1491  0.1748  0.1689
  212MOL0     C28514   4.759   2.467   3.080  0.0700 -0.7262 -0.6225
  212MOL0     O28515   4.848   2.391   3.022 -0.1292 -0.5294 -0.8565
  212MOL0     C28516   4.978   2.391   3.061 -0.4633  0.5355 -0.1426
  212MOL0     C28517   5.066   2.503   3.070  0.1827  0.5258  0.8086
  212MOL0     C28518   5.206   2.479   3.112  0.1861 -0.5378  0.8139
  212MOL0     C28519   5.258   2.356   3.151  0.5429 -0.0347  0.9493
  212MOL0     O28520   5.373   2.325   3.212 -0.0977  0.3519  0.3719
  212MOL0     C28521   5.426   2.435   3.296 -0.2857  0.1990 -0.2492
  212MOL0     C28522   5.518   2.378   3.404 -0.1616  0.3474 -0.2792
  212MOL0     C28523   5.648   2.310   3.353 -0.5217  0.7693  0.7795
  212MOL0     C28524   5.721   2.230   3.469  0.0462 -0.6923 -0.7675
  212MOL0     C28525   5.859   2.202   3.418 -0.2127  0.0122  0.2775
  212MOL0     C28526   5.954   2.327   3.424 -1.7486 -0.0065 -0.7084
  212MOL0     C28527   5.986   2.392   3.284 -0.0618  0.1406  0.5505
  212MOL0     C28528   6.118   2.463   3.296 -0.2178  0.1436 -0.1905
  212MOL0    Cl28529   6.149   2.563   3.151 -0.0136 -0.0397 -0.2365
  212MOL0     C28530   5.169   2.250   3.137 -0.0571  0.4915  0.3769
  212MOL0     C28531   5.031   2.271   3.100 -0.4362  1.0507 -0.2031
  212MOL0     O28532   4.784   2.550   3.174 -0.9442 -0.0656 -0.0805
  212MOL0     C28533   4.515   2.528   3.119 -0.5034  0.0816 -0.1633
  212MOL0     C28534   4.375   2.522   3.090  0.0677  0.7346 -0.3385
  212MOL0     N28535   3.701   2.558   3.162 -0.2356 -0.3126  0.4846
  212MOL0     N28536   3.644   2.509   3.259  0.2306 -0.3176 -0.2406
  212MOL0     C28537   2.473   2.102   3.079  0.2895  0.1523  0.2223
  212MOL0     C28538   2.336   2.132   3.050 -0.3412 -0.6215  0.1476
  212MOL0     C28539   1.976   2.410   3.060  0.8818  0.6153  0.9609
  212MOL0     C28540   1.907   2.383   2.935 -0.5303  0.1446 -0.3386
  212MOL0     C28541   1.774   2.426   2.904 -0.3861 -0.1331 -0.1194
  212MOL0     C28542   1.709   2.506   2.996 -0.4821  0.3442  0.1824
  212MOL0     O28543   1.593   2.558   2.954  0.5032 -0.3656 -0.7097
  212MOL0     C28544   1.491   2.541   3.050  0.2719  0.0894  0.2543
  212MOL0     C28545   1.356   2.568   2.986  0.3224 -0.0409  0.0210
  212MOL0     C28546   1.328   2.713   2.935  0.2560 -0.3145  0.1727
  212MOL0     C28547   1.212   2.717   2.834 -0.7974 -0.6253  0.2840
  212MOL0     C28548   1.090   2.652   2.893  0.4681 -0.0245  0.0955
  212MOL0     C28549   0.994   2.609   2.964  0.0048  0.3245 -1.1718
  212MOL0     C28550   1.762   2.522   3.129  0.1738  0.0288  0.1028
  212MOL0     C28551   1.895   2.474   3.160  0.4634  0.4412 -0.1670
  212MOL0     C28552   1.943   2.487   3.295  0.0816 -0.0912 -0.0848
  212MOL0     H28553   2.380   2.445   2.945 -1.4411  0.0169  3.1138
  212MOL0     H28554   2.612   2.386   2.996 -0.9039  0.4495  3.6649
  212MOL0     H28555   2.752   1.977   3.168  1.9734 -1.1030 -0.4698
  212MOL0     H28556   2.730   1.976   2.996 -0.6840 -1.2835  0.8905
  212MOL0     H28557   2.937   2.083   2.972 -0.8088 -0.3984 -0.1343
  212MOL0     H28558   2.950   1.924   3.062  1.0984 -0.2447  0.1948
  212MOL0     H28559   2.937   2.064   3.277  2.1911  0.3641  1.6149
  212MOL0     H28560   2.966   2.207   3.165  2.8658  1.3120  0.5049
  212MOL0     H28561   3.161   1.984   3.220  2.4558 -0.0379 -1.8512
  212MOL0     H28562   3.163   2.088   3.080 -3.5458 -1.9905 -1.4888
  212MOL0     H28563   3.172   2.293   3.208  1.3250  1.4800  0.3294
  212MOL0     H28564   3.172   2.196   3.355  4.1254  1.2404  1.7518
  212MOL0     H28565   3.382   2.079   3.262 -2.4775 -0.5283 -0.3407
  212MOL0     H28566   3.392   2.218   3.149  3.9200 -0.3693 -0.2438
  212MOL0     H28567   3.432   2.207   3.454  0.4681  0.8535 -0.1450
  212MOL0     H28568   3.400   2.364   3.375 -1.9247 -0.5284 -0.0762
  212MOL0     H28569   3.649   2.289   3.436 -0.8200  0.3253 -0.2182
  212MOL0     H28570   3.622   2.167   3.318  1.9337  1.2055 -1.7450
  212MOL0     H28571   3.688   2.234   3.082 -0.8454 -0.4323  0.7110
  212MOL0     H28572   3.718   2.439   2.865 -0.2288 -1.0328  0.7330
  212MOL0     H28573   3.777   2.598   2.920 -0.9904 -0.4538 -0.4396
  212MOL0     H28574   3.990   2.489   3.001 -0.3239  1.9929 -0.5448
  212MOL0     H28575   3.932   2.330   2.956 -1.4631 -0.2832  1.1457
  212MOL0     H28576   3.985   2.564   2.752 -2.0037  0.0322 -0.7555
  212MOL0     H28577   3.961   2.396   2.723 -2.5227 -0.6178  2.4686
  212MOL0     H28578   4.211   2.470   2.726 -1.9173  2.0900  0.4203
  212MOL0     H28579   4.179   2.321   2.815  2.4570 -0.7430 -1.2011
  212MOL0     H28580   4.407   2.349   2.788 -1.2083 -0.1326  0.8147
  212MOL0     H28581   4.642   2.332   2.876  0.6191 -0.4987  1.9550
  212MOL0     H28582   5.038   2.605   3.045 -2.1426  0.1743  1.7581
  212MOL0     H28583   5.276   2.562   3.111  1.2949 -1.3929 -2.0632
  212MOL0     H28584   5.483   2.496   3.225 -1.2327  2.0562  0.5178
  212MOL0     H28585   5.341   2.486   3.340 -0.4301 -0.4672  0.2502
  212MOL0     H28586   5.546   2.452   3.479  1.7283 -0.6602  0.0766
  212MOL0     H28587   5.463   2.304   3.462  2.2000  0.4786  2.3650
  212MOL0     H28588   5.619   2.234   3.280 -1.5544  0.9279  1.0119
  212MOL0     H28589   5.709   2.383   3.299 -1.5588  1.1072  0.0135
  212MOL0     H28590   5.652   2.150   3.497 -0.4551 -0.6572 -1.8573
  212MOL0     H28591   5.736   2.296   3.556 -0.2397  0.1973 -1.3840
  212MOL0     H28592   5.873   2.150   3.323 -1.5160 -1.6817  0.9465
  212MOL0     H28593   5.896   2.126   3.488  0.2442  0.2506  0.3023
  212MOL0     H28594   5.907   2.400   3.491 -1.7424  0.0866 -0.8057
  212MOL0     H28595   6.044   2.300   3.481 -1.5587  3.9934  1.1674
  212MOL0     H28596   5.905   2.461   3.262 -2.1134 -2.4980 -0.7781
  212MOL0     H28597   5.996   2.311   3.211 -0.0806 -1.0951  1.8566
  212MOL0     H28598   6.103   2.522   3.387  3.7345  0.4802  0.4293
  212MOL0     H28599   6.197   2.389   3.311 -0.6041 -0.1108  0.6402
  212MOL0     H28600   5.206   2.149   3.147  2.5804  1.5524  2.1957
  212MOL0     H28601   4.967   2.185   3.087 -0.7296  1.0936  0.8391
  212MOL0     H28602   4.544   2.580   3.210 -0.5292  2.5295 -1.4879
  212MOL0     H28603   4.294   2.568   3.146 -0.8137  1.4137 -2.0768
  212MOL0     H28604   2.497   2.012   3.135 -1.5357 -0.3883  0.1848
  212MOL0     H28605   2.257   2.061   3.073 -0.6650 -1.6077 -3.4340
  212MOL0     H28606   1.958   2.329   2.856  1.8388  0.2712  1.0180
  212MOL0     H28607   1.731   2.415   2.805  0.3654  3.4487 -0.9690
  212MOL0     H28608   1.495   2.598   3.144  0.5355 -0.4070  0.5471
  212MOL0     H28609   1.491   2.434   3.068  1.0225 -0.1826 -1.2151
  212MOL0     H28610   1.279   2.545   3.060  0.2113 -1.1289 -0.4235
  212MOL0     H28611   1.339   2.506   2.897 -3.9852 -1.9738  1.9119
  212MOL0     H28612   1.417   2.754   2.886  3.0210 -2.8267  2.6938
  212MOL0     H28613   1.313   2.776   3.023  0.8976 -0.6269  0.5100
  212MOL0     H28614   1.201   2.822   2.805  0.0122 -0.3106  1.0561
  212MOL0     H28615   1.238   2.664   2.742  0.1759 -0.2264  0.3247
  212MOL0     H28616   0.907   2.578   3.018  1.8792 -4.8087 -0.5079
  212MOL0     H28617   1.717   2.598   3.192 -2.0034 -1.1526  0.0542
  212MOL0     H28618   1.993   2.398   3.333  0.8187  1.6631  3.4595
  212MOL0     H28619   2.007   2.576   3.306  0.2640 -0.2449  0.1019
  212MOL0     H28620   1.861   2.506   3.365  1.4702  2.8402  0.9237
  213MOL0     O28621   4.690   3.117   4.982  0.2302 -0.4670 -0.8225
  213MOL0     C28622   4.615   3.085   4.894  0.5042 -1.5158 -0.7541
  213MOL0     O28623   4.647   3.020   4.783 -0.2584  0.8527  0.1479
  213MOL0     C28624   4.782   3.000   4.769  0.7576  0.0226 -0.0691
  213MOL0     C28625   4.839   2.875   4.777 -0.5010  0.4777 -0.0845
  213MOL0     C28626   4.971   2.855   4.751 -0.4291 -0.0381 -0.1830
  213MOL0     C28627   5.061   2.960   4.725 -0.5074 -0.0125  0.1028
  213MOL0     O28628   5.197   2.958   4.715  0.1143  0.9457 -0.1734
  213MOL0     C28629   5.270   2.839   4.695 -0.4846  0.9512  0.0270
  213MOL0     C28630   5.378   2.834   4.585  0.4251 -0.8132 -0.3708
  213MOL0     C28631   5.498   2.918   4.627 -0.1522  0.1102 -0.5249
  213MOL0     C28632   5.611   2.927   4.524 -0.6321 -0.7264 -0.5452
  213MOL0     C28633   5.746   2.967   4.578  0.0623  0.1676  0.0868
  213MOL0     C28634   5.852   2.924   4.474 -0.4781 -0.0678 -0.1063
  213MOL0     C28635   5.997   2.962   4.512  0.3122 -0.1523 -0.4818
  213MOL0     C28636   6.094   2.913   4.400 -0.5753 -0.4737 -0.1943
  213MOL0     N28637   6.229   2.889   4.453 -0.3933  0.8650 -0.1583
  213MOL0     C28638   6.335   2.971   4.439 -0.0979  0.3248  0.1600
  213MOL0     C28639   6.438   2.918   4.510  0.1723 -0.6351 -0.6267
  213MOL0     C28640   6.580   2.973   4.520 -0.0137  1.1066 -0.4629
  213MOL0     C28641   6.646   2.992   4.382  0.3640 -0.4692 -0.0534
  213MOL0     C28642   6.799   2.998   4.406  0.1841  0.0304  0.4074
  213MOL0     C28643   6.871   3.059   4.286 -0.0055 -0.1071  0.7781
  213MOL0     O28644   7.006   3.019   4.270 -0.4434 -0.6597  0.0061
  213MOL0     C28645   7.061   3.065   4.155 -0.3089  0.0848 -0.4228
  213MOL0     C28646   7.185   3.124   4.176 -0.2821  0.0643  0.6380
  213MOL0     C28647   7.251   3.193   4.077  0.3494  0.6631  0.5734
  213MOL0     C28648   7.197   3.201   3.948  0.4038 -0.0953 -0.0181
  213MOL0     C28649   7.273   3.268   3.838 -0.0040 -0.1579 -0.6141
  213MOL0     O28650   7.407   3.275   3.870 -0.2334 -0.0355 -0.2855
  213MOL0     C28651   7.511   3.320   3.796 -0.0743  0.0770 -0.7241
  213MOL0     C28652   7.503   3.359   3.665 -0.8587 -0.7431 -0.0459
  213MOL0     C28653   7.617   3.423   3.611  0.3070  0.9487 -0.0746
  213MOL0     C28654   7.734   3.430   3.682 -0.5455  0.0188 -0.1244
  213MOL0     O28655   7.856   3.476   3.629 -0.0303  0.4161 -0.4010
  213MOL0     C28656   7.861   3.503   3.487 -0.1794 -0.2019 -0.2112
  213MOL0     C28657   8.011   3.527   3.454 -0.0671  0.4863  0.5966
  213MOL0     C28658   8.026   3.621   3.340  0.3955  0.3028 -0.1044
  213MOL0     C28659   8.164   3.630   3.278 -0.8564  0.3118 -0.6833
  213MOL0     C28660   8.270   3.677   3.386  0.2258  0.3498  0.3286
  213MOL0     C28661   8.410   3.672   3.328 -0.4880  0.2519  0.0851
  213MOL0     C28662   8.452   3.782   3.244  0.3082 -0.0506  0.7814
  213MOL0     C28663   8.588   3.739   3.175 -0.1907  0.4883 -0.0878
  213MOL0    Cl28664   8.650   3.834   3.041  0.1096  0.1961 -0.2991
  213MOL0     C28665   7.743   3.382   3.811  0.0211 -0.4795 -1.2866
  213MOL0     C28666   7.635   3.331   3.869  0.2002 -0.1757  0.0109
  213MOL0     O28667   7.215   3.321   3.743 -0.5552 -0.1572  0.2060
  213MOL0     C28668   7.066   3.145   3.930  0.0498  0.0041 -0.1710
  213MOL0     C28669   7.001   3.070   4.034 -0.6062 -0.0721  0.4015
  213MOL0     N28670   6.383   2.819   4.592 -1.0424  0.0398 -0.4387
  213MOL0     N28671   6.259   2.796   4.547 -0.4868 -0.2069 -0.6729
  213MOL0     C28672   5.011   3.092   4.724 -0.1959 -0.9212  0.0942
  213MOL0     C28673   4.870   3.106   4.730 -0.0967 -0.0503 -0.1086
  213MOL0     C28674   4.472   3.121   4.915 -0.2009 -0.5911  0.7742
  213MOL0     C28675   4.378   3.059   4.838  0.4059 -0.0222 -0.3819
  213MOL0     C28676   4.238   3.087   4.841 -0.7079  0.3177 -0.9520
  213MOL0     C28677   4.190   3.190   4.919 -0.4854 -0.8501  1.1076
  213MOL0     O28678   4.061   3.230   4.912 -0.4296 -0.4737  0.2427
  213MOL0     C28679   4.021   3.262   4.773  0.1717  0.5054 -0.7927
  213MOL0     C28680   3.889   3.342   4.769 -0.6625 -0.3587 -0.0519
  213MOL0     C28681   3.772   3.251   4.798 -0.1098 -1.5372  0.3185
  213MOL0     C28682   3.636   3.323   4.790 -0.7602 -0.1060 -0.0805
  213MOL0     C28683   3.605   3.414   4.674 -0.1647  0.1603  0.0585
  213MOL0     C28684   3.577   3.496   4.599  0.0556  0.8611  1.8800
  213MOL0     C28685   4.283   3.258   5.005  0.4091  0.3049  0.5359
  213MOL0     C28686   4.421   3.222   5.006  0.9707 -0.0627  0.3556
  213MOL0     C28687   4.508   3.295   5.111  0.3503  1.1407  1.2624
  213MOL0     H28688   4.769   2.802   4.814  0.9263  0.0895  2.0281
  213MOL0     H28689   5.012   2.755   4.760 -0.7505 -0.2462 -0.9941
  213MOL0     H28690   5.323   2.813   4.787 -1.7207 -2.0234  0.0079
  213MOL0     H28691   5.201   2.755   4.682 -0.5207  0.7439  1.4140
  213MOL0     H28692   5.345   2.879   4.491  0.7712  0.3023  0.0233
  213MOL0     H28693   5.396   2.727   4.579 -0.8085 -1.1687  1.4114
  213MOL0     H28694   5.550   2.876   4.714  2.0808  2.1989 -0.7609
  213MOL0     H28695   5.460   3.015   4.661  2.0779  0.6975  0.5210
  213MOL0     H28696   5.618   2.831   4.473 -0.0387 -2.1665  2.0687
  213MOL0     H28697   5.584   2.998   4.445 -0.2054  0.7917  0.6252
  213MOL0     H28698   5.747   3.077   4.580 -1.5696  0.2249 -0.8768
  213MOL0     H28699   5.756   2.929   4.680 -0.5679 -1.8033 -0.5505
  213MOL0     H28700   5.848   2.815   4.463  1.4106 -0.1321 -0.4475
  213MOL0     H28701   5.820   2.976   4.383 -4.8522 -0.2645  1.1065
  213MOL0     H28702   6.015   2.917   4.611 -0.9912  1.0461  0.3365
  213MOL0     H28703   6.005   3.071   4.517 -1.5812  0.0199 -0.5440
  213MOL0     H28704   6.044   2.824   4.362  0.0492 -1.6913  1.7004
  213MOL0     H28705   6.102   2.987   4.320  1.7351 -1.3251 -0.8252
  213MOL0     H28706   6.348   3.055   4.372  1.7868 -1.2012 -1.5560
  213MOL0     H28707   6.579   3.071   4.570  0.5451  0.3189  1.1468
  213MOL0     H28708   6.641   2.895   4.566  1.4497  1.7451 -1.2386
  213MOL0     H28709   6.632   2.902   4.321 -0.1404  0.1934 -0.9352
  213MOL0     H28710   6.614   3.086   4.335  2.5163  1.0067  1.2477
  213MOL0     H28711   6.840   2.898   4.420  0.1042 -0.2308 -1.1357
  213MOL0     H28712   6.832   3.056   4.494  0.2171  1.9278 -0.7942
  213MOL0     H28713   6.864   3.167   4.295  1.6625  0.3354 -2.0438
  213MOL0     H28714   6.807   3.042   4.199  0.4415 -0.0919  0.4419
  213MOL0     H28715   7.229   3.137   4.274  0.7701  1.3928  0.0309
  213MOL0     H28716   7.346   3.244   4.089  0.7275 -0.0780  0.8167
  213MOL0     H28717   7.412   3.356   3.607  0.2525  1.5934 -2.1230
  213MOL0     H28718   7.614   3.472   3.514 -0.8165  2.2239  0.5752
  213MOL0     H28719   7.830   3.413   3.432  0.2400  0.8435 -2.2713
  213MOL0     H28720   7.802   3.587   3.449 -1.2602 -0.2076  1.3872
  213MOL0     H28721   8.075   3.565   3.534  2.5297  4.3965 -2.8976
  213MOL0     H28722   8.049   3.429   3.424  0.8939  1.6866 -2.5151
  213MOL0     H28723   7.958   3.594   3.259  0.7242  3.2141 -1.4925
  213MOL0     H28724   8.001   3.723   3.372 -1.3753  0.7068 -2.4475
  213MOL0     H28725   8.161   3.697   3.191  2.1176  2.5591  0.7800
  213MOL0     H28726   8.178   3.528   3.242 -2.6433 -0.8253  1.5869
  213MOL0     H28727   8.273   3.621   3.480 -2.0720 -2.2165 -0.9910
  213MOL0     H28728   8.248   3.783   3.405  0.0081  0.2250  0.7798
  213MOL0     H28729   8.481   3.664   3.410  0.7705 -1.9542 -1.1261
  213MOL0     H28730   8.421   3.579   3.271  0.1741 -0.4242  1.2933
  213MOL0     H28731   8.465   3.863   3.317 -2.0771 -0.3589  1.6225
  213MOL0     H28732   8.377   3.819   3.175  0.1938  1.9536  1.8994
  213MOL0     H28733   8.667   3.747   3.250  0.4814 -0.4416 -0.6805
  213MOL0     H28734   8.590   3.634   3.143 -1.2807 -0.4926  2.7331
  213MOL0     H28735   7.840   3.383   3.859 -0.1831  0.3018 -0.8784
  213MOL0     H28736   7.647   3.302   3.973 -1.1339  0.9909  0.5230
  213MOL0     H28737   7.036   3.145   3.826  0.5652 -3.2772 -0.4282
  213MOL0     H28738   6.906   3.018   4.023 -0.7828 -0.1603  2.1143
  213MOL0     H28739   5.070   3.183   4.708 -1.1399 -0.1740  0.7505
  213MOL0     H28740   4.838   3.205   4.700 -1.9389  0.1524  2.2285
  213MOL0     H28741   4.412   2.989   4.762  0.1174  2.3642 -2.8332
  213MOL0     H28742   4.172   3.030   4.777 -0.9357 -2.2107  1.3591
  213MOL0     H28743   4.019   3.173   4.710  0.2881  0.3324 -0.5545
  213MOL0     H28744   4.097   3.320   4.721  3.2393 -2.2442  0.2922
  213MOL0     H28745   3.872   3.386   4.671  0.8793  0.4718  0.0138
  213MOL0     H28746   3.900   3.416   4.849  0.7306 -0.2384 -0.3285
  213MOL0     H28747   3.790   3.209   4.898  1.8741 -3.4625 -0.7468
  213MOL0     H28748   3.773   3.168   4.727  1.6290 -0.1242 -1.4349
  213MOL0     H28749   3.565   3.240   4.791  2.0503 -2.7318 -1.1924
  213MOL0     H28750   3.631   3.376   4.885 -4.6872 -1.2688  0.5000
  213MOL0     H28751   3.537   3.565   4.528 -3.3240 -1.1081  1.6277
  213MOL0     H28752   4.239   3.336   5.065 -0.1108  1.1490 -0.8938
  213MOL0     H28753   4.454   3.362   5.178 -0.2384  2.6177 -0.5803
  213MOL0     H28754   4.555   3.213   5.165 -1.1156 -1.0666 -0.6096
  213MOL0     H28755   4.589   3.353   5.066  0.7874 -1.4025 -1.6124
  214MOL0     O28756   2.076  10.134   0.736  0.0561 -0.8653 -0.2105
  214MOL0     C28757   1.987  10.157   0.654 -0.8544  0.8546  0.8964
  214MOL0     O28758   1.994  10.121   0.524  0.6377 -0.5781  0.7403
  214MOL0     C28759   2.115  10.060   0.481  0.1963  0.0862  0.3050
  214MOL0     C28760   2.123   9.929   0.445 -0.1973 -0.5600  0.2599
  214MOL0     C28761   2.234   9.875   0.378 -0.2466 -0.1206  0.3981
  214MOL0     C28762   2.345   9.956   0.365 -0.2087 -0.4613 -0.7010
  214MOL0     O28763   2.466   9.921   0.302  0.1761 -0.1060 -0.5877
  214MOL0     C28764   2.498   9.786   0.328  0.0888 -0.9723  0.3816
  214MOL0     C28765   2.638   9.770   0.258 -0.6128  0.3150 -0.3065
  214MOL0     C28766   2.745   9.871   0.295  0.2666 -0.2355  0.5948
  214MOL0     C28767   2.884   9.829   0.241 -0.2302  0.0083 -0.1218
  214MOL0     C28768   3.007   9.908   0.282  0.9153  0.5303 -0.1849
  214MOL0     C28769   3.133   9.864   0.198 -0.3704  0.4832  0.2748
  214MOL0     C28770   3.268   9.911   0.268  0.8626  0.0849  0.9639
  214MOL0     C28771   3.300  10.055   0.249 -0.0105  0.0621  0.9592
  214MOL0     N28772   3.411  10.100   0.326 -0.1047 -0.6120 -0.8818
  214MOL0     C28773   3.539  10.112   0.278 -0.5873  0.4759 -0.3989
  214MOL0     C28774   3.606  10.178   0.370 -0.4344  0.4325 -0.2215
  214MOL0     C28775   3.754  10.222   0.371 -0.0198  0.5669 -0.1001
  214MOL0     C28776   3.786  10.302   0.495 -1.2202 -0.2964  0.4342
  214MOL0     C28777   3.930  10.357   0.496  0.9400 -0.4771  0.7326
  214MOL0     C28778   3.956  10.452   0.612  0.4780  0.0476  0.6383
  214MOL0     O28779   4.071  10.522   0.570  0.6826  0.2698 -0.3674
  214MOL0     C28780   4.134  10.553   0.684 -0.0326 -0.3536 -0.1694
  214MOL0     C28781   4.238  10.478   0.726  0.5632 -0.1371 -0.2726
  214MOL0     C28782   4.313  10.510   0.842 -0.6798 -0.2422 -0.2999
  214MOL0     C28783   4.289  10.618   0.921  0.0276 -0.8803 -0.0157
  214MOL0     C28784   4.364  10.655   1.051  0.2979 -0.7473  0.3427
  214MOL0     O28785   4.455  10.556   1.099  0.0507  0.0947  0.3240
  214MOL0     C28786   4.517  10.581   1.217  0.3721  0.0833 -0.0620
  214MOL0     C28787   4.613  10.679   1.229  0.2990 -1.0332 -0.8847
  214MOL0     C28788   4.704  10.678   1.333  0.1858 -0.2362 -0.5373
  214MOL0     C28789   4.688  10.585   1.439 -0.3374  0.4827  0.6377
  214MOL0     O28790   4.774  10.597   1.547  0.1765  1.0902  0.3010
  214MOL0     C28791   4.801  10.482   1.631  0.6395 -0.3533 -0.8857
  214MOL0     C28792   4.909  10.515   1.730  0.5224  0.2805  0.0583
  214MOL0     C28793   5.042  10.531   1.647  0.6736 -0.1322 -0.2620
  214MOL0     C28794   5.166  10.517   1.735 -0.3153  0.6168  1.3482
  214MOL0     C28795   5.293  10.540   1.660  0.3103 -0.4414  0.6710
  214MOL0     C28796   5.419  10.520   1.757 -0.0527 -0.1696 -0.4374
  214MOL0     C28797   5.552  10.555   1.684 -0.5890 -0.0376 -0.3074
  214MOL0     C28798   5.666  10.584   1.798  0.0882  0.3570  0.6078
  214MOL0    Cl28799   5.832  10.579   1.723 -0.2364 -0.2401  0.0548
  214MOL0     C28800   4.582  10.496   1.437  0.6729 -0.2417 -0.1933
  214MOL0     C28801   4.494  10.497   1.325  0.3541 -0.5048 -0.6433
  214MOL0     O28802   4.350  10.767   1.101  0.2045 -0.1073 -0.2249
  214MOL0     C28803   4.179  10.694   0.882  0.4092 -0.8017 -0.3527
  214MOL0     C28804   4.102  10.669   0.766  1.4634  0.7652 -0.3737
  214MOL0     N28805   3.525  10.197   0.480 -0.0156 -0.1119 -0.1391
  214MOL0     N28806   3.411  10.148   0.449 -0.0959  0.5501  0.1484
  214MOL0     C28807   2.334  10.087   0.398 -0.2806  0.2875 -0.0327
  214MOL0     C28808   2.229  10.140   0.459  0.4193  0.0854  0.6242
  214MOL0     C28809   1.864  10.219   0.689 -0.0845  0.3460 -0.8567
  214MOL0     C28810   1.748  10.180   0.617 -0.2348 -1.2310  0.6272
  214MOL0     C28811   1.625  10.233   0.656  0.3181 -0.3408 -1.1210
  214MOL0     C28812   1.614  10.336   0.751  0.9061 -0.2415  0.2909
  214MOL0     O28813   1.488  10.394   0.769 -0.0719  0.6625  0.3258
  214MOL0     C28814   1.369  10.321   0.746  0.6420 -0.4485 -0.2042
  214MOL0     C28815   1.310  10.355   0.613 -0.9391  0.7010  0.5809
  214MOL0     C28816   1.164  10.323   0.592  0.7553 -0.7989  0.4295
  214MOL0     C28817   1.128  10.368   0.449  0.5384 -0.3628 -0.0159
  214MOL0     C28818   0.994  10.320   0.415 -0.3967 -0.7494  0.0125
  214MOL0     C28819   0.879  10.276   0.415  0.1289  0.4548  0.4316
  214MOL0     C28820   1.727  10.375   0.811  0.4078 -1.0222 -0.2895
  214MOL0     C28821   1.849  10.320   0.786  0.0483  0.4069  0.9009
  214MOL0     C28822   1.965  10.365   0.873  0.8175 -0.2192  0.3049
  214MOL0     H28823   2.033   9.874   0.468 -0.7248 -0.1370 -0.7206
  214MOL0     H28824   2.218   9.769   0.362  0.8949 -0.8136  3.2629
  214MOL0     H28825   2.520   9.757   0.431  2.9227  1.5186  0.5913
  214MOL0     H28826   2.414   9.729   0.286 -1.6260  1.4867  0.2719
  214MOL0     H28827   2.617   9.778   0.151 -3.3014 -0.4882  0.0805
  214MOL0     H28828   2.666   9.667   0.281  0.3390  0.6826  0.2640
  214MOL0     H28829   2.754   9.879   0.404  2.6991 -0.8226  0.5014
  214MOL0     H28830   2.721   9.971   0.257  0.8895  0.0677  0.9831
  214MOL0     H28831   2.900   9.724   0.264 -0.5153 -0.1267 -0.5191
  214MOL0     H28832   2.879   9.835   0.131 -0.1069 -1.1151 -0.2011
  214MOL0     H28833   2.990  10.015   0.273  0.1291  0.5721  1.3952
  214MOL0     H28834   3.020   9.888   0.389  1.6845  0.5307 -0.2701
  214MOL0     H28835   3.143   9.755   0.189  0.5163  0.5612  0.2647
  214MOL0     H28836   3.114   9.914   0.102 -0.1187  4.1907  1.9898
  214MOL0     H28837   3.354   9.851   0.235  0.8919  0.5907  0.0964
  214MOL0     H28838   3.252   9.902   0.376  1.6572  2.6001  1.3568
  214MOL0     H28839   3.323  10.081   0.146 -2.4967  0.2014  0.3869
  214MOL0     H28840   3.221  10.111   0.299  0.2273 -0.4059  1.8882
  214MOL0     H28841   3.593  10.083   0.188  0.1872 -3.0015  1.0190
  214MOL0     H28842   3.825  10.144   0.342 -1.0521  0.2487 -1.8554
  214MOL0     H28843   3.759  10.298   0.293 -1.9867  0.6426 -0.1866
  214MOL0     H28844   3.720  10.389   0.504 -1.5544 -0.2119 -2.1288
  214MOL0     H28845   3.770  10.235   0.581 -0.6786 -1.2134 -0.1624
  214MOL0     H28846   3.943  10.404   0.398 -1.4184 -0.5016  0.3552
  214MOL0     H28847   3.997  10.273   0.511  1.4145 -0.3539 -0.5684
  214MOL0     H28848   3.962  10.402   0.709 -1.3040 -0.9118  0.2950
  214MOL0     H28849   3.875  10.525   0.609  0.4112 -0.0209 -1.7773
  214MOL0     H28850   4.271  10.388   0.675  0.5556 -1.3365  1.7106
  214MOL0     H28851   4.400  10.448   0.863 -1.7799 -1.1379  1.9745
  214MOL0     H28852   4.629  10.752   1.149  0.2472  0.9135  0.7956
  214MOL0     H28853   4.768  10.762   1.358 -0.5498  0.4264 -0.8538
  214MOL0     H28854   4.707  10.458   1.680  0.7120  1.5118  0.2702
  214MOL0     H28855   4.830  10.396   1.570 -0.1817 -0.2061 -1.4972
  214MOL0     H28856   4.897  10.607   1.788  2.1647  0.2396  0.5151
  214MOL0     H28857   4.917  10.428   1.796  0.0550  1.3840  1.6368
  214MOL0     H28858   5.044  10.473   1.555  0.0175 -0.5867  0.0037
  214MOL0     H28859   5.054  10.635   1.615  4.9306  0.1626  1.6293
  214MOL0     H28860   5.168  10.418   1.782 -2.3507  0.0801  0.4151
  214MOL0     H28861   5.163  10.594   1.813 -3.7570 -0.4751  2.4818
  214MOL0     H28862   5.301  10.637   1.611  2.2850 -0.8098  0.1896
  214MOL0     H28863   5.299  10.474   1.573 -4.1880 -1.9856  1.2444
  214MOL0     H28864   5.416  10.567   1.856  1.5068 -3.7464  1.5095
  214MOL0     H28865   5.426  10.413   1.777  1.6396 -0.2779 -1.4896
  214MOL0     H28866   5.546  10.636   1.611  0.1627  0.5468  0.2652
  214MOL0     H28867   5.574  10.467   1.623 -2.8155 -0.0686 -1.1275
  214MOL0     H28868   5.643  10.682   1.841  2.0532  1.0964  0.0839
  214MOL0     H28869   5.671  10.509   1.877  1.3040  0.8178  0.9843
  214MOL0     H28870   4.553  10.440   1.525 -0.9716  1.4604  0.4119
  214MOL0     H28871   4.406  10.433   1.326  0.7059 -1.0072  0.9526
  214MOL0     H28872   4.152  10.780   0.942  2.2743  0.0784 -0.6976
  214MOL0     H28873   4.006  10.716   0.751 -0.0200 -1.6452  0.8899
  214MOL0     H28874   2.408  10.161   0.366 -0.7511  0.1830 -1.4399
  214MOL0     H28875   2.238  10.247   0.479  1.3488  0.2066 -0.3318
  214MOL0     H28876   1.758  10.102   0.542  0.0326  0.9522 -1.7696
  214MOL0     H28877   1.536  10.203   0.602  1.8250 -1.7237 -2.9807
  214MOL0     H28878   1.299  10.356   0.823  0.5869 -1.1467  0.0627
  214MOL0     H28879   1.379  10.215   0.768 -0.2856 -0.2495  1.3844
  214MOL0     H28880   1.361  10.301   0.532 -2.4333 -1.5231  1.0041
  214MOL0     H28881   1.324  10.463   0.614 -0.1865  0.6341  2.5692
  214MOL0     H28882   1.104  10.373   0.669 -1.5602 -0.7167 -1.3227
  214MOL0     H28883   1.147  10.216   0.609 -2.0940 -0.0357  3.5835
  214MOL0     H28884   1.116  10.477   0.442 -2.0319 -0.6586 -1.8799
  214MOL0     H28885   1.199  10.333   0.374  1.5426 -1.5577  1.4386
  214MOL0     H28886   0.780  10.237   0.418  0.3474 -0.0466  1.7944
  214MOL0     H28887   1.721  10.460   0.879  1.8709 -0.7531 -0.4478
  214MOL0     H28888   1.989  10.291   0.949  0.2171 -0.5337  0.1976
  214MOL0     H28889   2.049  10.398   0.811 -0.2010  1.0938 -0.4497
  214MOL0     H28890   1.931  10.451   0.931 -1.2068 -1.1947  0.6474
  215MOL0     O28891   4.121   2.203   7.150 -0.2251  0.8221  0.8976
  215MOL0     C28892   4.113   2.204   7.026 -0.0569  0.0861  0.1206
  215MOL0     O28893   4.218   2.171   6.937 -0.5021  0.1072 -0.5418
  215MOL0     C28894   4.330   2.123   6.995 -0.1551  0.5168  0.6764
  215MOL0     C28895   4.385   2.006   6.949  0.3686  0.4883  0.3026
  215MOL0     C28896   4.504   1.957   7.007  0.3440 -0.0771 -0.1312
  215MOL0     C28897   4.583   2.030   7.096  0.9609 -0.5425  0.1206
  215MOL0     O28898   4.699   1.979   7.146 -0.0352  0.1671  0.3195
  215MOL0     C28899   4.796   2.073   7.212 -0.0026  1.5176  0.3000
  215MOL0     C28900   4.929   1.997   7.223  0.4718  0.1674  0.2023
  215MOL0     C28901   5.045   2.081   7.280  0.2445  0.2637 -0.5659
  215MOL0     C28902   5.172   1.990   7.296 -0.3286  0.3929  0.7298
  215MOL0     C28903   5.297   2.070   7.334  0.3026  0.0175 -0.2954
  215MOL0     C28904   5.411   1.981   7.397  0.8256  0.4252 -0.5876
  215MOL0     C28905   5.532   2.071   7.428  0.6253 -1.1925  0.7457
  215MOL0     C28906   5.654   1.980   7.459  1.2010  0.1268  0.3106
  215MOL0     N28907   5.765   2.061   7.500 -0.4248  1.1518 -0.1242
  215MOL0     C28908   5.770   2.158   7.597 -0.3828 -0.3564  0.6584
  215MOL0     C28909   5.905   2.173   7.615 -0.3286 -0.5219  0.4824
  215MOL0     C28910   5.967   2.280   7.697  0.1023  0.3931  0.5555
  215MOL0     C28911   6.110   2.316   7.664  0.1275  0.3094  0.1441
  215MOL0     C28912   6.216   2.209   7.683  0.3237  0.4843 -0.4798
  215MOL0     C28913   6.219   2.144   7.823 -0.2970  0.4688 -0.7147
  215MOL0     O28914   6.191   2.228   7.937  0.1096  0.3497 -0.3524
  215MOL0     C28915   6.268   2.332   7.962 -0.1362 -0.4129 -0.2447
  215MOL0     C28916   6.208   2.440   8.034  0.2023 -0.4125  0.2137
  215MOL0     C28917   6.294   2.551   8.079  0.4872 -0.2110 -0.0134
  215MOL0     C28918   6.436   2.553   8.046 -0.1208  0.1939  0.2472
  215MOL0     C28919   6.530   2.662   8.093  0.6195  0.1514  0.1212
  215MOL0     O28920   6.660   2.650   8.047  0.1749 -0.3332 -0.5098
  215MOL0     C28921   6.747   2.753   8.078  0.0012  0.8634  0.3347
  215MOL0     C28922   6.872   2.721   8.123 -0.2678  0.1260 -1.0898
  215MOL0     C28923   6.961   2.824   8.162  0.0615  0.0920 -0.1912
  215MOL0     C28924   6.929   2.959   8.156 -0.3902  1.3127  0.1281
  215MOL0     O28925   7.027   3.052   8.200  1.0797  0.6767  0.3034
  215MOL0     C28926   7.013   3.197   8.177 -0.3829  0.7538  0.2508
  215MOL0     C28927   7.077   3.248   8.045 -0.8275 -0.3278 -0.0244
  215MOL0     C28928   7.226   3.234   8.045 -0.0637  0.9717  0.5683
  215MOL0     C28929   7.289   3.276   7.915 -0.4185  0.4784  0.1861
  215MOL0     C28930   7.286   3.431   7.875  0.4787 -0.0855  0.0830
  215MOL0     C28931   7.338   3.517   7.985 -0.7391  0.7057  0.0248
  215MOL0     C28932   7.357   3.665   7.930 -0.5621  0.5280  0.3865
  215MOL0     C28933   7.303   3.764   8.047 -0.8370  0.7338  0.2323
  215MOL0    Cl28934   7.127   3.745   8.087 -0.0208  0.3526  0.4799
  215MOL0     C28935   6.807   2.997   8.104  0.1629 -1.0107  1.1873
  215MOL0     C28936   6.721   2.896   8.060  0.0249  0.4006  0.1258
  215MOL0     O28937   6.481   2.750   8.159 -0.1336 -0.3987 -0.2005
  215MOL0     C28938   6.489   2.441   7.976 -0.0573  0.0149  0.1184
  215MOL0     C28939   6.410   2.333   7.942 -0.5374 -0.1710 -0.0538
  215MOL0     N28940   5.966   2.094   7.525 -0.1537  0.0828 -0.3753
  215MOL0     N28941   5.890   2.025   7.449  0.4219 -0.9443  0.1258
  215MOL0     C28942   4.525   2.147   7.136 -0.5890 -1.2384 -0.5843
  215MOL0     C28943   4.398   2.185   7.097  0.6697  0.0407 -0.1021
  215MOL0     C28944   3.989   2.255   6.963 -0.7428 -0.1008 -0.1697
  215MOL0     C28945   3.973   2.243   6.822 -0.3045 -0.0633 -0.6393
  215MOL0     C28946   3.862   2.283   6.750 -0.2386 -0.1266 -0.1718
  215MOL0     C28947   3.755   2.344   6.814 -0.1316  0.5332 -0.7457
  215MOL0     O28948   3.653   2.393   6.737 -0.5653 -0.5788  0.0251
  215MOL0     C28949   3.535   2.424   6.812 -0.8943  0.6422  0.1397
  215MOL0     C28950   3.419   2.426   6.715  0.5035  0.3487 -0.4928
  215MOL0     C28951   3.296   2.474   6.789  0.1114 -0.8836  0.6770
  215MOL0     C28952   3.263   2.620   6.762 -0.1775  1.0326  0.2802
  215MOL0     C28953   3.128   2.649   6.808  0.5192 -0.0817  0.1365
  215MOL0     C28954   3.020   2.684   6.857 -0.0446  0.2141  0.2558
  215MOL0     C28955   3.763   2.343   6.952  0.5944 -0.8877  0.0400
  215MOL0     C28956   3.878   2.315   7.023 -0.9378  0.7240 -0.1458
  215MOL0     C28957   3.873   2.349   7.169 -0.1344 -0.2983 -0.0932
  215MOL0     H28958   4.333   1.954   6.869  0.0474  1.5936 -0.2169
  215MOL0     H28959   4.534   1.854   6.989 -3.0577 -1.3797  0.8802
  215MOL0     H28960   4.823   2.160   7.151 -0.6712  1.9340  0.5892
  215MOL0     H28961   4.746   2.110   7.302 -1.8371  0.0804 -0.0860
  215MOL0     H28962   4.954   1.965   7.122  0.7536 -1.6354  0.7990
  215MOL0     H28963   4.907   1.910   7.286  0.2748 -1.3707 -1.8919
  215MOL0     H28964   5.021   2.128   7.375 -1.2495  0.5794 -1.0750
  215MOL0     H28965   5.060   2.167   7.215 -1.7689  1.0310 -0.0560
  215MOL0     H28966   5.161   1.915   7.375  3.2794  1.7151  2.7582
  215MOL0     H28967   5.186   1.926   7.209  1.0126  0.6621  0.7270
  215MOL0     H28968   5.325   2.115   7.238  1.2335 -2.3994 -1.2574
  215MOL0     H28969   5.263   2.157   7.389 -0.7248  0.8015 -2.0986
  215MOL0     H28970   5.364   1.937   7.486  0.1267 -0.1873 -1.2387
  215MOL0     H28971   5.430   1.899   7.327  0.0803 -0.0948 -0.1896
  215MOL0     H28972   5.506   2.150   7.499 -2.2319  2.8928 -4.1452
  215MOL0     H28973   5.561   2.137   7.345 -1.4681  1.3923  1.9297
  215MOL0     H28974   5.633   1.912   7.543  4.6893 -0.3801  0.9459
  215MOL0     H28975   5.683   1.926   7.369  0.9129  0.6603 -0.1052
  215MOL0     H28976   5.689   2.192   7.661 -0.3097  0.2303  0.4451
  215MOL0     H28977   5.909   2.372   7.683  0.5617  0.9372  2.0483
  215MOL0     H28978   5.940   2.258   7.800 -1.3494 -3.6877 -0.5130
  215MOL0     H28979   6.117   2.344   7.558  1.3100  0.2322  0.1905
  215MOL0     H28980   6.139   2.405   7.720 -0.6418 -1.0589  2.8644
  215MOL0     H28981   6.311   2.260   7.664  0.4217  0.7762  0.7168
  215MOL0     H28982   6.210   2.131   7.606  1.5755  0.8651 -0.9856
  215MOL0     H28983   6.311   2.088   7.840 -1.4175 -0.8845  1.3088
  215MOL0     H28984   6.141   2.068   7.829 -1.8758  1.9937 -1.0061
  215MOL0     H28985   6.102   2.441   8.060  0.7385  0.5616  2.6593
  215MOL0     H28986   6.247   2.639   8.122 -0.2514 -0.6919  0.1851
  215MOL0     H28987   6.896   2.615   8.126  0.6815  0.3514  0.7836
  215MOL0     H28988   7.057   2.791   8.201  1.2265  1.9447 -1.3252
  215MOL0     H28989   6.910   3.234   8.183 -0.1222  1.6817 -0.6890
  215MOL0     H28990   7.066   3.239   8.263  3.2391 -1.9649 -0.4194
  215MOL0     H28991   7.031   3.196   7.960  2.4856 -0.4154 -1.9047
  215MOL0     H28992   7.058   3.354   8.031  1.7507  0.6978  3.0356
  215MOL0     H28993   7.262   3.291   8.132  2.2985 -0.2218  0.4571
  215MOL0     H28994   7.254   3.130   8.064 -0.4772  0.6818 -0.3623
  215MOL0     H28995   7.227   3.224   7.842 -1.3007  2.2339 -0.3810
  215MOL0     H28996   7.392   3.239   7.921 -1.1789 -2.0633 -1.0723
  215MOL0     H28997   7.188   3.473   7.850  0.1803 -0.3995  0.6846
  215MOL0     H28998   7.346   3.439   7.784  1.4942  0.8020  0.8101
  215MOL0     H28999   7.280   3.517   8.078  1.4849  0.5755  1.4918
  215MOL0     H29000   7.437   3.484   8.018 -0.2409  2.7152  0.6616
  215MOL0     H29001   7.297   3.668   7.838  3.1528  0.1668 -2.2675
  215MOL0     H29002   7.461   3.685   7.905 -0.5041 -0.9307 -0.6550
  215MOL0     H29003   7.358   3.750   8.140 -1.5127 -1.0584  0.3850
  215MOL0     H29004   7.312   3.865   8.005 -0.7042  1.0058  0.9138
  215MOL0     H29005   6.769   3.098   8.095  2.7348  0.0973  1.7638
  215MOL0     H29006   6.624   2.926   8.021  0.3948 -0.0057 -1.1445
  215MOL0     H29007   6.593   2.429   7.947 -0.1467 -0.9072  0.1472
  215MOL0     H29008   6.457   2.252   7.886  1.1566  0.8062 -0.1111
  215MOL0     H29009   4.583   2.208   7.205 -0.5752  2.0096 -3.2345
  215MOL0     H29010   4.354   2.277   7.134 -0.7351  0.4863 -2.6568
  215MOL0     H29011   4.051   2.190   6.768  1.6016  1.2911  0.6593
  215MOL0     H29012   3.864   2.279   6.641  2.0030  1.3877 -0.2542
  215MOL0     H29013   3.548   2.515   6.871  0.5162 -0.0639  0.9649
  215MOL0     H29014   3.509   2.345   6.883  3.2136 -1.6221 -0.5687
  215MOL0     H29015   3.398   2.327   6.675  0.5304  0.5581 -1.0257
  215MOL0     H29016   3.448   2.489   6.631  3.4788 -2.5251 -1.8592
  215MOL0     H29017   3.298   2.459   6.898 -5.1237 -2.8109  0.7931
  215MOL0     H29018   3.212   2.411   6.759 -0.7084  0.7450 -0.5535
  215MOL0     H29019   3.338   2.689   6.803  0.9239 -0.4261  0.7881
  215MOL0     H29020   3.264   2.651   6.656 -1.3418  2.6817  0.7088
  215MOL0     H29021   2.927   2.706   6.905  0.2521  3.0712 -0.3365
  215MOL0     H29022   3.676   2.379   7.006 -0.2546 -0.8940 -1.3002
  215MOL0     H29023   3.784   2.409   7.188 -0.7458 -1.6682  1.6355
  215MOL0     H29024   3.851   2.255   7.220 -2.1976 -1.3298 -2.6040
  215MOL0     H29025   3.959   2.412   7.195 -1.6901  2.8659 -1.9428
  216MOL0     O29026   0.060   2.388   4.602  0.4053 -0.4173  0.7255
  216MOL0     C29027  -0.003   2.291   4.587 -0.1199  0.3726 -0.2195
  216MOL0     O29028   0.024   2.193   4.498  0.8092 -0.2039  0.1837
  216MOL0     C29029   0.156   2.181   4.460  0.0375  0.2395 -0.1021
  216MOL0     C29030   0.250   2.147   4.558 -0.8331 -0.6688  0.5476
  216MOL0     C29031   0.384   2.132   4.526  0.2194 -0.7372  0.0168
  216MOL0     C29032   0.426   2.145   4.395  0.1574 -0.4880 -0.2255
  216MOL0     O29033   0.564   2.131   4.380 -0.1216 -0.4663  0.1347
  216MOL0     C29034   0.604   2.072   4.254  1.0505  0.2122 -0.0557
  216MOL0     C29035   0.751   2.037   4.252  0.6316 -0.2806  0.9109
  216MOL0     C29036   0.784   1.962   4.384 -0.2196  0.1408  0.1622
  216MOL0     C29037   0.922   1.901   4.365 -0.3211  0.4349 -0.3668
  216MOL0     C29038   0.970   1.836   4.493  1.0907 -0.5756  0.5186
  216MOL0     C29039   1.118   1.811   4.498 -0.1850 -0.0233 -0.0313
  216MOL0     C29040   1.163   1.731   4.619  0.2010  0.0021  0.8350
  216MOL0     C29041   1.201   1.819   4.729  0.1055  0.3971  0.9234
  216MOL0     N29042   1.193   1.732   4.848 -0.3865 -1.0296  0.1306
  216MOL0     C29043   1.277   1.630   4.876 -0.1331  0.1991 -0.0305
  216MOL0     C29044   1.223   1.565   4.981  0.3544 -0.8075  0.0409
  216MOL0     C29045   1.278   1.445   5.060  0.2911 -0.7210 -0.8162
  216MOL0     C29046   1.265   1.318   4.985 -0.4965  0.8605  0.0536
  216MOL0     C29047   1.315   1.197   5.072  0.5567 -0.7361  0.7564
  216MOL0     C29048   1.302   1.070   4.986 -0.5344 -0.4811 -0.1240
  216MOL0     O29049   1.382   1.084   4.869  0.5260  0.2913  0.1068
  216MOL0     C29050   1.514   1.061   4.857  0.4396  0.1727  0.2708
  216MOL0     C29051   1.585   1.100   4.745 -0.4367  0.5497  0.8019
  216MOL0     C29052   1.723   1.084   4.727  0.2292 -0.2116  0.0543
  216MOL0     C29053   1.800   1.009   4.828  0.1626 -0.4880  0.4914
  216MOL0     C29054   1.944   1.000   4.821  0.0116 -1.0582  0.0343
  216MOL0     O29055   2.010   1.017   4.698  0.4298 -0.5913 -0.8210
  216MOL0     C29056   2.146   1.007   4.690  0.0930 -0.2761  0.3917
  216MOL0     C29057   2.218   1.131   4.667  0.0113  0.2848 -0.1262
  216MOL0     C29058   2.356   1.119   4.655  0.6189  0.2804 -0.4937
  216MOL0     C29059   2.420   0.995   4.655  0.4389 -0.0525 -0.1454
  216MOL0     O29060   2.561   0.978   4.651  0.2109 -0.0733 -0.0823
  216MOL0     C29061   2.639   1.097   4.630 -0.3577  0.1117  0.1839
  216MOL0     C29062   2.785   1.076   4.589  0.5618  0.0158  0.3181
  216MOL0     C29063   2.867   1.003   4.700  0.5997  0.0861  0.0415
  216MOL0     C29064   3.014   1.002   4.665 -0.0057  0.7929 -0.9827
  216MOL0     C29065   3.102   0.927   4.773 -0.3925 -0.0996 -0.6089
  216MOL0     C29066   3.130   1.021   4.888 -0.6003  0.5599  0.4591
  216MOL0     C29067   3.213   0.955   5.003 -0.0547  1.9009  0.7733
  216MOL0     C29068   3.302   1.058   5.072  0.0883  0.4507 -0.2085
  216MOL0    Cl29069   3.393   0.983   5.215 -0.1896 -0.3221 -0.2175
  216MOL0     C29070   2.349   0.876   4.652  0.0025 -0.0171  0.0009
  216MOL0     C29071   2.211   0.881   4.678  0.5735 -0.1582 -1.2349
  216MOL0     O29072   2.001   0.989   4.931  0.1684 -1.1133  0.0008
  216MOL0     C29073   1.724   0.970   4.939 -0.6350 -0.2843 -1.9285
  216MOL0     C29074   1.588   0.997   4.951 -0.1531  0.0205  0.5623
  216MOL0     N29075   1.105   1.632   5.011  0.5379  0.4002  0.1398
  216MOL0     N29076   1.082   1.724   4.925  0.2468 -0.1709 -0.3636
  216MOL0     C29077   0.328   2.159   4.292 -0.6701 -0.8141 -0.2855
  216MOL0     C29078   0.196   2.183   4.321 -0.4684 -0.1387 -0.1719
  216MOL0     C29079  -0.134   2.274   4.666 -0.4711 -0.0750  0.6188
  216MOL0     C29080  -0.241   2.199   4.615  0.5827  1.0534 -0.7174
  216MOL0     C29081  -0.371   2.193   4.673  0.1452  0.1328  0.3415
  216MOL0     C29082  -0.394   2.281   4.778  0.0332 -0.1411  0.4755
  216MOL0     O29083  -0.506   2.305   4.853 -0.3963  0.1946 -0.0356
  216MOL0     C29084  -0.627   2.250   4.800 -0.2631  0.3231 -0.1917
  216MOL0     C29085  -0.737   2.333   4.855  0.5074  1.3577  0.1163
  216MOL0     C29086  -0.866   2.292   4.780  0.1149 -0.0960  0.0113
  216MOL0     C29087  -0.984   2.352   4.858  0.8842  0.0980  0.3787
  216MOL0     C29088  -1.114   2.345   4.787 -0.3884 -0.2384  0.1705
  216MOL0     C29089  -1.223   2.334   4.735 -0.8718 -1.0206  0.4672
  216MOL0     C29090  -0.289   2.347   4.837 -0.3129 -0.2629  0.0994
  216MOL0     C29091  -0.158   2.349   4.777 -0.2215  0.1208  0.2956
  216MOL0     C29092  -0.065   2.441   4.847 -1.1459 -0.8247 -0.6231
  216MOL0     H29093   0.212   2.122   4.656 -0.4593  0.4846  1.0027
  216MOL0     H29094   0.465   2.116   4.597 -0.4042 -0.5762  0.7823
  216MOL0     H29095   0.554   1.978   4.228  1.4657 -0.2024  0.6119
  216MOL0     H29096   0.579   2.150   4.181 -0.4634  0.6819  0.9103
  216MOL0     H29097   0.806   2.131   4.238 -1.0458  0.3558 -2.6696
  216MOL0     H29098   0.769   1.982   4.159  3.3715  0.5270  0.8832
  216MOL0     H29099   0.718   1.880   4.414 -0.9666  1.3791  2.1380
  216MOL0     H29100   0.784   2.044   4.457  1.0347  1.1781 -0.9581
  216MOL0     H29101   0.908   1.821   4.292  0.5567 -1.0005  0.9586
  216MOL0     H29102   0.985   1.982   4.327 -0.4159 -0.0951 -1.6853
  216MOL0     H29103   0.935   1.889   4.581  0.6264  2.1797 -1.2009
  216MOL0     H29104   0.917   1.740   4.492 -2.1126  1.0549 -0.6648
  216MOL0     H29105   1.131   1.761   4.402  0.9087  1.3186 -0.6104
  216MOL0     H29106   1.176   1.903   4.485  2.7080 -2.0232 -2.6555
  216MOL0     H29107   1.248   1.666   4.593 -0.1278 -0.3402  0.6038
  216MOL0     H29108   1.084   1.661   4.648  0.4469 -0.1932  1.0423
  216MOL0     H29109   1.297   1.861   4.698  0.3446 -0.7072  0.1041
  216MOL0     H29110   1.134   1.904   4.745 -1.0315 -0.1295 -0.7635
  216MOL0     H29111   1.367   1.591   4.830 -0.4656 -1.1326  0.3916
  216MOL0     H29112   1.379   1.466   5.098 -1.2359  3.1453  1.8857
  216MOL0     H29113   1.221   1.442   5.154 -0.5211  2.7383 -1.0404
  216MOL0     H29114   1.162   1.299   4.956 -0.4337 -0.8544  0.8083
  216MOL0     H29115   1.330   1.317   4.897 -0.4393 -0.1979  0.0941
  216MOL0     H29116   1.252   1.194   5.161 -0.0876 -2.2726  0.2825
  216MOL0     H29117   1.418   1.215   5.106 -0.3210  2.2245  2.1789
  216MOL0     H29118   1.196   1.053   4.963  0.0930 -1.1282 -2.8238
  216MOL0     H29119   1.332   0.981   5.043 -0.8899  0.0975  1.0110
  216MOL0     H29120   1.526   1.131   4.659 -1.7074 -0.8682  1.1248
  216MOL0     H29121   1.757   1.122   4.632  0.8419 -2.6198 -0.7541
  216MOL0     H29122   2.162   1.224   4.662  0.7926  0.9583  2.2439
  216MOL0     H29123   2.411   1.211   4.637  2.7797 -0.8342  0.1431
  216MOL0     H29124   2.594   1.154   4.548  2.0172 -0.8633 -1.9294
  216MOL0     H29125   2.654   1.164   4.715  2.2887  0.0252 -0.1294
  216MOL0     H29126   2.796   1.015   4.498 -1.5988  2.2622 -1.5929
  216MOL0     H29127   2.833   1.174   4.579  2.3246 -0.9001 -0.7619
  216MOL0     H29128   2.848   1.040   4.801 -0.9930 -0.3047 -0.0742
  216MOL0     H29129   2.834   0.899   4.690  2.4653 -0.5628  0.2500
  216MOL0     H29130   3.057   1.099   4.639  0.1451  0.8211 -0.6315
  216MOL0     H29131   3.025   0.945   4.573  0.0681 -1.3937  0.3100
  216MOL0     H29132   3.186   0.880   4.720 -1.8112 -2.5536 -0.8251
  216MOL0     H29133   3.044   0.838   4.798  0.4586 -1.2129 -2.3718
  216MOL0     H29134   3.193   1.096   4.839  1.3821 -2.2037 -1.5363
  216MOL0     H29135   3.035   1.058   4.928 -0.3193  2.2336 -0.3288
  216MOL0     H29136   3.277   0.886   4.949 -1.9582  1.3231 -0.8527
  216MOL0     H29137   3.150   0.896   5.072  0.5254  0.9661  0.5126
  216MOL0     H29138   3.375   1.084   4.995  0.6312 -1.1311 -0.2621
  216MOL0     H29139   3.244   1.146   5.102 -0.5027 -0.9384  3.2728
  216MOL0     H29140   2.413   0.789   4.643  2.4509  1.8371 -2.5093
  216MOL0     H29141   2.161   0.787   4.702  0.4334  0.6803  2.2979
  216MOL0     H29142   1.776   0.922   5.021  1.9385 -0.0305 -3.3176
  216MOL0     H29143   1.533   0.958   5.036 -1.2008  1.0994  0.4160
  216MOL0     H29144   0.366   2.159   4.190  1.4900  0.6604  0.4478
  216MOL0     H29145   0.113   2.205   4.255 -1.2348  1.6171  1.2755
  216MOL0     H29146  -0.228   2.136   4.527  1.2516  0.7066 -0.3830
  216MOL0     H29147  -0.444   2.134   4.618 -1.1341  0.1954  1.8848
  216MOL0     H29148  -0.626   2.143   4.823  0.4498  0.6525  1.3858
  216MOL0     H29149  -0.631   2.253   4.690  1.3529  2.6098 -0.2374
  216MOL0     H29150  -0.718   2.440   4.850  0.5616  1.3024 -0.9991
  216MOL0     H29151  -0.747   2.312   4.962 -2.8906  1.4269 -0.0838
  216MOL0     H29152  -0.860   2.183   4.790 -1.9688 -0.4222 -1.5991
  216MOL0     H29153  -0.856   2.321   4.675 -1.9553 -0.6688 -0.3929
  216MOL0     H29154  -0.986   2.298   4.953 -0.4108  1.0623  0.9282
  216MOL0     H29155  -0.958   2.457   4.874  1.6299  0.5056 -2.8346
  216MOL0     H29156  -1.321   2.314   4.696 -1.0944  1.2731 -0.3032
  216MOL0     H29157  -0.313   2.393   4.932  0.4822  0.4506 -0.0400
  216MOL0     H29158   0.027   2.387   4.874  0.4973  2.3182  0.5475
  216MOL0     H29159  -0.042   2.525   4.781 -1.3980 -1.2606 -1.2739
  216MOL0     H29160  -0.096   2.488   4.941  3.1599  2.2990 -0.4906
  217MOL0     O29161   9.669   3.148   3.970  0.4411 -0.2018 -0.6000
  217MOL0     C29162   9.642   3.187   3.859  0.0044  0.6039 -0.5388
  217MOL0     O29163   9.728   3.244   3.772 -0.4258 -0.1534 -0.3086
  217MOL0     C29164   9.865   3.217   3.782 -0.6448  0.0397 -1.2228
  217MOL0     C29165   9.921   3.164   3.666 -0.0183  0.3678  0.7337
  217MOL0     C29166  10.056   3.136   3.662 -0.1157 -0.4640 -0.3301
  217MOL0     C29167  10.136   3.155   3.778  1.0098 -0.2999 -0.3036
  217MOL0     O29168  10.274   3.140   3.756  0.7792  0.1170  0.8219
  217MOL0     C29169  10.364   3.172   3.865 -1.0232 -0.0615 -0.3429
  217MOL0     C29170  10.500   3.112   3.820 -0.5977 -0.5623  0.4586
  217MOL0     C29171  10.616   3.166   3.911  0.2580 -0.5004  0.3703
  217MOL0     C29172  10.746   3.119   3.839  0.6174 -0.9396  0.5648
  217MOL0     C29173  10.860   3.211   3.869 -0.5845  0.4634  0.4802
  217MOL0     C29174  10.895   3.224   4.020  0.8411  1.0713  0.6499
  217MOL0     C29175  11.032   3.283   4.059  0.4978 -0.0834 -0.5629
  217MOL0     C29176  11.049   3.425   4.016 -0.2919 -0.8011  0.2864
  217MOL0     N29177  11.185   3.464   4.053  0.4177  0.6314  0.3719
  217MOL0     C29178  11.246   3.457   4.176 -0.8423  0.7378 -0.3775
  217MOL0     C29179  11.365   3.517   4.158 -0.5622 -0.3483 -0.1232
  217MOL0     C29180  11.476   3.527   4.246  0.6665  0.5817 -0.0624
  217MOL0     C29181  11.504   3.674   4.275 -0.0621 -0.1881 -0.4286
  217MOL0     C29182  11.602   3.693   4.392 -0.7650  0.3044  0.5679
  217MOL0     C29183  11.744   3.651   4.360 -0.3702 -0.0873  0.3413
  217MOL0     O29184  11.763   3.508   4.348  0.1784 -0.2990 -0.6908
  217MOL0     C29185  11.871   3.453   4.282  0.6038  0.1987 -0.4259
  217MOL0     C29186  11.858   3.322   4.250 -0.2784  0.1579 -0.4007
  217MOL0     C29187  11.965   3.254   4.196 -0.7046  0.1538 -0.0218
  217MOL0     C29188  12.085   3.320   4.164  0.1053 -0.4311  0.5957
  217MOL0     C29189  12.204   3.247   4.113 -0.7252  0.4352  0.0594
  217MOL0     O29190  12.315   3.322   4.061  0.4035  0.8174  0.4069
  217MOL0     C29191  12.449   3.269   4.034 -0.7732  0.2099  0.2603
  217MOL0     C29192  12.548   3.360   4.008  0.4532  0.7697  0.4008
  217MOL0     C29193  12.678   3.318   3.975 -0.0191  0.6129  0.8198
  217MOL0     C29194  12.706   3.181   3.964 -0.0023 -0.0091  0.2372
  217MOL0     O29195  12.832   3.152   3.922 -0.5278 -0.4981  0.0361
  217MOL0     C29196  12.868   3.024   3.882  0.1354 -0.3411  0.4157
  217MOL0     C29197  12.983   3.036   3.792 -0.5905  0.5204  0.2582
  217MOL0     C29198  13.110   3.069   3.880  0.1187 -0.4073 -0.3292
  217MOL0     C29199  13.234   3.083   3.792  0.2468  0.5303  0.1395
  217MOL0     C29200  13.363   3.101   3.870  1.0381  0.0881  0.3413
  217MOL0     C29201  13.416   2.963   3.929 -0.1113  0.2899 -0.3190
  217MOL0     C29202  13.569   2.958   3.925 -0.3263  0.3249 -0.0733
  217MOL0     C29203  13.625   2.830   3.979 -0.1951 -0.1398  0.1176
  217MOL0    Cl29204  13.625   2.833   4.167 -0.2939 -0.1885  0.1816
  217MOL0     C29205  12.605   3.089   4.002  0.1145 -0.7846 -0.7815
  217MOL0     C29206  12.478   3.131   4.030 -0.1206  0.0099  0.3371
  217MOL0     O29207  12.206   3.124   4.127  0.2992  0.4528 -0.5114
  217MOL0     C29208  12.093   3.460   4.177  0.0608 -0.1866  0.1774
  217MOL0     C29209  11.985   3.523   4.242  0.4132  0.0593  0.5660
  217MOL0     N29210  11.373   3.558   4.028  0.2910 -0.2545  0.0028
  217MOL0     N29211  11.265   3.533   3.968  0.5524  0.3878 -0.0639
  217MOL0     C29212  10.082   3.220   3.890  0.1311  0.1409 -0.1616
  217MOL0     C29213   9.942   3.229   3.896 -0.7218 -0.0599  0.7031
  217MOL0     C29214   9.496   3.196   3.837 -0.2682 -0.5274 -0.6911
  217MOL0     C29215   9.410   3.152   3.935 -0.4055  0.4765  0.1364
  217MOL0     C29216   9.269   3.165   3.927 -0.5948  0.6470  0.0314
  217MOL0     C29217   9.211   3.202   3.804  0.4133 -0.8962  0.1802
  217MOL0     O29218   9.071   3.194   3.777 -0.6843  0.2700 -0.9762
  217MOL0     C29219   9.034   3.099   3.684  0.5361  0.2290  0.5212
  217MOL0     C29220   8.884   3.114   3.662  0.7694  1.1410  0.7104
  217MOL0     C29221   8.803   3.096   3.788 -0.1873  0.5763  1.3789
  217MOL0     C29222   8.658   3.157   3.785  0.0526 -0.1834  0.4667
  217MOL0     C29223   8.595   3.142   3.910  0.1632  0.9422  0.2248
  217MOL0     C29224   8.551   3.127   4.022 -0.3326  0.0842 -0.0937
  217MOL0     C29225   9.303   3.244   3.707  0.3458  0.3529 -0.6444
  217MOL0     C29226   9.440   3.253   3.721  0.2259 -0.2089  0.6965
  217MOL0     C29227   9.509   3.311   3.595 -0.2997  0.1035 -0.8821
  217MOL0     H29228   9.862   3.159   3.576 -0.3340  3.1697  0.6888
  217MOL0     H29229  10.101   3.118   3.565  0.6789 -0.5615  0.0503
  217MOL0     H29230  10.360   3.281   3.875  1.9155  0.3351 -2.3687
  217MOL0     H29231  10.330   3.118   3.954  0.0807  0.2689  0.2987
  217MOL0     H29232  10.531   3.138   3.719  1.4477 -0.2832  1.1084
  217MOL0     H29233  10.501   3.003   3.821 -2.1241 -0.6284 -1.3385
  217MOL0     H29234  10.610   3.139   4.017  1.6336  3.2231  1.5733
  217MOL0     H29235  10.600   3.274   3.916  2.1616 -0.1766  0.4456
  217MOL0     H29236  10.780   3.017   3.858  0.8088 -1.0243 -0.2150
  217MOL0     H29237  10.739   3.126   3.730  1.1667 -2.1643  0.4363
  217MOL0     H29238  10.949   3.166   3.824 -0.7013  0.5843  0.1276
  217MOL0     H29239  10.842   3.313   3.834 -1.9665  0.6524  1.6397
  217MOL0     H29240  10.815   3.287   4.060 -0.7274  0.5857 -1.4995
  217MOL0     H29241  10.898   3.118   4.044  2.8612 -0.1158 -3.8003
  217MOL0     H29242  11.108   3.229   4.001  0.6292  1.6070 -2.0846
  217MOL0     H29243  11.047   3.281   4.167  0.6888 -1.5679 -0.6013
  217MOL0     H29244  11.031   3.428   3.908  2.2004 -1.1323 -0.1948
  217MOL0     H29245  10.972   3.484   4.066  0.6659 -0.1884  1.0740
  217MOL0     H29246  11.214   3.411   4.270  2.0905 -0.1405  0.2951
  217MOL0     H29247  11.437   3.483   4.338 -4.1052 -1.1584 -2.5470
  217MOL0     H29248  11.561   3.467   4.213 -0.0210 -2.5403  3.2350
  217MOL0     H29249  11.546   3.718   4.184 -0.3093  1.2729  0.1370
  217MOL0     H29250  11.408   3.724   4.292 -0.0633  1.0672 -3.4939
  217MOL0     H29251  11.556   3.634   4.471 -1.8546  0.8700  0.3715
  217MOL0     H29252  11.603   3.798   4.424  0.5682  0.4377  0.1780
  217MOL0     H29253  11.805   3.688   4.443  1.5684 -1.8840 -0.1850
  217MOL0     H29254  11.772   3.700   4.267  1.8634  1.6725  1.8059
  217MOL0     H29255  11.765   3.268   4.258 -0.5060  0.0816 -2.7996
  217MOL0     H29256  11.957   3.147   4.182 -1.9287  0.1417  0.6214
  217MOL0     H29257  12.527   3.464   4.030  0.5570  0.7518  0.5912
  217MOL0     H29258  12.746   3.399   3.951 -0.1191  0.8126  1.2107
  217MOL0     H29259  12.900   2.966   3.969  2.5098 -0.0696 -0.2223
  217MOL0     H29260  12.786   2.974   3.830  0.7959  0.4211 -1.4239
  217MOL0     H29261  12.995   2.939   3.744 -0.3542 -0.5036  2.2599
  217MOL0     H29262  12.977   3.108   3.710 -0.9173 -0.0843 -0.2653
  217MOL0     H29263  13.090   3.158   3.940 -1.0242 -0.0452 -1.2148
  217MOL0     H29264  13.131   2.996   3.960  3.0187  3.4964  2.9304
  217MOL0     H29265  13.213   3.167   3.726 -0.5110  0.9624  0.9082
  217MOL0     H29266  13.240   2.995   3.727  0.1283 -0.5267  1.5121
  217MOL0     H29267  13.349   3.174   3.950 -1.4366  0.3840 -0.2900
  217MOL0     H29268  13.433   3.161   3.812  1.2254  1.5362  1.9702
  217MOL0     H29269  13.376   2.951   4.030  1.0209 -0.7130  0.0434
  217MOL0     H29270  13.381   2.881   3.865 -1.8498  2.6514 -2.5619
  217MOL0     H29271  13.618   3.038   3.981 -0.6130  0.3635  0.1276
  217MOL0     H29272  13.597   2.965   3.819 -1.4004  0.9064 -0.3447
  217MOL0     H29273  13.565   2.746   3.942 -0.2648  0.6548 -1.6534
  217MOL0     H29274  13.727   2.818   3.941 -0.4020  1.8256 -1.1704
  217MOL0     H29275  12.619   2.982   3.989 -1.6912 -0.8311 -2.9349
  217MOL0     H29276  12.406   3.053   4.050  1.5642 -2.4039 -2.2843
  217MOL0     H29277  12.172   3.519   4.132 -0.0641 -1.2539 -1.5379
  217MOL0     H29278  11.990   3.630   4.262 -1.6785  0.1524  0.7534
  217MOL0     H29279  10.139   3.254   3.975  1.8746  0.2735 -1.3274
  217MOL0     H29280   9.896   3.269   3.986  1.1284  2.8878  0.4731
  217MOL0     H29281   9.443   3.108   4.029  1.7071  1.7143  0.0357
  217MOL0     H29282   9.210   3.129   4.010  2.2972 -2.8365  0.8396
  217MOL0     H29283   9.057   2.996   3.713 -1.1683  0.3001  2.3895
  217MOL0     H29284   9.082   3.125   3.590 -0.4683  0.1965 -0.0065
  217MOL0     H29285   8.850   3.040   3.589  2.1084  0.7771  0.4208
  217MOL0     H29286   8.867   3.211   3.614 -1.2175  0.6296  0.3044
  217MOL0     H29287   8.859   3.148   3.866  2.4343  1.8123 -1.1112
  217MOL0     H29288   8.803   2.990   3.816  1.2898  0.8181  2.4043
  217MOL0     H29289   8.664   3.265   3.767  0.0739 -0.2880 -0.1812
  217MOL0     H29290   8.606   3.111   3.701  0.8572  2.3059 -1.5392
  217MOL0     H29291   8.503   3.105   4.115 -0.9201 -2.8156 -0.9972
  217MOL0     H29292   9.254   3.284   3.619 -2.2120 -1.1041  0.0284
  217MOL0     H29293   9.570   3.399   3.617  0.2226 -0.9477  2.4098
  217MOL0     H29294   9.572   3.234   3.549  0.1251 -0.0862 -0.0143
  217MOL0     H29295   9.439   3.332   3.514 -0.6761  0.4390 -0.4725
  218MOL0     O29296   3.715   2.511   4.834 -0.4606  0.1284  0.0523
  218MOL0     C29297   3.636   2.459   4.909  0.3532  0.0294  0.3757
  218MOL0     O29298   3.677   2.425   5.039 -0.0243 -0.1612  0.1768
  218MOL0     C29299   3.810   2.441   5.082  0.1036  0.8724  0.1701
  218MOL0     C29300   3.829   2.485   5.213 -0.8763  0.3050 -0.5204
  218MOL0     C29301   3.955   2.494   5.269  0.5553  1.1385 -0.3379
  218MOL0     C29302   4.065   2.450   5.194 -0.0860 -0.1940  0.3641
  218MOL0     O29303   4.196   2.463   5.241 -0.1246 -0.5727  0.0685
  218MOL0     C29304   4.217   2.524   5.367 -0.7189 -0.4910 -0.7913
  218MOL0     C29305   4.369   2.535   5.383 -0.3383  0.3986 -0.5196
  218MOL0     C29306   4.448   2.399   5.379 -1.0208  0.1302 -0.6856
  218MOL0     C29307   4.596   2.415   5.344 -0.0602  0.4301 -0.5649
  218MOL0     C29308   4.671   2.288   5.368  0.0424  0.1801  0.3169
  218MOL0     C29309   4.817   2.299   5.309 -0.3181  0.4037  0.0622
  218MOL0     C29310   4.902   2.402   5.378  0.2601  0.1499 -0.6427
  218MOL0     C29311   5.044   2.381   5.343 -0.1237  0.2311 -0.4298
  218MOL0     N29312   5.132   2.481   5.411  0.7931  0.2798  0.2065
  218MOL0     C29313   5.144   2.616   5.368  1.1081  0.3918  1.3204
  218MOL0     C29314   5.218   2.667   5.467  0.3415 -0.5781 -0.3640
  218MOL0     C29315   5.268   2.812   5.488  0.4753  0.7764 -0.7050
  218MOL0     C29316   5.204   2.901   5.594 -0.3119 -0.1587  0.1354
  218MOL0     C29317   5.056   2.910   5.588  0.3195  0.1617  0.3151
  218MOL0     C29318   4.992   2.991   5.700 -1.1405 -0.0245  0.0401
  218MOL0     O29319   5.015   3.138   5.698 -0.4684 -0.3469 -0.4181
  218MOL0     C29320   5.119   3.195   5.767 -0.0904 -0.4537  0.2822
  218MOL0     C29321   5.221   3.131   5.836  0.9632 -0.8871  0.0712
  218MOL0     C29322   5.338   3.197   5.882 -0.1334 -0.0353  0.6513
  218MOL0     C29323   5.349   3.337   5.881  0.1219  0.0581 -0.0556
  218MOL0     C29324   5.460   3.396   5.961 -0.5906 -0.0982  0.0363
  218MOL0     O29325   5.548   3.315   6.029 -0.7856 -0.0807  0.0138
  218MOL0     C29326   5.664   3.365   6.086 -0.3796  0.7405 -0.3827
  218MOL0     C29327   5.791   3.308   6.046 -0.9681  0.0034  0.3078
  218MOL0     C29328   5.911   3.354   6.095 -0.1024  0.3965 -0.2348
  218MOL0     C29329   5.912   3.456   6.190  0.0231  0.9965  0.9075
  218MOL0     O29330   6.028   3.512   6.236 -0.3121  0.4874  0.5516
  218MOL0     C29331   6.140   3.516   6.142  0.0461  0.3468 -0.0594
  218MOL0     C29332   6.236   3.629   6.201  1.1535  0.2226 -0.2238
  218MOL0     C29333   6.370   3.632   6.137  0.8930  0.0439  0.0882
  218MOL0     C29334   6.354   3.656   5.984  0.2947 -0.3001 -0.4641
  218MOL0     C29335   6.489   3.664   5.909 -0.2298 -0.2356  1.2579
  218MOL0     C29336   6.587   3.766   5.960  0.5756 -0.5503  0.0180
  218MOL0     C29337   6.715   3.765   5.865  0.0132  0.4086 -0.6691
  218MOL0     C29338   6.707   3.890   5.779 -0.4567  0.2967  1.0230
  218MOL0    Cl29339   6.839   3.894   5.653  0.0483  0.1039  0.4761
  218MOL0     C29340   5.790   3.519   6.228 -0.9383 -0.0499 -0.1507
  218MOL0     C29341   5.668   3.465   6.179 -0.0584  0.2575 -0.2006
  218MOL0     O29342   5.478   3.512   5.941  0.6248 -0.5067  0.3237
  218MOL0     C29343   5.232   3.404   5.828 -0.3705 -0.1993 -0.1509
  218MOL0     C29344   5.124   3.335   5.765  0.1230 -0.4136 -0.1739
  218MOL0     N29345   5.250   2.568   5.556 -0.1839 -0.9612  0.0740
  218MOL0     N29346   5.198   2.455   5.519 -0.3831 -0.1032  0.0862
  218MOL0     C29347   4.044   2.395   5.063 -0.3939  0.2852 -0.2632
  218MOL0     C29348   3.915   2.382   5.012 -0.2471  0.5687 -0.0626
  218MOL0     C29349   3.498   2.427   4.866 -0.1353 -0.8548  0.1417
  218MOL0     C29350   3.429   2.332   4.939 -0.1427 -0.1427  0.5863
  218MOL0     C29351   3.296   2.298   4.922 -0.2246  0.2660  0.0173
  218MOL0     C29352   3.225   2.348   4.812  1.0741 -0.6672 -0.4266
  218MOL0     O29353   3.096   2.309   4.797  0.1590 -0.4236  0.0721
  218MOL0     C29354   3.051   2.286   4.661 -0.4575  0.4398  0.5035
  218MOL0     C29355   2.919   2.199   4.655 -0.4897 -1.1700 -0.4168
  218MOL0     C29356   2.789   2.268   4.612  0.1336 -0.0722  0.1644
  218MOL0     C29357   2.686   2.156   4.585  0.7368 -0.0170  0.3238
  218MOL0     C29358   2.554   2.212   4.561 -0.1443 -0.6648 -0.8696
  218MOL0     C29359   2.450   2.280   4.547 -0.5169 -0.4061  0.0916
  218MOL0     C29360   3.291   2.438   4.731 -0.5957  0.4842 -0.1737
  218MOL0     C29361   3.426   2.475   4.750 -0.1483  0.7309 -0.4368
  218MOL0     C29362   3.492   2.581   4.670 -0.2942  0.3935  0.1391
  218MOL0     H29363   3.750   2.531   5.271  0.6793  1.5562  0.6890
  218MOL0     H29364   3.961   2.525   5.373  0.6805 -1.0833  0.3530
  218MOL0     H29365   4.179   2.627   5.369  1.5201  0.5678 -3.9434
  218MOL0     H29366   4.183   2.459   5.448  0.4170  1.2333  1.1440
  218MOL0     H29367   4.388   2.587   5.477  0.2985 -0.8476  0.0777
  218MOL0     H29368   4.405   2.596   5.300  0.7994 -1.6906 -1.6502
  218MOL0     H29369   4.407   2.319   5.317  0.1306 -0.0808 -1.2027
  218MOL0     H29370   4.440   2.363   5.482 -4.3733 -1.1074 -1.2801
  218MOL0     H29371   4.599   2.447   5.240  1.3271  1.6868 -0.1620
  218MOL0     H29372   4.638   2.499   5.401  0.8114  0.9254 -1.8956
  218MOL0     H29373   4.681   2.280   5.476  3.1153  0.1792  0.1221
  218MOL0     H29374   4.618   2.203   5.325  2.3178 -0.9425 -0.4232
  218MOL0     H29375   4.872   2.207   5.331 -0.8134  0.0096 -0.2838
  218MOL0     H29376   4.832   2.304   5.200 -0.2750 -1.7239 -0.0755
  218MOL0     H29377   4.894   2.381   5.485  2.2873  0.1227 -0.4571
  218MOL0     H29378   4.879   2.508   5.366  3.3252  1.0185  0.3107
  218MOL0     H29379   5.075   2.282   5.378 -0.4829 -0.2471 -1.4249
  218MOL0     H29380   5.072   2.396   5.238 -0.2288  2.2319 -0.2121
  218MOL0     H29381   5.089   2.666   5.289 -1.1280 -1.7027  1.4310
  218MOL0     H29382   5.374   2.801   5.516  0.0001  0.0983  0.9904
  218MOL0     H29383   5.261   2.868   5.395  0.5271  1.1090 -0.5096
  218MOL0     H29384   5.224   2.859   5.693 -1.4490  0.0321  0.4498
  218MOL0     H29385   5.240   3.004   5.585 -1.1566  0.1408  0.1026
  218MOL0     H29386   5.015   2.810   5.604  0.2098  0.1430 -0.0612
  218MOL0     H29387   5.010   2.942   5.494 -3.3397 -0.0629  1.8368
  218MOL0     H29388   5.027   2.945   5.793 -1.5999  0.5202  0.4933
  218MOL0     H29389   4.883   2.977   5.706 -1.1133  0.0677  0.9625
  218MOL0     H29390   5.219   3.023   5.846 -1.9441 -1.0285 -0.8275
  218MOL0     H29391   5.419   3.133   5.917  0.5129  0.0703 -0.5855
  218MOL0     H29392   5.798   3.236   5.966 -1.5781 -0.5531  0.7469
  218MOL0     H29393   6.005   3.306   6.071  0.6545  1.5530  0.3414
  218MOL0     H29394   6.202   3.425   6.147  1.5152  1.3558  1.2400
  218MOL0     H29395   6.100   3.535   6.043 -0.2156 -3.1992 -0.7811
  218MOL0     H29396   6.192   3.728   6.187 -0.8337 -0.2976  1.7264
  218MOL0     H29397   6.245   3.627   6.310 -0.4941  2.5598  0.0264
  218MOL0     H29398   6.428   3.708   6.189 -1.0520 -0.7494  3.7686
  218MOL0     H29399   6.419   3.535   6.152  0.8758 -0.2217 -1.3354
  218MOL0     H29400   6.309   3.754   5.963 -2.2955 -1.1606  0.7279
  218MOL0     H29401   6.294   3.582   5.930  0.9358  1.4509 -3.8617
  218MOL0     H29402   6.471   3.689   5.804  1.1295  1.0993  1.3069
  218MOL0     H29403   6.549   3.572   5.906  0.5578  0.2227  2.2649
  218MOL0     H29404   6.533   3.860   5.973 -2.0026 -1.8318 -0.5734
  218MOL0     H29405   6.620   3.727   6.056  0.3528 -1.0419 -0.1002
  218MOL0     H29406   6.714   3.679   5.796 -0.3510 -0.6333  0.5884
  218MOL0     H29407   6.806   3.759   5.925  0.8715 -0.3764 -1.9879
  218MOL0     H29408   6.616   3.900   5.718  0.2339  1.0433  0.0689
  218MOL0     H29409   6.716   3.984   5.834 -0.9931  0.5833  0.6264
  218MOL0     H29410   5.796   3.608   6.289 -0.3155  0.9847 -1.6653
  218MOL0     H29411   5.572   3.511   6.202  0.4110  1.4862 -0.5781
  218MOL0     H29412   5.238   3.512   5.838 -0.0231 -0.4048  2.8664
  218MOL0     H29413   5.037   3.391   5.734  1.4329  3.2386  2.0453
  218MOL0     H29414   4.132   2.348   5.019  0.2609  1.5057 -0.3002
  218MOL0     H29415   3.897   2.325   4.921  0.4327  0.4973 -0.1559
  218MOL0     H29416   3.486   2.280   5.016  2.2034 -0.8912 -1.5305
  218MOL0     H29417   3.247   2.221   4.980 -1.2382  0.0966 -1.0301
  218MOL0     H29418   3.131   2.235   4.607  0.2062 -1.3345  2.9386
  218MOL0     H29419   3.030   2.373   4.600  1.0718 -0.6513 -1.6946
  218MOL0     H29420   2.914   2.145   4.750  3.0682  0.2267  0.7478
  218MOL0     H29421   2.924   2.129   4.571  0.3331 -0.0852 -1.2916
  218MOL0     H29422   2.807   2.331   4.525 -0.3042 -0.6462 -0.3527
  218MOL0     H29423   2.751   2.324   4.698 -2.7148 -1.2363 -0.2043
  218MOL0     H29424   2.725   2.100   4.499  1.9991  0.0242  0.8502
  218MOL0     H29425   2.691   2.081   4.665  1.9080  1.4659  1.7005
  218MOL0     H29426   2.370   2.350   4.538 -0.2752 -0.2464 -0.9266
  218MOL0     H29427   3.238   2.484   4.648 -0.5561  1.4621  0.3335
  218MOL0     H29428   3.586   2.555   4.621  0.0231  1.5406  0.0977
  218MOL0     H29429   3.421   2.616   4.594  0.8300  1.2382 -0.5604
  218MOL0     H29430   3.507   2.662   4.741 -0.2349 -1.5870  2.5063
  219MOL0     O29431   8.462  10.408   5.641  0.5902 -0.9406 -0.1929
  219MOL0     C29432   8.420  10.393   5.529 -0.0056  0.3021  0.8492
  219MOL0     O29433   8.504  10.376   5.421  0.5193 -0.4341 -0.5439
  219MOL0     C29434   8.630  10.422   5.428  1.8808 -0.1216 -0.9042
  219MOL0     C29435   8.731  10.337   5.414 -0.2327  0.6996 -0.6960
  219MOL0     C29436   8.864  10.387   5.435  0.0061 -0.3628  0.1475
  219MOL0     C29437   8.885  10.519   5.466  0.6626  1.1328 -0.0190
  219MOL0     O29438   9.015  10.549   5.480 -0.2360 -0.6573 -0.1818
  219MOL0     C29439   9.067  10.675   5.503  0.5484  0.1269 -0.1849
  219MOL0     C29440   9.220  10.656   5.487 -0.5022 -0.2019 -0.4317
  219MOL0     C29441   9.262  10.625   5.340 -0.0563 -0.0051 -0.5713
  219MOL0     C29442   9.254  10.739   5.246 -0.8966 -0.1950 -0.0192
  219MOL0     C29443   9.311  10.709   5.106  0.1500 -0.2012 -0.2148
  219MOL0     C29444   9.305  10.835   5.010 -0.3808 -0.2143 -1.0740
  219MOL0     C29445   9.322  10.796   4.863  0.4285  0.2770 -0.4186
  219MOL0     C29446   9.460  10.749   4.826  0.5205 -0.5331 -0.2643
  219MOL0     N29447   9.562  10.837   4.883 -0.3276 -0.3861  0.2429
  219MOL0     C29448   9.654  10.795   4.982 -0.1969  0.7450 -0.7064
  219MOL0     C29449   9.701  10.910   5.031 -0.8198  0.1809 -1.0538
  219MOL0     C29450   9.791  10.920   5.147 -0.2744 -0.5325  0.7342
  219MOL0     C29451   9.711  10.966   5.268  0.1715 -0.1888  0.6478
  219MOL0     C29452   9.625  10.846   5.327 -0.4129  0.6138  0.2762
  219MOL0     C29453   9.687  10.789   5.460 -1.0327  0.3984  0.4103
  219MOL0     O29454   9.815  10.728   5.428 -0.3079 -0.7039  0.5372
  219MOL0     C29455   9.903  10.743   5.528  0.4462 -0.4001  0.3068
  219MOL0     C29456  10.009  10.850   5.529 -0.3818  0.2100 -0.9363
  219MOL0     C29457  10.105  10.855   5.631  1.5149 -0.2964  0.8446
  219MOL0     C29458  10.104  10.765   5.736 -0.2894  0.4335  0.3977
  219MOL0     C29459  10.220  10.762   5.831 -0.2043 -0.7188  0.0834
  219MOL0     O29460  10.294  10.872   5.842  0.2992 -0.7198  0.5012
  219MOL0     C29461  10.387  10.877   5.940  0.7528 -0.4230 -0.7416
  219MOL0     C29462  10.512  10.921   5.923 -0.4369  0.2704 -0.0189
  219MOL0     C29463  10.601  10.944   6.031 -0.0409 -0.7146  0.1388
  219MOL0     C29464  10.572  10.909   6.159  0.1961 -0.0432  0.6311
  219MOL0     O29465  10.664  10.936   6.250 -0.0005  0.0481  0.3299
  219MOL0     C29466  10.627  10.897   6.385 -0.1304  0.0095 -0.3340
  219MOL0     C29467  10.740  10.949   6.477  0.5087  0.4512  0.6762
  219MOL0     C29468  10.887  10.910   6.431  0.0085 -0.0761 -0.4868
  219MOL0     C29469  10.980  11.012   6.500  0.0906 -0.6034  0.1533
  219MOL0     C29470  11.124  10.975   6.463  0.1665  0.8969  0.4022
  219MOL0     C29471  11.153  11.007   6.312  0.0883  0.2402 -0.6392
  219MOL0     C29472  11.303  10.998   6.282 -0.0105 -0.1817 -0.0911
  219MOL0     C29473  11.321  11.017   6.136 -0.5810  0.2955 -0.2812
  219MOL0    Cl29474  11.313  11.193   6.104  0.2161 -0.0345  0.2717
  219MOL0     C29475  10.441  10.863   6.177  0.2757  0.3569  0.1646
  219MOL0     C29476  10.345  10.846   6.075 -0.0725 -0.3429  0.5352
  219MOL0     O29477  10.228  10.663   5.904 -0.4705 -0.7529 -0.9061
  219MOL0     C29478  10.006  10.662   5.735 -0.0349  0.0933  0.6186
  219MOL0     C29479   9.909  10.645   5.631  0.4397 -0.6732 -0.0145
  219MOL0     N29480   9.644  11.014   4.963 -0.1129 -0.2972  0.4013
  219MOL0     N29481   9.569  10.971   4.865  0.1796  0.8512 -0.0712
  219MOL0     C29482   8.778  10.606   5.473  0.1562 -0.2876  0.2119
  219MOL0     C29483   8.651  10.560   5.443  0.0330  0.1463  0.4058
  219MOL0     C29484   8.268  10.385   5.508 -1.1009  0.4141 -0.6584
  219MOL0     C29485   8.219  10.425   5.387 -0.6773 -0.0239  0.0261
  219MOL0     C29486   8.079  10.434   5.358  0.0403 -0.3674  0.0900
  219MOL0     C29487   7.984  10.413   5.456  0.1424  0.0877  0.6380
  219MOL0     O29488   7.850  10.423   5.431  0.8455 -0.1282  0.4610
  219MOL0     C29489   7.762  10.341   5.509  0.3677 -0.4439 -0.1343
  219MOL0     C29490   7.770  10.190   5.469  0.8472  0.0881  0.9000
  219MOL0     C29491   7.639  10.101   5.487 -0.4899  0.4110  0.2754
  219MOL0     C29492   7.541  10.114   5.376  0.1649  0.1104  0.2658
  219MOL0     C29493   7.413  10.149   5.442  0.1711 -0.3112 -0.1681
  219MOL0     C29494   7.305  10.184   5.479  0.4048  0.5786  0.4948
  219MOL0     C29495   8.038  10.373   5.583 -0.3677  0.3760  0.3759
  219MOL0     C29496   8.181  10.348   5.605  0.7344 -0.6388  0.0739
  219MOL0     C29497   8.212  10.296   5.741 -0.1048 -0.4067 -0.3339
  219MOL0     H29498   8.729  10.235   5.380  2.2745  0.8592 -1.5141
  219MOL0     H29499   8.945  10.316   5.430 -0.6330 -1.3554  2.5388
  219MOL0     H29500   9.027  10.744   5.428  2.6322 -2.3728 -3.9120
  219MOL0     H29501   9.039  10.713   5.601 -1.6860 -1.4220 -0.1628
  219MOL0     H29502   9.257  10.583   5.559  0.7097  1.5951  0.8444
  219MOL0     H29503   9.266  10.748   5.521 -3.9175  0.9648  1.5329
  219MOL0     H29504   9.196  10.543   5.307 -1.1159  0.4633  0.3329
  219MOL0     H29505   9.364  10.587   5.334  0.7089  1.3124  2.3639
  219MOL0     H29506   9.149  10.768   5.239 -1.6195 -1.4735  3.4768
  219MOL0     H29507   9.326  10.809   5.290  3.0180 -4.7890  1.7469
  219MOL0     H29508   9.409  10.662   5.104 -0.2399 -1.0337 -1.6261
  219MOL0     H29509   9.244  10.636   5.060 -0.9474  0.2662  0.5975
  219MOL0     H29510   9.201  10.867   5.022 -0.4685 -0.7573 -0.2556
  219MOL0     H29511   9.363  10.914   5.059 -0.1675 -2.2618  2.3440
  219MOL0     H29512   9.304  10.892   4.813  2.1618  0.4116 -0.8465
  219MOL0     H29513   9.252  10.716   4.835  0.3107 -0.0845  0.8719
  219MOL0     H29514   9.473  10.644   4.852 -2.7781 -0.5627  1.9847
  219MOL0     H29515   9.466  10.760   4.718  1.1228 -1.6537 -0.3558
  219MOL0     H29516   9.670  10.691   5.009  0.7960  0.8102 -1.0235
  219MOL0     H29517   9.839  10.826   5.175 -3.1932 -1.3137  3.8018
  219MOL0     H29518   9.868  10.996   5.131 -1.1401  0.4091  0.8940
  219MOL0     H29519   9.782  10.993   5.346 -0.3199 -0.3243  1.1536
  219MOL0     H29520   9.654  11.055   5.241  1.5945  0.7692  0.7119
  219MOL0     H29521   9.634  10.760   5.260  1.1588 -0.9124  2.3071
  219MOL0     H29522   9.527  10.888   5.349  0.3888  2.4679  0.4458
  219MOL0     H29523   9.616  10.715   5.499  0.9044 -1.3561  0.7486
  219MOL0     H29524   9.703  10.873   5.529  1.5524  0.5837 -0.3317
  219MOL0     H29525  10.002  10.930   5.456 -2.3628 -0.9933 -2.1391
  219MOL0     H29526  10.181  10.933   5.625  0.9949  0.3327  2.1107
  219MOL0     H29527  10.542  10.947   5.822 -0.2567 -0.0141 -0.0411
  219MOL0     H29528  10.701  10.983   6.012 -0.6814  0.9758  0.1064
  219MOL0     H29529  10.531  10.940   6.413 -1.5599 -2.5390 -1.0061
  219MOL0     H29530  10.637  10.790   6.401  1.2893  0.3146  1.0891
  219MOL0     H29531  10.713  11.055   6.469 -1.8751 -0.1943 -1.0342
  219MOL0     H29532  10.729  10.928   6.583 -1.1304 -0.4629  0.3482
  219MOL0     H29533  10.916  10.812   6.471 -0.9352  1.0150  3.3519
  219MOL0     H29534  10.889  10.906   6.322  0.2902 -1.3841 -0.4463
  219MOL0     H29535  10.978  11.007   6.609  0.6365  0.5550  0.2309
  219MOL0     H29536  10.974  11.116   6.467 -0.0797 -0.2399  1.2825
  219MOL0     H29537  11.142  10.869   6.484  1.5502  1.3694  1.7947
  219MOL0     H29538  11.176  11.033   6.540  0.5668  1.0099  0.0494
  219MOL0     H29539  11.107  10.923   6.260 -0.8792 -0.4725  1.2725
  219MOL0     H29540  11.106  11.100   6.277  0.1765  1.3198  1.8369
  219MOL0     H29541  11.334  10.895   6.303  2.4527  0.5143 -0.0573
  219MOL0     H29542  11.370  11.068   6.332  0.6980 -0.9417  0.0451
  219MOL0     H29543  11.411  10.964   6.103 -0.7300 -0.2672  0.1947
  219MOL0     H29544  11.242  10.960   6.086 -0.3262 -1.6531  1.4108
  219MOL0     H29545  10.409  10.836   6.277  1.8460  3.6721  1.7106
  219MOL0     H29546  10.248  10.806   6.103 -0.1706  1.6776  3.4662
  219MOL0     H29547   9.999  10.588   5.815  0.0069  2.2259  2.6947
  219MOL0     H29548   9.844  10.558   5.635 -2.8459  1.2683 -3.9222
  219MOL0     H29549   8.796  10.710   5.500  1.4182  0.2328 -2.2940
  219MOL0     H29550   8.564  10.625   5.439  0.1271  0.2008 -1.0322
  219MOL0     H29551   8.291  10.450   5.310  0.5129  0.2830  1.1926
  219MOL0     H29552   8.048  10.474   5.262  1.5431  0.8645  0.0754
  219MOL0     H29553   7.661  10.372   5.479 -0.8715 -3.7134  0.2404
  219MOL0     H29554   7.770  10.366   5.615 -0.7168  0.8152 -0.3213
  219MOL0     H29555   7.851  10.146   5.529  0.1006  0.0148  1.8799
  219MOL0     H29556   7.811  10.180   5.368 -0.4084  0.1103  0.3830
  219MOL0     H29557   7.608  10.131   5.588  0.8613 -0.5283  0.9914
  219MOL0     H29558   7.665   9.996   5.496  0.6787  0.3470 -2.7676
  219MOL0     H29559   7.561  10.203   5.316 -2.1213  2.2005  2.3547
  219MOL0     H29560   7.544  10.018   5.323  1.7421  1.2658 -1.8886
  219MOL0     H29561   7.213  10.228   5.513  0.8688  1.3242  0.7971
  219MOL0     H29562   7.965  10.368   5.664 -0.5330  1.9232  0.3535
  219MOL0     H29563   8.117  10.265   5.785 -2.6099  1.3450 -4.0007
  219MOL0     H29564   8.284  10.214   5.736  4.2460  3.0236 -0.7570
  219MOL0     H29565   8.253  10.374   5.807  0.2056 -2.8835  2.6405
  220MOL0     O29566   0.553   3.194   5.106  0.3157  0.0503 -0.1759
  220MOL0     C29567   0.457   3.123   5.141  0.2516 -0.0999 -0.6120
  220MOL0     O29568   0.454   2.990   5.118  0.2312  0.5592 -0.3368
  220MOL0     C29569   0.560   2.926   5.063  0.4404 -0.9230 -0.2407
  220MOL0     C29570   0.667   2.889   5.146  0.8527  0.3956 -0.9669
  220MOL0     C29571   0.780   2.832   5.088  0.1127  1.0003 -0.0109
  220MOL0     C29572   0.786   2.786   4.953 -0.4763  0.1544 -0.4028
  220MOL0     O29573   0.905   2.734   4.917 -0.8695 -0.4395 -0.7493
  220MOL0     C29574   0.944   2.704   4.777 -0.6487 -0.3481  0.0403
  220MOL0     C29575   1.094   2.724   4.756  0.0354 -0.1936  0.3268
  220MOL0     C29576   1.175   2.647   4.853  0.5120 -0.1520  0.0343
  220MOL0     C29577   1.323   2.693   4.853  0.4864 -0.2446  0.1988
  220MOL0     C29578   1.416   2.595   4.777 -0.2018 -0.2561  0.3243
  220MOL0     C29579   1.566   2.644   4.773 -0.1912  0.6062  0.7489
  220MOL0     C29580   1.588   2.784   4.717  0.0855 -0.1734  0.4335
  220MOL0     C29581   1.722   2.795   4.654  0.8980 -0.1902  0.7688
  220MOL0     N29582   1.841   2.769   4.736  0.0702 -0.6411  0.6412
  220MOL0     C29583   1.893   2.851   4.835 -0.5395  0.7713  0.1759
  220MOL0     C29584   1.974   2.765   4.905 -0.1365 -0.2596 -0.4218
  220MOL0     C29585   2.045   2.794   5.039  0.6972 -0.2924 -0.2893
  220MOL0     C29586   2.136   2.915   5.028  1.1921  0.0593  0.4231
  220MOL0     C29587   2.187   2.960   5.162  0.0840 -0.5010  0.0950
  220MOL0     C29588   2.276   2.860   5.229 -0.2605  1.0141  0.2433
  220MOL0     O29589   2.397   2.831   5.150  0.1259  0.4773  0.2451
  220MOL0     C29590   2.515   2.801   5.215  0.2047  0.3126  0.1660
  220MOL0     C29591   2.535   2.793   5.350  0.1156 -0.7139 -0.0813
  220MOL0     C29592   2.665   2.762   5.400  0.6267  0.2855  0.2830
  220MOL0     C29593   2.764   2.717   5.309 -0.9696 -0.5623 -0.1510
  220MOL0     C29594   2.902   2.680   5.362 -0.6630 -0.2629  0.4169
  220MOL0     O29595   2.914   2.669   5.504 -0.0239 -0.3025  0.2313
  220MOL0     C29596   3.042   2.644   5.555 -0.2706  0.4810  0.1520
  220MOL0     C29597   3.161   2.712   5.516  0.0570  0.9248 -0.1718
  220MOL0     C29598   3.290   2.693   5.564  0.4475  0.4607  0.2383
  220MOL0     C29599   3.300   2.600   5.665  0.7180 -0.4129  0.2639
  220MOL0     O29600   3.427   2.571   5.707  0.3009  0.1518 -0.2533
  220MOL0     C29601   3.443   2.459   5.807  0.0903 -0.0150  0.8406
  220MOL0     C29602   3.591   2.458   5.837  0.2287 -0.1734  0.1985
  220MOL0     C29603   3.623   2.358   5.948 -0.6023 -0.3809  1.1195
  220MOL0     C29604   3.774   2.316   5.928  0.4403  0.6407 -0.9196
  220MOL0     C29605   3.821   2.223   6.048 -1.0093 -0.4108  0.5227
  220MOL0     C29606   3.971   2.215   6.041  1.2825  0.0772 -0.5501
  220MOL0     C29607   4.019   2.103   6.123  0.3112 -0.0734 -0.4483
  220MOL0     C29608   4.166   2.062   6.129  0.3152  0.1207  0.4915
  220MOL0    Cl29609   4.271   2.183   6.205 -0.4529  0.3169  0.4657
  220MOL0     C29610   3.182   2.539   5.720 -0.1947  0.5327 -0.8659
  220MOL0     C29611   3.054   2.556   5.662  0.0676 -0.2551 -0.0971
  220MOL0     O29612   2.996   2.675   5.276 -0.2450 -0.0316 -1.2008
  220MOL0     C29613   2.739   2.714   5.173 -0.4509  0.2497  0.4199
  220MOL0     C29614   2.614   2.757   5.133 -0.1751 -0.2999 -0.2973
  220MOL0     N29615   1.977   2.642   4.854 -0.0454  1.1855  0.5635
  220MOL0     N29616   1.896   2.645   4.751 -0.0524 -0.1157 -0.5139
  220MOL0     C29617   0.670   2.803   4.876 -0.3938  0.6747 -0.6954
  220MOL0     C29618   0.557   2.880   4.930  0.0327  0.2820 -0.3378
  220MOL0     C29619   0.348   3.181   5.228 -0.9773  0.6631  0.4978
  220MOL0     C29620   0.293   3.100   5.330  0.6390  0.1713 -0.3068
  220MOL0     C29621   0.227   3.161   5.434  0.6960  0.3331 -0.1315
  220MOL0     C29622   0.196   3.301   5.433 -0.1807  0.5635  0.9934
  220MOL0     O29623   0.122   3.362   5.531  0.0635  0.3633 -0.6107
  220MOL0     C29624   0.031   3.275   5.608 -0.7059 -0.0674  0.0672
  220MOL0     C29625  -0.085   3.229   5.516 -0.6244 -0.2404 -0.1982
  220MOL0     C29626  -0.211   3.194   5.602 -0.0168  0.5154  0.1950
  220MOL0     C29627  -0.335   3.204   5.512  0.6619  0.0104  0.5846
  220MOL0     C29628  -0.450   3.131   5.544 -0.3103  0.6767  0.8668
  220MOL0     C29629  -0.551   3.070   5.556 -0.0980 -0.3611 -0.7594
  220MOL0     C29630   0.244   3.376   5.326 -0.1693 -0.7277 -0.3992
  220MOL0     C29631   0.310   3.312   5.218  0.2138  0.6614  1.0539
  220MOL0     C29632   0.340   3.394   5.096  0.8603  0.6446  0.6779
  220MOL0     H29633   0.683   2.922   5.249  0.9447 -1.8187 -0.2195
  220MOL0     H29634   0.865   2.814   5.153 -0.4930 -2.7131 -0.0296
  220MOL0     H29635   0.918   2.600   4.754  2.1873 -1.3100  0.8170
  220MOL0     H29636   0.891   2.769   4.707 -0.0053  1.4823  1.1810
  220MOL0     H29637   1.107   2.833   4.758  0.3039 -0.2300  0.7903
  220MOL0     H29638   1.129   2.690   4.659  2.1234  2.3976  0.0493
  220MOL0     H29639   1.167   2.540   4.834 -0.9687 -0.2300  0.9400
  220MOL0     H29640   1.135   2.671   4.952 -0.5543 -2.9025  0.3473
  220MOL0     H29641   1.326   2.789   4.801 -0.4944 -0.0223  0.5275
  220MOL0     H29642   1.357   2.713   4.955  1.8136  1.5483 -0.5401
  220MOL0     H29643   1.414   2.495   4.822 -1.0466 -0.0338  0.7977
  220MOL0     H29644   1.390   2.587   4.671 -2.2333  1.0819  0.6757
  220MOL0     H29645   1.613   2.645   4.872 -0.6346  0.2495  0.9667
  220MOL0     H29646   1.624   2.576   4.710 -2.2938  0.9861 -1.7667
  220MOL0     H29647   1.580   2.858   4.797 -0.3798 -0.4739  0.6744
  220MOL0     H29648   1.514   2.808   4.640  1.9578  0.1438 -1.3330
  220MOL0     H29649   1.713   2.723   4.572 -2.8806 -1.3061  1.9806
  220MOL0     H29650   1.734   2.896   4.616 -1.8193  0.0764  0.4294
  220MOL0     H29651   1.864   2.953   4.856  0.0201  0.8809  0.4110
  220MOL0     H29652   1.969   2.832   5.107  0.8481  0.1659 -0.3716
  220MOL0     H29653   2.091   2.700   5.071  0.4526 -0.6977 -1.0932
  220MOL0     H29654   2.226   2.897   4.969  0.2331 -0.9276 -0.7802
  220MOL0     H29655   2.074   2.992   4.981  0.0923  0.1704  1.9728
  220MOL0     H29656   2.101   2.973   5.228 -0.1788 -0.1354 -0.3145
  220MOL0     H29657   2.237   3.057   5.161 -2.3745  0.8601  0.1829
  220MOL0     H29658   2.215   2.772   5.250  1.5655 -1.1448 -2.8388
  220MOL0     H29659   2.306   2.900   5.327  0.5752 -1.3909  1.0472
  220MOL0     H29660   2.458   2.820   5.422  1.0265  1.7407  0.0624
  220MOL0     H29661   2.686   2.759   5.506 -1.4939  0.1432  0.7237
  220MOL0     H29662   3.151   2.790   5.441  0.3499  1.3169  0.1928
  220MOL0     H29663   3.376   2.748   5.528  1.0447 -0.4600  0.2416
  220MOL0     H29664   3.384   2.471   5.898 -0.2408 -1.4727  0.8492
  220MOL0     H29665   3.416   2.365   5.757 -1.2824  0.4857  0.6089
  220MOL0     H29666   3.636   2.430   5.742  2.9261 -0.0962  1.3525
  220MOL0     H29667   3.622   2.560   5.860  0.0911  0.8515 -3.6230
  220MOL0     H29668   3.613   2.394   6.051  0.4563  1.5701  0.5919
  220MOL0     H29669   3.559   2.270   5.937  1.8194 -2.0378 -1.0297
  220MOL0     H29670   3.827   2.411   5.945 -0.9361  1.4356 -0.9314
  220MOL0     H29671   3.787   2.272   5.829 -0.6725  0.9811 -1.2246
  220MOL0     H29672   3.770   2.128   6.031 -2.9418  0.3755  1.6020
  220MOL0     H29673   3.785   2.256   6.146 -2.7519 -0.4813 -0.0489
  220MOL0     H29674   3.992   2.198   5.935 -0.7209 -0.0058 -0.9721
  220MOL0     H29675   4.022   2.304   6.077 -0.0651 -0.3401  2.7566
  220MOL0     H29676   3.966   2.012   6.093 -2.7916  0.0774  3.7130
  220MOL0     H29677   3.995   2.123   6.228  2.6477 -0.1820  0.1734
  220MOL0     H29678   4.175   1.973   6.190  1.9934 -1.1324 -1.4390
  220MOL0     H29679   4.198   2.033   6.028 -0.1000 -1.3000  0.7468
  220MOL0     H29680   3.170   2.459   5.792  0.6528  0.1934 -1.0896
  220MOL0     H29681   2.966   2.496   5.683  0.4655 -1.2624 -1.2249
  220MOL0     H29682   2.819   2.679   5.109 -1.9393 -1.5641 -0.5847
  220MOL0     H29683   2.597   2.770   5.027 -1.4874 -0.2311 -0.0897
  220MOL0     H29684   0.663   2.755   4.779 -1.0319 -1.7916  0.4972
  220MOL0     H29685   0.461   2.897   4.882 -0.9770  2.8097  2.2688
  220MOL0     H29686   0.307   2.993   5.332 -0.2124  0.0474 -0.6977
  220MOL0     H29687   0.199   3.084   5.505 -1.1525 -1.3208 -2.4929
  220MOL0     H29688  -0.010   3.339   5.686 -0.2104 -1.4794  1.5378
  220MOL0     H29689   0.084   3.191   5.655 -0.6510  0.2100  0.5084
  220MOL0     H29690  -0.061   3.139   5.458  0.0643 -1.2885  1.6347
  220MOL0     H29691  -0.091   3.315   5.449  2.5068 -0.1891 -0.5687
  220MOL0     H29692  -0.214   3.272   5.678  2.8062  1.2127 -0.2936
  220MOL0     H29693  -0.192   3.097   5.648  1.6718 -0.5618 -2.5128
  220MOL0     H29694  -0.368   3.308   5.500 -0.9098 -0.1585  2.8192
  220MOL0     H29695  -0.312   3.172   5.410  0.7480  0.5724  0.4231
  220MOL0     H29696  -0.640   3.013   5.573  1.8869 -4.1864 -2.1124
  220MOL0     H29697   0.221   3.481   5.318 -2.9556 -1.2975 -0.7387
  220MOL0     H29698   0.309   3.345   5.003  0.1561  2.5017 -0.1128
  220MOL0     H29699   0.281   3.486   5.103 -0.5292 -0.2628  1.4094
  220MOL0     H29700   0.441   3.435   5.094  1.6617 -1.1068  2.0845
  221MOL0     O29701   2.055   2.541   8.421 -0.3983  0.4859 -0.2846
  221MOL0     C29702   2.020   2.430   8.385  0.0894  0.2275 -0.1900
  221MOL0     O29703   1.897   2.358   8.412 -0.2903 -0.1198 -0.6711
  221MOL0     C29704   1.775   2.422   8.426  0.8647  0.5650  0.2726
  221MOL0     C29705   1.766   2.562   8.461  0.3126  1.3693  0.3993
  221MOL0     C29706   1.632   2.598   8.494  0.2686  0.1605  0.0999
  221MOL0     C29707   1.520   2.513   8.459  0.1119 -0.5064  0.0083
  221MOL0     O29708   1.386   2.549   8.462 -0.5753  0.2384 -0.4373
  221MOL0     C29709   1.348   2.674   8.534 -0.2120  0.0324 -0.4527
  221MOL0     C29710   1.200   2.672   8.564  0.7434  0.4411  0.3569
  221MOL0     C29711   1.163   2.556   8.657 -0.0369  0.3657 -0.4601
  221MOL0     C29712   1.015   2.536   8.661  0.1183 -0.3935  0.1822
  221MOL0     C29713   0.950   2.418   8.735 -0.1293 -0.5145 -0.4176
  221MOL0     C29714   0.999   2.426   8.882 -0.3674  0.0593 -0.4073
  221MOL0     C29715   0.936   2.537   8.950  0.1190 -0.9450  0.0032
  221MOL0     C29716   0.988   2.563   9.097 -0.3243 -0.3439 -0.7962
  221MOL0     N29717   1.122   2.621   9.090  0.1681  0.2908 -0.8035
  221MOL0     C29718   1.146   2.737   9.032 -0.0587 -0.4788  0.2805
  221MOL0     C29719   1.278   2.750   9.039  0.0884  0.6777 -0.5590
  221MOL0     C29720   1.352   2.877   9.017 -0.5412  1.1489 -0.0212
  221MOL0     C29721   1.458   2.841   8.918 -0.3075  0.5037 -0.9046
  221MOL0     C29722   1.546   2.967   8.872 -1.0012  0.1892  0.6329
  221MOL0     C29723   1.612   2.944   8.735  0.8127 -0.3968 -0.2359
  221MOL0     O29724   1.723   2.856   8.758 -0.0725 -0.1360  0.1973
  221MOL0     C29725   1.841   2.870   8.685  0.9738  0.3280 -0.2150
  221MOL0     C29726   1.853   2.936   8.568 -0.0615  0.7372  0.8264
  221MOL0     C29727   1.974   2.951   8.511 -0.0526 -0.0068 -0.1135
  221MOL0     C29728   2.095   2.900   8.565 -0.6867 -0.5650  0.4731
  221MOL0     C29729   2.221   2.917   8.492  0.4220  0.6146 -0.0046
  221MOL0     O29730   2.226   3.005   8.391  0.3939 -0.3070 -0.2292
  221MOL0     C29731   2.339   2.991   8.321 -0.1528  0.3712  0.1436
  221MOL0     C29732   2.451   3.057   8.356  0.0367  0.7361  0.7078
  221MOL0     C29733   2.575   3.044   8.291 -0.4769 -0.8670 -0.5580
  221MOL0     C29734   2.577   2.963   8.169 -0.0138 -0.8276 -0.5970
  221MOL0     O29735   2.694   2.958   8.089  0.0483  0.4811  0.2191
  221MOL0     C29736   2.817   2.943   8.153  0.0974 -0.1072  0.1771
  221MOL0     C29737   2.928   2.874   8.066 -0.1085  0.2944 -0.3326
  221MOL0     C29738   2.925   2.923   7.917  0.1792 -0.6945  0.2222
  221MOL0     C29739   3.033   2.857   7.833 -0.7798  0.0327  0.2260
  221MOL0     C29740   3.039   2.904   7.683 -0.3023 -0.7525  0.3390
  221MOL0     C29741   3.154   2.837   7.609  0.5604  0.2350 -0.1242
  221MOL0     C29742   3.137   2.836   7.458 -0.2378  0.5663 -0.5308
  221MOL0     C29743   3.268   2.786   7.388 -0.0313 -0.0431  0.4557
  221MOL0    Cl29744   3.396   2.904   7.398  0.3199 -0.2645  0.0641
  221MOL0     C29745   2.461   2.892   8.129 -1.0403  0.1364  0.0003
  221MOL0     C29746   2.344   2.906   8.206  0.7122 -0.4580 -0.3194
  221MOL0     O29747   2.313   2.837   8.522  0.7855 -0.0467  0.3435
  221MOL0     C29748   2.086   2.819   8.678 -0.5426  0.2194 -0.5429
  221MOL0     C29749   1.957   2.810   8.738  0.4113 -0.3542 -0.1397
  221MOL0     N29750   1.337   2.635   9.094  1.2006 -0.9433 -0.8750
  221MOL0     N29751   1.234   2.562   9.132 -0.9101 -0.0302 -0.3458
  221MOL0     C29752   1.538   2.384   8.417 -0.3416  0.0790 -0.0485
  221MOL0     C29753   1.663   2.334   8.408  0.5155 -0.3150  0.5648
  221MOL0     C29754   2.120   2.366   8.290  0.0843 -0.1892 -0.5165
  221MOL0     C29755   2.059   2.275   8.204 -0.2718  0.9114 -0.1512
  221MOL0     C29756   2.120   2.202   8.095  0.1401 -0.3786 -0.0208
  221MOL0     C29757   2.259   2.222   8.082  1.4751  0.1266  0.2643
  221MOL0     O29758   2.338   2.153   7.988 -0.0693  0.2140 -0.1688
  221MOL0     C29759   2.307   2.016   7.956  0.0278 -0.0592 -0.1190
  221MOL0     C29760   2.426   1.954   7.869 -0.5109 -0.5503 -0.3129
  221MOL0     C29761   2.472   2.054   7.758  0.6640 -0.5667  0.5322
  221MOL0     C29762   2.584   1.996   7.665 -0.1492  0.1628 -0.3459
  221MOL0     C29763   2.692   1.938   7.758 -0.4243  0.4947 -0.1003
  221MOL0     C29764   2.792   1.899   7.815 -0.5265 -0.3883 -1.1315
  221MOL0     C29765   2.319   2.317   8.166 -0.0727  0.5742  0.3931
  221MOL0     C29766   2.260   2.392   8.267  0.0455 -0.4165 -0.2035
  221MOL0     C29767   2.336   2.503   8.352  0.1710  0.2236  0.2347
  221MOL0     H29768   1.843   2.638   8.462 -0.2144  1.9057  1.8579
  221MOL0     H29769   1.624   2.702   8.526  1.3891  0.1850  0.3261
  221MOL0     H29770   1.408   2.685   8.625  0.0952 -1.3439 -0.4625
  221MOL0     H29771   1.378   2.751   8.463  0.4869 -0.2677 -0.4842
  221MOL0     H29772   1.137   2.662   8.476 -0.7904 -0.0661  1.4648
  221MOL0     H29773   1.164   2.762   8.616 -2.3133 -0.8719  0.7176
  221MOL0     H29774   1.199   2.582   8.757 -0.7318 -2.7176  0.7149
  221MOL0     H29775   1.225   2.467   8.641  2.1951  1.3473  2.0477
  221MOL0     H29776   0.974   2.637   8.676  1.9256  0.0231  2.8906
  221MOL0     H29777   0.981   2.519   8.558 -3.0685 -0.0496  1.0546
  221MOL0     H29778   0.846   2.441   8.710  0.3898 -0.4667 -2.8424
  221MOL0     H29779   0.970   2.324   8.682 -1.1161 -0.3013 -1.1857
  221MOL0     H29780   0.964   2.333   8.927 -0.7926 -0.6872 -2.1865
  221MOL0     H29781   1.107   2.435   8.896 -0.0719 -0.9858 -1.8049
  221MOL0     H29782   0.830   2.511   8.952  0.0401 -0.7822 -1.3557
  221MOL0     H29783   0.944   2.629   8.892 -3.1576 -0.1543  0.6419
  221MOL0     H29784   0.920   2.631   9.149 -0.9905 -1.9321  0.5244
  221MOL0     H29785   0.992   2.469   9.152 -0.3418 -0.4135 -0.9133
  221MOL0     H29786   1.068   2.807   9.005 -0.3982 -0.7389  0.5883
  221MOL0     H29787   1.285   2.949   8.970 -3.3186 -0.7843  0.7397
  221MOL0     H29788   1.394   2.928   9.105  0.3226  0.3923  0.0237
  221MOL0     H29789   1.521   2.770   8.971 -2.5106 -0.0299  1.1356
  221MOL0     H29790   1.406   2.797   8.833 -2.4029 -0.3650  0.7507
  221MOL0     H29791   1.624   2.983   8.947  0.5175  2.6794 -1.2977
  221MOL0     H29792   1.488   3.059   8.866 -1.1805  0.0943  0.9017
  221MOL0     H29793   1.656   3.041   8.707  1.6122  0.0901  2.4214
  221MOL0     H29794   1.548   2.914   8.651 -0.8416 -2.3227  1.6168
  221MOL0     H29795   1.772   2.980   8.511 -0.5644 -2.7304 -1.4190
  221MOL0     H29796   1.986   3.012   8.422 -0.6498  1.8022  0.9875
  221MOL0     H29797   2.432   3.130   8.434 -1.6983 -0.1579  1.1537
  221MOL0     H29798   2.665   3.093   8.327  1.8371 -1.6231 -4.7166
  221MOL0     H29799   2.854   3.034   8.202 -1.1166  0.3830  0.2103
  221MOL0     H29800   2.791   2.883   8.240 -2.8022  0.7317 -0.0246
  221MOL0     H29801   3.026   2.897   8.107  1.6410 -2.7680 -2.4439
  221MOL0     H29802   2.912   2.766   8.075  0.9005  0.1691  0.0325
  221MOL0     H29803   2.824   2.902   7.879  0.7467 -0.7214 -1.3110
  221MOL0     H29804   2.931   3.032   7.924  0.2694 -0.7434  1.0860
  221MOL0     H29805   3.024   2.748   7.838  0.0030 -0.0283  0.5650
  221MOL0     H29806   3.127   2.882   7.883 -1.7403  4.0496  0.3165
  221MOL0     H29807   3.049   3.013   7.680  0.5791 -0.7638 -3.8989
  221MOL0     H29808   2.940   2.883   7.639 -0.8184  0.3215  0.9602
  221MOL0     H29809   3.245   2.894   7.630  0.3753  0.0019  1.4771
  221MOL0     H29810   3.167   2.731   7.633 -1.5763 -0.8913 -3.2830
  221MOL0     H29811   3.115   2.938   7.423 -2.6556  0.1814 -0.3162
  221MOL0     H29812   3.056   2.769   7.430  1.1482 -1.9997  1.1822
  221MOL0     H29813   3.290   2.684   7.423 -0.4423 -0.6093 -0.8830
  221MOL0     H29814   3.243   2.762   7.285  0.8826  1.2575 -0.0921
  221MOL0     H29815   2.459   2.831   8.039  0.7731  1.1925 -0.8074
  221MOL0     H29816   2.253   2.861   8.170 -0.2041 -0.4069  1.7725
  221MOL0     H29817   2.172   2.763   8.714  0.0111  2.0150  1.0910
  221MOL0     H29818   1.944   2.752   8.828  1.0616 -2.9850 -1.6293
  221MOL0     H29819   1.449   2.322   8.406 -1.7951  2.3314 -2.0297
  221MOL0     H29820   1.681   2.227   8.403 -0.6966 -0.5178  0.1693
  221MOL0     H29821   1.953   2.259   8.221 -0.1461  0.6782  0.4182
  221MOL0     H29822   2.064   2.140   8.026  2.0497  0.3203 -2.3592
  221MOL0     H29823   2.210   2.024   7.908 -0.6457 -1.3675  0.9603
  221MOL0     H29824   2.296   1.957   8.048  0.4665 -0.3504 -0.2494
  221MOL0     H29825   2.383   1.863   7.827 -2.5607 -0.0697  0.6077
  221MOL0     H29826   2.512   1.935   7.933  0.2017  0.6022 -0.8865
  221MOL0     H29827   2.519   2.149   7.786 -0.1115 -0.0650  0.1943
  221MOL0     H29828   2.384   2.073   7.695  1.7962  0.0080 -0.9201
  221MOL0     H29829   2.556   1.907   7.607 -1.8281  1.3520 -1.4677
  221MOL0     H29830   2.627   2.071   7.597  1.5690 -0.9386 -0.5327
  221MOL0     H29831   2.881   1.876   7.871  0.0248  0.2766 -1.7056
  221MOL0     H29832   2.425   2.335   8.157 -0.4307  2.3979 -0.7949
  221MOL0     H29833   2.297   2.496   8.454  3.7829 -1.5600  1.7089
  221MOL0     H29834   2.443   2.483   8.366  0.9053  3.8658  0.6547
  221MOL0     H29835   2.321   2.600   8.305  0.0669 -0.8069 -1.9730
  222MOL0     O29836   3.841   4.097  11.060 -0.2582  0.0660  0.2324
  222MOL0     C29837   3.725   4.074  11.020  0.2579  0.7381 -0.8184
  222MOL0     O29838   3.606   4.129  11.061 -0.4081  0.0645 -0.7095
  222MOL0     C29839   3.605   4.259  11.108  0.0960 -0.4361 -0.2870
  222MOL0     C29840   3.697   4.355  11.066  0.0287 -0.5265 -1.0554
  222MOL0     C29841   3.701   4.481  11.130  0.9325  0.0202 -0.4393
  222MOL0     C29842   3.606   4.513  11.227 -0.0717  0.9479 -0.0755
  222MOL0     O29843   3.603   4.631  11.292  0.6256 -0.0556  0.7939
  222MOL0     C29844   3.637   4.743  11.209 -0.7839  0.4055  0.1084
  222MOL0     C29845   3.775   4.790  11.258 -0.2094  0.7412 -0.3541
  222MOL0     C29846   3.849   4.898  11.179 -0.2896  0.1550 -0.0986
  222MOL0     C29847   3.987   4.921  11.248  0.5458  0.0124  0.0120
  222MOL0     C29848   4.081   4.976  11.147 -0.3576  0.5002  0.2902
  222MOL0     C29849   4.211   5.028  11.215 -0.1611  0.1964  0.1378
  222MOL0     C29850   4.319   5.074  11.115 -0.1473 -0.0005  0.2594
  222MOL0     C29851   4.424   5.173  11.176 -0.4112  0.4502 -0.5854
  222MOL0     N29852   4.499   5.109  11.286 -0.6495 -0.2285  0.4579
  222MOL0     C29853   4.592   5.003  11.267 -0.2682 -0.4878 -0.0005
  222MOL0     C29854   4.624   4.964  11.392  0.2884 -0.2247  1.4052
  222MOL0     C29855   4.718   4.849  11.424 -0.0980  0.8153  0.1733
  222MOL0     C29856   4.862   4.879  11.389 -0.0016  0.6651 -0.5530
  222MOL0     C29857   4.904   4.991  11.472 -0.8969 -0.1465  0.4165
  222MOL0     C29858   5.039   5.044  11.435  0.0861  0.4077  0.2726
  222MOL0     O29859   5.144   4.949  11.477 -0.1535  0.0160  0.6138
  222MOL0     C29860   5.279   4.992  11.469 -0.2677 -0.3226 -0.4704
  222MOL0     C29861   5.363   4.922  11.563 -0.5921 -0.0621  0.0754
  222MOL0     C29862   5.497   4.971  11.576  0.3570 -0.0267 -0.2840
  222MOL0     C29863   5.555   5.077  11.496  0.3476  0.2180 -0.1279
  222MOL0     C29864   5.688   5.133  11.508 -0.4557 -0.4005  0.7086
  222MOL0     O29865   5.725   5.209  11.393 -0.2919  0.3850 -0.5001
  222MOL0     C29866   5.858   5.248  11.375  0.7573  0.4090 -0.2558
  222MOL0     C29867   5.966   5.152  11.361 -0.5136 -0.3696  0.6370
  222MOL0     C29868   6.099   5.200  11.344  0.7435 -0.3726  0.2612
  222MOL0     C29869   6.123   5.336  11.344 -0.0030 -0.0512 -0.5065
  222MOL0     O29870   6.257   5.382  11.341  0.5789  0.3595 -0.2350
  222MOL0     C29871   6.294   5.520  11.371 -0.6403 -0.0527  0.7584
  222MOL0     C29872   6.448   5.509  11.392 -0.2387  0.3292 -0.0077
  222MOL0     C29873   6.515   5.638  11.420 -0.0227 -0.1018 -0.4618
  222MOL0     C29874   6.532   5.737  11.301  0.4243  0.6630 -1.1703
  222MOL0     C29875   6.588   5.862  11.365 -0.1312  0.2919 -0.5891
  222MOL0     C29876   6.590   5.976  11.266  0.3278  0.3218 -0.2507
  222MOL0     C29877   6.682   6.076  11.316 -0.2144 -1.4864  0.0503
  222MOL0     C29878   6.674   6.202  11.227 -0.0589  0.7012  0.3815
  222MOL0    Cl29879   6.517   6.292  11.229 -0.3886 -0.2616  0.2903
  222MOL0     C29880   6.018   5.425  11.358 -0.3361 -0.3801 -0.4988
  222MOL0     C29881   5.879   5.387  11.364  0.8642  0.4203  0.1785
  222MOL0     O29882   5.764   5.106  11.603 -0.1776  0.8482  0.5240
  222MOL0     C29883   5.460   5.139  11.411  1.0508  0.0155  0.2031
  222MOL0     C29884   5.330   5.108  11.398  0.0382  0.3632  0.0166
  222MOL0     N29885   4.551   5.043  11.484  0.4649  0.6037 -0.0288
  222MOL0     N29886   4.478   5.132  11.418  0.9380 -0.4484 -1.2796
  222MOL0     C29887   3.512   4.414  11.260  0.5763 -0.2980  0.0375
  222MOL0     C29888   3.511   4.289  11.211 -0.7058  0.2275 -0.2339
  222MOL0     C29889   3.704   3.965  10.926  0.1864 -0.3967  0.2065
  222MOL0     C29890   3.608   3.991  10.818  0.5305  0.7638 -0.1250
  222MOL0     C29891   3.582   3.885  10.727  0.6475  0.1152 -1.3226
  222MOL0     C29892   3.652   3.766  10.735  0.7384  0.4128 -0.0566
  222MOL0     O29893   3.620   3.676  10.635  0.6797 -0.2644 -0.2522
  222MOL0     C29894   3.680   3.543  10.641 -0.6786 -0.4167  0.8150
  222MOL0     C29895   3.614   3.465  10.532 -0.1416 -0.1440 -0.5927
  222MOL0     C29896   3.678   3.494  10.396 -0.2696  0.5735  0.0968
  222MOL0     C29897   3.810   3.423  10.369 -0.0603  0.0812 -0.3851
  222MOL0     C29898   3.864   3.475  10.245  0.1932 -0.7873 -0.3780
  222MOL0     C29899   3.888   3.515  10.136  0.5633  0.2372  0.0258
  222MOL0     C29900   3.753   3.746  10.828 -0.6287 -0.4578  0.1606
  222MOL0     C29901   3.772   3.837  10.926 -1.2948 -0.2241  0.7160
  222MOL0     C29902   3.864   3.803  11.040 -0.6122 -0.3960  0.1488
  222MOL0     H29903   3.771   4.350  10.988  0.1825 -1.3552 -0.8650
  222MOL0     H29904   3.783   4.547  11.105  2.0026 -0.3669  1.8478
  222MOL0     H29905   3.637   4.735  11.100  0.2295 -0.5748  0.1685
  222MOL0     H29906   3.570   4.828  11.230  0.9927  1.1960  3.1531
  222MOL0     H29907   3.839   4.701  11.255  2.2838  2.3790  1.2896
  222MOL0     H29908   3.754   4.821  11.361 -1.3774  0.1772 -0.3999
  222MOL0     H29909   3.790   4.989  11.166 -0.9212 -0.4384 -1.4951
  222MOL0     H29910   3.870   4.866  11.077  1.2738 -1.4197  0.6625
  222MOL0     H29911   3.977   4.998  11.325 -1.0069  1.3788 -1.4618
  222MOL0     H29912   4.027   4.828  11.288  0.3059 -0.3926 -0.6685
  222MOL0     H29913   4.107   4.902  11.071 -2.4283 -2.1026  1.9590
  222MOL0     H29914   4.037   5.055  11.086 -1.5103  1.2295  2.0075
  222MOL0     H29915   4.171   5.107  11.279 -2.1235  1.5316 -2.5251
  222MOL0     H29916   4.264   4.942  11.256  0.4505  0.5555  0.1195
  222MOL0     H29917   4.276   5.134  11.034 -0.0320 -0.3480 -0.0605
  222MOL0     H29918   4.373   4.988  11.074 -2.2567 -2.3792  2.1490
  222MOL0     H29919   4.485   5.207  11.092 -1.1936  1.8518 -0.6257
  222MOL0     H29920   4.370   5.260  11.215 -0.6190  1.4117 -2.9028
  222MOL0     H29921   4.645   4.978  11.176  1.5657 -1.2160  1.2041
  222MOL0     H29922   4.703   4.837  11.532  0.9255  3.0470  0.6262
  222MOL0     H29923   4.684   4.761  11.369  2.0894 -0.8570  1.3527
  222MOL0     H29924   4.924   4.790  11.405 -0.0029  0.3842 -1.9868
  222MOL0     H29925   4.882   4.895  11.283  0.6763  2.8374 -0.1389
  222MOL0     H29926   4.908   4.962  11.577 -1.3881 -3.6930 -0.3922
  222MOL0     H29927   4.833   5.074  11.465 -0.8280 -0.1006  0.2450
  222MOL0     H29928   5.068   5.138  11.482  0.1018  2.0840 -2.8253
  222MOL0     H29929   5.040   5.055  11.326 -2.3912  1.2314  0.2906
  222MOL0     H29930   5.313   4.838  11.609 -0.2631  0.0016  0.5608
  222MOL0     H29931   5.562   4.917  11.644  2.6124  1.2787 -1.2845
  222MOL0     H29932   5.946   5.047  11.378 -0.0463 -1.4018 -3.9787
  222MOL0     H29933   6.183   5.132  11.335  1.4420  0.5251 -0.1229
  222MOL0     H29934   6.267   5.578  11.283  1.8733 -1.8939 -1.3705
  222MOL0     H29935   6.252   5.562  11.463 -2.2264 -2.8600  1.4505
  222MOL0     H29936   6.470   5.446  11.479  1.3018  0.6893 -0.1197
  222MOL0     H29937   6.487   5.453  11.306  1.3015  0.2039  0.7544
  222MOL0     H29938   6.460   5.697  11.493 -0.3661 -0.5139 -0.3832
  222MOL0     H29939   6.613   5.625  11.467  0.3180  0.6103 -0.9530
  222MOL0     H29940   6.437   5.758  11.252  0.8214  0.9981 -1.8150
  222MOL0     H29941   6.602   5.688  11.232 -0.2090 -0.1113 -1.2837
  222MOL0     H29942   6.685   5.840  11.411 -1.0837 -2.2596  0.4116
  222MOL0     H29943   6.519   5.900  11.440  3.1661  0.9825  2.3370
  222MOL0     H29944   6.620   5.943  11.166 -3.1079  1.4783 -1.8612
  222MOL0     H29945   6.495   6.031  11.268  1.1463  1.7570  1.4281
  222MOL0     H29946   6.784   6.039  11.297  0.5659  0.6435 -0.2384
  222MOL0     H29947   6.670   6.106  11.420  0.2678  0.1232 -0.3326
  222MOL0     H29948   6.755   6.272  11.249  0.3007  0.3988  0.0406
  222MOL0     H29949   6.699   6.165  11.127 -0.1232  0.8701  0.3024
  222MOL0     H29950   6.029   5.533  11.366 -1.9052 -0.3004  1.4524
  222MOL0     H29951   5.805   5.466  11.363  0.9651  0.5386  1.0233
  222MOL0     H29952   5.479   5.231  11.356  0.8544  0.9029  1.5534
  222MOL0     H29953   5.259   5.156  11.331 -2.0653 -1.9696  0.4228
  222MOL0     H29954   3.438   4.443  11.334 -0.5340 -2.3635 -0.1821
  222MOL0     H29955   3.437   4.215  11.239 -2.1139  2.1416  1.3631
  222MOL0     H29956   3.549   4.080  10.799  1.1199  0.7870 -2.0617
  222MOL0     H29957   3.486   3.891  10.676  0.2285 -0.0888 -0.5738
  222MOL0     H29958   3.680   3.488  10.735 -2.4150  0.8517  1.6081
  222MOL0     H29959   3.785   3.554  10.613 -1.0272  0.5918 -0.1674
  222MOL0     H29960   3.511   3.498  10.514 -0.4106 -1.2189 -1.1176
  222MOL0     H29961   3.617   3.360  10.562  3.2252  0.4860  1.8811
  222MOL0     H29962   3.691   3.601  10.377 -0.9933  0.8786  1.2136
  222MOL0     H29963   3.598   3.463  10.328  0.2452  1.6064 -1.0210
  222MOL0     H29964   3.888   3.444  10.443 -1.6125  4.7579  0.3060
  222MOL0     H29965   3.789   3.317  10.354 -0.0599  0.0990 -0.5200
  222MOL0     H29966   3.904   3.547  10.035 -0.9827  0.4312 -0.1844
  222MOL0     H29967   3.806   3.651  10.827 -1.9048 -1.2083  0.9421
  222MOL0     H29968   3.965   3.830  11.007 -0.6010  1.4064  1.4884
  222MOL0     H29969   3.838   3.860  11.130 -2.2475  2.7888 -2.1281
  222MOL0     H29970   3.863   3.695  11.056  1.5620 -0.2943  1.3671
  223MOL0     O29971   0.841   2.176   3.488  0.4849  0.1842  0.0015
  223MOL0     C29972   0.720   2.148   3.478 -0.1207 -0.0731  0.3772
  223MOL0     O29973   0.664   2.106   3.356  0.0325  0.1216 -0.1857
  223MOL0     C29974   0.734   2.127   3.240  1.0097 -0.4129 -0.1356
  223MOL0     C29975   0.838   2.041   3.202  0.1451  0.0990  0.5598
  223MOL0     C29976   0.889   2.034   3.072  0.1614 -0.1604 -0.1926
  223MOL0     C29977   0.845   2.126   2.974 -0.4464  0.2165  0.1863
  223MOL0     O29978   0.909   2.129   2.855 -0.4940  0.6963 -0.5355
  223MOL0     C29979   1.051   2.155   2.859  0.7600  0.6773 -0.2717
  223MOL0     C29980   1.104   2.171   2.718 -0.8320  0.3445  0.2566
  223MOL0     C29981   1.067   2.302   2.645  0.1223  0.0520 -0.4193
  223MOL0     C29982   1.120   2.299   2.500  0.1648  0.2631  0.8500
  223MOL0     C29983   1.091   2.429   2.423 -0.5912  0.2026 -0.6173
  223MOL0     C29984   0.944   2.456   2.382 -0.5837 -0.5811  0.7843
  223MOL0     C29985   0.910   2.580   2.296 -0.6339  0.5049  0.3912
  223MOL0     C29986   0.880   2.540   2.155 -0.4387 -0.8082 -0.0068
  223MOL0     N29987   0.753   2.467   2.137  0.3932 -0.6386 -0.5117
  223MOL0     C29988   0.631   2.504   2.192  0.2315  0.7215  0.4729
  223MOL0     C29989   0.551   2.392   2.202 -0.3441  0.1777  0.0178
  223MOL0     C29990   0.421   2.384   2.275 -0.1705  0.1507  0.2296
  223MOL0     C29991   0.297   2.370   2.193 -0.1097  0.6680  1.0732
  223MOL0     C29992   0.173   2.367   2.270 -0.0878  0.4984  0.0238
  223MOL0     C29993   0.062   2.318   2.169  0.8745 -0.3605  0.1312
  223MOL0     O29994  -0.053   2.301   2.258  0.2266 -1.2718  0.6892
  223MOL0     C29995  -0.172   2.283   2.191 -0.3060 -0.0831  0.0811
  223MOL0     C29996  -0.190   2.256   2.049  0.0691 -0.5508 -1.2022
  223MOL0     C29997  -0.322   2.256   2.006  0.4501 -0.3370  0.3722
  223MOL0     C29998  -0.429   2.294   2.090  0.5406 -0.3835  0.6044
  223MOL0     C29999  -0.563   2.326   2.026 -0.0718 -0.4602  0.3877
  223MOL0     O30000  -0.657   2.368   2.105  1.1024  0.3905 -0.3970
  223MOL0     C30001  -0.785   2.361   2.055 -0.4215 -0.1559 -0.8338
  223MOL0     C30002  -0.822   2.433   1.945 -0.3318  0.0744  0.4119
  223MOL0     C30003  -0.955   2.425   1.917 -0.5638  0.7287  0.7385
  223MOL0     C30004  -1.051   2.355   1.987 -0.4416  1.3088 -0.3947
  223MOL0     O30005  -1.184   2.355   1.971 -0.0914 -0.2148 -0.1849
  223MOL0     C30006  -1.242   2.435   1.866 -0.4093 -0.1086 -0.4760
  223MOL0     C30007  -1.390   2.410   1.835 -0.3078  0.0289  0.8467
  223MOL0     C30008  -1.457   2.522   1.752 -0.0262  0.1356  0.1923
  223MOL0     C30009  -1.601   2.476   1.718 -0.4890  0.0925 -0.4629
  223MOL0     C30010  -1.675   2.571   1.613 -0.0388 -0.5436  0.3140
  223MOL0     C30011  -1.808   2.510   1.562  0.5864 -0.0685 -0.9772
  223MOL0     C30012  -1.893   2.608   1.480  0.1762 -0.1179 -0.4341
  223MOL0     C30013  -2.013   2.541   1.402 -0.4844  0.0964 -0.6685
  223MOL0    Cl30014  -2.135   2.467   1.508  0.1321 -0.0894 -0.0470
  223MOL0     C30015  -1.008   2.283   2.096  0.0927 -0.3209 -0.2820
  223MOL0     C30016  -0.875   2.280   2.135  0.4079  0.3180  0.0392
  223MOL0     O30017  -0.578   2.284   1.912 -0.5399 -0.0598  0.9395
  223MOL0     C30018  -0.412   2.319   2.225 -0.5546  0.1613  0.4260
  223MOL0     C30019  -0.288   2.308   2.273 -0.4453  0.3555 -0.2791
  223MOL0     N30020   0.626   2.286   2.148 -0.0800  0.0832  0.2594
  223MOL0     N30021   0.744   2.336   2.112 -0.8011  0.1317 -0.4138
  223MOL0     C30022   0.750   2.222   3.004  0.4563 -0.2423  0.0315
  223MOL0     C30023   0.691   2.219   3.136  0.5631 -0.6256  0.3874
  223MOL0     C30024   0.639   2.146   3.602  0.4139  0.2798 -0.2562
  223MOL0     C30025   0.509   2.201   3.588 -0.4189  0.3724 -0.1859
  223MOL0     C30026   0.424   2.221   3.691 -0.2934 -1.0561 -0.0471
  223MOL0     C30027   0.465   2.184   3.823  0.0565  0.3808 -0.6114
  223MOL0     O30028   0.388   2.204   3.937 -0.1505 -0.0663  0.5586
  223MOL0     C30029   0.258   2.263   3.929 -0.1078 -1.6093  0.3412
  223MOL0     C30030   0.138   2.183   3.875  0.0999 -0.2134 -0.5754
  223MOL0     C30031   0.085   2.081   3.976 -1.0099 -0.5631  0.0022
  223MOL0     C30032  -0.049   2.016   3.926 -0.1506  0.0422  0.2619
  223MOL0     C30033  -0.134   1.999   4.041 -0.0414 -0.2437 -0.1068
  223MOL0     C30034  -0.213   1.983   4.138 -0.5622 -0.4218  0.6738
  223MOL0     C30035   0.589   2.126   3.842  0.4373 -0.1985 -0.6109
  223MOL0     C30036   0.671   2.103   3.730  0.1247  0.0071 -0.1400
  223MOL0     C30037   0.805   2.053   3.756 -0.1005  0.0781  0.1394
  223MOL0     H30038   0.868   1.960   3.267 -2.8534 -0.1603  1.7646
  223MOL0     H30039   0.957   1.955   3.043 -0.4735 -0.8067  0.0436
  223MOL0     H30040   1.066   2.244   2.921 -1.0461  1.5345 -0.9842
  223MOL0     H30041   1.107   2.073   2.905 -0.2114 -0.8985 -1.7540
  223MOL0     H30042   1.071   2.086   2.657 -0.0026 -1.4377  2.1950
  223MOL0     H30043   1.213   2.178   2.719 -0.6508 -1.8630 -0.3675
  223MOL0     H30044   1.109   2.384   2.703 -1.2632  0.4723  0.0016
  223MOL0     H30045   0.959   2.314   2.636 -0.0700 -0.4930  0.9002
  223MOL0     H30046   1.229   2.304   2.512  0.3861 -3.6463  1.5291
  223MOL0     H30047   1.076   2.212   2.451  1.6864  0.7122 -1.4652
  223MOL0     H30048   1.125   2.513   2.483 -1.0775  0.0602 -0.1205
  223MOL0     H30049   1.155   2.430   2.335 -1.2341  0.2446 -1.0921
  223MOL0     H30050   0.911   2.371   2.321  1.4494  0.3158 -1.7468
  223MOL0     H30051   0.882   2.455   2.472  0.1598 -1.3610  1.2987
  223MOL0     H30052   1.002   2.640   2.296 -0.3082  0.0117  0.5698
  223MOL0     H30053   0.828   2.637   2.341 -0.1366 -0.4092  2.5722
  223MOL0     H30054   0.879   2.624   2.084 -1.6834  0.3635  1.3217
  223MOL0     H30055   0.954   2.467   2.122 -2.1362 -2.7774  0.3334
  223MOL0     H30056   0.600   2.593   2.246 -2.7836 -0.7819  1.4723
  223MOL0     H30057   0.434   2.291   2.332  0.0664  0.4785  0.7199
  223MOL0     H30058   0.406   2.469   2.341 -0.4519  1.3814 -1.3641
  223MOL0     H30059   0.288   2.464   2.137 -0.7872 -1.0134 -1.8552
  223MOL0     H30060   0.311   2.279   2.134  1.3091 -0.3879  2.9206
  223MOL0     H30061   0.148   2.463   2.315 -2.5649 -0.6932  1.4213
  223MOL0     H30062   0.173   2.302   2.358 -2.6524  2.2858  1.4756
  223MOL0     H30063   0.090   2.229   2.113  2.3454  0.3400 -0.2911
  223MOL0     H30064   0.044   2.400   2.099  3.3299  1.8416  1.9068
  223MOL0     H30065  -0.108   2.238   1.980  1.9709  2.1612  0.1390
  223MOL0     H30066  -0.334   2.233   1.900 -3.4490 -1.3840  0.9034
  223MOL0     H30067  -0.746   2.494   1.897  1.5888 -2.8678 -0.4985
  223MOL0     H30068  -0.993   2.487   1.837 -2.5546 -0.6747  0.5008
  223MOL0     H30069  -1.230   2.542   1.880 -0.5790 -0.1141 -0.2822
  223MOL0     H30070  -1.185   2.408   1.777  1.8994  1.2818  0.5058
  223MOL0     H30071  -1.385   2.318   1.777  1.2306  0.4913  0.1990
  223MOL0     H30072  -1.444   2.394   1.929  0.2524 -1.1958  0.9804
  223MOL0     H30073  -1.447   2.612   1.813  0.4170 -1.0994  2.0310
  223MOL0     H30074  -1.403   2.538   1.659  1.0198  1.6963  1.0308
  223MOL0     H30075  -1.654   2.460   1.812  2.4734  0.4488  1.4103
  223MOL0     H30076  -1.588   2.376   1.675  1.5495 -0.4533  1.2449
  223MOL0     H30077  -1.612   2.588   1.526  1.0165  3.3789  1.6562
  223MOL0     H30078  -1.684   2.671   1.657  2.4379 -0.3333  0.5214
  223MOL0     H30079  -1.805   2.421   1.499 -1.3711  0.2276 -1.5647
  223MOL0     H30080  -1.861   2.485   1.654  1.9158  0.1833 -0.1178
  223MOL0     H30081  -1.823   2.655   1.410 -0.8820  0.9481 -0.8250
  223MOL0     H30082  -1.919   2.687   1.551  1.5690 -1.1077  1.2439
  223MOL0     H30083  -2.067   2.615   1.344 -1.8638 -0.4080 -0.0730
  223MOL0     H30084  -1.976   2.456   1.344 -1.8130 -1.9346  1.2783
  223MOL0     H30085  -1.077   2.236   2.165 -5.0872  3.6728 -2.0985
  223MOL0     H30086  -0.842   2.227   2.223  0.5725  0.8169  0.2808
  223MOL0     H30087  -0.493   2.345   2.293 -1.2123 -1.6395  0.3677
  223MOL0     H30088  -0.266   2.330   2.378 -1.2486  1.3449 -0.2988
  223MOL0     H30089   0.714   2.293   2.930  0.2223 -0.9560 -0.5506
  223MOL0     H30090   0.613   2.287   3.166  0.2980  0.2718 -2.1401
  223MOL0     H30091   0.473   2.222   3.487  0.2210 -0.5582 -0.6215
  223MOL0     H30092   0.321   2.250   3.672  0.4508  0.5844 -1.8918
  223MOL0     H30093   0.263   2.354   3.869 -0.5897 -0.5254  1.8589
  223MOL0     H30094   0.232   2.298   4.030 -1.5336 -2.8620  0.4503
  223MOL0     H30095   0.168   2.131   3.783  1.5496 -0.3272 -0.0684
  223MOL0     H30096   0.053   2.247   3.849  0.2192  1.1730  2.0554
  223MOL0     H30097   0.060   2.126   4.072  0.0024 -1.6936  0.8275
  223MOL0     H30098   0.162   2.004   3.987  0.3348  0.4385 -1.8985
  223MOL0     H30099  -0.097   2.076   3.848  2.4847  1.9266 -0.0621
  223MOL0     H30100  -0.027   1.919   3.880 -1.5314 -0.3861  0.4699
  223MOL0     H30101  -0.279   1.973   4.222  0.7909  0.1726  1.8519
  223MOL0     H30102   0.614   2.116   3.947 -0.9977 -0.3134 -0.2607
  223MOL0     H30103   0.880   2.119   3.711 -3.1831  4.1955  0.4658
  223MOL0     H30104   0.830   2.033   3.861 -2.5281 -0.3754  0.6916
  223MOL0     H30105   0.815   1.956   3.705  2.6615  0.1282  0.3981
  224MOL0     O30106   4.032   7.053  11.138 -0.0447  0.5069  0.2251
  224MOL0     C30107   4.077   6.979  11.050 -0.4753  0.1584 -0.7789
  224MOL0     O30108   4.204   6.938  11.051 -0.1649 -0.0584  0.3194
  224MOL0     C30109   4.284   6.972  11.160 -0.5430 -0.3874  0.1573
  224MOL0     C30110   4.282   6.891  11.268 -0.2271  0.1490  0.1955
  224MOL0     C30111   4.363   6.914  11.372  0.1844 -1.2298  0.3622
  224MOL0     C30112   4.451   7.023  11.373  0.3212  0.0621  0.3013
  224MOL0     O30113   4.529   7.026  11.485  1.3814  0.5841  0.6606
  224MOL0     C30114   4.637   7.119  11.471  0.0121  0.4960  0.5149
  224MOL0     C30115   4.720   7.102  11.599  0.5300 -0.6695  0.1825
  224MOL0     C30116   4.844   7.183  11.613 -0.0221  0.6516  0.6260
  224MOL0     C30117   4.911   7.168  11.752 -0.6557  0.0229 -0.7282
  224MOL0     C30118   5.068   7.178  11.756  0.0170  0.3907 -0.5610
  224MOL0     C30119   5.127   7.303  11.700 -0.2195  0.2539 -0.0044
  224MOL0     C30120   5.284   7.291  11.690  0.3331  1.0140  1.0397
  224MOL0     C30121   5.355   7.350  11.805 -0.2428  0.1803 -0.2577
  224MOL0     N30122   5.501   7.325  11.797  0.1615  0.4037 -0.2958
  224MOL0     C30123   5.579   7.228  11.854 -0.6966  0.0698  0.0783
  224MOL0     C30124   5.697   7.225  11.786 -0.8699 -0.1716 -0.2843
  224MOL0     C30125   5.804   7.116  11.775  0.7068 -0.0435 -0.2097
  224MOL0     C30126   5.952   7.170  11.769  0.6111  0.4800 -0.2294
  224MOL0     C30127   5.982   7.262  11.887 -0.1476  0.2242  0.1600
  224MOL0     C30128   6.119   7.339  11.867 -0.1364 -0.1393 -0.6597
  224MOL0     O30129   6.124   7.429  11.975  0.0725 -1.0256 -1.0270
  224MOL0     C30130   6.245   7.472  12.028 -0.2159  0.6390 -0.3410
  224MOL0     C30131   6.368   7.455  11.958  0.4170 -0.2468  0.0501
  224MOL0     C30132   6.488   7.470  12.018 -0.3727  0.1548  1.0331
  224MOL0     C30133   6.494   7.527  12.151  0.3409  0.6755 -0.4461
  224MOL0     C30134   6.617   7.538  12.222  0.7410  0.3140 -0.1152
  224MOL0     O30135   6.723   7.466  12.173 -0.4574  0.6365  1.0365
  224MOL0     C30136   6.855   7.490  12.205  0.0374 -0.8524  0.3002
  224MOL0     C30137   6.881   7.469  12.342 -0.7197  0.2783  0.8904
  224MOL0     C30138   7.008   7.508  12.393 -0.4294  0.2559 -0.1944
  224MOL0     C30139   7.103   7.574  12.302  0.5938  0.1687  0.0718
  224MOL0     O30140   7.223   7.608  12.340 -0.7177  0.5759 -1.1221
  224MOL0     C30141   7.342   7.630  12.255  0.5493 -0.7404  0.3553
  224MOL0     C30142   7.455   7.654  12.352 -0.1198 -0.1423  0.0118
  224MOL0     C30143   7.568   7.713  12.260 -1.1875  0.2654 -0.3400
  224MOL0     C30144   7.698   7.729  12.329 -0.2998 -0.0745  0.3174
  224MOL0     C30145   7.810   7.729  12.233 -0.6040  0.6779  0.3662
  224MOL0     C30146   7.939   7.783  12.283  0.4828 -0.0336 -0.3465
  224MOL0     C30147   8.058   7.744  12.183  0.2335 -0.2861 -0.2534
  224MOL0     C30148   8.182   7.838  12.210  0.7907  0.1859  0.5010
  224MOL0    Cl30149   8.134   8.009  12.192  0.2301 -0.3649  0.2117
  224MOL0     C30150   7.057   7.602  12.172 -0.5567 -0.2895 -0.5531
  224MOL0     C30151   6.939   7.561  12.127 -0.6763 -0.2093 -0.1841
  224MOL0     O30152   6.617   7.627  12.310 -0.5278  0.8127  0.4947
  224MOL0     C30153   6.370   7.551  12.219 -0.2196  0.0848  0.4997
  224MOL0     C30154   6.251   7.516  12.158  0.7676  0.0701 -0.5901
  224MOL0     N30155   5.692   7.332  11.695 -0.6565  0.3750 -0.9592
  224MOL0     N30156   5.579   7.390  11.703  0.2785 -0.4263 -0.3921
  224MOL0     C30157   4.453   7.109  11.256 -0.9112  0.0954 -0.2828
  224MOL0     C30158   4.361   7.087  11.158 -0.3119  0.0014  0.9587
  224MOL0     C30159   4.001   6.967  10.922 -0.1384 -0.0553 -0.7963
  224MOL0     C30160   3.864   6.971  10.930 -0.1070  0.4690  0.3557
  224MOL0     C30161   3.790   6.967  10.809 -0.5599 -0.1187  0.5017
  224MOL0     C30162   3.846   6.949  10.681  0.3708 -0.6263 -0.6338
  224MOL0     O30163   3.772   6.941  10.563 -1.1976  0.3450  0.7191
  224MOL0     C30164   3.633   6.930  10.557  0.4085 -0.2297 -0.1236
  224MOL0     C30165   3.590   6.981  10.422  0.0340 -0.0055  0.4747
  224MOL0     C30166   3.446   6.954  10.385 -1.0363  0.8614 -0.1184
  224MOL0     C30167   3.399   7.054  10.273  0.4397 -0.0034 -1.0697
  224MOL0     C30168   3.492   7.054  10.158  0.0022  0.5023 -0.2695
  224MOL0     C30169   3.565   7.067  10.068 -0.6488 -0.9390  0.1578
  224MOL0     C30170   3.983   6.935  10.670 -0.1709 -0.5281 -0.7441
  224MOL0     C30171   4.058   6.954  10.790 -0.3196 -0.0043  0.4486
  224MOL0     C30172   4.208   6.960  10.763 -0.8876  0.2375 -0.0489
  224MOL0     H30173   4.214   6.807  11.280  0.6369 -0.4156  1.4444
  224MOL0     H30174   4.354   6.843  11.454  0.6997 -0.2085  1.3437
  224MOL0     H30175   4.686   7.092  11.377 -1.5997 -1.4021  0.1475
  224MOL0     H30176   4.611   7.225  11.465 -0.7653  0.3870  1.6413
  224MOL0     H30177   4.751   6.998  11.604 -0.5061 -1.0164 -0.3917
  224MOL0     H30178   4.647   7.124  11.678 -2.5036  0.1140 -2.6052
  224MOL0     H30179   4.824   7.289  11.598  1.2030  0.7394 -0.5895
  224MOL0     H30180   4.924   7.157  11.543  0.2884  0.8248  0.9143
  224MOL0     H30181   4.860   7.228  11.828 -1.8142 -1.3613 -0.3594
  224MOL0     H30182   4.896   7.062  11.778 -0.6636 -0.2410 -1.7302
  224MOL0     H30183   5.098   7.158  11.859  0.4676 -0.9595 -0.9389
  224MOL0     H30184   5.105   7.094  11.696  0.9957  0.9261 -0.7286
  224MOL0     H30185   5.094   7.317  11.597 -0.1496  3.8303  0.3555
  224MOL0     H30186   5.105   7.387  11.766  4.3417 -0.4527  2.8447
  224MOL0     H30187   5.313   7.344  11.599  0.5955 -0.7812  0.0203
  224MOL0     H30188   5.310   7.184  11.696 -1.2757  0.6657  2.2921
  224MOL0     H30189   5.328   7.455  11.790 -1.9779 -0.2633 -0.4397
  224MOL0     H30190   5.318   7.315  11.902 -2.2553  0.0226 -1.0427
  224MOL0     H30191   5.558   7.153  11.930  0.7513 -1.1200 -0.6200
  224MOL0     H30192   5.787   7.040  11.852  0.2403 -0.3394 -0.5945
  224MOL0     H30193   5.773   7.061  11.686 -0.8229 -1.7787  1.3139
  224MOL0     H30194   6.022   7.086  11.772 -0.2172 -0.2112  0.5948
  224MOL0     H30195   5.954   7.214  11.669  0.3190 -2.5956 -1.7107
  224MOL0     H30196   5.974   7.212  11.984  1.4040  0.8820  0.6593
  224MOL0     H30197   5.904   7.338  11.887 -0.7017 -0.3397  0.0785
  224MOL0     H30198   6.125   7.375  11.764 -1.1134  0.3701 -0.5447
  224MOL0     H30199   6.204   7.270  11.869  0.6902  0.8388 -1.3892
  224MOL0     H30200   6.364   7.417  11.856  0.4813  1.5515 -0.6522
  224MOL0     H30201   6.578   7.444  11.964  0.3966  2.8242  0.9008
  224MOL0     H30202   6.799   7.425  12.396  1.3192 -3.1695  1.4305
  224MOL0     H30203   7.047   7.478  12.489  0.3408 -1.0299 -0.8757
  224MOL0     H30204   7.366   7.551  12.184 -0.4291 -0.4181 -0.3470
  224MOL0     H30205   7.324   7.723  12.200 -1.2823 -0.3054  1.5851
  224MOL0     H30206   7.427   7.720  12.434 -2.9380 -0.3723 -0.6359
  224MOL0     H30207   7.486   7.564  12.407 -1.7467 -0.7254  0.0441
  224MOL0     H30208   7.593   7.646  12.177  0.9119 -0.1287  0.5640
  224MOL0     H30209   7.533   7.803  12.209  1.4437  1.0947 -0.8387
  224MOL0     H30210   7.730   7.640  12.383  1.5337 -0.2634 -0.9482
  224MOL0     H30211   7.689   7.821  12.389  1.3822 -0.5557  1.3820
  224MOL0     H30212   7.784   7.787  12.144  0.9280 -0.0064 -0.5609
  224MOL0     H30213   7.824   7.622  12.214  1.6706  0.8592  0.7383
  224MOL0     H30214   7.932   7.892  12.285 -2.5630 -0.1012 -1.3389
  224MOL0     H30215   7.946   7.737  12.382  0.6864  2.4987  0.9025
  224MOL0     H30216   8.027   7.761  12.080  1.8234  2.2420 -0.3914
  224MOL0     H30217   8.091   7.641  12.200  1.5944  0.1399 -0.1815
  224MOL0     H30218   8.209   7.813  12.313  1.8882 -1.4386 -0.1297
  224MOL0     H30219   8.270   7.806  12.153  0.7086  0.1985  0.3648
  224MOL0     H30220   7.111   7.669  12.106 -1.7611  2.5202  1.1542
  224MOL0     H30221   6.908   7.592  12.028 -0.4120  0.1875 -0.1475
  224MOL0     H30222   6.365   7.582  12.323 -0.8792  0.1700  0.4471
  224MOL0     H30223   6.160   7.534  12.214  1.0016  0.8862 -0.4532
  224MOL0     H30224   4.524   7.191  11.252 -2.7010  1.7045 -0.9015
  224MOL0     H30225   4.358   7.153  11.072  0.7931  0.9026  1.5891
  224MOL0     H30226   3.817   6.993  11.025  0.5440  0.4103  0.6950
  224MOL0     H30227   3.682   6.977  10.812 -0.5645  0.8692 -1.2693
  224MOL0     H30228   3.576   6.988  10.630 -3.1445 -3.2864 -0.1805
  224MOL0     H30229   3.596   6.830  10.580 -0.8903  0.6134  1.5968
  224MOL0     H30230   3.658   6.936  10.348 -0.6613 -0.5920  0.1841
  224MOL0     H30231   3.598   7.090  10.413 -0.9290  0.0523  0.2033
  224MOL0     H30232   3.379   6.958  10.471 -0.9701  0.4049 -0.0460
  224MOL0     H30233   3.435   6.854  10.343  0.3344  0.4167  0.5028
  224MOL0     H30234   3.294   7.026  10.256  0.2013 -1.4194  2.1075
  224MOL0     H30235   3.397   7.152  10.322 -2.9573 -0.7407  0.5416
  224MOL0     H30236   3.634   7.073   9.986  0.3777  1.3528  1.0792
  224MOL0     H30237   4.030   6.932  10.572  0.1288  1.2144 -0.6781
  224MOL0     H30238   4.238   6.964  10.658 -1.5192 -2.1654 -0.3922
  224MOL0     H30239   4.249   7.051  10.808  2.4733  0.7104 -3.6024
  224MOL0     H30240   4.262   6.870  10.796 -0.8045 -0.2934 -1.5619
  225MOL0     O30241   5.111   8.639   9.459 -0.3228 -0.2742 -0.5772
  225MOL0     C30242   5.031   8.719   9.410 -0.3052  0.6917 -0.7596
  225MOL0     O30243   5.034   8.851   9.439  0.3490 -1.1858 -1.0205
  225MOL0     C30244   5.144   8.892   9.514 -0.3046 -0.4115 -0.0220
  225MOL0     C30245   5.270   8.896   9.452  1.3943  0.7508 -0.0155
  225MOL0     C30246   5.387   8.937   9.521 -0.2441 -0.7601 -0.0258
  225MOL0     C30247   5.373   8.988   9.648 -0.2863 -0.6735 -0.2027
  225MOL0     O30248   5.490   9.015   9.716 -0.0470  0.4192  0.2505
  225MOL0     C30249   5.483   9.056   9.850  1.0806 -0.1184 -0.3030
  225MOL0     C30250   5.623   9.086   9.912  0.8915  0.3091 -0.1589
  225MOL0     C30251   5.642   9.232   9.922 -0.8626 -0.6013 -1.0554
  225MOL0     C30252   5.786   9.251   9.985 -0.5007 -0.0701 -0.3555
  225MOL0     C30253   5.825   9.403   9.976  0.1844  0.6708 -0.7999
  225MOL0     C30254   5.939   9.422  10.083 -0.1614  0.1329  1.2306
  225MOL0     C30255   6.070   9.396  10.018  0.3908  0.6446 -0.4362
  225MOL0     C30256   6.168   9.402  10.131 -0.1072 -0.2531 -0.8834
  225MOL0     N30257   6.313   9.437  10.095  0.0970 -0.0271 -0.0273
  225MOL0     C30258   6.389   9.380   9.999 -0.5569  0.6952 -0.5861
  225MOL0     C30259   6.504   9.451  10.013 -0.3266  0.8995 -0.6945
  225MOL0     C30260   6.619   9.427   9.915 -0.1414 -0.9193 -0.1975
  225MOL0     C30261   6.762   9.437   9.977  0.4398  0.7609  0.6241
  225MOL0     C30262   6.784   9.332  10.080 -0.6001  0.5284  0.3497
  225MOL0     C30263   6.928   9.367  10.134 -0.4183 -0.1910  0.5500
  225MOL0     O30264   7.030   9.310  10.055 -0.5866  0.1968 -0.0112
  225MOL0     C30265   7.161   9.360  10.082 -0.4700 -0.1309 -0.8324
  225MOL0     C30266   7.242   9.361   9.970  1.1207 -0.4352 -0.0699
  225MOL0     C30267   7.366   9.423   9.981  0.5023  1.0745  0.3040
  225MOL0     C30268   7.413   9.473  10.097  0.0696 -0.0270  0.6586
  225MOL0     C30269   7.542   9.541  10.107  0.3673 -0.2142  0.1798
  225MOL0     O30270   7.558   9.621  10.218 -0.5298 -0.1530  0.2392
  225MOL0     C30271   7.684   9.687  10.235  0.5147  0.2511 -0.5145
  225MOL0     C30272   7.804   9.674  10.170 -0.0268 -0.5103  0.5449
  225MOL0     C30273   7.924   9.732  10.217 -0.6334 -0.6416  0.2641
  225MOL0     C30274   7.920   9.804  10.341 -0.5804 -0.1068  0.3228
  225MOL0     O30275   8.047   9.831  10.382 -0.4581  0.4031  0.1706
  225MOL0     C30276   8.048   9.831  10.529 -0.0383  0.3496 -0.1874
  225MOL0     C30277   8.186   9.793  10.576 -0.1116 -0.1121 -0.0542
  225MOL0     C30278   8.304   9.882  10.523  0.1120  0.0173  0.7282
  225MOL0     C30279   8.424   9.795  10.538  0.0872 -0.5298  0.1587
  225MOL0     C30280   8.550   9.861  10.483 -0.8955  0.0687  0.2135
  225MOL0     C30281   8.584   9.985  10.563  0.1017 -0.8823  1.0887
  225MOL0     C30282   8.726  10.044  10.522 -0.2717  0.4744  0.2014
  225MOL0     C30283   8.729  10.191  10.536 -1.0233 -0.4635  0.0982
  225MOL0    Cl30284   8.722  10.236  10.715 -0.2869 -0.2617 -0.0807
  225MOL0     C30285   7.798   9.829  10.401  0.5826 -0.2614  0.5398
  225MOL0     C30286   7.682   9.781  10.336  0.1744 -0.2534 -0.3010
  225MOL0     O30287   7.614   9.543  10.009  0.2272 -0.4637 -0.0223
  225MOL0     C30288   7.329   9.469  10.205 -0.0317  0.2086  0.1664
  225MOL0     C30289   7.205   9.414  10.205 -0.1676  1.3634 -0.3485
  225MOL0     N30290   6.502   9.526  10.122  0.2813  0.0231 -0.5888
  225MOL0     N30291   6.385   9.525  10.166  0.3705  0.2491 -0.0261
  225MOL0     C30292   5.248   8.991   9.706  1.0240  0.6737  0.7754
  225MOL0     C30293   5.130   8.955   9.638  0.7636  0.3199 -0.4333
  225MOL0     C30294   4.921   8.658   9.330 -0.2825 -0.2947 -0.9792
  225MOL0     C30295   4.945   8.531   9.267  0.9907 -0.2063  1.1938
  225MOL0     C30296   4.849   8.466   9.189  0.2533  0.4058  0.5758
  225MOL0     C30297   4.728   8.529   9.163  0.3898  0.1011  0.5287
  225MOL0     O30298   4.647   8.470   9.071 -0.3012 -0.1884  0.4341
  225MOL0     C30299   4.547   8.554   9.009  0.9024 -0.3465 -1.0479
  225MOL0     C30300   4.504   8.488   8.878  0.2042 -0.5804 -0.1415
  225MOL0     C30301   4.457   8.344   8.890 -0.0550 -0.4794 -0.0384
  225MOL0     C30302   4.394   8.294   8.759 -0.4338 -0.4641  0.7942
  225MOL0     C30303   4.252   8.346   8.743  0.6641 -0.2946  0.4968
  225MOL0     C30304   4.138   8.384   8.739  0.6730  1.1931  0.8880
  225MOL0     C30305   4.706   8.659   9.222  0.1974  0.4572  0.0728
  225MOL0     C30306   4.799   8.724   9.301 -0.4195  1.0846 -0.0710
  225MOL0     C30307   4.755   8.857   9.351 -0.7336 -0.7899 -0.0411
  225MOL0     H30308   5.275   8.861   9.350  3.7618 -0.7344  0.5232
  225MOL0     H30309   5.484   8.942   9.473  0.5120  3.1975  1.5878
  225MOL0     H30310   5.416   9.138   9.875 -0.2661 -1.5877  1.2005
  225MOL0     H30311   5.436   8.976   9.909  1.5243 -0.0519  0.1486
  225MOL0     H30312   5.699   9.031   9.856  1.6870 -0.9709  2.0552
  225MOL0     H30313   5.637   9.048  10.014  0.3120  1.7640  0.4876
  225MOL0     H30314   5.573   9.277   9.994 -0.0048 -2.8561  1.3041
  225MOL0     H30315   5.658   9.284   9.827  1.7394 -0.3377 -0.5425
  225MOL0     H30316   5.790   9.211  10.087 -3.1470  2.8315  1.0750
  225MOL0     H30317   5.861   9.195   9.929 -0.0697 -0.5944  0.7302
  225MOL0     H30318   5.865   9.433   9.879  1.9749  2.3829  0.3980
  225MOL0     H30319   5.733   9.460   9.997 -1.4066 -2.7574  2.8164
  225MOL0     H30320   5.935   9.516  10.137 -1.6451  0.4230  0.6612
  225MOL0     H30321   5.925   9.349  10.163 -0.4664 -0.9304  0.2451
  225MOL0     H30322   6.087   9.468   9.938 -0.0465 -2.4066 -3.5160
  225MOL0     H30323   6.060   9.297   9.971 -2.7380  0.9989 -0.7417
  225MOL0     H30324   6.146   9.483  10.201  0.3308 -1.9769  1.3755
  225MOL0     H30325   6.170   9.306  10.182 -0.9740 -1.5408 -3.1332
  225MOL0     H30326   6.362   9.309   9.922  0.6479 -0.2980 -0.1210
  225MOL0     H30327   6.622   9.321   9.890 -0.3648 -1.1721  0.8055
  225MOL0     H30328   6.607   9.498   9.832 -0.6673  0.9296  1.3883
  225MOL0     H30329   6.829   9.418   9.893  1.1409  2.6106  0.7055
  225MOL0     H30330   6.781   9.538  10.014  1.5720  0.6153  0.4653
  225MOL0     H30331   6.777   9.229  10.043 -1.2593  0.9452 -0.7417
  225MOL0     H30332   6.708   9.341  10.158 -0.3837  2.2112  0.3964
  225MOL0     H30333   6.937   9.333  10.237 -1.6940 -2.1301  0.0824
  225MOL0     H30334   6.933   9.475  10.148 -0.9029 -0.1652  0.5552
  225MOL0     H30335   7.193   9.325   9.880  0.6941  2.4902 -1.0877
  225MOL0     H30336   7.424   9.426   9.889 -0.8350 -0.0810 -0.6248
  225MOL0     H30337   7.816   9.617  10.078  2.6641 -1.3426  1.3068
  225MOL0     H30338   8.016   9.714  10.162 -1.0401  2.4731 -1.7066
  225MOL0     H30339   8.011   9.930  10.557 -1.0554  0.4873 -1.8573
  225MOL0     H30340   7.990   9.757  10.584  0.1442  2.1441  2.6123
  225MOL0     H30341   8.194   9.792  10.685 -0.6407  1.1324  0.0081
  225MOL0     H30342   8.200   9.692  10.535 -0.0202 -0.8900  1.8076
  225MOL0     H30343   8.300   9.920  10.420  0.0835 -1.9979 -0.0720
  225MOL0     H30344   8.325   9.965  10.591 -0.6913  1.0957 -0.2836
  225MOL0     H30345   8.410   9.711  10.470 -0.5516 -0.9291  0.7653
  225MOL0     H30346   8.434   9.766  10.643  0.3144  0.9544  0.5658
  225MOL0     H30347   8.543   9.891  10.378  4.6490 -2.3466 -1.1913
  225MOL0     H30348   8.627   9.784  10.494  1.6718  2.5651  1.1507
  225MOL0     H30349   8.512  10.067  10.558  0.1672 -0.9236 -1.1616
  225MOL0     H30350   8.590   9.963  10.671 -0.8318  1.0224  1.5621
  225MOL0     H30351   8.746  10.025  10.416  1.0123  0.5445  0.4213
  225MOL0     H30352   8.792   9.996  10.594 -0.5540 -1.5352 -0.8185
  225MOL0     H30353   8.826  10.212  10.490 -2.0358  0.0652 -1.8765
  225MOL0     H30354   8.651  10.241  10.478 -0.8096 -0.0807  0.1383
  225MOL0     H30355   7.794   9.905  10.478 -2.0050 -1.0122  1.2406
  225MOL0     H30356   7.584   9.809  10.373  0.9320 -0.9036  2.4440
  225MOL0     H30357   7.355   9.516  10.300 -1.3814 -1.3418  1.3556
  225MOL0     H30358   7.143   9.413  10.294 -0.8641 -2.0580 -0.7101
  225MOL0     H30359   5.232   9.025   9.807  0.0317  1.2870  0.4286
  225MOL0     H30360   5.035   8.966   9.689  1.2527  1.3424  0.2929
  225MOL0     H30361   5.040   8.478   9.272  1.4690  0.3201 -1.2658
  225MOL0     H30362   4.862   8.375   9.131 -2.2678 -0.9363  1.9486
  225MOL0     H30363   4.589   8.655   8.995  0.1608  0.3070  1.1213
  225MOL0     H30364   4.458   8.562   9.071  1.5396  1.0484 -0.2571
  225MOL0     H30365   4.589   8.481   8.809 -0.3863 -1.5471 -0.7961
  225MOL0     H30366   4.425   8.552   8.837  0.3163  0.4637  1.2098
  225MOL0     H30367   4.381   8.339   8.969 -2.3320 -1.0672 -2.1489
  225MOL0     H30368   4.539   8.280   8.926  1.3756  1.0508 -0.4516
  225MOL0     H30369   4.466   8.325   8.683  0.0060  0.3896  1.5392
  225MOL0     H30370   4.389   8.185   8.755 -0.9536 -0.4062 -0.8986
  225MOL0     H30371   4.037   8.418   8.734  0.0515 -0.5661  0.7064
  225MOL0     H30372   4.605   8.697   9.211 -0.5615 -1.6056 -0.6305
  225MOL0     H30373   4.786   8.872   9.454 -0.2632 -1.9642  0.0074
  225MOL0     H30374   4.804   8.933   9.290 -1.4985 -0.2929 -0.0489
  225MOL0     H30375   4.647   8.874   9.348 -0.3110  2.8430  0.6488
  226MOL0     O30376   4.225   3.331   9.204  0.0916  0.6878  0.0328
  226MOL0     C30377   4.165   3.431   9.194 -0.1885  0.1893  0.6032
  226MOL0     O30378   4.220   3.553   9.155  0.2096 -0.7383 -0.3305
  226MOL0     C30379   4.356   3.547   9.113 -0.5443  0.4013  1.0122
  226MOL0     C30380   4.394   3.472   8.993 -0.5213 -0.3485 -0.4853
  226MOL0     C30381   4.531   3.462   8.960 -0.5594 -1.3153 -0.0580
  226MOL0     C30382   4.634   3.525   9.031  0.2567  0.4917  0.2368
  226MOL0     O30383   4.761   3.521   8.977 -0.3934 -0.1295 -0.4938
  226MOL0     C30384   4.876   3.543   9.060 -0.5347 -0.0355 -0.4948
  226MOL0     C30385   5.005   3.470   9.022  0.1423  0.6294 -0.5990
  226MOL0     C30386   5.126   3.498   9.113 -0.6039  0.7066 -0.4011
  226MOL0     C30387   5.243   3.469   9.018 -0.3273  0.0354  0.5899
  226MOL0     C30388   5.377   3.495   9.087  0.5153 -0.3149 -0.5048
  226MOL0     C30389   5.503   3.488   8.994 -0.9495 -0.2656  0.4270
  226MOL0     C30390   5.632   3.496   9.081 -0.0018 -0.1529  0.3359
  226MOL0     C30391   5.676   3.361   9.131 -0.4696  0.1478  0.4886
  226MOL0     N30392   5.798   3.391   9.193 -0.2148 -0.7254 -0.7979
  226MOL0     C30393   5.916   3.363   9.140 -0.2901 -0.8894 -0.6078
  226MOL0     C30394   5.996   3.358   9.253 -0.2388 -0.7602  1.2116
  226MOL0     C30395   6.144   3.341   9.240  0.0876 -0.0760 -0.1886
  226MOL0     C30396   6.216   3.337   9.379 -0.4197  0.2231  0.5877
  226MOL0     C30397   6.235   3.472   9.446  0.1420 -0.1644  0.5054
  226MOL0     C30398   6.327   3.467   9.575  0.4130  0.5500 -0.1177
  226MOL0     O30399   6.394   3.597   9.593  0.1552 -0.2016  0.5403
  226MOL0     C30400   6.522   3.611   9.526  0.2390  0.4544 -0.2142
  226MOL0     C30401   6.570   3.520   9.424 -0.3648 -0.1674  0.5485
  226MOL0     C30402   6.696   3.537   9.360  0.9010 -0.1589 -0.6488
  226MOL0     C30403   6.774   3.645   9.400 -0.5876 -0.0978  0.2584
  226MOL0     C30404   6.909   3.658   9.339  0.0321  0.3726  0.6479
  226MOL0     O30405   6.991   3.770   9.362 -0.5436 -0.5140 -0.0379
  226MOL0     C30406   7.125   3.768   9.326 -0.7667  0.3008 -0.8128
  226MOL0     C30407   7.209   3.675   9.390 -0.0623 -0.2590  0.1673
  226MOL0     C30408   7.341   3.664   9.360 -0.3291 -0.0792 -0.5092
  226MOL0     C30409   7.398   3.751   9.267  0.6242 -0.8659  0.1327
  226MOL0     O30410   7.531   3.728   9.225  0.2634 -0.2760 -0.0266
  226MOL0     C30411   7.635   3.686   9.313 -0.1837  0.4981  0.1598
  226MOL0     C30412   7.767   3.656   9.243 -0.4557 -0.4720  0.2483
  226MOL0     C30413   7.883   3.686   9.340 -0.6893  0.1758 -0.4459
  226MOL0     C30414   8.016   3.642   9.277  0.8897  0.1104  0.0818
  226MOL0     C30415   8.114   3.618   9.391  0.0035  0.5721 -0.0848
  226MOL0     C30416   8.249   3.586   9.332 -0.1930 -0.0242 -0.0492
  226MOL0     C30417   8.309   3.724   9.277 -0.2234  0.2310  0.6686
  226MOL0     C30418   8.462   3.740   9.275  0.2051  0.9252 -0.1337
  226MOL0    Cl30419   8.516   3.734   9.436 -0.2094  0.2924  0.0347
  226MOL0     C30420   7.325   3.863   9.223 -0.2975 -0.2099 -0.5626
  226MOL0     C30421   7.188   3.872   9.253  0.1040  0.2054 -0.0240
  226MOL0     O30422   6.945   3.550   9.287  0.0024 -0.6299  0.5352
  226MOL0     C30423   6.734   3.731   9.495 -0.6562  0.0552 -0.5265
  226MOL0     C30424   6.612   3.714   9.560  0.8768  0.1603  0.4237
  226MOL0     N30425   5.921   3.386   9.363 -0.5228 -0.2025  0.4788
  226MOL0     N30426   5.797   3.408   9.325  0.1636 -0.6076  0.0457
  226MOL0     C30427   4.593   3.602   9.142 -0.9420 -0.0424  0.8102
  226MOL0     C30428   4.456   3.614   9.181  0.0035  0.1142 -1.0952
  226MOL0     C30429   4.023   3.437   9.230 -0.5036 -0.7487 -0.1040
  226MOL0     C30430   3.965   3.558   9.261 -0.3428  0.0652  0.7955
  226MOL0     C30431   3.828   3.581   9.286 -0.1407 -0.1260 -0.0163
  226MOL0     C30432   3.743   3.472   9.283 -0.4710  0.0389 -0.0650
  226MOL0     O30433   3.608   3.473   9.300 -0.1844  0.0818  0.1821
  226MOL0     C30434   3.552   3.578   9.381  0.0014 -0.5000  1.2260
  226MOL0     C30435   3.418   3.531   9.419  0.0998  0.3999  0.3168
  226MOL0     C30436   3.322   3.497   9.296  0.0310  0.5077 -0.1598
  226MOL0     C30437   3.233   3.609   9.252 -0.3787 -0.1643 -0.7465
  226MOL0     C30438   3.154   3.654   9.366 -0.6169 -0.2217 -0.6735
  226MOL0     C30439   3.091   3.668   9.467  0.8454 -0.1819  0.5233
  226MOL0     C30440   3.796   3.351   9.248 -0.4050  0.2081  0.3069
  226MOL0     C30441   3.937   3.321   9.225  0.7199 -1.6026 -0.2300
  226MOL0     C30442   3.967   3.179   9.191  1.0985  0.7616  0.5088
  226MOL0     H30443   4.315   3.420   8.941  0.4865 -1.9445 -0.4943
  226MOL0     H30444   4.571   3.396   8.884  0.4969  0.5631 -1.2035
  226MOL0     H30445   4.900   3.650   9.064  2.0561 -0.5854  2.2885
  226MOL0     H30446   4.847   3.523   9.163  2.5395 -3.1961 -0.0537
  226MOL0     H30447   5.023   3.478   8.915 -0.3040  1.9397 -0.5892
  226MOL0     H30448   4.992   3.364   9.047 -0.0302  1.2446  2.2889
  226MOL0     H30449   5.126   3.422   9.192 -0.7444 -1.3198 -2.2646
  226MOL0     H30450   5.124   3.597   9.160 -2.7269  0.8785 -0.7667
  226MOL0     H30451   5.240   3.367   8.980  2.3536  0.6099 -1.4132
  226MOL0     H30452   5.239   3.533   8.930  0.8574 -0.0925  0.4240
  226MOL0     H30453   5.363   3.598   9.121 -2.4405 -0.3266 -1.3955
  226MOL0     H30454   5.391   3.429   9.173 -1.7679 -2.5892 -1.7547
  226MOL0     H30455   5.504   3.396   8.936 -0.7305  0.4124 -0.6763
  226MOL0     H30456   5.500   3.574   8.927 -0.6354 -1.3576 -1.0295
  226MOL0     H30457   5.621   3.571   9.160  1.5522  1.8878 -1.2604
  226MOL0     H30458   5.715   3.528   9.018 -0.4632 -0.5443 -0.4948
  226MOL0     H30459   5.593   3.320   9.189 -1.5832 -0.6691 -1.5810
  226MOL0     H30460   5.696   3.290   9.050  1.6765  1.3313 -0.1009
  226MOL0     H30461   5.934   3.356   9.033  2.5418  0.4820 -0.2923
  226MOL0     H30462   6.170   3.245   9.193  0.1211  0.0352 -0.3953
  226MOL0     H30463   6.182   3.425   9.181  1.3795  0.5300  1.4300
  226MOL0     H30464   6.164   3.262   9.439 -0.7569  0.4147  0.5354
  226MOL0     H30465   6.314   3.296   9.351 -0.8704  0.0928 -0.8627
  226MOL0     H30466   6.139   3.512   9.479  0.6326  1.8792 -0.3631
  226MOL0     H30467   6.272   3.543   9.371  0.5834 -0.2704  0.6216
  226MOL0     H30468   6.400   3.388   9.556 -1.0314 -0.7005 -0.6701
  226MOL0     H30469   6.279   3.450   9.672  1.2490  0.2836  0.2554
  226MOL0     H30470   6.507   3.440   9.386 -0.9461  1.1528 -1.3860
  226MOL0     H30471   6.721   3.454   9.295  0.1527 -1.1348  0.2641
  226MOL0     H30472   7.154   3.607   9.453 -0.3548  0.9435  1.2431
  226MOL0     H30473   7.400   3.587   9.409 -0.3307 -0.6352 -1.3666
  226MOL0     H30474   7.646   3.772   9.380 -2.3194  1.9731 -1.2650
  226MOL0     H30475   7.603   3.598   9.369  0.9371 -1.1548 -1.6795
  226MOL0     H30476   7.770   3.550   9.215 -1.2872 -0.4505  0.0502
  226MOL0     H30477   7.774   3.716   9.152  0.4394 -1.2580 -0.2286
  226MOL0     H30478   7.888   3.792   9.366 -1.6863 -0.0312  0.6754
  226MOL0     H30479   7.874   3.638   9.438  3.1718  2.3232  1.2128
  226MOL0     H30480   8.047   3.715   9.201 -3.0808  0.3276 -1.5620
  226MOL0     H30481   7.980   3.551   9.228 -2.2198  1.6084 -0.6369
  226MOL0     H30482   8.086   3.535   9.456 -2.1235  3.2548  2.7273
  226MOL0     H30483   8.118   3.700   9.463  2.0631 -0.0012  0.5287
  226MOL0     H30484   8.312   3.552   9.414  0.7707  0.9609 -0.3460
  226MOL0     H30485   8.254   3.498   9.267  1.2680 -1.4453  1.8552
  226MOL0     H30486   8.279   3.807   9.342  0.8938  0.9487  0.3028
  226MOL0     H30487   8.278   3.741   9.173  2.2550  3.7754  0.3044
  226MOL0     H30488   8.502   3.657   9.216 -1.3922 -1.1680  1.5434
  226MOL0     H30489   8.494   3.835   9.233  3.2623 -0.5229 -1.3273
  226MOL0     H30490   7.379   3.944   9.175  0.2066 -0.5826 -0.6347
  226MOL0     H30491   7.140   3.965   9.226  2.3799  0.6932 -2.7560
  226MOL0     H30492   6.782   3.823   9.526 -2.8342  0.7698  0.9649
  226MOL0     H30493   6.581   3.793   9.627 -0.9109 -0.8259  0.8124
  226MOL0     H30494   4.659   3.664   9.203  0.7618 -2.0900  1.1810
  226MOL0     H30495   4.427   3.682   9.261 -1.4910 -0.0888 -1.4396
  226MOL0     H30496   4.029   3.645   9.256  1.4967 -1.2871 -2.4256
  226MOL0     H30497   3.783   3.678   9.299 -1.9415 -1.0737  1.3624
  226MOL0     H30498   3.534   3.671   9.326  0.3827 -0.8857  0.4378
  226MOL0     H30499   3.608   3.612   9.468  0.5811  1.5627  0.1216
  226MOL0     H30500   3.386   3.611   9.486  2.4502  1.4604  0.2888
  226MOL0     H30501   3.430   3.444   9.484  0.8672  0.0212 -0.3105
  226MOL0     H30502   3.259   3.411   9.319 -2.0044  2.6179  2.8135
  226MOL0     H30503   3.383   3.472   9.209  0.6181 -0.8097  0.5924
  226MOL0     H30504   3.288   3.697   9.218  0.2306  0.1860  1.0088
  226MOL0     H30505   3.164   3.573   9.176  0.9484  0.0014 -2.0733
  226MOL0     H30506   3.038   3.688   9.559 -1.2367 -2.3502 -0.1059
  226MOL0     H30507   3.740   3.258   9.251 -0.5555  0.3003  0.3463
  226MOL0     H30508   4.033   3.136   9.267  0.1498 -2.5448 -0.3572
  226MOL0     H30509   3.874   3.121   9.193  1.0290  0.6795 -1.9806
  226MOL0     H30510   4.015   3.168   9.093  0.3208 -3.6485  0.4004
  227MOL0     O30511   4.881  11.171   6.238  0.0369 -0.0945 -0.6246
  227MOL0     C30512   4.833  11.102   6.331  0.3746  0.1368 -0.0609
  227MOL0     O30513   4.897  11.058   6.441 -0.2564 -0.2420 -0.4145
  227MOL0     C30514   5.036  11.073   6.446  0.3565  0.1127  0.9138
  227MOL0     C30515   5.081  11.155   6.543 -0.9926  0.7763 -0.2527
  227MOL0     C30516   5.220  11.183   6.553  0.7080 -0.2662 -0.8059
  227MOL0     C30517   5.302  11.132   6.456 -0.1737  0.0670  0.5739
  227MOL0     O30518   5.437  11.171   6.445 -0.4338  0.1058  0.6241
  227MOL0     C30519   5.477  11.299   6.508  0.6701  0.4799 -0.4544
  227MOL0     C30520   5.627  11.327   6.474 -0.5024  1.3533 -0.7047
  227MOL0     C30521   5.727  11.234   6.546  0.2940 -0.2174 -0.1381
  227MOL0     C30522   5.861  11.290   6.532  0.0981  0.3849  0.1584
  227MOL0     C30523   5.965  11.192   6.606  0.9253 -0.8501  0.5054
  227MOL0     C30524   6.097  11.274   6.625 -0.0089 -0.1863  0.3521
  227MOL0     C30525   6.188  11.195   6.708  0.3889  0.1026  0.1132
  227MOL0     C30526   6.318  11.267   6.738 -0.1553  0.5801 -0.6649
  227MOL0     N30527   6.414  11.178   6.806 -0.3057  0.2805 -0.1964
  227MOL0     C30528   6.505  11.101   6.739 -0.2474  0.3835 -0.1016
  227MOL0     C30529   6.570  11.033   6.835  0.2464 -0.6332 -0.0367
  227MOL0     C30530   6.664  10.911   6.825 -0.3667  0.1079  0.3715
  227MOL0     C30531   6.758  10.899   6.952  0.0905  0.2774 -0.4801
  227MOL0     C30532   6.854  11.019   6.970  0.3007 -0.4198  0.3183
  227MOL0     C30533   6.963  11.004   6.863  0.8299  0.6657 -0.8335
  227MOL0     O30534   7.049  10.890   6.901 -0.2909 -0.0451 -0.2291
  227MOL0     C30535   7.176  10.903   6.939 -0.0669 -0.1209  0.6748
  227MOL0     C30536   7.229  11.027   6.982  1.2843  0.0475  0.7887
  227MOL0     C30537   7.359  11.041   7.018 -0.9452  0.2291 -0.9049
  227MOL0     C30538   7.447  10.927   7.014  0.2313 -0.4690 -0.5937
  227MOL0     C30539   7.589  10.940   7.034  0.2037  0.6248  0.2836
  227MOL0     O30540   7.628  11.063   7.094  0.1161  0.0842 -0.4277
  227MOL0     C30541   7.753  11.066   7.152  0.8378  0.3527  0.2623
  227MOL0     C30542   7.853  11.123   7.087 -0.0159  0.4161 -0.2057
  227MOL0     C30543   7.982  11.135   7.142 -0.0986 -0.5724 -0.3839
  227MOL0     C30544   8.006  11.080   7.263 -0.6636  0.4829 -0.1694
  227MOL0     O30545   8.132  11.114   7.308 -0.8056  0.0321  0.1782
  227MOL0     C30546   8.150  11.117   7.447  0.5208  0.1832  0.3669
  227MOL0     C30547   8.268  11.201   7.490  0.7687 -0.9882 -0.4979
  227MOL0     C30548   8.394  11.147   7.429 -0.5895  0.1065  0.8772
  227MOL0     C30549   8.519  11.203   7.493  0.0475  0.3354 -0.2725
  227MOL0     C30550   8.648  11.129   7.454  0.2947  1.3336  0.8860
  227MOL0     C30551   8.775  11.165   7.535 -0.4246 -0.4115 -0.1851
  227MOL0     C30552   8.838  11.303   7.501 -0.4869 -0.1190 -0.5628
  227MOL0     C30553   8.984  11.316   7.562  0.7035 -0.0314 -0.4238
  227MOL0    Cl30554   9.101  11.208   7.477  0.6358 -0.2460  0.0058
  227MOL0     C30555   7.908  11.000   7.329 -0.6029  0.2474  1.2141
  227MOL0     C30556   7.778  10.997   7.276  0.1781 -0.4136 -0.3551
  227MOL0     O30557   7.664  10.840   7.024  0.3772 -0.2329  0.7221
  227MOL0     C30558   7.393  10.809   6.971  0.3743 -0.4677  0.7266
  227MOL0     C30559   7.259  10.792   6.942  0.9774  0.3417  0.0299
  227MOL0     N30560   6.523  11.077   6.960 -0.4794 -0.0950 -0.3394
  227MOL0     N30561   6.426  11.163   6.943  0.1004  0.2874  0.5852
  227MOL0     C30562   5.251  11.055   6.351  0.3390  0.5197  0.2026
  227MOL0     C30563   5.119  11.016   6.350 -0.1072  0.8597 -0.0796
  227MOL0     C30564   4.700  11.045   6.322 -0.2485 -0.0151  0.0046
  227MOL0     C30565   4.638  11.004   6.444 -0.2470 -0.4284 -0.3656
  227MOL0     C30566   4.505  10.965   6.454  0.1685 -0.4672  1.0258
  227MOL0     C30567   4.421  10.949   6.342  0.2895 -0.5696 -0.7942
  227MOL0     O30568   4.290  10.908   6.361  0.0017 -0.0375 -0.2738
  227MOL0     C30569   4.217  10.866   6.245 -0.4413  0.5768 -0.0519
  227MOL0     C30570   4.099  10.784   6.300 -0.3757  1.1864  0.2461
  227MOL0     C30571   3.971  10.869   6.322 -0.5599  0.6456 -0.1905
  227MOL0     C30572   3.870  10.808   6.415  0.3852  0.6857 -0.1772
  227MOL0     C30573   3.785  10.701   6.349 -0.8948 -0.9041  0.5763
  227MOL0     C30574   3.725  10.629   6.281 -0.8725  0.6096  0.3399
  227MOL0     C30575   4.489  10.986   6.213  0.2385 -0.7679 -0.1574
  227MOL0     C30576   4.628  11.027   6.204 -0.5557  0.4092  0.2644
  227MOL0     C30577   4.676  11.043   6.067 -0.2004 -0.2142  0.0122
  227MOL0     H30578   5.014  11.195   6.618  0.1285 -1.3922  2.0707
  227MOL0     H30579   5.259  11.231   6.643 -0.5298 -2.0827  0.7866
  227MOL0     H30580   5.403  11.374   6.477 -2.3967 -0.8388  2.9195
  227MOL0     H30581   5.456  11.296   6.615 -1.9410 -0.7863 -0.9072
  227MOL0     H30582   5.649  11.432   6.496  3.8603  0.9418 -2.1316
  227MOL0     H30583   5.640  11.317   6.366 -0.9231 -2.6467 -0.5264
  227MOL0     H30584   5.721  11.135   6.500  0.4682 -0.3541  0.1280
  227MOL0     H30585   5.696  11.219   6.650 -0.1658  2.3611  0.1573
  227MOL0     H30586   5.879  11.297   6.424 -0.1649  0.2400  0.1057
  227MOL0     H30587   5.864  11.394   6.564  0.4646  0.8563 -1.3211
  227MOL0     H30588   5.929  11.175   6.708 -0.5297 -0.3224  0.1104
  227MOL0     H30589   5.979  11.096   6.557  0.0793 -0.8014  0.1384
  227MOL0     H30590   6.145  11.295   6.529 -0.7045  0.1407  0.0695
  227MOL0     H30591   6.066  11.366   6.675  1.9413  0.5159  0.3735
  227MOL0     H30592   6.199  11.100   6.656 -0.7893 -0.4738  0.8812
  227MOL0     H30593   6.140  11.183   6.805 -1.5723 -0.3943 -0.8755
  227MOL0     H30594   6.363  11.291   6.642 -1.2368  1.4892 -0.9586
  227MOL0     H30595   6.298  11.353   6.803  0.3011  0.0294  0.2413
  227MOL0     H30596   6.515  11.084   6.632 -1.7549 -1.8918  0.0411
  227MOL0     H30597   6.612  10.815   6.817  0.6012 -0.3500 -0.7416
  227MOL0     H30598   6.720  10.929   6.733 -2.8613  1.1344 -1.0555
  227MOL0     H30599   6.694  10.894   7.040 -1.5714 -0.0454 -1.6591
  227MOL0     H30600   6.821  10.811   6.941  2.6037  2.0420 -1.1113
  227MOL0     H30601   6.898  11.007   7.069 -0.5342 -1.0887  0.6197
  227MOL0     H30602   6.815  11.121   6.978 -1.8471 -1.3415  3.7627
  227MOL0     H30603   7.018  11.097   6.847  0.4934  0.8024 -1.2096
  227MOL0     H30604   6.924  10.982   6.763  0.7502 -0.4750 -0.5623
  227MOL0     H30605   7.168  11.116   6.974  1.1518  0.1863  2.8614
  227MOL0     H30606   7.391  11.144   7.033 -0.1673 -0.2327  0.7768
  227MOL0     H30607   7.824  11.175   6.996  2.3594  0.3919 -1.0370
  227MOL0     H30608   8.068  11.187   7.100  0.4718  2.0978  3.5668
  227MOL0     H30609   8.062  11.157   7.499  1.0009  0.9443  0.6037
  227MOL0     H30610   8.173  11.012   7.468  4.2799  0.7852 -0.0159
  227MOL0     H30611   8.247  11.302   7.456 -0.9676 -1.0315  0.3732
  227MOL0     H30612   8.279  11.212   7.598 -0.8757 -2.1057 -0.1751
  227MOL0     H30613   8.406  11.041   7.454  2.9298  0.2302  0.3044
  227MOL0     H30614   8.392  11.161   7.321 -0.6433  0.2030  0.8910
  227MOL0     H30615   8.513  11.199   7.602  0.2561  0.2215 -0.2638
  227MOL0     H30616   8.540  11.306   7.464  2.5561  0.5775  2.0672
  227MOL0     H30617   8.674  11.139   7.348 -1.7249 -2.9053 -0.1928
  227MOL0     H30618   8.639  11.021   7.464  1.3779  1.2167  0.7855
  227MOL0     H30619   8.748  11.158   7.641 -1.7448 -2.8211 -0.6168
  227MOL0     H30620   8.842  11.081   7.521  1.1389 -0.0286  3.6685
  227MOL0     H30621   8.778  11.387   7.538  0.5370  0.0529  0.7866
  227MOL0     H30622   8.834  11.311   7.392 -2.1162  1.2598 -0.4480
  227MOL0     H30623   9.013  11.422   7.558 -1.1849  0.5033 -1.0659
  227MOL0     H30624   8.981  11.295   7.670 -0.1552  4.1558  0.5546
  227MOL0     H30625   7.919  10.954   7.427  0.3682  2.8985  2.4652
  227MOL0     H30626   7.712  10.926   7.325  2.1726 -2.3125 -0.2330
  227MOL0     H30627   7.459  10.722   6.967 -2.0732 -2.4133  0.3200
  227MOL0     H30628   7.216  10.697   6.916  1.1289 -0.1733  1.5415
  227MOL0     H30629   5.314  11.007   6.278 -0.3923 -2.7335  1.5265
  227MOL0     H30630   5.073  10.951   6.275 -1.3891 -0.3825  1.7094
  227MOL0     H30631   4.696  11.006   6.536 -0.8335 -1.5593  0.0515
  227MOL0     H30632   4.471  10.939   6.554 -0.5736 -0.6316  0.7376
  227MOL0     H30633   4.278  10.801   6.182  1.0575  0.6202  1.3041
  227MOL0     H30634   4.192  10.949   6.178  4.9954  0.7115 -2.4405
  227MOL0     H30635   4.119  10.734   6.395  1.0860 -0.1936 -0.7333
  227MOL0     H30636   4.081  10.701   6.230  0.9109  0.7804  0.3745
  227MOL0     H30637   3.952  10.895   6.217  3.4449  1.3156 -0.9154
  227MOL0     H30638   3.997  10.963   6.372  2.7323 -0.3822  0.2348
  227MOL0     H30639   3.927  10.762   6.496 -1.9771  0.4922  1.4720
  227MOL0     H30640   3.802  10.885   6.454  0.3475  1.8649 -2.3811
  227MOL0     H30641   3.668  10.564   6.219  0.6795 -2.1704  1.6621
  227MOL0     H30642   4.426  10.964   6.128 -2.9277 -0.9625  2.0568
  227MOL0     H30643   4.643  10.953   6.013  0.2006  0.0092 -0.6210
  227MOL0     H30644   4.630  11.136   6.032  0.1166  0.1841  0.6432
  227MOL0     H30645   4.785  11.046   6.059 -0.2239  2.0538  0.0631
  228MOL0     O30646   0.904   7.551   1.703  1.2119 -0.0982  0.3205
  228MOL0     C30647   0.891   7.471   1.797 -0.1472  0.2626  0.6949
  228MOL0     O30648   0.999   7.419   1.867  0.0442 -0.6187 -0.4512
  228MOL0     C30649   1.123   7.480   1.839  0.0505 -0.2731  0.4105
  228MOL0     C30650   1.150   7.617   1.865 -0.9439  0.1434  0.1759
  228MOL0     C30651   1.279   7.671   1.823  0.2872  0.0998 -0.5484
  228MOL0     C30652   1.382   7.587   1.781 -0.7286 -0.2866  0.3050
  228MOL0     O30653   1.515   7.645   1.760  0.7113  0.3034 -0.0314
  228MOL0     C30654   1.615   7.557   1.708 -0.4688 -0.2282 -0.0953
  228MOL0     C30655   1.735   7.636   1.649  0.4777 -0.0175  0.0632
  228MOL0     C30656   1.826   7.550   1.565 -0.4667 -0.0332 -0.2077
  228MOL0     C30657   1.937   7.630   1.497  0.2967 -0.5514 -0.5948
  228MOL0     C30658   2.048   7.545   1.442  0.3375 -0.0299 -0.4417
  228MOL0     C30659   2.158   7.635   1.376 -1.0486  0.4787 -0.1100
  228MOL0     C30660   2.265   7.536   1.309 -0.2571 -0.6094  0.2361
  228MOL0     C30661   2.365   7.622   1.233  0.5699 -0.0827  0.1395
  228MOL0     N30662   2.484   7.543   1.204  0.3769 -0.1929  0.2755
  228MOL0     C30663   2.486   7.441   1.111 -0.0269 -0.4036 -0.0987
  228MOL0     C30664   2.614   7.396   1.102 -0.1428  0.2124 -0.2072
  228MOL0     C30665   2.666   7.288   1.011 -0.3700  1.1963 -0.6776
  228MOL0     C30666   2.791   7.213   1.071  0.4668  0.0777 -0.1647
  228MOL0     C30667   2.866   7.110   0.980 -0.2872  0.4245  0.1543
  228MOL0     C30668   2.999   7.068   1.034 -0.2348 -0.6812  0.2778
  228MOL0     O30669   3.083   7.178   1.077  0.1006  0.3917 -0.1854
  228MOL0     C30670   3.162   7.157   1.188  0.0284  0.2326  0.5412
  228MOL0     C30671   3.137   7.051   1.286 -0.0107 -0.5193 -1.1473
  228MOL0     C30672   3.227   7.040   1.392 -0.6795  0.8166  0.1753
  228MOL0     C30673   3.346   7.116   1.405  0.7744  0.5730  1.2805
  228MOL0     C30674   3.447   7.083   1.506 -0.5559  0.0832  0.0028
  228MOL0     O30675   3.444   6.959   1.555  0.1818 -0.3843  0.2867
  228MOL0     C30676   3.554   6.907   1.621  0.3153 -0.2334 -1.1152
  228MOL0     C30677   3.695   6.929   1.577 -0.5776 -0.0265  1.1829
  228MOL0     C30678   3.794   6.861   1.642 -0.4547 -0.3570  0.3855
  228MOL0     C30679   3.771   6.788   1.751  0.0641  0.2590  0.2388
  228MOL0     O30680   3.885   6.733   1.809  0.3460  0.3697 -0.2012
  228MOL0     C30681   3.885   6.671   1.938 -0.4029 -0.4333 -0.1878
  228MOL0     C30682   4.030   6.645   1.994 -0.5530 -0.5323 -0.2507
  228MOL0     C30683   4.107   6.776   1.992 -0.4569 -0.5075  0.7214
  228MOL0     C30684   4.247   6.772   2.046 -0.0373  0.8823 -0.4884
  228MOL0     C30685   4.334   6.884   1.999  0.1306 -0.1823  0.1229
  228MOL0     C30686   4.471   6.871   2.062 -0.2651  0.4877  0.1574
  228MOL0     C30687   4.560   6.965   1.983 -0.4720  1.0284  0.9058
  228MOL0     C30688   4.680   7.025   2.057  1.2053  0.0873  0.4890
  228MOL0    Cl30689   4.772   6.887   2.136 -0.1739  0.3216 -0.0215
  228MOL0     C30690   3.642   6.766   1.797 -0.3272 -0.8735  0.2184
  228MOL0     C30691   3.528   6.827   1.735  0.1434  0.1224  0.3627
  228MOL0     O30692   3.542   7.160   1.520 -0.0234 -0.2103  0.0793
  228MOL0     C30693   3.371   7.211   1.306  0.4130 -0.2322 -0.2250
  228MOL0     C30694   3.281   7.227   1.204  0.2343  0.0836  0.7621
  228MOL0     N30695   2.691   7.478   1.181 -0.0368 -0.0488  0.0976
  228MOL0     N30696   2.611   7.565   1.238 -0.0244 -0.2531  0.4436
  228MOL0     C30697   1.353   7.451   1.770 -0.0397  0.1603 -0.3681
  228MOL0     C30698   1.231   7.403   1.805  0.0045  0.2930 -0.1051
  228MOL0     C30699   0.757   7.438   1.843  0.0148 -0.1347  0.2449
  228MOL0     C30700   0.755   7.361   1.961  0.5562  0.7414 -0.6623
  228MOL0     C30701   0.633   7.313   2.009 -0.4251  0.3039  0.4855
  228MOL0     C30702   0.517   7.343   1.939 -0.0431 -0.2531  0.5791
  228MOL0     O30703   0.408   7.282   1.996  0.3290  0.1053  0.4225
  228MOL0     C30704   0.275   7.316   1.954  0.5432  0.4829  0.5059
  228MOL0     C30705   0.252   7.470   1.980  0.1673 -0.7057 -0.8326
  228MOL0     C30706   0.109   7.531   1.967 -0.7377 -0.0156  0.6001
  228MOL0     C30707   0.060   7.524   1.820 -0.0405 -0.0014 -0.0180
  228MOL0     C30708  -0.069   7.593   1.813 -0.0326  0.0007 -0.0714
  228MOL0     C30709  -0.161   7.666   1.795  0.3465  0.7144  0.8519
  228MOL0     C30710   0.515   7.419   1.817  0.4394 -0.9544  0.0014
  228MOL0     C30711   0.633   7.469   1.774  0.1543 -0.0110 -0.2522
  228MOL0     C30712   0.628   7.560   1.654 -0.0942 -0.3344  0.0705
  228MOL0     H30713   1.074   7.689   1.893 -0.4302  1.4832 -1.6780
  228MOL0     H30714   1.309   7.775   1.824  2.0042 -0.2999 -2.8464
  228MOL0     H30715   1.651   7.495   1.791  1.0659  3.4990  2.2630
  228MOL0     H30716   1.571   7.485   1.638  2.7078  0.3760 -2.9916
  228MOL0     H30717   1.785   7.687   1.733  0.4301  0.2214 -0.0513
  228MOL0     H30718   1.698   7.718   1.587 -1.1676  0.3646  1.4371
  228MOL0     H30719   1.768   7.519   1.477  1.2560  2.8428 -2.5819
  228MOL0     H30720   1.872   7.477   1.632 -0.9645  0.2815  0.4865
  228MOL0     H30721   1.891   7.691   1.419  2.9614  0.2333 -1.6687
  228MOL0     H30722   1.974   7.699   1.573  1.0522 -0.4776 -1.0195
  228MOL0     H30723   2.103   7.493   1.521  1.1457  1.7112  0.1888
  228MOL0     H30724   2.004   7.491   1.357  0.5066  2.1867 -2.0204
  228MOL0     H30725   2.115   7.705   1.303 -1.7033  0.0502 -0.1383
  228MOL0     H30726   2.200   7.704   1.451 -1.3391  3.0591 -2.1708
  228MOL0     H30727   2.208   7.472   1.241 -1.5069  0.2639  0.4162
  228MOL0     H30728   2.311   7.478   1.390  0.6539 -0.2464 -0.0173
  228MOL0     H30729   2.321   7.661   1.141  3.7763  1.0219 -1.0888
  228MOL0     H30730   2.386   7.713   1.290 -1.2741  0.7019 -0.3637
  228MOL0     H30731   2.398   7.400   1.063 -0.1129 -0.4850  0.1270
  228MOL0     H30732   2.586   7.217   0.991 -0.4208  0.4530  1.8455
  228MOL0     H30733   2.701   7.331   0.916 -0.9482  0.4436 -1.2495
  228MOL0     H30734   2.869   7.279   1.109  0.5915  0.8308 -1.6860
  228MOL0     H30735   2.751   7.160   1.158 -1.4142 -0.8442 -1.5103
  228MOL0     H30736   2.879   7.159   0.883  2.6902 -0.8910 -0.1984
  228MOL0     H30737   2.803   7.023   0.962  0.2172 -0.5566  2.7673
  228MOL0     H30738   3.056   7.015   0.957 -0.0119  0.1746 -0.1622
  228MOL0     H30739   2.977   6.998   1.115  1.0085  1.6460  2.7815
  228MOL0     H30740   3.043   6.998   1.299 -0.0247 -0.4118 -0.7953
  228MOL0     H30741   3.206   6.976   1.477  1.1702  1.9694  1.5733
  228MOL0     H30742   3.721   6.984   1.487  1.3848  0.2734  1.8922
  228MOL0     H30743   3.897   6.871   1.608 -0.0878 -0.0992  1.5044
  228MOL0     H30744   3.823   6.730   2.006 -0.3834  0.9296 -1.3076
  228MOL0     H30745   3.831   6.577   1.923 -1.3300  0.0906 -0.1933
  228MOL0     H30746   4.025   6.596   2.092 -0.8560 -2.7801 -1.3121
  228MOL0     H30747   4.067   6.566   1.928 -0.3289 -1.0826  0.5274
  228MOL0     H30748   4.105   6.823   1.893 -1.0868 -1.2678  0.3633
  228MOL0     H30749   4.047   6.847   2.050 -0.8426 -0.2280 -0.0064
  228MOL0     H30750   4.275   6.672   2.012 -2.0882 -0.2378  0.9125
  228MOL0     H30751   4.247   6.765   2.155 -0.3872  0.2025 -0.5246
  228MOL0     H30752   4.295   6.984   2.021  0.7149  0.3529 -1.1721
  228MOL0     H30753   4.337   6.885   1.890 -1.3086  1.4552  0.0481
  228MOL0     H30754   4.463   6.888   2.170  1.3005 -3.0482  0.9718
  228MOL0     H30755   4.514   6.772   2.052  1.6024  1.2739  0.0611
  228MOL0     H30756   4.502   7.048   1.942 -0.4797  0.8708  0.5946
  228MOL0     H30757   4.604   6.907   1.901  0.0971  0.1145  1.8208
  228MOL0     H30758   4.748   7.077   1.989  0.1093  0.8502 -0.0545
  228MOL0     H30759   4.640   7.091   2.135 -2.1289  0.7433 -1.5636
  228MOL0     H30760   3.631   6.698   1.881  1.3285 -0.5344  0.7533
  228MOL0     H30761   3.427   6.809   1.771  0.3220 -4.4622 -0.7566
  228MOL0     H30762   3.460   7.270   1.323  0.7991 -0.8672 -0.0207
  228MOL0     H30763   3.312   7.302   1.132  2.8409 -0.6168  1.0525
  228MOL0     H30764   1.426   7.373   1.749 -0.1364  0.1002 -0.4747
  228MOL0     H30765   1.218   7.295   1.814 -3.2090  0.6755  1.2370
  228MOL0     H30766   0.841   7.334   2.022 -0.1589 -0.0455  0.0246
  228MOL0     H30767   0.625   7.248   2.095 -0.5739  0.9381  0.9565
  228MOL0     H30768   0.215   7.260   2.025 -0.8806  0.1492 -0.9129
  228MOL0     H30769   0.253   7.294   1.849  0.9466  1.8427  0.1139
  228MOL0     H30770   0.311   7.537   1.917  0.4637 -0.5287 -0.3711
  228MOL0     H30771   0.274   7.485   2.086 -1.8536 -1.0111 -0.3197
  228MOL0     H30772   0.106   7.633   2.006 -0.8875 -0.2312  1.1638
  228MOL0     H30773   0.036   7.477   2.029 -1.0269 -1.4142 -0.8710
  228MOL0     H30774   0.137   7.555   1.750  0.1444  0.7041  0.4845
  228MOL0     H30775   0.040   7.418   1.798 -2.1467  0.3556 -0.0286
  228MOL0     H30776  -0.250   7.722   1.776 -0.1515 -0.7984 -1.7208
  228MOL0     H30777   0.420   7.420   1.764 -0.3926  1.3251  1.3707
  228MOL0     H30778   0.525   7.593   1.632  1.1071  2.6779 -1.6911
  228MOL0     H30779   0.686   7.650   1.676  0.7610 -0.7177 -0.5839
  228MOL0     H30780   0.673   7.521   1.562 -0.2942 -1.0074  0.2524
  229MOL0     O30781   3.171   4.708   0.706  0.6466 -0.6032 -0.4043
  229MOL0     C30782   3.215   4.824   0.699  0.1086 -0.5954  1.1192
  229MOL0     O30783   3.313   4.867   0.610 -0.0480 -0.1912  0.6181
  229MOL0     C30784   3.395   4.776   0.563 -0.9746  0.2484 -0.4724
  229MOL0     C30785   3.476   4.708   0.657  0.1927 -0.3063 -0.2309
  229MOL0     C30786   3.577   4.625   0.615 -0.2190  0.2867 -0.2250
  229MOL0     C30787   3.611   4.611   0.477  0.5315 -0.0084 -0.1097
  229MOL0     O30788   3.724   4.544   0.439  0.2292 -0.2700 -1.0870
  229MOL0     C30789   3.783   4.597   0.324 -0.4404  0.4094  0.3266
  229MOL0     C30790   3.914   4.531   0.319 -0.3533  0.0828  0.3752
  229MOL0     C30791   3.992   4.575   0.195 -0.2193  0.2681  0.0087
  229MOL0     C30792   4.134   4.509   0.208  1.1592 -0.5931  0.1351
  229MOL0     C30793   4.228   4.592   0.295  0.3848 -0.4048 -0.3592
  229MOL0     C30794   4.364   4.525   0.306  0.0993 -0.3674  0.7382
  229MOL0     C30795   4.468   4.602   0.374  0.4388  0.5037 -0.7300
  229MOL0     C30796   4.598   4.530   0.359  0.1404  0.3403  0.1834
  229MOL0     N30797   4.707   4.602   0.421  0.2511  0.7836 -0.6292
  229MOL0     C30798   4.835   4.594   0.383 -0.6345 -0.6508 -0.0861
  229MOL0     C30799   4.897   4.694   0.457 -0.0513 -0.1450  0.2260
  229MOL0     C30800   5.041   4.740   0.449 -0.0040 -0.4087  0.2461
  229MOL0     C30801   5.079   4.846   0.548  0.3774 -0.3768 -0.0779
  229MOL0     C30802   5.136   4.792   0.682 -0.9725  0.1777 -0.7446
  229MOL0     C30803   5.274   4.716   0.666 -0.4749 -0.4512  0.2604
  229MOL0     O30804   5.368   4.804   0.600 -0.3214  0.1462 -0.3922
  229MOL0     C30805   5.497   4.803   0.642 -0.6838 -0.2594  0.5750
  229MOL0     C30806   5.550   4.687   0.693 -0.5596  0.4140  0.8448
  229MOL0     C30807   5.676   4.676   0.737  0.7590  0.1087 -0.1513
  229MOL0     C30808   5.762   4.779   0.734 -1.1409 -0.2376 -0.3855
  229MOL0     C30809   5.901   4.765   0.789 -0.2623 -0.4071  0.1877
  229MOL0     O30810   5.941   4.887   0.851 -0.1841 -0.3806  0.4260
  229MOL0     C30811   6.068   4.882   0.896  0.2247  0.0795  0.0351
  229MOL0     C30812   6.163   4.955   0.824  0.1055 -0.7146  0.3897
  229MOL0     C30813   6.291   4.966   0.871  0.7911 -0.7776 -0.5889
  229MOL0     C30814   6.340   4.908   0.992  0.3998  0.3996  1.0202
  229MOL0     O30815   6.472   4.916   1.024 -0.1858 -0.4640 -0.4408
  229MOL0     C30816   6.510   4.894   1.158 -0.7113  0.5950  0.0779
  229MOL0     C30817   6.660   4.918   1.192 -0.0055  0.4974 -0.0528
  229MOL0     C30818   6.696   5.070   1.192  0.3419 -0.6341  0.8636
  229MOL0     C30819   6.842   5.097   1.234  0.8559  0.3368  0.2568
  229MOL0     C30820   6.865   5.243   1.200 -0.1181  1.2578 -0.8498
  229MOL0     C30821   6.993   5.281   1.264 -0.1322  0.1195  0.6789
  229MOL0     C30822   7.043   5.424   1.220 -0.4621 -0.3349  0.0930
  229MOL0     C30823   7.177   5.455   1.279  0.7170 -0.1856 -0.7372
  229MOL0    Cl30824   7.234   5.609   1.218  0.0342 -0.3836  0.3725
  229MOL0     C30825   6.238   4.845   1.063  0.9650 -0.5867  0.2319
  229MOL0     C30826   6.104   4.834   1.020  0.3959 -0.7170 -0.8828
  229MOL0     O30827   5.961   4.658   0.778  0.6117  0.3597 -0.7199
  229MOL0     C30828   5.721   4.903   0.677 -0.3507 -0.6845  0.2742
  229MOL0     C30829   5.587   4.912   0.627  0.2712 -0.5098 -0.7946
  229MOL0     N30830   4.801   4.760   0.534  0.5352  0.0369 -0.6496
  229MOL0     N30831   4.689   4.702   0.523  0.8021 -0.0152 -0.1923
  229MOL0     C30832   3.525   4.676   0.391 -0.2989 -0.8179  0.4347
  229MOL0     C30833   3.418   4.757   0.429  0.3710  0.4204 -1.1151
  229MOL0     C30834   3.146   4.931   0.786 -0.7224  0.2569  0.3351
  229MOL0     C30835   3.015   4.899   0.836 -0.1935 -0.1240  0.7409
  229MOL0     C30836   2.938   4.984   0.919 -0.1790  0.4004  0.2891
  229MOL0     C30837   2.994   5.111   0.952  0.2778  0.4144  0.4327
  229MOL0     O30838   2.923   5.198   1.031 -0.2699 -0.7035 -0.3747
  229MOL0     C30839   2.916   5.332   0.978  0.2027  0.2581  0.1601
  229MOL0     C30840   2.948   5.413   1.108  0.3643  0.1303  0.0928
  229MOL0     C30841   2.906   5.562   1.108  0.6988  0.9540 -0.8663
  229MOL0     C30842   2.983   5.630   1.223 -0.2333 -0.3332  0.2971
  229MOL0     C30843   2.916   5.620   1.349 -0.3447  0.4041 -0.6774
  229MOL0     C30844   2.862   5.617   1.461 -0.4719  0.0470 -0.2826
  229MOL0     C30845   3.119   5.147   0.898  0.1662 -0.5825  0.0362
  229MOL0     C30846   3.203   5.062   0.817  0.2100  0.0674 -0.0445
  229MOL0     C30847   3.323   5.123   0.749 -0.1834  0.9842  0.1281
  229MOL0     H30848   3.444   4.716   0.760 -0.3126 -2.2166 -0.1990
  229MOL0     H30849   3.619   4.564   0.695  2.3845  1.3044 -0.7069
  229MOL0     H30850   3.726   4.574   0.234  1.8823 -3.3948 -0.3596
  229MOL0     H30851   3.811   4.702   0.338  3.3545 -0.2598 -1.0355
  229MOL0     H30852   3.898   4.422   0.317  0.9516 -0.1199  0.6360
  229MOL0     H30853   3.955   4.553   0.418 -1.9576  0.6011  0.9613
  229MOL0     H30854   4.007   4.682   0.178 -0.6761 -0.1749 -3.9489
  229MOL0     H30855   3.951   4.534   0.102  3.3381 -0.1022 -1.5381
  229MOL0     H30856   4.124   4.407   0.247  0.7554 -0.6293 -0.0642
  229MOL0     H30857   4.179   4.505   0.109 -1.3080 -1.9266 -1.0128
  229MOL0     H30858   4.229   4.696   0.263  0.3584  0.0193  0.9589
  229MOL0     H30859   4.187   4.588   0.396 -0.3212 -2.0862 -0.6732
  229MOL0     H30860   4.352   4.432   0.362 -1.4990 -0.0625  0.9331
  229MOL0     H30861   4.399   4.505   0.204  0.3393  3.8236 -0.1673
  229MOL0     H30862   4.435   4.615   0.477  4.7382 -0.7751  0.9952
  229MOL0     H30863   4.474   4.706   0.340 -2.0372  0.9159 -0.0737
  229MOL0     H30864   4.598   4.431   0.405  2.2223  0.8127  1.3346
  229MOL0     H30865   4.627   4.523   0.254  0.6357  0.2298  0.3237
  229MOL0     H30866   4.873   4.535   0.300 -0.2916  0.4027 -0.6986
  229MOL0     H30867   5.108   4.654   0.459  2.2709  1.1013 -0.8887
  229MOL0     H30868   5.062   4.772   0.346 -1.7210  0.5149  0.1527
  229MOL0     H30869   5.156   4.914   0.507  0.4504 -0.3372  0.1257
  229MOL0     H30870   4.996   4.913   0.572  1.6866  0.8211  1.3039
  229MOL0     H30871   5.063   4.723   0.726 -1.2745  0.5190 -0.7026
  229MOL0     H30872   5.141   4.881   0.746 -1.4012 -0.2368 -0.1268
  229MOL0     H30873   5.267   4.614   0.626 -2.2026  0.4799 -2.0227
  229MOL0     H30874   5.310   4.701   0.768 -0.7110 -0.3706  0.3564
  229MOL0     H30875   5.485   4.601   0.702 -0.3690  0.3045  1.2012
  229MOL0     H30876   5.715   4.582   0.776 -1.0133 -0.4248  0.4097
  229MOL0     H30877   6.147   5.012   0.733  1.0282  2.5342  2.1035
  229MOL0     H30878   6.364   5.006   0.801  0.8645 -2.4399 -1.5155
  229MOL0     H30879   6.441   4.945   1.226 -0.8803 -1.2276  1.3640
  229MOL0     H30880   6.488   4.789   1.180 -0.0024  0.1456 -1.2534
  229MOL0     H30881   6.683   4.871   1.288  1.6671  3.9740  1.4719
  229MOL0     H30882   6.720   4.874   1.112 -0.3611  1.8784 -1.1113
  229MOL0     H30883   6.682   5.121   1.097  0.9568  2.2990  2.2157
  229MOL0     H30884   6.630   5.130   1.255  0.8140  1.7040 -0.7300
  229MOL0     H30885   6.906   5.035   1.171 -2.6691 -2.1149 -1.1900
  229MOL0     H30886   6.854   5.072   1.340 -3.6196 -0.8738  0.6588
  229MOL0     H30887   6.785   5.307   1.237  0.2698  0.9394  0.6051
  229MOL0     H30888   6.869   5.257   1.091 -1.7066  0.5884 -1.0219
  229MOL0     H30889   6.974   5.282   1.372  1.4170 -5.2866  1.3132
  229MOL0     H30890   7.068   5.203   1.252 -1.7386 -2.4225  4.8723
  229MOL0     H30891   6.967   5.491   1.261  0.8656 -1.1861  4.4774
  229MOL0     H30892   7.054   5.435   1.112 -1.8255  1.0045  0.0544
  229MOL0     H30893   7.153   5.460   1.386  0.1601  1.2064 -0.9112
  229MOL0     H30894   7.244   5.373   1.252  0.0946 -0.6466 -0.9014
  229MOL0     H30895   6.266   4.794   1.154 -2.1783 -0.0803  1.6104
  229MOL0     H30896   6.034   4.787   1.088 -1.0864  1.4602 -0.7870
  229MOL0     H30897   5.800   4.977   0.667  0.7589 -1.2914  3.5365
  229MOL0     H30898   5.542   5.000   0.583  1.5015  1.5920  1.8292
  229MOL0     H30899   3.536   4.680   0.283 -0.4196  1.4596  0.4616
  229MOL0     H30900   3.346   4.800   0.360  1.4011  0.6914 -2.0375
  229MOL0     H30901   2.969   4.804   0.812  1.0897 -0.6122  0.1221
  229MOL0     H30902   2.840   4.950   0.951  0.8074 -0.3652  2.7097
  229MOL0     H30903   2.820   5.370   0.941  0.3661  0.8716  0.3631
  229MOL0     H30904   2.990   5.359   0.903  0.5795  0.1604  0.4955
  229MOL0     H30905   3.051   5.397   1.141  0.5830 -1.3605 -1.2010
  229MOL0     H30906   2.887   5.371   1.189 -0.7364 -2.6079 -1.9770
  229MOL0     H30907   2.798   5.578   1.108  0.3321 -1.2141 -0.7437
  229MOL0     H30908   2.945   5.605   1.015 -1.8379  2.7545 -1.1838
  229MOL0     H30909   3.087   5.599   1.233 -0.9368 -2.4474  1.9005
  229MOL0     H30910   2.991   5.736   1.196  2.4929 -0.0428  1.8697
  229MOL0     H30911   2.818   5.622   1.559 -0.4907 -0.5985 -0.2534
  229MOL0     H30912   3.158   5.246   0.921  1.0956 -1.2172  1.3574
  229MOL0     H30913   3.343   5.219   0.797 -1.2393  1.0799  0.4054
  229MOL0     H30914   3.402   5.048   0.760 -1.7810 -0.8020 -0.0534
  229MOL0     H30915   3.295   5.133   0.644  3.7833 -1.6062 -1.4297
  230MOL0     O30916   4.195   9.743   6.642  0.1812 -0.2280  0.1959
  230MOL0     C30917   4.141   9.792   6.544  0.2214 -0.6825 -0.2581
  230MOL0     O30918   4.183   9.905   6.480 -0.6022  0.9718 -0.0931
  230MOL0     C30919   4.290   9.992   6.524 -0.0560  0.3692  0.3069
  230MOL0     C30920   4.338  10.084   6.433  0.4185  0.3112 -0.1405
  230MOL0     C30921   4.444  10.167   6.471  0.2212  0.1681 -0.1383
  230MOL0     C30922   4.502  10.170   6.592 -0.4243  0.5889 -0.0105
  230MOL0     O30923   4.596  10.258   6.629  0.1406  0.3768 -0.7005
  230MOL0     C30924   4.608  10.385   6.564 -0.1901 -2.2074  0.7252
  230MOL0     C30925   4.727  10.470   6.630  0.5899 -1.0097 -0.0826
  230MOL0     C30926   4.735  10.613   6.563  0.0792  0.6902 -0.2669
  230MOL0     C30927   4.850  10.696   6.610 -1.2877 -0.1111 -0.1511
  230MOL0     C30928   4.978  10.636   6.534  0.0524  0.3270  0.4920
  230MOL0     C30929   5.102  10.712   6.566  0.6282 -0.3403  0.0572
  230MOL0     C30930   5.216  10.658   6.477  0.2342 -0.0109 -0.5617
  230MOL0     C30931   5.351  10.721   6.491 -0.1502  0.0681  0.0318
  230MOL0     N30932   5.385  10.743   6.634 -0.9350  0.1493  0.1930
  230MOL0     C30933   5.391  10.864   6.692 -0.3955 -0.3764 -0.2792
  230MOL0     C30934   5.487  10.851   6.795  0.1520 -0.3142 -0.4316
  230MOL0     C30935   5.521  10.956   6.902 -0.1174 -0.1609  0.0539
  230MOL0     C30936   5.663  11.013   6.906 -0.1158  0.3998  0.5262
  230MOL0     C30937   5.741  10.951   7.024  0.3682 -0.1545  0.0565
  230MOL0     C30938   5.875  11.030   7.035 -0.6423 -0.4572  0.2733
  230MOL0     O30939   5.847  11.170   7.030 -0.5151  0.0675 -0.5081
  230MOL0     C30940   5.958  11.254   7.034  0.1219 -0.0511 -1.0855
  230MOL0     C30941   5.932  11.382   6.971 -0.2247  1.1938  0.1853
  230MOL0     C30942   6.026  11.483   6.968  0.8684 -0.2499 -0.2037
  230MOL0     C30943   6.155  11.452   7.018  0.2014 -0.4094 -0.6380
  230MOL0     C30944   6.256  11.551   7.005 -0.0338  0.0047  0.0064
  230MOL0     O30945   6.339  11.575   7.114 -0.6586 -0.2810  0.4952
  230MOL0     C30946   6.442  11.658   7.086  0.2228 -0.2266  0.0914
  230MOL0     C30947   6.572  11.620   7.119 -0.8046 -0.1307  0.1501
  230MOL0     C30948   6.672  11.722   7.124  0.0820  0.5308  1.3933
  230MOL0     C30949   6.645  11.851   7.081  0.4943 -0.2775 -0.2221
  230MOL0     O30950   6.750  11.940   7.087  0.3864 -0.2178  0.0332
  230MOL0     C30951   6.731  12.080   7.117  1.0601  0.1224  0.6097
  230MOL0     C30952   6.714  12.167   6.996 -0.1657 -0.2152  0.0153
  230MOL0     C30953   6.759  12.315   7.018 -0.4596  0.2229 -0.7123
  230MOL0     C30954   6.712  12.380   7.147 -0.3190  0.5127  0.6656
  230MOL0     C30955   6.746  12.526   7.170 -0.0011  0.1978 -0.1088
  230MOL0     C30956   6.890  12.542   7.169 -0.4838  0.6429  0.5990
  230MOL0     C30957   6.924  12.682   7.231  0.3724 -0.0214  0.4884
  230MOL0     C30958   7.068  12.715   7.240 -0.0623 -0.7387 -0.0386
  230MOL0    Cl30959   7.130  12.609   7.362 -0.1306  0.0477 -0.0336
  230MOL0     C30960   6.515  11.881   7.035  0.0926 -0.0302  0.7823
  230MOL0     C30961   6.418  11.787   7.040  0.2082  0.2768 -0.5180
  230MOL0     O30962   6.267  11.600   6.892 -0.3707  0.1093 -0.5573
  230MOL0     C30963   6.183  11.323   7.082  0.5553 -0.3394 -1.1400
  230MOL0     C30964   6.078  11.226   7.086  0.3572 -1.0419 -1.4225
  230MOL0     N30965   5.524  10.720   6.798 -0.1069  0.1438 -0.6721
  230MOL0     N30966   5.450  10.655   6.709 -0.0977 -0.0354 -0.2551
  230MOL0     C30967   4.469  10.062   6.680  0.0323 -0.4691  0.0602
  230MOL0     C30968   4.355   9.983   6.649 -0.0216 -0.1548  0.1445
  230MOL0     C30969   4.025   9.724   6.471  0.1941 -0.9937  0.2410
  230MOL0     C30970   4.008   9.764   6.341  0.0943 -0.2089 -0.7383
  230MOL0     C30971   3.911   9.716   6.253  0.1336  0.8363 -0.6097
  230MOL0     C30972   3.816   9.625   6.302  0.8140  0.2919 -0.1499
  230MOL0     O30973   3.708   9.573   6.233  0.0236  0.0631  0.0606
  230MOL0     C30974   3.711   9.599   6.094 -0.0528  0.9580 -0.9027
  230MOL0     C30975   3.598   9.512   6.040 -0.9046 -1.1924 -0.7371
  230MOL0     C30976   3.471   9.592   6.070 -0.3343  0.1645 -0.1075
  230MOL0     C30977   3.362   9.501   6.016  0.4000  0.1088  0.9246
  230MOL0     C30978   3.391   9.439   5.885  0.1162 -0.1860  0.2276
  230MOL0     C30979   3.409   9.398   5.771  0.5113  0.0887 -0.1911
  230MOL0     C30980   3.833   9.584   6.434  0.2844 -0.1999  0.2088
  230MOL0     C30981   3.934   9.629   6.522 -0.3510  0.7034  0.1461
  230MOL0     C30982   3.962   9.559   6.646  0.3870  0.1423 -0.5296
  230MOL0     H30983   4.288  10.107   6.339 -1.2657  0.4401  0.7512
  230MOL0     H30984   4.461  10.247   6.401  1.3126 -0.2020 -0.3123
  230MOL0     H30985   4.633  10.379   6.458  0.1936 -0.2412  0.6767
  230MOL0     H30986   4.518  10.447   6.567  0.2312 -1.4837 -0.8469
  230MOL0     H30987   4.824  10.421   6.642  1.7740  1.1481 -0.4744
  230MOL0     H30988   4.694  10.493   6.732  0.5111 -4.5642  0.8497
  230MOL0     H30989   4.641  10.666   6.580 -1.0555 -1.0446 -0.8039
  230MOL0     H30990   4.742  10.601   6.454  0.4101 -0.1817 -0.1576
  230MOL0     H30991   4.834  10.800   6.580  1.0320  0.0880 -0.9567
  230MOL0     H30992   4.855  10.680   6.718 -1.1816  1.5427  0.1123
  230MOL0     H30993   4.995  10.531   6.558  0.0379  0.3069  0.4137
  230MOL0     H30994   4.959  10.644   6.427 -0.2613 -0.7620  0.4556
  230MOL0     H30995   5.085  10.819   6.554  1.9815 -0.3504 -2.7315
  230MOL0     H30996   5.128  10.684   6.668  1.1102 -0.3187 -0.0607
  230MOL0     H30997   5.176  10.669   6.376 -1.8091 -2.4904 -0.1354
  230MOL0     H30998   5.219  10.549   6.489 -1.7590  0.0777  1.5968
  230MOL0     H30999   5.420  10.655   6.438 -1.2984 -1.1589 -0.0078
  230MOL0     H31000   5.339  10.815   6.437 -2.9924  0.2945  0.8759
  230MOL0     H31001   5.332  10.949   6.661 -0.4521 -0.6552 -0.9717
  230MOL0     H31002   5.464  11.048   6.887  1.2122  0.6975  0.0692
  230MOL0     H31003   5.488  10.906   6.993 -1.2877 -1.8452 -1.2388
  230MOL0     H31004   5.734  10.992   6.824  0.2401 -0.1413  0.9624
  230MOL0     H31005   5.645  11.120   6.902  0.4228  0.4702 -0.8224
  230MOL0     H31006   5.766  10.845   7.013  2.5842  0.3386 -0.2667
  230MOL0     H31007   5.681  10.951   7.115  1.2302  1.5881  0.6747
  230MOL0     H31008   5.937  10.987   6.956  1.3484 -0.3276  1.6940
  230MOL0     H31009   5.919  11.004   7.132 -3.2268 -0.7333  1.4609
  230MOL0     H31010   5.839  11.403   6.918 -0.5642  2.8208  1.3305
  230MOL0     H31011   5.999  11.579   6.925 -2.8647 -1.9334 -2.1264
  230MOL0     H31012   6.603  11.528   7.167 -3.4450 -2.5065 -2.3381
  230MOL0     H31013   6.769  11.698   7.166  0.4164 -1.2232 -0.2616
  230MOL0     H31014   6.648  12.094   7.186  1.8968  1.8932  1.3310
  230MOL0     H31015   6.818  12.106   7.179  0.4271  2.7853  0.5036
  230MOL0     H31016   6.787  12.134   6.922  0.1628  1.9014 -0.6786
  230MOL0     H31017   6.614  12.157   6.952  0.3798  0.9291 -1.6238
  230MOL0     H31018   6.868  12.313   7.026 -0.5379  0.7232  0.6937
  230MOL0     H31019   6.732  12.376   6.930  0.3830  0.2216 -0.9781
  230MOL0     H31020   6.745  12.313   7.227 -0.0993 -1.5525 -1.0626
  230MOL0     H31021   6.603  12.375   7.151 -0.3214  0.7908  1.0670
  230MOL0     H31022   6.710  12.536   7.272 -0.9926  0.5954 -0.4873
  230MOL0     H31023   6.700  12.602   7.106  1.2043 -0.7128 -2.1846
  230MOL0     H31024   6.941  12.468   7.231  0.6429 -1.0939 -2.2080
  230MOL0     H31025   6.933  12.534   7.069  0.1324 -4.8997  1.0129
  230MOL0     H31026   6.878  12.687   7.330 -1.0442  1.1428 -0.1736
  230MOL0     H31027   6.880  12.767   7.177 -0.4993 -1.8560 -1.8870
  230MOL0     H31028   7.119  12.713   7.143  1.1741  0.0670  0.5718
  230MOL0     H31029   7.082  12.821   7.262  2.4055 -0.2467 -3.2023
  230MOL0     H31030   6.485  11.978   6.997 -1.7591 -0.9327 -0.1788
  230MOL0     H31031   6.318  11.809   7.003 -0.2000  1.0580  0.9692
  230MOL0     H31032   6.280  11.294   7.122  0.4886  0.2994 -0.5185
  230MOL0     H31033   6.091  11.126   7.128 -0.4552  0.1079  1.8888
  230MOL0     H31034   4.523  10.048   6.773 -2.4058  3.7331  2.3836
  230MOL0     H31035   4.325   9.914   6.727 -1.6970  1.9991  1.5059
  230MOL0     H31036   4.075   9.834   6.292 -2.1933  1.7129 -1.2872
  230MOL0     H31037   3.906   9.738   6.147  0.7298 -0.2559 -0.8867
  230MOL0     H31038   3.808   9.565   6.056 -0.3397 -0.2477 -0.6211
  230MOL0     H31039   3.703   9.704   6.066 -1.2289  1.0289 -0.3473
  230MOL0     H31040   3.601   9.413   6.088 -1.2033 -0.9902 -0.2929
  230MOL0     H31041   3.623   9.498   5.935  0.9432 -0.8015 -0.3822
  230MOL0     H31042   3.482   9.685   6.014 -0.3519 -0.1795 -0.6793
  230MOL0     H31043   3.453   9.613   6.176 -0.5300  1.7027 -0.4239
  230MOL0     H31044   3.326   9.436   6.096 -1.2703 -0.6304 -0.3506
  230MOL0     H31045   3.282   9.575   6.003 -0.0093  0.0045  2.6661
  230MOL0     H31046   3.422   9.371   5.668 -2.0811  3.5409 -1.5855
  230MOL0     H31047   3.761   9.510   6.468  1.1745 -1.4756 -0.6251
  230MOL0     H31048   3.967   9.637   6.723  1.1749 -0.5203  0.1128
  230MOL0     H31049   3.876   9.495   6.669  0.2139  0.5498 -0.0265
  230MOL0     H31050   4.051   9.495   6.647 -1.3333 -2.6476 -3.9234
  231MOL0     O31051   5.210   4.197   5.258  0.0139  0.3156  0.3855
  231MOL0     C31052   5.229   4.245   5.146 -1.1643  0.5770 -0.5118
  231MOL0     O31053   5.134   4.293   5.059  0.2198 -0.4346  0.0228
  231MOL0     C31054   5.006   4.320   5.091 -0.5795 -0.4294 -0.2410
  231MOL0     C31055   4.908   4.299   4.992  0.7610 -0.1231 -0.6485
  231MOL0     C31056   4.775   4.328   5.020  0.2080 -0.4392  0.2117
  231MOL0     C31057   4.737   4.397   5.146  0.0738  0.5620  0.0525
  231MOL0     O31058   4.611   4.432   5.183 -0.4983 -0.0268 -0.7501
  231MOL0     C31059   4.499   4.380   5.101  0.8650 -0.5219  0.0769
  231MOL0     C31060   4.365   4.397   5.175 -0.0829  0.3878 -0.6512
  231MOL0     C31061   4.355   4.318   5.310  0.2904 -0.8834 -0.3565
  231MOL0     C31062   4.370   4.164   5.296  0.1443 -0.4171 -0.0860
  231MOL0     C31063   4.285   4.096   5.397  0.3351 -0.3865  0.2270
  231MOL0     C31064   4.343   4.087   5.533  0.3554 -0.7519  1.1023
  231MOL0     C31065   4.482   4.024   5.542  0.4208 -0.2602 -0.9186
  231MOL0     C31066   4.537   3.996   5.681  0.3872  0.3055  0.0813
  231MOL0     N31067   4.673   3.960   5.677 -0.1138 -0.1879 -0.1479
  231MOL0     C31068   4.721   3.848   5.620  0.9245  0.0135  0.3164
  231MOL0     C31069   4.845   3.852   5.667 -0.1686 -0.3924  0.1166
  231MOL0     C31070   4.954   3.749   5.640  0.2574  0.3568 -0.3239
  231MOL0     C31071   5.022   3.763   5.498 -0.0435  0.1069 -0.7768
  231MOL0     C31072   5.086   3.908   5.483  0.2294 -0.2668 -0.2364
  231MOL0     C31073   5.172   3.949   5.609 -0.2346  0.3519  0.0742
  231MOL0     O31074   5.256   3.839   5.657  0.3799  0.1817  0.0094
  231MOL0     C31075   5.370   3.810   5.591  1.2172 -0.0368  0.3361
  231MOL0     C31076   5.413   3.870   5.477 -0.4121  0.1523  0.2838
  231MOL0     C31077   5.540   3.837   5.423 -0.8308  0.6214 -0.3900
  231MOL0     C31078   5.624   3.737   5.474  1.2559  0.1937  0.3844
  231MOL0     C31079   5.754   3.706   5.416 -0.3109  0.3696 -0.2124
  231MOL0     O31080   5.815   3.800   5.334 -0.2166 -0.1344  0.3214
  231MOL0     C31081   5.922   3.759   5.258  1.0683  0.6010  0.1061
  231MOL0     C31082   6.047   3.744   5.321 -0.5458  0.9624 -0.3792
  231MOL0     C31083   6.164   3.726   5.252 -0.4045  0.3051 -0.1289
  231MOL0     C31084   6.166   3.732   5.113  1.0726 -0.5406 -0.3230
  231MOL0     O31085   6.276   3.751   5.036  0.2252 -0.0280  0.5870
  231MOL0     C31086   6.405   3.766   5.097  0.2117 -0.4527 -0.5665
  231MOL0     C31087   6.515   3.791   4.986 -0.6263  0.0722  0.3169
  231MOL0     C31088   6.660   3.806   5.048  0.9034  0.5140  0.0379
  231MOL0     C31089   6.737   3.897   4.958 -0.5426 -0.6887  0.0490
  231MOL0     C31090   6.888   3.860   4.965 -0.1705 -0.4231 -0.1425
  231MOL0     C31091   6.989   3.967   4.916 -0.1501 -0.0032 -0.4461
  231MOL0     C31092   6.984   3.981   4.763  0.0955 -0.3067 -0.7110
  231MOL0     C31093   7.011   3.851   4.682  0.0720  0.0103  0.1016
  231MOL0    Cl31094   7.164   3.781   4.740  0.0499  0.2306  0.2070
  231MOL0     C31095   6.035   3.743   5.050  0.5827 -0.2821  0.2437
  231MOL0     C31096   5.908   3.762   5.117 -0.4881 -0.1459  0.9356
  231MOL0     O31097   5.804   3.597   5.456 -0.9829  0.2707  0.2615
  231MOL0     C31098   5.569   3.669   5.581 -0.2380  0.2901  0.3168
  231MOL0     C31099   5.447   3.703   5.640 -0.1397 -0.5522 -0.3879
  231MOL0     N31100   4.869   3.971   5.735  0.1054 -0.3495 -0.1176
  231MOL0     N31101   4.760   4.032   5.749  0.2874 -0.4171  0.5940
  231MOL0     C31102   4.836   4.417   5.237  0.6101  0.8024  0.3496
  231MOL0     C31103   4.967   4.377   5.215 -0.3006 -0.1489  0.6477
  231MOL0     C31104   5.364   4.229   5.102 -0.0117  0.6295  0.0392
  231MOL0     C31105   5.388   4.206   4.962 -0.2468 -0.5805  0.7358
  231MOL0     C31106   5.518   4.184   4.919 -0.6532 -0.2943  0.8275
  231MOL0     C31107   5.628   4.201   4.997 -0.1141 -0.2685 -0.2588
  231MOL0     O31108   5.749   4.187   4.933 -0.3415  0.1108  0.1145
  231MOL0     C31109   5.874   4.187   5.008 -0.8049  1.2364  0.3682
  231MOL0     C31110   6.004   4.145   4.930 -0.7113 -0.0778 -0.1174
  231MOL0     C31111   6.114   4.096   5.042 -0.9094 -0.2201  1.2553
  231MOL0     C31112   6.259   4.092   4.977  0.5672 -0.0617  0.5158
  231MOL0     C31113   6.339   4.191   5.054 -0.3831  0.2865  0.2646
  231MOL0     C31114   6.411   4.274   5.104 -1.0772 -0.7133  0.2625
  231MOL0     C31115   5.610   4.230   5.127 -0.3177 -0.2994  0.7927
  231MOL0     C31116   5.474   4.239   5.182 -0.3750  0.3555  0.0741
  231MOL0     C31117   5.470   4.268   5.330 -0.0842 -0.6029 -0.8737
  231MOL0     H31118   4.948   4.261   4.899 -0.7547  3.2170 -2.8643
  231MOL0     H31119   4.701   4.299   4.945 -0.1609 -1.6995  1.0322
  231MOL0     H31120   4.495   4.441   5.011  0.8791 -0.2318  0.2699
  231MOL0     H31121   4.513   4.274   5.077 -0.0662 -0.6502  0.0935
  231MOL0     H31122   4.282   4.374   5.108 -1.3726 -2.1369  1.6133
  231MOL0     H31123   4.347   4.501   5.203 -0.3334 -0.4189  2.6161
  231MOL0     H31124   4.261   4.340   5.361  1.1754 -1.6639  1.7148
  231MOL0     H31125   4.439   4.336   5.376 -1.3245 -0.7100  1.7618
  231MOL0     H31126   4.329   4.137   5.198 -0.2027 -0.5036  0.0802
  231MOL0     H31127   4.474   4.133   5.305 -0.1823 -1.4453  0.2038
  231MOL0     H31128   4.184   4.139   5.398  0.0898 -0.7640  3.4013
  231MOL0     H31129   4.276   3.988   5.380 -1.4000 -0.6653  2.4606
  231MOL0     H31130   4.355   4.191   5.562  1.6335 -0.8155  0.8957
  231MOL0     H31131   4.273   4.042   5.604 -1.5275 -0.0751 -0.2718
  231MOL0     H31132   4.550   4.100   5.502  1.4471 -1.0681 -0.7542
  231MOL0     H31133   4.490   3.933   5.482  0.2723  0.7493 -2.5367
  231MOL0     H31134   4.518   4.089   5.735 -1.6311  0.2025 -0.3906
  231MOL0     H31135   4.484   3.916   5.735  2.8857  0.1704  2.6099
  231MOL0     H31136   4.680   3.765   5.562  2.0414 -0.5251  0.2797
  231MOL0     H31137   5.035   3.749   5.714  1.0563 -1.1218 -1.1512
  231MOL0     H31138   4.914   3.648   5.631 -0.4443  0.7797 -2.2666
  231MOL0     H31139   5.106   3.692   5.497  1.2566  1.5414  0.6829
  231MOL0     H31140   4.952   3.742   5.417 -0.4890  1.4855 -0.7804
  231MOL0     H31141   5.004   3.979   5.472 -1.6510 -2.2585  0.2198
  231MOL0     H31142   5.149   3.911   5.394  2.2407 -0.1424  1.1096
  231MOL0     H31143   5.098   3.956   5.689  0.4054 -1.4481  0.8617
  231MOL0     H31144   5.221   4.045   5.588  0.8304  0.1105  1.3057
  231MOL0     H31145   5.355   3.949   5.429 -1.8546 -0.9952  0.0777
  231MOL0     H31146   5.573   3.895   5.338 -2.3759  1.2011 -0.6233
  231MOL0     H31147   6.047   3.742   5.430 -1.0207 -1.9034 -0.3562
  231MOL0     H31148   6.253   3.709   5.312 -0.2158  2.1694  0.1698
  231MOL0     H31149   6.403   3.852   5.165  0.8742  1.5502 -2.9364
  231MOL0     H31150   6.431   3.676   5.153 -1.7013 -2.5886 -2.8886
  231MOL0     H31151   6.518   3.713   4.909  1.8177 -0.7046  1.1002
  231MOL0     H31152   6.481   3.884   4.941 -1.5062  0.7637  2.3040
  231MOL0     H31153   6.657   3.848   5.149  0.1643  1.0197 -0.1839
  231MOL0     H31154   6.702   3.706   5.053 -0.3930  0.0003  1.4975
  231MOL0     H31155   6.732   4.002   4.986  0.6430  0.3873 -3.3803
  231MOL0     H31156   6.693   3.901   4.858  1.5376 -0.5324 -0.8964
  231MOL0     H31157   6.908   3.765   4.914 -0.4966 -0.1810 -0.7324
  231MOL0     H31158   6.915   3.846   5.070 -1.8154 -0.4142  0.3091
  231MOL0     H31159   6.973   4.065   4.963  1.5489  0.0713  0.0349
  231MOL0     H31160   7.089   3.942   4.953 -1.3279 -1.2005  2.1402
  231MOL0     H31161   7.056   4.055   4.725  1.5875 -2.1338 -1.6301
  231MOL0     H31162   6.887   4.019   4.731 -0.6310 -1.7725 -0.3181
  231MOL0     H31163   6.932   3.776   4.671  0.7688 -0.6735 -0.3657
  231MOL0     H31164   7.028   3.900   4.585 -1.1965  0.4568  0.0921
  231MOL0     H31165   6.041   3.743   4.942  2.4022 -2.8489  0.2639
  231MOL0     H31166   5.817   3.785   5.064  0.8461  1.4925 -0.7945
  231MOL0     H31167   5.635   3.603   5.637  0.6543  1.3281  0.5288
  231MOL0     H31168   5.411   3.650   5.728 -0.3798 -0.0310 -0.1674
  231MOL0     H31169   4.811   4.467   5.330 -0.8158 -1.0741  1.0317
  231MOL0     H31170   5.042   4.399   5.290  2.2760 -0.8798 -1.5527
  231MOL0     H31171   5.315   4.191   4.883  0.1957 -1.9834  0.5650
  231MOL0     H31172   5.533   4.151   4.817  1.3202 -0.1527  1.0405
  231MOL0     H31173   5.872   4.110   5.086  1.1973  0.7033 -0.0457
  231MOL0     H31174   5.885   4.286   5.054 -2.2479  0.3396  2.8763
  231MOL0     H31175   6.026   4.235   4.872  0.4424  1.0765  1.9734
  231MOL0     H31176   5.992   4.061   4.862  0.0863 -1.3887  1.2793
  231MOL0     H31177   6.081   4.000   5.083 -0.5076 -0.3451  1.2967
  231MOL0     H31178   6.104   4.158   5.131  1.2873  0.6241  0.9922
  231MOL0     H31179   6.310   3.996   4.992  2.0729  0.4438 -1.0353
  231MOL0     H31180   6.253   4.111   4.869 -1.0076  0.6040  0.6829
  231MOL0     H31181   6.470   4.356   5.138 -0.7986 -0.2138 -1.3297
  231MOL0     H31182   5.698   4.246   5.189 -0.6298 -0.6594  1.3391
  231MOL0     H31183   5.404   4.351   5.357 -0.4372 -1.4439  0.9752
  231MOL0     H31184   5.436   4.178   5.382 -0.0790 -0.1448 -0.0718
  231MOL0     H31185   5.567   4.283   5.378  0.1559  0.4265 -1.6499
  232MOL0     O31186   6.953  10.730   9.988 -0.4150 -0.4566  0.0965
  232MOL0     C31187   6.839  10.761  10.018 -0.0326 -0.4146 -0.4540
  232MOL0     O31188   6.801  10.865  10.105 -0.2905  0.1471 -0.4059
  232MOL0     C31189   6.897  10.921  10.184 -0.2428  0.1410 -0.4056
  232MOL0     C31190   6.980  10.842  10.265  1.0799 -0.1765 -0.9278
  232MOL0     C31191   7.072  10.903  10.348  0.4115  0.1810 -0.3587
  232MOL0     C31192   7.079  11.041  10.356 -0.4649 -0.3622 -0.0910
  232MOL0     O31193   7.167  11.085  10.457  0.8839  0.1860 -0.6104
  232MOL0     C31194   7.213  11.223  10.448  0.2221  0.5704  0.1902
  232MOL0     C31195   7.330  11.233  10.539 -0.3017  0.1040 -0.2488
  232MOL0     C31196   7.361  11.377  10.587 -0.4133  0.5525 -0.7470
  232MOL0     C31197   7.414  11.459  10.470 -0.3163 -0.1125 -0.2212
  232MOL0     C31198   7.458  11.599  10.517  0.6483  0.0364 -0.2584
  232MOL0     C31199   7.540  11.681  10.417 -0.6741  0.1868 -0.6988
  232MOL0     C31200   7.681  11.627  10.392 -0.1510  0.4502  0.2617
  232MOL0     C31201   7.774  11.646  10.509  0.1492  0.4617  0.0834
  232MOL0     N31202   7.918  11.613  10.477 -0.9352  0.2698  0.0962
  232MOL0     C31203   7.976  11.491  10.439 -0.2137 -0.6408  0.3448
  232MOL0     C31204   8.110  11.511  10.420  0.3359 -0.2011  0.4723
  232MOL0     C31205   8.211  11.411  10.385  0.3246 -0.4199  0.1394
  232MOL0     C31206   8.324  11.464  10.295 -0.1638 -0.0188 -0.8537
  232MOL0     C31207   8.450  11.504  10.390 -0.3058  0.4620 -0.0002
  232MOL0     C31208   8.534  11.599  10.314 -0.1300 -0.1351  0.4719
  232MOL0     O31209   8.586  11.529  10.198  0.3510 -0.3567 -0.0333
  232MOL0     C31210   8.713  11.561  10.153 -0.4191 -0.6324  0.7254
  232MOL0     C31211   8.776  11.472  10.073 -0.3305  0.9268  0.6287
  232MOL0     C31212   8.912  11.483  10.035 -0.1501  0.1336  0.5030
  232MOL0     C31213   8.988  11.590  10.071 -0.3093  0.3064  0.4241
  232MOL0     C31214   9.135  11.592  10.042  0.5115 -0.4353  0.2085
  232MOL0     O31215   9.182  11.477   9.992 -0.4146 -0.0344 -0.2339
  232MOL0     C31216   9.320  11.465   9.969 -0.3546 -1.0097  0.9140
  232MOL0     C31217   9.418  11.509  10.056  0.5160  0.6300 -1.0419
  232MOL0     C31218   9.550  11.478  10.032 -0.2848 -0.6404  0.1635
  232MOL0     C31219   9.587  11.414   9.913 -0.1264 -0.2457  0.5741
  232MOL0     O31220   9.709  11.387   9.867  0.5329  0.0808  0.6878
  232MOL0     C31221   9.817  11.401   9.963 -0.6845 -0.4179  0.6287
  232MOL0     C31222   9.949  11.357   9.884  0.1179  0.0764  0.0371
  232MOL0     C31223  10.072  11.423   9.959  0.7513  0.1573  0.0792
  232MOL0     C31224  10.201  11.391   9.875  0.3005 -0.3079 -0.3570
  232MOL0     C31225  10.326  11.413   9.965 -0.7284  0.3969 -0.5381
  232MOL0     C31226  10.462  11.392   9.890 -0.1314 -0.0186 -0.7490
  232MOL0     C31227  10.585  11.391   9.991  0.7803 -0.3361  0.5270
  232MOL0     C31228  10.723  11.400   9.930  0.2650  0.1902 -0.7941
  232MOL0    Cl31229  10.830  11.408  10.070 -0.1959 -0.2384 -0.8889
  232MOL0     C31230   9.490  11.385   9.822  0.6547  0.3625  0.0002
  232MOL0     C31231   9.355  11.416   9.844  0.0380  0.5968  0.0971
  232MOL0     O31232   9.201  11.703  10.052 -0.1141  0.3834  0.0699
  232MOL0     C31233   8.932  11.694  10.143  0.7325 -0.5985 -0.0541
  232MOL0     C31234   8.796  11.680  10.179 -0.5877  0.8275  0.0962
  232MOL0     N31235   8.128  11.646  10.432  0.4749 -0.3669 -0.2648
  232MOL0     N31236   8.015  11.706  10.459 -0.4666  0.0754 -0.0835
  232MOL0     C31237   7.001  11.126  10.275 -0.5232  0.1194  0.6556
  232MOL0     C31238   6.912  11.061  10.196  0.3259  0.6217  0.7884
  232MOL0     C31239   6.724  10.707   9.935  0.8305 -0.7241 -0.7895
  232MOL0     C31240   6.609  10.787   9.927 -0.8282 -0.2062 -0.3182
  232MOL0     C31241   6.502  10.745   9.853 -0.0578  0.2555  0.2225
  232MOL0     C31242   6.497  10.623   9.794 -0.0990  0.1339  0.2345
  232MOL0     O31243   6.377  10.587   9.733 -0.1313 -0.3108 -0.0563
  232MOL0     C31244   6.337  10.456   9.707 -0.6345 -0.5814 -0.2085
  232MOL0     C31245   6.344  10.360   9.830 -0.5211 -0.9510 -0.3113
  232MOL0     C31246   6.261  10.421   9.942  0.2365  0.5178 -1.0681
  232MOL0     C31247   6.187  10.326  10.045  0.4834 -0.2222  0.2758
  232MOL0     C31248   6.062  10.281   9.983  0.3810 -0.3228  0.2778
  232MOL0     C31249   5.962  10.250   9.922  0.0940 -0.0079  0.6404
  232MOL0     C31250   6.608  10.540   9.800 -0.2271 -0.0532  0.2880
  232MOL0     C31251   6.724  10.584   9.869 -0.7191 -0.4231 -0.8966
  232MOL0     C31252   6.833  10.484   9.887 -0.6501 -0.6691  0.1477
  232MOL0     H31253   6.970  10.734  10.261  0.0212 -0.1625  0.5536
  232MOL0     H31254   7.138  10.833  10.398 -2.0060 -2.4540 -0.6310
  232MOL0     H31255   7.248  11.245  10.347 -0.0619  0.3025  0.0357
  232MOL0     H31256   7.135  11.289  10.485 -0.3496 -1.0592  2.0783
  232MOL0     H31257   7.420  11.186  10.497 -1.7786 -2.3657 -0.8281
  232MOL0     H31258   7.311  11.168  10.625 -2.2334 -0.6729 -1.2170
  232MOL0     H31259   7.446  11.363  10.654 -1.4234 -3.3950 -0.0302
  232MOL0     H31260   7.279  11.424  10.642  0.6151  1.0598  0.3878
  232MOL0     H31261   7.503  11.412  10.427 -1.4211 -0.1378 -2.7076
  232MOL0     H31262   7.338  11.463  10.391 -1.2468  0.2582  0.6674
  232MOL0     H31263   7.365  11.646  10.549 -0.1660 -0.3870 -1.8810
  232MOL0     H31264   7.514  11.594  10.611  2.2136  2.4486 -0.9732
  232MOL0     H31265   7.485  11.685  10.322 -2.0844  0.4512  0.1111
  232MOL0     H31266   7.552  11.785  10.448  1.3573  0.1434 -1.1573
  232MOL0     H31267   7.718  11.662  10.296  1.7854 -1.7988  0.0810
  232MOL0     H31268   7.665  11.520  10.373 -0.7280  0.8706 -1.7660
  232MOL0     H31269   7.768  11.751  10.539 -0.5223 -0.0730  1.9803
  232MOL0     H31270   7.737  11.580  10.588 -1.2377  1.1592  0.0527
  232MOL0     H31271   7.931  11.393  10.429  0.8509 -0.9624 -1.8503
  232MOL0     H31272   8.250  11.363  10.476 -0.0417 -2.0272 -0.5166
  232MOL0     H31273   8.161  11.325  10.338  0.4896 -0.4636  0.0413
  232MOL0     H31274   8.358  11.379  10.235  0.8472 -2.6232  3.0737
  232MOL0     H31275   8.288  11.543  10.227 -1.2452 -1.0150 -1.4749
  232MOL0     H31276   8.512  11.422  10.427  0.4660  1.2392  0.4535
  232MOL0     H31277   8.415  11.565  10.473  2.4064  2.7415 -0.3991
  232MOL0     H31278   8.621  11.624  10.377  0.9789  1.0810 -1.4414
  232MOL0     H31279   8.471  11.685  10.288 -0.0424 -0.3182 -0.3697
  232MOL0     H31280   8.713  11.389  10.047 -1.9189  1.9054  1.2171
  232MOL0     H31281   8.948  11.395   9.982 -1.8806  1.2406 -2.7885
  232MOL0     H31282   9.392  11.548  10.154 -0.4330 -1.8026 -0.2416
  232MOL0     H31283   9.619  11.491  10.115 -0.7863 -1.9602  0.8022
  232MOL0     H31284   9.810  11.510   9.975  1.4863  0.1060 -1.9652
  232MOL0     H31285   9.803  11.339  10.052 -1.3916 -2.7312 -0.9780
  232MOL0     H31286   9.965  11.249   9.888  4.2988  0.5469  1.8633
  232MOL0     H31287   9.960  11.390   9.780  0.4085 -0.4550 -0.1054
  232MOL0     H31288  10.070  11.532   9.972  1.5694  0.0239  1.5463
  232MOL0     H31289  10.076  11.371  10.055  0.6653 -2.2284 -1.1502
  232MOL0     H31290  10.196  11.449   9.783 -2.4823 -0.6590 -0.4972
  232MOL0     H31291  10.208  11.287   9.840 -0.1577  0.0899 -1.6678
  232MOL0     H31292  10.320  11.340  10.046 -1.3727 -0.7179 -1.5474
  232MOL0     H31293  10.311  11.511  10.011  1.7146  0.5556  0.0949
  232MOL0     H31294  10.458  11.289   9.853 -1.4869 -0.2324 -0.0971
  232MOL0     H31295  10.478  11.469   9.815  1.4635  1.5051  1.0575
  232MOL0     H31296  10.573  11.304  10.055 -0.4430  0.5459  1.5449
  232MOL0     H31297  10.572  11.482  10.050 -3.4019  0.6712 -1.5283
  232MOL0     H31298  10.740  11.316   9.862  0.8958  1.4639 -2.2765
  232MOL0     H31299  10.730  11.488   9.866 -1.5653  0.6200 -0.4539
  232MOL0     H31300   9.519  11.326   9.735  4.7135  1.9323  0.0711
  232MOL0     H31301   9.288  11.365   9.776  0.4842 -2.7110  1.9395
  232MOL0     H31302   8.981  11.785  10.177  1.2139 -0.3305 -1.3872
  232MOL0     H31303   8.755  11.764  10.235  0.9694  1.4929  0.2845
  232MOL0     H31304   6.993  11.234  10.278  1.5981  0.3336  0.0151
  232MOL0     H31305   6.831  11.119  10.152 -0.6849 -1.1517  0.1926
  232MOL0     H31306   6.601  10.886   9.969  3.2475 -0.6292  2.0102
  232MOL0     H31307   6.411  10.804   9.845  0.5867  1.3663  0.8730
  232MOL0     H31308   6.407  10.429   9.627  1.0745  0.4339  0.8622
  232MOL0     H31309   6.233  10.463   9.674 -1.0483  0.4139  1.2026
  232MOL0     H31310   6.450  10.340   9.852 -0.6329  0.2473  1.5209
  232MOL0     H31311   6.285  10.272   9.804 -0.4108 -0.5063 -2.1984
  232MOL0     H31312   6.194  10.498   9.904 -0.4518 -1.1341 -3.4661
  232MOL0     H31313   6.339  10.472   9.999  1.0151  0.0250 -1.6832
  232MOL0     H31314   6.251  10.241  10.070  1.2890  0.5981  1.1124
  232MOL0     H31315   6.172  10.374  10.142  0.3354  1.6301 -0.6263
  232MOL0     H31316   5.878  10.217   9.865  0.5271  0.1550 -0.1093
  232MOL0     H31317   6.614  10.444   9.749 -1.0849 -0.5047  1.0149
  232MOL0     H31318   6.820  10.401   9.817  2.3023  0.6232 -2.2071
  232MOL0     H31319   6.932  10.527   9.865 -1.7015  1.0855 -1.4868
  232MOL0     H31320   6.843  10.454   9.991  1.3809  1.1748  0.5643
  233MOL0     O31321   5.841   3.840  10.000  0.2279  0.1488 -0.5027
  233MOL0     C31322   5.783   3.731   9.974  0.6709 -0.5289 -0.4805
  233MOL0     O31323   5.849   3.607   9.967  0.0703 -0.3516  0.8039
  233MOL0     C31324   5.978   3.593   9.993 -0.0696  0.0985  1.2593
  233MOL0     C31325   6.026   3.559  10.112 -0.1343 -0.0253 -0.2029
  233MOL0     C31326   6.164   3.537  10.131 -0.2451  0.9532  0.4594
  233MOL0     C31327   6.257   3.550  10.027 -0.7893 -1.1151 -0.0015
  233MOL0     O31328   6.395   3.538  10.068  0.2753 -0.4448  0.1921
  233MOL0     C31329   6.491   3.498   9.976  0.2028  0.5065 -0.8561
  233MOL0     C31330   6.594   3.606   9.931  1.0673 -0.1891 -0.0293
  233MOL0     C31331   6.725   3.562   9.869  0.2764  0.0323 -1.0580
  233MOL0     C31332   6.818   3.683   9.845  0.1433  0.6206 -0.5939
  233MOL0     C31333   6.968   3.646   9.849  0.7664 -0.9131 -0.6380
  233MOL0     C31334   7.066   3.762   9.808  0.3276  0.0973  0.0525
  233MOL0     C31335   7.207   3.705   9.822 -0.3429  0.5666 -0.1442
  233MOL0     C31336   7.301   3.814   9.758  0.0187 -0.4647 -1.0789
  233MOL0     N31337   7.438   3.768   9.753 -0.0983  0.3688 -0.4687
  233MOL0     C31338   7.522   3.703   9.843 -0.3307  0.0600 -0.1431
  233MOL0     C31339   7.621   3.632   9.777  0.2517 -1.3921 -0.2646
  233MOL0     C31340   7.725   3.537   9.825  0.1350 -0.8389 -0.4832
  233MOL0     C31341   7.840   3.616   9.890 -0.0442 -0.4388 -0.4595
  233MOL0     C31342   7.805   3.715  10.013  0.0033 -0.8246 -0.4658
  233MOL0     C31343   7.931   3.775  10.079  0.4729 -0.7895 -0.2646
  233MOL0     O31344   7.988   3.689  10.184 -0.2476 -0.0979  0.7077
  233MOL0     C31345   8.100   3.740  10.246 -0.3350  0.0381 -1.1418
  233MOL0     C31346   8.214   3.665  10.258  0.6060  0.5164 -0.5946
  233MOL0     C31347   8.325   3.712  10.334  1.0255 -0.0294 -0.3007
  233MOL0     C31348   8.319   3.836  10.394 -0.3950 -0.4539  0.0292
  233MOL0     C31349   8.428   3.888  10.474 -0.2626  0.2493  0.6437
  233MOL0     O31350   8.517   3.800  10.523 -0.2642  0.2444  0.6767
  233MOL0     C31351   8.638   3.830  10.579 -0.1861  0.7390 -1.1172
  233MOL0     C31352   8.701   3.712  10.612 -0.0318  0.5619 -0.2887
  233MOL0     C31353   8.838   3.711  10.659  1.2356  1.5177  0.5046
  233MOL0     C31354   8.903   3.828  10.675  0.3022  0.9880 -1.1935
  233MOL0     O31355   9.030   3.832  10.721 -0.1032  0.0650 -0.1537
  233MOL0     C31356   9.117   3.707  10.694  0.0686 -0.0184  0.0618
  233MOL0     C31357   9.264   3.730  10.739 -0.1698 -0.8271  1.0607
  233MOL0     C31358   9.283   3.884  10.768  0.4549  0.2591 -0.6158
  233MOL0     C31359   9.427   3.900  10.814 -0.0419  0.0679  0.2212
  233MOL0     C31360   9.532   3.909  10.705  0.4891  0.1065  0.1098
  233MOL0     C31361   9.657   3.964  10.775 -0.7866 -0.9264  0.5236
  233MOL0     C31362   9.791   3.965  10.692  0.1840 -0.3289 -0.4580
  233MOL0     C31363   9.915   4.039  10.760  0.5773  0.3694  0.3950
  233MOL0    Cl31364   9.939   3.989  10.926  0.3417 -0.3453  0.2951
  233MOL0     C31365   8.840   3.950  10.659  0.3140 -0.4748 -0.0375
  233MOL0     C31366   8.707   3.952  10.603 -0.0106  0.9242 -0.4131
  233MOL0     O31367   8.428   4.011  10.506 -0.4708 -0.5898  0.3105
  233MOL0     C31368   8.199   3.905  10.389 -0.0585  0.1369  0.2770
  233MOL0     C31369   8.094   3.858  10.316  0.2484  0.3689 -1.1359
  233MOL0     N31370   7.599   3.663   9.648 -0.0534  0.8714  0.5019
  233MOL0     N31371   7.502   3.745   9.635 -0.8922 -0.0605  0.1178
  233MOL0     C31372   6.212   3.589   9.900  0.5891  0.5771 -0.3271
  233MOL0     C31373   6.071   3.597   9.883  0.3272 -0.1231 -0.6812
  233MOL0     C31374   5.633   3.737   9.931  0.1539  0.0110  0.7905
  233MOL0     C31375   5.571   3.616   9.895 -0.4341  0.1861  0.9870
  233MOL0     C31376   5.433   3.610   9.858  0.8628 -0.2138 -0.9220
  233MOL0     C31377   5.353   3.730   9.866 -0.8461  0.6877  0.2371
  233MOL0     O31378   5.224   3.746   9.845  0.6726 -0.5974  0.4816
  233MOL0     C31379   5.138   3.649   9.776 -0.2005  0.7791  0.7623
  233MOL0     C31380   4.991   3.702   9.779 -0.8214 -0.2527 -0.8582
  233MOL0     C31381   4.963   3.844   9.740 -0.3371  0.7339 -0.5091
  233MOL0     C31382   4.833   3.908   9.790  0.5571 -0.1330 -0.3745
  233MOL0     C31383   4.725   3.808   9.798  0.4915  0.0829 -0.6641
  233MOL0     C31384   4.623   3.742   9.814  0.1926  0.2197  0.3052
  233MOL0     C31385   5.413   3.843   9.903  0.5113  1.0170 -1.0337
  233MOL0     C31386   5.551   3.854   9.936 -0.6301  0.4730 -0.1519
  233MOL0     C31387   5.605   3.991   9.960 -0.7365  0.3729 -0.7427
  233MOL0     H31388   5.958   3.553  10.196  0.4453 -1.2388  0.1941
  233MOL0     H31389   6.206   3.513  10.228  0.1637 -0.6259 -0.0784
  233MOL0     H31390   6.535   3.406  10.017 -0.3032  0.8139  0.3951
  233MOL0     H31391   6.446   3.460   9.884 -3.0249  1.3454  0.2744
  233MOL0     H31392   6.605   3.672  10.018 -2.1759  2.4571 -1.4137
  233MOL0     H31393   6.548   3.670   9.855  1.6818 -0.5903 -0.7481
  233MOL0     H31394   6.709   3.523   9.768 -0.3400  1.8704 -1.7287
  233MOL0     H31395   6.775   3.496   9.940  1.7588  2.2051  0.0706
  233MOL0     H31396   6.796   3.738   9.754  2.4707  1.2851 -0.8128
  233MOL0     H31397   6.805   3.751   9.930 -0.9905  0.1866 -0.3977
  233MOL0     H31398   6.995   3.614   9.950  2.0462  4.5780  1.0511
  233MOL0     H31399   6.990   3.572   9.771  1.0101 -0.0459 -1.4090
  233MOL0     H31400   7.040   3.794   9.707  0.0719  1.9286  0.6486
  233MOL0     H31401   7.045   3.851   9.868 -1.3986  1.6169 -2.5808
  233MOL0     H31402   7.231   3.612   9.769  2.7130  1.2015 -0.0401
  233MOL0     H31403   7.231   3.670   9.922 -1.6387  0.2071  0.0634
  233MOL0     H31404   7.264   3.839   9.658 -2.8863 -0.0559  0.0116
  233MOL0     H31405   7.293   3.903   9.821 -0.4048 -2.0432  1.1795
  233MOL0     H31406   7.505   3.702   9.950  1.3927  0.7563  0.1760
  233MOL0     H31407   7.681   3.462   9.892  0.4579 -2.4485 -2.0042
  233MOL0     H31408   7.775   3.488   9.741  0.5226  0.8042 -1.2511
  233MOL0     H31409   7.908   3.544   9.937 -0.6826  0.5529  2.1472
  233MOL0     H31410   7.880   3.673   9.806  0.4260  0.3180  0.2557
  233MOL0     H31411   7.752   3.665  10.094  1.5995  0.4749  1.4823
  233MOL0     H31412   7.744   3.801   9.983 -0.8122 -1.3366 -0.3074
  233MOL0     H31413   7.900   3.873  10.115 -2.2465 -1.3504 -0.8679
  233MOL0     H31414   8.000   3.793   9.996  0.4696  5.9035  0.6543
  233MOL0     H31415   8.223   3.567  10.212  1.3180  0.1189  0.3580
  233MOL0     H31416   8.419   3.660  10.353 -0.0214 -1.1404  2.2383
  233MOL0     H31417   8.643   3.620  10.619  0.5207  0.3164  2.4444
  233MOL0     H31418   8.880   3.615  10.686  1.1577  0.9575 -1.2597
  233MOL0     H31419   9.088   3.629  10.766 -1.0663 -0.0195 -0.3804
  233MOL0     H31420   9.111   3.676  10.589  1.9203  0.2814 -0.1656
  233MOL0     H31421   9.288   3.669  10.826 -2.6394  0.0999  2.4955
  233MOL0     H31422   9.324   3.696  10.654 -1.5567  0.5009 -0.5274
  233MOL0     H31423   9.266   3.944  10.678 -0.3575 -0.2198 -0.7872
  233MOL0     H31424   9.220   3.913  10.853  0.7002 -3.4749  1.0271
  233MOL0     H31425   9.462   3.830  10.890 -0.7518 -0.9175 -0.3292
  233MOL0     H31426   9.429   3.990  10.875 -2.2303 -0.6523  1.4792
  233MOL0     H31427   9.496   3.965  10.619  0.6261 -1.4880 -1.0355
  233MOL0     H31428   9.547   3.813  10.654 -0.5883  1.3780 -2.7854
  233MOL0     H31429   9.646   4.065  10.814 -0.2586 -0.1540 -1.2432
  233MOL0     H31430   9.672   3.895  10.859 -0.7366 -3.2191 -1.2558
  233MOL0     H31431   9.771   4.020  10.600 -0.3281  2.3517  1.1356
  233MOL0     H31432   9.810   3.863  10.657 -0.4008  0.4530 -3.2424
  233MOL0     H31433  10.011   4.018  10.713  0.0898 -3.6290  0.8514
  233MOL0     H31434   9.880   4.142  10.770 -1.3839 -0.2763  0.6402
  233MOL0     H31435   8.877   4.045  10.695  2.1658 -1.7064  1.5361
  233MOL0     H31436   8.656   4.047  10.589 -2.3727 -0.1867  0.0677
  233MOL0     H31437   8.191   4.000  10.441  2.5454  0.2069  0.7001
  233MOL0     H31438   8.007   3.922  10.317  0.9103  1.2913 -0.8729
  233MOL0     H31439   6.282   3.612   9.820  1.5236  0.1213  0.3359
  233MOL0     H31440   6.016   3.620   9.793 -1.7150  0.2671  0.5936
  233MOL0     H31441   5.633   3.527   9.903 -0.3495  0.0140 -1.1436
  233MOL0     H31442   5.387   3.518   9.822 -2.3393  0.7697  0.2889
  233MOL0     H31443   5.140   3.551   9.824 -1.9482 -0.8920 -2.2765
  233MOL0     H31444   5.176   3.632   9.675 -1.1316  2.0705  0.1568
  233MOL0     H31445   4.949   3.678   9.878 -1.0966  0.1186 -0.8826
  233MOL0     H31446   4.943   3.631   9.710  0.5805 -1.9745 -0.1482
  233MOL0     H31447   4.963   3.855   9.631 -2.1771  0.6822 -0.5534
  233MOL0     H31448   5.045   3.909   9.770 -0.8662  0.4551  1.7231
  233MOL0     H31449   4.848   3.933   9.895 -0.6644 -2.1056  0.3107
  233MOL0     H31450   4.802   3.999   9.736 -0.9396 -0.1723  0.3686
  233MOL0     H31451   4.538   3.682   9.788  0.5436  0.7953 -2.5709
  233MOL0     H31452   5.350   3.931   9.906  0.7034  1.2348 -2.4045
  233MOL0     H31453   5.532   4.073   9.953 -0.6198  0.3877 -2.0208
  233MOL0     H31454   5.635   3.995  10.065 -1.2857 -1.3079 -0.4939
  233MOL0     H31455   5.685   4.011   9.888 -1.5343 -1.5053 -2.2519
  234MOL0     O31456   8.009   1.291   7.863  0.1814 -0.3760  1.2538
  234MOL0     C31457   7.958   1.176   7.885 -0.0138 -0.2565 -0.8693
  234MOL0     O31458   8.025   1.064   7.921 -0.2690  0.8322  0.1196
  234MOL0     C31459   8.160   1.077   7.947  0.0046  0.3209  0.4741
  234MOL0     C31460   8.251   0.996   7.872  0.1507  0.0029  0.2740
  234MOL0     C31461   8.383   0.977   7.918 -0.5136 -0.5135  0.6842
  234MOL0     C31462   8.426   1.045   8.037 -0.2120  0.8349 -0.5009
  234MOL0     O31463   8.553   1.028   8.096  0.2122  0.2992  0.3732
  234MOL0     C31464   8.650   0.941   8.038  0.0205  0.1604 -0.7124
  234MOL0     C31465   8.773   0.953   8.116 -0.3239  0.2014 -0.2356
  234MOL0     C31466   8.836   1.101   8.118  0.0009 -0.6337 -0.0115
  234MOL0     C31467   8.970   1.114   8.191 -0.6948 -0.3607  0.7716
  234MOL0     C31468   9.084   1.037   8.123 -0.1768  0.0235 -0.4436
  234MOL0     C31469   9.210   1.102   8.182 -0.0770 -0.8565 -0.1567
  234MOL0     C31470   9.334   1.028   8.165  0.9176 -0.1135 -0.0566
  234MOL0     C31471   9.458   1.114   8.192  0.6487 -0.0119  0.5035
  234MOL0     N31472   9.586   1.050   8.167 -0.6746 -0.3918 -0.0098
  234MOL0     C31473   9.605   0.974   8.054  0.1359 -0.1233  0.4537
  234MOL0     C31474   9.720   0.910   8.074  0.1913 -0.3467 -0.4261
  234MOL0     C31475   9.792   0.827   7.973  0.3349  0.8115  0.4515
  234MOL0     C31476   9.941   0.877   7.954 -0.2440 -0.2155 -0.0338
  234MOL0     C31477  10.035   0.832   8.071  0.2292 -0.3353  0.1165
  234MOL0     C31478  10.184   0.862   8.044  0.2995 -0.2534  0.0814
  234MOL0     O31479  10.265   0.842   8.153 -0.0728 -0.0978 -0.2198
  234MOL0     C31480  10.397   0.849   8.143 -0.3522 -0.1270 -1.3210
  234MOL0     C31481  10.466   0.853   8.272  0.2355 -0.5911  0.0247
  234MOL0     C31482  10.607   0.854   8.277  0.4920  0.3008 -1.1822
  234MOL0     C31483  10.680   0.866   8.162  0.6091 -0.1744  0.1018
  234MOL0     C31484  10.825   0.849   8.152  0.4413 -0.6773  0.1246
  234MOL0     O31485  10.890   0.878   8.268  0.1084  0.4165  0.0078
  234MOL0     C31486  11.026   0.846   8.273 -0.4095  0.4773  0.7504
  234MOL0     C31487  11.120   0.945   8.292 -0.4035  0.2185 -0.5574
  234MOL0     C31488  11.256   0.908   8.304  0.3046 -0.6575 -0.9964
  234MOL0     C31489  11.304   0.777   8.286  0.9439 -0.2074 -0.8392
  234MOL0     O31490  11.434   0.743   8.268 -0.5814 -0.0721  0.4220
  234MOL0     C31491  11.542   0.837   8.278  0.3658  0.6528 -0.4265
  234MOL0     C31492  11.676   0.774   8.333  0.6517  0.1987  0.1532
  234MOL0     C31493  11.731   0.698   8.212 -0.1342  0.1772  0.3123
  234MOL0     C31494  11.844   0.604   8.252 -0.2157 -0.1648  0.9431
  234MOL0     C31495  11.913   0.536   8.129 -0.5231 -0.8172 -0.3171
  234MOL0     C31496  11.825   0.431   8.064 -0.3580 -0.3743 -0.3335
  234MOL0     C31497  11.906   0.375   7.950 -0.4653  0.0546  0.1068
  234MOL0     C31498  11.823   0.277   7.867 -0.4042 -0.2515  0.4800
  234MOL0    Cl31499  11.707   0.360   7.757 -0.1781 -0.0648 -0.2312
  234MOL0     C31500  11.203   0.679   8.275 -0.7123  0.4201 -0.0867
  234MOL0     C31501  11.071   0.715   8.269  0.7261 -0.1358  0.3417
  234MOL0     O31502  10.877   0.825   8.047 -0.0322 -0.1346  0.0951
  234MOL0     C31503  10.611   0.870   8.036  0.3996 -0.2692  0.4050
  234MOL0     C31504  10.475   0.844   8.024  0.5483 -0.0724  0.2984
  234MOL0     N31505   9.763   0.948   8.199  0.0126  0.4738 -0.2005
  234MOL0     N31506   9.679   1.024   8.256 -0.6709  0.0388 -0.1602
  234MOL0     C31507   8.331   1.123   8.109 -0.1366  0.1374 -0.2929
  234MOL0     C31508   8.202   1.140   8.068  0.3043  0.4225  0.5068
  234MOL0     C31509   7.810   1.167   7.879 -0.8580  0.1549  0.2139
  234MOL0     C31510   7.736   1.271   7.934  0.6088 -0.3203 -0.0541
  234MOL0     C31511   7.600   1.274   7.909  0.7071  0.0437  0.1139
  234MOL0     C31512   7.527   1.170   7.853  0.1822  0.3320 -0.2606
  234MOL0     O31513   7.388   1.175   7.832 -0.1447  0.1039 -0.2651
  234MOL0     C31514   7.313   1.285   7.887  0.4416 -0.0552  0.4119
  234MOL0     C31515   7.161   1.277   7.865 -0.4719  0.4472 -0.4824
  234MOL0     C31516   7.125   1.237   7.720  0.6225 -0.5641 -0.5748
  234MOL0     C31517   6.976   1.268   7.695 -0.4132 -0.8432 -0.7175
  234MOL0     C31518   6.946   1.413   7.689 -0.4636  0.4691  0.0385
  234MOL0     C31519   6.907   1.526   7.694  0.3433  0.3762  0.2668
  234MOL0     C31520   7.601   1.061   7.811  0.0799  0.7181  0.1505
  234MOL0     C31521   7.741   1.055   7.824  1.2045 -0.5555  0.0780
  234MOL0     C31522   7.807   0.941   7.767 -0.1535 -0.5411 -0.4885
  234MOL0     H31523   8.225   0.940   7.782  2.0434  1.1389 -1.0660
  234MOL0     H31524   8.448   0.914   7.858 -0.7715 -1.8784  1.7906
  234MOL0     H31525   8.605   0.841   8.034 -2.5417  1.1844  0.1953
  234MOL0     H31526   8.670   0.966   7.934 -2.8555  0.9216 -1.1678
  234MOL0     H31527   8.850   0.887   8.075 -1.0122  0.9286 -2.8521
  234MOL0     H31528   8.746   0.931   8.220  0.0990  1.6829  0.2086
  234MOL0     H31529   8.765   1.170   8.164  2.1622  0.8223  1.3186
  234MOL0     H31530   8.851   1.138   8.016  3.3785  2.4429  1.3809
  234MOL0     H31531   8.978   1.223   8.186  1.6141 -0.5381 -0.5813
  234MOL0     H31532   8.965   1.085   8.296  2.8234 -4.3408  0.0792
  234MOL0     H31533   9.066   0.932   8.148 -0.3907  0.5345  1.7505
  234MOL0     H31534   9.085   1.056   8.016 -0.4648  1.1022 -0.2686
  234MOL0     H31535   9.223   1.205   8.148 -3.3319  0.3872  1.8774
  234MOL0     H31536   9.198   1.124   8.289 -2.9346  1.1254 -0.7731
  234MOL0     H31537   9.335   0.992   8.062  2.4521  0.6883 -0.3543
  234MOL0     H31538   9.332   0.936   8.223 -0.0336 -0.7380 -1.0333
  234MOL0     H31539   9.448   1.211   8.143  1.9301  0.5701  1.3229
  234MOL0     H31540   9.461   1.140   8.299  2.4484 -0.8701  0.7082
  234MOL0     H31541   9.561   0.972   7.955  2.2486  0.5040 -0.5514
  234MOL0     H31542   9.798   0.721   7.998 -1.7593  0.2977 -0.9885
  234MOL0     H31543   9.739   0.834   7.878  0.8055  2.0655  0.2631
  234MOL0     H31544   9.971   0.836   7.857 -2.0785 -0.6030 -0.4788
  234MOL0     H31545   9.932   0.985   7.940 -2.0307 -0.5342 -1.7903
  234MOL0     H31546  10.018   0.727   8.094 -2.2975 -0.3403 -1.3999
  234MOL0     H31547  10.001   0.886   8.160 -3.2635 -1.6630 -0.2526
  234MOL0     H31548  10.184   0.967   8.014 -0.4661  0.1381  1.3509
  234MOL0     H31549  10.224   0.793   7.969 -0.8689  1.5115 -2.3148
  234MOL0     H31550  10.405   0.854   8.362 -0.3323 -2.6251 -0.2889
  234MOL0     H31551  10.653   0.852   8.375 -0.2974  0.7613 -0.7929
  234MOL0     H31552  11.091   1.049   8.302 -1.7705 -0.3622  3.5920
  234MOL0     H31553  11.334   0.983   8.301 -0.2447 -0.0189  0.2172
  234MOL0     H31554  11.545   0.899   8.188  1.3411  1.8103  0.3817
  234MOL0     H31555  11.509   0.895   8.364  3.3868  0.0333  1.2532
  234MOL0     H31556  11.750   0.844   8.372 -0.3748  3.3186 -2.8966
  234MOL0     H31557  11.645   0.707   8.414  2.1128  0.5655  1.0437
  234MOL0     H31558  11.647   0.640   8.171  0.0261  0.3067 -0.2086
  234MOL0     H31559  11.760   0.771   8.136 -2.8384  0.2542 -0.7602
  234MOL0     H31560  11.800   0.527   8.316  0.4336 -2.3798 -1.1415
  234MOL0     H31561  11.927   0.661   8.296  1.0076  0.2746 -1.7103
  234MOL0     H31562  12.008   0.501   8.171 -0.4423 -1.2620 -0.8721
  234MOL0     H31563  11.932   0.615   8.056 -2.0758 -1.5557 -1.5910
  234MOL0     H31564  11.790   0.357   8.137 -2.5036  1.5492  0.7394
  234MOL0     H31565  11.740   0.483   8.019  0.0114 -0.2723 -0.9183
  234MOL0     H31566  11.996   0.323   7.986  3.1646  2.5366 -4.2729
  234MOL0     H31567  11.935   0.446   7.872  1.1106 -1.4237 -0.7209
  234MOL0     H31568  11.887   0.210   7.809 -0.8111 -0.1770 -0.0597
  234MOL0     H31569  11.773   0.221   7.946  2.1170 -0.9933  1.6671
  234MOL0     H31570  11.243   0.578   8.264  0.7889  1.0718 -0.8728
  234MOL0     H31571  11.001   0.636   8.243  1.1429 -0.0282 -1.2091
  234MOL0     H31572  10.656   0.884   7.937  1.7491 -3.6566  0.4285
  234MOL0     H31573  10.431   0.820   7.927  2.2686  1.2625 -0.8887
  234MOL0     H31574   8.372   1.174   8.196 -0.4861 -1.4419  0.8537
  234MOL0     H31575   8.124   1.196   8.118  0.0226  1.5939 -1.1539
  234MOL0     H31576   7.772   1.349   8.001  1.0142 -0.7897  0.2827
  234MOL0     H31577   7.557   1.366   7.948 -2.7968 -1.7940  1.0211
  234MOL0     H31578   7.353   1.371   7.832  3.6417 -0.3515  2.0504
  234MOL0     H31579   7.343   1.299   7.992  2.4508  1.9087 -0.3420
  234MOL0     H31580   7.108   1.356   7.919 -0.0337 -0.6204  1.6006
  234MOL0     H31581   7.130   1.187   7.919 -1.1485  1.1831  0.4003
  234MOL0     H31582   7.163   1.135   7.708  3.2795  0.4697 -1.7892
  234MOL0     H31583   7.178   1.297   7.644 -0.5680  2.2765  0.6919
  234MOL0     H31584   6.943   1.219   7.602 -0.7740  0.5850 -1.3676
  234MOL0     H31585   6.921   1.225   7.780  0.3951 -1.0121 -0.2736
  234MOL0     H31586   6.866   1.624   7.707  1.5262  0.6165  2.6736
  234MOL0     H31587   7.549   0.983   7.755  0.9315  0.3639 -0.1661
  234MOL0     H31588   7.816   0.858   7.838 -0.6216  0.4558  0.7657
  234MOL0     H31589   7.753   0.901   7.681  1.1357 -1.0764 -1.0879
  234MOL0     H31590   7.906   0.975   7.736 -0.3896  2.0229  1.2946
  235MOL0     O31591   4.150   5.965  11.042 -0.9195 -0.6160  0.4830
  235MOL0     C31592   4.134   6.070  10.976  0.5455  1.0366  0.1121
  235MOL0     O31593   4.230   6.159  10.954  0.0347 -0.9181 -0.0949
  235MOL0     C31594   4.359   6.138  11.002 -0.2360 -0.8982 -0.4586
  235MOL0     C31595   4.411   6.212  11.102 -0.5938 -0.6390 -0.1067
  235MOL0     C31596   4.539   6.201  11.150 -0.5377  0.3655 -0.6540
  235MOL0     C31597   4.619   6.100  11.085 -0.1348 -0.1831 -0.4714
  235MOL0     O31598   4.745   6.065  11.127  0.2848  0.4226 -0.0168
  235MOL0     C31599   4.803   6.125  11.245  0.7704 -0.3730 -0.3643
  235MOL0     C31600   4.941   6.072  11.261 -0.4920  0.0947 -0.0163
  235MOL0     C31601   5.021   6.050  11.137 -0.7802 -0.1685  0.2127
  235MOL0     C31602   5.145   5.970  11.156  0.0827 -0.4662  0.4321
  235MOL0     C31603   5.233   5.958  11.028  0.2161  0.0386 -0.2818
  235MOL0     C31604   5.318   6.086  11.009 -0.0404 -0.2682 -0.3551
  235MOL0     C31605   5.396   6.087  10.877  0.2781  0.1796  0.3285
  235MOL0     C31606   5.534   6.027  10.893  0.9905 -0.7570  0.0187
  235MOL0     N31607   5.617   6.091  10.994 -0.1709 -0.1127 -0.2342
  235MOL0     C31608   5.633   6.225  11.012  0.2467 -0.1357  0.0769
  235MOL0     C31609   5.752   6.240  11.080  0.1632  0.5585 -0.0266
  235MOL0     C31610   5.828   6.358  11.121  0.8484  0.1059  0.3793
  235MOL0     C31611   5.862   6.443  10.996  0.5128  0.3270 -0.4986
  235MOL0     C31612   5.905   6.579  11.035  0.0707  1.2835  0.5919
  235MOL0     C31613   6.035   6.582  11.100  0.2593  0.6041 -0.4121
  235MOL0     O31614   6.100   6.708  11.075 -0.5319  0.3252  0.8905
  235MOL0     C31615   6.240   6.718  11.095  0.0167  0.4706  0.2374
  235MOL0     C31616   6.301   6.833  11.037  0.2043  0.6303  0.4838
  235MOL0     C31617   6.442   6.849  11.037  0.4610 -0.2812 -1.1393
  235MOL0     C31618   6.522   6.755  11.111  0.6557 -0.8021  1.1921
  235MOL0     C31619   6.665   6.780  11.122  0.1659 -0.6391  0.7507
  235MOL0     O31620   6.737   6.677  11.181  0.0245  0.8606  0.1004
  235MOL0     C31621   6.871   6.689  11.173 -0.2411  0.3549  0.9551
  235MOL0     C31622   6.944   6.609  11.080  0.2599 -0.0544  0.1832
  235MOL0     C31623   7.093   6.611  11.077  0.2573 -0.9012 -0.3143
  235MOL0     C31624   7.162   6.702  11.159 -0.4307  0.1666 -0.4397
  235MOL0     O31625   7.301   6.690  11.156  0.2746  0.5005  0.2394
  235MOL0     C31626   7.378   6.794  11.221  0.0437  0.6159  0.1765
  235MOL0     C31627   7.525   6.752  11.172  1.1579  0.6064 -0.0182
  235MOL0     C31628   7.612   6.872  11.203  0.1526 -0.4753  0.4245
  235MOL0     C31629   7.742   6.866  11.125 -0.7497 -0.3414 -0.4567
  235MOL0     C31630   7.823   7.002  11.153  0.4438 -0.4095 -1.2346
  235MOL0     C31631   7.903   6.982  11.292 -0.0331  0.7409 -0.4470
  235MOL0     C31632   7.998   7.090  11.332  0.6156  0.7621  0.3159
  235MOL0     C31633   7.931   7.203  11.399  0.9460  0.8152 -0.1631
  235MOL0    Cl31634   8.048   7.342  11.408 -0.2456  0.0112  0.1633
  235MOL0     C31635   7.084   6.792  11.234 -0.0353  0.4065 -0.3320
  235MOL0     C31636   6.940   6.787  11.244  0.0959  0.1439  0.5159
  235MOL0     O31637   6.706   6.892  11.083 -0.1673  0.2081 -0.0421
  235MOL0     C31638   6.458   6.647  11.167  0.9353  0.8168 -0.5275
  235MOL0     C31639   6.320   6.619  11.161 -0.8369  0.8912  0.5119
  235MOL0     N31640   5.813   6.115  11.107 -0.1020  0.3430 -0.2917
  235MOL0     N31641   5.725   6.039  11.046  0.4913  0.0418  0.2754
  235MOL0     C31642   4.567   6.015  10.991 -0.1383 -0.6345  0.1620
  235MOL0     C31643   4.432   6.040  10.949 -0.5183 -0.0319 -0.1234
  235MOL0     C31644   4.005   6.090  10.906  0.0190  0.7830  0.5507
  235MOL0     C31645   3.978   6.213  10.842 -0.1728  0.5027 -0.6170
  235MOL0     C31646   3.856   6.257  10.792 -0.2961  0.3349  0.2156
  235MOL0     C31647   3.756   6.164  10.769  0.4233  0.4397  0.6671
  235MOL0     O31648   3.630   6.212  10.721 -1.3225  0.2427  0.0441
  235MOL0     C31649   3.520   6.184  10.806 -0.2683  0.5054 -0.5676
  235MOL0     C31650   3.409   6.293  10.786 -0.6814  0.1455  0.0148
  235MOL0     C31651   3.408   6.339  10.638 -0.4276 -0.0227  0.8043
  235MOL0     C31652   3.305   6.449  10.597 -0.0614  0.0428 -0.1522
  235MOL0     C31653   3.335   6.501  10.461  0.4094  0.0143 -0.2101
  235MOL0     C31654   3.343   6.550  10.351 -0.6604  0.7315  0.0439
  235MOL0     C31655   3.782   6.038  10.824  0.6658  0.9676  0.1219
  235MOL0     C31656   3.897   5.992  10.889 -1.3150 -0.4825  0.1863
  235MOL0     C31657   3.908   5.851  10.924  0.2304  0.1015  0.5444
  235MOL0     H31658   4.355   6.292  11.150 -0.5194  0.3467 -1.5675
  235MOL0     H31659   4.587   6.265  11.223 -1.1046 -0.7478  0.7465
  235MOL0     H31660   4.813   6.234  11.238 -0.5745 -0.1571  0.6354
  235MOL0     H31661   4.742   6.108  11.334  0.4741  0.9196 -0.2957
  235MOL0     H31662   4.941   5.986  11.327  1.5116  0.7904  0.9854
  235MOL0     H31663   4.994   6.150  11.317  0.6224 -0.7297  0.1185
  235MOL0     H31664   5.047   6.145  11.090  0.9891 -1.7723 -2.2786
  235MOL0     H31665   4.960   5.999  11.063  1.6018 -0.4745 -1.6564
  235MOL0     H31666   5.205   6.010  11.238 -1.0917 -2.6271  2.4493
  235MOL0     H31667   5.118   5.873  11.197 -1.0670  0.3198  1.5755
  235MOL0     H31668   5.298   5.872  11.046 -2.7967 -2.1486  1.1201
  235MOL0     H31669   5.162   5.938  10.947 -3.4937 -2.4080  3.1587
  235MOL0     H31670   5.251   6.171  10.996  0.7584  0.2379 -1.3025
  235MOL0     H31671   5.384   6.100  11.095 -0.3987  2.8195 -0.4721
  235MOL0     H31672   5.390   6.188  10.837 -1.1659  1.1422  2.7588
  235MOL0     H31673   5.340   6.024  10.807 -3.1039  5.0095 -1.8215
  235MOL0     H31674   5.522   5.923  10.923 -0.1248 -0.1929  1.6239
  235MOL0     H31675   5.579   6.022  10.793  1.8993 -2.3294  0.4695
  235MOL0     H31676   5.564   6.304  10.984 -1.2872 -1.9548 -1.5601
  235MOL0     H31677   5.755   6.411  11.183 -0.9154 -0.6531 -0.9655
  235MOL0     H31678   5.918   6.332  11.178  0.0417  1.3715  2.3460
  235MOL0     H31679   5.926   6.387  10.927 -3.5110 -0.0953 -4.3465
  235MOL0     H31680   5.771   6.461  10.938  1.0434  0.1833 -1.3938
  235MOL0     H31681   5.831   6.625  11.102 -0.4909  2.7527 -0.9735
  235MOL0     H31682   5.902   6.628  10.937  0.9829  0.0575 -0.0609
  235MOL0     H31683   6.093   6.502  11.053 -2.4674 -2.3527  0.8632
  235MOL0     H31684   6.040   6.561  11.207 -0.7271  1.3105 -0.2109
  235MOL0     H31685   6.241   6.910  10.990 -0.5959  0.8854  1.8902
  235MOL0     H31686   6.478   6.941  10.992 -1.0135  0.9348  0.0424
  235MOL0     H31687   6.904   6.541  11.005  1.1142 -0.3454 -0.0200
  235MOL0     H31688   7.152   6.550  11.010  1.3992  2.2266 -2.4084
  235MOL0     H31689   7.353   6.897  11.193  2.0511  0.9065 -0.6554
  235MOL0     H31690   7.359   6.787  11.329 -0.2197 -2.8518  0.0060
  235MOL0     H31691   7.565   6.669  11.231 -0.9901 -1.1890 -0.9589
  235MOL0     H31692   7.518   6.723  11.067 -3.4892  2.5056 -0.5043
  235MOL0     H31693   7.566   6.970  11.186  0.5469 -0.6167 -1.7189
  235MOL0     H31694   7.639   6.855  11.308  1.3489  1.3458  0.4599
  235MOL0     H31695   7.710   6.867  11.021 -1.2901  3.8610 -0.4362
  235MOL0     H31696   7.805   6.780  11.150  2.1785  1.4875 -1.1391
  235MOL0     H31697   7.762   7.092  11.157 -0.0224 -0.7697  0.3486
  235MOL0     H31698   7.895   7.026  11.074  1.4161  3.9898  0.6978
  235MOL0     H31699   7.838   6.963  11.378  2.5461 -1.4193  1.1713
  235MOL0     H31700   7.959   6.890  11.270  1.8362  1.3821  1.3325
  235MOL0     H31701   8.048   7.123  11.240  3.9660 -3.3702  0.2926
  235MOL0     H31702   8.078   7.050  11.396  0.7103  2.3942  1.2612
  235MOL0     H31703   7.842   7.245  11.351  0.2114 -1.6729 -1.1755
  235MOL0     H31704   7.894   7.178  11.499  0.4519 -3.3925 -1.1708
  235MOL0     H31705   7.123   6.871  11.298  0.7253  0.5902 -1.0002
  235MOL0     H31706   6.888   6.865  11.299 -0.0867  1.9766 -2.0695
  235MOL0     H31707   6.513   6.574  11.226 -0.9906  1.9806  3.0236
  235MOL0     H31708   6.291   6.525  11.205  0.1257 -0.5672 -1.7776
  235MOL0     H31709   4.632   5.954  10.930 -1.2069  1.8542 -3.8397
  235MOL0     H31710   4.385   5.965  10.886  1.2310 -2.8531  1.7125
  235MOL0     H31711   4.056   6.289  10.838 -1.1351  1.4430 -2.7909
  235MOL0     H31712   3.856   6.363  10.770  0.4347  0.2811 -0.0729
  235MOL0     H31713   3.541   6.191  10.913  0.3598  2.0593 -0.7723
  235MOL0     H31714   3.466   6.093  10.777  1.5798 -0.8414  0.0195
  235MOL0     H31715   3.428   6.376  10.855  1.7325  0.1276 -0.5555
  235MOL0     H31716   3.314   6.242  10.806 -0.4233 -2.2557 -3.8458
  235MOL0     H31717   3.398   6.248  10.578  1.9610 -0.0735  0.4006
  235MOL0     H31718   3.502   6.377  10.599 -1.4674  0.5622 -1.2696
  235MOL0     H31719   3.202   6.411  10.602 -0.2632  0.6928  1.0433
  235MOL0     H31720   3.310   6.539  10.660  1.6479 -0.4138  0.4276
  235MOL0     H31721   3.349   6.570  10.246  1.1477 -3.5907 -0.9148
  235MOL0     H31722   3.702   5.966  10.805  1.5262  0.2510 -0.9170
  235MOL0     H31723   3.929   5.841  11.031 -4.2738 -1.4674  1.4806
  235MOL0     H31724   3.819   5.795  10.896  2.3185 -2.1679 -2.1471
  235MOL0     H31725   3.988   5.800  10.870  0.3822  0.3056  0.5763
  236MOL0     O31726   5.781   5.841   7.738  0.0223  0.4139 -0.3090
  236MOL0     C31727   5.785   5.752   7.819  0.0091  0.2574  0.4401
  236MOL0     O31728   5.896   5.703   7.874 -0.2401  0.4443  0.1805
  236MOL0     C31729   6.013   5.777   7.853  0.4404  1.2440 -1.0626
  236MOL0     C31730   6.035   5.906   7.895  0.8461  0.0255 -0.2063
  236MOL0     C31731   6.156   5.966   7.858  0.0048 -0.2863  0.0024
  236MOL0     C31732   6.257   5.902   7.782 -0.0932 -0.7164 -0.9599
  236MOL0     O31733   6.365   5.961   7.733 -0.6279 -0.1671  0.6452
  236MOL0     C31734   6.398   6.097   7.766  0.2533 -0.7985  0.0668
  236MOL0     C31735   6.536   6.143   7.717 -0.0662 -0.4774  0.3982
  236MOL0     C31736   6.642   6.114   7.826  0.9985 -0.5405 -0.5205
  236MOL0     C31737   6.772   6.172   7.778  0.1665  0.2220 -0.8481
  236MOL0     C31738   6.891   6.167   7.868 -0.8098  0.0083 -0.1430
  236MOL0     C31739   6.997   6.264   7.812 -0.5065 -0.0383  0.5010
  236MOL0     C31740   7.131   6.251   7.880 -0.1131 -0.2151  0.3264
  236MOL0     C31741   7.196   6.108   7.870  0.0606  0.2758  0.3355
  236MOL0     N31742   7.226   6.068   7.727 -0.2084 -0.0620  0.3545
  236MOL0     C31743   7.352   6.079   7.676 -0.0424  0.4008  0.2177
  236MOL0     C31744   7.338   6.028   7.552 -0.0271  0.1052 -0.4679
  236MOL0     C31745   7.434   6.023   7.437 -0.2645 -0.3757  0.1194
  236MOL0     C31746   7.550   6.117   7.441 -1.3097  0.3760  0.4220
  236MOL0     C31747   7.670   6.085   7.532  0.2756  0.4331  0.6498
  236MOL0     C31748   7.759   5.988   7.442  0.4755  0.1727 -0.5309
  236MOL0     O31749   7.850   6.062   7.368  0.1411  0.4298  0.6382
  236MOL0     C31750   7.974   6.082   7.427  0.2466  1.2491 -0.1478
  236MOL0     C31751   7.991   6.080   7.568  0.1776  0.3210  0.5223
  236MOL0     C31752   8.119   6.115   7.622  0.3740 -1.0326 -0.3679
  236MOL0     C31753   8.224   6.159   7.531  0.4070 -0.0443 -0.5034
  236MOL0     C31754   8.358   6.199   7.576 -0.9338  0.3156 -0.2586
  236MOL0     O31755   8.450   6.225   7.478 -0.2796 -0.6478  0.4808
  236MOL0     C31756   8.583   6.221   7.502  0.4266  0.0927  0.0563
  236MOL0     C31757   8.666   6.150   7.406  1.3125 -0.5813 -1.1625
  236MOL0     C31758   8.806   6.168   7.409  0.3015 -0.2635  0.4794
  236MOL0     C31759   8.862   6.259   7.502 -0.8585 -0.0752 -0.2888
  236MOL0     O31760   8.999   6.262   7.508  0.8569  0.0719  0.8451
  236MOL0     C31761   9.054   6.292   7.632 -0.0556  0.0762  0.0916
  236MOL0     C31762   9.204   6.291   7.630  0.3836  0.4202  0.2140
  236MOL0     C31763   9.283   6.337   7.748  0.3257 -0.8833 -0.4803
  236MOL0     C31764   9.426   6.378   7.716  0.2735  0.3046 -0.4125
  236MOL0     C31765   9.486   6.465   7.829  0.3967 -0.1366 -0.1038
  236MOL0     C31766   9.604   6.547   7.764  0.0133 -0.0600 -0.0592
  236MOL0     C31767   9.676   6.622   7.875  0.4917  1.0174  0.1519
  236MOL0     C31768   9.819   6.670   7.821  0.2405  0.6456 -0.1302
  236MOL0    Cl31769   9.806   6.797   7.690  0.1189  0.0407  0.0025
  236MOL0     C31770   8.771   6.313   7.598 -0.2816  0.4762 -1.0529
  236MOL0     C31771   8.631   6.292   7.605 -0.2411 -0.0317 -0.5231
  236MOL0     O31772   8.379   6.190   7.699 -0.8288 -0.1751 -0.2144
  236MOL0     C31773   8.197   6.164   7.395  0.1653 -0.2834  0.2205
  236MOL0     C31774   8.069   6.130   7.347  0.1325 -0.2738 -0.2865
  236MOL0     N31775   7.205   5.975   7.536 -0.4216 -0.2508  1.1931
  236MOL0     N31776   7.143   5.994   7.653  0.2232 -0.1802 -0.0803
  236MOL0     C31777   6.238   5.773   7.750 -0.2556  0.7997  0.2986
  236MOL0     C31778   6.114   5.714   7.781  0.6486  0.5139 -0.8514
  236MOL0     C31779   5.654   5.683   7.847  0.4890  0.5675  0.2709
  236MOL0     C31780   5.658   5.575   7.938  0.1936 -0.3142 -0.0123
  236MOL0     C31781   5.547   5.496   7.967  0.7877 -1.0095 -0.2228
  236MOL0     C31782   5.416   5.535   7.922 -0.6081 -0.0401  0.2166
  236MOL0     O31783   5.310   5.458   7.970 -0.3607  0.0360  0.4119
  236MOL0     C31784   5.193   5.453   7.886  0.1974  0.7099  0.0212
  236MOL0     C31785   5.114   5.323   7.893 -0.1680  0.3767 -0.0212
  236MOL0     C31786   5.028   5.305   8.026 -0.7460  0.1354  0.1119
  236MOL0     C31787   4.922   5.199   8.013  1.2410 -0.2607 -0.0204
  236MOL0     C31788   4.871   5.157   8.146 -0.1880  0.0535 -0.0336
  236MOL0     C31789   4.840   5.108   8.249  0.4521  0.6790  0.0372
  236MOL0     C31790   5.413   5.645   7.835 -0.5039 -0.0540  0.5317
  236MOL0     C31791   5.522   5.715   7.791 -1.0242  0.4343  0.0384
  236MOL0     C31792   5.502   5.819   7.687 -1.1305 -0.5844 -0.2111
  236MOL0     H31793   5.955   5.946   7.956  1.4757  1.1475 -0.0857
  236MOL0     H31794   6.160   6.071   7.887 -2.0610  0.3482 -1.7321
  236MOL0     H31795   6.321   6.157   7.716  0.7557 -0.3756 -0.2001
  236MOL0     H31796   6.399   6.117   7.874 -1.2348  1.1658 -0.2273
  236MOL0     H31797   6.531   6.249   7.688 -3.6473 -0.9045 -1.1996
  236MOL0     H31798   6.564   6.090   7.626 -1.4269 -0.9173  0.2126
  236MOL0     H31799   6.654   6.005   7.831 -1.8241 -0.9099 -0.2816
  236MOL0     H31800   6.612   6.161   7.920  1.0205  0.5166 -1.0319
  236MOL0     H31801   6.810   6.123   7.688 -1.6042  2.3172 -2.8528
  236MOL0     H31802   6.747   6.275   7.753  2.1329  1.3056  1.3680
  236MOL0     H31803   6.853   6.190   7.968 -0.8689 -0.7800  0.0230
  236MOL0     H31804   6.927   6.064   7.863  0.1247  0.1684  1.9595
  236MOL0     H31805   7.003   6.233   7.708 -3.2865 -0.5843  0.4271
  236MOL0     H31806   6.963   6.368   7.823 -1.4823 -0.3438  0.5201
  236MOL0     H31807   7.115   6.275   7.985 -1.0319  0.4560  0.0430
  236MOL0     H31808   7.197   6.327   7.836 -0.7790  3.0757  4.4053
  236MOL0     H31809   7.296   6.105   7.915  0.8706  0.4153 -1.3673
  236MOL0     H31810   7.132   6.039   7.925 -1.5226  0.1758 -1.5252
  236MOL0     H31811   7.436   6.136   7.713  0.3706 -0.3648  0.4819
  236MOL0     H31812   7.472   5.920   7.435 -0.2737 -0.3890  0.4587
  236MOL0     H31813   7.374   6.035   7.347  2.2047  1.9066 -1.3489
  236MOL0     H31814   7.590   6.114   7.340  1.6584 -3.1552  1.5076
  236MOL0     H31815   7.515   6.218   7.465  0.9313  0.9303  1.6415
  236MOL0     H31816   7.631   6.041   7.624  1.9312  3.0463  2.7479
  236MOL0     H31817   7.735   6.171   7.552  1.0264  0.2818 -0.9352
  236MOL0     H31818   7.701   5.923   7.376  0.6007 -1.4583  0.8881
  236MOL0     H31819   7.808   5.913   7.506 -2.8236 -1.7646 -0.0277
  236MOL0     H31820   7.909   6.056   7.635 -1.8883 -0.3735 -2.0931
  236MOL0     H31821   8.121   6.112   7.731 -1.4799  1.6374 -0.1779
  236MOL0     H31822   8.616   6.088   7.332 -3.5067  0.9832  0.3540
  236MOL0     H31823   8.864   6.107   7.341 -2.0311  0.0149 -1.8906
  236MOL0     H31824   9.029   6.395   7.659  1.6385  0.5783 -0.1038
  236MOL0     H31825   9.014   6.221   7.705  0.0606 -1.4789 -1.3052
  236MOL0     H31826   9.236   6.192   7.596 -0.4502  0.6187 -1.1971
  236MOL0     H31827   9.220   6.362   7.549 -0.5915  1.0594  0.5647
  236MOL0     H31828   9.237   6.432   7.775  2.0799 -0.0065 -0.4774
  236MOL0     H31829   9.287   6.276   7.839 -1.2000 -0.3478 -0.0140
  236MOL0     H31830   9.433   6.433   7.621 -1.1272 -0.0979 -0.7751
  236MOL0     H31831   9.489   6.289   7.720 -0.5428 -0.3602 -1.6527
  236MOL0     H31832   9.531   6.397   7.902  0.5568 -1.1396 -1.1043
  236MOL0     H31833   9.417   6.538   7.874 -0.5913  1.6461 -4.0312
  236MOL0     H31834   9.676   6.474   7.727 -1.4583 -1.4929 -0.1921
  236MOL0     H31835   9.577   6.619   7.685  0.9460  0.2994 -0.0659
  236MOL0     H31836   9.687   6.555   7.961  0.8020 -0.4300 -0.9705
  236MOL0     H31837   9.619   6.710   7.904 -0.5383  0.5927 -0.5445
  236MOL0     H31838   9.864   6.726   7.903  0.8429  2.2811 -1.5261
  236MOL0     H31839   9.884   6.587   7.792 -0.8277 -0.2528 -0.0206
  236MOL0     H31840   8.811   6.372   7.679  0.2327  2.4888 -2.6893
  236MOL0     H31841   8.581   6.363   7.670  1.5646 -0.2207  1.1643
  236MOL0     H31842   8.274   6.184   7.321  0.8654 -2.6534  0.2182
  236MOL0     H31843   8.044   6.137   7.242  2.6429  0.9885 -0.8650
  236MOL0     H31844   6.302   5.713   7.686 -1.4142  0.4825 -0.6177
  236MOL0     H31845   6.089   5.618   7.739 -1.4692  0.8346 -0.4422
  236MOL0     H31846   5.749   5.562   7.995 -0.0114 -0.9257  0.1787
  236MOL0     H31847   5.549   5.415   8.039  0.9817 -0.7088  0.1119
  236MOL0     H31848   5.217   5.461   7.779 -1.0137  2.3621 -0.1672
  236MOL0     H31849   5.141   5.545   7.913 -1.1061 -0.7928  3.0392
  236MOL0     H31850   5.191   5.245   7.887  0.1507  0.6579  0.3450
  236MOL0     H31851   5.050   5.314   7.805  1.4745 -1.5758 -1.0907
  236MOL0     H31852   4.987   5.403   8.050 -0.3732  0.4541 -0.5174
  236MOL0     H31853   5.098   5.277   8.105  1.3834 -1.4765 -2.1521
  236MOL0     H31854   4.847   5.236   7.943  0.6992 -1.0634  0.1155
  236MOL0     H31855   4.951   5.106   7.964  0.0255 -0.6291 -0.0633
  236MOL0     H31856   4.808   5.066   8.342  0.4860  2.0051  0.6721
  236MOL0     H31857   5.319   5.675   7.790 -0.1024  1.5211  0.6837
  236MOL0     H31858   5.572   5.820   7.603 -0.6299 -0.6734  0.2013
  236MOL0     H31859   5.402   5.815   7.643 -1.9996 -1.7641  1.7432
  236MOL0     H31860   5.519   5.918   7.731 -2.7766  0.1411 -1.1142
  237MOL0     O31861  10.975   5.928   4.639 -0.4544 -0.1546  0.2723
  237MOL0     C31862  10.908   5.852   4.709  0.6669  0.2217  0.1125
  237MOL0     O31863  10.954   5.743   4.777 -0.0289  0.6758  0.0607
  237MOL0     C31864  11.075   5.685   4.782  0.3832 -0.5355 -0.9287
  237MOL0     C31865  11.104   5.598   4.883  0.4251  0.3726 -0.3534
  237MOL0     C31866  11.231   5.543   4.901 -0.5672 -0.4269  0.2733
  237MOL0     C31867  11.334   5.563   4.811 -0.8840 -0.1200  0.0058
  237MOL0     O31868  11.446   5.493   4.810  0.3666 -0.1734  0.3037
  237MOL0     C31869  11.560   5.519   4.722 -0.9200 -0.0980 -0.1325
  237MOL0     C31870  11.553   5.436   4.598 -0.9030 -0.8615  0.0550
  237MOL0     C31871  11.627   5.494   4.482 -0.2471  0.5116  0.2892
  237MOL0     C31872  11.640   5.406   4.353  0.9618  1.9999  0.2246
  237MOL0     C31873  11.513   5.318   4.312 -0.1012  0.8677  0.3410
  237MOL0     C31874  11.399   5.384   4.247 -0.5803 -0.8302  0.2729
  237MOL0     C31875  11.279   5.422   4.336  0.3202  0.1942  0.9249
  237MOL0     C31876  11.161   5.476   4.248  0.1142 -0.4015  0.6236
  237MOL0     N31877  11.095   5.367   4.173  0.7338 -0.3732 -0.0963
  237MOL0     C31878  11.029   5.255   4.228 -0.3328 -0.2010  0.0708
  237MOL0     C31879  11.009   5.174   4.118 -0.5723  0.4064 -0.1290
  237MOL0     C31880  10.934   5.041   4.122 -0.0090  0.1489  0.3326
  237MOL0     C31881  10.816   5.047   4.019  0.2651  0.1807 -0.1312
  237MOL0     C31882  10.735   4.917   4.021 -0.2517  0.0066 -0.2705
  237MOL0     C31883  10.604   4.913   3.951  0.0778  0.0856  0.9375
  237MOL0     O31884  10.506   4.981   4.030 -0.0810 -0.2328  0.1202
  237MOL0     C31885  10.371   4.963   3.991 -0.3360 -0.2819  0.2332
  237MOL0     C31886  10.275   4.899   4.062  1.6612 -0.2463  0.1089
  237MOL0     C31887  10.143   4.883   4.027 -0.0785 -0.3938 -0.1711
  237MOL0     C31888  10.092   4.945   3.910  0.6073 -0.0918  0.0386
  237MOL0     C31889   9.950   4.926   3.865  0.4535  0.6042 -0.2016
  237MOL0     O31890   9.868   4.905   3.965  1.0820  0.2641  0.5723
  237MOL0     C31891   9.743   4.864   3.918  0.3709 -0.6550  0.3193
  237MOL0     C31892   9.630   4.944   3.927 -0.3648 -0.7140 -0.0959
  237MOL0     C31893   9.500   4.891   3.915  0.0087 -1.2558  0.3770
  237MOL0     C31894   9.480   4.757   3.876  0.6807  0.0081  0.1326
  237MOL0     O31895   9.354   4.706   3.867 -0.2061 -0.3443 -0.6223
  237MOL0     C31896   9.334   4.568   3.846 -0.2365  0.2170 -0.9562
  237MOL0     C31897   9.183   4.554   3.847  0.5369  0.1496  0.3655
  237MOL0     C31898   9.135   4.469   3.730  0.2723  0.0239 -0.5997
  237MOL0     C31899   8.985   4.460   3.753  0.6656  0.4890 -0.1026
  237MOL0     C31900   8.921   4.361   3.654  0.2056  0.8421 -0.2561
  237MOL0     C31901   8.773   4.366   3.681 -0.6799  0.3729  0.3678
  237MOL0     C31902   8.694   4.279   3.584  0.1047  0.0158 -0.7932
  237MOL0     C31903   8.535   4.316   3.588 -0.3450 -0.0518 -0.1875
  237MOL0    Cl31904   8.462   4.240   3.446 -0.2909 -0.1466 -0.2850
  237MOL0     C31905   9.596   4.674   3.869 -0.3882 -0.6982 -0.7750
  237MOL0     C31906   9.725   4.725   3.892  0.1696  0.5712  0.0898
  237MOL0     O31907   9.920   4.943   3.749  0.2572 -0.1894 -0.6540
  237MOL0     C31908  10.189   5.018   3.837  0.1537 -0.5451 -0.2237
  237MOL0     C31909  10.325   5.026   3.876 -0.1114  0.0074 -0.9761
  237MOL0     N31910  11.063   5.228   4.006  0.1972 -0.0256  1.1553
  237MOL0     N31911  11.108   5.345   4.035 -0.0218 -0.5775 -0.3936
  237MOL0     C31912  11.306   5.647   4.703 -0.2576  0.2656 -0.6560
  237MOL0     C31913  11.180   5.709   4.688 -0.8490  0.6475  0.3717
  237MOL0     C31914  10.761   5.885   4.712  0.5216 -0.0185 -0.3109
  237MOL0     C31915  10.692   5.866   4.828  0.0182 -0.0781 -0.0855
  237MOL0     C31916  10.555   5.893   4.828 -0.0310 -0.2305 -0.0137
  237MOL0     C31917  10.480   5.935   4.709 -0.1969  0.3432 -0.3793
  237MOL0     O31918  10.339   5.932   4.710 -0.4686 -0.0961 -0.2114
  237MOL0     C31919  10.273   6.039   4.644 -0.5949 -0.4275 -0.2242
  237MOL0     C31920  10.125   6.001   4.634  0.0437  0.7631  0.0466
  237MOL0     C31921  10.043   6.125   4.635  0.1789 -0.0702 -0.0044
  237MOL0     C31922   9.893   6.090   4.681 -0.2564 -0.1284  1.3600
  237MOL0     C31923   9.832   6.014   4.565 -0.0296  0.1263 -0.6023
  237MOL0     C31924   9.775   5.956   4.477  0.2645 -0.3376 -0.2223
  237MOL0     C31925  10.557   5.953   4.591 -0.2533 -1.3955  0.8392
  237MOL0     C31926  10.695   5.923   4.597  0.0585  0.5464  1.7917
  237MOL0     C31927  10.757   5.930   4.456  0.0686 -0.0776 -0.7470
  237MOL0     H31928  11.035   5.559   4.956  2.6800 -3.0963  0.1636
  237MOL0     H31929  11.244   5.474   4.984  1.5101 -1.8740 -1.1358
  237MOL0     H31930  11.569   5.626   4.701 -0.3795 -0.0524  0.3216
  237MOL0     H31931  11.655   5.494   4.769  0.5629  3.2361 -1.0298
  237MOL0     H31932  11.448   5.425   4.570 -0.3956 -1.8366 -1.5840
  237MOL0     H31933  11.584   5.332   4.612 -2.6552 -1.5861 -1.1271
  237MOL0     H31934  11.730   5.519   4.508 -0.0182 -0.4645  0.3678
  237MOL0     H31935  11.573   5.578   4.438 -1.0574 -0.4078 -0.5128
  237MOL0     H31936  11.667   5.463   4.264 -0.5000 -0.4487 -1.9037
  237MOL0     H31937  11.713   5.329   4.377  0.2271  0.8628 -1.0913
  237MOL0     H31938  11.549   5.239   4.245 -0.1167  0.8444  0.3602
  237MOL0     H31939  11.464   5.267   4.396 -0.3466 -0.8958 -0.8108
  237MOL0     H31940  11.434   5.473   4.195 -5.3037 -0.4246 -2.7863
  237MOL0     H31941  11.361   5.319   4.168 -0.9858  0.3054 -0.4842
  237MOL0     H31942  11.301   5.494   4.415 -1.9256  1.2578  0.6757
  237MOL0     H31943  11.235   5.336   4.387  1.6151  0.6321  2.8636
  237MOL0     H31944  11.089   5.529   4.311 -1.4009 -0.5896 -0.8604
  237MOL0     H31945  11.185   5.558   4.179 -0.7199  0.5048  1.3733
  237MOL0     H31946  10.990   5.222   4.324  0.0908 -1.0033 -0.0233
  237MOL0     H31947  11.001   4.960   4.091  2.5269  2.1224  0.3759
  237MOL0     H31948  10.883   5.019   4.216 -1.9288 -2.7298 -1.2259
  237MOL0     H31949  10.751   5.132   4.045  1.3794  0.8975  0.4278
  237MOL0     H31950  10.855   5.053   3.918 -0.3806 -1.0052 -0.4699
  237MOL0     H31951  10.730   4.876   4.122  1.2814 -0.4955 -0.3596
  237MOL0     H31952  10.792   4.839   3.968 -0.3557 -0.4076  0.2179
  237MOL0     H31953  10.559   4.814   3.940  0.1723  0.1988 -0.7284
  237MOL0     H31954  10.617   4.962   3.854 -1.5798  2.5328  1.8651
  237MOL0     H31955  10.324   4.851   4.146  1.1211  1.4791  1.4694
  237MOL0     H31956  10.077   4.825   4.091 -0.4688 -0.6427 -0.7869
  237MOL0     H31957   9.636   5.050   3.951  2.4193 -0.2335 -2.3092
  237MOL0     H31958   9.413   4.956   3.928  0.0774 -0.5476 -2.0821
  237MOL0     H31959   9.359   4.552   3.741 -1.8583  1.2242 -1.5484
  237MOL0     H31960   9.393   4.496   3.903  1.8680  1.3213 -1.6514
  237MOL0     H31961   9.153   4.521   3.946  3.9092  0.1553  1.5248
  237MOL0     H31962   9.144   4.656   3.837  1.1911  0.3248 -0.5954
  237MOL0     H31963   9.167   4.510   3.634 -0.2970  0.1064 -0.7579
  237MOL0     H31964   9.185   4.372   3.734 -2.3937 -1.4435 -0.3951
  237MOL0     H31965   8.925   4.550   3.740 -2.2802 -1.2271  0.5543
  237MOL0     H31966   8.975   4.419   3.854  0.4858  1.2761  0.2038
  237MOL0     H31967   8.953   4.258   3.673  2.0667  0.6280 -3.7321
  237MOL0     H31968   8.935   4.391   3.550  1.4512  2.6177  0.3868
  237MOL0     H31969   8.757   4.329   3.783  0.4544  1.1655  0.8578
  237MOL0     H31970   8.723   4.462   3.667 -2.7026 -0.5646  0.7552
  237MOL0     H31971   8.703   4.175   3.616 -1.2230  0.0119 -0.3997
  237MOL0     H31972   8.726   4.300   3.481 -3.1019  2.9158 -1.3708
  237MOL0     H31973   8.485   4.265   3.671 -1.3817 -2.6191 -2.2409
  237MOL0     H31974   8.512   4.422   3.597 -0.4180 -0.1656  1.1911
  237MOL0     H31975   9.583   4.569   3.844  0.5816 -1.7814  2.7709
  237MOL0     H31976   9.807   4.655   3.883  0.1325  0.7475 -2.9431
  237MOL0     H31977  10.161   5.078   3.751 -0.1935 -0.7405 -0.2474
  237MOL0     H31978  10.388   5.100   3.829 -0.6639  0.2916 -1.2681
  237MOL0     H31979  11.378   5.669   4.625  0.3995  2.1215  0.4049
  237MOL0     H31980  11.159   5.781   4.609  3.2074  1.2227 -0.3868
  237MOL0     H31981  10.738   5.837   4.922  1.4583  0.1495 -0.6907
  237MOL0     H31982  10.490   5.893   4.914 -2.0191  3.9518 -1.2384
  237MOL0     H31983  10.314   6.089   4.556  2.6134 -1.9645  0.2445
  237MOL0     H31984  10.278   6.129   4.705 -0.0260 -0.9574  0.5369
  237MOL0     H31985  10.105   5.950   4.728  0.4389  1.1452  0.3440
  237MOL0     H31986  10.100   5.938   4.548  1.1548  0.3110  0.0451
  237MOL0     H31987  10.046   6.175   4.538  0.5160 -1.3424 -0.6602
  237MOL0     H31988  10.079   6.186   4.719 -0.0957 -0.0080  0.0690
  237MOL0     H31989   9.878   6.035   4.774 -2.4051 -0.9047  0.6220
  237MOL0     H31990   9.843   6.187   4.689 -2.1496 -0.9887  0.5951
  237MOL0     H31991   9.720   5.907   4.399  1.9729 -1.4692 -0.7559
  237MOL0     H31992  10.502   5.978   4.501 -0.8459  0.0218  1.5765
  237MOL0     H31993  10.798   6.030   4.438 -2.0958  1.7797  3.2045
  237MOL0     H31994  10.831   5.852   4.437 -0.2477 -0.2587 -1.2603
  237MOL0     H31995  10.682   5.918   4.376 -3.4443 -1.7945  2.4666
  238MOL0     O31996   5.276   1.582   7.586  0.3398 -0.0477  0.3294
  238MOL0     C31997   5.287   1.687   7.647 -0.0565 -0.7006 -0.4776
  238MOL0     O31998   5.188   1.777   7.675  0.1207  0.3146 -0.0276
  238MOL0     C31999   5.054   1.775   7.627  0.1102 -0.5913  0.0225
  238MOL0     C32000   4.993   1.682   7.534  0.1246 -0.6922 -0.2930
  238MOL0     C32001   4.860   1.693   7.497 -1.0121  0.2495  0.4675
  238MOL0     C32002   4.773   1.787   7.546 -0.1452 -0.0134  0.5738
  238MOL0     O32003   4.638   1.798   7.516 -0.6820  0.3974  0.2050
  238MOL0     C32004   4.600   1.771   7.383 -0.9511  0.8975  0.7409
  238MOL0     C32005   4.467   1.827   7.346 -0.0339 -0.5438  0.8384
  238MOL0     C32006   4.347   1.785   7.424  0.4440  0.9225  0.6044
  238MOL0     C32007   4.213   1.841   7.364  0.4427 -0.5894  1.1662
  238MOL0     C32008   4.099   1.833   7.471  0.4469 -0.6754 -0.1177
  238MOL0     C32009   3.962   1.878   7.429  0.2496 -0.1508  0.2037
  238MOL0     C32010   3.950   2.030   7.405  0.3090 -0.3876 -1.5864
  238MOL0     C32011   3.928   2.095   7.536 -0.0586  0.3404 -0.6981
  238MOL0     N32012   3.920   2.242   7.513  0.2685  0.1742 -0.3610
  238MOL0     C32013   4.013   2.329   7.467  0.2715  0.1001 -0.3503
  238MOL0     C32014   3.949   2.449   7.457  0.2261 -0.3060 -0.0038
  238MOL0     C32015   4.004   2.588   7.421 -0.2170 -0.1564 -0.6488
  238MOL0     C32016   4.161   2.603   7.443  0.2142  0.0049 -0.5671
  238MOL0     C32017   4.223   2.564   7.308  0.0482 -0.0029 -0.1114
  238MOL0     C32018   4.375   2.586   7.304 -0.5111 -0.1725 -0.2675
  238MOL0     O32019   4.394   2.725   7.276  0.4206 -0.6289  0.0634
  238MOL0     C32020   4.520   2.764   7.252 -1.1033  0.0209 -0.1456
  238MOL0     C32021   4.555   2.856   7.155  0.0244 -0.6464 -0.1397
  238MOL0     C32022   4.682   2.907   7.138 -0.6390  0.2666 -0.0322
  238MOL0     C32023   4.787   2.869   7.224  0.0430 -0.1583  0.7946
  238MOL0     C32024   4.925   2.925   7.223 -0.3946  0.4328 -0.4235
  238MOL0     O32025   5.016   2.865   7.309 -0.1425 -0.4517 -0.0900
  238MOL0     C32026   5.149   2.901   7.319 -0.1896 -0.6737  0.3973
  238MOL0     C32027   5.225   2.971   7.222 -0.0901 -0.3934 -0.0070
  238MOL0     C32028   5.367   2.976   7.235  0.5569 -1.1267 -0.0494
  238MOL0     C32029   5.430   2.914   7.348  0.5780 -0.1682 -0.6438
  238MOL0     O32030   5.566   2.917   7.345  0.1324 -0.2401 -0.1392
  238MOL0     C32031   5.641   2.963   7.461  0.4018  0.1889 -0.2822
  238MOL0     C32032   5.761   3.034   7.407  1.2672  0.1022 -0.3064
  238MOL0     C32033   5.853   3.097   7.510 -0.5642 -0.0580  0.6572
  238MOL0     C32034   5.992   3.092   7.453  0.3734  0.3552  0.0436
  238MOL0     C32035   6.104   3.148   7.544 -0.8181 -0.5862  0.4223
  238MOL0     C32036   6.132   3.295   7.528  0.4454 -0.6817 -0.4245
  238MOL0     C32037   6.222   3.330   7.405  0.1888  0.3726 -0.2657
  238MOL0     C32038   6.249   3.476   7.379 -0.1469  0.4093 -0.0635
  238MOL0    Cl32039   6.358   3.549   7.495 -0.0048  0.4125 -0.0251
  238MOL0     C32040   5.354   2.858   7.455 -0.3247 -0.7054  0.5590
  238MOL0     C32041   5.215   2.854   7.439 -0.1511  0.8306  0.0254
  238MOL0     O32042   4.940   3.033   7.172  0.1574 -0.5123  0.4917
  238MOL0     C32043   4.757   2.765   7.313 -0.5050  0.2513 -0.2625
  238MOL0     C32044   4.627   2.717   7.330  0.2792 -0.0114  0.0055
  238MOL0     N32045   3.813   2.431   7.499 -0.2625  0.3128 -0.1143
  238MOL0     N32046   3.802   2.310   7.526  0.4360 -0.7110 -0.7339
  238MOL0     C32047   4.829   1.873   7.646  0.8541 -0.1155  0.1702
  238MOL0     C32048   4.965   1.867   7.689  0.9409 -1.0226 -0.1294
  238MOL0     C32049   5.419   1.720   7.709 -0.1767 -0.5483 -0.2861
  238MOL0     C32050   5.424   1.839   7.792  0.2061  0.1819 -0.8767
  238MOL0     C32051   5.539   1.876   7.851 -0.4590 -0.0926 -0.3112
  238MOL0     C32052   5.658   1.801   7.834  0.0419  1.2490 -0.4486
  238MOL0     O32053   5.783   1.831   7.890  1.2632  0.1157 -0.1708
  238MOL0     C32054   5.795   1.953   7.954  0.0318 -0.6376 -0.0433
  238MOL0     C32055   5.919   1.977   8.031 -0.2774  0.8043 -0.5885
  238MOL0     C32056   5.913   1.899   8.163  0.4752 -0.8639 -0.1263
  238MOL0     C32057   6.043   1.925   8.249 -0.5847 -0.1938  0.4796
  238MOL0     C32058   6.170   1.935   8.176 -0.8399  1.2755  0.1183
  238MOL0     C32059   6.268   1.949   8.102  0.2884  0.0758 -0.2409
  238MOL0     C32060   5.648   1.677   7.766  0.3697  0.0105  0.0223
  238MOL0     C32061   5.535   1.637   7.698  0.0481  0.6315 -0.2161
  238MOL0     C32062   5.535   1.494   7.639  0.0567  0.4721  0.5038
  238MOL0     H32063   5.047   1.610   7.474 -0.4820 -0.7921 -0.7304
  238MOL0     H32064   4.832   1.619   7.422  2.2821 -1.8981  1.1050
  238MOL0     H32065   4.681   1.813   7.322  0.4115  1.8579  3.0711
  238MOL0     H32066   4.595   1.662   7.371  0.6581  0.7131  1.4687
  238MOL0     H32067   4.441   1.789   7.247  0.1488 -0.7975  0.8884
  238MOL0     H32068   4.484   1.935   7.339 -1.1010 -0.4051  0.1208
  238MOL0     H32069   4.351   1.837   7.521 -1.8333 -0.0531  1.3013
  238MOL0     H32070   4.356   1.677   7.437  3.2579  0.9994 -0.0369
  238MOL0     H32071   4.220   1.945   7.329  1.8206 -0.8718  0.5290
  238MOL0     H32072   4.194   1.781   7.275  0.0892 -0.5199  1.1938
  238MOL0     H32073   4.095   1.728   7.503  3.5460 -0.1387  2.5469
  238MOL0     H32074   4.131   1.896   7.554 -0.5516 -2.2573  1.5389
  238MOL0     H32075   3.951   1.842   7.327  0.0702  4.2555 -1.5535
  238MOL0     H32076   3.886   1.840   7.498  2.3038 -0.6840  2.3011
  238MOL0     H32077   3.876   2.059   7.330  0.7623  0.7895 -1.6079
  238MOL0     H32078   4.046   2.062   7.362  0.7400 -0.0640 -0.4288
  238MOL0     H32079   3.833   2.063   7.578 -0.2621  1.1848 -0.4944
  238MOL0     H32080   4.002   2.072   7.614 -0.8841  3.6408  1.2602
  238MOL0     H32081   4.119   2.318   7.449  0.7752  1.6650  1.4220
  238MOL0     H32082   3.972   2.623   7.322  1.5077 -1.6781 -1.8224
  238MOL0     H32083   3.963   2.655   7.496 -2.5590 -0.1354 -1.8346
  238MOL0     H32084   4.182   2.709   7.464 -2.3772  0.2374  1.2376
  238MOL0     H32085   4.186   2.535   7.524  0.0512 -0.6799 -1.0846
  238MOL0     H32086   4.168   2.612   7.226 -0.1445 -0.8160 -0.4679
  238MOL0     H32087   4.208   2.457   7.295 -0.5699  0.0689 -0.0016
  238MOL0     H32088   4.427   2.527   7.228 -1.3102  2.3611 -2.9972
  238MOL0     H32089   4.424   2.548   7.394  2.4555  0.0017 -1.7111
  238MOL0     H32090   4.478   2.886   7.085  0.5236 -2.1005 -1.3487
  238MOL0     H32091   4.706   2.979   7.060  0.0168  0.8523  0.7020
  238MOL0     H32092   5.177   3.018   7.137  2.4923  0.6975 -0.9789
  238MOL0     H32093   5.431   3.022   7.160  0.8394  2.2248  2.0060
  238MOL0     H32094   5.570   3.030   7.511 -0.1312  0.6138 -1.5694
  238MOL0     H32095   5.664   2.880   7.529  0.7081  0.9288  0.5380
  238MOL0     H32096   5.813   2.963   7.342 -0.3043 -1.9857  0.6199
  238MOL0     H32097   5.733   3.120   7.346 -3.8405 -0.1590  1.2086
  238MOL0     H32098   5.823   3.194   7.550  1.8557  0.6852  0.8246
  238MOL0     H32099   5.858   3.036   7.601 -0.2914 -1.1824 -0.0954
  238MOL0     H32100   5.987   3.152   7.362 -0.7298 -0.0413 -0.1615
  238MOL0     H32101   6.014   2.988   7.427 -2.1890  0.4656 -3.2229
  238MOL0     H32102   6.197   3.103   7.508 -1.4885 -1.6718 -0.0091
  238MOL0     H32103   6.082   3.131   7.649  1.0918 -0.4109  0.8730
  238MOL0     H32104   6.036   3.342   7.509  0.3970  0.4225  2.1597
  238MOL0     H32105   6.190   3.327   7.615 -3.1701 -0.2429  2.0369
  238MOL0     H32106   6.180   3.289   7.312  0.4496 -0.9055  0.1542
  238MOL0     H32107   6.316   3.280   7.428 -1.5811 -3.1328  0.0978
  238MOL0     H32108   6.293   3.488   7.280 -3.7205  0.3150 -1.8151
  238MOL0     H32109   6.157   3.535   7.370  0.6551  1.5260 -1.1971
  238MOL0     H32110   5.400   2.806   7.538 -1.3458 -0.8468  1.0608
  238MOL0     H32111   5.155   2.800   7.511 -0.7304  1.8149  0.2936
  238MOL0     H32112   4.834   2.718   7.372 -2.0479 -1.5864  0.4045
  238MOL0     H32113   4.606   2.636   7.400  0.0213  1.2940  1.4841
  238MOL0     H32114   4.773   1.950   7.700  0.6610 -0.2415  0.1496
  238MOL0     H32115   5.003   1.926   7.772  0.5866  0.0413 -0.6994
  238MOL0     H32116   5.337   1.896   7.823 -0.8022 -1.4869 -0.5296
  238MOL0     H32117   5.547   1.972   7.900  2.4159 -0.3232 -0.1501
  238MOL0     H32118   5.718   1.963   8.032  2.4681  0.9840  2.3436
  238MOL0     H32119   5.790   2.029   7.876 -0.5715  0.9897  1.5249
  238MOL0     H32120   5.938   2.085   8.035 -0.4291  0.9649 -2.7093
  238MOL0     H32121   6.001   1.927   7.978  0.3063  0.1618  0.8555
  238MOL0     H32122   5.906   1.791   8.147 -1.6637 -1.1085  1.8441
  238MOL0     H32123   5.823   1.931   8.218  0.2375  1.2727 -1.6733
  238MOL0     H32124   6.032   2.029   8.283  2.2146 -0.1925  1.6630
  238MOL0     H32125   6.052   1.861   8.337  1.8657  1.1071  1.2657
  238MOL0     H32126   6.360   1.961   8.049  0.2750  2.8497  0.2351
  238MOL0     H32127   5.731   1.607   7.774  1.0693  0.1887 -3.8783
  238MOL0     H32128   5.515   1.509   7.533 -0.8810  3.7764  1.0343
  238MOL0     H32129   5.633   1.445   7.650  0.6681  0.9011 -2.1918
  238MOL0     H32130   5.458   1.428   7.679  0.3977 -0.6029 -0.5594
  239MOL0     O32131   5.395   7.186   1.791 -0.1232 -0.3663  0.1512
  239MOL0     C32132   5.313   7.246   1.720  0.0393  0.2739 -0.1854
  239MOL0     O32133   5.342   7.358   1.653  0.2503 -0.0714  0.1084
  239MOL0     C32134   5.461   7.419   1.687 -0.0934 -0.5322 -0.7682
  239MOL0     C32135   5.573   7.392   1.612 -0.1367  0.0093  0.4893
  239MOL0     C32136   5.701   7.434   1.649  0.2926  0.0062  0.7742
  239MOL0     C32137   5.713   7.505   1.771 -0.3281  0.6903  0.7396
  239MOL0     O32138   5.830   7.545   1.827  0.0770  0.2186  0.1018
  239MOL0     C32139   5.949   7.496   1.766 -0.5257 -0.7350 -1.0054
  239MOL0     C32140   6.066   7.538   1.859 -0.0268 -0.0745 -0.6426
  239MOL0     C32141   6.212   7.506   1.819 -0.5400  0.1130  0.2372
  239MOL0     C32142   6.309   7.569   1.922 -0.1502  0.3423  0.3091
  239MOL0     C32143   6.455   7.526   1.896 -0.3996  0.1969  1.2087
  239MOL0     C32144   6.539   7.625   1.810 -0.7666 -0.7736  0.8514
  239MOL0     C32145   6.683   7.580   1.807 -0.4858 -0.1100 -0.3953
  239MOL0     C32146   6.756   7.634   1.684 -0.4679 -0.3914  1.2252
  239MOL0     N32147   6.898   7.634   1.701 -0.8356 -1.1582 -0.0247
  239MOL0     C32148   6.978   7.545   1.765  0.5488 -0.1623  0.4873
  239MOL0     C32149   7.103   7.590   1.767 -0.2796 -0.5792 -0.1675
  239MOL0     C32150   7.226   7.519   1.821  0.2665  0.5947 -0.1334
  239MOL0     C32151   7.294   7.588   1.929 -0.0991 -0.2576 -0.1513
  239MOL0     C32152   7.396   7.697   1.883 -0.1565 -0.9250  0.0799
  239MOL0     C32153   7.535   7.642   1.867 -0.1798  0.3449 -0.2345
  239MOL0     O32154   7.599   7.615   1.990 -0.0682  0.9942 -0.8412
  239MOL0     C32155   7.732   7.622   1.987 -0.3117  0.2183 -0.1174
  239MOL0     C32156   7.803   7.609   2.105 -0.3744  0.0499 -0.8532
  239MOL0     C32157   7.945   7.599   2.102 -0.0785 -0.5923  0.0599
  239MOL0     C32158   8.020   7.617   1.981 -0.0398  0.0331 -0.0647
  239MOL0     C32159   8.170   7.638   1.989  0.0212  1.1332 -0.3865
  239MOL0     O32160   8.229   7.595   2.102  0.1645 -0.0215 -0.1846
  239MOL0     C32161   8.358   7.631   2.139 -1.1217 -0.8094  0.0482
  239MOL0     C32162   8.464   7.533   2.169  0.7698  0.0962 -0.6929
  239MOL0     C32163   8.584   7.567   2.222 -0.0833 -0.7122  0.5084
  239MOL0     C32164   8.615   7.701   2.236  0.0985 -0.6189  0.6012
  239MOL0     O32165   8.748   7.729   2.283  0.0923  0.1113  0.8828
  239MOL0     C32166   8.764   7.831   2.382  0.2396 -0.1442 -0.2736
  239MOL0     C32167   8.912   7.876   2.376 -0.2204  0.7195  0.7632
  239MOL0     C32168   9.011   7.776   2.433  0.0705 -0.4042  0.3219
  239MOL0     C32169   9.148   7.831   2.445 -0.4516  0.1298  0.1698
  239MOL0     C32170   9.258   7.726   2.485  0.4639  0.0229  0.2013
  239MOL0     C32171   9.399   7.792   2.518 -0.6666 -0.3918 -1.0105
  239MOL0     C32172   9.465   7.858   2.398  0.8209  0.3805  0.2326
  239MOL0     C32173   9.607   7.901   2.417  0.5876  0.0983 -0.0128
  239MOL0    Cl32174   9.628   8.028   2.543  0.1886 -0.3018  0.1356
  239MOL0     C32175   8.520   7.800   2.205 -0.2914  0.2866  0.7693
  239MOL0     C32176   8.394   7.766   2.160  0.9235  0.7367  0.4851
  239MOL0     O32177   8.223   7.705   1.901  0.5219  0.5010  0.4705
  239MOL0     C32178   7.945   7.611   1.861 -0.1126  0.4555 -1.0127
  239MOL0     C32179   7.805   7.608   1.871 -0.6981  0.1315  0.7352
  239MOL0     N32180   7.095   7.727   1.736  0.4453 -0.3044  0.8113
  239MOL0     N32181   6.977   7.743   1.682 -0.2221 -0.1763  0.4282
  239MOL0     C32182   5.602   7.545   1.834  0.1401 -0.0226 -0.1801
  239MOL0     C32183   5.474   7.500   1.802 -0.3082 -0.1844  0.7001
  239MOL0     C32184   5.170   7.196   1.706 -0.3498  0.6716 -0.7502
  239MOL0     C32185   5.092   7.261   1.612  0.3682 -0.6964  0.1281
  239MOL0     C32186   4.953   7.224   1.605  0.3514 -0.8023  0.0212
  239MOL0     C32187   4.895   7.119   1.684  0.2268  0.0902 -0.1750
  239MOL0     O32188   4.758   7.091   1.676  0.1355  0.4336  0.0148
  239MOL0     C32189   4.687   7.106   1.557  0.3755 -0.4654  0.1990
  239MOL0     C32190   4.548   7.052   1.574 -0.1682 -0.6232  0.1174
  239MOL0     C32191   4.462   7.155   1.658 -0.3080 -0.1990  0.1793
  239MOL0     C32192   4.316   7.165   1.620  0.0735 -0.0105 -0.0649
  239MOL0     C32193   4.266   7.028   1.618 -0.1946  0.6386  0.4651
  239MOL0     C32194   4.214   6.914   1.600 -0.2766 -0.5005  0.6208
  239MOL0     C32195   4.985   7.042   1.756 -0.5106 -0.2001  0.4384
  239MOL0     C32196   5.116   7.085   1.779  0.9910  0.1708  0.3529
  239MOL0     C32197   5.195   7.005   1.883 -0.5115 -0.1713  0.2640
  239MOL0     H32198   5.564   7.329   1.524  1.8825 -1.4488  1.2441
  239MOL0     H32199   5.782   7.416   1.579 -0.0268  1.4631 -0.0224
  239MOL0     H32200   5.947   7.388   1.756  0.4654 -0.7862 -0.7222
  239MOL0     H32201   5.959   7.542   1.667 -2.6729 -0.0541 -0.9596
  239MOL0     H32202   6.046   7.495   1.957  1.1645  0.0869 -0.3137
  239MOL0     H32203   6.061   7.646   1.877 -1.3842 -0.3535  0.9697
  239MOL0     H32204   6.246   7.542   1.722  0.9664  0.2430  0.7841
  239MOL0     H32205   6.228   7.398   1.833  1.9245  0.6209  1.9191
  239MOL0     H32206   6.309   7.676   1.943  0.1415 -0.0355  2.5404
  239MOL0     H32207   6.284   7.530   2.021  1.0822 -1.9193 -0.2051
  239MOL0     H32208   6.517   7.510   1.985  0.5945 -1.8375  0.2114
  239MOL0     H32209   6.460   7.438   1.832  0.3308  1.1244 -0.0461
  239MOL0     H32210   6.500   7.642   1.709  0.4335 -0.4134  0.4272
  239MOL0     H32211   6.546   7.728   1.846  1.7085  0.3139 -2.2879
  239MOL0     H32212   6.699   7.473   1.789 -2.7031 -0.3019 -1.5228
  239MOL0     H32213   6.737   7.605   1.899  0.8861 -0.4008 -1.0936
  239MOL0     H32214   6.740   7.568   1.598  0.1735 -0.4980  1.1840
  239MOL0     H32215   6.720   7.735   1.663  2.7689  0.3452 -1.7475
  239MOL0     H32216   6.950   7.447   1.801  2.4328 -0.7790  0.3902
  239MOL0     H32217   7.194   7.423   1.862  0.2440  0.3446 -0.7369
  239MOL0     H32218   7.301   7.499   1.744 -1.4311  0.4745 -1.8443
  239MOL0     H32219   7.219   7.634   1.994  1.5787  1.0012  0.9801
  239MOL0     H32220   7.350   7.526   2.000 -0.0020  0.0445  0.0390
  239MOL0     H32221   7.391   7.783   1.949 -2.7976 -1.4326  0.6526
  239MOL0     H32222   7.368   7.746   1.789  0.1105  2.1927  1.5272
  239MOL0     H32223   7.593   7.714   1.810 -2.8095  0.9976 -2.3292
  239MOL0     H32224   7.530   7.544   1.818  0.4657  0.5486 -0.7185
  239MOL0     H32225   7.745   7.623   2.195 -0.8170  3.4919 -1.5129
  239MOL0     H32226   7.979   7.598   2.205  1.8719 -1.4906 -0.5481
  239MOL0     H32227   8.425   7.432   2.156  0.6401 -0.0704  0.7393
  239MOL0     H32228   8.659   7.490   2.242  2.2528  1.4497  0.6124
  239MOL0     H32229   8.708   7.917   2.342  0.2186  0.1320  0.3424
  239MOL0     H32230   8.732   7.805   2.483  1.7130  1.6961  0.7333
  239MOL0     H32231   8.941   7.900   2.273 -1.7734  0.5117  0.2438
  239MOL0     H32232   8.913   7.970   2.432 -1.6541  1.3902 -0.2708
  239MOL0     H32233   8.977   7.743   2.531 -1.3535 -0.0001 -0.0118
  239MOL0     H32234   9.017   7.697   2.358 -0.5292 -0.5105  0.3802
  239MOL0     H32235   9.159   7.908   2.522  3.9146 -1.4114  1.3831
  239MOL0     H32236   9.169   7.873   2.346 -0.9888  0.5458  0.2248
  239MOL0     H32237   9.275   7.655   2.404 -1.1121  0.4297 -0.5256
  239MOL0     H32238   9.225   7.668   2.572  1.7398 -1.3853 -0.2193
  239MOL0     H32239   9.388   7.869   2.595 -2.6186  0.2021 -1.8370
  239MOL0     H32240   9.450   7.704   2.559  0.4202  1.2992  1.5084
  239MOL0     H32241   9.404   7.943   2.364 -0.1811  0.2798  1.6985
  239MOL0     H32242   9.467   7.780   2.321  0.0345  0.7275 -0.1521
  239MOL0     H32243   9.673   7.818   2.445 -0.6591 -1.3366 -1.1921
  239MOL0     H32244   9.639   7.946   2.323  0.1781  0.0839 -0.1596
  239MOL0     H32245   8.533   7.907   2.214 -2.2359  0.7372 -0.9289
  239MOL0     H32246   8.315   7.834   2.129  1.3398  0.4859 -1.2358
  239MOL0     H32247   7.988   7.611   1.761  0.0801  1.2378 -0.9366
  239MOL0     H32248   7.759   7.619   1.773  0.4579 -0.4713  0.1087
  239MOL0     H32249   5.618   7.600   1.927  0.7366 -1.4072  0.5652
  239MOL0     H32250   5.386   7.531   1.859  0.2143 -1.4734  2.2819
  239MOL0     H32251   5.129   7.330   1.538 -2.0872 -0.9635 -1.4628
  239MOL0     H32252   4.895   7.288   1.540 -2.7739 -2.1597  1.2489
  239MOL0     H32253   4.742   7.060   1.474  0.3870 -0.6052  0.2830
  239MOL0     H32254   4.679   7.213   1.534  0.7968 -0.6704 -0.9714
  239MOL0     H32255   4.551   6.954   1.622  2.6083 -0.5604  0.2498
  239MOL0     H32256   4.499   7.030   1.479 -1.4254  0.5065  0.4813
  239MOL0     H32257   4.507   7.255   1.660 -0.7891  0.0166  1.1327
  239MOL0     H32258   4.466   7.127   1.764  1.1872 -0.9209 -0.0405
  239MOL0     H32259   4.267   7.230   1.693 -0.8835 -0.7661 -0.0142
  239MOL0     H32260   4.299   7.213   1.523 -2.3115 -0.7180 -0.0632
  239MOL0     H32261   4.179   6.813   1.606 -0.3852 -0.4113  4.9556
  239MOL0     H32262   4.968   6.943   1.797  2.9518 -0.3759  1.7491
  239MOL0     H32263   5.213   7.061   1.975 -2.3913 -0.3640  0.7900
  239MOL0     H32264   5.155   6.904   1.895 -1.2921  0.1362  0.2825
  239MOL0     H32265   5.297   6.984   1.850 -0.7408  1.1230 -1.3436
  240MOL0     O32266  10.429   0.409   7.583 -0.1115  0.0420 -0.2655
  240MOL0     C32267  10.374   0.476   7.661  0.0693 -0.3126  0.3496
  240MOL0     O32268  10.417   0.592   7.705  0.1159  0.0988  0.7720
  240MOL0     C32269  10.528   0.642   7.644  0.0242  0.9002  0.6903
  240MOL0     C32270  10.641   0.657   7.734  0.6652 -0.5314  0.3801
  240MOL0     C32271  10.762   0.708   7.693 -1.1462 -0.3616 -0.2782
  240MOL0     C32272  10.793   0.724   7.557  0.0666  0.8442  0.0156
  240MOL0     O32273  10.909   0.777   7.506  0.5539  0.0298  1.3341
  240MOL0     C32274  11.022   0.761   7.594 -0.0584 -0.1807 -0.2328
  240MOL0     C32275  11.144   0.801   7.513 -0.0984 -0.2139  0.2476
  240MOL0     C32276  11.275   0.801   7.595  0.2130  0.4959  0.7463
  240MOL0     C32277  11.378   0.896   7.537  0.8051  0.5886 -0.0392
  240MOL0     C32278  11.447   0.815   7.429 -0.1502  0.1313  0.6055
  240MOL0     C32279  11.544   0.898   7.344 -0.1403 -0.5579  0.4297
  240MOL0     C32280  11.654   0.813   7.293  0.1418  0.2484  0.2003
  240MOL0     C32281  11.749   0.901   7.219 -0.1658 -0.5512  0.3347
  240MOL0     N32282  11.820   0.819   7.123 -0.0126 -0.1390 -0.0178
  240MOL0     C32283  11.785   0.783   6.991 -0.0473 -0.2821 -0.6413
  240MOL0     C32284  11.895   0.718   6.937  0.4094 -0.8258 -0.8261
  240MOL0     C32285  11.912   0.677   6.796  1.4172  0.3239  0.5624
  240MOL0     C32286  11.815   0.558   6.755 -0.3761  0.1276 -0.0580
  240MOL0     C32287  11.880   0.418   6.770  0.3919 -0.5380 -0.6354
  240MOL0     C32288  11.930   0.395   6.921 -0.2035 -0.2277  0.8185
  240MOL0     O32289  11.980   0.257   6.946 -0.3132 -0.5529 -0.0840
  240MOL0     C32290  12.101   0.208   6.910  0.6400 -0.4228 -0.7149
  240MOL0     C32291  12.132   0.088   6.972  0.4712  0.8284  0.2221
  240MOL0     C32292  12.248   0.012   6.954  0.7620  0.2366 -0.0935
  240MOL0     C32293  12.337   0.053   6.855 -0.8209  0.4155 -0.1914
  240MOL0     C32294  12.465  -0.030   6.823  0.4345 -1.0215 -0.2207
  240MOL0     O32295  12.480  -0.141   6.891  0.0172  0.0116  0.1653
  240MOL0     C32296  12.596  -0.213   6.868 -0.0128  0.0254  0.3033
  240MOL0     C32297  12.595  -0.331   6.790  0.3923 -0.1487  1.3212
  240MOL0     C32298  12.710  -0.407   6.770  0.2935 -0.1147  0.3157
  240MOL0     C32299  12.828  -0.376   6.825  0.2110 -0.5458 -0.6201
  240MOL0     O32300  12.930  -0.462   6.806 -0.1282  0.6043  0.0011
  240MOL0     C32301  13.070  -0.446   6.853  0.4816 -0.5086  0.2898
  240MOL0     C32302  13.136  -0.581   6.867 -0.1863  0.6139 -0.1351
  240MOL0     C32303  13.291  -0.576   6.869  0.2887 -0.2208  0.5385
  240MOL0     C32304  13.358  -0.707   6.858  0.4347  0.1273  0.6335
  240MOL0     C32305  13.506  -0.686   6.827 -0.3258  0.0316 -0.6850
  240MOL0     C32306  13.592  -0.651   6.952 -0.1384 -0.0597 -1.0533
  240MOL0     C32307  13.727  -0.581   6.924 -0.4200  0.1656  0.1071
  240MOL0     C32308  13.818  -0.619   6.793  0.2322 -0.9940 -0.1129
  240MOL0    Cl32309  13.896  -0.785   6.791 -0.0264 -0.2511 -0.0647
  240MOL0     C32310  12.833  -0.260   6.905  0.2769 -0.2546 -0.1559
  240MOL0     C32311  12.716  -0.180   6.930 -0.6131  1.1098 -0.0618
  240MOL0     O32312  12.540   0.007   6.733 -0.4048 -0.0009 -0.6202
  240MOL0     C32313  12.306   0.174   6.782 -0.1131  1.6308  0.0543
  240MOL0     C32314  12.190   0.253   6.812 -0.7543  0.9267 -0.4351
  240MOL0     N32315  11.984   0.697   7.043  0.2436  0.4430  0.7029
  240MOL0     N32316  11.942   0.760   7.149 -0.4992 -0.6264  0.2395
  240MOL0     C32317  10.686   0.702   7.472  0.4614  0.4622  0.2366
  240MOL0     C32318  10.555   0.665   7.510 -0.0401  0.8769 -0.1432
  240MOL0     C32319  10.244   0.437   7.712  0.2172 -0.5466 -0.6115
  240MOL0     C32320  10.140   0.532   7.745 -0.9379 -0.0133 -0.5296
  240MOL0     C32321  10.012   0.497   7.797  0.3433 -0.3064  0.3871
  240MOL0     C32322   9.986   0.364   7.825  0.4753 -0.1510  0.6773
  240MOL0     O32323   9.873   0.310   7.879  0.3047  0.5646  0.2585
  240MOL0     C32324   9.755   0.396   7.881 -0.3691 -0.6272 -0.5261
  240MOL0     C32325   9.687   0.413   7.743  0.4388  0.3005  0.2100
  240MOL0     C32326   9.539   0.469   7.750 -0.6690 -0.3992 -0.2886
  240MOL0     C32327   9.545   0.609   7.807 -0.3955 -0.2278 -0.3612
  240MOL0     C32328   9.413   0.670   7.822  0.5937 -0.8267  0.1597
  240MOL0     C32329   9.296   0.706   7.825  0.4594 -0.3574  0.3327
  240MOL0     C32330  10.080   0.268   7.805  0.1717  0.0736  0.5501
  240MOL0     C32331  10.204   0.300   7.741 -0.3234  0.2192 -0.7193
  240MOL0     C32332  10.297   0.178   7.717 -0.1678 -0.2216  0.0915
  240MOL0     H32333  10.625   0.640   7.840 -0.4604  0.2077  0.3491
  240MOL0     H32334  10.834   0.735   7.770 -0.0296 -1.9264 -0.7189
  240MOL0     H32335  11.019   0.829   7.680 -0.4453  0.6726 -0.9065
  240MOL0     H32336  11.025   0.660   7.636  0.5602 -0.6043 -1.2624
  240MOL0     H32337  11.138   0.900   7.468  2.6023  0.4057  1.0401
  240MOL0     H32338  11.145   0.721   7.438  1.3621  0.4581 -0.4956
  240MOL0     H32339  11.312   0.699   7.603 -0.4909 -0.2703 -3.5073
  240MOL0     H32340  11.260   0.840   7.696  1.8108 -0.7717  1.5189
  240MOL0     H32341  11.325   0.985   7.500 -0.7449 -0.4755 -0.5063
  240MOL0     H32342  11.465   0.917   7.599  2.1608 -1.7167 -1.0086
  240MOL0     H32343  11.490   0.721   7.464 -2.0676 -1.5226 -1.2970
  240MOL0     H32344  11.371   0.782   7.359  0.2466  0.1336  0.1697
  240MOL0     H32345  11.487   0.959   7.273  1.1093  2.4688  1.8091
  240MOL0     H32346  11.587   0.968   7.417 -0.3526 -2.5684  2.6272
  240MOL0     H32347  11.614   0.742   7.220  3.2644 -1.1758 -0.2529
  240MOL0     H32348  11.707   0.773   7.379  1.2529  0.7777 -0.2285
  240MOL0     H32349  11.698   0.987   7.176  0.5634 -1.0181 -1.5703
  240MOL0     H32350  11.824   0.944   7.287  0.0405  0.0820 -0.2813
  240MOL0     H32351  11.693   0.812   6.941 -1.2516 -2.8544 -0.0703
  240MOL0     H32352  11.889   0.757   6.725 -0.1798 -0.1461  0.5273
  240MOL0     H32353  12.015   0.643   6.781  0.8166 -0.8770 -1.1720
  240MOL0     H32354  11.721   0.580   6.808 -1.7383 -0.0677 -2.2717
  240MOL0     H32355  11.799   0.583   6.650  1.1643  1.9066  0.0833
  240MOL0     H32356  11.964   0.408   6.700 -0.1257 -0.4336 -1.2766
  240MOL0     H32357  11.805   0.341   6.752  1.0260 -2.0857  2.5951
  240MOL0     H32358  11.853   0.409   6.997 -1.2356 -1.5953  0.0769
  240MOL0     H32359  12.016   0.458   6.946  1.1846 -2.5816  2.3463
  240MOL0     H32360  12.066   0.059   7.053 -0.2954 -0.4887 -0.8191
  240MOL0     H32361  12.258  -0.080   7.011  0.8130  0.8552  0.9230
  240MOL0     H32362  12.496  -0.358   6.757  0.5651 -0.9113  1.4097
  240MOL0     H32363  12.695  -0.488   6.699 -0.0905  1.8410 -1.9468
  240MOL0     H32364  13.124  -0.379   6.785  0.7162 -2.9495 -2.1233
  240MOL0     H32365  13.066  -0.397   6.950  1.9329  0.1477  0.0430
  240MOL0     H32366  13.109  -0.639   6.956 -0.6513 -0.7111 -1.1244
  240MOL0     H32367  13.110  -0.655   6.791  1.8099 -2.1316  1.6379
  240MOL0     H32368  13.306  -0.514   6.780 -4.7323  0.9148  0.1414
  240MOL0     H32369  13.322  -0.527   6.962  0.3759  2.3271 -0.7493
  240MOL0     H32370  13.309  -0.754   6.772 -0.0338  0.9957  0.4117
  240MOL0     H32371  13.344  -0.769   6.947 -1.4248  0.5339  0.6665
  240MOL0     H32372  13.510  -0.606   6.754 -0.8808 -0.7100 -1.5521
  240MOL0     H32373  13.544  -0.776   6.778  1.9209 -0.7057  2.1221
  240MOL0     H32374  13.540  -0.590   7.026  0.9766  2.3198 -2.1025
  240MOL0     H32375  13.615  -0.748   6.997 -1.5634 -0.4680 -1.1695
  240MOL0     H32376  13.790  -0.576   7.013  0.2195  1.6397 -0.3985
  240MOL0     H32377  13.698  -0.477   6.910 -4.1997 -0.3177  2.7453
  240MOL0     H32378  13.764  -0.611   6.698 -0.4995  1.5401  0.4247
  240MOL0     H32379  13.898  -0.545   6.782 -1.8499  1.5935  1.0367
  240MOL0     H32380  12.923  -0.226   6.956  0.2658 -0.5186  0.0385
  240MOL0     H32381  12.725  -0.091   6.991 -1.3607  1.4470 -0.4181
  240MOL0     H32382  12.369   0.192   6.695  0.8508 -0.1962  0.3358
  240MOL0     H32383  12.180   0.347   6.759 -1.5411  0.7866 -0.5568
  240MOL0     H32384  10.696   0.727   7.367 -0.2045  1.1313  0.3237
  240MOL0     H32385  10.467   0.647   7.449  0.0014  1.0406 -0.2543
  240MOL0     H32386  10.169   0.636   7.732  1.9557 -0.8017 -1.2802
  240MOL0     H32387   9.934   0.573   7.798 -1.6210 -2.2253  0.2790
  240MOL0     H32388   9.780   0.493   7.925 -1.7843 -0.6372  0.3449
  240MOL0     H32389   9.679   0.352   7.945  0.1333  3.2825  3.2411
  240MOL0     H32390   9.665   0.313   7.705 -0.1111  0.1506  0.9015
  240MOL0     H32391   9.752   0.476   7.682  1.8107  0.1633  1.4817
  240MOL0     H32392   9.476   0.408   7.815 -0.1276  0.3446  0.9831
  240MOL0     H32393   9.489   0.458   7.653 -0.4990 -2.8890 -0.1367
  240MOL0     H32394   9.586   0.611   7.909  1.0961 -0.1110 -0.9408
  240MOL0     H32395   9.611   0.666   7.741 -0.2163 -0.9299 -0.7918
  240MOL0     H32396   9.195   0.741   7.834 -0.5114 -2.7362 -0.4720
  240MOL0     H32397  10.069   0.161   7.823  3.6894 -0.2342  1.6575
  240MOL0     H32398  10.403   0.201   7.706  0.4209 -2.6200  0.0655
  240MOL0     H32399  10.296   0.113   7.805 -1.1176 -0.8667 -0.3814
  240MOL0     H32400  10.259   0.119   7.632  1.6929 -1.2871 -0.0753
  241MOL0     O32401   3.220   6.479   9.526  0.9991 -0.3271 -0.1733
  241MOL0     C32402   3.118   6.419   9.549 -0.3966  0.5475  0.4106
  241MOL0     O32403   3.113   6.291   9.600  0.4570  0.6114  0.1884
  241MOL0     C32404   3.220   6.209   9.576 -0.7745 -0.8232  0.0504
  241MOL0     C32405   3.278   6.141   9.677  0.3262 -0.2921 -0.4325
  241MOL0     C32406   3.388   6.053   9.646 -0.3655  0.0608  0.0499
  241MOL0     C32407   3.440   6.035   9.522 -1.7220  0.1069  0.1990
  241MOL0     O32408   3.543   5.948   9.491  0.1497  0.6154 -0.8024
  241MOL0     C32409   3.625   5.879   9.597 -0.0496  0.1456  0.7782
  241MOL0     C32410   3.781   5.893   9.550  0.0783  1.0202 -0.4988
  241MOL0     C32411   3.800   5.971   9.423  0.3920  0.4345 -0.6260
  241MOL0     C32412   3.942   5.959   9.368 -0.1825 -0.2215  0.1369
  241MOL0     C32413   4.053   6.049   9.417  0.0589 -0.1812  0.4420
  241MOL0     C32414   4.179   6.034   9.339  0.4067  0.4422  0.3378
  241MOL0     C32415   4.277   6.128   9.401 -0.1879 -0.0984  0.3637
  241MOL0     C32416   4.397   6.132   9.313  0.4859  0.0738 -0.0656
  241MOL0     N32417   4.476   6.245   9.357  0.2859  0.7355 -0.1052
  241MOL0     C32418   4.587   6.242   9.439 -0.4943 -0.0494  0.7417
  241MOL0     C32419   4.606   6.377   9.464  0.0092  0.8980  0.1584
  241MOL0     C32420   4.717   6.425   9.561  0.0213  0.0451 -0.0403
  241MOL0     C32421   4.851   6.459   9.500  0.0096 -0.4075  0.3984
  241MOL0     C32422   4.959   6.475   9.613 -0.9384 -0.4744  0.1140
  241MOL0     C32423   5.082   6.547   9.563  0.9199  0.1844 -0.3762
  241MOL0     O32424   5.190   6.524   9.657  0.1392 -0.8004  0.1370
  241MOL0     C32425   5.313   6.575   9.626 -0.6621  0.3743  0.2393
  241MOL0     C32426   5.343   6.664   9.523  0.3952  0.1483  0.0213
  241MOL0     C32427   5.470   6.705   9.497 -0.1378  0.2521 -1.3127
  241MOL0     C32428   5.574   6.660   9.579 -0.1540  0.0971 -0.2328
  241MOL0     C32429   5.706   6.713   9.551 -0.6096  0.6516  0.0845
  241MOL0     O32430   5.719   6.767   9.433 -0.2266 -0.1160 -0.2403
  241MOL0     C32431   5.846   6.813   9.408  0.7080  0.5323  0.2190
  241MOL0     C32432   5.900   6.928   9.464  0.7315  0.8346  0.8659
  241MOL0     C32433   6.010   6.993   9.419 -0.6196  0.0958 -0.1578
  241MOL0     C32434   6.084   6.939   9.310  0.1789  0.2431  0.1794
  241MOL0     O32435   6.200   6.997   9.257 -0.0643  0.4499  0.6489
  241MOL0     C32436   6.203   7.138   9.242  0.3312  0.0427 -0.7507
  241MOL0     C32437   6.297   7.166   9.125  0.1727  0.0584  0.3734
  241MOL0     C32438   6.441   7.107   9.145 -0.9421  0.0135  0.3391
  241MOL0     C32439   6.500   7.147   9.282 -0.3456  0.0609 -0.2615
  241MOL0     C32440   6.647   7.108   9.297  0.6052 -0.2832 -0.2375
  241MOL0     C32441   6.731   7.196   9.203 -0.5579  0.5706 -0.1172
  241MOL0     C32442   6.876   7.210   9.242  0.0118  0.0972 -0.0732
  241MOL0     C32443   6.900   7.332   9.324  0.5346  0.6382  0.4644
  241MOL0    Cl32444   7.074   7.329   9.379  0.3427  0.1745  0.5681
  241MOL0     C32445   6.041   6.821   9.250 -0.3183 -0.9581 -0.2950
  241MOL0     C32446   5.921   6.762   9.298  0.6581 -0.0867  0.1367
  241MOL0     O32447   5.798   6.682   9.632 -0.6610 -0.4520 -0.2755
  241MOL0     C32448   5.546   6.590   9.696 -0.1480  0.0271 -0.7899
  241MOL0     C32449   5.415   6.539   9.709 -0.6942 -0.5396 -1.1623
  241MOL0     N32450   4.510   6.442   9.392 -0.7080 -0.1484  0.2147
  241MOL0     N32451   4.448   6.369   9.315 -0.4128  0.2832  0.4232
  241MOL0     C32452   3.381   6.100   9.420  0.1732 -0.1964  0.1248
  241MOL0     C32453   3.274   6.197   9.443  0.0450 -0.1618 -0.4072
  241MOL0     C32454   2.988   6.494   9.529 -0.0172 -0.4911 -0.3951
  241MOL0     C32455   2.870   6.433   9.581  0.3304  0.6695  0.7112
  241MOL0     C32456   2.745   6.494   9.564  0.3810 -0.2536  0.0216
  241MOL0     C32457   2.732   6.611   9.494 -0.1638 -0.2103  0.2648
  241MOL0     O32458   2.606   6.664   9.492 -0.0907  0.7830  0.1166
  241MOL0     C32459   2.593   6.797   9.461 -0.3712  0.3879  0.2459
  241MOL0     C32460   2.446   6.825   9.501 -0.1894 -0.1404  0.3429
  241MOL0     C32461   2.440   6.831   9.659 -0.5078 -0.0401  0.4986
  241MOL0     C32462   2.316   6.895   9.721  0.4302  0.0822  0.3487
  241MOL0     C32463   2.201   6.821   9.682 -0.1372 -0.0898  0.2306
  241MOL0     C32464   2.103   6.763   9.644 -0.6876 -1.3573  0.4944
  241MOL0     C32465   2.843   6.667   9.435 -0.7573 -0.0675  0.1636
  241MOL0     C32466   2.969   6.605   9.442 -1.0152  0.1646  0.1321
  241MOL0     C32467   3.080   6.672   9.365  0.0338 -0.1711  0.2327
  241MOL0     H32468   3.230   6.148   9.774  1.5724  2.1436  0.0677
  241MOL0     H32469   3.423   6.001   9.735 -0.7833  1.1147  0.8557
  241MOL0     H32470   3.625   5.937   9.690  1.1002  0.3162  0.6836
  241MOL0     H32471   3.595   5.777   9.620  0.4810  0.2220  1.8591
  241MOL0     H32472   3.820   5.792   9.533  0.8006  1.4077 -1.1692
  241MOL0     H32473   3.847   5.943   9.622  1.6645  2.8678 -3.1089
  241MOL0     H32474   3.782   6.075   9.452  0.4195 -0.4346  2.9185
  241MOL0     H32475   3.728   5.942   9.346 -0.1052  0.0454 -0.0212
  241MOL0     H32476   3.973   5.855   9.382  1.7075  0.0955 -1.3542
  241MOL0     H32477   3.920   5.963   9.261  1.1855 -0.9952 -0.2034
  241MOL0     H32478   4.018   6.153   9.420  0.2466 -0.0951 -0.2311
  241MOL0     H32479   4.067   6.021   9.522 -0.0512  0.5322  0.6573
  241MOL0     H32480   4.219   5.934   9.359 -1.5711 -0.0206  2.4535
  241MOL0     H32481   4.167   6.043   9.231 -0.4448 -2.6741  0.0810
  241MOL0     H32482   4.304   6.090   9.501  1.3438  0.4927  0.2101
  241MOL0     H32483   4.227   6.225   9.400 -0.1898  0.0715 -4.1454
  241MOL0     H32484   4.447   6.035   9.325 -1.2292 -0.5323  3.3450
  241MOL0     H32485   4.365   6.140   9.209 -0.2343 -2.4472 -0.1108
  241MOL0     H32486   4.637   6.160   9.488 -1.3933 -0.9142  0.2355
  241MOL0     H32487   4.691   6.519   9.609  1.5679 -0.1524  1.2818
  241MOL0     H32488   4.719   6.350   9.641 -1.5937 -1.7588 -1.5834
  241MOL0     H32489   4.896   6.377   9.444  1.1442  1.1024 -1.0012
  241MOL0     H32490   4.837   6.545   9.433  0.8134  0.4077  1.2505
  241MOL0     H32491   4.993   6.388   9.669  0.4465  1.0398  1.7698
  241MOL0     H32492   4.921   6.543   9.689  3.8459  2.7939  0.0339
  241MOL0     H32493   5.060   6.653   9.548  0.3275  0.0012 -0.8138
  241MOL0     H32494   5.107   6.510   9.463 -1.2587  1.3568 -1.4260
  241MOL0     H32495   5.264   6.705   9.461  2.4996  0.2615 -2.7674
  241MOL0     H32496   5.491   6.780   9.421 -3.3105  2.2847 -0.3872
  241MOL0     H32497   5.844   6.982   9.540 -1.8914 -1.1732  0.5127
  241MOL0     H32498   6.040   7.085   9.469  1.1668  0.1967 -1.3172
  241MOL0     H32499   6.114   7.179   9.192  0.3492 -1.1732 -1.8276
  241MOL0     H32500   6.215   7.189   9.338 -2.2061 -2.0238  0.7989
  241MOL0     H32501   6.254   7.136   9.029 -2.1094 -0.9030  1.6451
  241MOL0     H32502   6.306   7.275   9.128 -1.4274  0.1888  1.8810
  241MOL0     H32503   6.438   6.998   9.136 -0.8689 -0.0901  1.4213
  241MOL0     H32504   6.507   7.143   9.066  0.9827 -1.6504  1.1090
  241MOL0     H32505   6.454   7.086   9.361  1.9474  1.0110  1.9628
  241MOL0     H32506   6.493   7.254   9.304  2.1124 -0.0403  1.4667
  241MOL0     H32507   6.662   7.002   9.278 -2.4918 -0.5467 -1.8471
  241MOL0     H32508   6.681   7.143   9.395  1.2804  3.0454 -1.5079
  241MOL0     H32509   6.724   7.146   9.106  4.0293  0.9605 -0.8483
  241MOL0     H32510   6.686   7.295   9.199 -0.4726  0.5963 -0.4661
  241MOL0     H32511   6.941   7.223   9.154  0.3684  1.5666  0.3814
  241MOL0     H32512   6.916   7.119   9.287 -2.6208 -2.5980 -2.6956
  241MOL0     H32513   6.878   7.416   9.256  0.5528  0.5243  0.3175
  241MOL0     H32514   6.830   7.329   9.409  0.7832  0.8903  0.6793
  241MOL0     H32515   6.100   6.784   9.166  1.3936  1.8228 -0.4536
  241MOL0     H32516   5.876   6.676   9.250  1.8316 -0.8873  0.4238
  241MOL0     H32517   5.622   6.571   9.771 -2.0363 -0.1455  1.1758
  241MOL0     H32518   5.393   6.472   9.792 -2.0860 -0.9268 -1.8120
  241MOL0     H32519   3.422   6.081   9.321  3.1827  1.1501  0.9844
  241MOL0     H32520   3.226   6.255   9.366 -1.1165  0.0452  0.4474
  241MOL0     H32521   2.873   6.344   9.642 -3.1244 -0.4315 -0.4749
  241MOL0     H32522   2.667   6.461   9.631  0.1973 -1.0597 -0.5756
  241MOL0     H32523   2.603   6.820   9.354 -1.7025  0.1721  0.0631
  241MOL0     H32524   2.664   6.868   9.505 -1.7247  1.6366  0.4773
  241MOL0     H32525   2.381   6.753   9.450 -0.7519  1.5820 -1.4994
  241MOL0     H32526   2.404   6.918   9.463  0.4311  0.2664  0.6255
  241MOL0     H32527   2.517   6.902   9.693 -1.0876  1.1239 -0.5435
  241MOL0     H32528   2.468   6.731   9.693 -0.8059 -0.9598 -1.7985
  241MOL0     H32529   2.310   6.892   9.830 -1.7337  1.2917  0.3250
  241MOL0     H32530   2.294   6.998   9.692 -2.4301 -0.3974  0.5284
  241MOL0     H32531   2.016   6.718   9.600 -0.5726 -0.6206 -0.5253
  241MOL0     H32532   2.838   6.755   9.372  0.8865 -1.5387 -2.1992
  241MOL0     H32533   3.048   6.733   9.280  1.5154  0.0141 -0.2194
  241MOL0     H32534   3.145   6.731   9.430  1.4733 -0.7795 -0.6116
  241MOL0     H32535   3.144   6.602   9.309 -0.9688  0.1710 -1.4080
  242MOL0     O32536   3.729   2.958   5.284  0.5119  0.4828  0.0391
  242MOL0     C32537   3.641   2.894   5.335  0.4575  0.9404 -0.7929
  242MOL0     O32538   3.656   2.778   5.417 -0.5493  0.4351 -0.0333
  242MOL0     C32539   3.773   2.737   5.473  0.0590 -0.4387  0.1380
  242MOL0     C32540   3.767   2.626   5.553 -0.2475  0.8993  0.2868
  242MOL0     C32541   3.873   2.581   5.628  1.1178 -0.7736 -0.0386
  242MOL0     C32542   3.995   2.644   5.626 -0.7672 -0.0158 -1.2319
  242MOL0     O32543   4.107   2.598   5.692  0.0688 -0.2546 -0.2598
  242MOL0     C32544   4.085   2.528   5.809 -0.4702 -0.9913 -0.1560
  242MOL0     C32545   4.212   2.502   5.883  0.0254  0.2765 -0.2402
  242MOL0     C32546   4.312   2.412   5.803  0.0291 -0.0778  0.4457
  242MOL0     C32547   4.405   2.333   5.899 -0.5033  0.5098 -0.1983
  242MOL0     C32548   4.523   2.287   5.809 -0.0499  0.1466  1.0343
  242MOL0     C32549   4.638   2.247   5.891  0.2146  0.2977  0.6510
  242MOL0     C32550   4.755   2.200   5.815 -0.2048  0.5476 -0.2306
  242MOL0     C32551   4.727   2.064   5.742 -0.2229 -0.0615 -0.1563
  242MOL0     N32552   4.845   2.031   5.672 -0.1842 -0.1244  0.5251
  242MOL0     C32553   4.973   2.020   5.715  0.0125 -0.5964 -0.0724
  242MOL0     C32554   5.054   2.000   5.606 -0.4626  0.2630 -1.1731
  242MOL0     C32555   5.206   1.992   5.615 -0.4173  0.7214 -0.1341
  242MOL0     C32556   5.268   2.124   5.642 -0.3982  0.1522 -0.0782
  242MOL0     C32557   5.427   2.119   5.642 -0.2372 -0.1001 -0.0224
  242MOL0     C32558   5.491   2.245   5.698  0.0521 -0.1866 -0.3741
  242MOL0     O32559   5.460   2.261   5.837  0.7563  0.2836 -0.1605
  242MOL0     C32560   5.545   2.331   5.915 -0.9336  0.1242  0.1334
  242MOL0     C32561   5.637   2.423   5.858  0.1711 -0.0507 -0.6665
  242MOL0     C32562   5.716   2.504   5.948 -0.4027 -0.3562 -0.7925
  242MOL0     C32563   5.721   2.485   6.085  0.3150 -0.1688 -0.5598
  242MOL0     C32564   5.813   2.551   6.174  0.2001 -0.3292  0.0141
  242MOL0     O32565   5.932   2.592   6.117 -0.6791  0.4199  0.6149
  242MOL0     C32566   6.047   2.625   6.183  0.6559  0.3457 -0.3151
  242MOL0     C32567   6.153   2.641   6.094  0.0568 -0.0606 -0.5201
  242MOL0     C32568   6.272   2.677   6.155 -0.5371 -0.1442  0.1536
  242MOL0     C32569   6.293   2.699   6.292  0.3339 -0.0407 -0.0496
  242MOL0     O32570   6.411   2.739   6.349  0.2104 -0.1998 -0.5583
  242MOL0     C32571   6.535   2.725   6.276  1.1250 -1.0863  0.6016
  242MOL0     C32572   6.654   2.801   6.339 -0.2781 -0.4776  0.0614
  242MOL0     C32573   6.620   2.929   6.417 -0.9066  0.8001 -1.2256
  242MOL0     C32574   6.743   2.976   6.501 -0.1111  0.1238  0.6879
  242MOL0     C32575   6.702   3.103   6.567 -0.6169  0.4246 -0.0566
  242MOL0     C32576   6.818   3.159   6.658 -0.5909  0.2454  0.6891
  242MOL0     C32577   6.889   3.268   6.575 -0.3440  0.4951  0.2819
  242MOL0     C32578   6.810   3.401   6.583 -0.0751 -0.1020 -0.4037
  242MOL0    Cl32579   6.895   3.534   6.515  0.1645  0.3091  0.0316
  242MOL0     C32580   6.182   2.674   6.373 -0.0347 -0.7598  0.0492
  242MOL0     C32581   6.058   2.642   6.318 -1.0062 -0.2405 -0.6395
  242MOL0     O32582   5.783   2.546   6.294 -0.3200 -0.0884 -0.1741
  242MOL0     C32583   5.619   2.392   6.139 -0.3415 -0.2258 -0.5003
  242MOL0     C32584   5.542   2.315   6.052  0.6862 -1.4245 -0.3044
  242MOL0     N32585   4.978   1.982   5.496 -0.7274  0.2285  0.1605
  242MOL0     N32586   4.851   2.012   5.535  0.2746  0.1267 -0.1113
  242MOL0     C32587   4.013   2.759   5.555 -0.1798 -0.0821  0.6378
  242MOL0     C32588   3.908   2.801   5.470 -0.0662  0.1051  0.0232
  242MOL0     C32589   3.496   2.927   5.307 -0.0776  0.3065 -0.6761
  242MOL0     C32590   3.435   3.034   5.381  0.2957  0.2259  0.2041
  242MOL0     C32591   3.313   3.082   5.338 -0.2173 -0.7080  0.3255
  242MOL0     C32592   3.253   3.024   5.231  1.2803 -0.4334 -0.2606
  242MOL0     O32593   3.125   3.083   5.206 -1.1887 -0.4029 -0.1789
  242MOL0     C32594   3.049   3.036   5.094  0.7091 -0.5225  0.9918
  242MOL0     C32595   2.983   3.160   5.010 -0.7457 -0.0983  0.3571
  242MOL0     C32596   2.920   3.260   5.111 -0.2829 -0.6569  0.7471
  242MOL0     C32597   2.823   3.202   5.209 -0.1244  1.1969  0.7574
  242MOL0     C32598   2.700   3.151   5.147 -1.0017 -0.0549 -0.6927
  242MOL0     C32599   2.601   3.104   5.099 -0.9120 -0.2344 -0.6368
  242MOL0     C32600   3.297   2.903   5.179 -0.5469 -0.4164  0.5666
  242MOL0     C32601   3.417   2.850   5.223  0.0687  0.0208 -0.7643
  242MOL0     C32602   3.456   2.713   5.162 -0.0245 -0.1293  0.1010
  242MOL0     H32603   3.673   2.571   5.558 -0.4206  1.0355 -1.0078
  242MOL0     H32604   3.863   2.490   5.686 -0.7553 -0.9299 -0.5429
  242MOL0     H32605   4.023   2.596   5.867  1.2861 -0.7111  1.5118
  242MOL0     H32606   4.032   2.434   5.791 -1.3065 -0.3084 -1.4564
  242MOL0     H32607   4.199   2.463   5.985  0.2005  0.0991 -0.2857
  242MOL0     H32608   4.259   2.598   5.908  0.6033 -0.6474  2.7445
  242MOL0     H32609   4.358   2.483   5.734  2.5106 -2.0759 -0.0671
  242MOL0     H32610   4.245   2.350   5.742 -0.8167  2.0441 -0.8905
  242MOL0     H32611   4.442   2.389   5.986  0.1610 -0.8957  0.4667
  242MOL0     H32612   4.363   2.238   5.934 -0.8817 -0.3309 -2.7667
  242MOL0     H32613   4.494   2.205   5.743 -1.1516  1.2739  0.0799
  242MOL0     H32614   4.554   2.365   5.739 -1.5924 -1.4951 -1.6391
  242MOL0     H32615   4.672   2.334   5.948  0.7603  1.8085 -1.8501
  242MOL0     H32616   4.608   2.166   5.958 -0.3475  0.1180  0.1952
  242MOL0     H32617   4.830   2.162   5.885  0.2476  0.3522 -0.8124
  242MOL0     H32618   4.796   2.272   5.743  0.0593  1.4442  0.7778
  242MOL0     H32619   4.692   1.977   5.798 -0.9721  0.5766  0.3907
  242MOL0     H32620   4.652   2.077   5.662 -0.5440  2.0361  0.4171
  242MOL0     H32621   4.997   2.045   5.818  0.1299  0.2004 -0.2907
  242MOL0     H32622   5.232   1.917   5.689 -1.4838  0.1873 -0.2868
  242MOL0     H32623   5.242   1.951   5.520 -3.3509  0.2551 -1.1610
  242MOL0     H32624   5.233   2.197   5.568  1.2128  1.2424  0.1707
  242MOL0     H32625   5.230   2.160   5.738 -2.0616 -0.0066 -0.6480
  242MOL0     H32626   5.450   2.110   5.535 -0.1231  0.2303 -0.0283
  242MOL0     H32627   5.464   2.030   5.693 -0.3530 -0.8904 -1.2712
  242MOL0     H32628   5.443   2.334   5.656 -1.2227 -0.0223  1.3571
  242MOL0     H32629   5.599   2.246   5.681 -0.0436  2.4020 -1.2782
  242MOL0     H32630   5.644   2.453   5.754 -2.7714 -2.1609 -1.6110
  242MOL0     H32631   5.785   2.574   5.901  2.5040 -1.7866  1.0837
  242MOL0     H32632   6.138   2.642   5.987 -0.6692 -3.7421 -0.5532
  242MOL0     H32633   6.350   2.691   6.081 -1.2726  1.8907 -0.2939
  242MOL0     H32634   6.564   2.621   6.259 -0.0702 -1.5248  1.1387
  242MOL0     H32635   6.524   2.771   6.177 -2.4499 -3.4046 -0.2477
  242MOL0     H32636   6.687   2.734   6.418 -2.9101  0.2530  1.9513
  242MOL0     H32637   6.738   2.813   6.271  0.7181 -2.2664  0.9243
  242MOL0     H32638   6.603   3.012   6.347  1.7394  5.1244  2.7023
  242MOL0     H32639   6.532   2.922   6.481  0.2239 -1.3602  0.2317
  242MOL0     H32640   6.825   2.982   6.429  0.6428 -1.6024  1.3501
  242MOL0     H32641   6.772   2.902   6.576 -1.4086 -1.4481 -0.2691
  242MOL0     H32642   6.625   3.059   6.631 -1.0621  0.6106 -0.4644
  242MOL0     H32643   6.660   3.174   6.495 -0.9951  0.3747  0.1157
  242MOL0     H32644   6.793   3.202   6.755  4.5141 -1.0466  2.8864
  242MOL0     H32645   6.877   3.073   6.692 -0.2120  0.3982  0.4219
  242MOL0     H32646   6.920   3.244   6.473  3.5426 -3.0843  2.0103
  242MOL0     H32647   6.987   3.285   6.622 -0.3238  0.1614  0.3624
  242MOL0     H32648   6.712   3.385   6.538 -0.1589 -0.4787 -0.0843
  242MOL0     H32649   6.791   3.425   6.688  0.5136  0.7031 -0.4642
  242MOL0     H32650   6.190   2.697   6.478  5.9627 -1.2946  0.0314
  242MOL0     H32651   5.977   2.642   6.390 -0.3031  2.4287  0.2653
  242MOL0     H32652   5.614   2.379   6.246 -0.9074 -0.3773 -0.5462
  242MOL0     H32653   5.469   2.244   6.088  0.6278 -0.8257  0.8051
  242MOL0     H32654   4.104   2.819   5.549 -1.1117  1.6807  2.9401
  242MOL0     H32655   3.929   2.884   5.405 -1.0814 -0.6671 -1.3416
  242MOL0     H32656   3.490   3.092   5.455 -0.0340  2.1116 -0.9832
  242MOL0     H32657   3.261   3.159   5.394  0.9646  1.0522 -0.9105
  242MOL0     H32658   2.972   2.970   5.134 -0.9735  1.5021  1.3176
  242MOL0     H32659   3.100   2.990   5.009 -3.5717  0.0403 -2.2749
  242MOL0     H32660   2.899   3.127   4.947 -0.5070 -0.7266  0.3545
  242MOL0     H32661   3.059   3.216   4.955 -0.0434 -1.3013  0.0427
  242MOL0     H32662   2.878   3.344   5.055 -0.4785 -2.2146 -1.5549
  242MOL0     H32663   3.007   3.298   5.166  0.0965 -0.5296  0.0802
  242MOL0     H32664   2.873   3.130   5.274  1.4826  0.2451 -1.3907
  242MOL0     H32665   2.786   3.282   5.273 -1.9895  3.3970 -2.7357
  242MOL0     H32666   2.513   3.047   5.077 -0.1961 -2.3472  1.5188
  242MOL0     H32667   3.238   2.844   5.110  0.3430 -0.2238 -0.3846
  242MOL0     H32668   3.436   2.724   5.055  0.0108 -0.3332  0.0726
  242MOL0     H32669   3.565   2.699   5.166 -0.3427 -2.7244  2.4041
  242MOL0     H32670   3.402   2.629   5.206 -0.7351  0.9981  1.4625
  243MOL0     O32671   0.955   0.422   1.627 -0.5787  0.7070  0.3306
  243MOL0     C32672   0.858   0.372   1.685  0.0762  0.7847  0.7931
  243MOL0     O32673   0.848   0.341   1.818 -0.4693  0.0726 -0.1463
  243MOL0     C32674   0.927   0.423   1.893 -0.3610  0.4432  0.1014
  243MOL0     C32675   1.061   0.393   1.911  0.8566  0.5347  0.4350
  243MOL0     C32676   1.148   0.470   1.989 -0.6505 -0.7294  0.2731
  243MOL0     C32677   1.101   0.584   2.049 -0.1415 -0.2231  0.1999
  243MOL0     O32678   1.186   0.666   2.136  0.2850 -0.3038  0.1766
  243MOL0     C32679   1.187   0.808   2.109  0.1818 -0.8220 -0.0951
  243MOL0     C32680   1.218   0.894   2.236  0.6095 -0.0924  0.2990
  243MOL0     C32681   1.366   0.879   2.281  0.4349  0.8952  0.2973
  243MOL0     C32682   1.426   0.989   2.367  0.4258 -0.7021 -1.1995
  243MOL0     C32683   1.576   0.957   2.386 -0.0235  0.2773  0.0487
  243MOL0     C32684   1.640   1.054   2.479 -0.1262 -0.2088 -0.3430
  243MOL0     C32685   1.773   1.016   2.542  0.2758 -0.1520  0.3136
  243MOL0     C32686   1.881   0.965   2.440  0.0422 -0.0142  0.0370
  243MOL0     N32687   2.004   0.923   2.506  0.0383  0.1734  0.0979
  243MOL0     C32688   2.080   0.999   2.603  0.0759 -0.4589  0.1160
  243MOL0     C32689   2.173   0.919   2.659 -0.4944  0.6679  0.2025
  243MOL0     C32690   2.275   0.950   2.773 -0.3357  0.2623 -0.0230
  243MOL0     C32691   2.381   0.832   2.787 -0.5291  0.1768 -1.1438
  243MOL0     C32692   2.484   0.830   2.680 -1.2292 -0.6759 -0.0724
  243MOL0     C32693   2.621   0.772   2.728 -0.3491  0.8639 -0.0463
  243MOL0     O32694   2.671   0.843   2.846  0.3824 -0.2289  0.2649
  243MOL0     C32695   2.785   0.792   2.900 -0.3478 -0.2695 -0.0134
  243MOL0     C32696   2.862   0.685   2.859  0.3585  0.3924  0.0509
  243MOL0     C32697   2.986   0.659   2.921  0.4791  0.1214  0.3681
  243MOL0     C32698   3.038   0.751   3.012 -0.6313 -0.3180  0.1779
  243MOL0     C32699   3.166   0.727   3.079  0.5170  0.0042  0.5031
  243MOL0     O32700   3.214   0.825   3.152 -0.4475 -0.1111  0.3037
  243MOL0     C32701   3.339   0.810   3.203 -0.6625  0.2250 -0.8285
  243MOL0     C32702   3.369   0.884   3.324 -0.1606 -0.0594  0.4144
  243MOL0     C32703   3.494   0.897   3.369 -0.4433 -0.8415  0.3309
  243MOL0     C32704   3.610   0.840   3.313  0.3260  0.6882  1.1146
  243MOL0     O32705   3.735   0.862   3.353 -0.2623 -0.5701 -0.1132
  243MOL0     C32706   3.761   0.960   3.454  0.5044 -0.3539 -0.2075
  243MOL0     C32707   3.912   0.974   3.453 -0.1256 -0.1659 -0.1000
  243MOL0     C32708   3.988   0.851   3.485  0.4712 -0.3895 -0.3040
  243MOL0     C32709   4.133   0.872   3.510  0.1026  0.2667 -0.3713
  243MOL0     C32710   4.198   0.737   3.539 -0.3202 -0.1431  0.2285
  243MOL0     C32711   4.332   0.750   3.607 -0.4873  0.1200 -0.4689
  243MOL0     C32712   4.416   0.622   3.587 -0.0246  0.1914 -0.2292
  243MOL0     C32713   4.556   0.658   3.555 -0.2938 -1.2119  0.0556
  243MOL0    Cl32714   4.558   0.732   3.384  0.6462  0.1110  0.4453
  243MOL0     C32715   3.584   0.752   3.194  0.1795  0.1428 -0.9455
  243MOL0     C32716   3.453   0.743   3.148  0.3016 -0.7076 -0.3759
  243MOL0     O32717   3.206   0.615   3.067 -0.5281 -0.1006 -0.0625
  243MOL0     C32718   2.956   0.861   3.055 -0.4962 -0.1310 -0.2111
  243MOL0     C32719   2.839   0.874   2.997 -0.5165 -0.9599 -0.5526
  243MOL0     N32720   2.152   0.793   2.603  0.5363 -0.1522  0.2139
  243MOL0     N32721   2.056   0.795   2.507  0.0831 -0.2104 -0.3816
  243MOL0     C32722   0.967   0.621   2.033  0.9741  0.7327  0.7710
  243MOL0     C32723   0.877   0.537   1.955  0.0605  0.0060 -0.4486
  243MOL0     C32724   0.744   0.332   1.595 -0.3024  0.4216  0.7336
  243MOL0     C32725   0.767   0.304   1.458 -0.5960 -0.9085 -0.8065
  243MOL0     C32726   0.665   0.273   1.372 -0.7740 -0.8671 -0.1464
  243MOL0     C32727   0.540   0.258   1.416  0.2477 -0.7492  0.4330
  243MOL0     O32728   0.443   0.218   1.327  0.2241 -0.8803  0.5485
  243MOL0     C32729   0.312   0.215   1.386 -0.3001 -0.6696  0.0953
  243MOL0     C32730   0.215   0.164   1.280  0.3840 -0.2276  0.2737
  243MOL0     C32731   0.076   0.234   1.297  0.8402  1.0873 -0.2103
  243MOL0     C32732  -0.027   0.183   1.202  0.1209  0.4699 -0.1282
  243MOL0     C32733  -0.158   0.166   1.264  0.0826  0.2703 -0.2806
  243MOL0     C32734  -0.265   0.158   1.323 -0.2177  0.0957  0.5481
  243MOL0     C32735   0.517   0.290   1.551  0.3176  0.2094  0.3875
  243MOL0     C32736   0.613   0.327   1.643  0.3007  1.0853  0.2810
  243MOL0     C32737   0.564   0.370   1.777 -0.5859  1.1536 -0.1791
  243MOL0     H32738   1.087   0.300   1.861 -0.2878  0.4689 -0.0555
  243MOL0     H32739   1.250   0.435   1.995 -0.5034 -0.4265 -0.3129
  243MOL0     H32740   1.264   0.828   2.035 -0.9942 -0.1680 -1.1894
  243MOL0     H32741   1.092   0.835   2.061  0.7121 -0.5235 -0.9934
  243MOL0     H32742   1.141   0.862   2.306 -1.4539  0.3671 -1.6177
  243MOL0     H32743   1.199   1.000   2.215 -0.7854 -0.4386 -0.3340
  243MOL0     H32744   1.432   0.861   2.196  1.7021  1.1588  1.1932
  243MOL0     H32745   1.362   0.794   2.349 -3.3288  0.7378  0.1293
  243MOL0     H32746   1.419   1.082   2.309 -0.7067  0.9939  1.4578
  243MOL0     H32747   1.374   0.996   2.463  2.2365  1.5222 -0.3056
  243MOL0     H32748   1.593   0.854   2.419  0.9495  0.8038  1.2390
  243MOL0     H32749   1.622   0.970   2.287 -2.0129 -3.6463 -1.6506
  243MOL0     H32750   1.651   1.153   2.433 -0.4637 -0.4591 -0.9746
  243MOL0     H32751   1.576   1.061   2.568  2.3823 -1.8619  1.7263
  243MOL0     H32752   1.754   0.933   2.611  1.9557 -0.0575  0.9385
  243MOL0     H32753   1.814   1.096   2.605 -2.2835  0.2274  1.6259
  243MOL0     H32754   1.842   0.878   2.386  1.7438 -1.0306  0.3743
  243MOL0     H32755   1.909   1.045   2.370  0.0342 -1.6296 -1.8987
  243MOL0     H32756   2.059   1.102   2.629 -4.0057 -0.9900 -0.4537
  243MOL0     H32757   2.324   1.045   2.751  0.6289 -0.8121 -2.9239
  243MOL0     H32758   2.227   0.952   2.872 -2.2656 -0.2432 -0.8872
  243MOL0     H32759   2.421   0.829   2.889 -2.4902 -1.4877 -0.3560
  243MOL0     H32760   2.324   0.739   2.783 -0.2792 -0.0561  0.3472
  243MOL0     H32761   2.500   0.933   2.644 -1.5251  1.1539  4.3852
  243MOL0     H32762   2.460   0.777   2.588  0.4604  0.6488 -1.3623
  243MOL0     H32763   2.699   0.772   2.651  0.2100 -1.9069  0.4113
  243MOL0     H32764   2.596   0.667   2.747  2.3319 -0.0134 -0.8451
  243MOL0     H32765   2.830   0.614   2.784  0.7146  1.6553 -1.3374
  243MOL0     H32766   3.054   0.580   2.891  0.4116  0.3044 -0.2955
  243MOL0     H32767   3.278   0.922   3.369 -0.8967 -1.4686  0.1351
  243MOL0     H32768   3.505   0.954   3.461 -3.0191  2.6562 -1.3191
  243MOL0     H32769   3.714   1.056   3.435  1.8566 -0.0351 -2.3663
  243MOL0     H32770   3.729   0.914   3.548 -0.9035 -0.9596 -0.9509
  243MOL0     H32771   3.925   1.013   3.351 -0.8455  0.8445  0.1792
  243MOL0     H32772   3.936   1.051   3.527 -0.8953  2.0145 -1.9875
  243MOL0     H32773   3.945   0.812   3.577 -0.1389 -0.3510 -0.5701
  243MOL0     H32774   3.978   0.785   3.398  0.0446 -1.5541  0.6213
  243MOL0     H32775   4.145   0.940   3.595  4.3747  0.2106 -0.6959
  243MOL0     H32776   4.174   0.921   3.421 -1.1925  2.8335  0.3260
  243MOL0     H32777   4.203   0.692   3.439  0.2393  0.7461 -0.1545
  243MOL0     H32778   4.135   0.673   3.601  0.9016  0.6349  2.3811
  243MOL0     H32779   4.383   0.835   3.562  1.9016 -2.3672 -2.8042
  243MOL0     H32780   4.311   0.768   3.713  1.2432 -1.3049  0.1607
  243MOL0     H32781   4.378   0.573   3.497  0.2823 -2.6208  1.0587
  243MOL0     H32782   4.416   0.550   3.670  0.2695 -0.9276 -1.1726
  243MOL0     H32783   4.592   0.732   3.627 -0.3695 -2.1588  1.0803
  243MOL0     H32784   4.620   0.571   3.565  0.9698 -0.2970  0.2023
  243MOL0     H32785   3.664   0.698   3.144 -0.6166 -1.8461 -0.1823
  243MOL0     H32786   3.445   0.711   3.045  0.4156  0.6105 -0.8056
  243MOL0     H32787   2.988   0.934   3.129  0.7438  0.0366 -0.8699
  243MOL0     H32788   2.775   0.949   3.043  2.3453  0.7167  1.0034
  243MOL0     H32789   0.923   0.702   2.090 -0.3428  0.6189 -0.0416
  243MOL0     H32790   0.772   0.567   1.947 -0.1543 -0.5929  0.0835
  243MOL0     H32791   0.867   0.306   1.416  0.0875  2.0975  0.6751
  243MOL0     H32792   0.676   0.245   1.268 -2.1054 -1.6530 -0.0877
  243MOL0     H32793   0.281   0.314   1.419 -1.7756 -0.0948 -2.7662
  243MOL0     H32794   0.314   0.153   1.477 -1.5059  1.9168  1.9977
  243MOL0     H32795   0.201   0.059   1.305 -0.6302  0.2078  1.6824
  243MOL0     H32796   0.252   0.164   1.177 -1.2188 -2.9135 -0.3859
  243MOL0     H32797   0.096   0.338   1.269 -0.4988  1.0779 -1.2623
  243MOL0     H32798   0.048   0.227   1.403 -2.8802  2.4498 -0.9852
  243MOL0     H32799  -0.022   0.249   1.115 -1.8192 -0.4711 -1.0163
  243MOL0     H32800   0.002   0.081   1.175 -1.9326 -0.2763  0.2431
  243MOL0     H32801  -0.351   0.130   1.380 -0.7846 -1.1266 -0.8245
  243MOL0     H32802   0.419   0.279   1.597  0.2267  0.7386  0.3247
  243MOL0     H32803   0.562   0.287   1.848 -0.5646  0.6734 -0.7379
  243MOL0     H32804   0.615   0.455   1.822 -0.9139  0.7481  0.9918
  243MOL0     H32805   0.461   0.404   1.764 -1.4672 -1.1449  0.3849
  244MOL0     O32806   5.953   9.791   3.197 -0.4197  0.2412  0.1138
  244MOL0     C32807   5.891   9.697   3.250 -0.8091  0.2921 -0.2345
  244MOL0     O32808   5.942   9.615   3.331  0.2175 -0.1834  0.3001
  244MOL0     C32809   6.046   9.644   3.417  0.2852  0.4393 -0.1262
  244MOL0     C32810   6.123   9.529   3.454  0.2686  0.0633 -0.1945
  244MOL0     C32811   6.233   9.546   3.539 -0.1683  0.8918 -0.1289
  244MOL0     C32812   6.269   9.676   3.583 -0.5462 -0.5344 -0.4656
  244MOL0     O32813   6.372   9.698   3.673  0.0050 -0.6304 -0.7620
  244MOL0     C32814   6.371   9.622   3.793 -0.0124  0.1384  0.5832
  244MOL0     C32815   6.452   9.677   3.908 -0.6426  0.1765 -0.0134
  244MOL0     C32816   6.598   9.697   3.870  0.2323  1.0377  0.5560
  244MOL0     C32817   6.664   9.803   3.965  0.7583  0.1227  0.4321
  244MOL0     C32818   6.647   9.945   3.922  0.6258 -0.5239 -0.0224
  244MOL0     C32819   6.736  10.031   4.013 -0.3846  0.1605  0.5954
  244MOL0     C32820   6.705  10.179   3.999  0.1139  0.6589  0.0585
  244MOL0     C32821   6.777  10.261   4.108  0.4862 -0.4930  0.2887
  244MOL0     N32822   6.918  10.279   4.086 -0.9360  0.1404  0.1432
  244MOL0     C32823   6.975  10.344   3.975 -0.1810  0.3675 -0.1068
  244MOL0     C32824   7.106  10.357   4.009  0.0261  0.2911  0.3109
  244MOL0     C32825   7.207  10.399   3.913  0.1578  0.1935 -0.1626
  244MOL0     C32826   7.283  10.519   3.970  0.0114  0.3182 -0.2455
  244MOL0     C32827   7.387  10.557   3.868 -0.3679  0.5645 -0.5495
  244MOL0     C32828   7.488  10.652   3.938 -0.5714 -0.2103  0.2234
  244MOL0     O32829   7.437  10.784   3.971  0.3913 -0.0253  0.5648
  244MOL0     C32830   7.435  10.884   3.883 -0.1656 -0.6020  0.3901
  244MOL0     C32831   7.378  11.008   3.922 -0.4615 -0.1373 -1.1828
  244MOL0     C32832   7.388  11.125   3.854 -0.1705  0.0810  0.1606
  244MOL0     C32833   7.439  11.123   3.723  0.2993  0.3374 -0.0204
  244MOL0     C32834   7.447  11.247   3.643  0.5622 -1.2345 -0.0239
  244MOL0     O32835   7.479  11.236   3.511 -0.4452 -0.4956  0.6507
  244MOL0     C32836   7.528  11.351   3.457  0.1858 -0.5772  0.0251
  244MOL0     C32837   7.451  11.465   3.422  0.5975 -0.3701 -0.3389
  244MOL0     C32838   7.501  11.580   3.361 -0.4514 -0.5316 -0.4192
  244MOL0     C32839   7.644  11.583   3.339  0.7343 -0.1382 -0.0383
  244MOL0     O32840   7.716  11.686   3.290  0.5996  0.0932 -1.2248
  244MOL0     C32841   7.692  11.815   3.352 -1.0865 -0.3228  0.0357
  244MOL0     C32842   7.803  11.908   3.302  0.2774  0.5312 -0.0012
  244MOL0     C32843   7.944  11.873   3.349 -0.6237 -0.3031  0.7214
  244MOL0     C32844   8.016  11.778   3.257  0.1977 -0.3170 -0.7188
  244MOL0     C32845   8.134  11.702   3.320  0.0626 -0.6052  0.3445
  244MOL0     C32846   8.231  11.627   3.220  0.2855 -0.3755 -0.3968
  244MOL0     C32847   8.155  11.510   3.148 -0.8850  0.4417  0.4334
  244MOL0     C32848   8.248  11.419   3.068 -0.4941 -0.3884 -0.1304
  244MOL0    Cl32849   8.303  11.453   2.903 -0.2295  0.2838  0.1564
  244MOL0     C32850   7.715  11.470   3.353 -0.5296  0.4362  0.1258
  244MOL0     C32851   7.658  11.356   3.419 -0.0216 -0.2384 -0.5472
  244MOL0     O32852   7.419  11.350   3.699 -0.0215 -0.1482  0.0240
  244MOL0     C32853   7.480  10.994   3.671 -0.1297  0.2053  0.1742
  244MOL0     C32854   7.478  10.878   3.748  0.8715  0.3998  0.8567
  244MOL0     N32855   7.123  10.299   4.132 -0.3579  0.4493 -0.8789
  244MOL0     N32856   7.011  10.245   4.178 -0.3065  0.2458 -0.4395
  244MOL0     C32857   6.205   9.782   3.524  0.0553 -0.3569  0.2640
  244MOL0     C32858   6.094   9.770   3.449 -0.0987 -0.0388 -0.7757
  244MOL0     C32859   5.747   9.685   3.224  0.1947 -0.0149  0.1250
  244MOL0     C32860   5.695   9.552   3.211  0.0660  0.4205 -0.3920
  244MOL0     C32861   5.559   9.532   3.183  0.0849  0.1441 -1.2044
  244MOL0     C32862   5.476   9.645   3.165  0.3293  0.2608  0.8078
  244MOL0     O32863   5.334   9.628   3.152  0.3798  0.0712 -0.1636
  244MOL0     C32864   5.270   9.708   3.055 -0.4932  0.2756 -0.0768
  244MOL0     C32865   5.188   9.631   2.959 -0.1261  1.1336  0.4439
  244MOL0     C32866   5.084   9.720   2.887  0.2118 -0.0382  0.6311
  244MOL0     C32867   4.957   9.652   2.839  0.0590 -0.0493  0.1729
  244MOL0     C32868   4.884   9.600   2.951  0.1305  0.0245  0.3310
  244MOL0     C32869   4.822   9.548   3.035 -0.0161  0.7432 -0.1982
  244MOL0     C32870   5.533   9.769   3.185  0.7202  0.0962  0.4272
  244MOL0     C32871   5.668   9.793   3.195  0.7197  0.6296  0.7237
  244MOL0     C32872   5.719   9.931   3.224 -0.1431 -1.0052 -0.4663
  244MOL0     H32873   6.090   9.428   3.435  1.0585 -0.5719  1.5615
  244MOL0     H32874   6.304   9.467   3.559  1.6465  1.6032 -3.0900
  244MOL0     H32875   6.266   9.622   3.824  0.2174  1.0940  1.4094
  244MOL0     H32876   6.406   9.519   3.780  0.3190  0.2701  0.4159
  244MOL0     H32877   6.441   9.600   3.986 -0.3365 -0.8992 -1.0038
  244MOL0     H32878   6.408   9.768   3.949  1.1190  0.8357  0.5183
  244MOL0     H32879   6.593   9.736   3.768 -2.2628 -0.3687  0.0415
  244MOL0     H32880   6.644   9.598   3.873  2.0833  1.8272 -0.3104
  244MOL0     H32881   6.617   9.784   4.061 -1.0924 -3.4064 -0.9692
  244MOL0     H32882   6.769   9.771   3.973  0.7989 -0.3591 -1.4466
  244MOL0     H32883   6.673   9.955   3.816  0.8369 -1.8981 -0.1208
  244MOL0     H32884   6.543   9.974   3.935  0.8176  0.6489 -0.9498
  244MOL0     H32885   6.729  10.007   4.120 -2.1474 -0.0267  0.4612
  244MOL0     H32886   6.841  10.011   3.988  0.3017  1.6347  2.1454
  244MOL0     H32887   6.596  10.191   4.002  0.0934  1.8737 -2.5576
  244MOL0     H32888   6.729  10.219   3.900 -4.2923 -0.3652 -1.6696
  244MOL0     H32889   6.741  10.364   4.114  1.3273 -0.2477  1.6519
  244MOL0     H32890   6.755  10.215   4.205  0.2118  0.0358  0.4840
  244MOL0     H32891   6.930  10.379   3.882 -1.2246  1.4225  0.7687
  244MOL0     H32892   7.278  10.316   3.903  1.0790  0.7936  1.1051
  244MOL0     H32893   7.167  10.436   3.818 -1.7329 -0.1241  0.4799
  244MOL0     H32894   7.215  10.600   3.997 -0.2156  0.5014 -1.3488
  244MOL0     H32895   7.331  10.479   4.060  0.8946 -2.0740 -1.7005
  244MOL0     H32896   7.340  10.616   3.790 -0.4228  0.7316 -0.3925
  244MOL0     H32897   7.433  10.471   3.820  1.2859  0.9104  0.3354
  244MOL0     H32898   7.577  10.669   3.878  0.4910 -0.4009  1.6882
  244MOL0     H32899   7.528  10.608   4.030  1.1701  1.0535  0.1298
  244MOL0     H32900   7.341  11.003   4.024  1.3950 -1.9516 -0.5272
  244MOL0     H32901   7.334  11.211   3.893 -0.5637  0.9873 -2.2270
  244MOL0     H32902   7.345  11.467   3.444  0.9450 -1.9834  1.8287
  244MOL0     H32903   7.450  11.674   3.344  0.5969 -0.1068 -1.3544
  244MOL0     H32904   7.591  11.846   3.327 -0.4757 -0.2148 -2.5025
  244MOL0     H32905   7.707  11.818   3.461 -0.2543  1.1724 -0.0968
  244MOL0     H32906   7.800  11.909   3.193  1.1053 -1.8130 -0.1020
  244MOL0     H32907   7.780  12.006   3.344 -0.9018 -0.3959  1.6449
  244MOL0     H32908   7.999  11.968   3.359  0.8138 -1.0149 -0.0923
  244MOL0     H32909   7.944  11.823   3.446 -0.3016 -2.3997 -0.3001
  244MOL0     H32910   8.044  11.845   3.175  2.0688  0.9172  0.8515
  244MOL0     H32911   7.948  11.701   3.220 -3.1012  0.6291  2.6979
  244MOL0     H32912   8.092  11.631   3.393 -2.7652 -0.5870 -1.1403
  244MOL0     H32913   8.202  11.774   3.366 -0.5416  1.2307 -1.4946
  244MOL0     H32914   8.265  11.702   3.147 -4.8653  1.8134 -1.0458
  244MOL0     H32915   8.320  11.595   3.274  1.9039  2.3284 -1.2417
  244MOL0     H32916   8.084  11.547   3.072 -0.2227  0.7539 -0.0396
  244MOL0     H32917   8.103  11.442   3.216  1.1666 -2.8089 -0.9933
  244MOL0     H32918   8.342  11.408   3.125 -0.6450  0.0698  0.2123
  244MOL0     H32919   8.205  11.319   3.078  0.2054 -0.7402 -0.5551
  244MOL0     H32920   7.815  11.478   3.311 -0.0178 -0.6471  1.0943
  244MOL0     H32921   7.718  11.268   3.439  2.6510  1.2034 -1.7667
  244MOL0     H32922   7.524  10.978   3.573 -1.6423 -0.2309 -0.4458
  244MOL0     H32923   7.516  10.788   3.700  2.2501  1.6488 -0.5107
  244MOL0     H32924   6.228   9.883   3.557  0.6302  0.0307 -1.2629
  244MOL0     H32925   6.047   9.861   3.412  1.7626  0.6530 -1.5253
  244MOL0     H32926   5.751   9.459   3.211  1.7810  1.4150 -0.7841
  244MOL0     H32927   5.520   9.432   3.165  1.4974 -0.8027  0.6317
  244MOL0     H32928   5.340   9.773   3.002  0.3768  1.1101  1.9981
  244MOL0     H32929   5.192   9.754   3.117 -0.8492  0.1527 -0.4302
  244MOL0     H32930   5.136   9.559   3.023 -0.6074  1.8444  0.8741
  244MOL0     H32931   5.246   9.578   2.883 -2.8131 -1.9340  0.3217
  244MOL0     H32932   5.132   9.758   2.797  0.7096 -0.3625  0.7543
  244MOL0     H32933   5.062   9.795   2.964  0.6291 -2.5881  3.4287
  244MOL0     H32934   4.897   9.722   2.781 -0.9528  0.7306  2.0453
  244MOL0     H32935   4.990   9.577   2.767  2.3175  2.1037 -1.2006
  244MOL0     H32936   4.749   9.510   3.104 -0.8167  1.6399 -0.5312
  244MOL0     H32937   5.468   9.856   3.190 -2.1244 -1.9550  1.8118
  244MOL0     H32938   5.788   9.982   3.156  2.0882 -0.4988  2.0284
  244MOL0     H32939   5.641  10.006   3.243  1.9391  0.7680  1.5516
  244MOL0     H32940   5.767   9.930   3.322 -0.1491  2.7389 -0.2760
  245MOL0     O32941   2.418   7.413   2.640 -0.2614 -0.3290 -1.0426
  245MOL0     C32942   2.484   7.516   2.635 -0.0535  0.2872  0.4219
  245MOL0     O32943   2.430   7.640   2.655  0.4958 -0.8504 -0.0663
  245MOL0     C32944   2.290   7.651   2.652 -0.0893  0.0127 -0.4658
  245MOL0     C32945   2.229   7.653   2.531 -0.0040  0.5513 -0.1382
  245MOL0     C32946   2.090   7.637   2.530 -0.1374 -0.1661  0.5118
  245MOL0     C32947   2.015   7.635   2.647 -0.2815  0.4621 -0.0330
  245MOL0     O32948   1.878   7.622   2.640 -0.1808 -0.2446  0.0115
  245MOL0     C32949   1.796   7.626   2.756  0.4560 -0.6679  0.4843
  245MOL0     C32950   1.649   7.621   2.726 -0.4586 -0.0892 -0.0557
  245MOL0     C32951   1.576   7.680   2.844  0.0386  0.4164 -1.3134
  245MOL0     C32952   1.425   7.659   2.830  0.2611 -0.4917 -0.7030
  245MOL0     C32953   1.355   7.745   2.938 -0.3801  0.0308  0.8075
  245MOL0     C32954   1.209   7.747   2.914 -0.4845 -0.5986  0.8063
  245MOL0     C32955   1.137   7.853   3.009  0.0221  0.4256 -0.0762
  245MOL0     C32956   1.026   7.932   2.950  0.5715  0.4695 -0.0121
  245MOL0     N32957   0.915   7.834   2.930  0.3970 -0.0657  0.1940
  245MOL0     C32958   0.911   7.761   2.812 -0.3666 -0.6359 -0.9815
  245MOL0     C32959   0.818   7.669   2.838 -0.2996  0.1828  0.5577
  245MOL0     C32960   0.786   7.556   2.739 -0.1295 -0.3860 -0.1868
  245MOL0     C32961   0.749   7.427   2.817 -0.4422  0.3721 -0.6972
  245MOL0     C32962   0.871   7.361   2.891  0.1338 -0.2902  0.2127
  245MOL0     C32963   1.003   7.334   2.815  0.1418  0.4409  0.2724
  245MOL0     O32964   1.110   7.290   2.910 -0.3174  0.2431  0.8637
  245MOL0     C32965   1.241   7.297   2.869  0.7506  0.6292  0.6561
  245MOL0     C32966   1.341   7.304   2.966  0.2225 -0.1300 -0.2904
  245MOL0     C32967   1.477   7.295   2.931  0.1655  0.6400  0.8184
  245MOL0     C32968   1.520   7.274   2.792 -0.0968 -0.0819  0.6697
  245MOL0     C32969   1.658   7.255   2.745 -0.1243  0.4278 -0.0983
  245MOL0     O32970   1.682   7.246   2.608  0.5011 -0.7520 -0.1550
  245MOL0     C32971   1.803   7.244   2.542  0.3199  0.3598 -0.4710
  245MOL0     C32972   1.811   7.194   2.411  0.0436  0.0219  0.2059
  245MOL0     C32973   1.933   7.175   2.352 -0.1767 -0.6960 -0.3233
  245MOL0     C32974   2.056   7.212   2.421  0.4088  0.1205 -0.4296
  245MOL0     O32975   2.175   7.179   2.357 -0.3340 -0.2814  0.2708
  245MOL0     C32976   2.289   7.268   2.378  0.3341  1.1585  0.2094
  245MOL0     C32977   2.369   7.280   2.239  0.9216 -0.7123  0.0210
  245MOL0     C32978   2.486   7.377   2.261 -0.2934  0.2731  0.1994
  245MOL0     C32979   2.596   7.368   2.148 -0.9629 -0.6167 -0.0543
  245MOL0     C32980   2.704   7.472   2.197 -0.6716  0.4399 -0.1368
  245MOL0     C32981   2.811   7.485   2.095  0.0498  0.2989 -0.2055
  245MOL0     C32982   2.934   7.572   2.142  0.4279  0.5716  0.2642
  245MOL0     C32983   3.053   7.548   2.056  0.9738  0.3942 -0.4806
  245MOL0    Cl32984   3.022   7.582   1.882 -0.3758  0.4974  0.2212
  245MOL0     C32985   2.051   7.258   2.555 -0.7074  1.4628 -0.2547
  245MOL0     C32986   1.926   7.278   2.610  0.4233  0.3162  0.3075
  245MOL0     O32987   1.741   7.238   2.831 -0.1057 -1.2682  0.0921
  245MOL0     C32988   1.416   7.277   2.705 -0.0665  0.8772 -0.1255
  245MOL0     C32989   1.284   7.298   2.736 -0.0615 -0.9889 -0.7353
  245MOL0     N32990   0.771   7.685   2.970  0.0460  0.3442 -0.7841
  245MOL0     N32991   0.818   7.796   3.019  0.5781 -0.3050  0.8573
  245MOL0     C32992   2.082   7.643   2.770 -0.2006  0.2254  0.1251
  245MOL0     C32993   2.220   7.642   2.772 -0.6745  0.0893  0.2759
  245MOL0     C32994   2.630   7.513   2.602  0.7104  0.2484 -0.7576
  245MOL0     C32995   2.708   7.401   2.634  0.1937  0.1703 -0.3886
  245MOL0     C32996   2.843   7.388   2.605 -0.2411  0.4500  0.2316
  245MOL0     C32997   2.903   7.498   2.537 -0.4716 -0.3980 -0.2398
  245MOL0     O32998   3.038   7.481   2.518 -0.0253  0.2318 -0.5927
  245MOL0     C32999   3.123   7.591   2.476 -0.5267 -0.5471 -0.3383
  245MOL0     C33000   3.252   7.576   2.549 -0.3880 -0.1304 -0.1913
  245MOL0     C33001   3.360   7.677   2.508 -0.5426  0.7872  0.0683
  245MOL0     C33002   3.488   7.676   2.604 -0.4811  0.2025  0.0411
  245MOL0     C33003   3.571   7.561   2.568  0.2793 -0.2609  0.4872
  245MOL0     C33004   3.666   7.489   2.546  0.6295 -0.7564 -0.5773
  245MOL0     C33005   2.835   7.609   2.507  0.7273 -0.2390  0.3368
  245MOL0     C33006   2.694   7.615   2.534  0.2893  0.2556 -0.6577
  245MOL0     C33007   2.618   7.730   2.476 -0.3780  0.2456 -0.3646
  245MOL0     H33008   2.276   7.660   2.434 -2.1020  1.8609 -1.1406
  245MOL0     H33009   2.053   7.642   2.428  1.3812  0.9229 -0.0252
  245MOL0     H33010   1.822   7.536   2.812  2.0645  0.5193  1.7548
  245MOL0     H33011   1.814   7.721   2.808  0.3523 -0.1374 -0.4298
  245MOL0     H33012   1.630   7.516   2.706 -1.3159  0.0401  0.0713
  245MOL0     H33013   1.608   7.680   2.643 -0.2959  1.0173  0.6298
  245MOL0     H33014   1.599   7.785   2.865 -1.2796  0.0098  3.1444
  245MOL0     H33015   1.602   7.621   2.932 -1.7592  2.2014  0.5266
  245MOL0     H33016   1.394   7.686   2.728  0.6138 -0.9387 -0.9352
  245MOL0     H33017   1.400   7.553   2.833 -1.6339 -0.1306 -1.8906
  245MOL0     H33018   1.372   7.715   3.041 -3.0998 -3.6576  0.4098
  245MOL0     H33019   1.399   7.845   2.934  1.9629 -0.8622  2.2661
  245MOL0     H33020   1.193   7.778   2.810  1.6362 -1.7813  0.0821
  245MOL0     H33021   1.169   7.646   2.924  4.0611 -2.8389 -1.1026
  245MOL0     H33022   1.211   7.931   3.032 -0.9571  1.0387  1.0864
  245MOL0     H33023   1.102   7.802   3.099  0.1569 -0.0241 -0.2724
  245MOL0     H33024   0.986   8.006   3.020 -0.0392  0.8921 -0.7932
  245MOL0     H33025   1.052   7.979   2.855  1.3187 -2.7986 -1.5512
  245MOL0     H33026   0.972   7.766   2.722  2.5713  0.7204  0.9132
  245MOL0     H33027   0.706   7.595   2.676 -1.6789  0.7977  2.3439
  245MOL0     H33028   0.873   7.539   2.675  0.7247 -0.2378  0.8980
  245MOL0     H33029   0.672   7.464   2.886  0.1643  2.3648 -1.0272
  245MOL0     H33030   0.711   7.351   2.749  0.3573 -1.2415  0.5944
  245MOL0     H33031   0.828   7.269   2.931  0.3563 -0.3598  0.2915
  245MOL0     H33032   0.888   7.433   2.972 -2.2944 -0.2024  0.7141
  245MOL0     H33033   1.043   7.428   2.775  2.0203 -1.3725 -2.4720
  245MOL0     H33034   0.995   7.266   2.730 -1.4151  0.1086  0.6684
  245MOL0     H33035   1.306   7.326   3.066 -0.1697  2.4583 -0.9239
  245MOL0     H33036   1.547   7.298   3.014 -0.2863 -0.5092  1.2593
  245MOL0     H33037   1.711   7.183   2.370  0.2405 -1.2085 -0.0041
  245MOL0     H33038   1.931   7.127   2.254 -2.6010  1.9632 -1.7442
  245MOL0     H33039   2.264   7.369   2.413  2.1885  0.9405  2.3911
  245MOL0     H33040   2.351   7.218   2.453 -1.2990  2.3476  2.4968
  245MOL0     H33041   2.401   7.180   2.209  2.3926 -0.3380  0.2548
  245MOL0     H33042   2.298   7.323   2.167  1.9669  1.6627  0.2865
  245MOL0     H33043   2.438   7.475   2.261  1.9354  1.4526 -0.0362
  245MOL0     H33044   2.533   7.376   2.360 -0.8394  0.3357  0.4641
  245MOL0     H33045   2.561   7.390   2.047  1.9507 -1.1096 -1.2726
  245MOL0     H33046   2.642   7.268   2.151  2.4119  0.8026  1.0151
  245MOL0     H33047   2.741   7.452   2.298 -0.4620  2.8731  0.3111
  245MOL0     H33048   2.664   7.573   2.204 -0.4036  0.5569 -0.2886
  245MOL0     H33049   2.850   7.386   2.071  1.7688  1.4974 -2.7637
  245MOL0     H33050   2.771   7.519   1.999  2.7408  2.1518 -0.7652
  245MOL0     H33051   2.948   7.547   2.247 -1.9534  0.7559  0.6893
  245MOL0     H33052   2.910   7.679   2.141  0.5812  0.7395  3.6506
  245MOL0     H33053   3.133   7.611   2.095  0.0673  0.8105  0.7439
  245MOL0     H33054   3.078   7.442   2.071 -0.3233  0.3409  1.6157
  245MOL0     H33055   2.141   7.258   2.616 -1.3188  0.4492  0.6848
  245MOL0     H33056   1.922   7.325   2.708  0.2613  0.8902  0.0297
  245MOL0     H33057   1.441   7.270   2.600 -0.4149  0.3665 -0.1782
  245MOL0     H33058   1.211   7.304   2.656 -0.8041  2.3263  0.0177
  245MOL0     H33059   2.033   7.638   2.867 -1.3874  2.2628 -0.2946
  245MOL0     H33060   2.277   7.636   2.864 -1.9616  1.9188  1.2584
  245MOL0     H33061   2.651   7.323   2.683  0.5904  0.1981  0.1183
  245MOL0     H33062   2.904   7.302   2.631 -2.4634 -0.8044  1.5794
  245MOL0     H33063   3.087   7.694   2.486  2.2124  0.6977 -2.1263
  245MOL0     H33064   3.137   7.577   2.368 -0.0198 -2.7495 -0.0486
  245MOL0     H33065   3.283   7.475   2.517  1.7848  0.4790 -0.2103
  245MOL0     H33066   3.241   7.587   2.658 -1.9580 -1.1095 -0.2222
  245MOL0     H33067   3.317   7.778   2.513 -1.3359  0.4547  0.2434
  245MOL0     H33068   3.397   7.657   2.407  1.9812  0.6125  0.9646
  245MOL0     H33069   3.549   7.766   2.590  2.4351 -1.4891  0.9746
  245MOL0     H33070   3.453   7.677   2.708 -0.4731 -2.8540  0.1651
  245MOL0     H33071   3.758   7.435   2.528  1.4297  0.3546  0.0464
  245MOL0     H33072   2.877   7.696   2.457 -0.5819  0.5647  0.5738
  245MOL0     H33073   2.576   7.791   2.557 -0.4858  0.8735 -0.8822
  245MOL0     H33074   2.666   7.799   2.405  1.2608  0.9099  1.2935
  245MOL0     H33075   2.525   7.689   2.436  0.2107 -1.2320 -0.2786
  246MOL0     O33076   5.689   3.706   1.047 -0.7253  0.5201  0.1437
  246MOL0     C33077   5.590   3.775   1.030 -0.4308  0.3661 -0.5894
  246MOL0     O33078   5.597   3.904   0.986  0.3198 -0.1327  0.1222
  246MOL0     C33079   5.720   3.949   0.941  0.8708 -0.4909  0.0739
  246MOL0     C33080   5.778   3.912   0.820 -0.2651 -0.4693  0.3461
  246MOL0     C33081   5.903   3.970   0.784  0.4991 -0.0033 -0.1639
  246MOL0     C33082   5.968   4.054   0.876 -0.0104  0.0773  0.1592
  246MOL0     O33083   6.092   4.106   0.833 -0.0363  0.2681 -0.7306
  246MOL0     C33084   6.094   4.248   0.859 -0.0108 -0.1313 -0.1404
  246MOL0     C33085   6.200   4.317   0.774  0.9909 -0.0593 -0.3913
  246MOL0     C33086   6.150   4.344   0.630  0.0160 -0.7729 -0.6205
  246MOL0     C33087   6.227   4.462   0.564 -0.1336 -0.1452  0.2596
  246MOL0     C33088   6.368   4.420   0.522 -0.0242 -0.5857 -0.8860
  246MOL0     C33089   6.446   4.528   0.442  0.0491 -0.7023 -0.7403
  246MOL0     C33090   6.382   4.576   0.313  0.6600  0.3659  0.2134
  246MOL0     C33091   6.462   4.675   0.236  0.7513  0.1346 -0.5464
  246MOL0     N33092   6.384   4.724   0.126  0.3674  0.6341  0.1902
  246MOL0     C33093   6.285   4.659   0.057 -0.0398  0.2078  0.1282
  246MOL0     C33094   6.220   4.760  -0.014  0.3663  0.8976  0.4575
  246MOL0     C33095   6.096   4.736  -0.103  0.2833 -0.0509  0.0893
  246MOL0     C33096   5.966   4.688  -0.030 -0.4255 -0.0418 -0.1739
  246MOL0     C33097   5.844   4.706  -0.118  0.7642 -0.4819  0.3208
  246MOL0     C33098   5.726   4.656  -0.036  0.0195  0.0417  1.0475
  246MOL0     O33099   5.621   4.627  -0.129  0.3883 -0.0960 -0.4644
  246MOL0     C33100   5.513   4.561  -0.073  0.3950 -0.0080  0.4734
  246MOL0     C33101   5.456   4.470  -0.161  0.0683  0.1277 -0.3452
  246MOL0     C33102   5.341   4.396  -0.121  0.6804 -0.2380  0.4807
  246MOL0     C33103   5.292   4.398   0.008 -0.3435 -0.2929 -0.0487
  246MOL0     C33104   5.180   4.311   0.043  0.2407 -1.5600  0.0513
  246MOL0     O33105   5.151   4.318   0.172  0.2623  0.1922  0.2640
  246MOL0     C33106   5.025   4.270   0.212  0.7244 -0.5603  0.0675
  246MOL0     C33107   5.007   4.235   0.342  0.3412 -0.3236 -0.5040
  246MOL0     C33108   4.881   4.188   0.396 -0.3537 -0.3965 -0.9272
  246MOL0     C33109   4.767   4.186   0.323  0.2206 -0.2479 -0.0042
  246MOL0     O33110   4.650   4.131   0.384 -0.8755 -0.9835  0.9123
  246MOL0     C33111   4.576   4.037   0.304 -0.6124  0.3800 -0.7541
  246MOL0     C33112   4.666   3.918   0.263 -0.0710  0.0078 -0.8975
  246MOL0     C33113   4.603   3.823   0.168 -0.1910  0.4795  0.0475
  246MOL0     C33114   4.598   3.885   0.032  0.4065 -0.4064  0.0179
  246MOL0     C33115   4.539   3.784  -0.055  0.0282 -0.0775 -0.1104
  246MOL0     C33116   4.550   3.816  -0.203 -0.4796 -0.5177 -0.3528
  246MOL0     C33117   4.520   3.685  -0.287 -0.8646 -0.0872 -0.8895
  246MOL0     C33118   4.409   3.697  -0.384 -0.8357 -0.3668 -0.0101
  246MOL0    Cl33119   4.270   3.720  -0.273 -0.2687 -0.1564 -0.0914
  246MOL0     C33120   4.776   4.226   0.188 -0.6863  0.7116 -0.5577
  246MOL0     C33121   4.903   4.269   0.141  0.1599 -0.5759 -0.3472
  246MOL0     O33122   5.116   4.258  -0.044 -0.3093 -0.2547  0.2205
  246MOL0     C33123   5.349   4.498   0.098  0.2127  0.5377  0.9249
  246MOL0     C33124   5.460   4.569   0.056  0.4136 -0.2267  0.5146
  246MOL0     N33125   6.288   4.878   0.005  0.2959 -0.1523 -0.0550
  246MOL0     N33126   6.380   4.859   0.097 -0.0133  0.1179 -0.2219
  246MOL0     C33127   5.912   4.075   1.005 -0.5667  0.3452  0.6253
  246MOL0     C33128   5.791   4.021   1.032 -0.3465 -0.2812 -0.3275
  246MOL0     C33129   5.454   3.712   1.066  0.6574  0.1687 -0.5992
  246MOL0     C33130   5.442   3.581   1.131  0.9239 -0.8874 -0.4165
  246MOL0     C33131   5.319   3.527   1.177 -0.5374 -0.4074  0.4929
  246MOL0     C33132   5.207   3.603   1.153 -0.0560  0.9249 -0.2122
  246MOL0     O33133   5.095   3.569   1.214  0.3728  0.0394  1.3310
  246MOL0     C33134   4.977   3.648   1.190 -1.0601 -0.6479  0.0014
  246MOL0     C33135   4.849   3.592   1.266 -0.1944  0.4925 -0.3898
  246MOL0     C33136   4.828   3.438   1.246 -0.2731  0.0825  0.1254
  246MOL0     C33137   4.732   3.382   1.349 -0.1332 -0.0565  0.1480
  246MOL0     C33138   4.663   3.264   1.291 -0.6043  0.1080  0.1064
  246MOL0     C33139   4.593   3.176   1.238  1.0015 -0.2547  0.6212
  246MOL0     C33140   5.215   3.708   1.066 -0.2331  0.0445  0.2066
  246MOL0     C33141   5.333   3.768   1.023 -0.3274  0.3442  1.3550
  246MOL0     C33142   5.320   3.874   0.916 -0.4527  0.8674 -0.0300
  246MOL0     H33143   5.718   3.846   0.759 -0.3964 -0.1374  0.1139
  246MOL0     H33144   5.933   3.964   0.680 -0.9648  0.8549 -0.6786
  246MOL0     H33145   5.999   4.298   0.835  2.0864  3.2917 -2.0935
  246MOL0     H33146   6.115   4.263   0.965 -0.5515 -0.6493  0.0465
  246MOL0     H33147   6.294   4.263   0.767  0.7881 -0.4506 -0.1454
  246MOL0     H33148   6.207   4.415   0.821 -1.9842  0.6470 -1.1900
  246MOL0     H33149   6.045   4.375   0.632  0.1435 -0.3032 -1.0829
  246MOL0     H33150   6.170   4.259   0.564  1.6858  0.2170 -1.4378
  246MOL0     H33151   6.172   4.484   0.472  0.0359 -3.7670 -0.8391
  246MOL0     H33152   6.235   4.546   0.634 -0.4143  0.3185 -0.2497
  246MOL0     H33153   6.423   4.382   0.609 -0.8956 -3.3713 -1.4468
  246MOL0     H33154   6.355   4.334   0.455 -0.7844 -0.4497 -0.9218
  246MOL0     H33155   6.460   4.620   0.499 -0.2434  0.2433 -2.1389
  246MOL0     H33156   6.544   4.489   0.414 -0.2873 -2.1258  0.0015
  246MOL0     H33157   6.289   4.623   0.347  1.1948  2.6501 -1.2968
  246MOL0     H33158   6.359   4.494   0.244  1.9778  0.9491 -0.9639
  246MOL0     H33159   6.485   4.765   0.293  3.2647 -1.0540  0.4735
  246MOL0     H33160   6.554   4.632   0.195  0.1963 -1.6192 -0.0306
  246MOL0     H33161   6.254   4.555   0.052 -2.0368  0.8198 -1.5694
  246MOL0     H33162   6.086   4.832  -0.155  1.0186  1.0909  1.9406
  246MOL0     H33163   6.121   4.655  -0.171 -2.4541 -0.6360 -0.3246
  246MOL0     H33164   5.975   4.581  -0.014 -3.6120 -0.5124 -0.9097
  246MOL0     H33165   5.953   4.737   0.067 -1.1524  0.5930 -0.5845
  246MOL0     H33166   5.846   4.641  -0.205 -4.3224 -1.1635  0.4178
  246MOL0     H33167   5.833   4.809  -0.155  1.2807 -0.5884 -0.1312
  246MOL0     H33168   5.687   4.736   0.028 -1.3233 -0.0255  0.3400
  246MOL0     H33169   5.743   4.563   0.018  1.8802  0.2106  0.8248
  246MOL0     H33170   5.500   4.464  -0.260  0.3491 -2.2739 -0.1350
  246MOL0     H33171   5.298   4.337  -0.201  1.3700  1.7978 -1.4837
  246MOL0     H33172   5.085   4.229   0.416 -1.3547 -3.0165  1.2416
  246MOL0     H33173   4.876   4.150   0.497  0.5389  1.4132 -0.1676
  246MOL0     H33174   4.496   4.005   0.371  0.5602 -0.9261  0.1045
  246MOL0     H33175   4.529   4.087   0.220 -1.4588 -0.4684 -0.8010
  246MOL0     H33176   4.752   3.961   0.211  0.4577  0.7019  0.5305
  246MOL0     H33177   4.695   3.863   0.353  3.3139  2.2105 -0.4733
  246MOL0     H33178   4.672   3.738   0.161 -0.8960  0.0223 -1.6221
  246MOL0     H33179   4.509   3.778   0.201  1.2525 -2.4818  0.4830
  246MOL0     H33180   4.701   3.895  -0.003  0.4376 -2.6637 -0.6754
  246MOL0     H33181   4.544   3.980   0.029 -0.3589 -0.8136  0.4789
  246MOL0     H33182   4.433   3.778  -0.031 -0.1524  0.8365 -0.6252
  246MOL0     H33183   4.577   3.682  -0.040 -1.3089 -0.3299  1.9894
  246MOL0     H33184   4.469   3.888  -0.215  0.6673  1.3588  2.4057
  246MOL0     H33185   4.651   3.854  -0.218 -0.0228  0.4209  4.0079
  246MOL0     H33186   4.497   3.599  -0.224  1.1803  0.5868  0.9170
  246MOL0     H33187   4.616   3.663  -0.335 -1.0602 -1.3625 -0.7318
  246MOL0     H33188   4.422   3.775  -0.460 -2.1500  1.5749  1.6348
  246MOL0     H33189   4.396   3.603  -0.437  0.0383  0.8207 -2.5126
  246MOL0     H33190   4.686   4.239   0.128 -0.6462 -0.6323 -0.9401
  246MOL0     H33191   4.914   4.300   0.037 -0.4400  2.1547  0.3317
  246MOL0     H33192   5.312   4.503   0.200 -0.7150 -0.1738  0.6428
  246MOL0     H33193   5.500   4.635   0.132 -0.3657 -0.0329  0.7666
  246MOL0     H33194   5.974   4.132   1.073  1.5002 -1.7789  0.6552
  246MOL0     H33195   5.759   4.043   1.134  2.8839  0.0386  0.7416
  246MOL0     H33196   5.527   3.515   1.145  0.2981 -1.4020  1.2399
  246MOL0     H33197   5.315   3.435   1.236  2.2667  0.9385  3.0655
  246MOL0     H33198   4.951   3.636   1.084 -2.7571 -0.8504  0.4130
  246MOL0     H33199   5.005   3.749   1.220 -0.6842 -1.0678  1.1063
  246MOL0     H33200   4.765   3.651   1.228  0.2264  3.0735  2.3516
  246MOL0     H33201   4.872   3.606   1.372  0.4609 -0.1911 -0.4349
  246MOL0     H33202   4.925   3.387   1.242  1.7373  3.6755 -1.8813
  246MOL0     H33203   4.775   3.436   1.150  1.1366 -0.3019 -0.6766
  246MOL0     H33204   4.798   3.350   1.429  0.0802 -0.0283 -0.0155
  246MOL0     H33205   4.667   3.468   1.370  1.7824  1.4872 -0.0291
  246MOL0     H33206   4.538   3.096   1.195 -1.2160 -0.2173  3.1263
  246MOL0     H33207   5.131   3.762   1.025 -1.4625 -1.9654 -0.0493
  246MOL0     H33208   5.391   3.852   0.836  0.6431  0.9416  0.8864
  246MOL0     H33209   5.226   3.888   0.863  1.6175 -0.2073 -4.4246
  246MOL0     H33210   5.347   3.974   0.953  2.2037  0.3075 -0.1967
  247MOL0     O33211   4.811   2.174   3.547 -0.2648 -0.0345 -0.5478
  247MOL0     C33212   4.733   2.154   3.644  0.3023  0.3972  0.4692
  247MOL0     O33213   4.722   2.042   3.714  0.8355 -0.2970  0.1022
  247MOL0     C33214   4.786   1.921   3.687  0.7039 -0.6569 -0.6508
  247MOL0     C33215   4.922   1.913   3.661 -0.3842 -0.4235 -0.7487
  247MOL0     C33216   4.975   1.780   3.664  0.3536  0.6165 -0.4827
  247MOL0     C33217   4.895   1.671   3.684 -0.1167 -0.1921 -0.3096
  247MOL0     O33218   4.941   1.543   3.691  0.3973 -0.9150  0.6568
  247MOL0     C33219   5.055   1.503   3.615  0.7653 -0.7398  0.4588
  247MOL0     C33220   5.041   1.369   3.552  0.4645 -0.4290 -0.2709
  247MOL0     C33221   5.183   1.321   3.512 -0.4655 -0.2256  0.1870
  247MOL0     C33222   5.170   1.176   3.468  0.4476 -0.9368  0.3516
  247MOL0     C33223   5.304   1.108   3.456 -0.1901 -0.5668 -0.5268
  247MOL0     C33224   5.401   1.168   3.356 -0.2188  0.4283  0.6070
  247MOL0     C33225   5.355   1.159   3.211  0.6038 -0.1398 -0.1864
  247MOL0     C33226   5.435   1.246   3.124 -0.4613 -0.0545 -0.7399
  247MOL0     N33227   5.373   1.264   2.994  0.1082 -0.4447  0.0430
  247MOL0     C33228   5.373   1.177   2.894  0.4340 -0.1645 -0.2377
  247MOL0     C33229   5.340   1.241   2.786  1.0885  0.5922  0.7424
  247MOL0     C33230   5.328   1.161   2.657  0.4734  0.4586  0.1570
  247MOL0     C33231   5.211   1.198   2.565  0.0163 -0.0165 -0.5441
  247MOL0     C33232   5.076   1.174   2.637  0.2129 -0.1855 -0.5282
  247MOL0     C33233   4.965   1.186   2.535 -0.7225  0.7674  0.2104
  247MOL0     O33234   4.927   1.324   2.515  0.4488 -0.4755  0.4017
  247MOL0     C33235   4.818   1.342   2.435  0.5031 -0.0051  0.0731
  247MOL0     C33236   4.775   1.246   2.334  0.6503 -0.6249 -0.0799
  247MOL0     C33237   4.657   1.262   2.265  0.0791 -0.4941  0.1005
  247MOL0     C33238   4.594   1.390   2.265 -0.3238 -0.1781 -0.1412
  247MOL0     C33239   4.487   1.420   2.166 -0.3245  0.2709 -1.0769
  247MOL0     O33240   4.468   1.322   2.071 -0.1666  0.2084 -0.4924
  247MOL0     C33241   4.377   1.343   1.977  0.3195 -0.5007  0.4941
  247MOL0     C33242   4.245   1.285   1.971 -0.2346  0.0171 -0.1205
  247MOL0     C33243   4.155   1.303   1.869 -0.4070 -0.3293 -0.3786
  247MOL0     C33244   4.184   1.380   1.762  0.2985 -0.6576  1.4166
  247MOL0     O33245   4.078   1.402   1.672 -0.3226 -0.2981 -0.5157
  247MOL0     C33246   4.065   1.516   1.590  0.1688 -1.0545  0.2037
  247MOL0     C33247   3.939   1.505   1.509  0.5167 -0.2775  0.4661
  247MOL0     C33248   3.934   1.620   1.408  0.5798 -0.7865 -1.5234
  247MOL0     C33249   3.802   1.627   1.327 -0.4269  0.1762 -0.7892
  247MOL0     C33250   3.761   1.505   1.249  0.3670 -0.1821  0.2416
  247MOL0     C33251   3.626   1.524   1.179  0.0284  0.3891  0.4049
  247MOL0     C33252   3.604   1.401   1.081 -0.3137  0.9127 -0.4481
  247MOL0     C33253   3.462   1.407   1.031  0.6005  0.3626  0.7779
  247MOL0    Cl33254   3.455   1.537   0.906 -0.1754  0.1937  0.1492
  247MOL0     C33255   4.314   1.433   1.752  0.1954 -0.4809  0.1361
  247MOL0     C33256   4.407   1.408   1.852  0.1042 -0.0582 -0.3097
  247MOL0     O33257   4.415   1.522   2.180 -0.1655 -1.0077 -0.5983
  247MOL0     C33258   4.641   1.491   2.348 -0.9841 -0.7783 -0.2119
  247MOL0     C33259   4.749   1.463   2.437  0.7263 -0.2018 -0.0638
  247MOL0     N33260   5.282   1.365   2.821  0.0356 -0.2735 -0.7057
  247MOL0     N33261   5.305   1.375   2.947 -0.4891 -0.0797  0.1748
  247MOL0     C33262   4.762   1.683   3.702 -0.2499  0.3930  0.4518
  247MOL0     C33263   4.710   1.808   3.713  0.9454 -0.1726  0.6458
  247MOL0     C33264   4.627   2.258   3.664  0.7906  0.2194  0.4961
  247MOL0     C33265   4.494   2.211   3.687 -0.6363 -0.3294  0.0023
  247MOL0     C33266   4.385   2.292   3.678 -0.2562  0.2559  0.3585
  247MOL0     C33267   4.398   2.432   3.655  0.9855  0.6148  0.2226
  247MOL0     O33268   4.273   2.492   3.637  0.5198  0.7420 -0.0382
  247MOL0     C33269   4.274   2.626   3.595 -0.9894 -0.1057 -0.0153
  247MOL0     C33270   4.298   2.636   3.446  0.3135  1.0865  0.6949
  247MOL0     C33271   4.295   2.778   3.386  0.2684  0.5168  0.7836
  247MOL0     C33272   4.401   2.869   3.456 -0.3837 -0.1449 -0.8330
  247MOL0     C33273   4.536   2.821   3.430  0.0884  0.0557  0.1320
  247MOL0     C33274   4.641   2.771   3.398  0.1056 -0.3046  0.4265
  247MOL0     C33275   4.525   2.482   3.632 -0.3364 -0.1885  0.7295
  247MOL0     C33276   4.642   2.398   3.633  0.0241  0.1634 -0.0584
  247MOL0     C33277   4.776   2.445   3.577  0.1195 -0.6755 -0.1797
  247MOL0     H33278   4.980   1.999   3.630 -1.5683  0.5567 -0.3073
  247MOL0     H33279   5.082   1.774   3.650  0.4131  1.3862 -0.3860
  247MOL0     H33280   5.071   1.574   3.533  0.1403  1.0480  1.8271
  247MOL0     H33281   5.142   1.499   3.682  0.7303 -1.9053  0.4633
  247MOL0     H33282   4.982   1.380   3.461  0.5810 -1.2930 -0.4527
  247MOL0     H33283   4.997   1.301   3.624 -0.4232 -0.4426 -0.8168
  247MOL0     H33284   5.246   1.327   3.601  1.8375 -1.1869 -1.2824
  247MOL0     H33285   5.226   1.379   3.429 -1.7419  0.5160  0.0259
  247MOL0     H33286   5.094   1.138   3.536 -1.1941  0.1561 -0.7803
  247MOL0     H33287   5.121   1.180   3.370 -1.8060 -3.3427  1.2549
  247MOL0     H33288   5.346   1.118   3.557  0.2417  1.3591 -0.8526
  247MOL0     H33289   5.285   1.001   3.442 -4.4504 -0.1748  0.7413
  247MOL0     H33290   5.425   1.270   3.385  2.0372  0.1062  0.0838
  247MOL0     H33291   5.493   1.111   3.371 -0.0526  0.2608 -0.8512
  247MOL0     H33292   5.256   1.207   3.212  1.7015  2.2571 -0.0143
  247MOL0     H33293   5.351   1.052   3.187  0.7772 -0.9874  3.0883
  247MOL0     H33294   5.441   1.345   3.169  1.7227 -1.0188  1.3236
  247MOL0     H33295   5.539   1.213   3.127  0.1489  1.3594  4.8967
  247MOL0     H33296   5.401   1.072   2.903  0.6550  0.0561  2.6566
  247MOL0     H33297   5.419   1.151   2.598 -0.0377 -0.1984 -0.5425
  247MOL0     H33298   5.315   1.059   2.692 -1.2708  0.6714  0.2214
  247MOL0     H33299   5.237   1.301   2.540  1.1800 -0.3169 -0.6217
  247MOL0     H33300   5.216   1.138   2.474  2.4062 -0.4616 -0.1849
  247MOL0     H33301   5.062   1.239   2.724 -1.0492  1.1305 -1.6608
  247MOL0     H33302   5.083   1.076   2.686  3.0944  1.0085  1.7946
  247MOL0     H33303   4.876   1.128   2.562 -0.5717 -0.1301 -1.1617
  247MOL0     H33304   5.001   1.158   2.436 -2.0029 -0.9907  0.1884
  247MOL0     H33305   4.834   1.155   2.324 -0.7789 -1.4476 -1.4114
  247MOL0     H33306   4.617   1.186   2.199  0.0091 -1.1928  0.9270
  247MOL0     H33307   4.216   1.227   2.057  1.5639 -0.8468 -0.0563
  247MOL0     H33308   4.053   1.268   1.880 -0.1544 -1.3432 -1.1646
  247MOL0     H33309   4.064   1.605   1.654 -1.0982 -0.6388 -0.3479
  247MOL0     H33310   4.152   1.536   1.525  1.2399 -0.4580  1.7576
  247MOL0     H33311   3.942   1.413   1.449  0.9447  0.1508 -0.1858
  247MOL0     H33312   3.853   1.508   1.577  0.2979 -1.8135  0.3087
  247MOL0     H33313   3.934   1.718   1.457 -0.2672 -1.1057 -0.8658
  247MOL0     H33314   4.021   1.627   1.341 -0.3987 -1.8779 -2.9686
  247MOL0     H33315   3.817   1.710   1.258  2.3767 -0.6453 -1.3048
  247MOL0     H33316   3.727   1.650   1.403 -1.1668  0.6978 -1.6585
  247MOL0     H33317   3.757   1.417   1.314 -0.5837  0.8799  1.6746
  247MOL0     H33318   3.841   1.487   1.175  1.3409 -0.7770  1.4033
  247MOL0     H33319   3.554   1.524   1.261  1.3063  2.0506  1.6088
  247MOL0     H33320   3.614   1.620   1.128  0.6600  0.2812  0.0338
  247MOL0     H33321   3.625   1.306   1.130  0.9856 -0.5296 -3.5869
  247MOL0     H33322   3.670   1.420   0.996 -0.0177  1.8038 -0.0334
  247MOL0     H33323   3.442   1.317   0.974  1.6530  1.5542 -1.5931
  247MOL0     H33324   3.381   1.428   1.103 -1.5408 -1.7805 -0.8516
  247MOL0     H33325   4.349   1.501   1.674  3.3762  0.5716  2.2873
  247MOL0     H33326   4.504   1.454   1.839 -0.4451  1.2888  0.1212
  247MOL0     H33327   4.595   1.589   2.361  1.8077  0.6529 -0.3542
  247MOL0     H33328   4.777   1.541   2.507  2.2159 -0.2829 -0.5289
  247MOL0     H33329   4.700   1.594   3.714  0.2379 -0.0037  0.0889
  247MOL0     H33330   4.608   1.815   3.749  0.5901 -0.7256 -0.2309
  247MOL0     H33331   4.473   2.109   3.717 -0.6866  0.5940  3.6248
  247MOL0     H33332   4.287   2.253   3.704 -0.5425  1.1192  0.6008
  247MOL0     H33333   4.350   2.678   3.654  0.0989 -1.0423 -0.5824
  247MOL0     H33334   4.180   2.678   3.616 -0.4048  1.3186 -0.7890
  247MOL0     H33335   4.215   2.581   3.400  1.8433 -1.2604  0.5789
  247MOL0     H33336   4.391   2.588   3.412 -1.0493  1.5665 -4.4439
  247MOL0     H33337   4.194   2.819   3.391 -0.0538  0.2293 -1.9260
  247MOL0     H33338   4.323   2.785   3.281  1.3024  2.3019  1.1299
  247MOL0     H33339   4.395   2.967   3.408 -2.2556  1.2112  1.8860
  247MOL0     H33340   4.371   2.879   3.561  1.7655 -1.9956  0.0421
  247MOL0     H33341   4.737   2.734   3.366  0.6289  2.0318 -0.9494
  247MOL0     H33342   4.536   2.587   3.611  0.5038 -0.2299  0.9327
  247MOL0     H33343   4.782   2.554   3.581 -0.7123 -0.6611  2.0890
  247MOL0     H33344   4.854   2.415   3.648  1.4904 -0.3708 -1.4949
  247MOL0     H33345   4.801   2.410   3.476  1.8160 -0.5111  0.1539
  248MOL0     O33346  10.592   9.165  10.128 -0.2870 -0.3833 -0.1973
  248MOL0     C33347  10.546   9.134  10.240 -0.2009 -0.0696  0.3461
  248MOL0     O33348  10.616   9.088  10.343  0.2755  0.2485 -0.1973
  248MOL0     C33349  10.757   9.076  10.335 -0.2457  0.0554  0.4891
  248MOL0     C33350  10.810   8.975  10.412 -0.4870 -0.3757 -0.1923
  248MOL0     C33351  10.948   8.956  10.418  0.5168 -0.3380  0.3680
  248MOL0     C33352  11.041   9.031  10.348  0.0964  0.0717  0.1388
  248MOL0     O33353  11.179   9.015  10.349 -0.8144 -0.0019  0.0928
  248MOL0     C33354  11.233   8.924  10.458 -0.2689 -0.2970 -0.4342
  248MOL0     C33355  11.390   8.934  10.472 -0.0336 -0.1637  0.2854
  248MOL0     C33356  11.447   8.836  10.576 -0.3285  0.2287 -0.1954
  248MOL0     C33357  11.593   8.869  10.601  0.2193  0.2498 -0.5593
  248MOL0     C33358  11.658   8.770  10.698  0.2736 -0.2133  0.4781
  248MOL0     C33359  11.792   8.834  10.728  0.1386  0.1464 -0.8258
  248MOL0     C33360  11.898   8.734  10.779  0.4246  0.0385  0.2703
  248MOL0     C33361  11.860   8.687  10.915  0.0354 -0.1700  0.2471
  248MOL0     N33362  11.974   8.626  10.979 -0.4570  0.4344 -0.2812
  248MOL0     C33363  12.086   8.683  11.037 -0.7474  0.0301  0.2469
  248MOL0     C33364  12.150   8.582  11.095  0.2707 -0.5941 -0.7109
  248MOL0     C33365  12.273   8.587  11.182 -1.1266 -0.3356 -0.5091
  248MOL0     C33366  12.319   8.732  11.214 -0.0759  0.0963  0.1122
  248MOL0     C33367  12.461   8.723  11.259 -0.1448 -0.7283  0.0431
  248MOL0     C33368  12.569   8.706  11.145  0.4503  0.1641 -0.0601
  248MOL0     O33369  12.703   8.722  11.195 -0.2631  0.2445  0.2293
  248MOL0     C33370  12.799   8.704  11.104 -1.0229  1.0470 -0.2173
  248MOL0     C33371  12.929   8.707  11.158 -0.2057 -0.9905 -0.5619
  248MOL0     C33372  13.042   8.684  11.079  0.3094  0.2191  0.7500
  248MOL0     C33373  13.023   8.646  10.939 -0.6184 -0.2088 -0.4598
  248MOL0     C33374  13.141   8.606  10.853  1.0186  0.0856  0.4583
  248MOL0     O33375  13.253   8.600  10.919 -0.4744 -0.0355 -0.2793
  248MOL0     C33376  13.373   8.566  10.857  0.8552 -0.4870 -0.5265
  248MOL0     C33377  13.425   8.639  10.750  0.1156  0.5855  0.0403
  248MOL0     C33378  13.562   8.614  10.709  0.5585 -0.7345  0.5108
  248MOL0     C33379  13.645   8.530  10.780  0.4628  0.6490  0.0415
  248MOL0     O33380  13.775   8.498  10.737  0.7970  0.4468  0.4098
  248MOL0     C33381  13.821   8.543  10.608 -0.1264  0.6339  0.2933
  248MOL0     C33382  13.971   8.517  10.596  0.1759  0.6154 -0.1876
  248MOL0     C33383  14.027   8.530  10.458 -0.1172  0.0596 -0.4233
  248MOL0     C33384  14.184   8.514  10.452 -0.3882 -0.0762 -0.0828
  248MOL0     C33385  14.246   8.504  10.311 -0.2462  0.5249 -0.1288
  248MOL0     C33386  14.390   8.526  10.313 -0.2753  0.3732  0.0665
  248MOL0     C33387  14.463   8.522  10.175 -0.5261  0.0422  0.2749
  248MOL0     C33388  14.613   8.486  10.189 -0.0608 -0.3351  0.2478
  248MOL0    Cl33389  14.676   8.622  10.286  0.0778  0.2630  0.2691
  248MOL0     C33390  13.594   8.476  10.898 -0.4411 -0.7063 -0.3571
  248MOL0     C33391  13.462   8.494  10.936 -0.6994  0.1411  0.2506
  248MOL0     O33392  13.134   8.592  10.731 -0.8624 -0.6016  0.4665
  248MOL0     C33393  12.894   8.640  10.894 -0.4775  0.2677 -0.6793
  248MOL0     C33394  12.781   8.661  10.974  0.2769  0.5225 -0.4726
  248MOL0     N33395  12.075   8.464  11.059 -1.3667 -1.0294  0.3121
  248MOL0     N33396  11.980   8.500  10.984  0.8239  0.2826 -0.2957
  248MOL0     C33397  10.993   9.130  10.267  1.0700 -0.0152 -0.0664
  248MOL0     C33398  10.849   9.152  10.252 -0.0983 -0.0231  0.9936
  248MOL0     C33399  10.395   9.139  10.247 -0.0948 -0.4283  0.4965
  248MOL0     C33400  10.338   9.235  10.167  0.9346  0.2963 -0.2072
  248MOL0     C33401  10.196   9.251  10.153 -0.1172  0.7099  0.6101
  248MOL0     C33402  10.109   9.164  10.218 -0.0974  0.3525 -0.0454
  248MOL0     O33403   9.973   9.176  10.217 -0.8379  0.3228  0.7709
  248MOL0     C33404   9.914   9.306  10.254  0.1823  0.0316 -0.1040
  248MOL0     C33405   9.958   9.354  10.394 -0.1864 -0.0991  0.4496
  248MOL0     C33406   9.877   9.481  10.435 -0.6133 -0.4497 -0.2048
  248MOL0     C33407   9.892   9.511  10.580 -0.2428  0.6491  0.2120
  248MOL0     C33408  10.037   9.549  10.606 -0.1954  0.1502 -0.6893
  248MOL0     C33409  10.152   9.578  10.639  0.8383 -0.7199  0.1975
  248MOL0     C33410  10.169   9.075  10.308  0.2827  0.5044  0.7664
  248MOL0     C33411  10.307   9.048  10.314  0.3208  0.4747 -0.1058
  248MOL0     C33412  10.352   8.950  10.413 -0.2701 -0.1962  0.7318
  248MOL0     H33413  10.742   8.907  10.463 -1.5754  0.6503 -0.2374
  248MOL0     H33414  10.989   8.874  10.476  0.7260  0.5479  1.5169
  248MOL0     H33415  11.183   8.941  10.554  1.0940 -1.7462  0.5804
  248MOL0     H33416  11.216   8.817  10.444  5.0943 -2.0584  3.3152
  248MOL0     H33417  11.413   9.035  10.507 -1.7476 -0.1882  1.6251
  248MOL0     H33418  11.433   8.919  10.373 -1.7277 -0.3352 -0.4727
  248MOL0     H33419  11.433   8.733  10.541 -0.8832 -0.0749  0.8821
  248MOL0     H33420  11.397   8.829  10.673  0.2809 -2.9727 -0.0068
  248MOL0     H33421  11.649   8.878  10.508  0.9173  2.2841  0.0065
  248MOL0     H33422  11.584   8.968  10.647 -5.7053  0.0288 -0.4196
  248MOL0     H33423  11.589   8.764  10.783 -2.6273 -0.9473 -1.7416
  248MOL0     H33424  11.676   8.671  10.654  1.1215 -0.6543  1.7437
  248MOL0     H33425  11.836   8.878  10.638  0.3627  1.0540 -0.2788
  248MOL0     H33426  11.774   8.919  10.793 -1.6054 -0.4213 -0.4981
  248MOL0     H33427  11.994   8.786  10.787  1.0728 -1.1656  0.4799
  248MOL0     H33428  11.910   8.653  10.706  0.9424 -1.0604  1.5394
  248MOL0     H33429  11.828   8.768  10.980 -0.9535  0.1553 -0.6179
  248MOL0     H33430  11.777   8.617  10.907  2.1104 -2.6998 -0.8595
  248MOL0     H33431  12.111   8.789  11.038 -1.4537  0.2297 -1.1962
  248MOL0     H33432  12.251   8.536  11.276 -0.7690 -0.8318 -0.6897
  248MOL0     H33433  12.349   8.525  11.134 -1.1174 -1.1406  0.5244
  248MOL0     H33434  12.303   8.807  11.136 -2.5124 -0.1878  0.2372
  248MOL0     H33435  12.258   8.771  11.296 -0.9746  1.3562 -1.1063
  248MOL0     H33436  12.465   8.641  11.331  0.8395 -0.6381  0.1043
  248MOL0     H33437  12.471   8.820  11.308 -1.9830  0.1751 -1.2199
  248MOL0     H33438  12.550   8.784  11.070  1.3623  3.5999  2.9812
  248MOL0     H33439  12.559   8.607  11.100 -0.1382  0.3850 -0.4293
  248MOL0     H33440  12.919   8.733  11.264 -0.6964 -0.4364 -0.7382
  248MOL0     H33441  13.146   8.685  11.111  1.2076 -4.5140 -1.2310
  248MOL0     H33442  13.365   8.705  10.687  0.9976  0.2469 -1.1794
  248MOL0     H33443  13.595   8.666  10.619 -0.6902 -0.1454  0.3692
  248MOL0     H33444  13.768   8.493  10.527  3.6139 -1.2577 -1.2100
  248MOL0     H33445  13.800   8.650  10.592  1.5109  0.6200 -2.5182
  248MOL0     H33446  14.022   8.584  10.666 -1.1885  1.1244  0.3562
  248MOL0     H33447  13.994   8.414  10.628  1.1001 -0.3148 -3.5114
  248MOL0     H33448  13.980   8.460  10.388  1.1378  0.8034 -2.0815
  248MOL0     H33449  13.999   8.627  10.416  2.3998  0.9430 -0.1799
  248MOL0     H33450  14.210   8.420  10.502 -1.5981  0.3606  1.4414
  248MOL0     H33451  14.224   8.597  10.511 -1.8217 -0.7280  1.9108
  248MOL0     H33452  14.202   8.581  10.248 -1.9450  1.2628  1.8311
  248MOL0     H33453  14.237   8.402  10.272  2.7844 -1.3940  3.4225
  248MOL0     H33454  14.411   8.621  10.362  0.1296  0.8169 -0.9410
  248MOL0     H33455  14.435   8.447  10.374  1.8074  0.5822 -1.1400
  248MOL0     H33456  14.463   8.622  10.131 -1.5426 -0.3293 -0.6033
  248MOL0     H33457  14.412   8.459  10.102  0.3507 -0.3238 -0.0296
  248MOL0     H33458  14.635   8.399  10.252  0.6737 -0.5789 -0.3258
  248MOL0     H33459  14.671   8.468  10.099  0.8406 -2.2438  1.1512
  248MOL0     H33460  13.663   8.420  10.959 -0.6847 -1.7669 -1.0387
  248MOL0     H33461  13.421   8.437  11.019  0.8409 -1.3936  0.0303
  248MOL0     H33462  12.863   8.595  10.800 -1.7988  2.3399 -1.3048
  248MOL0     H33463  12.680   8.641  10.940  0.0031 -1.9734  1.4950
  248MOL0     H33464  11.070   9.191  10.220  2.1037  0.8775  2.5981
  248MOL0     H33465  10.810   9.234  10.192  3.7786  1.1316 -0.2633
  248MOL0     H33466  10.400   9.318  10.134 -1.2918  2.9695  1.7336
  248MOL0     H33467  10.149   9.336  10.104  2.1690  0.3745 -2.4340
  248MOL0     H33468   9.808   9.282  10.256  0.3972 -1.1871  3.5642
  248MOL0     H33469   9.936   9.381  10.177 -2.2476  3.3008  2.1243
  248MOL0     H33470  10.065   9.378  10.395 -0.2236  0.1991 -0.9372
  248MOL0     H33471   9.944   9.264  10.455  1.3132 -0.6651  0.0069
  248MOL0     H33472   9.771   9.467  10.411 -0.8720  2.3484 -1.1323
  248MOL0     H33473   9.899   9.575  10.383 -0.7017 -0.0405  0.4926
  248MOL0     H33474   9.832   9.587  10.630  0.5248  1.3327  0.1245
  248MOL0     H33475   9.872   9.424  10.642  0.5820  0.4100  0.1606
  248MOL0     H33476  10.249   9.614  10.667  1.9544 -1.3343 -2.6221
  248MOL0     H33477  10.095   9.021  10.366 -0.5140 -2.2671 -2.4696
  248MOL0     H33478  10.406   8.991  10.498 -1.0798  1.8090  0.3280
  248MOL0     H33479  10.259   8.908  10.453 -0.2655 -1.8306 -0.8185
  248MOL0     H33480  10.413   8.876  10.360 -0.8018  0.3966 -0.7710
  249MOL0     O33481  10.939   9.369   0.256 -0.3240  0.1531 -0.7687
  249MOL0     C33482  10.995   9.466   0.211  0.3634  0.1290 -0.3524
  249MOL0     O33483  11.125   9.507   0.240 -0.2320 -0.2773 -0.1665
  249MOL0     C33484  11.196   9.431   0.331  0.3630 -0.5301 -0.2794
  249MOL0     C33485  11.142   9.377   0.451 -0.1596 -0.0195 -0.5262
  249MOL0     C33486  11.233   9.315   0.546  0.2583 -0.3426  0.7413
  249MOL0     C33487  11.371   9.300   0.515 -0.7628  0.0887 -0.2607
  249MOL0     O33488  11.456   9.232   0.602  0.0334 -0.0301 -0.7350
  249MOL0     C33489  11.416   9.098   0.651  0.4367  0.0275 -0.0836
  249MOL0     C33490  11.474   9.088   0.787  0.3540  0.7101  0.7209
  249MOL0     C33491  11.624   9.113   0.790  0.0220 -0.0025 -1.0663
  249MOL0     C33492  11.698   9.091   0.920  0.0244 -0.4213 -0.5995
  249MOL0     C33493  11.833   9.165   0.920 -0.0377  0.6174  0.7506
  249MOL0     C33494  11.932   9.109   0.819 -0.5631 -0.6381 -0.1604
  249MOL0     C33495  12.077   9.170   0.848  0.6872  0.2742 -0.0769
  249MOL0     C33496  12.178   9.108   0.744 -0.4883 -0.7786  0.6351
  249MOL0     N33497  12.225   8.980   0.812 -0.5721 -0.9049 -0.0897
  249MOL0     C33498  12.339   8.964   0.886  0.6292  0.0403  0.1275
  249MOL0     C33499  12.328   8.835   0.930 -0.8330 -0.1157 -0.4063
  249MOL0     C33500  12.424   8.760   1.026 -0.2237 -0.0760  0.1362
  249MOL0     C33501  12.542   8.689   0.953  0.7798 -0.0197  0.2675
  249MOL0     C33502  12.634   8.601   1.041  0.0711  0.2193 -1.1406
  249MOL0     C33503  12.748   8.551   0.959 -0.3339  0.1752  0.6230
  249MOL0     O33504  12.829   8.464   1.031  0.3023 -0.4389 -0.4961
  249MOL0     C33505  12.969   8.454   0.999  0.6276 -0.7560 -0.2875
  249MOL0     C33506  13.022   8.502   0.880 -1.1227  0.8924 -0.4579
  249MOL0     C33507  13.161   8.513   0.852  0.7596  0.2923 -0.2015
  249MOL0     C33508  13.252   8.456   0.947  0.1855  0.0677 -0.3083
  249MOL0     C33509  13.398   8.460   0.920 -0.7971 -0.0885  0.2214
  249MOL0     O33510  13.488   8.396   0.996 -0.0379 -0.4015 -0.0656
  249MOL0     C33511  13.624   8.392   0.976 -0.8685 -0.7409  0.1781
  249MOL0     C33512  13.691   8.286   1.039 -1.0225  0.0215 -0.7749
  249MOL0     C33513  13.836   8.268   1.032  1.2627  0.6462  0.3515
  249MOL0     C33514  13.906   8.355   0.955 -0.4059 -0.3067  0.6996
  249MOL0     O33515  14.038   8.347   0.931 -0.7367 -0.0582 -0.0985
  249MOL0     C33516  14.096   8.215   0.905  0.2130 -0.9285 -0.4870
  249MOL0     C33517  14.238   8.198   0.975 -0.0783 -0.9019 -0.6123
  249MOL0     C33518  14.215   8.175   1.126 -0.0897  0.5113  0.7134
  249MOL0     C33519  14.335   8.088   1.166  0.6210  0.4929  0.4757
  249MOL0     C33520  14.458   8.169   1.205 -0.3560 -0.3111  0.7295
  249MOL0     C33521  14.546   8.210   1.083 -0.1693 -1.2290 -0.5981
  249MOL0     C33522  14.614   8.098   1.006  0.1981  0.3667  0.0982
  249MOL0     C33523  14.728   8.136   0.913 -0.6585  0.0597  0.6416
  249MOL0    Cl33524  14.814   7.989   0.867  0.1062  0.3914 -0.3548
  249MOL0     C33525  13.844   8.466   0.891 -0.2383 -0.4071  0.3754
  249MOL0     C33526  13.706   8.489   0.918  0.3187  0.1155  0.2723
  249MOL0     O33527  13.428   8.523   0.821 -0.0605  0.2513 -0.1198
  249MOL0     C33528  13.194   8.380   1.055 -0.2217 -0.8172  0.6525
  249MOL0     C33529  13.062   8.385   1.083  0.2295 -0.0628 -0.1032
  249MOL0     N33530  12.223   8.771   0.872 -0.5197  0.6983  0.2267
  249MOL0     N33531  12.158   8.858   0.800 -0.3317 -0.3937 -1.1666
  249MOL0     C33532  11.421   9.366   0.398  0.6194  0.0306  0.2238
  249MOL0     C33533  11.336   9.427   0.309  0.0830 -0.1806 -1.4744
  249MOL0     C33534  10.908   9.555   0.129  0.7522  0.3087  0.0014
  249MOL0     C33535  10.957   9.629   0.020 -0.9033  0.4532 -0.5071
  249MOL0     C33536  10.880   9.706  -0.064 -0.3268  0.1962  0.2943
  249MOL0     C33537  10.744   9.715  -0.040  0.1392  0.3226  0.2641
  249MOL0     O33538  10.661   9.797  -0.107  0.2124 -0.4996 -0.1139
  249MOL0     C33539  10.715   9.885  -0.206  0.4246  0.2633  0.7833
  249MOL0     C33540  10.796  10.008  -0.150  0.6983 -0.4603 -0.6992
  249MOL0     C33541  10.826  10.095  -0.282 -0.1789 -0.0176 -0.5040
  249MOL0     C33542  10.901  10.223  -0.242  0.0057  0.6268  0.4417
  249MOL0     C33543  11.046  10.221  -0.259 -0.4580 -0.2296 -0.0279
  249MOL0     C33544  11.170  10.208  -0.268  0.0191 -0.0132  0.1515
  249MOL0     C33545  10.692   9.639   0.058  0.0294  0.5312 -0.2981
  249MOL0     C33546  10.767   9.566   0.149 -0.2369  0.5095  0.4576
  249MOL0     C33547  10.695   9.502   0.265  0.3634  0.2342  0.7161
  249MOL0     H33548  11.036   9.385   0.473  0.5271  0.9916  2.9582
  249MOL0     H33549  11.196   9.264   0.634 -0.9760 -0.9608 -0.0935
  249MOL0     H33550  11.309   9.082   0.667  0.4006  1.0538  0.8510
  249MOL0     H33551  11.449   9.019   0.584 -2.1732 -1.4623  0.2648
  249MOL0     H33552  11.446   8.986   0.815 -1.6246  1.1995  0.6749
  249MOL0     H33553  11.420   9.158   0.852  1.7886  4.1736 -1.5227
  249MOL0     H33554  11.646   9.218   0.769 -2.2925  1.1848  1.8338
  249MOL0     H33555  11.662   9.049   0.710  1.2093 -0.8758  0.1516
  249MOL0     H33556  11.633   9.130   1.000  0.6181 -3.7828  1.7814
  249MOL0     H33557  11.713   8.985   0.945  3.8713 -0.2356 -1.5754
  249MOL0     H33558  11.820   9.272   0.900 -0.4544  0.4105 -0.1330
  249MOL0     H33559  11.879   9.163   1.019  0.8200  1.0908  0.3700
  249MOL0     H33560  11.941   9.001   0.836  2.9851 -0.4347  0.0599
  249MOL0     H33561  11.900   9.136   0.717 -2.3977  2.3320  1.0678
  249MOL0     H33562  12.107   9.136   0.948  1.6926 -1.4699 -0.9140
  249MOL0     H33563  12.083   9.279   0.848  0.3309  0.2922 -0.1639
  249MOL0     H33564  12.142   9.091   0.642 -2.0863 -0.8864  1.1738
  249MOL0     H33565  12.268   9.168   0.747 -0.0787 -1.4120  1.5632
  249MOL0     H33566  12.417   9.036   0.910  2.0466 -1.1220 -0.7883
  249MOL0     H33567  12.462   8.832   1.099  1.6272  1.3804 -2.1338
  249MOL0     H33568  12.364   8.685   1.079 -1.3082  1.0390  0.5352
  249MOL0     H33569  12.505   8.630   0.869  3.2818 -2.7333  0.9016
  249MOL0     H33570  12.594   8.775   0.910 -1.4560  0.3736 -1.9008
  249MOL0     H33571  12.580   8.510   1.068 -0.6870  1.0705  0.3806
  249MOL0     H33572  12.663   8.657   1.131 -2.0813 -2.5939  1.5531
  249MOL0     H33573  12.809   8.636   0.929 -0.2729 -0.5048 -1.2954
  249MOL0     H33574  12.713   8.504   0.867 -1.8989  2.3796  0.0123
  249MOL0     H33575  12.953   8.539   0.805 -0.0412  1.2285 -1.3096
  249MOL0     H33576  13.185   8.553   0.754  0.4328  0.0498 -0.3845
  249MOL0     H33577  13.634   8.205   1.082  1.9947 -0.6704  2.3718
  249MOL0     H33578  13.892   8.183   1.071  1.9738 -0.0332 -1.9695
  249MOL0     H33579  14.029   8.134   0.934 -1.9115  1.7723  3.0681
  249MOL0     H33580  14.114   8.204   0.798 -0.5023 -0.7842 -0.6290
  249MOL0     H33581  14.277   8.113   0.918 -1.3787 -0.8230 -1.6686
  249MOL0     H33582  14.308   8.278   0.949  0.3421 -1.0170  0.1321
  249MOL0     H33583  14.225   8.270   1.180 -1.5700 -0.0661  2.0598
  249MOL0     H33584  14.119   8.127   1.147  0.5503 -1.5637 -0.8155
  249MOL0     H33585  14.354   8.016   1.087  1.4222 -1.4542  2.3442
  249MOL0     H33586  14.315   8.027   1.255 -2.0699 -0.1161 -0.4569
  249MOL0     H33587  14.524   8.114   1.273  3.1784  2.5736 -0.1007
  249MOL0     H33588  14.423   8.258   1.258 -1.2370  0.3914 -0.9553
  249MOL0     H33589  14.504   8.282   1.012 -0.8482  1.0053  1.8738
  249MOL0     H33590  14.627   8.270   1.126 -1.5510 -0.8526  1.6833
  249MOL0     H33591  14.539   8.041   0.949 -1.1930  1.8525  0.3603
  249MOL0     H33592  14.657   8.024   1.074  0.2263  0.0783 -0.2284
  249MOL0     H33593  14.693   8.184   0.821  1.7269 -1.7118 -1.3067
  249MOL0     H33594  14.789   8.201   0.977 -1.9640 -2.2268  4.5783
  249MOL0     H33595  13.907   8.537   0.839 -0.0246 -0.4631  0.5559
  249MOL0     H33596  13.668   8.576   0.866  1.8043  0.0962 -0.9205
  249MOL0     H33597  13.260   8.316   1.112  1.8236  0.2360 -0.4314
  249MOL0     H33598  13.039   8.331   1.174  1.2244  0.2284  0.3364
  249MOL0     H33599  11.525   9.366   0.367  0.6185  3.3009 -0.1270
  249MOL0     H33600  11.383   9.484   0.230  4.4787  0.6448  1.4011
  249MOL0     H33601  11.065   9.631   0.007 -0.9849  1.1024 -1.1532
  249MOL0     H33602  10.922   9.761  -0.148  0.1075 -1.1262 -0.3725
  249MOL0     H33603  10.626   9.918  -0.262  1.2474  1.8403  0.3654
  249MOL0     H33604  10.775   9.832  -0.281  0.0516  2.7144 -1.4021
  249MOL0     H33605  10.889   9.968  -0.108  0.3063 -1.4004 -0.7088
  249MOL0     H33606  10.745  10.069  -0.076 -0.1679 -2.2265  0.2062
  249MOL0     H33607  10.733  10.124  -0.332 -0.9569 -1.4921  0.0078
  249MOL0     H33608  10.893  10.044  -0.351 -1.0902 -1.1576 -0.5731
  249MOL0     H33609  10.858  10.307  -0.296  0.7158  0.1356 -0.9227
  249MOL0     H33610  10.880  10.250  -0.138  3.4495  2.0795  0.9068
  249MOL0     H33611  11.275  10.193  -0.256 -0.4647 -2.6858  2.1284
  249MOL0     H33612  10.585   9.627   0.071  0.1168 -0.5562 -0.4892
  249MOL0     H33613  10.750   9.496   0.359  1.4954  2.8537  0.2984
  249MOL0     H33614  10.606   9.565   0.276  0.6944  0.9681 -0.6178
  249MOL0     H33615  10.665   9.403   0.230  1.2212  0.1179  0.2995
  250MOL0     O33616   5.244   9.219   2.129 -0.7517 -0.2331 -0.0282
  250MOL0     C33617   5.206   9.110   2.178  0.4945 -0.3563 -0.5393
  250MOL0     O33618   5.279   8.987   2.162  0.0324  0.4559 -0.0954
  250MOL0     C33619   5.395   8.993   2.082 -0.1026  0.1653 -0.4299
  250MOL0     C33620   5.522   8.965   2.129  0.2263 -0.5468  0.0998
  250MOL0     C33621   5.633   8.985   2.053  0.2959 -0.0595  0.0325
  250MOL0     C33622   5.617   9.017   1.915  0.9126  0.1416  0.1364
  250MOL0     O33623   5.733   9.040   1.841  0.0422  0.3204 -0.2922
  250MOL0     C33624   5.730   9.136   1.730  0.8975 -0.3369 -0.4069
  250MOL0     C33625   5.868   9.149   1.673  0.3762  0.3828 -0.2298
  250MOL0     C33626   5.954   9.213   1.782  0.0510  0.6635 -0.6338
  250MOL0     C33627   6.052   9.127   1.866 -0.3245  0.3317 -0.2663
  250MOL0     C33628   6.179   9.122   1.783  0.8286 -0.5537  0.6820
  250MOL0     C33629   6.280   9.036   1.855  0.5956  0.8711  0.0971
  250MOL0     C33630   6.416   9.032   1.791 -0.1710 -0.3439  0.1543
  250MOL0     C33631   6.527   8.949   1.852  0.1698  0.5173 -0.5352
  250MOL0     N33632   6.644   8.968   1.766 -0.1134  0.3676  1.3260
  250MOL0     C33633   6.750   9.048   1.804 -0.6640 -0.3272 -0.1147
  250MOL0     C33634   6.855   9.011   1.731  0.3481  0.4466  0.3380
  250MOL0     C33635   6.987   9.073   1.746 -0.3527 -0.2880 -0.3423
  250MOL0     C33636   7.008   9.185   1.653 -0.1088 -0.0152  1.0762
  250MOL0     C33637   7.034   9.138   1.500 -0.4316  0.2971  0.0746
  250MOL0     C33638   7.031   9.257   1.406 -0.3252  1.0437  0.6924
  250MOL0     O33639   7.118   9.356   1.457  0.5807 -0.5533 -0.5618
  250MOL0     C33640   7.135   9.478   1.390  0.0622  0.7301 -0.7954
  250MOL0     C33641   7.054   9.536   1.302  0.4851 -0.0985  0.1116
  250MOL0     C33642   7.090   9.660   1.247  0.6920 -1.0291  1.1063
  250MOL0     C33643   7.195   9.736   1.291 -0.3164  0.2777 -0.1111
  250MOL0     C33644   7.237   9.866   1.237  0.8690 -0.3409  0.1272
  250MOL0     O33645   7.159   9.910   1.131  0.0366  0.4232 -0.1566
  250MOL0     C33646   7.197   9.999   1.035 -0.8354  0.1596 -0.3214
  250MOL0     C33647   7.094  10.071   0.970 -0.3226  0.7429  0.2142
  250MOL0     C33648   7.124  10.163   0.868 -0.4133  0.2531  0.0667
  250MOL0     C33649   7.257  10.202   0.842  1.0095  0.4597  0.4500
  250MOL0     O33650   7.286  10.303   0.761  0.4313  0.2058  0.9956
  250MOL0     C33651   7.397  10.296   0.670 -0.7055 -0.6816 -0.7444
  250MOL0     C33652   7.395  10.175   0.581 -0.6466 -0.8869 -0.2776
  250MOL0     C33653   7.484  10.199   0.454 -0.2202  0.7636  0.0219
  250MOL0     C33654   7.617  10.144   0.502 -0.2415  1.1771  0.4119
  250MOL0     C33655   7.729  10.170   0.400 -0.3147 -0.1678  0.3662
  250MOL0     C33656   7.792  10.316   0.425 -0.0605  0.6134  0.3174
  250MOL0     C33657   7.875  10.361   0.311  0.7588  0.5066  0.1844
  250MOL0     C33658   7.923  10.505   0.312 -0.5636  0.7240  0.0957
  250MOL0    Cl33659   7.799  10.623   0.310  0.2185 -0.0878  0.1824
  250MOL0     C33660   7.359  10.135   0.913 -0.1847 -0.4554 -0.9165
  250MOL0     C33661   7.336  10.032   1.010  0.5300  0.5622  0.7173
  250MOL0     O33662   7.337   9.923   1.279  0.5418 -0.2082  0.3859
  250MOL0     C33663   7.278   9.670   1.384  0.3300 -0.3860 -0.3865
  250MOL0     C33664   7.248   9.546   1.428 -0.1827  0.4013  0.5311
  250MOL0     N33665   6.811   8.910   1.647 -0.3696  0.8352  0.4478
  250MOL0     N33666   6.688   8.881   1.669  0.0944 -0.3050 -0.5976
  250MOL0     C33667   5.493   9.033   1.859  0.5310  0.5640  0.2447
  250MOL0     C33668   5.384   9.029   1.943 -0.7932 -0.0572  0.1034
  250MOL0     C33669   5.076   9.106   2.248  0.3009 -0.9027 -1.1328
  250MOL0     C33670   4.980   9.204   2.218 -0.2756  0.3162  0.6514
  250MOL0     C33671   4.855   9.205   2.276  1.2700 -0.3442 -0.1589
  250MOL0     C33672   4.816   9.113   2.375 -0.6393  0.0447  0.6009
  250MOL0     O33673   4.687   9.119   2.431 -0.0109  0.2546  0.4492
  250MOL0     C33674   4.675   9.050   2.556 -0.2632 -0.6795 -0.6015
  250MOL0     C33675   4.554   9.106   2.635 -0.3680 -0.6750  0.4589
  250MOL0     C33676   4.417   9.049   2.579 -0.5430  0.2499  0.2978
  250MOL0     C33677   4.294   9.095   2.654  1.0746  0.7703 -0.1977
  250MOL0     C33678   4.201   8.987   2.672  1.0016  0.4126  0.0308
  250MOL0     C33679   4.131   8.889   2.683 -0.1428 -0.1989  0.0146
  250MOL0     C33680   4.918   9.024   2.415 -0.8312  0.1941  0.0603
  250MOL0     C33681   5.044   9.022   2.357 -0.3212  0.5323  0.4262
  250MOL0     C33682   5.136   8.919   2.409 -0.3616  0.4696  0.5242
  250MOL0     H33683   5.541   8.920   2.226 -0.5877 -0.0570  0.4993
  250MOL0     H33684   5.727   8.954   2.097  0.0786 -1.0438 -0.1623
  250MOL0     H33685   5.669   9.094   1.650  0.8892 -1.7340  0.2933
  250MOL0     H33686   5.682   9.229   1.762  0.0121  0.0785 -2.7613
  250MOL0     H33687   5.850   9.209   1.583 -2.1294 -0.0150 -0.0614
  250MOL0     H33688   5.913   9.051   1.655  0.2683  0.5582 -1.6214
  250MOL0     H33689   5.902   9.272   1.858 -2.1357 -1.2047 -0.5844
  250MOL0     H33690   6.019   9.285   1.732 -0.1114  1.3761  0.1628
  250MOL0     H33691   6.072   9.185   1.957 -2.7815  1.2167 -0.2112
  250MOL0     H33692   6.017   9.027   1.893  1.4938 -0.0196  0.9369
  250MOL0     H33693   6.166   9.090   1.679 -1.4397 -0.4826  0.9042
  250MOL0     H33694   6.217   9.224   1.769 -1.5054  0.0117 -3.0060
  250MOL0     H33695   6.291   9.074   1.957 -1.9210 -0.2207  0.8542
  250MOL0     H33696   6.234   8.938   1.871  0.4570  0.7361 -1.0747
  250MOL0     H33697   6.464   9.130   1.797 -1.1536  0.1623 -0.1846
  250MOL0     H33698   6.406   8.998   1.687  1.2540  0.5047 -0.2987
  250MOL0     H33699   6.538   8.981   1.956 -0.8874  0.3316 -0.3594
  250MOL0     H33700   6.493   8.845   1.861 -2.8888  1.5985  3.0020
  250MOL0     H33701   6.745   9.123   1.881  1.7889 -2.0891  1.9160
  250MOL0     H33702   6.999   9.125   1.841  0.9610 -0.4121 -0.4212
  250MOL0     H33703   7.066   8.998   1.749 -1.1904 -1.1705  1.3110
  250MOL0     H33704   6.922   9.251   1.641  0.3432  0.4596  0.3242
  250MOL0     H33705   7.081   9.256   1.694  0.7781 -0.9291  1.1267
  250MOL0     H33706   6.958   9.067   1.466 -0.5359  0.5209 -0.1648
  250MOL0     H33707   7.132   9.090   1.496 -1.1485 -1.2527  0.0559
  250MOL0     H33708   6.930   9.296   1.390 -0.8602 -1.1305 -1.8535
  250MOL0     H33709   7.062   9.228   1.305 -1.7682 -0.4389  0.6321
  250MOL0     H33710   6.967   9.487   1.262  1.3660 -0.1492 -1.8457
  250MOL0     H33711   7.023   9.709   1.178  1.5171 -3.2364 -1.4706
  250MOL0     H33712   6.990  10.056   0.994 -0.1575  2.9616  2.9118
  250MOL0     H33713   7.034  10.198   0.818 -0.6460 -0.3752  0.0382
  250MOL0     H33714   7.381  10.386   0.610  1.0001 -0.1269 -0.4258
  250MOL0     H33715   7.483  10.318   0.733 -2.1600  2.9154  0.2576
  250MOL0     H33716   7.421  10.083   0.633  0.8047 -0.9052 -0.9833
  250MOL0     H33717   7.292  10.162   0.547  0.1493  0.4837 -3.5478
  250MOL0     H33718   7.444  10.145   0.368 -0.1594  3.4343 -1.8078
  250MOL0     H33719   7.491  10.304   0.424 -3.9027  1.1949  0.1974
  250MOL0     H33720   7.605  10.035   0.510 -0.8681  1.2252  0.1908
  250MOL0     H33721   7.640  10.191   0.598  0.6414  4.5524 -1.2813
  250MOL0     H33722   7.701  10.151   0.297  3.4807 -0.6652 -0.7042
  250MOL0     H33723   7.807  10.095   0.418 -0.7332 -0.3255  1.6905
  250MOL0     H33724   7.711  10.386   0.450  0.2079  0.2719  2.3112
  250MOL0     H33725   7.867  10.315   0.505  1.5856  3.0468 -1.0835
  250MOL0     H33726   7.824  10.348   0.215  3.0658 -0.4595 -1.0101
  250MOL0     H33727   7.955  10.286   0.309  0.7717  0.4212  2.3372
  250MOL0     H33728   7.977  10.529   0.404 -1.0726  1.6954  0.1463
  250MOL0     H33729   7.988  10.521   0.225 -1.1311 -0.4344 -0.5744
  250MOL0     H33730   7.461  10.169   0.902 -0.8476  3.2744  2.3144
  250MOL0     H33731   7.427  10.000   1.061  3.1537  2.6164 -2.2601
  250MOL0     H33732   7.368   9.724   1.410 -0.9442  0.9505  1.5739
  250MOL0     H33733   7.314   9.500   1.501 -0.7916 -1.7295 -0.1817
  250MOL0     H33734   5.478   9.043   1.752  2.4845  1.4459  0.0043
  250MOL0     H33735   5.292   9.048   1.888  0.0477  0.9226 -0.9911
  250MOL0     H33736   4.999   9.285   2.148 -2.8822  0.2407 -0.2741
  250MOL0     H33737   4.777   9.278   2.256  1.6939  0.6095  1.5196
  250MOL0     H33738   4.761   9.072   2.619 -2.1324 -1.9613  2.6915
  250MOL0     H33739   4.684   8.941   2.553 -1.9120 -1.0834  2.9789
  250MOL0     H33740   4.559   9.215   2.630  0.7944 -0.7545 -2.8854
  250MOL0     H33741   4.566   9.075   2.739  1.6751  0.0914  0.5099
  250MOL0     H33742   4.418   8.940   2.584 -2.0488  0.0910 -1.5034
  250MOL0     H33743   4.408   9.072   2.472  2.4312 -0.2470 -0.1365
  250MOL0     H33744   4.320   9.152   2.743  0.5713  1.6180 -0.5775
  250MOL0     H33745   4.248   9.174   2.594  1.7152  1.9905  0.8926
  250MOL0     H33746   4.072   8.800   2.686  2.7887 -2.3663 -1.4941
  250MOL0     H33747   4.899   8.944   2.485  1.2316 -4.7569 -4.3995
  250MOL0     H33748   5.169   8.849   2.331  0.0536  1.0097  0.2059
  250MOL0     H33749   5.233   8.957   2.443  1.0454 -0.9129 -1.6921
  250MOL0     H33750   5.083   8.863   2.486 -0.3613 -1.6517 -0.9174
  251MOL0     O33751  10.687   6.579   5.413  1.2524  0.5072  0.4134
  251MOL0     C33752  10.658   6.629   5.305 -0.1453  0.3689 -0.1405
  251MOL0     O33753  10.748   6.702   5.232  0.1476  0.7618  0.2218
  251MOL0     C33754  10.879   6.676   5.246 -0.3755  0.3095  0.0530
  251MOL0     C33755  10.968   6.785   5.221 -0.0721 -0.1232 -0.8617
  251MOL0     C33756  11.112   6.768   5.233  0.9477 -0.1337 -0.3403
  251MOL0     C33757  11.163   6.646   5.275  0.1190 -0.4158  0.4320
  251MOL0     O33758  11.295   6.661   5.314  0.1834  0.2502 -0.6304
  251MOL0     C33759  11.377   6.552   5.360  0.0824 -1.0861  0.5542
  251MOL0     C33760  11.506   6.624   5.404 -0.1124 -0.6011 -0.8839
  251MOL0     C33761  11.606   6.535   5.488  0.1341 -0.0210 -0.2086
  251MOL0     C33762  11.653   6.410   5.417  0.6959  0.8478 -0.2897
  251MOL0     C33763  11.757   6.330   5.502  0.5445  0.3646 -0.5045
  251MOL0     C33764  11.884   6.400   5.539 -0.0519 -0.3261 -0.7578
  251MOL0     C33765  11.979   6.318   5.631  1.8361  1.2286 -0.3030
  251MOL0     C33766  12.102   6.406   5.666  0.1772 -0.1694  0.3485
  251MOL0     N33767  12.206   6.338   5.745 -0.0115 -0.6347 -0.2381
  251MOL0     C33768  12.224   6.340   5.883  0.4037 -0.1409 -0.6759
  251MOL0     C33769  12.319   6.243   5.896 -0.8034  0.9460 -0.3113
  251MOL0     C33770  12.397   6.198   6.015 -1.2963 -0.6806 -0.3388
  251MOL0     C33771  12.541   6.247   5.993  0.1542  0.4391 -0.3277
  251MOL0     C33772  12.547   6.404   6.004 -0.1199 -0.1594  0.9208
  251MOL0     C33773  12.492   6.465   6.130  0.0840 -0.0618 -0.0623
  251MOL0     O33774  12.577   6.432   6.241  0.3272 -0.2557 -0.1452
  251MOL0     C33775  12.708   6.471   6.234 -0.5870 -0.2176  0.0654
  251MOL0     C33776  12.756   6.597   6.218 -0.0476 -0.5211 -0.4108
  251MOL0     C33777  12.891   6.631   6.205  0.1337  0.8531 -0.7976
  251MOL0     C33778  12.996   6.532   6.216 -0.2065  1.5108  0.0144
  251MOL0     C33779  13.134   6.565   6.218 -0.8599 -0.3625  0.6208
  251MOL0     O33780  13.219   6.462   6.198 -0.5016 -0.5162  0.1166
  251MOL0     C33781  13.360   6.485   6.190  1.0148 -0.0173  0.3667
  251MOL0     C33782  13.442   6.432   6.292  0.4099 -0.3945  0.1021
  251MOL0     C33783  13.579   6.473   6.293  0.7894 -0.0834 -0.9526
  251MOL0     C33784  13.642   6.550   6.204 -0.1790  0.2813  1.1515
  251MOL0     O33785  13.769   6.587   6.227  0.2613 -0.0183  0.5903
  251MOL0     C33786  13.845   6.651   6.122 -0.3623 -0.9654 -0.5155
  251MOL0     C33787  13.985   6.691   6.181  0.0168 -0.1305  1.1466
  251MOL0     C33788  14.068   6.575   6.225  0.0834  0.1907  0.4073
  251MOL0     C33789  14.209   6.599   6.283 -0.2157 -0.0977 -0.7915
  251MOL0     C33790  14.288   6.475   6.334 -0.0148 -1.0476  0.1124
  251MOL0     C33791  14.436   6.510   6.361 -0.3936  0.7738 -0.0000
  251MOL0     C33792  14.449   6.623   6.466  0.6971 -0.6680  0.6932
  251MOL0     C33793  14.587   6.618   6.525  0.3596 -0.0431 -0.6356
  251MOL0    Cl33794  14.722   6.624   6.415  0.1384  0.1946 -0.1445
  251MOL0     C33795  13.559   6.601   6.097 -0.5005  1.0736  0.9929
  251MOL0     C33796  13.421   6.565   6.090 -0.1785 -0.0982 -0.1650
  251MOL0     O33797  13.168   6.684   6.223  0.3205  0.0689  0.0381
  251MOL0     C33798  12.945   6.398   6.247  0.7124 -0.8565  0.2650
  251MOL0     C33799  12.804   6.380   6.264  0.1791  0.9506 -0.0268
  251MOL0     N33800  12.353   6.184   5.773 -0.3282 -0.1529 -0.2477
  251MOL0     N33801  12.277   6.243   5.683 -0.3869  0.3767 -0.0239
  251MOL0     C33802  11.087   6.535   5.287  0.6307  0.6302 -0.5815
  251MOL0     C33803  10.942   6.546   5.272 -0.3701 -0.6562  0.0927
  251MOL0     C33804  10.524   6.623   5.254  0.7167  0.1222 -0.1118
  251MOL0     C33805  10.484   6.733   5.171  0.6511 -0.1799  0.3705
  251MOL0     C33806  10.345   6.745   5.145 -0.3224  0.5458  1.6910
  251MOL0     C33807  10.252   6.663   5.191 -1.0804  0.8468 -0.0708
  251MOL0     O33808  10.119   6.686   5.148  0.0765 -0.1405  0.2833
  251MOL0     C33809  10.022   6.586   5.159 -0.1504 -0.4320  0.6817
  251MOL0     C33810   9.891   6.638   5.112  0.3414  0.7991  0.3970
  251MOL0     C33811   9.906   6.710   4.980  0.4107  0.2010  0.0933
  251MOL0     C33812   9.766   6.752   4.928  0.5835 -0.3440  0.3183
  251MOL0     C33813   9.764   6.794   4.783 -0.0034 -0.5310  0.3874
  251MOL0     C33814   9.768   6.830   4.666  0.0303 -0.3658 -0.4931
  251MOL0     C33815  10.292   6.543   5.257  0.1732  0.0878  0.5273
  251MOL0     C33816  10.428   6.525   5.291  0.3872 -0.0830  0.4185
  251MOL0     C33817  10.472   6.385   5.358  0.0147  0.2232 -0.2610
  251MOL0     H33818  10.927   6.884   5.210  2.0954  0.9914  0.3947
  251MOL0     H33819  11.179   6.853   5.225  2.9411 -1.3211  2.1345
  251MOL0     H33820  11.335   6.496   5.445 -0.5548  1.2204  1.8419
  251MOL0     H33821  11.408   6.482   5.282  1.7263 -0.4536  0.5944
  251MOL0     H33822  11.490   6.706   5.474  1.8442 -2.5567  2.0597
  251MOL0     H33823  11.569   6.655   5.320  2.2577 -0.2883  0.9332
  251MOL0     H33824  11.564   6.494   5.581  0.4724 -1.9258 -0.8733
  251MOL0     H33825  11.688   6.601   5.519 -0.7686  0.1819  1.9445
  251MOL0     H33826  11.565   6.356   5.380  0.9833  1.0002 -1.2165
  251MOL0     H33827  11.702   6.442   5.325 -0.7671 -0.6023 -1.6462
  251MOL0     H33828  11.721   6.300   5.600  4.4442 -1.2738  0.6309
  251MOL0     H33829  11.792   6.240   5.450  3.0744 -1.2133  3.4580
  251MOL0     H33830  11.933   6.436   5.448  1.2039  0.1293  0.0780
  251MOL0     H33831  11.846   6.484   5.597 -0.5584 -0.5261 -0.7931
  251MOL0     H33832  12.014   6.225   5.586  0.2240  0.6608 -0.4345
  251MOL0     H33833  11.930   6.293   5.725  2.2028 -1.4946 -0.7568
  251MOL0     H33834  12.142   6.437   5.569 -3.4066  2.4211 -0.5166
  251MOL0     H33835  12.079   6.501   5.714  0.1039 -0.1804  0.3369
  251MOL0     H33836  12.163   6.400   5.949 -2.0733 -0.6211 -2.4015
  251MOL0     H33837  12.351   6.240   6.104 -0.7993 -1.8486  0.4961
  251MOL0     H33838  12.386   6.089   6.025  2.5784 -1.1361  0.3432
  251MOL0     H33839  12.590   6.197   6.077 -0.8097 -2.7998 -1.5401
  251MOL0     H33840  12.589   6.212   5.902 -0.2162  1.7916 -1.0779
  251MOL0     H33841  12.488   6.449   5.922  1.3348  1.0538  0.4932
  251MOL0     H33842  12.649   6.438   5.985  0.4147  0.7929  4.7224
  251MOL0     H33843  12.387   6.450   6.158  0.7322 -1.2878  1.9227
  251MOL0     H33844  12.492   6.573   6.115 -0.7336  0.2183  1.7016
  251MOL0     H33845  12.682   6.672   6.192  1.3927  0.4161 -2.0898
  251MOL0     H33846  12.910   6.736   6.182 -0.6319  0.7037 -2.2418
  251MOL0     H33847  13.391   6.372   6.366  1.4650 -0.6360  0.6607
  251MOL0     H33848  13.639   6.439   6.377 -0.6806  0.7334  0.4890
  251MOL0     H33849  13.851   6.588   6.033 -0.0146  1.2405 -2.1307
  251MOL0     H33850  13.796   6.741   6.083  1.0642 -0.1809 -0.5411
  251MOL0     H33851  14.048   6.743   6.108  0.4673 -3.4489 -1.0580
  251MOL0     H33852  13.974   6.756   6.268 -2.4454  1.2052 -0.0674
  251MOL0     H33853  14.007   6.525   6.301 -0.2291 -2.4674 -1.4869
  251MOL0     H33854  14.082   6.498   6.149 -3.7291 -1.3977  1.0785
  251MOL0     H33855  14.201   6.679   6.358 -1.5626  1.4309 -2.4633
  251MOL0     H33856  14.268   6.652   6.208  2.9668 -2.1316  0.0644
  251MOL0     H33857  14.284   6.401   6.253  0.8147 -1.1287  0.1346
  251MOL0     H33858  14.240   6.433   6.423 -1.1054  0.0476  0.0711
  251MOL0     H33859  14.497   6.425   6.394  0.5579  2.3606  2.7130
  251MOL0     H33860  14.478   6.540   6.265  1.7975  0.7410  0.8984
  251MOL0     H33861  14.366   6.617   6.537  0.3288 -1.4479  0.2077
  251MOL0     H33862  14.441   6.717   6.410 -0.3850 -0.8946  0.4364
  251MOL0     H33863  14.596   6.699   6.599 -0.4086  0.5656 -1.1901
  251MOL0     H33864  14.583   6.526   6.584 -0.7425  0.0031 -0.6202
  251MOL0     H33865  13.593   6.674   6.024  1.1791 -1.0961 -0.5102
  251MOL0     H33866  13.345   6.612   6.028  1.7587  1.3151 -1.6000
  251MOL0     H33867  13.012   6.313   6.255  0.3190 -1.0193  2.4298
  251MOL0     H33868  12.763   6.281   6.285 -0.5407  1.7892  3.0463
  251MOL0     H33869  11.135   6.445   5.324  1.6260  1.6232  0.6189
  251MOL0     H33870  10.882   6.459   5.297  0.1746 -0.6814  1.3875
  251MOL0     H33871  10.537   6.814   5.121  0.2704 -1.2101 -1.8475
  251MOL0     H33872  10.319   6.830   5.082  0.5441 -2.1007 -2.6400
  251MOL0     H33873  10.002   6.556   5.263 -0.4061  2.0920  1.4359
  251MOL0     H33874  10.050   6.494   5.107  2.6145 -0.3317  1.8062
  251MOL0     H33875   9.858   6.706   5.191  0.5342  3.1385 -1.4154
  251MOL0     H33876   9.814   6.561   5.104 -1.8884  2.8888  0.5133
  251MOL0     H33877   9.963   6.654   4.905 -1.0278  1.9160 -2.4691
  251MOL0     H33878   9.960   6.805   4.989 -0.7807  1.0179 -0.9856
  251MOL0     H33879   9.682   6.682   4.931 -2.8885  3.3975 -0.5189
  251MOL0     H33880   9.731   6.835   4.991  0.9848  0.8308 -0.9669
  251MOL0     H33881   9.750   6.877   4.571  0.1707  2.4477  0.7634
  251MOL0     H33882  10.212   6.471   5.270 -1.3115  1.0066 -2.5811
  251MOL0     H33883  10.396   6.307   5.347 -0.7175  0.9635 -0.5270
  251MOL0     H33884  10.563   6.350   5.309 -1.6368 -3.0211 -1.3146
  251MOL0     H33885  10.477   6.390   5.467 -0.0266 -1.4408 -0.1529
  252MOL0     O33886   8.462   4.049   6.671  0.7662 -0.4945  0.2480
  252MOL0     C33887   8.551   3.966   6.684  0.5304 -0.2494  0.4063
  252MOL0     O33888   8.671   3.973   6.632  0.3174 -0.7227  0.1297
  252MOL0     C33889   8.738   4.084   6.585 -0.3082 -0.7129 -0.2647
  252MOL0     C33890   8.688   4.220   6.592  0.1084  0.5339  0.8249
  252MOL0     C33891   8.759   4.324   6.530  0.0791  0.3160  0.6700
  252MOL0     C33892   8.871   4.293   6.450 -0.5579  0.1736 -0.1456
  252MOL0     O33893   8.951   4.376   6.381 -0.1599 -0.4610  0.1109
  252MOL0     C33894   8.880   4.497   6.336  0.2200 -0.3823  0.8339
  252MOL0     C33895   8.959   4.553   6.222  0.3496  0.7473  0.8605
  252MOL0     C33896   9.098   4.609   6.259 -0.6176 -0.1336 -0.0349
  252MOL0     C33897   9.177   4.622   6.128 -0.7012 -1.0890  0.0103
  252MOL0     C33898   9.307   4.689   6.147 -0.2398  0.9531  0.5298
  252MOL0     C33899   9.298   4.840   6.158  0.8443 -0.5208 -0.0904
  252MOL0     C33900   9.451   4.890   6.131  0.0047 -0.1163 -0.4825
  252MOL0     C33901   9.458   5.041   6.092 -0.2803  0.2464  0.6288
  252MOL0     N33902   9.400   5.121   6.203  0.0464 -0.7918 -0.0437
  252MOL0     C33903   9.311   5.234   6.178  0.2187  0.2544 -0.3679
  252MOL0     C33904   9.284   5.284   6.298 -0.3613 -0.4983 -0.4326
  252MOL0     C33905   9.202   5.403   6.330 -0.4448 -0.8413  0.2687
  252MOL0     C33906   9.055   5.381   6.298  0.3319 -0.4322  0.4189
  252MOL0     C33907   8.978   5.501   6.358  0.1976  1.0859 -0.0992
  252MOL0     C33908   8.832   5.510   6.302 -0.8210 -0.3508  0.0517
  252MOL0     O33909   8.767   5.624   6.366 -0.2289 -0.0127 -0.2806
  252MOL0     C33910   8.715   5.597   6.489 -0.2968 -0.3231  0.5187
  252MOL0     C33911   8.698   5.705   6.577 -0.1091  0.2542 -0.1568
  252MOL0     C33912   8.638   5.687   6.701  1.0405 -0.2801 -0.1259
  252MOL0     C33913   8.589   5.565   6.751  0.3807  1.0603  0.6685
  252MOL0     C33914   8.553   5.544   6.888 -0.4368 -1.0183  0.1690
  252MOL0     O33915   8.552   5.419   6.933  0.1104 -0.3746  0.7040
  252MOL0     C33916   8.504   5.402   7.057  1.1651  0.3510 -0.3020
  252MOL0     C33917   8.586   5.331   7.146 -0.0322  0.0111  0.3897
  252MOL0     C33918   8.548   5.327   7.282 -0.2599 -0.0745 -0.1328
  252MOL0     C33919   8.429   5.372   7.334  0.2383  0.2157  1.0292
  252MOL0     O33920   8.395   5.350   7.466 -0.0144 -0.0821  0.5468
  252MOL0     C33921   8.266   5.392   7.503 -0.1571  0.4018  0.0741
  252MOL0     C33922   8.238   5.340   7.643  0.0559 -0.2367 -0.0522
  252MOL0     C33923   8.257   5.191   7.663 -0.0041 -0.3556  0.6110
  252MOL0     C33924   8.239   5.149   7.810  0.5008  0.2361  0.6602
  252MOL0     C33925   8.268   5.001   7.848 -0.1772 -0.3233 -0.3386
  252MOL0     C33926   8.162   4.904   7.813  0.4172  1.1092 -0.2452
  252MOL0     C33927   8.182   4.775   7.894 -0.0970 -0.1025  0.2610
  252MOL0     C33928   8.078   4.665   7.862  0.3031  0.2229  0.5934
  252MOL0    Cl33929   7.920   4.706   7.923 -0.2882 -0.3669  0.0801
  252MOL0     C33930   8.348   5.437   7.236  0.2379  0.5853 -1.5578
  252MOL0     C33931   8.382   5.446   7.103 -0.0437 -0.8036 -0.7959
  252MOL0     O33932   8.532   5.644   6.958 -0.0758 -0.0888 -0.0216
  252MOL0     C33933   8.596   5.456   6.650 -0.0407  0.6195 -0.2371
  252MOL0     C33934   8.664   5.466   6.531  0.1341 -0.6858 -0.3137
  252MOL0     N33935   9.345   5.210   6.391  0.3942 -0.0527  0.3147
  252MOL0     N33936   9.414   5.110   6.334 -0.5889 -0.0124 -0.2373
  252MOL0     C33937   8.910   4.164   6.441 -0.8037  0.9945 -0.2825
  252MOL0     C33938   8.843   4.063   6.510 -0.5318 -0.0630 -0.1798
  252MOL0     C33939   8.521   3.835   6.746  0.2392 -0.3226 -0.0431
  252MOL0     C33940   8.584   3.724   6.690 -0.4462  0.1818  0.5107
  252MOL0     C33941   8.552   3.596   6.728 -0.2500 -0.6883  0.2926
  252MOL0     C33942   8.456   3.575   6.835 -0.3487 -0.1401  0.0686
  252MOL0     O33943   8.430   3.444   6.855 -0.4064  0.5780 -0.5404
  252MOL0     C33944   8.335   3.412   6.957 -0.0240  0.8829 -0.4204
  252MOL0     C33945   8.183   3.416   6.921  0.3819  0.5395  0.0561
  252MOL0     C33946   8.149   3.282   6.849 -0.9739 -0.4880 -0.0585
  252MOL0     C33947   8.179   3.310   6.697 -0.5533  0.2743 -0.0396
  252MOL0     C33948   8.155   3.190   6.610  0.2594  0.8686 -0.4761
  252MOL0     C33949   8.138   3.079   6.541 -0.1219 -0.2097 -0.2614
  252MOL0     C33950   8.388   3.680   6.886 -0.1091  0.1250 -0.3326
  252MOL0     C33951   8.424   3.811   6.848 -0.1648  0.1243  0.3525
  252MOL0     C33952   8.351   3.927   6.909  0.2324 -0.0256 -0.4757
  252MOL0     H33953   8.596   4.243   6.646 -2.0316 -3.2368 -0.7792
  252MOL0     H33954   8.717   4.423   6.541 -1.5797 -0.5174  2.7491
  252MOL0     H33955   8.774   4.486   6.313  0.7757 -1.7253 -1.4327
  252MOL0     H33956   8.885   4.572   6.416  1.7755  1.6668 -1.0560
  252MOL0     H33957   8.901   4.635   6.179  0.3204  2.6791  4.2337
  252MOL0     H33958   8.973   4.472   6.150 -2.5658 -0.9852  2.0682
  252MOL0     H33959   9.158   4.551   6.331  0.6768  1.0166 -0.1524
  252MOL0     H33960   9.080   4.705   6.307  3.6691  0.2321  1.3408
  252MOL0     H33961   9.181   4.524   6.080 -0.6919 -0.8564 -0.4638
  252MOL0     H33962   9.114   4.687   6.065 -1.7042 -0.6048  1.4410
  252MOL0     H33963   9.352   4.652   6.240  0.9953 -0.5151 -0.5966
  252MOL0     H33964   9.369   4.660   6.061 -1.3499  1.5735 -0.5052
  252MOL0     H33965   9.238   4.883   6.078 -0.4410  0.9474  1.5840
  252MOL0     H33966   9.252   4.864   6.254 -2.8452  0.1940 -1.8743
  252MOL0     H33967   9.512   4.832   6.061  0.9364  1.3372 -0.9320
  252MOL0     H33968   9.508   4.884   6.224  2.1061  1.6627 -1.5490
  252MOL0     H33969   9.563   5.072   6.083 -0.3296 -0.0417 -1.3208
  252MOL0     H33970   9.410   5.052   5.995  2.9817 -3.5968 -1.7116
  252MOL0     H33971   9.274   5.281   6.087  0.0494  1.8098  0.4601
  252MOL0     H33972   9.219   5.419   6.436 -0.5547 -3.2430  0.7041
  252MOL0     H33973   9.252   5.488   6.281 -0.4155 -0.3633  1.1128
  252MOL0     H33974   9.037   5.367   6.191 -1.0782 -1.2837  0.7451
  252MOL0     H33975   9.024   5.291   6.353 -0.1892  1.1258  2.8266
  252MOL0     H33976   9.032   5.594   6.337  0.6464  1.0493  0.8078
  252MOL0     H33977   8.980   5.484   6.466  2.2095 -0.0851 -0.2624
  252MOL0     H33978   8.775   5.417   6.314 -2.4169  0.2866 -1.9659
  252MOL0     H33979   8.828   5.528   6.194 -0.3543 -0.6698 -0.0192
  252MOL0     H33980   8.724   5.809   6.562 -1.6921  0.8565  0.9916
  252MOL0     H33981   8.627   5.778   6.758  0.0349 -1.9702  2.5528
  252MOL0     H33982   8.676   5.289   7.102 -0.2460  3.1369 -3.6449
  252MOL0     H33983   8.620   5.284   7.352  0.5587 -0.2287 -1.0478
  252MOL0     H33984   8.266   5.501   7.494  2.1099  0.4951  0.6218
  252MOL0     H33985   8.197   5.336   7.438  0.7933 -0.9947  0.2236
  252MOL0     H33986   8.297   5.394   7.718 -1.2115  0.7343  0.2928
  252MOL0     H33987   8.135   5.372   7.664  0.8717  3.2565 -0.8844
  252MOL0     H33988   8.190   5.139   7.594 -1.9230 -0.1716  2.2446
  252MOL0     H33989   8.357   5.163   7.631 -0.6784  1.2894 -3.6821
  252MOL0     H33990   8.144   5.178   7.856  1.1988  0.7162  1.8364
  252MOL0     H33991   8.310   5.216   7.860  0.7388 -0.6554  1.5381
  252MOL0     H33992   8.273   4.990   7.957 -0.3132 -4.1932 -0.5956
  252MOL0     H33993   8.363   4.967   7.806 -1.3322 -2.1589 -1.6377
  252MOL0     H33994   8.057   4.930   7.823  0.2699  0.2771  0.5621
  252MOL0     H33995   8.182   4.870   7.711  0.2552 -2.1464  0.6939
  252MOL0     H33996   8.163   4.804   7.998 -1.6074 -0.3162  0.0705
  252MOL0     H33997   8.283   4.739   7.873 -0.4478 -0.3205 -1.1948
  252MOL0     H33998   8.079   4.625   7.760  1.5784 -4.8677  2.2942
  252MOL0     H33999   8.089   4.571   7.917  0.7553  0.8015  1.5187
  252MOL0     H34000   8.248   5.472   7.256  0.4930  0.3898  0.2053
  252MOL0     H34001   8.303   5.497   7.049 -1.4277  1.3745  2.9677
  252MOL0     H34002   8.544   5.364   6.676 -0.8693  0.4079 -2.4239
  252MOL0     H34003   8.652   5.375   6.473 -1.6679 -1.2798  0.9075
  252MOL0     H34004   8.994   4.144   6.376 -0.2047  2.3840  0.0248
  252MOL0     H34005   8.856   3.957   6.492 -3.1535 -0.5519  0.3917
  252MOL0     H34006   8.663   3.730   6.615  1.3891 -0.2685  2.3230
  252MOL0     H34007   8.598   3.512   6.676  0.6389  0.8845 -1.5812
  252MOL0     H34008   8.349   3.466   7.051  1.8137 -2.6505  1.5212
  252MOL0     H34009   8.357   3.310   6.990  2.6170  2.6277  4.1232
  252MOL0     H34010   8.162   3.498   6.851 -2.2632  0.5902  0.8165
  252MOL0     H34011   8.106   3.421   6.999 -0.3470 -0.4816 -0.5600
  252MOL0     H34012   8.042   3.261   6.859 -0.9466  0.3480  3.0359
  252MOL0     H34013   8.205   3.194   6.884 -0.7996  0.5688  2.5721
  252MOL0     H34014   8.114   3.392   6.665  0.2767  0.2139 -2.0504
  252MOL0     H34015   8.286   3.317   6.676 -1.0304  1.2682 -2.4948
  252MOL0     H34016   8.124   3.006   6.463 -3.7293 -0.8858  0.8293
  252MOL0     H34017   8.310   3.661   6.959 -0.2127 -0.2757 -0.5414
  252MOL0     H34018   8.426   3.994   6.953 -1.6873 -1.2577  5.5574
  252MOL0     H34019   8.298   3.986   6.834  3.3338  1.0289 -2.0313
  252MOL0     H34020   8.278   3.901   6.985  0.5676  0.5954  0.0746
  253MOL0     O34021   7.528   5.696   5.512 -0.6708 -0.2091  0.3453
  253MOL0     C34022   7.455   5.717   5.603 -0.1730 -0.4306 -0.3806
  253MOL0     O34023   7.475   5.806   5.696 -0.2332  0.2121  0.7172
  253MOL0     C34024   7.602   5.854   5.709  0.4063 -0.4124 -0.3357
  253MOL0     C34025   7.720   5.778   5.708 -0.9814 -0.5356  0.2757
  253MOL0     C34026   7.847   5.843   5.726 -1.0824  0.1856 -0.0625
  253MOL0     C34027   7.865   5.979   5.747 -0.2409 -0.1659 -0.6610
  253MOL0     O34028   7.984   6.044   5.748  0.2750  0.0202  0.0841
  253MOL0     C34029   8.093   5.980   5.808 -0.4110 -0.1097 -0.1485
  253MOL0     C34030   8.201   5.916   5.716  0.5427  0.3892  0.2519
  253MOL0     C34031   8.309   5.838   5.805 -0.1509 -0.3290 -0.6487
  253MOL0     C34032   8.388   5.920   5.902 -0.3127 -0.3477  0.1475
  253MOL0     C34033   8.505   5.843   5.960 -0.1832 -0.3820 -0.4597
  253MOL0     C34034   8.594   5.934   6.048 -0.4642  0.0701 -0.7760
  253MOL0     C34035   8.709   5.860   6.116  0.4067  0.2847 -0.8717
  253MOL0     C34036   8.803   5.954   6.194 -0.2656 -1.1767 -0.1714
  253MOL0     N34037   8.935   5.893   6.217  0.5597 -0.5763  0.6277
  253MOL0     C34038   9.009   5.923   6.330 -0.2845 -0.2392 -0.3745
  253MOL0     C34039   9.128   5.850   6.314  0.0779 -0.4354  0.7282
  253MOL0     C34040   9.249   5.859   6.407  0.3562 -0.4157 -0.0985
  253MOL0     C34041   9.237   5.754   6.522  0.4407  1.0267  0.8893
  253MOL0     C34042   9.113   5.755   6.613  0.7892 -0.2617 -0.3454
  253MOL0     C34043   9.123   5.672   6.743 -0.2434  0.4700 -0.6001
  253MOL0     O34044   9.020   5.710   6.834  0.2091 -0.2797  0.0482
  253MOL0     C34045   9.027   5.649   6.957  0.0666  0.7776  0.5348
  253MOL0     C34046   9.144   5.634   7.036 -0.1032  0.1132 -0.2811
  253MOL0     C34047   9.132   5.580   7.161 -0.5982  0.1933  0.6184
  253MOL0     C34048   9.008   5.551   7.216 -0.0577  0.3756  0.6046
  253MOL0     C34049   9.001   5.494   7.353  0.2818 -0.1552  0.0028
  253MOL0     O34050   9.121   5.441   7.403 -0.0151 -0.3581 -0.0578
  253MOL0     C34051   9.113   5.363   7.515  0.2507  0.6598  0.0250
  253MOL0     C34052   9.072   5.232   7.493 -0.3555 -0.5056 -0.5744
  253MOL0     C34053   9.065   5.139   7.597 -0.0127  0.1421  0.3447
  253MOL0     C34054   9.103   5.176   7.725  0.9962  0.4712 -1.0532
  253MOL0     O34055   9.093   5.071   7.818 -0.7450 -0.2782 -0.2728
  253MOL0     C34056   9.156   5.096   7.943 -0.5632 -0.0427  0.5778
  253MOL0     C34057   9.072   5.153   8.055  0.7747  0.0077  0.5555
  253MOL0     C34058   8.975   5.047   8.108 -0.1078 -0.0190  0.3719
  253MOL0     C34059   8.867   5.107   8.203 -0.3489 -0.1311 -0.3210
  253MOL0     C34060   8.752   5.186   8.143 -0.5478 -0.0913 -0.8586
  253MOL0     C34061   8.658   5.100   8.048 -0.2284  0.1221  0.2554
  253MOL0     C34062   8.596   4.962   8.091  0.1436  0.3224  0.2002
  253MOL0     C34063   8.534   4.968   8.228  0.5103  0.3692  1.1436
  253MOL0    Cl34064   8.461   4.806   8.266  0.2980  0.0571  0.3635
  253MOL0     C34065   9.147   5.305   7.754  0.2491  0.2111  0.6298
  253MOL0     C34066   9.136   5.403   7.649 -0.0772  0.4359 -0.1892
  253MOL0     O34067   8.891   5.502   7.413 -0.1102 -0.8113 -0.0952
  253MOL0     C34068   8.890   5.576   7.140  0.4672  0.0684  0.0094
  253MOL0     C34069   8.902   5.614   7.010  0.5453 -0.3024  0.0076
  253MOL0     N34070   9.120   5.783   6.193 -0.1242  0.5102  0.1023
  253MOL0     N34071   9.004   5.806   6.138 -0.7515 -0.0650 -0.9464
  253MOL0     C34072   7.746   6.051   5.751  0.6924 -0.2453 -0.2110
  253MOL0     C34073   7.618   5.992   5.728  0.5672  0.8500  0.0849
  253MOL0     C34074   7.321   5.646   5.604 -0.4330  0.8378  0.2697
  253MOL0     C34075   7.235   5.668   5.710  0.2342  0.0696  0.0495
  253MOL0     C34076   7.107   5.618   5.724  0.1535  0.8247 -0.1171
  253MOL0     C34077   7.057   5.543   5.620 -0.2960  0.3685 -0.2617
  253MOL0     O34078   6.930   5.490   5.648 -1.0701 -0.1306  0.0725
  253MOL0     C34079   6.891   5.381   5.561  0.0918 -0.2077  0.0070
  253MOL0     C34080   6.753   5.332   5.605 -0.8786  0.5446  0.4611
  253MOL0     C34081   6.647   5.441   5.633 -0.6294 -0.0405  0.3443
  253MOL0     C34082   6.506   5.374   5.629 -0.3637  0.8573  0.1039
  253MOL0     C34083   6.418   5.487   5.642  0.4760 -0.1898 -0.0315
  253MOL0     C34084   6.349   5.581   5.638  0.7443 -0.4639 -0.0305
  253MOL0     C34085   7.127   5.518   5.506 -1.0085  0.3033  0.1334
  253MOL0     C34086   7.264   5.562   5.495 -0.9272 -0.6665  0.2058
  253MOL0     C34087   7.330   5.547   5.358 -1.0130  0.1351  0.0433
  253MOL0     H34088   7.713   5.670   5.704  0.2466 -0.6169 -0.3313
  253MOL0     H34089   7.934   5.779   5.715 -1.8430 -0.4443 -4.2637
  253MOL0     H34090   8.150   6.049   5.871  3.3165 -3.8343  1.0314
  253MOL0     H34091   8.059   5.903   5.877  0.3407 -1.7136 -1.5097
  253MOL0     H34092   8.247   5.988   5.648  0.8398 -0.5556 -0.5778
  253MOL0     H34093   8.149   5.846   5.651  0.3168  0.3586  0.4675
  253MOL0     H34094   8.379   5.797   5.731 -1.2056 -0.6611 -1.4924
  253MOL0     H34095   8.253   5.757   5.850 -0.3452  0.1501 -0.0078
  253MOL0     H34096   8.426   6.008   5.850 -0.0174  0.7901  2.2038
  253MOL0     H34097   8.328   5.951   5.988  2.7692 -0.2039  2.3844
  253MOL0     H34098   8.458   5.764   6.018  1.9440  0.0369  2.0387
  253MOL0     H34099   8.565   5.809   5.875 -0.2943 -0.3011 -0.5711
  253MOL0     H34100   8.641   6.000   5.975 -0.6858  1.0884 -0.0214
  253MOL0     H34101   8.544   6.006   6.114  3.4389  0.0299  2.6282
  253MOL0     H34102   8.768   5.804   6.043 -0.0724  0.7456 -1.6316
  253MOL0     H34103   8.666   5.780   6.177 -0.8273  0.8197 -1.0137
  253MOL0     H34104   8.823   6.036   6.125 -3.0209  0.2128  0.5392
  253MOL0     H34105   8.769   6.006   6.284  2.5665  2.8117 -1.1434
  253MOL0     H34106   8.993   5.990   6.414  1.3672  1.6283 -1.4730
  253MOL0     H34107   9.335   5.835   6.343  0.8863  2.0990 -0.4233
  253MOL0     H34108   9.258   5.963   6.439  0.7666 -0.2163 -0.8315
  253MOL0     H34109   9.254   5.650   6.493  1.2369  0.4123  3.3592
  253MOL0     H34110   9.326   5.777   6.582  1.1356 -0.5833  0.5252
  253MOL0     H34111   9.026   5.712   6.563 -0.0812 -0.5505  1.3401
  253MOL0     H34112   9.084   5.858   6.634 -0.0324 -1.2410  4.7078
  253MOL0     H34113   9.219   5.701   6.786  0.3412 -0.9168 -0.9216
  253MOL0     H34114   9.114   5.564   6.727 -0.3634  0.0226  2.1220
  253MOL0     H34115   9.243   5.658   7.000  0.8221  0.5004  2.3001
  253MOL0     H34116   9.224   5.559   7.214  0.3308  1.1698 -0.5554
  253MOL0     H34117   9.053   5.192   7.394  1.0540 -0.1427 -1.0218
  253MOL0     H34118   9.036   5.037   7.573  0.2230  0.7381 -2.8370
  253MOL0     H34119   9.193   4.997   7.973 -0.1822  0.3563  1.4590
  253MOL0     H34120   9.239   5.167   7.939 -1.9322  1.5967 -0.1461
  253MOL0     H34121   9.126   5.167   8.150  2.6521 -1.4849 -0.2145
  253MOL0     H34122   9.028   5.248   8.023 -0.0863 -0.8782 -0.9655
  253MOL0     H34123   8.921   5.003   8.024 -1.5958  0.4522  1.0587
  253MOL0     H34124   9.037   4.974   8.162 -1.4168 -3.9126 -2.8854
  253MOL0     H34125   8.905   5.171   8.283 -1.0457  0.3757 -0.3946
  253MOL0     H34126   8.829   5.012   8.243  1.0368 -0.5173  0.1471
  253MOL0     H34127   8.786   5.273   8.085 -0.5885 -0.0546 -0.8272
  253MOL0     H34128   8.682   5.230   8.215  0.8234  0.4833  0.1562
  253MOL0     H34129   8.572   5.160   8.018 -0.3013  0.6509  1.4547
  253MOL0     H34130   8.716   5.075   7.958  2.4664 -0.2299  1.9618
  253MOL0     H34131   8.671   4.883   8.084  2.7413  2.6516  0.4231
  253MOL0     H34132   8.518   4.930   8.020  0.8140 -2.1479  0.4635
  253MOL0     H34133   8.613   4.995   8.298 -0.0683  1.4064  1.4200
  253MOL0     H34134   8.459   5.046   8.243  1.0139  0.9524  0.6968
  253MOL0     H34135   9.195   5.343   7.844 -2.3858 -1.4935  2.9218
  253MOL0     H34136   9.170   5.506   7.663 -0.8731  0.5374  1.1417
  253MOL0     H34137   8.790   5.556   7.178  0.6697 -0.8330  0.1061
  253MOL0     H34138   8.819   5.632   6.943 -0.8438 -2.6461  0.9632
  253MOL0     H34139   7.749   6.159   5.760  0.1280 -0.2804  0.4784
  253MOL0     H34140   7.529   6.052   5.744  1.3452  1.9410  0.5058
  253MOL0     H34141   7.281   5.718   5.795  2.0616 -0.5641 -0.5160
  253MOL0     H34142   7.073   5.631   5.826 -3.0362  0.7526 -1.0570
  253MOL0     H34143   6.964   5.299   5.562  1.3483  0.8389 -1.7066
  253MOL0     H34144   6.879   5.405   5.455 -2.4837 -0.8638  0.0763
  253MOL0     H34145   6.755   5.279   5.700 -1.8031  0.8951  0.6851
  253MOL0     H34146   6.725   5.263   5.524  4.0526  0.5668 -1.5849
  253MOL0     H34147   6.632   5.507   5.547 -4.2230  0.9578  1.5654
  253MOL0     H34148   6.668   5.492   5.727 -3.3609  0.9919  0.4736
  253MOL0     H34149   6.492   5.327   5.532 -1.4221  0.3380  0.4895
  253MOL0     H34150   6.488   5.300   5.707  2.3436  0.9815  0.9567
  253MOL0     H34151   6.271   5.653   5.626  0.7008 -0.5259 -0.1192
  253MOL0     H34152   7.086   5.467   5.420 -0.7165  1.1745 -0.5419
  253MOL0     H34153   7.434   5.581   5.361 -1.3595  1.1645  1.6565
  253MOL0     H34154   7.332   5.441   5.330 -0.4801 -0.8673  3.3698
  253MOL0     H34155   7.278   5.606   5.282  1.6211  0.1089 -1.9057
  254MOL0     O34156  10.970   4.962   7.629  0.0696 -0.0192  0.3434
  254MOL0     C34157  10.968   5.066   7.696  0.2213  0.7937 -0.8694
  254MOL0     O34158  11.056   5.098   7.792  0.1186 -0.4580  0.1638
  254MOL0     C34159  11.161   5.014   7.830  0.2767  0.6818 -0.2986
  254MOL0     C34160  11.170   4.957   7.960 -0.5350  0.1501  0.1179
  254MOL0     C34161  11.277   4.870   7.996  0.0793 -0.0982  1.1339
  254MOL0     C34162  11.370   4.836   7.899  0.4728 -0.0228  0.1502
  254MOL0     O34163  11.486   4.765   7.924 -0.3941 -0.2163 -0.9270
  254MOL0     C34164  11.508   4.717   8.057 -0.4618  0.7206  0.0853
  254MOL0     C34165  11.654   4.668   8.069 -0.0874  0.2528 -0.2056
  254MOL0     C34166  11.684   4.608   8.210 -0.8896 -0.1383 -0.1112
  254MOL0     C34167  11.833   4.622   8.246 -0.2002 -0.5258  0.6100
  254MOL0     C34168  11.858   4.561   8.377 -0.4204  0.0352  0.3838
  254MOL0     C34169  12.000   4.561   8.427 -0.1092 -0.2907 -0.0722
  254MOL0     C34170  12.007   4.522   8.573 -0.3970  0.4014 -0.1281
  254MOL0     C34171  12.143   4.493   8.622  0.0092  0.0745  0.0184
  254MOL0     N34172  12.153   4.466   8.766 -0.1144  0.1357  0.3494
  254MOL0     C34173  12.275   4.485   8.836  0.1528 -0.4063  0.6423
  254MOL0     C34174  12.243   4.434   8.958  0.3225 -0.5206 -0.2901
  254MOL0     C34175  12.332   4.430   9.079 -0.2566  0.4687  0.4456
  254MOL0     C34176  12.268   4.404   9.212  0.0867 -0.6315  0.2729
  254MOL0     C34177  12.193   4.274   9.237 -0.0956  0.0473  0.5737
  254MOL0     C34178  12.281   4.151   9.209  0.6891  0.6036 -0.0497
  254MOL0     O34179  12.419   4.170   9.263  0.0758 -0.2036 -0.8135
  254MOL0     C34180  12.509   4.078   9.237 -1.6729 -0.3510  0.2452
  254MOL0     C34181  12.642   4.109   9.279  0.3652  0.6083  0.8397
  254MOL0     C34182  12.749   4.026   9.270  1.0920  1.1365 -0.3071
  254MOL0     C34183  12.723   3.895   9.228 -0.3692  0.8381 -1.2219
  254MOL0     C34184  12.835   3.798   9.235 -0.1180  0.0238 -0.7624
  254MOL0     O34185  12.957   3.853   9.259 -0.7453 -0.0725 -0.2433
  254MOL0     C34186  13.058   3.755   9.261 -0.5830 -0.4754 -0.1013
  254MOL0     C34187  13.073   3.663   9.366 -0.8077 -0.0218  0.6839
  254MOL0     C34188  13.181   3.570   9.362 -0.5623  0.2084  0.1313
  254MOL0     C34189  13.274   3.569   9.254  0.0142 -1.7035 -0.0029
  254MOL0     O34190  13.375   3.467   9.247  0.7343  0.0594  0.1307
  254MOL0     C34191  13.467   3.469   9.150 -0.9722  0.2797  0.6602
  254MOL0     C34192  13.588   3.379   9.194 -0.0678 -0.3041  0.4691
  254MOL0     C34193  13.709   3.397   9.096  0.0473  0.4381 -0.2388
  254MOL0     C34194  13.815   3.284   9.119  0.3923  0.4805 -0.3895
  254MOL0     C34195  13.929   3.310   9.015 -0.3715 -0.1457 -0.3282
  254MOL0     C34196  14.039   3.204   9.032 -0.1057 -0.0782 -0.1424
  254MOL0     C34197  14.149   3.236   8.939  0.0327 -0.3713  0.8765
  254MOL0     C34198  14.218   3.105   8.890 -0.1968  0.3624 -0.2814
  254MOL0    Cl34199  14.305   3.034   9.029 -0.3221  0.3465  0.3073
  254MOL0     C34200  13.259   3.670   9.155  0.4576 -0.9631 -0.1019
  254MOL0     C34201  13.150   3.760   9.163 -0.2446  0.4200  0.1627
  254MOL0     O34202  12.811   3.678   9.222 -0.2783 -0.0058  0.2492
  254MOL0     C34203  12.599   3.859   9.184 -0.0166 -0.5950 -0.4787
  254MOL0     C34204  12.485   3.952   9.192  0.0520  0.5799 -0.7442
  254MOL0     N34205  12.118   4.386   8.955  0.4459 -0.6283 -0.2167
  254MOL0     N34206  12.059   4.406   8.846 -0.7111 -0.2914  0.2538
  254MOL0     C34207  11.361   4.887   7.770 -0.2815  1.4597  0.5160
  254MOL0     C34208  11.258   4.968   7.734 -0.3224  0.4023 -0.1400
  254MOL0     C34209  10.863   5.160   7.679  0.3371  0.7630  0.4418
  254MOL0     C34210  10.817   5.172   7.543  0.0649 -0.1212  0.0420
  254MOL0     C34211  10.713   5.252   7.510  0.3647 -0.8059  0.5683
  254MOL0     C34212  10.651   5.330   7.608  1.1419 -0.3680  0.2681
  254MOL0     O34213  10.557   5.428   7.597  0.2700 -0.2734  0.3835
  254MOL0     C34214  10.477   5.417   7.477  0.5814  0.4943  0.0193
  254MOL0     C34215  10.398   5.536   7.445  0.4806 -0.4947  0.0266
  254MOL0     C34216  10.267   5.514   7.377 -0.3796 -0.1546  0.2584
  254MOL0     C34217  10.197   5.647   7.323 -0.0813 -0.1851 -0.5109
  254MOL0     C34218  10.082   5.615   7.227  0.1110  0.1966  0.2902
  254MOL0     C34219   9.992   5.594   7.152  0.2521  0.2721 -0.7846
  254MOL0     C34220  10.695   5.322   7.740  0.5975  1.1984 -0.5812
  254MOL0     C34221  10.804   5.242   7.777  0.3574 -0.5735  0.5230
  254MOL0     C34222  10.815   5.235   7.925 -0.6905  0.0015 -0.3936
  254MOL0     H34223  11.105   4.996   8.038 -0.8699 -2.6614  1.3973
  254MOL0     H34224  11.274   4.836   8.099  1.3014  0.5149  1.3976
  254MOL0     H34225  11.493   4.801   8.125 -1.3519  1.3213 -0.8345
  254MOL0     H34226  11.444   4.634   8.089 -0.7352  0.6547 -0.6293
  254MOL0     H34227  11.720   4.747   8.032  0.2118  0.8047  1.4290
  254MOL0     H34228  11.668   4.590   7.993 -0.6079 -0.8783  0.8214
  254MOL0     H34229  11.661   4.501   8.197  2.6475 -1.1298  0.6002
  254MOL0     H34230  11.626   4.657   8.289  0.5247 -2.0104  2.2249
  254MOL0     H34231  11.890   4.587   8.160 -2.6777  1.3900 -2.0131
  254MOL0     H34232  11.853   4.730   8.247  0.0665 -0.5302 -0.9699
  254MOL0     H34233  11.794   4.614   8.448 -1.0904  1.2449 -1.0735
  254MOL0     H34234  11.827   4.456   8.389 -1.0881  0.1122 -0.5975
  254MOL0     H34235  12.064   4.497   8.366  0.0152  0.0468 -0.2989
  254MOL0     H34236  12.040   4.663   8.433  1.3429 -0.8270 -0.4175
  254MOL0     H34237  11.951   4.430   8.590 -1.9938  1.2091 -0.8441
  254MOL0     H34238  11.961   4.608   8.622 -2.4748 -0.2510 -0.8336
  254MOL0     H34239  12.182   4.413   8.559  0.3509  0.2564 -0.0086
  254MOL0     H34240  12.217   4.574   8.611  1.5700 -1.5018 -1.9362
  254MOL0     H34241  12.370   4.514   8.791  1.3307 -1.2531  2.4327
  254MOL0     H34242  12.417   4.363   9.065 -0.1537  0.9194 -1.3279
  254MOL0     H34243  12.363   4.534   9.083  0.5615  0.2632 -0.4607
  254MOL0     H34244  12.347   4.414   9.286 -3.1158  0.4324  3.8909
  254MOL0     H34245  12.193   4.482   9.233 -0.6548 -1.0555 -0.7223
  254MOL0     H34246  12.100   4.273   9.180  0.5408  1.6973 -0.6094
  254MOL0     H34247  12.170   4.288   9.343 -0.6580  1.1240  0.3320
  254MOL0     H34248  12.284   4.149   9.099  0.6595  1.6167 -0.0772
  254MOL0     H34249  12.244   4.056   9.249  1.2701 -0.9618 -2.9285
  254MOL0     H34250  12.658   4.202   9.331 -0.5867 -0.0545  2.3754
  254MOL0     H34251  12.844   4.060   9.311  0.7701 -1.0434  2.6174
  254MOL0     H34252  13.006   3.647   9.451  0.3485  1.0655  1.8337
  254MOL0     H34253  13.178   3.490   9.435 -0.1980  1.5052  1.6030
  254MOL0     H34254  13.417   3.423   9.065  3.0893 -0.8584 -1.3918
  254MOL0     H34255  13.514   3.564   9.126 -1.1701 -0.4860 -3.4702
  254MOL0     H34256  13.622   3.414   9.292  0.6726  0.4912 -0.0524
  254MOL0     H34257  13.552   3.276   9.197 -1.3671  0.0510 -1.0806
  254MOL0     H34258  13.664   3.396   8.997 -1.5797 -0.7025  0.4783
  254MOL0     H34259  13.760   3.494   9.102 -0.1782  0.5372  0.1553
  254MOL0     H34260  13.770   3.186   9.103 -1.3331  1.3356 -1.0076
  254MOL0     H34261  13.872   3.296   9.212 -1.2964  2.4180  0.4876
  254MOL0     H34262  13.972   3.408   9.037 -0.1615 -0.6828  1.8766
  254MOL0     H34263  13.887   3.310   8.914  1.2882 -0.2237 -1.0406
  254MOL0     H34264  14.078   3.202   9.134 -0.0877  0.2752 -0.1388
  254MOL0     H34265  13.998   3.106   9.006  3.0125 -1.2665 -0.9725
  254MOL0     H34266  14.218   3.296   8.999 -2.3534  3.6842 -0.0822
  254MOL0     H34267  14.122   3.310   8.863  2.6901  3.1485  3.0235
  254MOL0     H34268  14.146   3.038   8.841  0.3612 -0.0365 -0.5657
  254MOL0     H34269  14.299   3.125   8.819 -1.4213  1.0113 -1.5440
  254MOL0     H34270  13.333   3.679   9.076  1.1036  2.6520  0.7681
  254MOL0     H34271  13.139   3.828   9.079  0.9164 -1.4213 -1.5916
  254MOL0     H34272  12.572   3.756   9.165 -2.5054 -0.7167  2.8490
  254MOL0     H34273  12.386   3.920   9.163  0.2958 -1.3064  0.3434
  254MOL0     H34274  11.428   4.840   7.699 -0.8319 -1.3153  1.7281
  254MOL0     H34275  11.245   4.996   7.630 -0.3834 -1.1230 -0.5635
  254MOL0     H34276  10.852   5.101   7.469 -0.0651 -2.7016  2.3066
  254MOL0     H34277  10.696   5.254   7.402 -0.4570 -0.3679  0.6964
  254MOL0     H34278  10.404   5.336   7.491 -1.7587  2.5333  0.1999
  254MOL0     H34279  10.528   5.383   7.387  1.7318  2.3041 -0.0352
  254MOL0     H34280  10.462   5.602   7.386  1.8826 -0.0150  1.9774
  254MOL0     H34281  10.377   5.590   7.537 -2.3358  1.0459 -1.4004
  254MOL0     H34282  10.198   5.478   7.454  1.5778 -1.4855  1.4476
  254MOL0     H34283  10.281   5.439   7.299  0.6876 -0.7124  0.9715
  254MOL0     H34284  10.168   5.705   7.411  0.4217 -3.5727  2.0938
  254MOL0     H34285  10.276   5.705   7.275  0.4020  0.9222  1.5075
  254MOL0     H34286   9.919   5.571   7.078  0.2024 -1.6502 -0.1942
  254MOL0     H34287  10.644   5.379   7.817  0.1434  1.5560 -1.1362
  254MOL0     H34288  10.876   5.321   7.954  1.1329 -2.0939  2.6443
  254MOL0     H34289  10.717   5.236   7.974 -0.4258  3.5710  0.2843
  254MOL0     H34290  10.868   5.142   7.949 -0.6380  0.1638  0.1355
  255MOL0     O34291   6.886   9.662   2.956 -0.7351  0.6009 -0.0437
  255MOL0     C34292   6.973   9.641   3.042 -0.0662 -0.2170  0.8364
  255MOL0     O34293   7.087   9.707   3.046 -0.0367 -0.2774  0.0770
  255MOL0     C34294   7.134   9.810   2.964  0.1810 -0.0983  1.3353
  255MOL0     C34295   7.067   9.932   2.940 -0.4665 -0.0876 -0.0709
  255MOL0     C34296   7.133  10.035   2.872  0.0517 -0.1584 -0.0400
  255MOL0     C34297   7.266  10.018   2.828 -0.4127 -0.0825 -0.1396
  255MOL0     O34298   7.329  10.123   2.768 -0.5859 -0.9099 -0.3927
  255MOL0     C34299   7.461  10.159   2.813  0.1145 -0.0963  0.0230
  255MOL0     C34300   7.484  10.286   2.739 -1.3551 -0.6612  0.0658
  255MOL0     C34301   7.535  10.252   2.599 -0.7035 -0.0213  0.4605
  255MOL0     C34302   7.669  10.309   2.566  0.0877 -0.1858 -0.3187
  255MOL0     C34303   7.724  10.272   2.428  0.5149 -0.4463  0.2241
  255MOL0     C34304   7.711  10.372   2.318 -0.0569 -0.0627  0.8492
  255MOL0     C34305   7.790  10.312   2.198  0.1860 -0.4883  0.8046
  255MOL0     C34306   7.753  10.386   2.075  0.0283 -0.3862 -0.3408
  255MOL0     N34307   7.869  10.393   1.986  0.2100 -0.0938  0.2400
  255MOL0     C34308   7.881  10.335   1.863 -0.4351  0.3614 -0.1320
  255MOL0     C34309   7.996  10.388   1.815 -0.2924  0.5830 -0.2718
  255MOL0     C34310   8.056  10.346   1.680  0.3922 -0.0337  0.5345
  255MOL0     C34311   8.184  10.414   1.641 -0.4228 -1.1777 -0.3744
  255MOL0     C34312   8.301  10.392   1.741  0.1218  1.2097  0.1809
  255MOL0     C34313   8.434  10.449   1.694  0.3536 -1.0356  0.4476
  255MOL0     O34314   8.539  10.414   1.782 -0.1860  0.1418  0.7401
  255MOL0     C34315   8.661  10.477   1.767  0.0910 -0.3060 -0.2582
  255MOL0     C34316   8.674  10.599   1.701 -0.1274 -0.3310  0.2318
  255MOL0     C34317   8.807  10.649   1.678  0.4591  0.4758  1.2996
  255MOL0     C34318   8.927  10.583   1.735  0.0830 -0.3298 -0.2812
  255MOL0     C34319   9.060  10.617   1.696 -0.7177  0.4013  0.7140
  255MOL0     O34320   9.159  10.563   1.769  0.1273 -0.3117 -0.0200
  255MOL0     C34321   9.293  10.587   1.773  0.0804  0.7442 -0.5513
  255MOL0     C34322   9.355  10.674   1.684 -0.1686 -0.6976 -0.4693
  255MOL0     C34323   9.492  10.687   1.688 -0.0157  0.0009  0.0220
  255MOL0     C34324   9.567  10.625   1.789  0.0280  0.8333  0.3011
  255MOL0     O34325   9.708  10.640   1.792  0.1691  0.1218  0.0257
  255MOL0     C34326   9.738  10.779   1.812 -0.0298 -0.0144  0.3702
  255MOL0     C34327   9.879  10.786   1.864 -0.1883 -0.6972  0.0287
  255MOL0     C34328   9.903  10.723   2.008 -0.4254  0.0781  0.6226
  255MOL0     C34329  10.037  10.774   2.062  0.1351  0.0123 -0.1524
  255MOL0     C34330  10.044  10.748   2.217  0.1718  0.8255 -0.0303
  255MOL0     C34331  10.154  10.843   2.284  0.2767 -0.2988  0.2857
  255MOL0     C34332  10.290  10.850   2.223 -1.3269  0.3235  0.2516
  255MOL0     C34333  10.392  10.940   2.287  0.5611 -0.7502 -1.0191
  255MOL0    Cl34334  10.520  11.012   2.181 -0.0008  0.1024  0.0571
  255MOL0     C34335   9.501  10.534   1.875 -0.0001 -1.2117 -0.2515
  255MOL0     C34336   9.361  10.510   1.867  0.1552 -0.2988  0.6233
  255MOL0     O34337   9.073  10.716   1.621 -0.3591  0.1134  0.1817
  255MOL0     C34338   8.901  10.465   1.800  0.1440  0.1797 -0.1305
  255MOL0     C34339   8.770  10.414   1.821 -0.5686 -0.0562  1.2504
  255MOL0     N34340   8.032  10.498   1.893 -0.1734  0.7181 -0.7050
  255MOL0     N34341   7.958  10.496   1.995 -0.3214  0.8091 -0.3194
  255MOL0     C34342   7.332   9.903   2.862 -0.2843  0.5111  0.5230
  255MOL0     C34343   7.267   9.797   2.934  0.5510 -0.0191  0.3075
  255MOL0     C34344   6.953   9.538   3.145 -0.2575  0.6403  0.3038
  255MOL0     C34345   7.016   9.551   3.267  0.2823 -0.1880  0.4347
  255MOL0     C34346   7.011   9.448   3.369 -0.0604 -0.4104  0.2239
  255MOL0     C34347   6.939   9.334   3.349  0.6429  1.0912 -0.4447
  255MOL0     O34348   6.947   9.230   3.452  0.8453 -0.0642  0.2410
  255MOL0     C34349   6.890   9.259   3.573 -0.3710 -0.2132 -0.8002
  255MOL0     C34350   6.766   9.157   3.586  0.9018  0.5685 -0.5164
  255MOL0     C34351   6.690   9.163   3.718  1.2325  0.2893  0.5478
  255MOL0     C34352   6.591   9.282   3.732  0.1323 -0.2042  0.2983
  255MOL0     C34353   6.509   9.279   3.860 -0.2955  0.2406  1.0320
  255MOL0     C34354   6.443   9.270   3.959  0.3581 -0.1329  0.2382
  255MOL0     C34355   6.869   9.316   3.228  0.6211 -0.5888 -0.4251
  255MOL0     C34356   6.872   9.416   3.130 -0.2092 -0.6942  0.0415
  255MOL0     C34357   6.806   9.374   2.996 -0.1687 -0.0197 -0.0216
  255MOL0     H34358   6.962   9.949   2.965 -0.5294  0.7022 -0.8304
  255MOL0     H34359   7.083  10.130   2.854 -1.5332 -1.1616 -1.1330
  255MOL0     H34360   7.452  10.175   2.920 -0.0499  3.2047 -0.3821
  255MOL0     H34361   7.543  10.091   2.789  0.9560  1.1435 -0.7366
  255MOL0     H34362   7.551  10.347   2.799 -3.5498  2.1035 -0.1084
  255MOL0     H34363   7.399  10.354   2.738 -1.2835 -0.5466 -1.7490
  255MOL0     H34364   7.473  10.314   2.533 -1.0854  1.5542  2.2118
  255MOL0     H34365   7.529  10.146   2.574 -0.9605  0.4211 -1.5384
  255MOL0     H34366   7.665  10.417   2.579  2.0543 -0.1798  0.7191
  255MOL0     H34367   7.747  10.289   2.640  0.6772  0.2644 -0.8076
  255MOL0     H34368   7.832  10.268   2.445  0.0918  0.3379  3.8109
  255MOL0     H34369   7.675  10.180   2.396  0.9101 -1.5631  2.5925
  255MOL0     H34370   7.607  10.372   2.284  0.3101  0.3800 -0.2898
  255MOL0     H34371   7.732  10.474   2.350  0.0987  0.3319 -0.4701
  255MOL0     H34372   7.783  10.206   2.171  0.9648  0.5071 -4.2300
  255MOL0     H34373   7.896  10.327   2.219 -0.0303 -0.0490  1.6625
  255MOL0     H34374   7.664  10.349   2.024 -0.8118 -1.0936  1.5367
  255MOL0     H34375   7.739  10.489   2.111 -2.2413 -0.9290  0.5206
  255MOL0     H34376   7.822  10.249   1.830  0.0304 -0.3173  0.7743
  255MOL0     H34377   8.065  10.237   1.674  3.4437  0.2145 -3.6016
  255MOL0     H34378   7.989  10.375   1.599  1.0134  0.5647  0.2211
  255MOL0     H34379   8.220  10.395   1.540  0.4921  2.1101 -0.7744
  255MOL0     H34380   8.166  10.522   1.649 -0.1815 -1.1723  0.2134
  255MOL0     H34381   8.315  10.284   1.746 -1.1924  0.9380 -1.2154
  255MOL0     H34382   8.284  10.437   1.840 -0.5077  1.4910 -0.0446
  255MOL0     H34383   8.409  10.555   1.689  0.1872 -1.1337 -2.6924
  255MOL0     H34384   8.452  10.409   1.593 -1.1878 -0.7684  0.0412
  255MOL0     H34385   8.594  10.662   1.664 -0.3485 -0.3021  0.7620
  255MOL0     H34386   8.810  10.740   1.620  2.3572  0.3641  1.1386
  255MOL0     H34387   9.305  10.732   1.607 -1.4002  0.5859  1.2356
  255MOL0     H34388   9.538  10.753   1.614 -0.1010  1.6481  1.3562
  255MOL0     H34389   9.721  10.838   1.722 -2.3079 -1.1128  0.0006
  255MOL0     H34390   9.678  10.825   1.891  1.1577 -0.5036  1.5880
  255MOL0     H34391   9.932  10.716   1.799 -0.1824  0.2376 -1.0044
  255MOL0     H34392   9.926  10.885   1.855  0.6509 -1.0281  0.6610
  255MOL0     H34393   9.824  10.754   2.078 -1.6179  4.8384 -2.3599
  255MOL0     H34394   9.898  10.614   1.995  0.3759  0.0924  0.1611
  255MOL0     H34395  10.049  10.882   2.050 -2.8322  0.2687 -1.7156
  255MOL0     H34396  10.114  10.723   2.003 -0.4029  0.1341 -0.9807
  255MOL0     H34397  10.062  10.645   2.249 -2.3009 -0.0364 -1.1736
  255MOL0     H34398   9.945  10.775   2.256 -0.1448 -0.4872  0.1129
  255MOL0     H34399  10.114  10.945   2.286  0.8133 -0.0273 -1.2640
  255MOL0     H34400  10.176  10.808   2.385  2.1716  0.1601  0.0533
  255MOL0     H34401  10.285  10.870   2.116  0.7809 -1.1742 -0.1880
  255MOL0     H34402  10.335  10.750   2.222 -1.6107  0.1718 -1.7065
  255MOL0     H34403  10.327  11.021   2.322  2.1030 -0.1337  0.5678
  255MOL0     H34404  10.439  10.903   2.379  1.4978  1.4123 -0.5789
  255MOL0     H34405   9.559  10.473   1.944  2.2932 -1.6820 -2.4311
  255MOL0     H34406   9.308  10.440   1.931  1.0493 -3.6986 -2.0537
  255MOL0     H34407   8.984  10.398   1.819 -0.9377 -0.6398  1.9427
  255MOL0     H34408   8.750  10.316   1.863 -1.1606  0.6581  2.7232
  255MOL0     H34409   7.435   9.894   2.828 -0.5180  0.4554 -0.1899
  255MOL0     H34410   7.326   9.712   2.970 -0.7757 -1.5347 -0.9500
  255MOL0     H34411   7.065   9.643   3.298  0.0158 -0.3331  1.3208
  255MOL0     H34412   7.068   9.451   3.461  0.8823 -0.5853 -0.3402
  255MOL0     H34413   6.858   9.363   3.576 -0.4117 -0.2394 -0.3758
  255MOL0     H34414   6.972   9.250   3.645 -0.2780 -1.9671 -1.0914
  255MOL0     H34415   6.808   9.057   3.572 -2.0732 -0.7000 -1.1457
  255MOL0     H34416   6.704   9.171   3.497 -1.0134  1.9580  0.9615
  255MOL0     H34417   6.766   9.157   3.796  0.0100 -1.1126  1.7004
  255MOL0     H34418   6.636   9.069   3.732  0.5034  0.3673 -1.4094
  255MOL0     H34419   6.654   9.372   3.727  2.9946 -1.9452  1.9269
  255MOL0     H34420   6.516   9.279   3.653  1.6741 -1.8554 -1.2218
  255MOL0     H34421   6.379   9.267   4.044  0.1965  0.7909  0.1589
  255MOL0     H34422   6.813   9.223   3.225 -1.0340  0.1626  2.5258
  255MOL0     H34423   6.775   9.269   2.984  2.5246 -1.0261  1.0073
  255MOL0     H34424   6.718   9.438   2.983  0.6946  0.9224 -1.4890
  255MOL0     H34425   6.881   9.405   2.924 -1.8594  3.3787 -0.4894
  256MOL0     O34426   4.487   4.690   9.324  0.2609  0.2159  0.5541
  256MOL0     C34427   4.449   4.650   9.214  0.4685  0.2318 -1.4230
  256MOL0     O34428   4.518   4.556   9.139  0.1835 -0.0857 -0.8524
  256MOL0     C34429   4.651   4.525   9.153 -0.1177 -0.1749 -0.0058
  256MOL0     C34430   4.746   4.622   9.179 -1.0008  1.2944 -0.0181
  256MOL0     C34431   4.883   4.587   9.191  0.9471 -0.0184 -0.5506
  256MOL0     C34432   4.926   4.455   9.171  0.8507  0.2645  0.3589
  256MOL0     O34433   5.061   4.417   9.172  0.1240 -0.8568 -0.5147
  256MOL0     C34434   5.103   4.288   9.132  0.1908  0.0650 -0.3435
  256MOL0     C34435   5.258   4.290   9.131  0.4944 -0.2317  0.0818
  256MOL0     C34436   5.319   4.311   9.273  0.1698  0.9520 -0.4568
  256MOL0     C34437   5.465   4.255   9.277 -0.5159 -0.4686  0.2217
  256MOL0     C34438   5.526   4.268   9.416 -0.3773  0.6980  0.8201
  256MOL0     C34439   5.672   4.207   9.410  0.2711  0.0243 -0.0150
  256MOL0     C34440   5.745   4.231   9.537 -0.3426  0.4265  0.6403
  256MOL0     C34441   5.897   4.222   9.522 -0.6776 -0.1929 -0.2597
  256MOL0     N34442   5.980   4.218   9.645  0.6470 -0.9559 -0.3639
  256MOL0     C34443   5.963   4.137   9.750 -0.0629 -0.3321 -1.2045
  256MOL0     C34444   6.051   4.179   9.837 -0.5792  0.2456 -0.3458
  256MOL0     C34445   6.058   4.124   9.978  0.0020 -0.1167 -0.3159
  256MOL0     C34446   6.132   3.985   9.989 -1.1542 -0.1450 -1.0484
  256MOL0     C34447   6.280   4.018   9.983 -0.2673  0.2901 -0.5190
  256MOL0     C34448   6.369   3.890   9.999 -0.2396 -0.3729  0.0976
  256MOL0     O34449   6.495   3.928  10.067 -0.7385 -0.0746 -0.3744
  256MOL0     C34450   6.591   3.990   9.991 -0.3037  0.1677 -1.1594
  256MOL0     C34451   6.585   4.022   9.854  0.3392 -0.3897 -0.1793
  256MOL0     C34452   6.689   4.076   9.780  0.1958  0.8401 -0.4989
  256MOL0     C34453   6.805   4.116   9.844 -0.3532  0.2336 -0.1221
  256MOL0     C34454   6.908   4.171   9.758  0.4325  0.3045 -1.1525
  256MOL0     O34455   7.036   4.134   9.779  0.2339 -0.0310 -0.3532
  256MOL0     C34456   7.118   4.191   9.687 -0.3961  0.0993 -0.1975
  256MOL0     C34457   7.169   4.099   9.598  0.7420  0.9329 -0.2435
  256MOL0     C34458   7.278   4.119   9.516  0.4804 -0.5662  1.3292
  256MOL0     C34459   7.331   4.246   9.513  0.0009 -0.0810  0.6196
  256MOL0     O34460   7.428   4.300   9.433 -0.2936 -0.4194  0.5074
  256MOL0     C34461   7.499   4.206   9.340  0.1606  0.0862 -0.0518
  256MOL0     C34462   7.576   4.296   9.244  0.4782  0.4792 -0.2060
  256MOL0     C34463   7.658   4.203   9.155 -0.5686 -0.4736  0.0507
  256MOL0     C34464   7.792   4.154   9.229  1.0252 -0.3069 -0.1522
  256MOL0     C34465   7.896   4.109   9.126 -0.1809  1.3322 -0.2133
  256MOL0     C34466   8.031   4.091   9.196  0.1718  1.1426 -0.6644
  256MOL0     C34467   8.096   4.212   9.264  0.2789  1.0576  0.5226
  256MOL0     C34468   8.225   4.160   9.330 -0.2438 -0.0385 -0.2277
  256MOL0    Cl34469   8.348   4.118   9.208  0.3480 -0.2083  0.3073
  256MOL0     C34470   7.277   4.348   9.598 -0.1833 -0.0571 -0.1646
  256MOL0     C34471   7.172   4.322   9.684  0.0823  0.1319 -1.0408
  256MOL0     O34472   6.869   4.248   9.672  0.2749  0.1098  0.3432
  256MOL0     C34473   6.825   4.090   9.985 -0.0855  0.2453 -0.4811
  256MOL0     C34474   6.714   4.030  10.051 -0.4938 -0.1768  0.0196
  256MOL0     N34475   6.130   4.277   9.789 -0.6993 -0.3371  0.2647
  256MOL0     N34476   6.088   4.297   9.673  0.4105  0.0569 -0.1812
  256MOL0     C34477   4.830   4.359   9.139 -0.6371  0.1634  0.2542
  256MOL0     C34478   4.693   4.392   9.125 -0.6904  0.5475  0.3192
  256MOL0     C34479   4.320   4.704   9.166  0.4681  0.2358 -0.2796
  256MOL0     C34480   4.254   4.627   9.076  1.5809  0.4098  0.7162
  256MOL0     C34481   4.119   4.658   9.034 -0.2962  0.4485 -0.0741
  256MOL0     C34482   4.053   4.775   9.089 -0.1698  0.0498  1.1980
  256MOL0     O34483   3.923   4.802   9.074 -0.5546  0.2822 -0.4690
  256MOL0     C34484   3.843   4.727   8.975  0.0962 -0.3724 -0.4490
  256MOL0     C34485   3.753   4.635   9.055 -0.6447  0.2810 -0.0899
  256MOL0     C34486   3.634   4.603   8.973  0.1147  0.7308 -0.5545
  256MOL0     C34487   3.537   4.524   9.072 -0.1329  0.2196 -0.0665
  256MOL0     C34488   3.419   4.498   8.999  0.2499  0.4152  0.5382
  256MOL0     C34489   3.318   4.473   8.944 -0.2758 -0.0953 -0.0052
  256MOL0     C34490   4.127   4.846   9.186  0.4720 -0.0534 -0.3167
  256MOL0     C34491   4.258   4.819   9.219  0.4833 -0.4610  0.7915
  256MOL0     C34492   4.326   4.913   9.306  0.3080  0.1271 -0.0904
  256MOL0     H34493   4.712   4.725   9.178  1.7463  2.3364  1.8475
  256MOL0     H34494   4.954   4.668   9.209  0.9511 -0.4726  1.7027
  256MOL0     H34495   5.074   4.217   9.210 -1.5214  1.5421  0.4474
  256MOL0     H34496   5.060   4.260   9.036 -1.5107 -0.2888  0.4775
  256MOL0     H34497   5.292   4.367   9.062  3.1308 -0.1798  1.3195
  256MOL0     H34498   5.297   4.198   9.087 -0.9386 -1.3805  1.1129
  256MOL0     H34499   5.251   4.257   9.339 -0.6229 -0.5093 -2.3759
  256MOL0     H34500   5.306   4.416   9.301  1.8953  0.5258  2.4000
  256MOL0     H34501   5.473   4.151   9.244 -3.2587 -1.3021  1.8584
  256MOL0     H34502   5.519   4.323   9.210  0.8304 -1.2687  0.4491
  256MOL0     H34503   5.527   4.374   9.445 -1.5000  0.4319  1.9599
  256MOL0     H34504   5.466   4.206   9.484  0.3601 -1.8441 -0.7345
  256MOL0     H34505   5.675   4.102   9.380  1.6893  1.0281 -4.1427
  256MOL0     H34506   5.718   4.258   9.325 -0.4175 -0.7244 -0.8562
  256MOL0     H34507   5.716   4.165   9.620  1.6972  1.5744  2.3812
  256MOL0     H34508   5.734   4.333   9.575 -0.1699  0.4846  0.5334
  256MOL0     H34509   5.934   4.155   9.444  2.2643  2.0788 -0.9661
  256MOL0     H34510   5.935   4.318   9.486  1.1158 -1.1916 -1.1421
  256MOL0     H34511   5.891   4.064   9.786  1.9697 -1.3035  1.2638
  256MOL0     H34512   6.108   4.195  10.044  0.5466  1.2291 -2.1249
  256MOL0     H34513   5.957   4.122  10.020  0.4052 -1.5650  0.6695
  256MOL0     H34514   6.116   3.941  10.088  1.9254  0.1029 -0.3489
  256MOL0     H34515   6.094   3.919   9.911 -2.0914  1.4658 -2.0096
  256MOL0     H34516   6.306   4.092  10.060  0.0541 -0.3946  0.0387
  256MOL0     H34517   6.307   4.072   9.892  0.0716 -0.7079 -1.0205
  256MOL0     H34518   6.386   3.845   9.901  2.3725 -1.2560  0.8901
  256MOL0     H34519   6.323   3.823  10.072  2.0625 -1.6195  0.4752
  256MOL0     H34520   6.495   4.007   9.795  0.2269  1.1029 -0.4447
  256MOL0     H34521   6.671   4.084   9.673 -3.7656 -1.3680 -0.1968
  256MOL0     H34522   7.128   3.998   9.593 -0.5428  1.4266  0.0400
  256MOL0     H34523   7.322   4.030   9.471 -0.7599 -0.8140  0.5637
  256MOL0     H34524   7.570   4.143   9.394  1.1041 -1.3345 -2.7866
  256MOL0     H34525   7.432   4.142   9.283  0.0432  0.5719 -0.4679
  256MOL0     H34526   7.509   4.345   9.172  1.1932 -0.6173 -1.6655
  256MOL0     H34527   7.623   4.377   9.300 -0.2309 -0.6736  2.1666
  256MOL0     H34528   7.583   4.129   9.125 -2.8305  1.7646 -0.1899
  256MOL0     H34529   7.684   4.252   9.061  1.3625  1.6908  1.6137
  256MOL0     H34530   7.774   4.085   9.311 -0.8722 -0.4725 -0.6637
  256MOL0     H34531   7.830   4.243   9.280  2.5750 -1.0636  0.0556
  256MOL0     H34532   7.899   4.183   9.045 -2.1305  2.0727  0.3298
  256MOL0     H34533   7.876   4.007   9.091 -1.5345  0.2134  3.4008
  256MOL0     H34534   8.026   4.005   9.264  0.6338  2.3630  0.9659
  256MOL0     H34535   8.098   4.067   9.113 -0.6590 -3.0198 -0.3731
  256MOL0     H34536   8.038   4.259   9.344  0.3187 -1.1432  1.9243
  256MOL0     H34537   8.125   4.289   9.193  0.8275  2.6577  2.3953
  256MOL0     H34538   8.266   4.243   9.389  2.2890 -1.1254 -0.3308
  256MOL0     H34539   8.210   4.076   9.398  0.0311 -0.0981 -0.2373
  256MOL0     H34540   7.316   4.449   9.595 -0.6630  0.1085 -1.0820
  256MOL0     H34541   7.131   4.405   9.741  1.9102  0.4387 -0.1052
  256MOL0     H34542   6.916   4.104  10.042 -1.3595 -0.3927  1.8002
  256MOL0     H34543   6.706   4.027  10.159  2.9518 -1.9514  0.3368
  256MOL0     H34544   4.851   4.253   9.128 -0.2358  0.4579 -2.4462
  256MOL0     H34545   4.628   4.309   9.099  0.3864  0.0900 -1.0801
  256MOL0     H34546   4.296   4.548   9.016  1.1207  0.3942  0.4128
  256MOL0     H34547   4.067   4.582   8.976 -1.9173  1.2760  0.2334
  256MOL0     H34548   3.910   4.675   8.906  0.5395 -1.3502  0.6808
  256MOL0     H34549   3.778   4.789   8.913  1.5742  0.4898 -1.1901
  256MOL0     H34550   3.725   4.686   9.148  0.0827  2.1426 -0.8441
  256MOL0     H34551   3.809   4.547   9.089 -0.6123 -0.4818 -2.0139
  256MOL0     H34552   3.653   4.534   8.891  1.4791 -0.1221  0.4297
  256MOL0     H34553   3.592   4.700   8.945  0.0411  0.6119 -0.8537
  256MOL0     H34554   3.564   4.423   9.105 -1.1416 -0.2910 -0.7482
  256MOL0     H34555   3.516   4.582   9.163 -0.6912 -0.5259  0.2965
  256MOL0     H34556   3.222   4.457   8.900 -1.0358  3.3540  0.0642
  256MOL0     H34557   4.076   4.923   9.242  1.0553 -1.1844  1.8730
  256MOL0     H34558   4.425   4.942   9.269  0.4695  0.6130  0.7005
  256MOL0     H34559   4.271   5.007   9.315  1.2815  0.8297 -1.2508
  256MOL0     H34560   4.356   4.874   9.404 -0.4152  0.4718  0.2759
  257MOL0     O34561  10.122   8.885   3.112  0.3368  0.5207 -0.0248
  257MOL0     C34562  10.080   8.866   3.000  0.0396 -0.7954 -0.4382
  257MOL0     O34563  10.151   8.885   2.885  0.5330 -0.5765  0.1637
  257MOL0     C34564  10.283   8.862   2.907 -0.8683 -0.1874  0.3214
  257MOL0     C34565  10.378   8.967   2.892  0.3084  0.4787  0.0891
  257MOL0     C34566  10.520   8.944   2.907  0.1810  0.1263  0.1458
  257MOL0     C34567  10.571   8.815   2.936 -0.2138 -1.2180  0.3339
  257MOL0     O34568  10.697   8.776   2.936 -0.4558  0.3500 -0.3436
  257MOL0     C34569  10.794   8.877   2.974  0.7349 -0.7610 -0.0711
  257MOL0     C34570  10.917   8.808   3.014 -0.2171 -0.3686 -0.3917
  257MOL0     C34571  10.906   8.706   3.136  1.0197 -0.2662  0.6142
  257MOL0     C34572  10.837   8.764   3.255  0.0232 -0.1093  0.3255
  257MOL0     C34573  10.845   8.658   3.374  0.0887 -0.0524 -0.5085
  257MOL0     C34574  10.812   8.728   3.508  0.5308  0.1794 -0.6240
  257MOL0     C34575  10.866   8.643   3.630  0.3020 -0.5463 -0.2405
  257MOL0     C34576  10.791   8.698   3.742  1.1334  0.5427  0.2917
  257MOL0     N34577  10.800   8.616   3.864  0.1934  0.3105 -0.4638
  257MOL0     C34578  10.705   8.527   3.913  0.4430  0.2074  0.1691
  257MOL0     C34579  10.747   8.492   4.036  0.2653  0.4502  0.1964
  257MOL0     C34580  10.663   8.410   4.132  0.7077  0.6011 -0.5127
  257MOL0     C34581  10.725   8.267   4.144 -0.3730 -0.1074  0.9597
  257MOL0     C34582  10.665   8.190   4.267  1.0506  0.4161  0.5859
  257MOL0     C34583  10.747   8.064   4.279  0.0336 -0.0678 -0.4236
  257MOL0     O34584  10.756   7.983   4.164 -0.1969 -0.2261 -0.1771
  257MOL0     C34585  10.788   7.849   4.185 -0.4364  0.6071 -0.0176
  257MOL0     C34586  10.690   7.754   4.163  0.7890  0.1235  0.1593
  257MOL0     C34587  10.716   7.612   4.170  0.0951  0.2530  0.4932
  257MOL0     C34588  10.849   7.566   4.199  0.0507 -0.5770  0.3765
  257MOL0     C34589  10.878   7.423   4.197  0.5216  0.0245 -0.9213
  257MOL0     O34590  11.005   7.372   4.186 -0.0923  0.0006  0.2613
  257MOL0     C34591  11.047   7.246   4.195 -0.3264 -0.1500  0.0028
  257MOL0     C34592  10.975   7.131   4.246  0.7356 -0.3510  0.4448
  257MOL0     C34593  11.036   7.011   4.244  0.3204  0.1441 -0.0801
  257MOL0     C34594  11.172   6.991   4.204 -0.4654  0.2440 -0.9322
  257MOL0     O34595  11.235   6.870   4.194 -0.0852  0.4263 -0.3270
  257MOL0     C34596  11.159   6.758   4.249 -0.9481 -0.1382 -0.9872
  257MOL0     C34597  11.246   6.627   4.256  0.0526 -0.6489 -1.0688
  257MOL0     C34598  11.253   6.567   4.118  0.4831 -0.4819 -0.6679
  257MOL0     C34599  11.308   6.422   4.135  0.1522  0.6044  0.6756
  257MOL0     C34600  11.327   6.351   3.998 -0.4027 -0.4674  0.2436
  257MOL0     C34601  11.428   6.433   3.912  0.0704 -0.3956 -0.5075
  257MOL0     C34602  11.463   6.361   3.780 -0.6097  0.7252  0.1955
  257MOL0     C34603  11.509   6.447   3.661 -0.2918  0.9386  0.5079
  257MOL0    Cl34604  11.686   6.479   3.671 -0.2618  0.0658  0.3292
  257MOL0     C34605  11.239   7.100   4.155 -0.0492 -0.1973 -0.0684
  257MOL0     C34606  11.178   7.225   4.154  0.1392  0.1762 -0.2882
  257MOL0     O34607  10.779   7.348   4.209  0.7639  0.0141  0.0414
  257MOL0     C34608  10.946   7.659   4.209  0.0590  0.2202  0.4776
  257MOL0     C34609  10.914   7.795   4.208 -0.2475 -0.6908 -0.0899
  257MOL0     N34610  10.870   8.547   4.053 -0.3995  0.2045 -0.2275
  257MOL0     N34611  10.900   8.625   3.957 -0.3113 -0.0922  0.3082
  257MOL0     C34612  10.479   8.708   2.941  0.0202 -0.0047  0.5655
  257MOL0     C34613  10.342   8.739   2.933  0.6044  0.1221 -0.1395
  257MOL0     C34614   9.934   8.836   2.986  0.2957  0.3725 -0.0329
  257MOL0     C34615   9.852   8.857   3.103 -0.5825  0.1037  1.2781
  257MOL0     C34616   9.715   8.822   3.107 -0.3885  0.2322  0.2023
  257MOL0     C34617   9.657   8.763   3.000  0.5027 -0.4295  0.5976
  257MOL0     O34618   9.522   8.745   3.020 -0.0493  0.3215 -0.0851
  257MOL0     C34619   9.442   8.671   2.925  0.3786 -0.3610  0.2709
  257MOL0     C34620   9.303   8.649   2.989  0.4616 -0.5574 -0.0341
  257MOL0     C34621   9.225   8.781   2.974  0.1590 -0.1478 -0.1477
  257MOL0     C34622   9.222   8.872   3.094  0.2527  0.4098 -0.3171
  257MOL0     C34623   9.153   8.994   3.054  0.4216  0.6195 -0.2117
  257MOL0     C34624   9.107   9.107   3.045  0.8256 -0.0352 -0.2046
  257MOL0     C34625   9.733   8.745   2.878  0.9643  0.6073 -0.8722
  257MOL0     C34626   9.871   8.776   2.874  0.7510 -0.2357  0.2341
  257MOL0     C34627   9.922   8.778   2.733 -0.3900 -0.8652 -0.7588
  257MOL0     H34628  10.331   9.064   2.880  1.3816  1.2339  1.6226
  257MOL0     H34629  10.588   9.028   2.903 -1.3463  1.4666  1.1175
  257MOL0     H34630  10.818   8.949   2.895  0.0298  1.3685  1.5445
  257MOL0     H34631  10.756   8.939   3.057 -0.5854  1.3099 -2.0973
  257MOL0     H34632  10.988   8.887   3.041 -0.8690  0.2295 -0.3650
  257MOL0     H34633  10.960   8.757   2.928 -0.6763  1.4573 -1.7759
  257MOL0     H34634  11.006   8.671   3.161  1.0775 -0.5178  0.0322
  257MOL0     H34635  10.853   8.616   3.105 -1.2907  0.0442  3.2353
  257MOL0     H34636  10.892   8.855   3.281 -0.1149 -0.1954  0.9235
  257MOL0     H34637  10.737   8.796   3.225  0.8719  0.2945 -2.4473
  257MOL0     H34638  10.767   8.583   3.359 -1.5843  1.4010  0.5229
  257MOL0     H34639  10.936   8.598   3.386 -0.9576 -1.6677 -0.3272
  257MOL0     H34640  10.873   8.818   3.516  0.6951  0.1260 -1.2189
  257MOL0     H34641  10.706   8.751   3.520  0.7530  0.9226 -0.0007
  257MOL0     H34642  10.973   8.652   3.651  0.5065 -0.4463 -1.2646
  257MOL0     H34643  10.848   8.536   3.613  0.0490 -0.1163 -3.2685
  257MOL0     H34644  10.821   8.802   3.761 -1.4880  1.1667  1.5481
  257MOL0     H34645  10.685   8.716   3.719  1.4419  0.8822 -0.9053
  257MOL0     H34646  10.608   8.497   3.876  0.2410 -1.4126  1.8554
  257MOL0     H34647  10.668   8.451   4.234  1.6274  0.7989 -0.6327
  257MOL0     H34648  10.558   8.395   4.104  0.4747 -1.3076  1.0910
  257MOL0     H34649  10.720   8.220   4.046 -0.6751  0.9049  0.4779
  257MOL0     H34650  10.833   8.275   4.161 -0.1741  2.4113 -0.9223
  257MOL0     H34651  10.558   8.173   4.256  0.7789  2.5857 -0.8905
  257MOL0     H34652  10.670   8.248   4.360  1.2186 -0.6810  1.2779
  257MOL0     H34653  10.694   8.008   4.357  1.4591 -0.3450  0.3867
  257MOL0     H34654  10.847   8.081   4.319 -1.0605 -1.7415  3.5328
  257MOL0     H34655  10.588   7.788   4.145  1.2256  0.5573 -1.6907
  257MOL0     H34656  10.638   7.540   4.146 -1.9593  2.5886 -0.2323
  257MOL0     H34657  10.876   7.145   4.287  0.0362  1.1622 -1.5731
  257MOL0     H34658  10.967   6.929   4.266 -0.6343  0.3247 -2.2335
  257MOL0     H34659  11.129   6.782   4.351  0.4986  1.9166 -0.9740
  257MOL0     H34660  11.068   6.751   4.189 -0.7741  2.9212 -1.8092
  257MOL0     H34661  11.345   6.642   4.301 -0.6760 -1.3095  0.8505
  257MOL0     H34662  11.193   6.562   4.327 -0.3833  1.0342  0.2112
  257MOL0     H34663  11.153   6.566   4.073  0.1528 -3.6921 -0.1427
  257MOL0     H34664  11.322   6.633   4.065  1.1754  1.5441  2.5381
  257MOL0     H34665  11.252   6.360   4.206 -0.7862 -0.5618 -1.0344
  257MOL0     H34666  11.404   6.430   4.186 -0.6006 -1.9613  2.7214
  257MOL0     H34667  11.234   6.326   3.947  0.5471 -4.9617  0.2930
  257MOL0     H34668  11.373   6.255   4.024 -1.4266 -0.4843  2.1605
  257MOL0     H34669  11.387   6.532   3.887  1.4771 -0.2285 -2.3349
  257MOL0     H34670  11.522   6.455   3.963  1.6471  0.3093 -3.5143
  257MOL0     H34671  11.373   6.303   3.757  0.5238 -0.9894 -0.1159
  257MOL0     H34672  11.542   6.288   3.798  0.1549  0.8245 -2.3731
  257MOL0     H34673  11.479   6.390   3.573 -3.3894  1.7378  0.9280
  257MOL0     H34674  11.470   6.549   3.660  0.0093  1.0588  0.7197
  257MOL0     H34675  11.332   7.079   4.104 -1.8879 -1.1401 -3.2987
  257MOL0     H34676  11.243   7.306   4.123  1.6088 -1.6363 -2.1664
  257MOL0     H34677  11.053   7.647   4.222 -0.2006 -0.2999  2.3760
  257MOL0     H34678  10.989   7.873   4.220 -1.4545  0.3765  0.8778
  257MOL0     H34679  10.522   8.611   2.962  0.1928 -0.3865 -1.3910
  257MOL0     H34680  10.283   8.650   2.956 -0.2180  0.6328 -0.2269
  257MOL0     H34681   9.886   8.908   3.193  0.3643  1.5016  0.1814
  257MOL0     H34682   9.659   8.840   3.198  0.0269  4.8178 -0.2172
  257MOL0     H34683   9.469   8.566   2.914 -2.1929 -1.4388  2.8619
  257MOL0     H34684   9.424   8.723   2.830 -4.2788  0.2792  1.2627
  257MOL0     H34685   9.302   8.613   3.092  2.4701  1.0892  0.6103
  257MOL0     H34686   9.249   8.580   2.923  2.1740  1.3195 -3.7675
  257MOL0     H34687   9.121   8.754   2.958  0.5875 -1.8109 -0.3296
  257MOL0     H34688   9.264   8.835   2.887  2.1839 -1.1557  0.0579
  257MOL0     H34689   9.168   8.821   3.174 -0.0190  3.1185  1.3435
  257MOL0     H34690   9.323   8.899   3.126  0.5106 -1.3733  0.4913
  257MOL0     H34691   9.083   9.208   3.017 -0.9630 -0.4286 -0.1569
  257MOL0     H34692   9.682   8.705   2.791  0.0213 -0.0811 -0.0230
  257MOL0     H34693   9.843   8.737   2.670 -0.9943  0.8814 -1.2050
  257MOL0     H34694   9.942   8.880   2.700  3.0506 -1.0236  0.3992
  257MOL0     H34695  10.017   8.726   2.713 -0.2695 -0.1735 -2.1007
  258MOL0     O34696   7.204   7.722   6.896 -0.3214  0.0774 -0.3605
  258MOL0     C34697   7.227   7.766   6.785  1.0161 -0.0205 -1.0055
  258MOL0     O34698   7.330   7.731   6.700  0.1605 -0.5757 -0.8910
  258MOL0     C34699   7.442   7.690   6.762 -0.0830 -0.3567 -0.5718
  258MOL0     C34700   7.500   7.571   6.724 -0.0642 -0.1046  0.3808
  258MOL0     C34701   7.613   7.529   6.800 -0.1832  0.6251  0.0282
  258MOL0     C34702   7.673   7.612   6.895 -0.3081 -0.1728 -0.3933
  258MOL0     O34703   7.780   7.580   6.972  0.2589  0.3837 -0.1520
  258MOL0     C34704   7.822   7.442   6.985  0.4289 -0.6988 -0.4809
  258MOL0     C34705   7.717   7.353   7.056 -0.0363  0.1959  0.3861
  258MOL0     C34706   7.696   7.381   7.210 -0.7991 -0.3623 -0.5621
  258MOL0     C34707   7.606   7.276   7.278  0.5445  0.4663 -0.6290
  258MOL0     C34708   7.567   7.327   7.422 -0.0953  0.7747  0.1456
  258MOL0     C34709   7.475   7.215   7.483 -0.6617  0.1807  0.9137
  258MOL0     C34710   7.425   7.261   7.619 -0.2264 -0.6208 -0.3422
  258MOL0     C34711   7.281   7.230   7.654  0.3717 -0.2929  0.1889
  258MOL0     N34712   7.282   7.239   7.803  0.4420 -0.3434 -0.1397
  258MOL0     C34713   7.354   7.155   7.885 -0.2060  0.0150 -0.5461
  258MOL0     C34714   7.308   7.192   8.005 -0.4543  0.8206 -0.5842
  258MOL0     C34715   7.361   7.131   8.135  0.9024  0.5195 -0.6420
  258MOL0     C34716   7.510   7.153   8.154  0.5503  1.1879  0.8660
  258MOL0     C34717   7.570   7.105   8.290  0.6725  0.1354 -0.0874
  258MOL0     C34718   7.722   7.096   8.276 -0.1428  0.5457  0.2002
  258MOL0     O34719   7.768   7.225   8.302 -0.2703 -0.1622 -0.1535
  258MOL0     C34720   7.898   7.267   8.285 -0.3740  0.5386  0.5146
  258MOL0     C34721   8.010   7.183   8.255 -0.0886 -0.6280  0.1326
  258MOL0     C34722   8.145   7.229   8.241  0.4004 -0.0598  0.5533
  258MOL0     C34723   8.165   7.369   8.263  0.6674  0.1700 -0.0161
  258MOL0     C34724   8.302   7.420   8.262 -0.5555 -0.2380  0.1667
  258MOL0     O34725   8.397   7.331   8.274 -1.0121  0.9116 -0.1074
  258MOL0     C34726   8.528   7.379   8.296  0.1825 -0.1772 -0.3311
  258MOL0     C34727   8.599   7.314   8.392 -0.4845  0.5767  0.4036
  258MOL0     C34728   8.730   7.349   8.419 -1.0472 -0.2874 -0.2918
  258MOL0     C34729   8.790   7.449   8.346 -0.1532  0.5231 -0.2020
  258MOL0     O34730   8.917   7.494   8.369  1.5036 -0.2254 -0.9226
  258MOL0     C34731   9.012   7.391   8.362  0.6668 -0.2405  0.2311
  258MOL0     C34732   9.153   7.446   8.375 -0.0866  0.3951 -1.0753
  258MOL0     C34733   9.233   7.478   8.247 -0.9887  0.5026  0.0410
  258MOL0     C34734   9.262   7.348   8.170  0.0686 -0.3846  0.0212
  258MOL0     C34735   9.343   7.360   8.036  0.2727 -0.2459  0.1929
  258MOL0     C34736   9.280   7.462   7.940  0.4235 -0.1183  0.0506
  258MOL0     C34737   9.308   7.430   7.795 -0.6294  0.3507  0.0714
  258MOL0     C34738   9.377   7.540   7.718  0.2965  0.5553  0.0310
  258MOL0    Cl34739   9.538   7.580   7.773  0.5160  0.0631 -0.1712
  258MOL0     C34740   8.712   7.514   8.248  0.4901  0.0354 -0.7074
  258MOL0     C34741   8.583   7.477   8.222 -0.5120  0.6109  0.5840
  258MOL0     O34742   8.318   7.542   8.259  0.1090 -0.2230  0.4851
  258MOL0     C34743   8.061   7.453   8.305  0.4004 -0.1563 -0.0460
  258MOL0     C34744   7.929   7.400   8.299 -0.2602 -0.3871 -1.0389
  258MOL0     N34745   7.213   7.293   7.994 -0.0073 -0.1270  0.2361
  258MOL0     N34746   7.201   7.318   7.877 -0.2424  0.3055 -0.4894
  258MOL0     C34747   7.614   7.730   6.920 -0.7685  0.2794  0.0092
  258MOL0     C34748   7.496   7.766   6.867  0.5691 -0.1400  0.0499
  258MOL0     C34749   7.110   7.835   6.706 -0.1133 -0.4888 -0.6658
  258MOL0     C34750   7.116   7.839   6.564  0.4314  0.7205  0.1699
  258MOL0     C34751   7.016   7.905   6.484 -0.7257 -0.0228  0.5029
  258MOL0     C34752   6.906   7.968   6.542  0.2812 -0.3422 -0.2498
  258MOL0     O34753   6.812   8.016   6.457  0.4933 -0.2866  0.3706
  258MOL0     C34754   6.676   8.039   6.507 -0.0563 -0.0350  0.5571
  258MOL0     C34755   6.579   8.064   6.383  0.0317 -0.9645  0.3612
  258MOL0     C34756   6.429   8.075   6.416  0.0610  1.2372  0.6648
  258MOL0     C34757   6.383   8.073   6.565 -0.4204 -0.0240 -0.9066
  258MOL0     C34758   6.239   8.102   6.580  0.1558  0.5796  0.3131
  258MOL0     C34759   6.119   8.142   6.578  0.3525 -0.3532  0.3977
  258MOL0     C34760   6.897   7.959   6.681  0.3208 -0.3381  0.3464
  258MOL0     C34761   6.994   7.899   6.764  0.4375 -0.2413 -0.2743
  258MOL0     C34762   6.990   7.924   6.913  0.2669 -0.0079  0.0308
  258MOL0     H34763   7.471   7.512   6.637  3.0908  0.8994 -1.5158
  258MOL0     H34764   7.671   7.443   6.768 -1.8026 -0.0831 -1.1665
  258MOL0     H34765   7.831   7.395   6.886  0.6456 -1.9436  0.1050
  258MOL0     H34766   7.915   7.441   7.042  1.1608 -0.1423 -1.6375
  258MOL0     H34767   7.752   7.249   7.053 -1.7271 -0.3744 -0.8125
  258MOL0     H34768   7.625   7.350   6.998  1.2954 -0.4593 -1.7819
  258MOL0     H34769   7.645   7.477   7.213 -0.7868 -0.3027 -1.6749
  258MOL0     H34770   7.791   7.390   7.264 -1.0812  0.2122 -0.1634
  258MOL0     H34771   7.519   7.239   7.223  0.3825 -3.2430  1.7705
  258MOL0     H34772   7.670   7.190   7.301  1.0783  1.1687  0.6253
  258MOL0     H34773   7.646   7.337   7.497  0.6910  0.4373 -0.6310
  258MOL0     H34774   7.499   7.411   7.403 -0.5728  0.8303  1.8999
  258MOL0     H34775   7.389   7.199   7.418 -1.3157 -0.2784  1.8716
  258MOL0     H34776   7.525   7.119   7.498  2.2112  1.4590  0.3896
  258MOL0     H34777   7.444   7.369   7.627  0.3309 -0.7856  0.6019
  258MOL0     H34778   7.498   7.218   7.688 -0.8641  1.4157  1.7344
  258MOL0     H34779   7.215   7.309   7.617  0.8578  1.4509  2.7528
  258MOL0     H34780   7.236   7.134   7.627  1.0346 -0.6106  0.1837
  258MOL0     H34781   7.423   7.073   7.873  1.6184  0.8445  2.9871
  258MOL0     H34782   7.310   7.197   8.205 -0.3341 -0.8302 -0.2259
  258MOL0     H34783   7.332   7.027   8.151 -0.0579  0.3162 -3.2071
  258MOL0     H34784   7.567   7.105   8.074  2.5674  0.9945  2.3469
  258MOL0     H34785   7.531   7.260   8.143 -3.8828  2.1968  0.2058
  258MOL0     H34786   7.525   7.011   8.322 -0.6506  1.3354  1.7649
  258MOL0     H34787   7.541   7.186   8.358  1.2276 -1.0269  1.5947
  258MOL0     H34788   7.753   7.077   8.173 -2.6791 -0.4841 -0.4475
  258MOL0     H34789   7.780   7.023   8.332 -0.3228 -0.8338 -1.3471
  258MOL0     H34790   7.990   7.079   8.231 -0.2476 -0.1123 -2.2955
  258MOL0     H34791   8.228   7.161   8.223 -0.0524 -0.0084 -2.1525
  258MOL0     H34792   8.543   7.243   8.451  0.4703 -1.1788 -0.7123
  258MOL0     H34793   8.783   7.286   8.490 -0.4112  0.0123 -0.4947
  258MOL0     H34794   9.001   7.343   8.460 -2.0462 -1.3693 -0.5373
  258MOL0     H34795   8.999   7.320   8.280  1.0434 -0.5427  0.4287
  258MOL0     H34796   9.152   7.537   8.436 -1.3552  0.2781 -0.8935
  258MOL0     H34797   9.209   7.375   8.437  0.5759  2.7394  1.1937
  258MOL0     H34798   9.178   7.554   8.190  1.9352  3.0452  0.3416
  258MOL0     H34799   9.330   7.517   8.279  1.0857 -3.5461 -0.6337
  258MOL0     H34800   9.169   7.293   8.154 -0.8124  0.2647  2.3419
  258MOL0     H34801   9.322   7.282   8.234  0.7857  0.0552 -0.1875
  258MOL0     H34802   9.347   7.263   7.985  1.9565 -1.3574  2.2681
  258MOL0     H34803   9.443   7.390   8.068 -0.7153  0.2521  3.1803
  258MOL0     H34804   9.171   7.463   7.946  0.3831  0.3599 -0.6549
  258MOL0     H34805   9.316   7.562   7.964  1.3339 -0.9376  2.4415
  258MOL0     H34806   9.219   7.395   7.741  1.2353  1.3341 -4.0072
  258MOL0     H34807   9.370   7.340   7.788 -0.7985  0.1682  0.8746
  258MOL0     H34808   9.396   7.504   7.616 -1.6449 -0.8923  0.1299
  258MOL0     H34809   9.309   7.625   7.720  0.9821  1.1820  4.0458
  258MOL0     H34810   8.748   7.603   8.198 -3.1070  1.4145 -1.1290
  258MOL0     H34811   8.538   7.525   8.136  1.6521  0.7907 -0.5211
  258MOL0     H34812   8.068   7.556   8.339 -0.7147  0.1691 -0.7532
  258MOL0     H34813   7.851   7.471   8.324 -2.0574 -2.2779 -0.9648
  258MOL0     H34814   7.664   7.798   6.988 -0.5869 -1.0687  1.2746
  258MOL0     H34815   7.464   7.866   6.896 -1.0029 -0.8047  0.7441
  258MOL0     H34816   7.193   7.800   6.498 -1.1985  1.4667 -2.3124
  258MOL0     H34817   7.021   7.904   6.376 -2.2357 -0.7177  0.4200
  258MOL0     H34818   6.674   8.127   6.572 -0.4587 -0.2441  0.8307
  258MOL0     H34819   6.639   7.950   6.559 -0.4839  0.7142  1.5770
  258MOL0     H34820   6.589   7.985   6.308  1.7675  0.6546 -1.2012
  258MOL0     H34821   6.613   8.157   6.336  4.9090 -1.1755  2.8261
  258MOL0     H34822   6.379   7.992   6.366  1.8572  0.9059 -0.6661
  258MOL0     H34823   6.399   8.158   6.352  1.4674 -1.3420 -3.7552
  258MOL0     H34824   6.402   7.969   6.593  1.2222  0.9693  2.0815
  258MOL0     H34825   6.442   8.133   6.635  0.5913  0.9761 -2.5321
  258MOL0     H34826   6.021   8.184   6.564  1.5017  2.5814  0.4907
  258MOL0     H34827   6.803   7.993   6.724  0.7412  1.1134  0.1569
  258MOL0     H34828   6.896   7.975   6.938  1.0207  1.7218 -0.5295
  258MOL0     H34829   6.996   7.838   6.981  2.5019  1.4781  1.8706
  258MOL0     H34830   7.073   7.983   6.952 -0.0639  0.7016 -0.3114
  259MOL0     O34831   7.109   3.076   1.112 -0.4520  0.5261 -0.2720
  259MOL0     C34832   7.052   3.183   1.129 -0.4546  0.1090  0.8488
  259MOL0     O34833   7.093   3.274   1.221  0.5662 -0.0907  0.1428
  259MOL0     C34834   7.178   3.252   1.323 -0.4976 -0.7061  0.7815
  259MOL0     C34835   7.155   3.157   1.425 -0.0366 -0.1953 -0.2379
  259MOL0     C34836   7.251   3.142   1.524 -0.3370 -0.4574 -0.6482
  259MOL0     C34837   7.366   3.225   1.530  0.4090  0.2222 -0.6224
  259MOL0     O34838   7.472   3.214   1.618  0.1356 -0.0553  0.6085
  259MOL0     C34839   7.472   3.110   1.716 -0.2786 -0.8285 -0.3173
  259MOL0     C34840   7.583   3.123   1.816  0.4966 -1.1403 -1.4917
  259MOL0     C34841   7.716   3.103   1.754  0.1363  0.7768  0.5525
  259MOL0     C34842   7.777   3.230   1.696  0.4226 -0.6019  0.3225
  259MOL0     C34843   7.898   3.215   1.607  0.0689  0.1341  0.3085
  259MOL0     C34844   8.035   3.173   1.687 -0.0378 -0.2160  0.9879
  259MOL0     C34845   8.148   3.195   1.586  0.5761  0.1978  0.8567
  259MOL0     C34846   8.282   3.124   1.633 -0.3329 -1.3117  1.1126
  259MOL0     N34847   8.393   3.137   1.537 -0.5210 -0.2145  0.4908
  259MOL0     C34848   8.504   3.053   1.544  0.6660 -0.2666 -1.0370
  259MOL0     C34849   8.596   3.116   1.465 -0.0410 -0.5067 -0.8092
  259MOL0     C34850   8.740   3.084   1.432 -0.0330  0.5880  0.1689
  259MOL0     C34851   8.799   2.966   1.518 -0.6253 -0.3571  0.0719
  259MOL0     C34852   8.936   2.934   1.462 -0.0374  0.1705  0.2917
  259MOL0     C34853   8.972   2.793   1.522 -0.7562  0.4447  0.1188
  259MOL0     O34854   8.947   2.780   1.664  0.3177 -0.9441 -0.0363
  259MOL0     C34855   9.056   2.816   1.735  0.1748 -0.5712 -0.3693
  259MOL0     C34856   9.151   2.721   1.757  0.3966  0.0674 -0.1965
  259MOL0     C34857   9.269   2.750   1.823 -0.0298 -0.1430 -0.1990
  259MOL0     C34858   9.304   2.883   1.850 -0.6988  0.7143 -0.7962
  259MOL0     C34859   9.440   2.927   1.900 -0.0084  0.0381 -0.1873
  259MOL0     O34860   9.536   2.836   1.889  0.4311 -0.5526  0.0143
  259MOL0     C34861   9.654   2.872   1.947  0.0324  0.0056  0.3584
  259MOL0     C34862   9.664   2.874   2.084 -1.0719  0.3003 -0.0800
  259MOL0     C34863   9.785   2.916   2.154  1.2093 -0.2215 -0.0952
  259MOL0     C34864   9.888   2.955   2.074  0.1573  0.5623  0.0221
  259MOL0     O34865  10.002   3.009   2.126 -0.6415  0.3154  0.4521
  259MOL0     C34866  10.114   2.923   2.132 -0.5495  0.6741 -0.2959
  259MOL0     C34867  10.224   3.023   2.172 -0.8950 -1.0697  0.2359
  259MOL0     C34868  10.367   2.988   2.116 -0.3360  0.2027 -0.0626
  259MOL0     C34869  10.473   3.097   2.169 -0.9407  0.1420  0.0244
  259MOL0     C34870  10.595   3.065   2.099 -0.7394  0.0192 -0.1140
  259MOL0     C34871  10.706   3.163   2.122 -0.6246 -0.6634 -0.4173
  259MOL0     C34872  10.839   3.104   2.065  0.2339  0.2600 -0.8085
  259MOL0     C34873  10.955   3.208   2.063  0.2596  0.0056  0.1525
  259MOL0    Cl34874  11.122   3.145   2.060  0.4700 -0.4826  0.0219
  259MOL0     C34875   9.887   2.930   1.936 -0.1145 -0.7671 -0.3572
  259MOL0     C34876   9.765   2.894   1.870 -1.0948  0.3384 -0.2876
  259MOL0     O34877   9.443   3.039   1.951 -0.4224 -0.6078  0.1443
  259MOL0     C34878   9.208   2.984   1.820  0.8718  0.2399  0.2080
  259MOL0     C34879   9.087   2.944   1.764  0.2150 -0.0272  0.2610
  259MOL0     N34880   8.532   3.229   1.419 -0.2114 -0.9387  0.4585
  259MOL0     N34881   8.407   3.245   1.460 -0.3311  0.0542 -0.6107
  259MOL0     C34882   7.374   3.330   1.439 -0.1420  0.2940 -0.6726
  259MOL0     C34883   7.282   3.342   1.335  0.5501  0.0559 -0.7149
  259MOL0     C34884   6.946   3.229   1.035 -0.2212  0.5855  0.4031
  259MOL0     C34885   6.885   3.357   1.054 -0.5841 -0.0690 -0.0118
  259MOL0     C34886   6.779   3.403   0.976  0.1123  0.3574  0.0288
  259MOL0     C34887   6.723   3.321   0.881  0.0478  0.1139  0.7982
  259MOL0     O34888   6.614   3.345   0.810  0.1534 -0.3329  0.8612
  259MOL0     C34889   6.549   3.478   0.826  0.0593  0.6951  0.2123
  259MOL0     C34890   6.456   3.495   0.705  0.4158 -0.0381 -0.3869
  259MOL0     C34891   6.345   3.389   0.685  0.0240  0.1070 -0.7843
  259MOL0     C34892   6.247   3.380   0.809 -0.6530  0.4028  0.4529
  259MOL0     C34893   6.137   3.290   0.769  0.4361 -0.5498  0.3314
  259MOL0     C34894   6.049   3.207   0.753 -0.4580 -1.0014 -0.1289
  259MOL0     C34895   6.789   3.208   0.847 -0.2710 -0.0646  0.5304
  259MOL0     C34896   6.895   3.153   0.919  0.0595  0.5180 -0.3098
  259MOL0     C34897   6.940   3.016   0.885 -0.3924  1.0274  0.0435
  259MOL0     H34898   7.068   3.093   1.434 -0.1733 -0.2588 -1.7783
  259MOL0     H34899   7.249   3.058   1.593  3.3239  0.0511  0.3242
  259MOL0     H34900   7.377   3.112   1.770 -0.6155 -3.3749 -0.7010
  259MOL0     H34901   7.497   3.012   1.675 -0.1815 -1.6164  1.5533
  259MOL0     H34902   7.565   3.040   1.884 -1.4081 -0.8774 -1.6127
  259MOL0     H34903   7.573   3.218   1.869  1.7153 -1.3642 -0.8326
  259MOL0     H34904   7.719   3.023   1.680 -1.0420 -0.4068  1.7149
  259MOL0     H34905   7.794   3.070   1.823  0.5690 -3.0439 -1.5041
  259MOL0     H34906   7.705   3.270   1.624 -0.2842 -1.6815  0.4087
  259MOL0     H34907   7.799   3.312   1.765 -2.6357  0.6895 -0.0847
  259MOL0     H34908   7.873   3.132   1.541 -0.6743  0.1525  0.5642
  259MOL0     H34909   7.916   3.302   1.543 -1.6328  0.2850  0.0001
  259MOL0     H34910   8.050   3.250   1.763  1.5924 -0.1947  0.6780
  259MOL0     H34911   8.029   3.070   1.724 -0.0307  0.1198  1.9419
  259MOL0     H34912   8.165   3.301   1.568 -0.5959  0.5255  1.5768
  259MOL0     H34913   8.119   3.153   1.489  0.3155 -2.2920  1.9404
  259MOL0     H34914   8.326   3.171   1.721  2.0359  0.2828 -0.7947
  259MOL0     H34915   8.257   3.022   1.661 -0.7639 -1.2670  0.9085
  259MOL0     H34916   8.501   2.968   1.612  1.2811  0.7537  0.3246
  259MOL0     H34917   8.751   3.061   1.325 -2.9646  1.1674 -0.3204
  259MOL0     H34918   8.794   3.177   1.451  1.4086  0.3780 -2.4325
  259MOL0     H34919   8.815   3.006   1.618  2.0143  1.0064 -0.7799
  259MOL0     H34920   8.749   2.868   1.513  2.1588 -2.1212  2.9480
  259MOL0     H34921   9.007   3.014   1.482  0.3204  0.5161 -2.1461
  259MOL0     H34922   8.933   2.911   1.355  0.1718  0.0969  0.3011
  259MOL0     H34923   9.072   2.760   1.492 -1.0078 -0.5429  0.3611
  259MOL0     H34924   8.904   2.723   1.474 -2.6626  2.0559  0.3551
  259MOL0     H34925   9.128   2.617   1.733 -3.7109  1.0767 -1.3090
  259MOL0     H34926   9.340   2.673   1.852  1.0816  1.5167  1.7002
  259MOL0     H34927   9.578   2.846   2.143 -1.1529 -3.3693 -1.6098
  259MOL0     H34928   9.793   2.928   2.262  0.6584 -1.7742  0.1338
  259MOL0     H34929  10.097   2.852   2.213  1.1488  1.4152  0.7625
  259MOL0     H34930  10.130   2.872   2.037  1.8546  1.4315 -0.3606
  259MOL0     H34931  10.200   3.121   2.130 -0.4663 -1.7521 -1.6924
  259MOL0     H34932  10.225   3.036   2.281 -1.2347 -1.5278  0.2944
  259MOL0     H34933  10.395   2.890   2.155  0.4486  0.0505 -0.9743
  259MOL0     H34934  10.365   2.990   2.007 -3.5304  3.9040 -0.1315
  259MOL0     H34935  10.483   3.088   2.277 -1.8041  0.8613  0.1824
  259MOL0     H34936  10.429   3.192   2.137 -1.5500 -0.6610 -1.6910
  259MOL0     H34937  10.573   3.079   1.993  2.1488  0.1007 -0.7781
  259MOL0     H34938  10.618   2.958   2.111  1.2263  0.3802 -0.4335
  259MOL0     H34939  10.682   3.257   2.072  1.0553 -0.3462 -0.6816
  259MOL0     H34940  10.726   3.186   2.227  0.3382  1.5278 -1.0379
  259MOL0     H34941  10.816   3.069   1.964 -0.1672  1.2461 -1.0742
  259MOL0     H34942  10.866   3.020   2.129 -0.4196  0.8475  0.2757
  259MOL0     H34943  10.937   3.273   1.976  0.8669 -1.3248 -1.0050
  259MOL0     H34944  10.950   3.277   2.148 -4.0553 -1.2564  1.1440
  259MOL0     H34945   9.973   2.963   1.878  0.6089  2.5944  2.2534
  259MOL0     H34946   9.747   2.866   1.766 -0.9040 -0.3251 -0.1475
  259MOL0     H34947   9.218   3.090   1.841  0.4419  0.1949  0.6589
  259MOL0     H34948   9.014   3.022   1.747 -1.1614 -0.8851  1.8837
  259MOL0     H34949   7.451   3.406   1.452  0.3452 -0.1250 -1.0553
  259MOL0     H34950   7.293   3.430   1.273  0.8519  0.9532  0.5720
  259MOL0     H34951   6.919   3.431   1.126 -0.6335  2.5874 -2.5248
  259MOL0     H34952   6.732   3.499   0.997 -2.1300 -0.4700 -0.7927
  259MOL0     H34953   6.621   3.561   0.821  1.4031 -0.4242  0.2381
  259MOL0     H34954   6.492   3.473   0.919  1.5992 -1.6428  1.1184
  259MOL0     H34955   6.520   3.498   0.616 -0.9180 -3.5996 -1.6266
  259MOL0     H34956   6.413   3.596   0.709  2.0182  0.6326  1.9853
  259MOL0     H34957   6.402   3.296   0.671  2.1666  1.0672  0.8751
  259MOL0     H34958   6.297   3.405   0.588  0.6051 -0.9387 -1.2701
  259MOL0     H34959   6.305   3.338   0.892 -0.4082 -1.1709 -0.4607
  259MOL0     H34960   6.211   3.477   0.845 -2.7257 -0.6993  1.5369
  259MOL0     H34961   5.994   3.123   0.717 -0.1580 -0.5353 -1.7818
  259MOL0     H34962   6.751   3.139   0.773  1.8102 -1.7216  0.9013
  259MOL0     H34963   6.905   2.951   0.966 -0.3794  1.1275  0.1287
  259MOL0     H34964   6.893   2.990   0.789 -0.8957  2.8026 -0.2192
  259MOL0     H34965   7.046   2.992   0.881 -0.1477  2.0487  0.1081
  260MOL0     O34966  10.973   6.644   6.304  0.5080 -0.1245  0.4728
  260MOL0     C34967  10.963   6.665   6.181 -0.2466  0.0126 -0.6270
  260MOL0     O34968  11.067   6.707   6.098  0.5294 -0.2414  0.0163
  260MOL0     C34969  11.193   6.694   6.145 -0.0489  0.2895 -0.4040
  260MOL0     C34970  11.241   6.575   6.193 -0.9185 -0.1341  0.1765
  260MOL0     C34971  11.381   6.562   6.232  0.2307  0.1545 -0.0975
  260MOL0     C34972  11.458   6.668   6.244  0.2420 -0.2882 -0.1570
  260MOL0     O34973  11.569   6.643   6.315  0.3370 -0.7975 -0.9601
  260MOL0     C34974  11.656   6.751   6.352 -0.2005 -0.3582 -0.1148
  260MOL0     C34975  11.777   6.692   6.415 -0.4382  0.0674  0.2527
  260MOL0     C34976  11.878   6.798   6.452 -0.9884  0.4229  0.1966
  260MOL0     C34977  12.009   6.722   6.485 -0.6480 -0.6540  0.0873
  260MOL0     C34978  12.125   6.819   6.517 -0.3396  0.0671 -0.5528
  260MOL0     C34979  12.270   6.752   6.535  0.7934 -0.7756 -0.4976
  260MOL0     C34980  12.320   6.689   6.405 -0.1856  0.4510 -0.2732
  260MOL0     C34981  12.383   6.794   6.310  0.1431  0.4053 -0.4328
  260MOL0     N34982  12.520   6.847   6.356  0.6512 -0.0349  0.1542
  260MOL0     C34983  12.611   6.785   6.432 -0.6556 -0.0562  0.0737
  260MOL0     C34984  12.689   6.886   6.477  0.0849  0.4127 -0.6111
  260MOL0     C34985  12.795   6.867   6.588  0.1253  0.4711  0.5540
  260MOL0     C34986  12.923   6.953   6.595 -0.2406 -0.9893 -0.1092
  260MOL0     C34987  13.023   6.908   6.492 -0.0017 -0.2420 -0.3060
  260MOL0     C34988  13.153   6.993   6.479 -0.6899 -0.6407  0.0914
  260MOL0     O34989  13.230   6.974   6.606  0.1321  0.2980  0.2475
  260MOL0     C34990  13.359   7.014   6.614  0.6439 -0.0692  0.4460
  260MOL0     C34991  13.422   6.981   6.731  0.2716 -0.1064  0.1018
  260MOL0     C34992  13.563   6.998   6.746 -0.4231 -0.5574 -0.6332
  260MOL0     C34993  13.637   7.055   6.644 -0.2887 -0.2010  0.8566
  260MOL0     C34994  13.780   7.078   6.663 -0.1937  1.0319 -0.1867
  260MOL0     O34995  13.840   7.108   6.546 -0.0062  0.0323  0.0907
  260MOL0     C34996  13.970   7.153   6.549  0.7772 -0.3421 -0.1046
  260MOL0     C34997  14.007   7.281   6.605 -0.0905 -0.5577  0.1368
  260MOL0     C34998  14.143   7.328   6.602 -0.5298  0.4704 -0.3745
  260MOL0     C34999  14.235   7.245   6.526 -0.0905 -1.3147 -1.1065
  260MOL0     O35000  14.365   7.270   6.499 -0.3343 -0.1761  0.1700
  260MOL0     C35001  14.441   7.358   6.586  0.7710 -0.2090 -0.1422
  260MOL0     C35002  14.579   7.372   6.510 -0.6154  0.8023 -0.3424
  260MOL0     C35003  14.677   7.456   6.595  0.5070  0.4449  0.7530
  260MOL0     C35004  14.814   7.487   6.538 -0.5094  0.3494  0.2042
  260MOL0     C35005  14.875   7.615   6.584  0.6046  0.0294  0.1192
  260MOL0     C35006  14.899   7.603   6.734  0.1830 -0.5807  0.5536
  260MOL0     C35007  14.971   7.715   6.800 -0.1563 -0.5208 -0.6693
  260MOL0     C35008  15.019   7.676   6.942  0.8911 -0.2834  0.2968
  260MOL0    Cl35009  15.104   7.827   7.010 -0.3941  0.3119  0.4213
  260MOL0     C35010  14.192   7.122   6.478  0.1437  0.3778  0.2718
  260MOL0     C35011  14.059   7.076   6.482 -0.4964 -0.6778 -0.0876
  260MOL0     O35012  13.836   7.065   6.775  0.2247  0.5920  0.3640
  260MOL0     C35013  13.567   7.098   6.528  0.3317 -1.0836  0.3902
  260MOL0     C35014  13.431   7.079   6.515  0.3923 -0.2006  0.5601
  260MOL0     N35015  12.653   7.009   6.415  0.6668  0.3512 -0.0541
  260MOL0     N35016  12.540   6.981   6.351 -0.7642  0.1202 -0.1849
  260MOL0     C35017  11.406   6.796   6.211 -0.3808  0.2987 -1.4420
  260MOL0     C35018  11.274   6.803   6.159 -0.6821 -0.4868 -0.2435
  260MOL0     C35019  10.825   6.651   6.121 -0.5370 -0.8931  0.0994
  260MOL0     C35020  10.825   6.612   5.984  0.3659 -0.3626 -0.2853
  260MOL0     C35021  10.704   6.581   5.926  0.3148 -0.7469 -0.7439
  260MOL0     C35022  10.579   6.581   5.988 -0.0354 -0.4534 -0.4739
  260MOL0     O35023  10.463   6.553   5.922 -0.4137 -0.1978  0.0360
  260MOL0     C35024  10.455   6.612   5.788  1.1778  0.0377  0.2190
  260MOL0     C35025  10.313   6.591   5.731 -0.3089  0.2073 -0.3947
  260MOL0     C35026  10.210   6.632   5.838 -0.1419 -0.2773 -0.4841
  260MOL0     C35027  10.189   6.779   5.858  0.3794 -0.4797  0.5807
  260MOL0     C35028  10.087   6.794   5.968 -0.5523 -0.5503  0.0548
  260MOL0     C35029  10.013   6.820   6.055  0.3423 -0.9418 -0.2674
  260MOL0     C35030  10.586   6.627   6.124  0.0867  0.8065 -0.2827
  260MOL0     C35031  10.701   6.664   6.194 -0.6480 -0.5945 -0.6312
  260MOL0     C35032  10.694   6.714   6.322  0.0424 -0.0681  0.4218
  260MOL0     H35033  11.184   6.482   6.194 -0.0951 -0.6486  0.6920
  260MOL0     H35034  11.419   6.466   6.264 -1.4413  0.2726  2.4974
  260MOL0     H35035  11.687   6.828   6.281 -1.5583  3.7601  3.2531
  260MOL0     H35036  11.595   6.805   6.425  1.2180  1.8230 -0.4443
  260MOL0     H35037  11.824   6.614   6.354 -1.7884 -1.1704  0.7238
  260MOL0     H35038  11.740   6.651   6.510 -1.4258 -0.6447 -0.4211
  260MOL0     H35039  11.851   6.856   6.541  0.6734  0.8281  0.4601
  260MOL0     H35040  11.891   6.869   6.369  0.6311  1.4367  1.2652
  260MOL0     H35041  11.999   6.644   6.561  0.3579  0.3579  1.3157
  260MOL0     H35042  12.030   6.666   6.394 -2.5271 -0.6943 -0.3547
  260MOL0     H35043  12.135   6.892   6.436 -0.5948  0.4925 -0.2009
  260MOL0     H35044  12.097   6.876   6.606  1.5776  0.9328 -0.4517
  260MOL0     H35045  12.323   6.840   6.572  0.2352 -0.9278  0.7380
  260MOL0     H35046  12.259   6.672   6.610 -0.3679 -1.7868 -1.6922
  260MOL0     H35047  12.242   6.635   6.349 -2.1410  2.5889  0.2169
  260MOL0     H35048  12.394   6.611   6.424  0.5400  0.2598 -3.3263
  260MOL0     H35049  12.400   6.748   6.212  0.8109 -2.7619  1.0413
  260MOL0     H35050  12.314   6.879   6.298  0.2633  0.3041 -2.1263
  260MOL0     H35051  12.625   6.680   6.455  0.0922  0.2186  0.9672
  260MOL0     H35052  12.742   6.881   6.683 -0.4918  0.7211  0.1721
  260MOL0     H35053  12.825   6.762   6.599 -0.8175  0.2274  0.8854
  260MOL0     H35054  12.919   7.062   6.587  2.0673 -0.9674 -2.3967
  260MOL0     H35055  12.964   6.933   6.694 -0.4318  1.2219  0.4612
  260MOL0     H35056  12.978   6.893   6.394 -2.2850  1.1107  0.4561
  260MOL0     H35057  13.052   6.808   6.526 -1.4458  0.2146  2.5582
  260MOL0     H35058  13.132   7.098   6.459  1.5869  0.2722  1.9689
  260MOL0     H35059  13.215   6.950   6.400  0.7441  2.8679 -0.8840
  260MOL0     H35060  13.363   6.940   6.813  1.5855 -0.6679  0.7992
  260MOL0     H35061  13.620   6.960   6.830  1.1268  0.2734 -1.2715
  260MOL0     H35062  13.942   7.344   6.664 -1.6395 -3.3071  1.5582
  260MOL0     H35063  14.166   7.419   6.657  0.9361 -0.1617  0.0873
  260MOL0     H35064  14.388   7.453   6.600 -0.6784 -1.3781  3.2290
  260MOL0     H35065  14.464   7.320   6.685  0.5599  1.9051  0.7686
  260MOL0     H35066  14.623   7.274   6.489  2.1257  1.9062 -0.1761
  260MOL0     H35067  14.559   7.420   6.414  1.3801  0.9480 -0.7307
  260MOL0     H35068  14.619   7.546   6.619 -1.6316  0.4012 -3.2604
  260MOL0     H35069  14.687   7.406   6.692 -0.3653 -0.8596  0.2101
  260MOL0     H35070  14.806   7.500   6.430  0.7194 -0.8926 -0.0606
  260MOL0     H35071  14.896   7.416   6.550 -0.1117  0.3807 -1.9737
  260MOL0     H35072  14.795   7.689   6.590 -0.6256 -1.3858  4.3584
  260MOL0     H35073  14.967   7.635   6.529 -0.0683  1.9890 -0.3738
  260MOL0     H35074  14.805   7.610   6.788 -0.5811 -1.9889 -0.5189
  260MOL0     H35075  14.955   7.510   6.749  1.0722 -0.2201 -0.4153
  260MOL0     H35076  14.898   7.795   6.815  1.1145  0.5225  0.1655
  260MOL0     H35077  15.064   7.742   6.750  1.1186 -3.2393  0.0495
  260MOL0     H35078  14.929   7.657   7.001 -0.5163  2.8629 -0.6147
  260MOL0     H35079  15.081   7.588   6.922  1.1465  0.2309 -1.4220
  260MOL0     H35080  14.268   7.061   6.428 -1.0403  0.0228 -1.1814
  260MOL0     H35081  14.015   6.989   6.434 -1.6251  0.1724 -0.6469
  260MOL0     H35082  13.622   7.157   6.457  2.3246 -2.6810  0.5259
  260MOL0     H35083  13.392   7.104   6.417 -1.9386 -0.0505  1.4636
  260MOL0     H35084  11.459   6.889   6.221 -0.5399  0.2856 -0.2098
  260MOL0     H35085  11.240   6.905   6.152  0.7072 -0.0785 -1.9733
  260MOL0     H35086  10.913   6.603   5.921 -0.7389 -1.6937 -1.7286
  260MOL0     H35087  10.721   6.572   5.819 -2.2194 -0.0182 -1.2787
  260MOL0     H35088  10.534   6.582   5.720  0.2291  3.6316 -2.8088
  260MOL0     H35089  10.463   6.719   5.809 -1.3322  0.0469  1.6928
  260MOL0     H35090  10.300   6.483   5.717  0.7172  0.0889 -0.4911
  260MOL0     H35091  10.310   6.649   5.638  0.5957 -1.0106 -1.2259
  260MOL0     H35092  10.217   6.575   5.931  1.2455 -1.6743 -1.3858
  260MOL0     H35093  10.114   6.605   5.793  0.3324 -1.4110 -0.8573
  260MOL0     H35094  10.283   6.828   5.884  0.7664 -0.2101 -1.2174
  260MOL0     H35095  10.153   6.825   5.765  0.4067 -1.9788 -0.2073
  260MOL0     H35096   9.937   6.847   6.125 -1.1400 -0.8595 -1.8445
  260MOL0     H35097  10.503   6.616   6.193 -0.4543 -1.3734 -1.2078
  260MOL0     H35098  10.725   6.632   6.387  4.0434  0.9039 -0.0073
  260MOL0     H35099  10.754   6.798   6.358 -1.1147  0.3220  1.5242
  260MOL0     H35100  10.591   6.742   6.347  0.3455  1.9471 -0.4246
  261MOL0     O35101   2.745   7.685   5.355  0.8603  0.4703 -0.2363
  261MOL0     C35102   2.692   7.740   5.450 -0.0965 -0.3587 -0.1348
  261MOL0     O35103   2.744   7.832   5.532  0.2297  0.1043  0.1346
  261MOL0     C35104   2.882   7.863   5.528  0.0806 -0.4274 -0.3257
  261MOL0     C35105   2.906   7.988   5.583 -0.9605  0.0703  0.1008
  261MOL0     C35106   3.033   8.048   5.572  0.2148  0.5559 -0.7131
  261MOL0     C35107   3.136   7.979   5.512  0.3508  0.7472 -0.6660
  261MOL0     O35108   3.260   8.023   5.486  0.3048  0.3167  0.1364
  261MOL0     C35109   3.315   8.117   5.572  0.2271 -0.4820 -0.1772
  261MOL0     C35110   3.297   8.270   5.524  1.1371  0.9068 -0.0586
  261MOL0     C35111   3.359   8.373   5.629 -0.6265  0.2630  0.9392
  261MOL0     C35112   3.494   8.397   5.579  0.2558 -0.5543 -0.4952
  261MOL0     C35113   3.579   8.484   5.681 -0.3746  0.8055  0.2736
  261MOL0     C35114   3.722   8.508   5.622 -0.4743 -0.0031 -0.1500
  261MOL0     C35115   3.830   8.535   5.733 -0.1655  0.4184 -0.3771
  261MOL0     C35116   3.810   8.663   5.822  0.1864 -0.2033  0.9972
  261MOL0     N35117   3.939   8.695   5.895  0.0525 -0.8108  0.1646
  261MOL0     C35118   4.065   8.644   5.878 -0.5219  0.7955  0.6615
  261MOL0     C35119   4.158   8.709   5.948 -0.4991 -0.5242  1.0447
  261MOL0     C35120   4.306   8.669   5.944 -0.5105  0.2985 -0.0502
  261MOL0     C35121   4.379   8.796   5.960 -0.5149 -0.2590 -0.4229
  261MOL0     C35122   4.528   8.780   5.932 -0.2737 -0.6917 -0.2085
  261MOL0     C35123   4.603   8.919   5.938  1.4573 -0.1282  0.3202
  261MOL0     O35124   4.734   8.894   5.904 -0.3998 -0.0138  0.3303
  261MOL0     C35125   4.830   8.983   5.943  0.0867  0.0804 -0.5990
  261MOL0     C35126   4.955   8.921   5.974  0.6356 -0.3474 -0.4452
  261MOL0     C35127   5.060   9.006   6.011  0.0645 -0.5013  0.7080
  261MOL0     C35128   5.050   9.155   5.998 -0.0183  0.6595 -0.3297
  261MOL0     C35129   5.167   9.247   6.027 -0.1692 -0.8070 -0.0544
  261MOL0     O35130   5.287   9.187   6.052 -0.2120  0.2190 -0.4860
  261MOL0     C35131   5.402   9.259   6.088 -0.3648 -0.9724  1.3848
  261MOL0     C35132   5.416   9.342   6.204  0.8425 -0.2302  0.3937
  261MOL0     C35133   5.528   9.420   6.219 -0.0187  0.4023 -0.4157
  261MOL0     C35134   5.643   9.407   6.135 -0.3463  0.0291 -0.0723
  261MOL0     O35135   5.756   9.484   6.163  0.0274 -0.0856 -0.1275
  261MOL0     C35136   5.880   9.417   6.169  0.8757  0.1670  0.3181
  261MOL0     C35137   5.992   9.502   6.124  0.9527 -0.0440  0.8520
  261MOL0     C35138   6.133   9.468   6.166  0.3146  0.1711 -0.4896
  261MOL0     C35139   6.156   9.522   6.310 -0.3898  1.2719 -0.4525
  261MOL0     C35140   6.290   9.469   6.365  0.5272 -0.0141 -0.1140
  261MOL0     C35141   6.418   9.523   6.300 -0.6707  0.6114 -0.4347
  261MOL0     C35142   6.538   9.504   6.392 -0.5623 -0.6794  1.0013
  261MOL0     C35143   6.668   9.552   6.321 -0.2874  0.2624  0.4868
  261MOL0    Cl35144   6.664   9.729   6.274 -0.1337 -0.7980 -0.2553
  261MOL0     C35145   5.641   9.318   6.031  0.1417 -0.2254 -0.5178
  261MOL0     C35146   5.521   9.243   6.011 -0.0013  0.3403 -0.1451
  261MOL0     O35147   5.147   9.370   6.034 -0.0456 -0.1891 -0.4014
  261MOL0     C35148   4.925   9.207   5.962  1.1214  0.2830  0.0889
  261MOL0     C35149   4.814   9.124   5.934  0.5040 -0.5028  0.2135
  261MOL0     N35150   4.089   8.802   6.023 -0.3657  0.9186  0.3393
  261MOL0     N35151   3.960   8.788   5.995 -0.0035 -0.5947  0.0738
  261MOL0     C35152   3.120   7.851   5.468  0.2007  0.4335 -0.0804
  261MOL0     C35153   2.987   7.791   5.471 -0.2071 -0.2970  0.1692
  261MOL0     C35154   2.549   7.720   5.456  0.9888  0.0641  0.7085
  261MOL0     C35155   2.468   7.827   5.498  0.3986 -0.3202  0.4992
  261MOL0     C35156   2.328   7.810   5.497 -0.2703 -0.6414 -0.1486
  261MOL0     C35157   2.268   7.689   5.489  0.1456 -0.7665  1.3245
  261MOL0     O35158   2.132   7.673   5.488 -0.4768 -0.5903  0.2257
  261MOL0     C35159   2.081   7.687   5.350 -0.1193  0.1923  0.2334
  261MOL0     C35160   1.957   7.601   5.339  0.5984  0.3223 -0.3864
  261MOL0     C35161   1.822   7.663   5.389 -0.0932 -0.0457  0.7184
  261MOL0     C35162   1.792   7.676   5.541  0.2228  0.3291  0.0105
  261MOL0     C35163   1.651   7.716   5.574 -0.4918 -0.1605 -1.0967
  261MOL0     C35164   1.528   7.737   5.587 -1.0193  0.5189 -0.7429
  261MOL0     C35165   2.348   7.579   5.471  0.1733  0.0055 -0.1507
  261MOL0     C35166   2.484   7.594   5.448 -0.0944 -0.3143  0.1649
  261MOL0     C35167   2.562   7.469   5.456 -0.2741 -0.2054  0.1185
  261MOL0     H35168   2.829   8.049   5.627  0.4866  3.0452 -1.2053
  261MOL0     H35169   3.052   8.152   5.593 -1.6468  0.5778  1.0884
  261MOL0     H35170   3.273   8.107   5.672  0.8572 -0.2083  0.1226
  261MOL0     H35171   3.420   8.093   5.592  0.0339  0.6858  2.7122
  261MOL0     H35172   3.193   8.299   5.502  1.1703  0.5114 -0.7539
  261MOL0     H35173   3.341   8.276   5.424  0.4693  1.2712 -0.3407
  261MOL0     H35174   3.369   8.331   5.729  0.7573  0.2970  0.8424
  261MOL0     H35175   3.287   8.455   5.637  0.3126  2.0004 -4.3290
  261MOL0     H35176   3.548   8.302   5.569  3.0201  1.0651 -2.4152
  261MOL0     H35177   3.485   8.436   5.478  0.1414 -2.9016 -1.4583
  261MOL0     H35178   3.522   8.569   5.719 -0.2750  0.8792  0.2600
  261MOL0     H35179   3.591   8.423   5.771 -2.5213  1.1245  0.8377
  261MOL0     H35180   3.758   8.412   5.584  0.7390 -0.4943  2.0559
  261MOL0     H35181   3.726   8.582   5.541  0.9916  0.8825  0.6768
  261MOL0     H35182   3.926   8.529   5.681 -0.6457  0.4407 -1.2936
  261MOL0     H35183   3.831   8.456   5.808  2.3782  0.9838  0.2605
  261MOL0     H35184   3.781   8.750   5.763 -1.8583 -0.2229  1.8840
  261MOL0     H35185   3.737   8.652   5.904 -0.6787 -0.7386  0.1749
  261MOL0     H35186   4.090   8.563   5.809 -2.7945  0.9267 -0.4133
  261MOL0     H35187   4.331   8.598   6.024  0.5665 -0.5327 -1.0837
  261MOL0     H35188   4.325   8.619   5.849 -1.1117 -1.1359  0.5603
  261MOL0     H35189   4.329   8.871   5.897 -2.0014 -2.5850 -2.2241
  261MOL0     H35190   4.369   8.838   6.060 -2.4174 -0.2865 -0.5514
  261MOL0     H35191   4.537   8.739   5.831  2.4004 -2.4324  0.6085
  261MOL0     H35192   4.568   8.707   6.003  1.2675 -0.2023 -0.5434
  261MOL0     H35193   4.602   8.963   6.038  0.2745  0.3906  0.0986
  261MOL0     H35194   4.559   8.991   5.869  2.2143 -0.2085 -0.2608
  261MOL0     H35195   4.963   8.813   5.963  0.8288 -0.4355  0.4848
  261MOL0     H35196   5.155   8.962   6.041  0.6308  0.9052  1.0663
  261MOL0     H35197   5.334   9.333   6.275  1.6891 -0.8380  1.3252
  261MOL0     H35198   5.530   9.484   6.306 -0.6099  2.5350 -1.8706
  261MOL0     H35199   5.900   9.371   6.266 -1.7070 -3.5979 -0.7132
  261MOL0     H35200   5.879   9.333   6.098  1.8709  0.0576  0.4150
  261MOL0     H35201   5.985   9.487   6.016 -2.8150 -0.5286  1.0141
  261MOL0     H35202   5.966   9.603   6.159  0.4322 -0.6861  2.3889
  261MOL0     H35203   6.135   9.359   6.165 -2.7705  0.0021  0.9550
  261MOL0     H35204   6.206   9.508   6.094  2.3443 -1.7799  0.3548
  261MOL0     H35205   6.089   9.484   6.389 -0.7377  1.0663 -0.8437
  261MOL0     H35206   6.154   9.631   6.320  1.1039  1.3782 -1.0669
  261MOL0     H35207   6.287   9.360   6.359 -1.7736 -0.6955  5.9798
  261MOL0     H35208   6.287   9.507   6.468 -0.0005  0.3624 -0.2640
  261MOL0     H35209   6.442   9.469   6.208 -1.6972  1.0436 -0.9703
  261MOL0     H35210   6.401   9.627   6.270 -1.5948  0.8695  0.8904
  261MOL0     H35211   6.547   9.396   6.407 -0.2398 -0.5683  1.6250
  261MOL0     H35212   6.530   9.570   6.479  0.1472 -1.3558  1.5916
  261MOL0     H35213   6.752   9.541   6.390 -0.7121 -1.7269  0.7426
  261MOL0     H35214   6.688   9.488   6.235  0.7035 -1.0059  1.6154
  261MOL0     H35215   5.728   9.313   5.967  1.3750 -2.3256  1.1892
  261MOL0     H35216   5.524   9.172   5.929  0.3571 -1.1723  1.1369
  261MOL0     H35217   4.932   9.314   5.946  2.0292  0.1760 -0.2500
  261MOL0     H35218   4.724   9.176   5.900  0.8315 -0.1912 -0.2035
  261MOL0     H35219   3.197   7.788   5.424 -0.9153 -0.1453 -1.3057
  261MOL0     H35220   2.977   7.693   5.426 -0.0181 -0.2001 -0.0899
  261MOL0     H35221   2.524   7.920   5.506  0.8089 -0.1295 -3.0475
  261MOL0     H35222   2.262   7.895   5.509  1.2483  0.3583  1.5633
  261MOL0     H35223   2.155   7.659   5.275 -0.6950 -1.3303  0.2147
  261MOL0     H35224   2.048   7.788   5.322  1.0447  1.3954  2.8162
  261MOL0     H35225   1.972   7.509   5.397 -1.8960 -0.7657 -1.3186
  261MOL0     H35226   1.946   7.575   5.234  0.6099 -0.0707 -0.2922
  261MOL0     H35227   1.742   7.600   5.349  0.1393 -0.6134  1.1310
  261MOL0     H35228   1.797   7.760   5.345 -2.7880 -0.9453  0.0689
  261MOL0     H35229   1.822   7.587   5.598 -0.2963 -0.0638 -0.3189
  261MOL0     H35230   1.855   7.757   5.578  1.2483  0.0574 -1.0573
  261MOL0     H35231   1.424   7.754   5.606 -1.0756  0.4631 -0.9946
  261MOL0     H35232   2.308   7.478   5.470  0.0706  0.0018 -2.5846
  261MOL0     H35233   2.629   7.465   5.542  0.4529 -0.0889 -0.4312
  261MOL0     H35234   2.497   7.382   5.451 -1.6353  0.7967 -0.2013
  261MOL0     H35235   2.633   7.458   5.373  0.8179  1.1811  0.8150
  262MOL0     O35236   5.155   4.865  10.871 -0.1767  0.0901  0.2355
  262MOL0     C35237   5.094   4.868  10.977 -0.5221 -0.1884 -0.5224
  262MOL0     O35238   5.153   4.918  11.096  1.3155  0.2820  0.7704
  262MOL0     C35239   5.273   4.970  11.082 -0.2745  0.6096  1.1056
  262MOL0     C35240   5.388   4.894  11.094 -0.0488  0.4220 -0.6948
  262MOL0     C35241   5.513   4.946  11.051  1.0311  0.8649  0.5880
  262MOL0     C35242   5.527   5.078  11.003 -0.1329  0.1697  0.2465
  262MOL0     O35243   5.644   5.133  10.954 -0.2378 -0.2802  0.0044
  262MOL0     C35244   5.746   5.128  11.052 -0.2597 -0.0647 -0.1340
  262MOL0     C35245   5.883   5.169  10.999 -0.1961  0.5555  0.6109
  262MOL0     C35246   5.926   5.069  10.885  0.3593  0.4345 -0.7278
  262MOL0     C35247   6.068   5.102  10.838 -0.0104 -0.2742  0.1305
  262MOL0     C35248   6.120   4.996  10.730 -0.4897  0.5580 -0.2457
  262MOL0     C35249   6.161   4.856  10.782  0.7749  0.5379 -0.0979
  262MOL0     C35250   6.263   4.857  10.887 -0.0343  0.1299 -0.1928
  262MOL0     C35251   6.387   4.938  10.848  0.0459 -0.1188  0.1357
  262MOL0     N35252   6.491   4.931  10.948 -0.3636  0.7084  0.8345
  262MOL0     C35253   6.483   4.998  11.069  0.2106 -0.2645 -0.3750
  262MOL0     C35254   6.606   4.987  11.114 -0.2143  0.2239  0.2738
  262MOL0     C35255   6.666   5.071  11.230 -0.3785 -0.3703  1.4808
  262MOL0     C35256   6.728   5.191  11.173  0.3071  1.2844  0.4052
  262MOL0     C35257   6.779   5.279  11.287  0.2831 -0.4245  0.1825
  262MOL0     C35258   6.808   5.416  11.230 -0.2580  0.7354 -0.3682
  262MOL0     O35259   6.881   5.417  11.107  0.6170 -0.7942 -0.4186
  262MOL0     C35260   7.019   5.423  11.113  0.1679 -0.3659  0.3236
  262MOL0     C35261   7.098   5.401  11.226  0.8540 -0.4275 -0.1498
  262MOL0     C35262   7.237   5.408  11.217  0.2533  0.5776  0.0474
  262MOL0     C35263   7.300   5.430  11.095  0.3855 -0.0525 -1.1104
  262MOL0     C35264   7.449   5.435  11.101 -0.6275 -0.3538  1.0753
  262MOL0     O35265   7.506   5.433  10.974  0.0295  0.1873 -0.3932
  262MOL0     C35266   7.642   5.468  10.960 -0.5833  0.4691  0.7126
  262MOL0     C35267   7.670   5.562  10.859 -0.9310 -0.3386 -0.2114
  262MOL0     C35268   7.809   5.610  10.846  0.1586  0.9252 -0.1715
  262MOL0     C35269   7.915   5.562  10.930  0.1213 -0.5546 -0.1660
  262MOL0     O35270   8.042   5.605  10.921  0.2640 -0.7624  0.6656
  262MOL0     C35271   8.125   5.564  10.817  0.2628 -0.4422 -0.2617
  262MOL0     C35272   8.272   5.604  10.849 -0.1489 -0.7584 -0.4871
  262MOL0     C35273   8.287   5.751  10.891  0.1741  0.7216  0.5525
  262MOL0     C35274   8.432   5.791  10.884  0.2710 -0.1391 -0.2595
  262MOL0     C35275   8.449   5.939  10.913 -0.2481  0.7304 -0.3604
  262MOL0     C35276   8.603   5.949  10.919  0.4701  0.5804  0.0386
  262MOL0     C35277   8.663   6.097  10.893 -0.0552  0.5626  0.1203
  262MOL0     C35278   8.812   6.086  10.864 -0.0228 -0.1873  0.3605
  262MOL0    Cl35279   8.878   6.247  10.920 -0.5759  0.3245 -0.4429
  262MOL0     C35280   7.881   5.470  11.032 -0.2732  0.5124  0.8249
  262MOL0     C35281   7.747   5.415  11.049  0.3935  0.4034 -0.5164
  262MOL0     O35282   7.510   5.447  11.206  0.1448  0.0189 -0.6564
  262MOL0     C35283   7.223   5.452  10.980  0.9673  0.2423 -0.1685
  262MOL0     C35284   7.079   5.444  10.991  0.1448  0.2166 -0.3139
  262MOL0     N35285   6.681   4.913  11.025  1.0134  0.4494 -1.1712
  262MOL0     N35286   6.608   4.879  10.923  0.6050  0.0111  0.9092
  262MOL0     C35287   5.407   5.147  11.002 -0.2322  0.0844  0.1166
  262MOL0     C35288   5.284   5.099  11.034  0.0995 -0.4262  0.0033
  262MOL0     C35289   4.965   4.810  10.992 -0.3949 -0.2080 -0.1041
  262MOL0     C35290   4.858   4.876  10.936  0.2010  0.1512  0.0912
  262MOL0     C35291   4.736   4.826  10.953  0.6546 -0.3263  0.2852
  262MOL0     C35292   4.708   4.718  11.030 -0.7762 -0.5067 -0.0814
  262MOL0     O35293   4.576   4.695  11.053  0.2974 -0.1158 -0.2534
  262MOL0     C35294   4.542   4.592  11.146  1.0965  0.9539  0.6371
  262MOL0     C35295   4.388   4.560  11.145 -0.2769 -0.2620 -0.1599
  262MOL0     C35296   4.315   4.588  11.013  0.0759  0.5472 -0.8719
  262MOL0     C35297   4.164   4.615  11.033 -0.4834  0.6826  0.5354
  262MOL0     C35298   4.101   4.497  11.087  0.4552  0.3047 -0.1844
  262MOL0     C35299   4.061   4.394  11.122  0.2265  0.2872  0.4766
  262MOL0     C35300   4.814   4.650  11.093 -0.5305  0.2954 -0.0712
  262MOL0     C35301   4.947   4.697  11.079  0.4595  0.2286  0.5321
  262MOL0     C35302   5.063   4.625  11.144 -0.7683 -0.0144 -0.4466
  262MOL0     H35303   5.387   4.788  11.116  1.6102 -0.0551 -2.6054
  262MOL0     H35304   5.599   4.879  11.045 -0.2028 -0.6501 -2.1315
  262MOL0     H35305   5.725   5.196  11.136  2.2278 -0.1627  0.6611
  262MOL0     H35306   5.766   5.027  11.090  2.0789  0.0781 -0.8049
  262MOL0     H35307   5.959   5.174  11.078 -0.9331 -0.0284  1.3788
  262MOL0     H35308   5.873   5.272  10.962  1.8224  0.9485  1.0052
  262MOL0     H35309   5.852   5.071  10.804 -1.3757  1.1194  0.7938
  262MOL0     H35310   5.923   4.968  10.926 -3.3928  0.3504 -0.8624
  262MOL0     H35311   6.079   5.190  10.774  0.6376 -1.7901 -1.9512
  262MOL0     H35312   6.133   5.113  10.926 -0.3548  1.4036  0.2163
  262MOL0     H35313   6.037   4.985  10.660 -1.3422  1.7797  0.5234
  262MOL0     H35314   6.201   5.042  10.674 -0.5057  2.1700  0.9578
  262MOL0     H35315   6.074   4.805  10.823  0.7183  1.4051  0.8966
  262MOL0     H35316   6.177   4.795  10.692 -1.4923 -0.9542  0.4349
  262MOL0     H35317   6.295   4.754  10.905 -0.0729  0.4001  1.5101
  262MOL0     H35318   6.223   4.901  10.978 -0.9483  0.3463 -0.6809
  262MOL0     H35319   6.425   4.911  10.749  1.7359  1.9445  0.1539
  262MOL0     H35320   6.361   5.044  10.844  1.1864  0.1371 -1.6068
  262MOL0     H35321   6.398   5.058  11.100  0.6077  0.3155 -0.3767
  262MOL0     H35322   6.583   5.086  11.299 -0.2853 -2.2275  2.0469
  262MOL0     H35323   6.738   5.006  11.280  0.3875 -2.5739 -2.0838
  262MOL0     H35324   6.808   5.164  11.103 -1.1325 -0.6363 -0.6100
  262MOL0     H35325   6.647   5.233  11.113 -0.1070 -1.1516 -0.8603
  262MOL0     H35326   6.876   5.238  11.319  1.3506  0.7510 -1.3755
  262MOL0     H35327   6.709   5.288  11.370 -0.0287 -0.6732 -0.0522
  262MOL0     H35328   6.851   5.482  11.307  2.1879 -2.9750  1.7291
  262MOL0     H35329   6.711   5.457  11.200 -0.3282 -0.3067 -1.6024
  262MOL0     H35330   7.053   5.388  11.323 -1.7608 -1.4687 -1.3961
  262MOL0     H35331   7.285   5.404  11.314  2.7696  0.1166 -1.1490
  262MOL0     H35332   7.594   5.617  10.803  1.4002  2.9390 -0.4144
  262MOL0     H35333   7.835   5.678  10.766  0.3892 -1.8057 -2.5663
  262MOL0     H35334   8.120   5.456  10.797 -0.2477 -1.2480  3.5333
  262MOL0     H35335   8.081   5.618  10.733 -0.0937  0.5495  0.5474
  262MOL0     H35336   8.317   5.538  10.924  1.7558 -0.0111 -0.9110
  262MOL0     H35337   8.318   5.595  10.750 -1.1719 -2.3487 -0.8614
  262MOL0     H35338   8.230   5.820  10.828 -2.6073 -1.0663  0.9112
  262MOL0     H35339   8.248   5.763  10.992  0.5387  0.2424  0.7537
  262MOL0     H35340   8.469   5.760  10.785  1.6924 -2.3362  0.8797
  262MOL0     H35341   8.493   5.730  10.951 -0.4058 -0.7943 -0.2355
  262MOL0     H35342   8.406   5.977  11.006 -0.0359  1.9690 -0.7430
  262MOL0     H35343   8.406   5.994  10.829 -1.6464 -2.8022 -2.1517
  262MOL0     H35344   8.631   5.914  11.018  1.0465  2.3683  0.5439
  262MOL0     H35345   8.646   5.881  10.845 -0.7477 -1.6821  1.2931
  262MOL0     H35346   8.644   6.150  10.987  0.4430 -3.5537  2.8607
  262MOL0     H35347   8.601   6.148  10.819 -2.1956 -1.4352  0.3778
  262MOL0     H35348   8.841   5.997  10.920 -0.0300 -0.7499 -0.4970
  262MOL0     H35349   8.837   6.070  10.759 -0.5635  0.8629  0.0514
  262MOL0     H35350   7.957   5.430  11.099  0.1167  0.1338  0.1707
  262MOL0     H35351   7.729   5.347  11.131  0.5571  2.7699  1.5948
  262MOL0     H35352   7.266   5.479  10.885 -2.7563  1.9563 -1.5719
  262MOL0     H35353   7.020   5.449  10.901  2.0347 -0.5976 -1.6574
  262MOL0     H35354   5.414   5.245  10.957 -2.0445 -1.7484 -4.8421
  262MOL0     H35355   5.198   5.162  11.013 -1.6336 -2.0274  1.7922
  262MOL0     H35356   4.876   4.970  10.883  5.1921  0.2139  1.3909
  262MOL0     H35357   4.658   4.884  10.905  1.8771  1.7591  0.6819
  262MOL0     H35358   4.574   4.625  11.245  1.4735 -0.5914  1.0566
  262MOL0     H35359   4.600   4.503  11.119  0.9672  1.3100 -0.9457
  262MOL0     H35360   4.334   4.611  11.225 -0.1183  1.5940 -1.1782
  262MOL0     H35361   4.385   4.452  11.158  1.0114 -0.4774 -1.4217
  262MOL0     H35362   4.329   4.508  10.939 -5.1490  0.0620 -1.6720
  262MOL0     H35363   4.348   4.679  10.962  2.7971 -0.3485 -0.9072
  262MOL0     H35364   4.160   4.704  11.096  4.0018  1.0255  0.7074
  262MOL0     H35365   4.124   4.643  10.936 -0.3998 -1.1456 -0.0777
  262MOL0     H35366   4.033   4.293  11.144  3.5880 -1.0102 -0.6298
  262MOL0     H35367   4.795   4.566  11.160 -0.9616  0.8849  0.5574
  262MOL0     H35368   5.142   4.604  11.071  0.3881  4.0458 -0.6384
  262MOL0     H35369   5.104   4.703  11.210  3.8495 -1.4335 -1.2869
  262MOL0     H35370   5.035   4.541  11.208  1.5259  0.5610  1.4737
  263MOL0     O35371   1.862   8.605   0.292 -0.6584 -0.4401 -0.6440
  263MOL0     C35372   1.794   8.531   0.232  0.4587 -0.1238  0.9074
  263MOL0     O35373   1.836   8.456   0.136  1.1205  1.0748  0.3364
  263MOL0     C35374   1.955   8.485   0.079  0.1544 -1.1422 -0.2089
  263MOL0     C35375   2.038   8.378   0.047 -0.5521 -0.1903  0.5527
  263MOL0     C35376   2.170   8.389   0.007 -0.2613  0.4910  0.0549
  263MOL0     C35377   2.230   8.517   0.002  0.5652  1.0310  0.5140
  263MOL0     O35378   2.364   8.538  -0.017 -0.0715  0.1222 -0.0736
  263MOL0     C35379   2.424   8.635   0.075  0.2511  0.0356  0.1726
  263MOL0     C35380   2.572   8.607   0.087 -0.3834  0.0551 -0.3425
  263MOL0     C35381   2.645   8.546  -0.034 -0.0824 -0.6734 -0.0784
  263MOL0     C35382   2.639   8.634  -0.161  0.8454  0.2230 -0.2027
  263MOL0     C35383   2.691   8.568  -0.293  0.4587  0.2621  0.4914
  263MOL0     C35384   2.832   8.513  -0.273  0.4190 -0.4812 -0.5075
  263MOL0     C35385   2.927   8.623  -0.217  0.3687  0.2351 -0.1046
  263MOL0     C35386   2.952   8.735  -0.325 -0.3028  0.2074 -0.0669
  263MOL0     N35387   3.079   8.803  -0.290  0.2303  0.3927 -0.5538
  263MOL0     C35388   3.196   8.769  -0.350 -0.3621 -0.0202 -0.3222
  263MOL0     C35389   3.285   8.862  -0.307  0.2095 -0.4392  0.5888
  263MOL0     C35390   3.442   8.869  -0.325  0.8236  0.0166 -0.8749
  263MOL0     C35391   3.491   9.010  -0.326 -0.5194 -0.1814 -0.7370
  263MOL0     C35392   3.621   9.006  -0.405  0.0004  0.1279 -1.3431
  263MOL0     C35393   3.653   9.155  -0.414 -0.2810 -0.3874  0.4748
  263MOL0     O35394   3.770   9.173  -0.491 -0.1572 -0.3391 -0.4300
  263MOL0     C35395   3.895   9.186  -0.436 -0.5725  0.1132  0.4219
  263MOL0     C35396   3.999   9.180  -0.525 -0.5197 -1.3020 -0.8579
  263MOL0     C35397   4.130   9.159  -0.485  0.0646 -0.8097 -0.5801
  263MOL0     C35398   4.163   9.167  -0.343 -0.1833  0.0372 -0.0879
  263MOL0     C35399   4.298   9.156  -0.287 -0.6872 -0.7669 -0.1634
  263MOL0     O35400   4.317   9.130  -0.164 -0.5852 -0.0944  0.4355
  263MOL0     C35401   4.447   9.109  -0.115  0.0180 -0.1786 -0.6022
  263MOL0     C35402   4.512   9.203  -0.039 -0.4814 -0.0458 -0.4788
  263MOL0     C35403   4.652   9.187  -0.007 -0.5514  0.7799  0.0246
  263MOL0     C35404   4.721   9.068  -0.042  0.6533  0.5099 -0.3480
  263MOL0     O35405   4.848   9.049   0.002 -0.2541 -0.0189  0.4828
  263MOL0     C35406   4.895   8.916  -0.014  0.5348  0.1264 -0.3385
  263MOL0     C35407   5.040   8.915   0.042  0.2367  0.6981  0.1010
  263MOL0     C35408   5.132   8.977  -0.064 -0.1520 -0.1262 -0.5331
  263MOL0     C35409   5.209   8.885  -0.157  0.9199  0.8280  0.3278
  263MOL0     C35410   5.269   8.952  -0.280  0.1346  0.0761 -0.6064
  263MOL0     C35411   5.348   9.075  -0.235  0.6913 -0.0624  0.0557
  263MOL0     C35412   5.449   9.129  -0.328 -0.2234 -0.0957  0.6066
  263MOL0     C35413   5.528   9.247  -0.276  0.4269  0.1416 -0.4029
  263MOL0    Cl35414   5.660   9.279  -0.396 -0.2782 -0.2114  0.1560
  263MOL0     C35415   4.645   8.968  -0.116  0.5187 -0.8415 -0.1612
  263MOL0     C35416   4.511   8.993  -0.144  0.9117  0.4204  0.1617
  263MOL0     O35417   4.388   9.172  -0.365  1.1846  0.8120 -0.7475
  263MOL0     C35418   4.054   9.190  -0.256 -0.2111 -0.4220 -0.0752
  263MOL0     C35419   3.921   9.193  -0.300  0.2392 -0.2611 -0.3264
  263MOL0     N35420   3.218   8.949  -0.219 -0.8879  0.2741 -0.0539
  263MOL0     N35421   3.095   8.920  -0.219 -0.2036 -0.0378  0.7649
  263MOL0     C35422   2.137   8.625  -0.005 -0.1906 -0.2456 -0.1986
  263MOL0     C35423   2.004   8.612   0.039 -0.0715 -0.5971 -0.9864
  263MOL0     C35424   1.642   8.534   0.253  0.2972 -0.2678 -0.0491
  263MOL0     C35425   1.560   8.477   0.150 -0.7514  0.1863  0.4442
  263MOL0     C35426   1.425   8.466   0.169 -0.3316  0.5456  0.0993
  263MOL0     C35427   1.358   8.516   0.280  0.2951  0.4912  0.2504
  263MOL0     O35428   1.223   8.504   0.306  0.5145 -0.5182 -0.2942
  263MOL0     C35429   1.153   8.414   0.219  0.9100  0.4282 -0.0581
  263MOL0     C35430   1.024   8.366   0.278 -0.7592 -0.7269  0.1023
  263MOL0     C35431   1.039   8.323   0.427  0.1192  0.1955  0.2359
  263MOL0     C35432   1.134   8.208   0.451  0.0637 -0.0436 -0.2233
  263MOL0     C35433   1.086   8.089   0.379 -0.1964 -0.2048  0.1818
  263MOL0     C35434   1.047   7.998   0.313  0.3635 -0.0304  0.5390
  263MOL0     C35435   1.434   8.576   0.377 -0.3809 -0.5359 -0.3010
  263MOL0     C35436   1.571   8.597   0.354  0.0737  0.5286 -0.4234
  263MOL0     C35437   1.640   8.685   0.452 -0.2119  0.1375 -0.0058
  263MOL0     H35438   1.998   8.280   0.069  0.2609  0.0432  3.3392
  263MOL0     H35439   2.232   8.300   0.008  0.9662  1.3184 -0.5316
  263MOL0     H35440   2.395   8.736   0.045 -1.8229 -1.0083 -1.5916
  263MOL0     H35441   2.385   8.620   0.176 -2.8198 -0.9023 -1.0324
  263MOL0     H35442   2.567   8.531   0.165  0.7216  1.5144  1.2245
  263MOL0     H35443   2.636   8.683   0.132  1.9590 -2.1435  0.2726
  263MOL0     H35444   2.600   8.447  -0.053 -0.0791 -0.6895 -0.0057
  263MOL0     H35445   2.747   8.531   0.003 -0.4117  0.8031  1.5587
  263MOL0     H35446   2.536   8.670  -0.170 -0.6799 -3.2120  1.7604
  263MOL0     H35447   2.697   8.724  -0.140  1.3810  0.2979 -1.8317
  263MOL0     H35448   2.626   8.484  -0.321  0.6809  0.1134  0.4188
  263MOL0     H35449   2.692   8.633  -0.381  0.5997 -1.4229 -0.8183
  263MOL0     H35450   2.823   8.428  -0.204 -0.3120 -1.0211 -1.2522
  263MOL0     H35451   2.867   8.477  -0.370 -2.2492  0.1330 -1.7849
  263MOL0     H35452   3.025   8.579  -0.194  1.6677  2.0785 -1.7886
  263MOL0     H35453   2.898   8.664  -0.119  0.1470  0.5356 -0.2959
  263MOL0     H35454   2.957   8.694  -0.427  2.6465  1.2365 -0.4317
  263MOL0     H35455   2.869   8.806  -0.310 -1.4570 -1.2958  0.9334
  263MOL0     H35456   3.212   8.685  -0.418 -2.8615 -0.0025 -1.0150
  263MOL0     H35457   3.488   8.814  -0.243  0.2215  1.4398  0.4652
  263MOL0     H35458   3.463   8.821  -0.421 -1.0063 -1.0735 -0.7976
  263MOL0     H35459   3.419   9.078  -0.372 -1.8608  0.1515  1.6694
  263MOL0     H35460   3.512   9.051  -0.227  0.1283 -0.2041 -0.8621
  263MOL0     H35461   3.606   8.954  -0.500 -0.3611 -1.3692 -0.5026
  263MOL0     H35462   3.704   8.961  -0.350 -1.0740  0.4808  0.6516
  263MOL0     H35463   3.652   9.204  -0.316 -0.6373  0.5375  0.0258
  263MOL0     H35464   3.572   9.211  -0.463  1.0862  0.6321 -0.6917
  263MOL0     H35465   3.988   9.184  -0.633  1.6289  0.6782 -1.0754
  263MOL0     H35466   4.205   9.140  -0.561  1.5523 -2.3656  1.1921
  263MOL0     H35467   4.466   9.299  -0.015 -2.3078 -0.8766 -0.5109
  263MOL0     H35468   4.707   9.263   0.046 -1.7240  1.3921  0.3937
  263MOL0     H35469   4.834   8.856   0.053  1.3607 -0.1578  0.1753
  263MOL0     H35470   4.883   8.883  -0.118 -2.3763  1.6672 -0.6044
  263MOL0     H35471   5.043   8.970   0.136  0.2281  0.5046  0.2156
  263MOL0     H35472   5.054   8.809   0.066 -1.5404  0.4854  0.3265
  263MOL0     H35473   5.074   9.051  -0.119  1.1177  1.8360  0.6463
  263MOL0     H35474   5.217   9.024  -0.014 -0.5055 -1.1544  1.1117
  263MOL0     H35475   5.146   8.802  -0.189 -1.6104  1.4076  3.3373
  263MOL0     H35476   5.299   8.851  -0.105  0.6208  1.6160  1.4108
  263MOL0     H35477   5.187   8.975  -0.348 -1.6647 -1.0078  1.1105
  263MOL0     H35478   5.343   8.879  -0.316  1.4621  1.3896 -0.6584
  263MOL0     H35479   5.278   9.158  -0.228  0.0318 -0.7287  2.1989
  263MOL0     H35480   5.390   9.064  -0.134  1.0179  2.8106  0.2958
  263MOL0     H35481   5.387   9.167  -0.410  0.9697 -1.5838 -1.0767
  263MOL0     H35482   5.521   9.052  -0.360  0.3056  0.1330  1.2333
  263MOL0     H35483   5.456   9.328  -0.260 -2.6109 -2.1716 -1.4752
  263MOL0     H35484   5.573   9.234  -0.178  0.0360  2.0127  0.0571
  263MOL0     H35485   4.680   8.871  -0.150 -3.6086 -1.8485 -2.1151
  263MOL0     H35486   4.445   8.928  -0.201 -2.1427  1.4741  2.2214
  263MOL0     H35487   4.067   9.181  -0.148  2.2314 -6.5586 -0.4844
  263MOL0     H35488   3.848   9.196  -0.219 -1.3820 -1.7104 -1.6363
  263MOL0     H35489   2.187   8.718  -0.033  0.9423 -0.0873  2.1560
  263MOL0     H35490   1.947   8.705   0.039  3.5407  1.9047  1.5464
  263MOL0     H35491   1.615   8.445   0.062  1.4225  0.3111  1.6767
  263MOL0     H35492   1.379   8.414   0.086  0.6793 -0.4307  0.1250
  263MOL0     H35493   1.219   8.336   0.180  1.0532  1.3737 -1.8321
  263MOL0     H35494   1.118   8.467   0.130 -0.9241  0.8929  0.9025
  263MOL0     H35495   0.978   8.289   0.215 -0.5929 -0.8754  0.1617
  263MOL0     H35496   0.954   8.450   0.268 -0.7662 -0.8886 -1.5120
  263MOL0     H35497   0.939   8.302   0.466  0.2459  1.8580  1.6233
  263MOL0     H35498   1.065   8.416   0.479  2.2880  0.5906 -1.4002
  263MOL0     H35499   1.230   8.227   0.403  0.2705 -3.4874 -1.4581
  263MOL0     H35500   1.133   8.180   0.557 -3.0633 -1.2351 -0.4554
  263MOL0     H35501   1.005   7.930   0.242  2.0124  1.2282 -1.7604
  263MOL0     H35502   1.384   8.613   0.466 -3.9081  2.7578 -3.2734
  263MOL0     H35503   1.581   8.702   0.543 -0.2739 -1.5364  0.2923
  263MOL0     H35504   1.738   8.642   0.475 -0.3010 -0.5721 -0.9141
  263MOL0     H35505   1.664   8.780   0.404  1.0216 -0.8616 -1.4396
  264MOL0     O35506   7.380   4.194   7.248  0.1874  0.1275 -0.3679
  264MOL0     C35507   7.429   4.106   7.172  0.7838 -0.8140 -0.0049
  264MOL0     O35508   7.563   4.097   7.139  0.2530  0.8748 -0.1589
  264MOL0     C35509   7.638   4.213   7.158  0.4193  0.2454 -0.3393
  264MOL0     C35510   7.776   4.198   7.193  0.8596  0.3531 -0.0781
  264MOL0     C35511   7.868   4.307   7.193 -0.0272 -0.1934 -0.0720
  264MOL0     C35512   7.822   4.442   7.158 -0.7786 -0.6674 -0.0879
  264MOL0     O35513   7.896   4.557   7.165 -0.1430 -0.0893  0.3294
  264MOL0     C35514   8.034   4.546   7.203 -0.0044  0.0241 -0.1808
  264MOL0     C35515   8.068   4.684   7.242 -0.1331 -0.6270 -0.9180
  264MOL0     C35516   8.217   4.690   7.282  0.0922  0.0835  0.9499
  264MOL0     C35517   8.256   4.811   7.360 -0.2032 -0.1010  0.0818
  264MOL0     C35518   8.406   4.812   7.396  0.2294  0.4873 -0.3764
  264MOL0     C35519   8.447   4.932   7.479  0.0461  0.4490  0.6521
  264MOL0     C35520   8.567   4.899   7.569 -0.0917  0.0622 -0.0967
  264MOL0     C35521   8.692   4.926   7.492  0.1807  0.6038  0.2096
  264MOL0     N35522   8.723   4.823   7.390  0.1153 -0.4454  0.6271
  264MOL0     C35523   8.782   4.856   7.269 -0.3353 -1.2741  0.0794
  264MOL0     C35524   8.806   4.739   7.201 -0.0882  0.1395 -0.6845
  264MOL0     C35525   8.880   4.727   7.068 -0.3312 -0.1476  0.1575
  264MOL0     C35526   8.973   4.606   7.062  1.0102  1.4354  0.1511
  264MOL0     C35527   8.907   4.471   7.032  0.2119 -0.1697  0.6461
  264MOL0     C35528   9.008   4.350   7.008 -0.4754 -0.7573  0.0666
  264MOL0     O35529   8.939   4.234   6.965  0.1519  0.0661  0.4167
  264MOL0     C35530   8.851   4.166   7.046  0.2062 -0.1313  0.4602
  264MOL0     C35531   8.855   4.174   7.186  1.2764  0.6155 -0.2644
  264MOL0     C35532   8.766   4.092   7.264 -0.2639 -1.1478  0.2340
  264MOL0     C35533   8.689   4.003   7.198  0.7632  0.3235 -0.4063
  264MOL0     C35534   8.596   3.921   7.270  0.0272 -0.6202 -0.9462
  264MOL0     O35535   8.597   3.927   7.405 -0.4127 -0.4447 -0.6181
  264MOL0     C35536   8.549   3.817   7.473 -0.3484  0.4865 -0.5758
  264MOL0     C35537   8.497   3.835   7.604  0.4998 -0.2395  0.7003
  264MOL0     C35538   8.457   3.726   7.681  0.6961 -0.1444 -0.8568
  264MOL0     C35539   8.465   3.593   7.627  0.6211 -0.0728 -0.0643
  264MOL0     O35540   8.417   3.491   7.707 -0.2503  0.1447 -0.1112
  264MOL0     C35541   8.281   3.489   7.727 -0.3632  0.1661 -0.0969
  264MOL0     C35542   8.235   3.342   7.727  0.4771  0.9732 -0.0343
  264MOL0     C35543   8.247   3.266   7.593  1.6090  0.6862 -0.5376
  264MOL0     C35544   8.246   3.110   7.606 -0.3445 -0.4360 -1.0440
  264MOL0     C35545   8.137   3.055   7.701  0.1885  0.6003  0.8083
  264MOL0     C35546   8.174   2.906   7.731 -0.2567 -0.2516  0.1305
  264MOL0     C35547   8.151   2.808   7.609 -0.6446 -0.5441 -0.5109
  264MOL0     C35548   8.108   2.669   7.649  0.3534 -0.3427  0.1670
  264MOL0    Cl35549   7.989   2.601   7.538  0.2009 -0.1773 -0.0359
  264MOL0     C35550   8.512   3.575   7.496 -0.1057  0.0159 -0.4459
  264MOL0     C35551   8.556   3.687   7.423  0.3373  0.2700 -0.0025
  264MOL0     O35552   8.506   3.859   7.205 -0.4388  0.2152  0.3764
  264MOL0     C35553   8.690   3.986   7.056 -0.4041  0.6626 -1.7663
  264MOL0     C35554   8.769   4.073   6.986  0.0669 -0.3309  0.1198
  264MOL0     N35555   8.749   4.640   7.288 -0.0908  0.3894  0.5317
  264MOL0     N35556   8.702   4.694   7.396 -0.7423 -0.6574 -0.4512
  264MOL0     C35557   7.685   4.460   7.120  0.2611  0.3242  0.6498
  264MOL0     C35558   7.600   4.343   7.116 -0.5011  0.3849  1.1364
  264MOL0     C35559   7.340   3.986   7.160  0.0767  0.0274  0.5730
  264MOL0     C35560   7.200   3.999   7.158  0.1832 -0.2249  0.4339
  264MOL0     C35561   7.106   3.894   7.142  0.3216 -0.3990 -0.6197
  264MOL0     C35562   7.149   3.768   7.102 -0.2826  0.2255 -0.8279
  264MOL0     O35563   7.053   3.673   7.071  0.3364 -0.0252  0.3416
  264MOL0     C35564   7.083   3.622   6.937  0.7111  0.2183 -1.0097
  264MOL0     C35565   7.134   3.478   6.943  0.4240  0.0377 -0.0782
  264MOL0     C35566   7.177   3.438   6.799  0.2878  0.3979 -0.3707
  264MOL0     C35567   7.324   3.474   6.775 -0.8333 -0.3989 -0.3155
  264MOL0     C35568   7.417   3.415   6.869  0.4061  0.8292 -0.5948
  264MOL0     C35569   7.490   3.369   6.952  0.3549 -0.3163 -0.8909
  264MOL0     C35570   7.285   3.753   7.089  0.2251 -0.5026  0.1679
  264MOL0     C35571   7.380   3.851   7.129  0.1584 -0.1188  0.1504
  264MOL0     C35572   7.519   3.800   7.124 -0.1729  0.3024  0.0362
  264MOL0     H35573   7.819   4.100   7.216 -2.4669 -1.2262 -0.0317
  264MOL0     H35574   7.961   4.262   7.227 -0.5498 -0.2569  1.3612
  264MOL0     H35575   8.051   4.494   7.298  2.1968  2.2673  0.7604
  264MOL0     H35576   8.104   4.514   7.124  0.2726 -1.3816  0.5957
  264MOL0     H35577   8.005   4.730   7.319 -1.1814 -0.2020 -1.9891
  264MOL0     H35578   8.061   4.740   7.148  3.6933 -0.2420 -1.1173
  264MOL0     H35579   8.283   4.691   7.195  2.5386 -2.0466  2.6234
  264MOL0     H35580   8.247   4.600   7.337  2.9271  0.0349 -0.4893
  264MOL0     H35581   8.235   4.900   7.300 -0.0726 -0.8810 -1.1807
  264MOL0     H35582   8.205   4.818   7.456  2.0682  1.9684  1.2478
  264MOL0     H35583   8.427   4.718   7.448 -1.0827  1.2761  1.7038
  264MOL0     H35584   8.460   4.808   7.301  0.5176  0.6550 -0.2228
  264MOL0     H35585   8.474   5.018   7.416  1.8182  0.5464  1.4821
  264MOL0     H35586   8.365   4.960   7.546 -0.3997  0.7536 -0.0094
  264MOL0     H35587   8.568   4.793   7.595  1.1771 -0.0623 -0.5536
  264MOL0     H35588   8.559   4.957   7.661 -4.2885  0.6355 -0.6311
  264MOL0     H35589   8.676   5.028   7.454  1.0704  0.1660 -1.4590
  264MOL0     H35590   8.774   4.921   7.564 -0.6565 -0.6206  1.1148
  264MOL0     H35591   8.821   4.953   7.240 -5.2406  1.1961  0.6406
  264MOL0     H35592   8.798   4.725   6.996 -0.7714 -0.8774  0.6680
  264MOL0     H35593   8.938   4.813   7.034 -2.3198  0.8402 -0.9232
  264MOL0     H35594   9.043   4.621   6.980  1.1957  0.5885  0.1476
  264MOL0     H35595   9.026   4.600   7.158 -0.5450  2.7896  1.1610
  264MOL0     H35596   8.856   4.491   6.937 -2.5839  0.6038  2.2228
  264MOL0     H35597   8.837   4.441   7.110 -1.1049  0.5119 -0.2365
  264MOL0     H35598   9.067   4.333   7.099  2.0028 -2.6398 -1.7611
  264MOL0     H35599   9.074   4.388   6.930 -1.2513  0.7722  0.1027
  264MOL0     H35600   8.914   4.247   7.241  1.4926 -1.7025  2.8371
  264MOL0     H35601   8.773   4.119   7.369  2.3640 -0.9579  0.0744
  264MOL0     H35602   8.496   3.938   7.639 -2.0484  0.8791 -2.1642
  264MOL0     H35603   8.421   3.743   7.782  3.1415 -0.6345  0.1774
  264MOL0     H35604   8.264   3.531   7.827 -0.7778 -0.7726  0.2404
  264MOL0     H35605   8.227   3.554   7.657  2.2126  3.6094  0.8285
  264MOL0     H35606   8.297   3.292   7.802 -0.8182  2.7174  2.3473
  264MOL0     H35607   8.133   3.330   7.762  0.9489  1.6279  1.6771
  264MOL0     H35608   8.163   3.291   7.528  2.1364  0.4628 -1.3354
  264MOL0     H35609   8.340   3.295   7.542  2.1812 -3.1438 -2.0591
  264MOL0     H35610   8.342   3.075   7.645 -1.3837 -1.8037  0.3911
  264MOL0     H35611   8.241   3.075   7.502 -0.3728  2.6635 -2.1844
  264MOL0     H35612   8.040   3.058   7.651  0.8478 -0.5570 -0.5967
  264MOL0     H35613   8.122   3.107   7.796  1.6955 -1.1433  2.0787
  264MOL0     H35614   8.277   2.890   7.765 -0.8411 -2.2307  1.1311
  264MOL0     H35615   8.122   2.872   7.820  1.8314 -1.9106  0.8216
  264MOL0     H35616   8.231   2.814   7.535  1.1905  0.5735  1.4706
  264MOL0     H35617   8.066   2.857   7.560 -0.8991  0.2966  0.7233
  264MOL0     H35618   8.201   2.612   7.661  0.5163  0.0554  0.7993
  264MOL0     H35619   8.054   2.669   7.744 -1.8342 -1.0107 -1.0046
  264MOL0     H35620   8.505   3.476   7.453  0.4108  0.2949 -1.1893
  264MOL0     H35621   8.593   3.662   7.325 -0.1581 -2.1099  0.3557
  264MOL0     H35622   8.642   3.904   7.003 -0.8200 -0.5516  0.3600
  264MOL0     H35623   8.779   4.058   6.879  2.0522  2.1816 -0.1391
  264MOL0     H35624   7.635   4.555   7.106 -5.2416 -2.1989  0.0961
  264MOL0     H35625   7.496   4.362   7.092  0.2149  0.9905 -1.8349
  264MOL0     H35626   7.175   4.102   7.181  2.9794  0.5098  0.4841
  264MOL0     H35627   6.999   3.905   7.149  0.1860 -2.0679  0.4840
  264MOL0     H35628   7.155   3.688   6.888  2.2060  1.0747  2.0660
  264MOL0     H35629   6.988   3.629   6.882 -1.6035  1.1202  2.7363
  264MOL0     H35630   7.049   3.417   6.972 -1.1471  1.0512 -2.3007
  264MOL0     H35631   7.219   3.462   7.010  0.4021  1.0227  0.2032
  264MOL0     H35632   7.110   3.486   6.728  0.6095  2.4215  0.6167
  264MOL0     H35633   7.161   3.331   6.781  0.0847  0.5197 -0.9090
  264MOL0     H35634   7.364   3.437   6.680  0.2432 -1.4328  0.5093
  264MOL0     H35635   7.336   3.583   6.770 -0.2854 -0.4597 -0.4526
  264MOL0     H35636   7.574   3.337   7.010 -1.3856  0.4562  2.3576
  264MOL0     H35637   7.331   3.663   7.051  2.1374 -0.3400  1.9037
  264MOL0     H35638   7.522   3.715   7.193 -1.3382  0.1080 -0.1272
  264MOL0     H35639   7.548   3.776   7.022  1.6773  0.7509  0.4226
  264MOL0     H35640   7.592   3.874   7.159  0.2851 -0.0914 -0.0770
  265MOL0     O35641   9.455   3.467   6.563  0.0394  0.5103 -0.0624
  265MOL0     C35642   9.347   3.493   6.518 -0.5522 -0.2403  0.8624
  265MOL0     O35643   9.319   3.607   6.430  0.4599  0.4069  0.0234
  265MOL0     C35644   9.414   3.702   6.405 -0.9562  0.4001 -0.0984
  265MOL0     C35645   9.503   3.757   6.503 -0.8315  0.2134 -0.7180
  265MOL0     C35646   9.592   3.865   6.483 -0.0281 -0.5891  0.5985
  265MOL0     C35647   9.595   3.920   6.357  0.8725  0.8447 -0.4170
  265MOL0     O35648   9.683   4.011   6.302  0.0380  0.2409 -0.8421
  265MOL0     C35649   9.810   4.021   6.364  0.9635  0.5098  0.1426
  265MOL0     C35650   9.898   4.093   6.260  0.0997 -0.0744 -0.1710
  265MOL0     C35651  10.040   4.120   6.328  0.1271  0.4282  0.4854
  265MOL0     C35652  10.031   4.253   6.398  0.2570  0.0701  0.3219
  265MOL0     C35653  10.180   4.302   6.410  0.7141 -0.2004 -0.4712
  265MOL0     C35654  10.270   4.214   6.504 -1.1642 -0.0795  0.3558
  265MOL0     C35655  10.405   4.282   6.508  0.4987 -0.3418 -0.7558
  265MOL0     C35656  10.489   4.265   6.376 -0.2041  0.0897 -0.4587
  265MOL0     N35657  10.620   4.321   6.393  0.1056  0.1371 -0.0098
  265MOL0     C35658  10.726   4.274   6.466 -0.2684 -0.0476  0.7140
  265MOL0     C35659  10.829   4.353   6.434 -0.9589  0.1965  0.3670
  265MOL0     C35660  10.964   4.330   6.499  0.6623  0.2866 -0.1097
  265MOL0     C35661  11.081   4.296   6.396 -0.1115 -0.3206 -1.3764
  265MOL0     C35662  11.217   4.295   6.470 -0.6900 -0.3632  0.1494
  265MOL0     C35663  11.318   4.204   6.403  0.0643  0.1748  0.4900
  265MOL0     O35664  11.434   4.192   6.482  0.1146 -0.4485 -0.5170
  265MOL0     C35665  11.539   4.132   6.420  0.4803 -0.0310 -0.3820
  265MOL0     C35666  11.540   4.031   6.327 -0.0510  0.3933  0.4962
  265MOL0     C35667  11.654   3.983   6.266  0.2483 -0.8745  0.3157
  265MOL0     C35668  11.776   4.040   6.301 -0.1109 -0.0756 -0.6151
  265MOL0     C35669  11.897   3.981   6.238  0.7267 -0.4612  0.0921
  265MOL0     O35670  11.870   3.865   6.163 -0.2020 -0.3716  0.1584
  265MOL0     C35671  11.952   3.798   6.077 -0.0221  0.4733  0.2645
  265MOL0     C35672  11.903   3.671   6.031  0.5823 -0.5154  0.6951
  265MOL0     C35673  11.976   3.584   5.945 -0.1359 -0.4322  0.1160
  265MOL0     C35674  12.095   3.622   5.889 -0.5163 -0.6577  0.8231
  265MOL0     O35675  12.175   3.551   5.798  0.2003  0.2215  0.1772
  265MOL0     C35676  12.099   3.475   5.703 -0.0022  0.0346 -0.0068
  265MOL0     C35677  12.191   3.426   5.593  0.5128 -0.0168 -0.1357
  265MOL0     C35678  12.276   3.535   5.529 -0.1136 -0.1266  0.0346
  265MOL0     C35679  12.406   3.493   5.458 -0.4316  0.0067 -0.6558
  265MOL0     C35680  12.478   3.600   5.369 -0.2303  0.1244 -0.1425
  265MOL0     C35681  12.592   3.552   5.279 -0.2291 -0.6485 -0.5171
  265MOL0     C35682  12.723   3.507   5.366 -0.6280  0.1956  0.4970
  265MOL0     C35683  12.847   3.540   5.282 -0.1912  0.0175  0.7508
  265MOL0    Cl35684  12.823   3.447   5.133 -0.0045  0.0248  0.2346
  265MOL0     C35685  12.136   3.747   5.915  0.6756 -0.2964 -0.4258
  265MOL0     C35686  12.073   3.833   6.015  0.2051  0.5385 -0.3925
  265MOL0     O35687  12.003   4.037   6.243 -0.4079 -0.5002  0.4595
  265MOL0     C35688  11.781   4.154   6.390  0.5635  0.2613  0.6464
  265MOL0     C35689  11.661   4.191   6.459  0.1987  0.2547  0.3679
  265MOL0     N35690  10.797   4.447   6.337  0.3476  0.5310  0.4804
  265MOL0     N35691  10.666   4.428   6.324 -0.1281 -1.0527  0.0116
  265MOL0     C35692   9.511   3.873   6.258 -0.4502 -0.5100 -0.6084
  265MOL0     C35693   9.420   3.769   6.287 -0.0483 -0.1479 -0.1731
  265MOL0     C35694   9.236   3.401   6.545 -0.3361 -1.1980 -0.0428
  265MOL0     C35695   9.110   3.436   6.502 -0.1610 -0.2717 -0.3466
  265MOL0     C35696   8.993   3.370   6.543  0.4604  0.6999  0.3074
  265MOL0     C35697   9.008   3.236   6.602 -0.2836 -0.2761  0.0305
  265MOL0     O35698   8.907   3.156   6.639 -0.1630  0.0837  0.3305
  265MOL0     C35699   8.779   3.219   6.644  0.3695 -0.7716 -0.6822
  265MOL0     C35700   8.704   3.120   6.722  0.4086 -0.3220 -0.7801
  265MOL0     C35701   8.556   3.145   6.756 -0.6411 -0.0635  0.6443
  265MOL0     C35702   8.490   3.049   6.843 -0.4040 -0.6874  0.3659
  265MOL0     C35703   8.425   2.951   6.757  0.5616  0.8571 -0.3129
  265MOL0     C35704   8.375   2.865   6.680 -0.2521 -0.7760 -0.3305
  265MOL0     C35705   9.138   3.203   6.636 -0.1552  0.5268 -0.2653
  265MOL0     C35706   9.251   3.283   6.615  1.2690  0.4128  0.1726
  265MOL0     C35707   9.389   3.224   6.644 -0.7146  0.0687 -0.0333
  265MOL0     H35708   9.500   3.726   6.607  3.5387  1.8495  0.0962
  265MOL0     H35709   9.648   3.904   6.567 -0.7887 -0.7426  1.1892
  265MOL0     H35710   9.806   4.071   6.461 -1.1884 -2.6924  1.8974
  265MOL0     H35711   9.847   3.918   6.372  1.0957  0.5655  0.2437
  265MOL0     H35712   9.852   4.188   6.229  1.1429 -0.1916 -2.2771
  265MOL0     H35713   9.898   4.032   6.169 -2.3930  0.3507 -0.5477
  265MOL0     H35714  10.113   4.123   6.246 -1.0218 -1.9178 -0.7284
  265MOL0     H35715  10.060   4.038   6.398 -0.3554 -1.6217 -1.6069
  265MOL0     H35716   9.981   4.321   6.329 -0.5732 -2.4455 -1.7448
  265MOL0     H35717   9.969   4.271   6.486 -1.7212  4.7414 -1.6745
  265MOL0     H35718  10.218   4.305   6.307  1.5321  0.1850 -0.1609
  265MOL0     H35719  10.180   4.403   6.452  1.8973 -0.6990  0.7714
  265MOL0     H35720  10.223   4.214   6.603  1.0083  2.2324  1.5144
  265MOL0     H35721  10.276   4.109   6.474 -2.9612 -0.3614  0.8218
  265MOL0     H35722  10.454   4.234   6.593 -2.6423 -0.8338  0.9282
  265MOL0     H35723  10.400   4.388   6.536 -0.6299 -0.5723 -0.0402
  265MOL0     H35724  10.504   4.163   6.338 -0.8293 -0.7022  1.2804
  265MOL0     H35725  10.451   4.318   6.289  0.2302  0.4615 -0.4222
  265MOL0     H35726  10.723   4.187   6.532  0.6497 -2.3871 -2.1024
  265MOL0     H35727  10.991   4.409   6.569 -1.3525 -0.0306  1.0757
  265MOL0     H35728  10.948   4.239   6.558  1.9126 -0.2959 -0.6152
  265MOL0     H35729  11.058   4.197   6.357  1.7899 -1.8496  1.1016
  265MOL0     H35730  11.086   4.372   6.317 -1.7116  0.8912 -0.3820
  265MOL0     H35731  11.194   4.260   6.571 -0.7155  1.3766  0.7679
  265MOL0     H35732  11.269   4.390   6.480  1.9783 -1.5280 -1.6782
  265MOL0     H35733  11.344   4.241   6.303  2.1418  2.1525  1.6504
  265MOL0     H35734  11.269   4.107   6.389 -0.9125  0.7425 -0.1136
  265MOL0     H35735  11.448   3.975   6.310  0.7875 -0.1825 -2.6985
  265MOL0     H35736  11.641   3.901   6.196  1.5845 -1.0396  0.2426
  265MOL0     H35737  11.810   3.635   6.073  0.0961 -1.5939 -1.1994
  265MOL0     H35738  11.930   3.487   5.930 -0.9147  0.0636 -0.8086
  265MOL0     H35739  12.042   3.391   5.744 -0.8145  0.7610  0.3753
  265MOL0     H35740  12.028   3.535   5.646  0.2187 -1.8207 -2.4067
  265MOL0     H35741  12.258   3.346   5.626  1.8504  0.9853 -0.3022
  265MOL0     H35742  12.124   3.389   5.516 -1.8798  4.3864 -0.5156
  265MOL0     H35743  12.224   3.575   5.442  0.3311 -1.4734 -0.8643
  265MOL0     H35744  12.304   3.622   5.589 -1.5836  1.7694 -1.8878
  265MOL0     H35745  12.374   3.422   5.381 -1.1533  1.0707 -1.3705
  265MOL0     H35746  12.477   3.449   5.528  1.4098 -0.7140 -2.8562
  265MOL0     H35747  12.511   3.675   5.441 -1.2967 -1.5426  2.2447
  265MOL0     H35748  12.398   3.642   5.307  0.8648  2.9461  0.2298
  265MOL0     H35749  12.567   3.464   5.219 -0.2405 -0.3408 -0.9636
  265MOL0     H35750  12.608   3.635   5.210 -1.4138 -0.4851 -0.6224
  265MOL0     H35751  12.725   3.399   5.383 -1.9721 -0.1921 -1.4320
  265MOL0     H35752  12.739   3.573   5.452  0.4029  2.5339 -1.3660
  265MOL0     H35753  12.845   3.645   5.253  0.3565 -0.0769  0.3501
  265MOL0     H35754  12.943   3.515   5.329  1.6379  0.6938 -2.3238
  265MOL0     H35755  12.232   3.773   5.871  1.2227  1.0105  1.3962
  265MOL0     H35756  12.119   3.926   6.049  0.5439 -0.2335  1.3436
  265MOL0     H35757  11.868   4.209   6.423  0.9677 -1.6216  3.0739
  265MOL0     H35758  11.663   4.266   6.537  0.3683 -0.1492  0.7528
  265MOL0     H35759   9.519   3.919   6.160 -0.7419 -0.6102 -0.6809
  265MOL0     H35760   9.348   3.744   6.210  0.0236 -0.7123 -0.0660
  265MOL0     H35761   9.104   3.532   6.450  2.3210  0.8149  1.2260
  265MOL0     H35762   8.901   3.420   6.514  0.7947 -0.1238 -2.5087
  265MOL0     H35763   8.730   3.221   6.546  0.6640 -0.2527 -0.8171
  265MOL0     H35764   8.775   3.317   6.693 -0.2135 -0.3712 -1.5057
  265MOL0     H35765   8.758   3.108   6.816 -1.3197 -0.2936  0.2699
  265MOL0     H35766   8.708   3.022   6.675  0.0756  0.1657 -1.8732
  265MOL0     H35767   8.503   3.155   6.661 -2.3714 -0.1919  1.5580
  265MOL0     H35768   8.556   3.239   6.812  2.3129 -0.9777  2.4020
  265MOL0     H35769   8.557   2.996   6.911 -0.4565  0.7220  1.5613
  265MOL0     H35770   8.416   3.106   6.900  0.8124  1.4763 -0.1171
  265MOL0     H35771   8.331   2.792   6.616  0.7565 -2.0443  0.3839
  265MOL0     H35772   9.159   3.107   6.682  1.3347  0.3516 -1.2645
  265MOL0     H35773   9.448   3.221   6.552  0.5377  0.2057  0.7472
  265MOL0     H35774   9.435   3.280   6.726 -1.8753 -0.4977  1.0524
  265MOL0     H35775   9.369   3.120   6.673  1.3598 -1.3092 -3.0647
  266MOL0     O35776   0.245   8.290   7.220  0.3530 -0.3325  0.3866
  266MOL0     C35777   0.215   8.326   7.107 -0.1919  0.5767  0.6146
  266MOL0     O35778   0.297   8.393   7.020 -0.9700  0.2359 -0.6551
  266MOL0     C35779   0.426   8.425   7.059  0.3950 -0.3809  0.1001
  266MOL0     C35780   0.520   8.333   7.031 -0.3355 -0.0252  0.9959
  266MOL0     C35781   0.658   8.362   7.057  1.2228  0.3714  0.0201
  266MOL0     C35782   0.695   8.487   7.117  0.5574  0.3015  0.9426
  266MOL0     O35783   0.826   8.513   7.151 -0.8261  0.9721  0.7449
  266MOL0     C35784   0.856   8.645   7.201  0.0777  0.5395  0.4778
  266MOL0     C35785   1.004   8.664   7.202 -0.2611 -0.6128 -0.8438
  266MOL0     C35786   1.044   8.810   7.209 -0.6419 -0.4987  0.2007
  266MOL0     C35787   1.194   8.832   7.157  0.5409  0.1045 -0.5443
  266MOL0     C35788   1.310   8.780   7.236  0.0331  0.6246 -0.1352
  266MOL0     C35789   1.453   8.817   7.191  0.7396 -0.3610  0.0265
  266MOL0     C35790   1.565   8.755   7.277  0.4951 -0.2196  0.2797
  266MOL0     C35791   1.703   8.744   7.208  0.2927 -0.5023  0.3582
  266MOL0     N35792   1.787   8.648   7.281 -0.6159 -0.2723  0.3228
  266MOL0     C35793   1.868   8.683   7.385  0.2839 -0.1205 -0.1052
  266MOL0     C35794   1.952   8.575   7.419  0.0311 -0.0818  0.3468
  266MOL0     C35795   2.046   8.582   7.530 -0.2706  0.2388  0.9489
  266MOL0     C35796   2.181   8.516   7.501 -0.3094  1.3732  0.1601
  266MOL0     C35797   2.252   8.577   7.381 -0.1224 -0.0995  0.1033
  266MOL0     C35798   2.394   8.522   7.370 -0.2298  0.0977  0.1290
  266MOL0     O35799   2.468   8.613   7.294 -0.4129 -0.5307 -0.0517
  266MOL0     C35800   2.550   8.553   7.207  0.1601 -0.1091 -0.1914
  266MOL0     C35801   2.511   8.528   7.074  0.5478 -0.0756  0.5531
  266MOL0     C35802   2.603   8.465   6.987  0.0684 -0.2432 -0.0752
  266MOL0     C35803   2.729   8.423   7.041 -0.7042 -0.5053  1.0472
  266MOL0     C35804   2.838   8.370   6.943 -0.1031 -0.7020  0.0370
  266MOL0     O35805   2.967   8.336   6.995  0.7806 -0.3348 -0.2123
  266MOL0     C35806   3.046   8.275   6.905  0.4095  0.1598  0.0123
  266MOL0     C35807   3.005   8.151   6.851  0.0196  0.6201 -0.5339
  266MOL0     C35808   3.090   8.068   6.770 -0.1731 -0.2403  0.5608
  266MOL0     C35809   3.224   8.112   6.749  0.9322 -0.2266  0.1344
  266MOL0     O35810   3.312   8.031   6.679  0.1546  0.3408 -0.4975
  266MOL0     C35811   3.443   7.992   6.734  0.1176 -0.5708  0.3151
  266MOL0     C35812   3.552   8.066   6.676 -0.2657 -0.7155 -0.2147
  266MOL0     C35813   3.576   8.037   6.534  0.4481  0.2430  0.2336
  266MOL0     C35814   3.677   8.130   6.469  0.2107  1.0558 -0.7107
  266MOL0     C35815   3.670   8.122   6.320 -0.3150 -0.6294  0.9443
  266MOL0     C35816   3.775   8.210   6.240  0.6154 -0.2146 -0.5202
  266MOL0     C35817   3.753   8.360   6.272  0.0991 -0.2722 -0.1186
  266MOL0     C35818   3.809   8.443   6.159  0.2901 -0.1626 -0.0440
  266MOL0    Cl35819   3.985   8.440   6.170  0.2719 -0.4248  0.1070
  266MOL0     C35820   3.267   8.239   6.802 -0.3730 -0.4274 -0.3403
  266MOL0     C35821   3.177   8.315   6.876  0.4691 -0.1393 -0.4151
  266MOL0     O35822   2.803   8.354   6.827 -0.2671  0.0832  0.7176
  266MOL0     C35823   2.765   8.434   7.175 -0.4473 -0.4228  0.1262
  266MOL0     C35824   2.677   8.507   7.253 -1.0890  0.1759 -0.2389
  266MOL0     N35825   1.916   8.471   7.333 -0.9648  0.1575  0.0249
  266MOL0     N35826   1.824   8.512   7.250 -0.3740  0.1218  0.2313
  266MOL0     C35827   0.590   8.572   7.160  1.0987 -0.2932  0.2170
  266MOL0     C35828   0.457   8.542   7.122 -0.7058 -0.2448  0.9560
  266MOL0     C35829   0.070   8.301   7.078 -0.5571  0.2338  0.1690
  266MOL0     C35830   0.010   8.364   6.967  0.6488 -0.0247  0.0780
  266MOL0     C35831  -0.130   8.366   6.949  0.3179 -0.8500  0.3415
  266MOL0     C35832  -0.220   8.299   7.030  0.2716 -0.2091 -0.3768
  266MOL0     O35833  -0.358   8.317   7.007  0.1455 -0.6017  0.3574
  266MOL0     C35834  -0.458   8.251   7.080 -0.4136  0.0119  0.1978
  266MOL0     C35835  -0.584   8.245   6.983 -0.4362  0.0981 -0.3741
  266MOL0     C35836  -0.686   8.153   7.043 -0.4891 -0.0483 -0.3614
  266MOL0     C35837  -0.822   8.166   6.971  0.3115  0.6241 -0.1532
  266MOL0     C35838  -0.901   8.279   7.026  0.1692  0.6092 -0.5721
  266MOL0     C35839  -0.966   8.358   7.089  0.1843 -0.0898  1.4791
  266MOL0     C35840  -0.168   8.224   7.125 -0.1709  0.3942 -0.5946
  266MOL0     C35841  -0.025   8.221   7.157  0.1772 -0.1974 -0.5280
  266MOL0     C35842   0.006   8.145   7.283  0.2772 -0.8835  0.0910
  266MOL0     H35843   0.499   8.245   6.970  1.2655 -1.1837  2.0217
  266MOL0     H35844   0.732   8.287   7.029  1.0369 -0.4440  1.6221
  266MOL0     H35845   0.817   8.724   7.136 -1.3410  0.7181  1.4909
  266MOL0     H35846   0.811   8.665   7.298 -2.5175 -0.4754 -0.4421
  266MOL0     H35847   1.056   8.620   7.116  0.8400  1.5310 -1.3381
  266MOL0     H35848   1.051   8.614   7.287 -0.3962 -0.9663 -0.9740
  266MOL0     H35849   1.026   8.851   7.308 -1.5623  0.6380 -0.4174
  266MOL0     H35850   0.982   8.873   7.145  0.0414  2.1079  1.9509
  266MOL0     H35851   1.207   8.787   7.059  3.0385 -0.9728  0.1931
  266MOL0     H35852   1.219   8.938   7.146  0.2641  0.4107  1.3999
  266MOL0     H35853   1.284   8.810   7.338 -4.7631 -0.9743 -0.6386
  266MOL0     H35854   1.301   8.672   7.222 -1.2795  1.1239 -4.7053
  266MOL0     H35855   1.457   8.775   7.090  3.4511 -0.5969  0.1590
  266MOL0     H35856   1.457   8.926   7.185  1.0696 -0.4241 -1.0512
  266MOL0     H35857   1.534   8.652   7.294 -0.8610  0.0422 -0.4410
  266MOL0     H35858   1.579   8.815   7.368  0.1725  2.0594 -1.0971
  266MOL0     H35859   1.681   8.696   7.112  0.8402 -3.4196  1.5882
  266MOL0     H35860   1.748   8.842   7.195  0.7755 -1.0284 -2.5535
  266MOL0     H35861   1.861   8.783   7.428 -0.0444  0.2271 -0.9461
  266MOL0     H35862   2.064   8.688   7.549 -0.3761  0.4492 -0.0603
  266MOL0     H35863   1.991   8.546   7.617 -3.9925  2.2977 -0.3132
  266MOL0     H35864   2.246   8.532   7.587  2.3951 -0.9361 -1.2804
  266MOL0     H35865   2.167   8.409   7.482 -1.2118  1.6536 -0.8903
  266MOL0     H35866   2.251   8.685   7.397  0.2143 -0.1461  0.4776
  266MOL0     H35867   2.197   8.560   7.288 -1.7648  1.8298  0.6476
  266MOL0     H35868   2.380   8.420   7.331 -2.1017 -0.5762  2.3283
  266MOL0     H35869   2.438   8.507   7.469  1.5786  1.9548 -0.3303
  266MOL0     H35870   2.419   8.556   7.024 -0.1801 -2.0165  0.7048
  266MOL0     H35871   2.580   8.447   6.883 -1.2890  1.9530 -0.2242
  266MOL0     H35872   2.915   8.109   6.894  0.7937 -0.3726  0.1781
  266MOL0     H35873   3.046   7.976   6.736  0.3456 -1.2328  2.4081
  266MOL0     H35874   3.450   8.007   6.842 -0.1712  0.9470  0.1429
  266MOL0     H35875   3.465   7.888   6.709 -0.0109 -0.5112 -0.0491
  266MOL0     H35876   3.540   8.174   6.691  3.8526 -0.2262  0.8300
  266MOL0     H35877   3.646   8.033   6.719 -0.4071  0.0883  0.7561
  266MOL0     H35878   3.614   7.935   6.524 -1.1193 -0.3319 -0.2351
  266MOL0     H35879   3.486   8.048   6.473  0.5421  0.3200  0.1086
  266MOL0     H35880   3.772   8.092   6.507 -0.5142 -0.5124 -0.3606
  266MOL0     H35881   3.655   8.229   6.510  2.1730  1.0092  0.5614
  266MOL0     H35882   3.570   8.154   6.292 -0.2442 -0.7734  0.5070
  266MOL0     H35883   3.688   8.023   6.277 -1.4160  0.5726 -2.6104
  266MOL0     H35884   3.878   8.173   6.253  1.0597  0.9972 -0.4738
  266MOL0     H35885   3.737   8.197   6.139 -2.7434 -0.1174  0.6086
  266MOL0     H35886   3.810   8.381   6.363  1.7557 -1.3763 -0.8677
  266MOL0     H35887   3.653   8.392   6.305  1.5360  0.4613  4.1326
  266MOL0     H35888   3.775   8.402   6.063 -2.1261 -1.7274  1.3777
  266MOL0     H35889   3.771   8.545   6.170  0.7717  0.4410 -3.0386
  266MOL0     H35890   3.374   8.252   6.791 -0.0436 -3.1228 -1.0652
  266MOL0     H35891   3.206   8.407   6.926 -0.4767 -0.8598  1.6206
  266MOL0     H35892   2.863   8.396   7.203 -0.1032  0.1473 -0.2866
  266MOL0     H35893   2.703   8.517   7.358 -1.5837 -0.5695 -0.0387
  266MOL0     H35894   0.605   8.657   7.225  0.0619 -0.3658  0.5609
  266MOL0     H35895   0.375   8.609   7.144  1.6529  3.3045 -0.0824
  266MOL0     H35896   0.076   8.419   6.900 -0.7101  0.1296 -1.1941
  266MOL0     H35897  -0.173   8.425   6.869 -0.6465 -5.1696 -2.6381
  266MOL0     H35898  -0.480   8.299   7.176 -0.8510 -1.0328  0.6325
  266MOL0     H35899  -0.434   8.148   7.107  3.4934  1.3183  2.5128
  266MOL0     H35900  -0.557   8.220   6.881 -3.0697  0.6416 -1.2712
  266MOL0     H35901  -0.628   8.345   6.978 -3.6888 -0.9144  3.2054
  266MOL0     H35902  -0.698   8.167   7.151 -1.0408 -0.5550 -0.3531
  266MOL0     H35903  -0.660   8.047   7.036 -2.5308 -0.5500 -1.0131
  266MOL0     H35904  -0.797   8.185   6.866  1.7463  0.4155  0.1336
  266MOL0     H35905  -0.886   8.078   6.979  1.2049 -0.1088 -0.8623
  266MOL0     H35906  -1.003   8.437   7.152  0.6358  1.4532 -0.1282
  266MOL0     H35907  -0.228   8.159   7.188  2.9599 -0.7788  1.4109
  266MOL0     H35908   0.064   8.203   7.356 -2.1145  0.4885  1.0247
  266MOL0     H35909  -0.088   8.122   7.335 -0.5338 -0.6840 -1.2507
  266MOL0     H35910   0.057   8.054   7.250  0.7127  0.0286 -1.9158
  267MOL0     O35911   3.057   7.250   9.756 -0.3616  0.3856 -0.2333
  267MOL0     C35912   2.957   7.178   9.747 -0.7290  0.0493 -0.2936
  267MOL0     O35913   2.945   7.044   9.775 -0.7616  0.2170 -0.3813
  267MOL0     C35914   3.055   6.985   9.827 -0.4551  0.3294  0.1422
  267MOL0     C35915   3.080   6.969   9.962 -0.7514  0.0140  0.2208
  267MOL0     C35916   3.192   6.905  10.015 -0.2084  0.3352  0.3976
  267MOL0     C35917   3.287   6.848   9.925  0.8117 -0.5460 -1.0839
  267MOL0     O35918   3.379   6.770   9.986 -0.4869  0.3929 -0.2322
  267MOL0     C35919   3.489   6.724   9.912 -0.6694 -0.3968  0.7902
  267MOL0     C35920   3.540   6.604   9.992  0.9087 -0.2911  0.3621
  267MOL0     C35921   3.613   6.653  10.117  0.0597 -0.1845 -0.3118
  267MOL0     C35922   3.662   6.534  10.198 -0.5184  0.5560  0.1556
  267MOL0     C35923   3.752   6.592  10.307 -0.1300  0.3141 -0.8331
  267MOL0     C35924   3.792   6.483  10.408  0.4006  0.3768  0.4058
  267MOL0     C35925   3.878   6.375  10.346 -0.4838 -0.4085  0.2042
  267MOL0     C35926   3.985   6.311  10.435 -0.0978  0.2987 -0.0341
  267MOL0     N35927   4.090   6.410  10.477 -0.3986 -0.3822  0.1049
  267MOL0     C35928   4.146   6.519  10.411  0.7830  0.2706 -0.4236
  267MOL0     C35929   4.252   6.555  10.498 -0.3071  0.3532 -0.2946
  267MOL0     C35930   4.359   6.649  10.472  1.0087 -0.3698  0.6781
  267MOL0     C35931   4.476   6.592  10.390 -0.4935 -0.2211 -0.0411
  267MOL0     C35932   4.591   6.694  10.406  0.6179 -0.1644  0.3804
  267MOL0     C35933   4.730   6.629  10.386  0.3726 -1.1161 -0.5530
  267MOL0     O35934   4.839   6.714  10.420  1.1154  0.4165 -0.3503
  267MOL0     C35935   4.967   6.662  10.446  0.8296 -0.1046 -0.2466
  267MOL0     C35936   5.003   6.529  10.427 -0.3355  0.3171  0.0010
  267MOL0     C35937   5.132   6.488  10.451 -0.0852  0.2845  0.0082
  267MOL0     C35938   5.223   6.572  10.513 -0.1180  0.3531 -0.1617
  267MOL0     C35939   5.352   6.520  10.553  0.0879 -0.5263  0.2741
  267MOL0     O35940   5.355   6.383  10.579 -0.7534  0.2829 -0.0239
  267MOL0     C35941   5.481   6.332  10.602  0.5149  0.0912  0.4365
  267MOL0     C35942   5.577   6.361  10.698 -0.1790 -0.0911  0.0328
  267MOL0     C35943   5.708   6.290  10.694 -1.1820  0.9469 -0.2121
  267MOL0     C35944   5.739   6.197  10.594  0.4094 -0.3137 -0.1922
  267MOL0     O35945   5.864   6.135  10.572 -0.3079  0.0246 -0.3507
  267MOL0     C35946   5.909   6.082  10.697  0.6087  0.2936 -0.6243
  267MOL0     C35947   5.998   5.957  10.687 -0.3696  0.4365 -0.2736
  267MOL0     C35948   6.111   5.999  10.583  0.0785 -0.5111  0.2305
  267MOL0     C35949   6.224   5.896  10.568  0.1439  0.2413 -0.1206
  267MOL0     C35950   6.179   5.786  10.470 -0.1762 -0.4683  0.7947
  267MOL0     C35951   6.274   5.659  10.474 -0.1494 -0.9136 -0.6364
  267MOL0     C35952   6.383   5.672  10.373  0.2055  0.2245  0.2474
  267MOL0     C35953   6.462   5.539  10.368  0.3679 -0.3525  0.0225
  267MOL0    Cl35954   6.537   5.532  10.206 -0.1996 -0.2618  0.5291
  267MOL0     C35955   5.636   6.172  10.503  0.4457 -0.5236 -0.2877
  267MOL0     C35956   5.506   6.231  10.508  0.3074  0.6546  0.2340
  267MOL0     O35957   5.448   6.595  10.549 -0.6364  0.0613 -0.5171
  267MOL0     C35958   5.185   6.708  10.537 -0.5005  0.3694 -0.7026
  267MOL0     C35959   5.059   6.747  10.504 -0.8976 -0.2221  0.2588
  267MOL0     N35960   4.253   6.467  10.608 -0.2207  0.6523  0.1742
  267MOL0     N35961   4.154   6.385  10.594 -0.1067 -0.1121 -0.1791
  267MOL0     C35962   3.262   6.866   9.786 -0.4992  0.4937 -0.5865
  267MOL0     C35963   3.153   6.933   9.737  0.2313 -0.6815 -0.0401
  267MOL0     C35964   2.831   7.236   9.700  0.9780 -0.3478 -0.5379
  267MOL0     C35965   2.730   7.148   9.652 -0.4588 -0.8795  0.3754
  267MOL0     C35966   2.612   7.197   9.603 -0.2240  0.2070  0.3445
  267MOL0     C35967   2.583   7.333   9.602 -0.1944  0.4593 -0.7741
  267MOL0     O35968   2.478   7.383   9.534 -0.2439  0.2059  0.8776
  267MOL0     C35969   2.369   7.431   9.616 -0.4775  0.6886 -0.6643
  267MOL0     C35970   2.276   7.317   9.660  0.6695  0.2492 -0.4148
  267MOL0     C35971   2.133   7.366   9.696  0.9523  0.2710  0.4518
  267MOL0     C35972   2.056   7.272   9.785  0.3252 -0.4757 -0.4280
  267MOL0     C35973   2.115   7.274   9.919 -0.8542 -0.4197 -0.0708
  267MOL0     C35974   2.169   7.264  10.016 -0.3955 -0.0774 -0.5666
  267MOL0     C35975   2.682   7.421   9.654 -0.5665  0.3211 -0.4065
  267MOL0     C35976   2.802   7.375   9.703  0.3812  0.3987  0.6450
  267MOL0     C35977   2.901   7.484   9.748 -0.0688  0.1520  0.2268
  267MOL0     H35978   3.010   7.007  10.036 -2.3679  1.6470 -2.0354
  267MOL0     H35979   3.194   6.896  10.123  0.6281 -2.9139  0.2178
  267MOL0     H35980   3.461   6.680   9.815 -2.1912  2.1317 -0.0199
  267MOL0     H35981   3.570   6.797   9.903  0.5599 -1.9657 -2.5123
  267MOL0     H35982   3.604   6.535   9.936  0.7886 -0.5026  0.4835
  267MOL0     H35983   3.456   6.541  10.023  0.3392 -0.0404 -0.6264
  267MOL0     H35984   3.554   6.710  10.189 -0.5280 -1.4657  0.2455
  267MOL0     H35985   3.689   6.725  10.085 -0.9765  1.0025 -0.1691
  267MOL0     H35986   3.574   6.480  10.234 -0.4535  0.0895 -0.3737
  267MOL0     H35987   3.720   6.460  10.141  0.7170  1.0500  0.7211
  267MOL0     H35988   3.842   6.644  10.273  2.5577 -1.9488  2.2832
  267MOL0     H35989   3.704   6.670  10.367  1.0118  1.8478 -1.8170
  267MOL0     H35990   3.851   6.521  10.492  0.1675 -0.8144  1.1401
  267MOL0     H35991   3.701   6.446  10.455  1.1273 -1.3409  0.5413
  267MOL0     H35992   3.915   6.404  10.247 -0.3139 -3.2519 -0.6830
  267MOL0     H35993   3.810   6.292  10.323  0.1282 -0.4005 -1.8301
  267MOL0     H35994   3.929   6.254  10.510 -0.1376 -3.0904 -2.4167
  267MOL0     H35995   4.029   6.230  10.377 -1.0810 -0.4581  0.2498
  267MOL0     H35996   4.127   6.571  10.318  2.8420  0.2170 -0.9405
  267MOL0     H35997   4.329   6.731  10.406  5.3785  0.5207 -0.5003
  267MOL0     H35998   4.392   6.692  10.567 -2.9735 -1.1094  2.6159
  267MOL0     H35999   4.499   6.492  10.430  1.0250  1.1755  2.8877
  267MOL0     H36000   4.447   6.573  10.287 -1.0264 -3.1674  0.5500
  267MOL0     H36001   4.584   6.730  10.509 -3.3926 -0.7610  0.4633
  267MOL0     H36002   4.580   6.785  10.346  2.1794  1.1819  1.9981
  267MOL0     H36003   4.746   6.618  10.279  0.0153  0.0362 -0.7441
  267MOL0     H36004   4.736   6.529  10.430  1.1397 -1.6841 -1.9051
  267MOL0     H36005   4.931   6.461  10.382 -1.1227  1.5925 -0.7295
  267MOL0     H36006   5.154   6.385  10.423 -3.9529 -0.0788 -2.6266
  267MOL0     H36007   5.567   6.438  10.774 -1.1362 -0.0852 -0.0909
  267MOL0     H36008   5.785   6.319  10.765 -0.0493 -0.6223 -0.7365
  267MOL0     H36009   5.960   6.154  10.763  0.3604 -2.0940  2.4395
  267MOL0     H36010   5.825   6.047  10.757  0.4036 -0.2967 -1.2424
  267MOL0     H36011   6.034   5.926  10.786 -1.5206 -2.1315 -0.5810
  267MOL0     H36012   5.951   5.862  10.658 -0.8920  0.6220 -0.0466
  267MOL0     H36013   6.067   6.017  10.484  2.7871  2.0943 -0.6407
  267MOL0     H36014   6.154   6.097  10.605  0.7214 -1.1600  2.0097
  267MOL0     H36015   6.233   5.849  10.666 -0.6119 -1.6893 -0.9269
  267MOL0     H36016   6.316   5.945  10.533 -0.1184  2.6807  2.3148
  267MOL0     H36017   6.159   5.829  10.372  0.6219  0.0959  0.8648
  267MOL0     H36018   6.084   5.745  10.505 -0.7287 -1.4250 -1.6566
  267MOL0     H36019   6.315   5.638  10.573 -3.2018 -2.2691  0.4549
  267MOL0     H36020   6.220   5.566  10.454  1.6968 -2.6229  1.7112
  267MOL0     H36021   6.463   5.741  10.400  0.2463 -0.5917  2.4099
  267MOL0     H36022   6.337   5.693  10.276  1.2019  1.0773 -0.0472
  267MOL0     H36023   6.534   5.533  10.450  0.2432  3.5886  0.6396
  267MOL0     H36024   6.395   5.453  10.373  0.3616 -0.4155 -0.9690
  267MOL0     H36025   5.649   6.093  10.430  0.8398  0.0233 -0.8187
  267MOL0     H36026   5.440   6.219  10.423  1.8540 -1.6691 -0.7391
  267MOL0     H36027   5.255   6.782  10.571  3.9610 -3.9710  0.7451
  267MOL0     H36028   5.026   6.848  10.525 -0.5156 -0.2021  0.7958
  267MOL0     H36029   3.327   6.808   9.722 -0.3885  1.4446 -1.3683
  267MOL0     H36030   3.145   6.932   9.629  1.2331  0.1719 -0.1378
  267MOL0     H36031   2.763   7.046   9.640  0.6873 -0.5844  0.9060
  267MOL0     H36032   2.549   7.121   9.557  1.5433 -0.3960 -1.2140
  267MOL0     H36033   2.307   7.498   9.557  0.0973  1.8536  0.0186
  267MOL0     H36034   2.404   7.496   9.697 -2.4225  0.7451  0.1794
  267MOL0     H36035   2.325   7.254   9.734  0.9260  2.9844  1.9073
  267MOL0     H36036   2.269   7.249   9.574 -1.1683  0.5181 -0.5257
  267MOL0     H36037   2.074   7.390   9.607  0.8735 -2.1888 -0.2208
  267MOL0     H36038   2.150   7.460   9.750  2.2474  0.8660 -0.9129
  267MOL0     H36039   1.953   7.307   9.796 -0.1937 -2.2328  0.7775
  267MOL0     H36040   2.041   7.170   9.750 -1.3253 -0.5967  0.5365
  267MOL0     H36041   2.242   7.252  10.094 -0.5314  1.0842 -0.2446
  267MOL0     H36042   2.664   7.527   9.636 -0.1909  0.0793 -2.4922
  267MOL0     H36043   2.990   7.480   9.685  0.0469 -0.0612  0.4003
  267MOL0     H36044   2.872   7.588   9.731  1.7196  0.9428  1.6593
  267MOL0     H36045   2.927   7.476   9.855 -1.1406  1.6101  0.6299
  268MOL0     O36046   1.300   3.967  11.054  0.3343  0.0313  1.0944
  268MOL0     C36047   1.332   3.872  11.121  0.4777 -1.0825  0.6051
  268MOL0     O36048   1.239   3.798  11.204 -0.2794 -0.5742 -0.0458
  268MOL0     C36049   1.102   3.801  11.206  0.2230  0.4020  0.3213
  268MOL0     C36050   1.023   3.884  11.132 -0.0645  0.1589  0.2398
  268MOL0     C36051   0.892   3.902  11.157  0.4425 -0.1699 -1.1312
  268MOL0     C36052   0.825   3.821  11.242  0.2194 -0.3366 -0.2849
  268MOL0     O36053   0.681   3.830  11.245 -0.3415 -0.0773  0.0809
  268MOL0     C36054   0.590   3.764  11.335 -0.3614 -0.2611 -0.6468
  268MOL0     C36055   0.527   3.875  11.421 -0.1736  0.5861 -0.4920
  268MOL0     C36056   0.633   3.971  11.495  0.9580 -0.7933  0.3545
  268MOL0     C36057   0.568   4.066  11.590 -0.0190 -0.2672 -0.0633
  268MOL0     C36058   0.664   4.170  11.655 -0.7841  0.7935  0.1725
  268MOL0     C36059   0.720   4.108  11.789  0.1768 -0.6841  0.1178
  268MOL0     C36060   0.624   4.139  11.901  0.5196 -0.7309  0.0884
  268MOL0     C36061   0.646   4.047  12.015  0.0512 -0.7310 -0.2983
  268MOL0     N36062   0.790   4.026  12.042 -0.2702  0.3866 -0.1260
  268MOL0     C36063   0.853   3.910  11.998 -0.3126 -0.3566 -0.5832
  268MOL0     C36064   0.978   3.924  12.054  0.8912  0.1353  0.3885
  268MOL0     C36065   1.097   3.837  12.038 -0.4120  0.1996  0.1115
  268MOL0     C36066   1.207   3.864  12.137  0.1222 -0.4147 -0.6067
  268MOL0     C36067   1.320   3.768  12.129 -0.2326 -0.0453  0.1526
  268MOL0     C36068   1.441   3.821  12.205  0.1411  0.1166  0.2592
  268MOL0     O36069   1.552   3.732  12.194 -0.2039  0.8199 -1.0231
  268MOL0     C36070   1.680   3.768  12.236  0.1592 -0.5316  0.0090
  268MOL0     C36071   1.787   3.702  12.177  0.8255 -1.2777 -0.2259
  268MOL0     C36072   1.910   3.733  12.201 -0.1432 -0.5060  0.3547
  268MOL0     C36073   1.943   3.828  12.302  0.2221  0.1013 -0.1032
  268MOL0     C36074   2.079   3.830  12.358  0.4561 -0.3851  0.0084
  268MOL0     O36075   2.096   3.905  12.472  0.0928 -0.0848  0.3645
  268MOL0     C36076   2.222   3.904  12.530 -0.5914 -0.5530 -0.2275
  268MOL0     C36077   2.252   3.825  12.643  0.1937 -0.2343 -0.3848
  268MOL0     C36078   2.373   3.837  12.712 -0.1068  0.2203 -0.6860
  268MOL0     C36079   2.476   3.919  12.659  0.6710  0.3700  0.3160
  268MOL0     O36080   2.586   3.932  12.739 -0.5097  0.3989 -0.2616
  268MOL0     C36081   2.706   3.986  12.688 -0.4446 -0.6489 -0.7305
  268MOL0     C36082   2.772   3.905  12.580 -0.4356  0.1176 -0.0418
  268MOL0     C36083   2.912   3.961  12.551  0.6874 -0.1695  0.0470
  268MOL0     C36084   2.968   3.887  12.428 -1.1611 -0.1834  0.3373
  268MOL0     C36085   3.097   3.953  12.376 -1.4062  0.2787 -0.5636
  268MOL0     C36086   3.224   3.917  12.468  0.2571  0.4766 -1.0687
  268MOL0     C36087   3.341   4.002  12.419 -0.0559  0.5909  0.1789
  268MOL0     C36088   3.432   4.051  12.526 -0.1084  0.2691  0.0116
  268MOL0    Cl36089   3.574   4.141  12.460 -0.6830  0.4893  0.0758
  268MOL0     C36090   2.456   3.988  12.533 -0.3573 -0.0468 -0.4626
  268MOL0     C36091   2.331   3.984  12.476 -0.6493 -0.5117  0.9563
  268MOL0     O36092   2.167   3.776  12.295 -0.7626 -0.0948  0.2090
  268MOL0     C36093   1.836   3.903  12.360  0.2515  0.8385  0.6397
  268MOL0     C36094   1.707   3.882  12.321 -0.0327  1.0485 -0.0300
  268MOL0     N36095   0.975   4.039  12.130  1.2264 -0.6155 -0.4391
  268MOL0     N36096   0.862   4.105  12.122  0.0877  0.5829  0.8402
  268MOL0     C36097   0.894   3.732  11.325 -0.9569 -0.1364  0.3414
  268MOL0     C36098   1.030   3.727  11.308 -0.0220  0.2119 -0.2317
  268MOL0     C36099   1.473   3.848  11.146  0.9667  0.0370 -0.0750
  268MOL0     C36100   1.518   3.712  11.148 -0.5838  0.2995  0.1765
  268MOL0     C36101   1.655   3.687  11.171 -0.1394 -0.2956  0.6728
  268MOL0     C36102   1.741   3.786  11.206 -0.1333  0.1868  0.0184
  268MOL0     O36103   1.871   3.759  11.225 -0.1941 -0.2986  0.2392
  268MOL0     C36104   1.968   3.868  11.268  0.0101  0.6503 -0.3237
  268MOL0     C36105   2.096   3.791  11.312  0.0480  0.4017 -0.7843
  268MOL0     C36106   2.186   3.749  11.190 -0.2365 -0.4424  0.9978
  268MOL0     C36107   2.337   3.713  11.237  0.4051 -0.8752 -0.2388
  268MOL0     C36108   2.408   3.840  11.245  0.9829  0.2276  0.8591
  268MOL0     C36109   2.471   3.943  11.248  0.4769  0.1498 -0.0549
  268MOL0     C36110   1.692   3.919  11.210 -0.5554  0.2236  0.7817
  268MOL0     C36111   1.556   3.945  11.187 -0.5521 -0.0255 -0.6779
  268MOL0     C36112   1.521   4.086  11.223 -0.6030  0.4142  0.6753
  268MOL0     H36113   1.070   3.945  11.055 -2.3599  0.8538 -0.6978
  268MOL0     H36114   0.847   3.983  11.100 -0.1195 -2.3311 -3.9999
  268MOL0     H36115   0.513   3.705  11.285  1.6959 -1.4429 -2.6041
  268MOL0     H36116   0.649   3.690  11.389  0.8222 -1.1580 -3.0056
  268MOL0     H36117   0.461   3.833  11.497 -0.8120  2.1780 -0.1218
  268MOL0     H36118   0.472   3.942  11.355  0.6750  2.3916  0.5636
  268MOL0     H36119   0.682   4.027  11.415 -0.8819 -1.4181 -1.2898
  268MOL0     H36120   0.722   3.925  11.539  1.4483 -1.6228 -1.4161
  268MOL0     H36121   0.501   4.128  11.529  2.6949  2.2123 -0.7527
  268MOL0     H36122   0.517   4.008  11.668 -0.7734 -1.2554 -1.2582
  268MOL0     H36123   0.745   4.184  11.584 -1.1593 -0.1371 -0.4573
  268MOL0     H36124   0.617   4.267  11.675 -3.8756 -0.7813  1.2900
  268MOL0     H36125   0.727   4.000  11.772 -0.4056 -0.6015 -0.6782
  268MOL0     H36126   0.814   4.155  11.820 -0.0957 -0.8206  1.2043
  268MOL0     H36127   0.517   4.139  11.877 -0.5372 -3.0737  3.8997
  268MOL0     H36128   0.648   4.243  11.928 -1.4592  0.4665 -2.3260
  268MOL0     H36129   0.602   4.094  12.103  2.4011  0.3494  0.3834
  268MOL0     H36130   0.594   3.952  12.004 -0.0052 -0.6831 -0.4450
  268MOL0     H36131   0.811   3.831  11.936  2.5297  0.3927 -3.7226
  268MOL0     H36132   1.065   3.733  12.045 -1.7265  0.6693  1.6486
  268MOL0     H36133   1.141   3.861  11.941  0.4012 -1.3880  0.0545
  268MOL0     H36134   1.248   3.966  12.130  0.7648 -0.7126 -1.4288
  268MOL0     H36135   1.155   3.857  12.233  0.5996  1.7987 -0.1158
  268MOL0     H36136   1.356   3.756  12.027 -1.7131  2.9935 -0.8326
  268MOL0     H36137   1.291   3.672  12.174  2.0989 -0.0473  1.8707
  268MOL0     H36138   1.413   3.835  12.310 -1.2839 -1.1354  0.0857
  268MOL0     H36139   1.469   3.918  12.161 -0.0074  0.6534  1.3235
  268MOL0     H36140   1.752   3.637  12.097 -1.5510 -1.2147  0.6752
  268MOL0     H36141   1.985   3.673  12.150  0.7673  2.0386 -1.4972
  268MOL0     H36142   2.175   3.751  12.662  1.4030 -1.3017  0.5338
  268MOL0     H36143   2.394   3.770  12.794  0.5899 -0.0933 -1.1085
  268MOL0     H36144   2.677   4.084  12.650 -3.2433  0.7839  4.2693
  268MOL0     H36145   2.780   4.005  12.766 -0.0946  1.9659 -1.6144
  268MOL0     H36146   2.781   3.804  12.621 -0.5239  0.6242  1.2521
  268MOL0     H36147   2.709   3.898  12.490  0.6694 -0.8214 -0.7696
  268MOL0     H36148   2.907   4.069  12.531 -1.8772 -0.0631  0.9586
  268MOL0     H36149   2.975   3.945  12.639  1.8120  3.0624 -0.0276
  268MOL0     H36150   2.896   3.891  12.346 -1.5606 -0.6824  0.6597
  268MOL0     H36151   2.984   3.782  12.452  0.1859  0.3834  2.1284
  268MOL0     H36152   3.079   4.060  12.373  0.0809  0.5284 -1.7022
  268MOL0     H36153   3.110   3.910  12.276 -3.8107 -2.8058  0.2937
  268MOL0     H36154   3.209   3.939  12.575  2.5478 -1.0337 -0.3707
  268MOL0     H36155   3.266   3.817  12.468  0.3417  0.4966 -0.1142
  268MOL0     H36156   3.303   4.089  12.365 -0.1206  1.4636  1.5724
  268MOL0     H36157   3.400   3.931  12.360  0.2782 -0.9152  2.2207
  268MOL0     H36158   3.379   4.115  12.597  0.9214  1.8321 -0.5698
  268MOL0     H36159   3.472   3.961  12.573 -0.8286 -1.0008 -1.6868
  268MOL0     H36160   2.535   4.049  12.490  0.3955 -2.0848 -2.0991
  268MOL0     H36161   2.313   4.049  12.392 -0.5833 -0.4281  1.0067
  268MOL0     H36162   1.863   3.973  12.438  1.5116  0.6236  0.4231
  268MOL0     H36163   1.627   3.946  12.357 -0.8194  0.5735 -0.8772
  268MOL0     H36164   0.846   3.668  11.399 -0.8037  0.3579  0.8746
  268MOL0     H36165   1.088   3.659  11.369  1.3149 -0.9178 -2.6157
  268MOL0     H36166   1.447   3.632  11.130 -2.2185  1.7025  0.0181
  268MOL0     H36167   1.684   3.585  11.153 -1.5155 -0.5378 -0.3139
  268MOL0     H36168   1.935   3.921  11.357 -0.6264 -1.8502  1.0064
  268MOL0     H36169   1.988   3.940  11.188  0.1193  2.1620  1.0100
  268MOL0     H36170   2.069   3.705  11.373  0.0385  3.4000  3.9399
  268MOL0     H36171   2.151   3.860  11.377 -1.9224  0.0392  1.3763
  268MOL0     H36172   2.183   3.823  11.110  3.4974 -0.9538  0.2115
  268MOL0     H36173   2.145   3.654  11.153 -2.9226  1.4468 -1.2645
  268MOL0     H36174   2.332   3.663  11.335 -0.0334  0.0890  0.2515
  268MOL0     H36175   2.376   3.639  11.168  0.4797 -1.5035  0.4637
  268MOL0     H36176   2.521   4.038  11.237  2.2561 -1.0370 -3.7738
  268MOL0     H36177   1.761   4.002  11.224 -0.2497  0.1055  0.0170
  268MOL0     H36178   1.439   4.092  11.296  0.8352  0.8936  2.3387
  268MOL0     H36179   1.611   4.136  11.261 -0.2981 -1.2430  2.2812
  268MOL0     H36180   1.484   4.136  11.133 -0.3759 -0.3432  0.1512
  269MOL0     O36181   3.081   8.991   6.786  0.2185  0.1088  0.3579
  269MOL0     C36182   3.001   9.086   6.786  0.2316  0.3992 -0.4578
  269MOL0     O36183   2.968   9.163   6.895  0.7776 -0.4895  0.0708
  269MOL0     C36184   3.035   9.134   7.011 -0.2814 -0.6680  0.3267
  269MOL0     C36185   3.004   9.023   7.089 -0.0184  0.3345  0.7880
  269MOL0     C36186   3.076   9.011   7.209 -0.2289 -0.7934 -0.6372
  269MOL0     C36187   3.178   9.102   7.246  0.0061 -0.1101 -0.1352
  269MOL0     O36188   3.258   9.081   7.358 -0.1349 -0.3127 -0.7081
  269MOL0     C36189   3.209   8.990   7.462  0.2447 -0.3197 -0.6673
  269MOL0     C36190   3.277   9.014   7.588 -0.6237  0.4736  0.3201
  269MOL0     C36191   3.434   8.974   7.576  0.0039  0.3056 -0.0469
  269MOL0     C36192   3.517   9.056   7.684 -0.2353 -0.1022 -0.0249
  269MOL0     C36193   3.663   9.031   7.676 -0.0779 -1.1454 -0.3106
  269MOL0     C36194   3.738   9.138   7.771  0.0055  0.2364  0.0525
  269MOL0     C36195   3.880   9.112   7.772 -0.3846  0.0107 -0.2214
  269MOL0     C36196   3.957   9.208   7.864  0.5925 -0.0736 -0.4161
  269MOL0     N36197   4.092   9.161   7.880  0.0961 -0.8289  0.0768
  269MOL0     C36198   4.193   9.166   7.785  0.2743 -0.1659  0.7978
  269MOL0     C36199   4.303   9.112   7.850  0.8394  0.1151  0.3609
  269MOL0     C36200   4.436   9.074   7.784  0.3561  0.4083 -0.5842
  269MOL0     C36201   4.560   9.091   7.878  0.8943 -0.4266  0.0218
  269MOL0     C36202   4.571   9.006   7.995 -0.1963  0.3969 -0.3031
  269MOL0     C36203   4.717   8.960   8.019  0.7016  0.0033  0.1018
  269MOL0     O36204   4.807   9.075   8.009  0.7452  0.1978 -0.0952
  269MOL0     C36205   4.942   9.053   8.033  0.1186  0.0262  0.7812
  269MOL0     C36206   5.019   9.151   8.102 -0.1369  0.7184  0.8407
  269MOL0     C36207   5.154   9.133   8.118 -0.1064 -0.6596  0.5625
  269MOL0     C36208   5.221   9.030   8.068  0.4008 -0.2528  0.1382
  269MOL0     C36209   5.370   9.013   8.083  0.3730 -0.6415 -0.6996
  269MOL0     O36210   5.435   9.136   8.089  0.0159  0.0653  0.4887
  269MOL0     C36211   5.574   9.142   8.098  0.1025  0.1557 -0.4896
  269MOL0     C36212   5.649   9.089   8.210  0.1373  0.3955  0.0180
  269MOL0     C36213   5.792   9.095   8.211  0.2815 -0.0290  0.4698
  269MOL0     C36214   5.859   9.154   8.104 -0.5414 -0.6254  0.8053
  269MOL0     O36215   5.998   9.160   8.109  0.1405  0.4025 -0.2498
  269MOL0     C36216   6.061   9.230   8.009  0.4058 -0.4843  0.8403
  269MOL0     C36217   6.216   9.225   8.037  0.0762  0.2529  0.1109
  269MOL0     C36218   6.286   9.309   7.929 -0.1863  0.4977  0.4540
  269MOL0     C36219   6.437   9.317   7.969 -0.6431 -0.0182 -0.0250
  269MOL0     C36220   6.523   9.390   7.867  0.6735  0.3850 -0.3604
  269MOL0     C36221   6.671   9.407   7.908  0.1504  0.1386  0.7595
  269MOL0     C36222   6.748   9.470   7.794  0.0445  0.4498  0.3406
  269MOL0     C36223   6.897   9.501   7.840 -0.3819  0.2575 -0.1539
  269MOL0    Cl36224   6.990   9.541   7.692 -0.4259  0.6471 -0.4102
  269MOL0     C36225   5.782   9.211   7.996  0.1296  0.5704  0.4800
  269MOL0     C36226   5.641   9.199   7.989 -0.1169  0.6213 -0.5489
  269MOL0     O36227   5.421   8.899   8.111 -0.3271 -0.0321  0.5515
  269MOL0     C36228   5.149   8.933   7.997 -0.3215  0.3988 -0.5976
  269MOL0     C36229   5.011   8.943   7.987  0.6776  0.0049  0.2709
  269MOL0     N36230   4.264   9.047   7.968  0.4327  0.3568  0.2586
  269MOL0     N36231   4.136   9.076   7.980 -0.3332  1.2897  0.8010
  269MOL0     C36232   3.206   9.213   7.161  0.3964  0.4851  0.4402
  269MOL0     C36233   3.128   9.233   7.042  0.8381  0.1814  0.5736
  269MOL0     C36234   2.949   9.123   6.654  0.3308  0.1600 -0.6775
  269MOL0     C36235   2.908   9.018   6.578 -0.8432 -0.6147 -0.8578
  269MOL0     C36236   2.849   9.028   6.451  0.1542 -0.1087 -0.0571
  269MOL0     C36237   2.847   9.154   6.397 -0.3364  0.4990 -0.5774
  269MOL0     O36238   2.802   9.199   6.275 -0.6140 -0.0171 -0.4757
  269MOL0     C36239   2.737   9.114   6.180  0.3554 -0.5700  0.3707
  269MOL0     C36240   2.587   9.109   6.199 -0.0195  0.2877 -0.5607
  269MOL0     C36241   2.539   9.013   6.303  0.0664  0.3250 -0.0805
  269MOL0     C36242   2.392   8.995   6.280  0.2698 -0.5505  0.2593
  269MOL0     C36243   2.317   8.925   6.394 -0.1127  0.2290 -0.7918
  269MOL0     C36244   2.265   8.874   6.494  0.2988  0.0302  0.4947
  269MOL0     C36245   2.897   9.263   6.469  0.5429  0.7564  0.0655
  269MOL0     C36246   2.937   9.248   6.600 -1.3913 -0.1384  0.2952
  269MOL0     C36247   2.996   9.375   6.673 -0.8603  0.1024  0.1704
  269MOL0     H36248   2.917   8.963   7.064  0.9592 -2.6976  3.8694
  269MOL0     H36249   3.049   8.930   7.276  2.6937 -0.1405  1.5521
  269MOL0     H36250   3.103   9.007   7.485  0.1312 -0.2183 -1.2537
  269MOL0     H36251   3.227   8.886   7.432  0.4676 -0.0241 -1.5767
  269MOL0     H36252   3.234   8.955   7.670 -1.1484 -0.4517 -0.5972
  269MOL0     H36253   3.270   9.119   7.617 -0.0466  1.3356 -2.3983
  269MOL0     H36254   3.467   8.995   7.474 -1.3706 -1.3006 -0.8635
  269MOL0     H36255   3.441   8.867   7.597  0.7643  0.3481 -0.0521
  269MOL0     H36256   3.498   9.164   7.674  2.5611  0.5026  0.3604
  269MOL0     H36257   3.478   9.027   7.782 -1.3857  1.4926  0.0333
  269MOL0     H36258   3.680   8.927   7.705 -2.7727 -1.4516  0.4768
  269MOL0     H36259   3.700   9.040   7.574 -0.7093 -1.2249 -0.5472
  269MOL0     H36260   3.718   9.242   7.741 -0.5764  0.6816  1.8511
  269MOL0     H36261   3.703   9.121   7.873  1.2601  2.0148  0.8360
  269MOL0     H36262   3.925   9.130   7.674  3.9745  0.7348  1.6688
  269MOL0     H36263   3.902   9.008   7.798  0.4579 -0.1456 -1.4663
  269MOL0     H36264   3.952   9.310   7.824  1.0528  0.6633  1.3090
  269MOL0     H36265   3.909   9.207   7.962  0.0187 -0.5329 -0.6938
  269MOL0     H36266   4.186   9.201   7.683  1.4203  1.1780  1.1429
  269MOL0     H36267   4.428   8.970   7.752 -0.9997  0.0649  0.7507
  269MOL0     H36268   4.453   9.141   7.699 -0.2027  0.6843 -0.4792
  269MOL0     H36269   4.649   9.072   7.817  1.0284 -1.6098  0.5641
  269MOL0     H36270   4.576   9.191   7.919  0.7722  0.2302 -1.4497
  269MOL0     H36271   4.518   8.913   7.972 -0.8781 -0.1608  3.0294
  269MOL0     H36272   4.510   9.032   8.082 -1.9668 -2.1736 -0.6461
  269MOL0     H36273   4.735   8.879   7.948  0.0115 -0.7226  0.7308
  269MOL0     H36274   4.726   8.914   8.118 -0.3737 -1.1179 -0.2957
  269MOL0     H36275   4.972   9.246   8.129  0.3701  1.5446 -1.0474
  269MOL0     H36276   5.211   9.210   8.169 -0.3479 -0.1201  0.0276
  269MOL0     H36277   5.592   9.063   8.299 -0.5810  0.3587 -0.4466
  269MOL0     H36278   5.849   9.060   8.296 -1.1723  2.9974  2.8680
  269MOL0     H36279   6.035   9.191   7.910 -2.9181 -2.0856  2.1712
  269MOL0     H36280   6.014   9.328   8.022 -2.2112 -1.8200  2.4844
  269MOL0     H36281   6.237   9.259   8.139  0.3574 -1.8783  0.8188
  269MOL0     H36282   6.259   9.125   8.022  1.4079  0.9168 -0.7045
  269MOL0     H36283   6.291   9.270   7.827  2.0787  4.4388 -1.1960
  269MOL0     H36284   6.238   9.407   7.924 -2.5927 -0.6870 -2.5078
  269MOL0     H36285   6.466   9.213   7.982 -2.1968 -0.6239 -0.9979
  269MOL0     H36286   6.454   9.369   8.063  0.7116 -0.8957  0.2359
  269MOL0     H36287   6.477   9.488   7.860 -1.9859 -0.5069  2.4137
  269MOL0     H36288   6.514   9.341   7.770 -1.2416 -0.0865  0.0093
  269MOL0     H36289   6.666   9.488   7.982 -1.3932 -1.8302  2.9737
  269MOL0     H36290   6.725   9.318   7.942  1.9577  0.5449 -0.8867
  269MOL0     H36291   6.696   9.561   7.762  2.3677  0.5340 -3.8430
  269MOL0     H36292   6.744   9.410   7.703  0.8676  2.6657 -1.2420
  269MOL0     H36293   6.917   9.580   7.914  0.8934  1.1777 -1.4234
  269MOL0     H36294   6.948   9.415   7.884 -1.6598 -0.8344 -0.7457
  269MOL0     H36295   5.824   9.268   7.913 -0.5486 -0.9413 -0.9640
  269MOL0     H36296   5.587   9.228   7.900  0.9350 -0.5249 -1.6098
  269MOL0     H36297   5.205   8.851   7.952 -0.6549  0.8510 -1.8929
  269MOL0     H36298   4.959   8.866   7.931  0.4278  0.5104 -0.1933
  269MOL0     H36299   3.289   9.280   7.181 -0.1582  1.2569  0.2158
  269MOL0     H36300   3.166   9.304   6.970  0.6837  1.1395  1.4231
  269MOL0     H36301   2.904   8.921   6.627 -0.5092 -2.1343 -3.6521
  269MOL0     H36302   2.812   8.943   6.395  0.3121 -1.4591  1.8028
  269MOL0     H36303   2.791   9.019   6.175  2.9665  0.8530 -0.4536
  269MOL0     H36304   2.757   9.171   6.088  0.7049 -0.6398  0.4014
  269MOL0     H36305   2.546   9.082   6.101  1.0102  1.6598 -1.4218
  269MOL0     H36306   2.545   9.206   6.227 -2.4852 -1.5606  2.9105
  269MOL0     H36307   2.557   9.059   6.400  0.6866 -0.3569  0.1348
  269MOL0     H36308   2.593   8.918   6.297 -1.0455 -0.2776 -0.9938
  269MOL0     H36309   2.352   9.097   6.275  1.0293 -0.2130  0.8788
  269MOL0     H36310   2.365   8.942   6.189 -0.4980  0.1569  0.0649
  269MOL0     H36311   2.231   8.831   6.586  0.0358 -0.8775 -0.0201
  269MOL0     H36312   2.888   9.354   6.411  0.0920  1.0599  0.5982
  269MOL0     H36313   3.104   9.377   6.658 -0.7983  1.1719  0.7027
  269MOL0     H36314   2.953   9.464   6.625  1.2271  1.1791  0.1916
  269MOL0     H36315   2.982   9.388   6.781 -2.7692  2.5527 -0.2799
  270MOL0     O36316   1.589  10.984   6.353 -0.7005  0.4796  0.2093
  270MOL0     C36317   1.508  10.897   6.335  0.1702  0.2515  0.7655
  270MOL0     O36318   1.530  10.764   6.321  0.5816  0.1425 -0.0134
  270MOL0     C36319   1.659  10.729   6.338  0.3305  0.5391 -0.4489
  270MOL0     C36320   1.718  10.668   6.220 -0.3092  0.6694 -1.3108
  270MOL0     C36321   1.855  10.621   6.225  0.4729  0.3100 -0.5579
  270MOL0     C36322   1.932  10.632   6.346  0.0941  0.4241  0.4357
  270MOL0     O36323   2.052  10.571   6.350 -0.7170  0.0369 -0.3581
  270MOL0     C36324   2.120  10.555   6.472 -0.2287  0.1086  0.1328
  270MOL0     C36325   2.260  10.514   6.450 -0.8971 -0.2680  0.7663
  270MOL0     C36326   2.269  10.367   6.408 -0.0996 -0.4789  0.7798
  270MOL0     C36327   2.413  10.322   6.388  0.1238  0.1137  0.4214
  270MOL0     C36328   2.421  10.176   6.361 -0.5788  0.4145 -0.0363
  270MOL0     C36329   2.578  10.138   6.361 -0.0247  0.0598 -0.4554
  270MOL0     C36330   2.597   9.989   6.361 -0.3799  0.1463 -0.0516
  270MOL0     C36331   2.562   9.911   6.231  0.2684  0.4474  0.5683
  270MOL0     N36332   2.660   9.961   6.121 -0.7822 -0.9363 -0.0321
  270MOL0     C36333   2.780   9.905   6.101 -0.6138  0.4672  0.2203
  270MOL0     C36334   2.820   9.954   5.983  1.0413 -0.3428 -0.2615
  270MOL0     C36335   2.944   9.925   5.904 -0.0170 -0.3184 -0.1148
  270MOL0     C36336   2.985   9.783   5.895  0.6756 -0.0075 -0.2477
  270MOL0     C36337   3.091   9.762   5.786 -0.6007  0.0606  0.3768
  270MOL0     C36338   3.209   9.847   5.800 -0.2854 -0.1619  0.0832
  270MOL0     O36339   3.320   9.792   5.733 -0.4240  0.0071 -0.4987
  270MOL0     C36340   3.444   9.846   5.756 -0.2733  0.4382 -0.7761
  270MOL0     C36341   3.557   9.768   5.785 -0.6393 -0.0790 -0.0880
  270MOL0     C36342   3.677   9.837   5.809  0.2744  0.0507 -0.9485
  270MOL0     C36343   3.685   9.977   5.821 -0.8374  0.3794  0.7290
  270MOL0     C36344   3.805  10.047   5.865 -0.5776  0.4235 -0.7036
  270MOL0     O36345   3.927   9.972   5.866 -0.3842 -0.4687  0.6261
  270MOL0     C36346   4.056  10.036   5.886  0.5810 -0.3422  0.5224
  270MOL0     C36347   4.104  10.097   5.770 -0.0078 -0.0830 -1.1259
  270MOL0     C36348   4.240  10.139   5.779 -0.3189 -0.3556  0.7465
  270MOL0     C36349   4.320  10.122   5.893  0.1342 -0.0133  0.0699
  270MOL0     O36350   4.451  10.148   5.884  0.2157  0.7370  0.2677
  270MOL0     C36351   4.525  10.102   6.001  0.1567  0.2845 -0.6489
  270MOL0     C36352   4.659  10.168   5.992 -1.0176 -0.7418  0.4331
  270MOL0     C36353   4.748  10.111   6.104  0.2878  0.1584  0.2037
  270MOL0     C36354   4.876  10.189   6.106 -0.5174 -0.7836 -0.0523
  270MOL0     C36355   4.983  10.174   6.214  0.0464  0.2672  0.8407
  270MOL0     C36356   4.998  10.025   6.255  0.3072  0.4064  0.0706
  270MOL0     C36357   5.123  10.011   6.343 -0.0476 -1.1112  0.1542
  270MOL0     C36358   5.163   9.874   6.389  0.1547 -0.6760 -0.7114
  270MOL0    Cl36359   5.317   9.881   6.479 -0.1828  0.3026 -0.3691
  270MOL0     C36360   4.261  10.064   6.007 -0.6213 -0.5747 -0.4576
  270MOL0     C36361   4.132  10.023   6.003  0.6395 -0.8039  0.1690
  270MOL0     O36362   3.793  10.162   5.898 -0.0296  0.2584  0.1948
  270MOL0     C36363   3.570  10.056   5.794 -0.2926  0.0801  0.4448
  270MOL0     C36364   3.452   9.985   5.755 -0.6079  0.0915  0.4145
  270MOL0     N36365   2.727  10.051   5.943 -0.4674  0.2588  0.1384
  270MOL0     N36366   2.633  10.057   6.030  0.2638  0.2668 -0.3736
  270MOL0     C36367   1.879  10.699   6.453  0.5141 -0.8190  0.2896
  270MOL0     C36368   1.745  10.746   6.448 -0.6779  0.0725 -0.0177
  270MOL0     C36369   1.368  10.942   6.332 -0.1520 -0.2432  0.2953
  270MOL0     C36370   1.320  11.023   6.438 -0.0408  0.0441 -0.9070
  270MOL0     C36371   1.189  11.061   6.431 -0.1148 -0.3762 -0.4158
  270MOL0     C36372   1.100  11.036   6.328  0.5550 -1.0553 -0.4073
  270MOL0     O36373   0.968  11.082   6.315 -0.7019 -0.5062 -0.2576
  270MOL0     C36374   0.911  11.176   6.416  0.0935 -0.8665  0.1637
  270MOL0     C36375   0.774  11.218   6.375 -0.0602 -0.1089  0.9313
  270MOL0     C36376   0.718  11.321   6.474  0.1111 -0.0766  0.6631
  270MOL0     C36377   0.746  11.466   6.451 -0.7890 -1.1101  0.4428
  270MOL0     C36378   0.886  11.502   6.470 -0.3383 -0.3180  0.3553
  270MOL0     C36379   0.999  11.537   6.452 -0.3115  0.1430  0.0129
  270MOL0     C36380   1.155  10.958   6.224  0.3060  0.2896  0.0327
  270MOL0     C36381   1.280  10.904   6.222 -0.1227  0.5527  0.1526
  270MOL0     C36382   1.327  10.817   6.102  0.5089 -0.7288  0.3285
  270MOL0     H36383   1.657  10.645   6.133 -0.3680 -1.0652 -0.8595
  270MOL0     H36384   1.883  10.562   6.139 -0.1952 -1.8966  0.6421
  270MOL0     H36385   2.123  10.656   6.513  0.8131  0.2090 -0.1540
  270MOL0     H36386   2.056  10.484   6.524 -2.1916  2.5814  1.3007
  270MOL0     H36387   2.321  10.521   6.541 -0.6988 -1.9132  0.7947
  270MOL0     H36388   2.304  10.570   6.367  0.0302 -0.7205  0.9466
  270MOL0     H36389   2.215  10.341   6.317 -1.8706 -0.2782  1.7197
  270MOL0     H36390   2.212  10.307   6.479 -1.7912 -1.4082 -1.2572
  270MOL0     H36391   2.462  10.376   6.305  0.6424 -1.0564 -0.0620
  270MOL0     H36392   2.476  10.334   6.477 -0.1751 -3.0656  1.1781
  270MOL0     H36393   2.371  10.115   6.437 -0.0605 -1.4635 -1.1342
  270MOL0     H36394   2.379  10.165   6.260  0.7347  1.9628 -0.7939
  270MOL0     H36395   2.637  10.183   6.281  3.0283  0.4029  1.8102
  270MOL0     H36396   2.626  10.174   6.452 -4.8890  1.4344  1.9090
  270MOL0     H36397   2.549   9.943   6.447 -0.1266 -4.2771 -2.0151
  270MOL0     H36398   2.703   9.964   6.359 -0.4973 -0.3565 -1.4320
  270MOL0     H36399   2.579   9.803   6.243  0.9621  0.4062 -0.6029
  270MOL0     H36400   2.458   9.933   6.205 -1.2531 -1.6559  4.1358
  270MOL0     H36401   2.831   9.833   6.164  0.6608 -0.8157 -2.1174
  270MOL0     H36402   2.923   9.969   5.806 -2.3846  0.4668  0.6759
  270MOL0     H36403   3.024   9.981   5.954 -0.7932 -0.3746  1.2200
  270MOL0     H36404   3.026   9.748   5.990  2.5163 -1.1489 -1.3811
  270MOL0     H36405   2.891   9.729   5.879 -1.1552  3.5271 -2.8681
  270MOL0     H36406   3.051   9.780   5.685  1.1484  0.4337 -0.3059
  270MOL0     H36407   3.120   9.658   5.804  1.9528  1.0408  2.6298
  270MOL0     H36408   3.239   9.847   5.905  2.0705 -0.3895 -0.5279
  270MOL0     H36409   3.191   9.947   5.760  2.3763  1.2584  2.1374
  270MOL0     H36410   3.540   9.661   5.784 -0.2446 -0.1436  0.1687
  270MOL0     H36411   3.770   9.781   5.819  1.1989  1.4514 -1.3701
  270MOL0     H36412   4.049  10.112   5.678  0.1606 -2.4193 -1.6708
  270MOL0     H36413   4.289  10.177   5.691  1.2988 -1.5610  1.0808
  270MOL0     H36414   4.482  10.129   6.098 -0.2581  0.1469 -0.7925
  270MOL0     H36415   4.546   9.995   6.007 -0.8695  0.1258  4.1654
  270MOL0     H36416   4.694  10.151   5.889 -1.0405  0.0821  0.2860
  270MOL0     H36417   4.652  10.277   6.001 -0.3853 -0.8219  2.2740
  270MOL0     H36418   4.695  10.114   6.199  0.8026 -0.5757  0.5261
  270MOL0     H36419   4.777  10.008   6.080  0.0943  0.6361 -2.4181
  270MOL0     H36420   4.856  10.296   6.091  1.7023 -0.6340 -2.7131
  270MOL0     H36421   4.926  10.153   6.015 -1.4210 -0.4208 -0.7106
  270MOL0     H36422   4.943  10.236   6.295 -5.1183 -0.5933 -0.6655
  270MOL0     H36423   5.078  10.212   6.176 -0.2709  0.6687  0.4340
  270MOL0     H36424   4.905   9.998   6.306  0.3427 -1.3691 -0.7150
  270MOL0     H36425   5.006   9.958   6.169 -2.1507  0.3238 -0.1754
  270MOL0     H36426   5.101  10.065   6.435  3.0608 -1.0442  0.9481
  270MOL0     H36427   5.200  10.071   6.293 -1.1519  1.3487  1.2215
  270MOL0     H36428   5.090   9.839   6.463  1.2434  5.0684  3.8459
  270MOL0     H36429   5.173   9.820   6.294  2.5756 -2.0369  0.2110
  270MOL0     H36430   4.301  10.072   6.108 -1.5894 -0.8141 -0.0354
  270MOL0     H36431   4.089   9.972   6.089  1.2808 -5.2513 -1.8683
  270MOL0     H36432   3.567  10.165   5.797 -2.0483  0.1174 -0.9216
  270MOL0     H36433   3.376  10.051   5.717  0.7975  0.6398 -1.6269
  270MOL0     H36434   1.937  10.727   6.541 -2.4944 -1.2917  2.6184
  270MOL0     H36435   1.701  10.800   6.531 -1.8290 -0.4344 -0.2784
  270MOL0     H36436   1.374  11.062   6.524  1.2301 -2.6154 -0.3802
  270MOL0     H36437   1.147  11.123   6.509 -1.2995  2.0477 -2.8328
  270MOL0     H36438   0.980  11.261   6.419  1.5834 -2.0415  0.3932
  270MOL0     H36439   0.912  11.129   6.515  1.3787 -3.0575 -0.8011
  270MOL0     H36440   0.698  11.140   6.384 -0.9901  0.3264 -2.0748
  270MOL0     H36441   0.763  11.249   6.271 -2.1714 -1.1977  0.7591
  270MOL0     H36442   0.751  11.288   6.573  0.7343 -2.2354 -0.2008
  270MOL0     H36443   0.609  11.329   6.466  0.1064 -1.3206 -1.1912
  270MOL0     H36444   0.719  11.489   6.348  0.0768  0.7540  0.5803
  270MOL0     H36445   0.687  11.529   6.519 -0.0071  1.6658 -1.2868
  270MOL0     H36446   1.102  11.559   6.437 -0.4611 -0.7155 -2.8597
  270MOL0     H36447   1.093  10.929   6.140  1.9185  0.0763 -1.1262
  270MOL0     H36448   1.415  10.864   6.058 -0.3810 -0.1127 -0.8254
  270MOL0     H36449   1.348  10.717   6.143 -1.8606 -0.0403  3.6161
  270MOL0     H36450   1.243  10.813   6.032 -0.1005  0.4996  0.9599
  271MOL0     O36451   5.666   8.009   6.304  0.1589 -0.3215  0.2026
  271MOL0     C36452   5.585   7.971   6.382  0.5383 -0.3642  0.0236
  271MOL0     O36453   5.601   7.879   6.478  0.3981 -0.4202 -0.2738
  271MOL0     C36454   5.722   7.821   6.501 -0.7959  0.5455 -0.0313
  271MOL0     C36455   5.842   7.877   6.551 -0.4739 -0.0223  0.1115
  271MOL0     C36456   5.955   7.795   6.566  0.7263 -0.1377 -0.1731
  271MOL0     C36457   5.951   7.657   6.535 -0.6043  0.3197 -0.3967
  271MOL0     O36458   6.045   7.566   6.553  0.0445  0.5732 -0.0338
  271MOL0     C36459   6.178   7.608   6.517  0.9600 -0.4494  0.3896
  271MOL0     C36460   6.287   7.510   6.575  0.4609 -0.0574  0.3467
  271MOL0     C36461   6.424   7.532   6.517 -0.0184  0.8828 -0.4839
  271MOL0     C36462   6.437   7.468   6.372 -0.0043  0.0647 -0.2149
  271MOL0     C36463   6.587   7.439   6.338 -0.5968  0.3133 -0.4161
  271MOL0     C36464   6.666   7.564   6.326  0.0852 -0.1586  0.3721
  271MOL0     C36465   6.604   7.667   6.231 -0.0552 -0.1563  0.6921
  271MOL0     C36466   6.696   7.779   6.187  0.6840 -0.2047  0.5408
  271MOL0     N36467   6.802   7.726   6.108 -0.1317  0.9957 -0.5228
  271MOL0     C36468   6.810   7.713   5.969 -0.1472  0.3105  0.1473
  271MOL0     C36469   6.933   7.669   5.949  0.2727  0.5687  0.9202
  271MOL0     C36470   7.001   7.652   5.810 -0.2241  0.7101 -0.7572
  271MOL0     C36471   7.096   7.772   5.795  0.7217  0.6192 -0.4592
  271MOL0     C36472   7.136   7.794   5.651 -0.1760 -0.3756  0.2419
  271MOL0     C36473   7.200   7.929   5.639  0.0374  0.2909 -0.0497
  271MOL0     O36474   7.329   7.924   5.695 -0.5709  0.4563  0.1493
  271MOL0     C36475   7.427   8.024   5.681  0.7078 -0.3179  0.6106
  271MOL0     C36476   7.568   7.999   5.687  0.8486 -0.0753  0.7381
  271MOL0     C36477   7.664   8.102   5.680  0.7168  0.3051 -0.6773
  271MOL0     C36478   7.623   8.234   5.675 -0.0950  0.5348  0.2258
  271MOL0     C36479   7.717   8.350   5.697  0.2809 -0.0173 -0.8977
  271MOL0     O36480   7.839   8.313   5.749  0.7254  0.3051 -0.0333
  271MOL0     C36481   7.928   8.406   5.776 -0.0567  0.0823  0.8072
  271MOL0     C36482   7.978   8.412   5.905 -0.1070  0.4471  0.0713
  271MOL0     C36483   8.083   8.497   5.938 -0.0488 -0.0916 -0.2004
  271MOL0     C36484   8.147   8.578   5.850 -0.6643 -0.2266 -0.1086
  271MOL0     O36485   8.243   8.671   5.894 -0.1647  1.0597 -0.9992
  271MOL0     C36486   8.284   8.772   5.805 -0.0900 -0.1971  0.1700
  271MOL0     C36487   8.373   8.872   5.877 -1.2374  0.1797  0.7699
  271MOL0     C36488   8.448   8.964   5.770  0.3712  0.2644 -0.1322
  271MOL0     C36489   8.523   9.084   5.820 -0.2958  0.3523 -0.7257
  271MOL0     C36490   8.602   9.148   5.712  0.1443  0.0777 -0.2447
  271MOL0     C36491   8.708   9.241   5.779  0.0141 -1.2639 -0.1016
  271MOL0     C36492   8.773   9.321   5.675 -1.1181 -0.3144 -0.2904
  271MOL0     C36493   8.868   9.427   5.726  0.0422  0.0867 -0.4044
  271MOL0    Cl36494   8.908   9.526   5.585 -0.0865 -0.6265  0.1039
  271MOL0     C36495   8.093   8.582   5.716 -0.0696 -0.1637 -0.0835
  271MOL0     C36496   7.991   8.494   5.679 -0.2020  0.5235  0.0193
  271MOL0     O36497   7.675   8.464   5.691 -0.5669 -0.1976 -0.0754
  271MOL0     C36498   7.486   8.255   5.650  0.4885 -0.7578 -0.0763
  271MOL0     C36499   7.389   8.150   5.658  0.4402 -1.4568 -0.5366
  271MOL0     N36500   6.995   7.645   6.066 -0.0381  0.0813 -0.6181
  271MOL0     N36501   6.927   7.689   6.164  0.1793 -0.5302 -0.4378
  271MOL0     C36502   5.835   7.603   6.482 -0.5267 -0.4943 -0.7354
  271MOL0     C36503   5.722   7.686   6.468  0.6237  0.1045 -0.5084
  271MOL0     C36504   5.445   8.023   6.386  0.0639 -0.0764 -0.2754
  271MOL0     C36505   5.346   7.946   6.447  0.5255 -0.1071 -0.1498
  271MOL0     C36506   5.208   7.967   6.421 -1.0295  0.2319 -0.5251
  271MOL0     C36507   5.167   8.080   6.356  0.3623 -0.0367  0.6418
  271MOL0     O36508   5.034   8.105   6.331  0.5056  0.5482  0.3608
  271MOL0     C36509   4.939   8.001   6.344  0.7330  0.6577  0.4728
  271MOL0     C36510   4.803   8.035   6.281  0.0998 -0.0371  0.0039
  271MOL0     C36511   4.745   8.179   6.302 -0.7412  0.4411  0.4424
  271MOL0     C36512   4.744   8.213   6.449  0.6547 -0.0642 -0.7688
  271MOL0     C36513   4.728   8.359   6.471  0.1592  0.4414 -0.9151
  271MOL0     C36514   4.713   8.482   6.495  0.7834  0.0935  0.9502
  271MOL0     C36515   5.263   8.173   6.316  0.7654  0.0193 -0.5678
  271MOL0     C36516   5.402   8.142   6.319 -0.2963 -0.3959  0.4322
  271MOL0     C36517   5.505   8.238   6.259  0.4779  0.3758 -1.0920
  271MOL0     H36518   5.856   7.984   6.561 -0.7346 -0.0355  0.6187
  271MOL0     H36519   6.044   7.845   6.604  1.8464 -1.5189 -0.8722
  271MOL0     H36520   6.186   7.605   6.408 -0.2839 -1.6462  0.3071
  271MOL0     H36521   6.200   7.707   6.558 -1.2472 -0.1494  0.9944
  271MOL0     H36522   6.252   7.408   6.558 -1.0563  0.7508 -1.7265
  271MOL0     H36523   6.292   7.523   6.683 -1.1732  1.0349  0.3194
  271MOL0     H36524   6.504   7.484   6.574  1.5879  3.1026 -0.7603
  271MOL0     H36525   6.440   7.640   6.517  1.2100  0.7337  1.2191
  271MOL0     H36526   6.384   7.372   6.373 -2.2370  1.2365 -0.8597
  271MOL0     H36527   6.397   7.535   6.295 -0.3510  0.7453  0.5503
  271MOL0     H36528   6.642   7.387   6.417 -0.0883  1.1232 -0.2208
  271MOL0     H36529   6.596   7.380   6.246  1.7566 -0.2146  0.0778
  271MOL0     H36530   6.672   7.623   6.418 -0.4146 -0.4506  0.5959
  271MOL0     H36531   6.764   7.538   6.284 -0.2105  1.6486 -1.5963
  271MOL0     H36532   6.519   7.711   6.285 -1.8065 -0.0472 -1.9725
  271MOL0     H36533   6.568   7.618   6.140  1.1942 -0.0251  0.1103
  271MOL0     H36534   6.640   7.854   6.132  1.2619  1.1742  1.7519
  271MOL0     H36535   6.749   7.828   6.270  3.1635 -2.7109  0.6204
  271MOL0     H36536   6.740   7.748   5.894 -1.0693 -3.5783 -1.0010
  271MOL0     H36537   7.047   7.553   5.810 -0.8873  0.3925 -0.7092
  271MOL0     H36538   6.919   7.643   5.738 -0.6464  1.3745 -0.3735
  271MOL0     H36539   7.057   7.864   5.838  1.2991  1.3266 -1.3882
  271MOL0     H36540   7.185   7.741   5.851  0.9303  0.4568 -0.8746
  271MOL0     H36541   7.055   7.779   5.579  0.2328  3.0583 -1.0827
  271MOL0     H36542   7.207   7.713   5.631 -0.3328 -0.3437 -0.4619
  271MOL0     H36543   7.140   8.000   5.698 -1.3522 -2.8074  2.6445
  271MOL0     H36544   7.207   7.956   5.534 -2.8521 -1.5054 -0.8161
  271MOL0     H36545   7.600   7.897   5.707 -1.4578 -1.6660 -2.7078
  271MOL0     H36546   7.768   8.075   5.697  0.7372  0.0876 -1.1293
  271MOL0     H36547   7.934   8.354   5.985  2.1289 -0.0981  0.9784
  271MOL0     H36548   8.117   8.507   6.040  0.2211  1.8402 -0.4489
  271MOL0     H36549   8.335   8.732   5.717  0.4445 -2.8492  1.5870
  271MOL0     H36550   8.194   8.827   5.777 -0.3224 -0.5895  0.1354
  271MOL0     H36551   8.306   8.922   5.948 -1.3946  1.0753  0.0114
  271MOL0     H36552   8.446   8.813   5.933  1.5709  2.0555 -0.6571
  271MOL0     H36553   8.513   8.911   5.700 -0.7421  1.2880 -2.0175
  271MOL0     H36554   8.369   9.004   5.706  0.1996 -1.0080 -0.7528
  271MOL0     H36555   8.596   9.054   5.896  2.1604 -0.3620 -3.2145
  271MOL0     H36556   8.449   9.155   5.857 -0.3800  0.3602 -0.9103
  271MOL0     H36557   8.538   9.204   5.644  0.0887  0.6067  0.2318
  271MOL0     H36558   8.651   9.068   5.656 -0.7830 -1.8685  1.5779
  271MOL0     H36559   8.667   9.302   5.860  1.7441 -1.2240  0.7865
  271MOL0     H36560   8.787   9.184   5.828  0.2036 -0.3263  0.7272
  271MOL0     H36561   8.695   9.367   5.614 -1.3200 -1.0494 -0.5958
  271MOL0     H36562   8.833   9.256   5.611 -0.4496  0.5318 -0.5507
  271MOL0     H36563   8.813   9.494   5.794  1.3257  1.7978 -0.9747
  271MOL0     H36564   8.962   9.398   5.773  0.1303 -0.8755 -1.1599
  271MOL0     H36565   8.141   8.642   5.640 -1.4352 -1.7050 -2.2905
  271MOL0     H36566   7.955   8.494   5.577 -2.3093  0.1516  0.7315
  271MOL0     H36567   7.449   8.356   5.645  1.9883 -0.0695  1.6228
  271MOL0     H36568   7.285   8.166   5.629  0.7342  0.8887 -0.5152
  271MOL0     H36569   5.840   7.499   6.449 -1.4096 -0.6199 -0.4915
  271MOL0     H36570   5.638   7.644   6.415 -1.2603  2.2380  0.6474
  271MOL0     H36571   5.372   7.861   6.509 -0.3264 -0.7826 -0.6992
  271MOL0     H36572   5.137   7.898   6.464 -2.2365 -0.4216 -3.3574
  271MOL0     H36573   4.932   7.984   6.452  0.4232  4.2337  1.1383
  271MOL0     H36574   4.974   7.911   6.292  0.6478  1.5175 -1.1223
  271MOL0     H36575   4.728   7.956   6.298 -1.7313  1.1862 -1.8587
  271MOL0     H36576   4.804   8.029   6.171 -3.7479  0.0197 -0.1668
  271MOL0     H36577   4.643   8.188   6.263 -1.7759 -2.5175  2.1625
  271MOL0     H36578   4.813   8.244   6.246 -2.3006 -0.5293 -2.8897
  271MOL0     H36579   4.663   8.150   6.488  1.8430 -1.7301 -0.8906
  271MOL0     H36580   4.828   8.163   6.497  2.0444 -0.2262 -3.1627
  271MOL0     H36581   4.687   8.585   6.510  1.4405  0.0300  2.6958
  271MOL0     H36582   5.223   8.265   6.274  0.2602  0.3943  0.6748
  271MOL0     H36583   5.531   8.226   6.154 -0.7052 -0.0400 -1.3475
  271MOL0     H36584   5.471   8.342   6.270 -0.3819 -0.0890  1.1403
  271MOL0     H36585   5.606   8.234   6.302  0.0838  1.1500 -0.0397
  272MOL0     O36586  11.117   4.158   8.169  0.4171 -0.4182 -0.6335
  272MOL0     C36587  11.058   4.239   8.232 -0.5918 -0.5870 -0.1730
  272MOL0     O36588  11.112   4.307   8.338 -0.3695 -0.6060 -0.6555
  272MOL0     C36589  11.231   4.256   8.378 -0.2972 -0.0068  0.1141
  272MOL0     C36590  11.344   4.327   8.354 -1.3277 -0.0084  0.5391
  272MOL0     C36591  11.468   4.286   8.404 -0.1640 -0.1393  0.2380
  272MOL0     C36592  11.482   4.172   8.479 -0.4282 -0.0451 -0.0603
  272MOL0     O36593  11.605   4.127   8.529  0.0738 -0.0745 -0.4216
  272MOL0     C36594  11.724   4.195   8.485  0.0082  0.0175  0.1903
  272MOL0     C36595  11.831   4.129   8.577 -0.5026  0.0991  0.0780
  272MOL0     C36596  11.983   4.139   8.544  0.1222 -0.0620  0.4404
  272MOL0     C36597  12.029   4.014   8.469 -0.6318  0.6342  1.4193
  272MOL0     C36598  12.182   4.021   8.429  0.4313 -0.1191  0.4739
  272MOL0     C36599  12.227   3.897   8.360 -0.9162  0.7294  0.3223
  272MOL0     C36600  12.388   3.917   8.355 -1.1450 -0.1071 -0.8564
  272MOL0     C36601  12.456   3.815   8.261  0.3593 -0.5484 -0.4984
  272MOL0     N36602  12.602   3.811   8.267 -0.1721  0.0745 -0.1475
  272MOL0     C36603  12.678   3.735   8.350  0.1167  0.4777  0.2464
  272MOL0     C36604  12.794   3.730   8.298 -0.0217 -0.3390  0.5903
  272MOL0     C36605  12.900   3.650   8.370 -0.1559  0.6669 -0.1131
  272MOL0     C36606  12.899   3.504   8.303  0.5996  0.4690 -0.1947
  272MOL0     C36607  13.036   3.439   8.325 -0.2596  0.4187  0.2861
  272MOL0     C36608  13.059   3.322   8.228  0.7316 -0.9755 -0.0524
  272MOL0     O36609  13.154   3.244   8.285 -0.2592 -0.7685  0.7830
  272MOL0     C36610  13.250   3.204   8.197 -0.0121 -0.4060  0.1688
  272MOL0     C36611  13.367   3.272   8.195 -0.5425 -0.2444 -0.3822
  272MOL0     C36612  13.460   3.234   8.096  0.3513  0.5590 -0.1459
  272MOL0     C36613  13.453   3.131   8.009 -0.2195  0.4192  0.0547
  272MOL0     C36614  13.561   3.100   7.917 -0.0771 -0.1057 -0.2250
  272MOL0     O36615  13.529   3.004   7.826  0.5370  0.6065 -0.6125
  272MOL0     C36616  13.613   2.961   7.726  0.2877 -0.5077 -0.0949
  272MOL0     C36617  13.565   2.933   7.599  0.3741 -0.4473 -0.8327
  272MOL0     C36618  13.653   2.915   7.491  0.0463  0.3510 -0.4198
  272MOL0     C36619  13.793   2.919   7.512 -0.6684  0.3068 -0.5704
  272MOL0     O36620  13.897   2.909   7.418  0.6270  0.1680 -0.7202
  272MOL0     C36621  13.877   2.858   7.288 -0.8689 -0.0654  0.1269
  272MOL0     C36622  13.854   2.977   7.186  1.2198 -0.1211  0.9117
  272MOL0     C36623  13.967   3.083   7.187  0.5824 -0.6269  0.2588
  272MOL0     C36624  14.108   3.032   7.138  0.7780  0.5500 -0.4500
  272MOL0     C36625  14.208   3.147   7.137 -0.0229  0.2178  0.7000
  272MOL0     C36626  14.329   3.113   7.050  0.3323  0.2998  0.2036
  272MOL0     C36627  14.417   3.000   7.116 -0.7120  0.1612  0.3718
  272MOL0     C36628  14.528   2.971   7.010  0.9024 -0.7358  0.1438
  272MOL0    Cl36629  14.664   3.080   7.031 -0.2357 -0.0665 -0.1010
  272MOL0     C36630  13.840   2.933   7.640  0.2360 -0.4578  0.0218
  272MOL0     C36631  13.757   2.952   7.749  0.2791 -0.0691 -0.7018
  272MOL0     O36632  13.665   3.168   7.914  0.3312 -0.0746 -0.6432
  272MOL0     C36633  13.327   3.065   8.008  0.2820  0.2664  0.9563
  272MOL0     C36634  13.221   3.109   8.091 -0.0653 -0.4441 -0.2477
  272MOL0     N36635  12.799   3.814   8.190  0.4898  0.1704  0.8036
  272MOL0     N36636  12.676   3.865   8.172  0.3285  0.1153  0.2802
  272MOL0     C36637  11.369   4.098   8.507  0.0138  1.0451  0.2622
  272MOL0     C36638  11.243   4.138   8.448 -0.7115  1.2131 -0.6086
  272MOL0     C36639  10.933   4.286   8.186 -0.2757  0.5057  0.7331
  272MOL0     C36640  10.894   4.420   8.200  1.3091  0.2905 -0.1229
  272MOL0     C36641  10.765   4.472   8.156 -0.7613 -0.4971 -0.4743
  272MOL0     C36642  10.677   4.389   8.093  0.0642  0.3073 -0.6416
  272MOL0     O36643  10.555   4.439   8.047  0.5432  0.1118 -0.1659
  272MOL0     C36644  10.512   4.579   8.077 -0.8879  0.8036 -0.1336
  272MOL0     C36645  10.378   4.610   8.030  0.3146  0.0637  0.2702
  272MOL0     C36646  10.360   4.613   7.876 -0.2085 -0.4209 -0.2648
  272MOL0     C36647  10.222   4.629   7.823  0.1667  1.4466  0.0107
  272MOL0     C36648  10.136   4.518   7.876 -0.5234  0.4591  0.1692
  272MOL0     C36649  10.065   4.434   7.933  0.0330  0.1118  0.0770
  272MOL0     C36650  10.716   4.251   8.077  0.2064 -0.3989  0.1919
  272MOL0     C36651  10.844   4.200   8.122  0.3238  0.3212  0.3896
  272MOL0     C36652  10.870   4.051   8.079  0.2346 -0.2017 -0.3710
  272MOL0     H36653  11.338   4.417   8.292  1.7802 -1.2518 -1.8233
  272MOL0     H36654  11.550   4.352   8.376  0.2086 -0.2540  1.0348
  272MOL0     H36655  11.746   4.177   8.380 -0.2931 -1.1094  0.3072
  272MOL0     H36656  11.727   4.302   8.507 -0.0325  0.4196 -1.6534
  272MOL0     H36657  11.806   4.027   8.606  0.6967  0.9223  4.7812
  272MOL0     H36658  11.830   4.181   8.673 -1.4993 -0.3916  0.3435
  272MOL0     H36659  12.040   4.151   8.636  0.7998 -0.9252  0.1501
  272MOL0     H36660  11.997   4.222   8.474 -0.6495 -0.5734 -0.3381
  272MOL0     H36661  12.019   3.926   8.533  0.6386  0.3495  1.2642
  272MOL0     H36662  11.966   3.992   8.383 -0.1307  0.2578  1.1426
  272MOL0     H36663  12.199   4.104   8.360 -1.0718 -1.2785 -1.4029
  272MOL0     H36664  12.241   4.041   8.519 -0.5587  0.9417  0.9248
  272MOL0     H36665  12.199   3.802   8.406 -1.2684 -0.9355 -2.9980
  272MOL0     H36666  12.182   3.892   8.260 -1.8238 -0.1057  0.7650
  272MOL0     H36667  12.422   3.900   8.457  1.7420 -2.6265 -2.0804
  272MOL0     H36668  12.427   4.015   8.325  1.4532 -0.5606  0.7407
  272MOL0     H36669  12.427   3.715   8.295  2.6835 -0.9462  0.4952
  272MOL0     H36670  12.413   3.818   8.160 -1.5861  1.1843  0.3144
  272MOL0     H36671  12.648   3.691   8.445 -1.7109  0.3914 -0.3187
  272MOL0     H36672  12.993   3.706   8.362 -0.8784  2.2452  1.7862
  272MOL0     H36673  12.884   3.640   8.477  3.4652  0.3648  0.5168
  272MOL0     H36674  12.828   3.439   8.354  2.2606 -1.1875  0.1219
  272MOL0     H36675  12.877   3.504   8.196  2.2393  1.0739 -0.5707
  272MOL0     H36676  13.025   3.402   8.427 -1.4786 -0.1055 -0.0167
  272MOL0     H36677  13.116   3.512   8.310 -1.3796  1.5726 -0.2227
  272MOL0     H36678  13.090   3.367   8.133  0.3865  0.6989  0.6003
  272MOL0     H36679  12.975   3.253   8.223  0.3156 -0.3804 -1.7708
  272MOL0     H36680  13.393   3.349   8.267  1.9971 -0.2871 -1.1444
  272MOL0     H36681  13.546   3.300   8.088 -1.0710  2.3787 -1.2342
  272MOL0     H36682  13.459   2.951   7.585  0.1949  0.5703  1.4075
  272MOL0     H36683  13.616   2.915   7.389 -2.0000  0.2756  0.2699
  272MOL0     H36684  13.961   2.805   7.243 -2.4501 -0.7845 -2.1484
  272MOL0     H36685  13.797   2.784   7.295 -0.0925 -0.8079  5.2136
  272MOL0     H36686  13.832   2.943   7.085  0.0201  1.4178  0.6223
  272MOL0     H36687  13.762   3.028   7.217 -0.0391 -0.9334 -1.3069
  272MOL0     H36688  13.936   3.163   7.119  1.0034 -2.6927 -2.5382
  272MOL0     H36689  13.964   3.140   7.280 -4.3226  0.5043 -0.3141
  272MOL0     H36690  14.091   3.006   7.033 -1.6260 -1.5813  0.3733
  272MOL0     H36691  14.147   2.947   7.195 -0.6414  1.0960  1.4281
  272MOL0     H36692  14.239   3.160   7.241 -0.6449  1.4976  0.7438
  272MOL0     H36693  14.158   3.235   7.095 -1.3528 -0.8419 -0.0104
  272MOL0     H36694  14.293   3.083   6.952 -1.2487  0.3935  0.7406
  272MOL0     H36695  14.395   3.199   7.032 -0.0102  0.2321 -1.5245
  272MOL0     H36696  14.355   2.913   7.137 -0.8416  0.7279  2.5432
  272MOL0     H36697  14.465   3.038   7.206  1.6126  1.3040 -1.2486
  272MOL0     H36698  14.560   2.867   7.021  0.2586 -0.8936  0.5491
  272MOL0     H36699  14.485   2.975   6.909  0.2188 -0.2063  0.4477
  272MOL0     H36700  13.948   2.932   7.650  0.2429  1.8515  0.7260
  272MOL0     H36701  13.808   2.963   7.844 -1.2358 -1.0149  0.2593
  272MOL0     H36702  13.303   2.995   7.929  2.6978 -0.9434  1.1920
  272MOL0     H36703  13.124   3.061   8.091 -0.2026 -0.2152 -1.5961
  272MOL0     H36704  11.374   4.007   8.565  0.7330  0.4199 -0.7357
  272MOL0     H36705  11.157   4.077   8.475  0.5364 -0.4290 -0.2082
  272MOL0     H36706  10.972   4.487   8.236  2.0738  0.9613 -2.8337
  272MOL0     H36707  10.732   4.574   8.169 -2.5787 -1.1701  0.6691
  272MOL0     H36708  10.579   4.644   8.021  1.3877 -1.0192  0.3161
  272MOL0     H36709  10.518   4.594   8.185  0.9433  0.3629 -0.1527
  272MOL0     H36710  10.354   4.703   8.083  0.6984  0.1021  0.3843
  272MOL0     H36711  10.297   4.550   8.072  0.5946  0.1950  1.0118
  272MOL0     H36712  10.406   4.526   7.829 -0.0677  0.5421 -1.9894
  272MOL0     H36713  10.420   4.695   7.835 -0.9536 -0.2447 -1.0173
  272MOL0     H36714  10.183   4.730   7.838  0.0584  1.6102 -1.2756
  272MOL0     H36715  10.234   4.626   7.714  0.7165 -1.3372  0.0887
  272MOL0     H36716  10.014   4.355   7.985 -2.1161  0.9554 -0.6503
  272MOL0     H36717  10.651   4.187   8.019 -0.6892  1.0716 -0.4920
  272MOL0     H36718  10.780   3.989   8.086 -0.9904  1.6701  3.6050
  272MOL0     H36719  10.911   4.045   7.978 -0.5968  0.3718 -0.7490
  272MOL0     H36720  10.941   4.002   8.146  0.3686  1.8332  1.0611
  273MOL0     O36721   4.694   7.533   1.582  0.0940 -0.0991 -0.2408
  273MOL0     C36722   4.640   7.623   1.644  0.5935 -0.0780 -0.0815
  273MOL0     O36723   4.705   7.726   1.708 -0.8484 -0.1597  0.1361
  273MOL0     C36724   4.838   7.754   1.676  0.0783 -0.6449 -1.3745
  273MOL0     C36725   4.869   7.883   1.629  0.9970  0.0383 -0.1489
  273MOL0     C36726   5.005   7.900   1.588 -0.1283  0.3490 -0.4462
  273MOL0     C36727   5.110   7.813   1.604 -0.5353  0.6091 -0.6181
  273MOL0     O36728   5.237   7.852   1.563 -0.4069 -0.3898  0.2667
  273MOL0     C36729   5.355   7.794   1.625 -0.1316 -0.2323 -0.3406
  273MOL0     C36730   5.473   7.870   1.569  1.1425  0.2073  0.1386
  273MOL0     C36731   5.601   7.823   1.634  0.4158  0.6312 -1.3998
  273MOL0     C36732   5.725   7.908   1.600 -1.5031 -0.5523  0.3015
  273MOL0     C36733   5.844   7.874   1.694  0.0024  0.2262  0.0220
  273MOL0     C36734   5.958   7.970   1.681 -0.2444 -0.4841  0.5082
  273MOL0     C36735   5.927   8.100   1.749  0.3186 -1.2984  0.0440
  273MOL0     C36736   5.938   8.110   1.906  0.0648  0.0447 -0.2866
  273MOL0     N36737   6.053   8.038   1.958  0.3230  0.1332 -0.7351
  273MOL0     C36738   6.175   8.077   2.013 -0.5440 -0.1743  0.8482
  273MOL0     C36739   6.225   7.966   2.064  0.3060 -0.7569 -1.1585
  273MOL0     C36740   6.353   7.960   2.142 -0.9829  0.6676  0.0850
  273MOL0     C36741   6.481   7.962   2.059 -0.1433  0.8234  0.3966
  273MOL0     C36742   6.592   8.043   2.129  0.5952 -0.7063 -0.4786
  273MOL0     C36743   6.715   8.044   2.038 -0.2678 -1.2342  0.5077
  273MOL0     O36744   6.813   8.125   2.087  0.5564 -0.1849  0.2435
  273MOL0     C36745   6.917   8.141   2.010 -1.4845 -0.6219  0.5034
  273MOL0     C36746   6.994   8.251   2.052 -0.2715  0.4504 -0.8206
  273MOL0     C36747   7.113   8.284   1.988 -0.4783  0.2259 -0.6486
  273MOL0     C36748   7.162   8.212   1.876  0.6692 -0.0084 -0.4941
  273MOL0     C36749   7.292   8.244   1.817  0.3998  0.5665 -0.4094
  273MOL0     O36750   7.346   8.363   1.856 -0.3971 -0.2439  0.0041
  273MOL0     C36751   7.475   8.401   1.847  0.3791 -0.3101 -0.5223
  273MOL0     C36752   7.512   8.526   1.895  0.1688  0.0835 -0.8927
  273MOL0     C36753   7.643   8.566   1.902 -0.6591  0.3201  0.4266
  273MOL0     C36754   7.743   8.483   1.861 -0.1861 -0.6274 -0.1533
  273MOL0     O36755   7.872   8.531   1.867 -0.5844 -0.5844 -0.3879
  273MOL0     C36756   7.996   8.449   1.880  0.1673 -0.3556  0.9995
  273MOL0     C36757   8.071   8.489   1.754  0.0659  0.6422  0.0330
  273MOL0     C36758   8.211   8.425   1.740  0.7646 -0.4485  0.6184
  273MOL0     C36759   8.280   8.464   1.609 -1.1312  0.2624 -0.8463
  273MOL0     C36760   8.436   8.441   1.604 -0.3201  0.1711  0.2317
  273MOL0     C36761   8.484   8.304   1.664 -0.1497 -0.6679 -0.3054
  273MOL0     C36762   8.630   8.300   1.653 -0.2206 -0.5647  0.4090
  273MOL0     C36763   8.705   8.174   1.683 -0.4771  0.3460 -0.3215
  273MOL0    Cl36764   8.878   8.211   1.656  0.2364  0.5930  0.5794
  273MOL0     C36765   7.719   8.352   1.815  0.5787 -1.1381  0.0650
  273MOL0     C36766   7.583   8.317   1.802  0.2344  0.3397 -0.1088
  273MOL0     O36767   7.331   8.177   1.721 -0.4453  0.1307 -0.5013
  273MOL0     C36768   7.086   8.109   1.825 -0.1923  0.1461 -0.9764
  273MOL0     C36769   6.969   8.074   1.893  0.1615  0.0506  0.1098
  273MOL0     N36770   6.141   7.863   2.057  0.7460  0.6167 -0.0725
  273MOL0     N36771   6.040   7.907   1.990 -0.6279  0.4489 -0.3569
  273MOL0     C36772   5.071   7.692   1.641  0.2419 -0.0948  0.8955
  273MOL0     C36773   4.940   7.663   1.671  0.2916  0.5921 -0.1991
  273MOL0     C36774   4.490   7.616   1.676 -1.4926 -0.8716  0.5181
  273MOL0     C36775   4.438   7.664   1.793 -1.0644 -0.3500  0.4541
  273MOL0     C36776   4.299   7.654   1.829  0.1820  0.5202 -0.8804
  273MOL0     C36777   4.207   7.590   1.751  0.1207  0.1221 -0.5395
  273MOL0     O36778   4.069   7.593   1.787 -0.4841  0.1151  0.0715
  273MOL0     C36779   3.992   7.475   1.747  0.0364 -0.1220 -0.1244
  273MOL0     C36780   3.892   7.515   1.629 -0.5339  0.4581  0.2737
  273MOL0     C36781   3.802   7.401   1.590 -0.2962  1.3646 -0.5658
  273MOL0     C36782   3.878   7.272   1.556 -1.0003 -0.2694 -0.0819
  273MOL0     C36783   3.988   7.289   1.465 -0.7438 -0.0638 -0.3698
  273MOL0     C36784   4.070   7.324   1.376  0.7577 -0.2158 -0.4359
  273MOL0     C36785   4.258   7.545   1.625  0.4163  0.0006  0.0217
  273MOL0     C36786   4.395   7.557   1.589  0.6325  0.1806  0.3153
  273MOL0     C36787   4.421   7.530   1.438  0.1322 -0.0703 -0.6613
  273MOL0     H36788   4.795   7.961   1.615 -0.7209 -1.5046  0.0510
  273MOL0     H36789   5.045   7.995   1.551  1.5483 -0.7034 -1.4595
  273MOL0     H36790   5.360   7.809   1.733  3.1934  0.7739 -0.5392
  273MOL0     H36791   5.362   7.686   1.605 -0.8191 -0.3052 -0.2290
  273MOL0     H36792   5.464   7.977   1.586  1.2785  0.1465  0.6124
  273MOL0     H36793   5.475   7.849   1.462 -3.2125 -0.0948 -0.0345
  273MOL0     H36794   5.619   7.719   1.604  0.4212 -0.3529  1.6523
  273MOL0     H36795   5.585   7.802   1.741 -2.3995  0.1124 -1.8238
  273MOL0     H36796   5.756   7.901   1.495 -3.5147  0.1525 -0.3857
  273MOL0     H36797   5.695   8.013   1.611  0.0198 -0.1769  1.1969
  273MOL0     H36798   5.821   7.864   1.801  3.0197  0.5438  0.7833
  273MOL0     H36799   5.878   7.772   1.678 -2.3361 -0.7528  0.8686
  273MOL0     H36800   6.056   7.929   1.708  0.9613  0.6622 -1.7507
  273MOL0     H36801   5.978   7.984   1.574  3.2889 -2.3676  0.7656
  273MOL0     H36802   5.832   8.142   1.714  0.1622 -1.8158 -0.1552
  273MOL0     H36803   5.996   8.177   1.713 -0.0056  0.1459  2.3782
  273MOL0     H36804   5.932   8.210   1.950 -1.0824 -0.6959  1.3298
  273MOL0     H36805   5.854   8.054   1.947  0.1859 -0.5804 -0.8783
  273MOL0     H36806   6.216   8.178   2.011 -1.0975  0.0487  0.4769
  273MOL0     H36807   6.364   8.035   2.221  1.2780 -1.2178  1.7026
  273MOL0     H36808   6.351   7.865   2.196  3.3357 -0.8772 -2.0481
  273MOL0     H36809   6.526   7.863   2.044  1.1923  1.1044  2.2820
  273MOL0     H36810   6.465   8.002   1.959  4.1264  1.9395 -0.0212
  273MOL0     H36811   6.622   8.007   2.228 -0.3295 -0.4895 -0.1052
  273MOL0     H36812   6.551   8.144   2.141 -1.1182 -1.5190  1.1854
  273MOL0     H36813   6.684   8.073   1.937  2.5328 -3.1538 -1.0349
  273MOL0     H36814   6.757   7.945   2.016  4.1125  0.7446 -0.9557
  273MOL0     H36815   6.969   8.297   2.147  3.2859 -0.8650  0.9110
  273MOL0     H36816   7.172   8.359   2.039  0.2683 -0.0341 -1.1148
  273MOL0     H36817   7.438   8.580   1.954  0.5158  1.1443 -1.3936
  273MOL0     H36818   7.668   8.667   1.935  2.6703  0.3244 -1.6644
  273MOL0     H36819   8.063   8.479   1.961 -0.3280  2.7190  0.4023
  273MOL0     H36820   7.975   8.342   1.875 -0.5018 -0.3293  2.5112
  273MOL0     H36821   8.015   8.460   1.664  1.2119  0.9780 -0.8150
  273MOL0     H36822   8.075   8.599   1.755  1.0184  0.6191  1.3860
  273MOL0     H36823   8.255   8.465   1.832 -1.3593  0.7325  1.1989
  273MOL0     H36824   8.195   8.318   1.752 -0.5134 -0.2287  1.0547
  273MOL0     H36825   8.262   8.567   1.576  2.0334  0.7641 -1.2838
  273MOL0     H36826   8.242   8.388   1.540  0.1078 -1.6670  0.5057
  273MOL0     H36827   8.481   8.521   1.664  0.0947  0.0990  0.0192
  273MOL0     H36828   8.480   8.451   1.504 -1.4780  0.3827 -0.2824
  273MOL0     H36829   8.468   8.313   1.772 -0.2927 -0.0540 -0.3787
  273MOL0     H36830   8.434   8.220   1.615  1.1854 -1.0212 -1.1082
  273MOL0     H36831   8.677   8.384   1.706  2.5841 -1.9638  0.3384
  273MOL0     H36832   8.648   8.317   1.546 -1.7900  1.1486  0.3790
  273MOL0     H36833   8.682   8.142   1.785  0.6899 -0.8460 -0.4110
  273MOL0     H36834   8.671   8.095   1.616 -1.0002  0.4046 -0.1328
  273MOL0     H36835   7.791   8.276   1.787  2.7307  1.9534 -3.7535
  273MOL0     H36836   7.562   8.216   1.766  0.8776  0.5251 -1.0344
  273MOL0     H36837   7.114   8.055   1.735  0.4035  2.7090 -2.4144
  273MOL0     H36838   6.900   8.003   1.848 -1.8928  0.8245  1.8485
  273MOL0     H36839   5.147   7.615   1.646  0.1854 -0.2180  0.0584
  273MOL0     H36840   4.935   7.557   1.693 -0.1676  0.0369 -2.6742
  273MOL0     H36841   4.504   7.710   1.866 -0.6858  0.6363 -0.4813
  273MOL0     H36842   4.255   7.687   1.922 -0.1720  0.5232 -1.0439
  273MOL0     H36843   3.940   7.438   1.835 -0.3913  1.3099  0.2573
  273MOL0     H36844   4.053   7.390   1.714  2.4681  0.5829  2.2422
  273MOL0     H36845   3.943   7.548   1.538  0.0548 -3.2942 -0.9123
  273MOL0     H36846   3.841   7.598   1.680 -1.2096 -0.4765  1.1532
  273MOL0     H36847   3.736   7.421   1.505 -0.3574  0.3406 -0.7743
  273MOL0     H36848   3.723   7.385   1.663 -0.6330  0.3647 -1.1211
  273MOL0     H36849   3.911   7.233   1.652 -2.4334  1.5784  1.2504
  273MOL0     H36850   3.816   7.195   1.508  1.0674 -1.5578 -0.7889
  273MOL0     H36851   4.149   7.347   1.308  2.4435 -2.2931  0.6998
  273MOL0     H36852   4.185   7.499   1.558 -0.5599  2.7822 -0.9501
  273MOL0     H36853   4.355   7.584   1.370 -0.5203  2.9129  2.0900
  273MOL0     H36854   4.525   7.559   1.422  1.0576 -1.8022  1.6733
  273MOL0     H36855   4.415   7.423   1.416 -1.3258  0.1345 -1.3758
  274MOL0     O36856   7.739   8.497   2.367 -0.4372 -0.1639 -0.1518
  274MOL0     C36857   7.746   8.421   2.269  0.2907 -0.5109 -0.9101
  274MOL0     O36858   7.857   8.392   2.202 -0.1791 -0.2892 -0.5954
  274MOL0     C36859   7.961   8.474   2.233 -0.8058  0.4291 -0.2816
  274MOL0     C36860   7.961   8.606   2.196 -0.1150 -0.1426  0.8475
  274MOL0     C36861   8.062   8.695   2.230 -0.3039 -0.2067 -0.0117
  274MOL0     C36862   8.168   8.653   2.305  1.0358 -0.0143 -0.8886
  274MOL0     O36863   8.241   8.762   2.334  0.1552  0.3975  0.0011
  274MOL0     C36864   8.348   8.740   2.423 -0.7602 -0.2693 -0.6941
  274MOL0     C36865   8.416   8.870   2.459 -0.7281  0.7680 -0.2294
  274MOL0     C36866   8.324   8.958   2.545  0.0391 -0.3003  0.6457
  274MOL0     C36867   8.388   9.089   2.591 -0.1564  0.0071  0.5779
  274MOL0     C36868   8.319   9.149   2.717 -0.0734  0.2684 -0.4245
  274MOL0     C36869   8.344   9.298   2.724  0.2182 -0.4197  0.7613
  274MOL0     C36870   8.488   9.323   2.764  0.2676  0.7171 -0.8255
  274MOL0     C36871   8.511   9.469   2.776  0.0580  0.1988 -0.2741
  274MOL0     N36872   8.505   9.539   2.654  0.8320 -0.1513  0.8525
  274MOL0     C36873   8.613   9.617   2.624 -0.0533  1.0348  0.7012
  274MOL0     C36874   8.584   9.686   2.512 -0.0140 -0.2948 -0.0169
  274MOL0     C36875   8.679   9.768   2.428  0.2470 -0.0675  0.8046
  274MOL0     C36876   8.796   9.685   2.366  0.1921 -0.3116  0.2920
  274MOL0     C36877   8.867   9.763   2.258  0.2387 -0.4006  0.1710
  274MOL0     C36878   9.000   9.701   2.224 -0.0953 -1.2950 -0.3652
  274MOL0     O36879   9.084   9.695   2.349 -0.5554 -0.1466  0.4316
  274MOL0     C36880   9.222   9.704   2.325 -0.3809  0.4940 -0.0833
  274MOL0     C36881   9.310   9.757   2.419 -0.3333  0.3346 -1.3650
  274MOL0     C36882   9.448   9.754   2.404 -0.0684  0.5197  0.9867
  274MOL0     C36883   9.507   9.704   2.293 -0.4163 -0.1824  0.7641
  274MOL0     C36884   9.656   9.712   2.272 -0.3372 -0.3680  0.8159
  274MOL0     O36885   9.739   9.757   2.374  0.7802 -0.6616  0.4938
  274MOL0     C36886   9.874   9.751   2.379 -0.8168  0.2975  0.2889
  274MOL0     C36887   9.942   9.813   2.484 -0.5195 -0.2806  0.9186
  274MOL0     C36888  10.082   9.794   2.502  0.3512 -0.6592 -0.8953
  274MOL0     C36889  10.151   9.698   2.424  0.0684 -0.0044 -0.2352
  274MOL0     O36890  10.289   9.669   2.432  0.2698  0.1309 -0.4831
  274MOL0     C36891  10.368   9.769   2.504 -1.0108  0.3217 -0.5384
  274MOL0     C36892  10.521   9.740   2.487 -0.4263 -0.8492 -0.0973
  274MOL0     C36893  10.612   9.832   2.579 -0.5128 -0.4714 -0.6460
  274MOL0     C36894  10.626   9.779   2.722 -0.4454  0.0934 -1.3029
  274MOL0     C36895  10.723   9.867   2.806  0.0780  0.4580  0.2393
  274MOL0     C36896  10.755   9.788   2.931  1.3110  0.7391  0.3068
  274MOL0     C36897  10.830   9.868   3.036 -0.8388  0.1042 -0.0911
  274MOL0     C36898  10.844   9.802   3.167  0.1879  0.8410 -0.4194
  274MOL0    Cl36899  10.940   9.654   3.123  0.3149 -0.5548  0.2377
  274MOL0     C36900  10.085   9.644   2.316 -0.0700 -0.3491 -0.2126
  274MOL0     C36901   9.949   9.670   2.293  0.0364  0.2253 -0.2302
  274MOL0     O36902   9.685   9.695   2.150  0.4535  0.9034 -0.0306
  274MOL0     C36903   9.423   9.647   2.197  0.0787 -0.1741 -0.2112
  274MOL0     C36904   9.287   9.654   2.209  0.6655 -0.7638 -0.3963
  274MOL0     N36905   8.456   9.650   2.486  0.0018 -0.3952 -0.0006
  274MOL0     N36906   8.406   9.563   2.564  0.8475 -0.0273  0.3210
  274MOL0     C36907   8.176   8.521   2.347 -0.5246  0.9326 -0.0743
  274MOL0     C36908   8.073   8.433   2.309  0.1144  0.3067 -0.3941
  274MOL0     C36909   7.619   8.336   2.231 -0.0634  0.3466  0.9332
  274MOL0     C36910   7.641   8.231   2.140 -0.7488 -0.2233 -0.5566
  274MOL0     C36911   7.545   8.141   2.093 -0.0296 -0.3575  0.0175
  274MOL0     C36912   7.419   8.152   2.139  0.2054  0.1167 -0.5941
  274MOL0     O36913   7.337   8.044   2.101  0.5387 -0.0025 -0.0551
  274MOL0     C36914   7.239   8.005   2.193  0.0489 -0.0900  0.2775
  274MOL0     C36915   7.168   7.879   2.151  0.0305 -0.6126 -0.3234
  274MOL0     C36916   7.026   7.873   2.222 -0.1893  0.8900  0.0174
  274MOL0     C36917   6.965   7.743   2.152  0.0430  0.7032 -0.9279
  274MOL0     C36918   6.824   7.720   2.193 -0.0267 -0.9561  1.0586
  274MOL0     C36919   6.715   7.696   2.230  0.0382 -0.3098  0.6660
  274MOL0     C36920   7.385   8.263   2.224 -0.2058  0.5405  0.2432
  274MOL0     C36921   7.485   8.350   2.271 -0.1993 -0.3395  0.4719
  274MOL0     C36922   7.446   8.454   2.377  0.3756 -0.2994 -0.0250
  274MOL0     H36923   7.878   8.635   2.132 -0.1049 -1.0147  0.4276
  274MOL0     H36924   8.071   8.794   2.187 -0.1041 -0.1063  0.2542
  274MOL0     H36925   8.325   8.693   2.518  1.0405 -1.4801 -0.8088
  274MOL0     H36926   8.425   8.682   2.371  0.4937 -0.0157  0.8156
  274MOL0     H36927   8.457   8.917   2.369  1.8163  0.5203  0.7187
  274MOL0     H36928   8.494   8.840   2.530 -0.6944 -1.8603 -1.2727
  274MOL0     H36929   8.273   8.904   2.626 -1.6376  1.6581  0.9863
  274MOL0     H36930   8.238   8.992   2.486  0.2630 -1.8185 -0.6364
  274MOL0     H36931   8.497   9.086   2.603 -0.1577  0.7124  0.8652
  274MOL0     H36932   8.369   9.160   2.510  0.5206 -0.0447  0.3680
  274MOL0     H36933   8.210   9.133   2.717  0.1065 -1.9272  3.0987
  274MOL0     H36934   8.362   9.094   2.801 -0.7394 -0.4943 -0.5720
  274MOL0     H36935   8.319   9.341   2.626  0.2284  1.0334  1.3753
  274MOL0     H36936   8.280   9.348   2.798 -0.8143  1.2007 -1.1251
  274MOL0     H36937   8.562   9.267   2.706  2.6287  0.6974  1.9451
  274MOL0     H36938   8.504   9.271   2.859  1.0288  2.6474  0.1521
  274MOL0     H36939   8.438   9.508   2.848 -0.1584 -1.3645  0.4087
  274MOL0     H36940   8.608   9.479   2.824  0.2770  0.5399 -0.7846
  274MOL0     H36941   8.712   9.609   2.668 -0.3132 -2.8551  0.9116
  274MOL0     H36942   8.615   9.822   2.356  0.9805  1.8972  1.5758
  274MOL0     H36943   8.723   9.847   2.489  0.2634 -0.7163  1.6454
  274MOL0     H36944   8.860   9.653   2.449  1.2553  1.5877  0.2585
  274MOL0     H36945   8.765   9.591   2.318 -1.5906  0.2739  0.2095
  274MOL0     H36946   8.891   9.866   2.288  0.6762 -1.0088  1.9989
  274MOL0     H36947   8.797   9.763   2.174 -2.4053 -0.6515  2.2446
  274MOL0     H36948   9.040   9.761   2.142  0.4222 -1.6474 -0.3774
  274MOL0     H36949   8.980   9.601   2.184 -3.6033 -1.7222  1.9941
  274MOL0     H36950   9.257   9.788   2.508 -1.1759 -1.0343 -1.3701
  274MOL0     H36951   9.513   9.789   2.484 -0.0251 -0.1686  1.2603
  274MOL0     H36952   9.894   9.883   2.552 -0.5254  0.3963  0.2301
  274MOL0     H36953  10.125   9.834   2.594 -0.8268  1.0500 -1.0435
  274MOL0     H36954  10.348   9.872   2.474  0.0896  0.4901 -0.7182
  274MOL0     H36955  10.347   9.747   2.609 -1.0471 -3.6689 -1.2313
  274MOL0     H36956  10.542   9.633   2.495 -1.6738 -1.1709 -0.8115
  274MOL0     H36957  10.555   9.774   2.388  0.2975 -1.6311 -0.1275
  274MOL0     H36958  10.710   9.839   2.531  0.7111 -0.0419  1.7747
  274MOL0     H36959  10.567   9.932   2.582 -1.5366 -0.9374  0.2808
  274MOL0     H36960  10.658   9.675   2.718 -5.7775 -2.1454  1.9721
  274MOL0     H36961  10.524   9.779   2.764  0.4506  1.4068  1.0665
  274MOL0     H36962  10.673   9.960   2.834  0.9524  1.3408 -1.0424
  274MOL0     H36963  10.815   9.896   2.756 -0.3202  0.2977 -0.6096
  274MOL0     H36964  10.659   9.749   2.965  1.9615 -2.7958 -1.4138
  274MOL0     H36965  10.814   9.704   2.894 -0.7250  0.2999 -2.2908
  274MOL0     H36966  10.785   9.967   3.048  0.3082  1.1170 -3.2597
  274MOL0     H36967  10.927   9.899   2.995 -1.9242  4.1348 -0.0453
  274MOL0     H36968  10.901   9.858   3.241 -1.9109  1.3666  0.8566
  274MOL0     H36969  10.751   9.782   3.220 -0.1414  0.0846 -1.2386
  274MOL0     H36970  10.142   9.587   2.244 -0.5706  0.4730 -1.2968
  274MOL0     H36971   9.920   9.616   2.204  0.0982  0.0352 -0.1377
  274MOL0     H36972   9.457   9.617   2.098  0.2019 -1.1930  0.1253
  274MOL0     H36973   9.223   9.626   2.126  0.8106 -0.3600 -0.6517
  274MOL0     H36974   8.251   8.467   2.405 -1.7732 -0.5099  0.2390
  274MOL0     H36975   8.078   8.334   2.353 -2.3535  0.3002  0.0259
  274MOL0     H36976   7.737   8.217   2.092 -0.5303  2.0266 -0.8517
  274MOL0     H36977   7.584   8.065   2.025  0.4050  0.2658 -0.4426
  274MOL0     H36978   7.167   8.083   2.220 -1.5004 -0.9197 -1.2210
  274MOL0     H36979   7.287   7.980   2.288  0.8397 -2.4176 -0.6616
  274MOL0     H36980   7.223   7.795   2.193 -0.0931 -0.4431  0.1829
  274MOL0     H36981   7.166   7.875   2.041  1.4243 -2.2903 -0.3292
  274MOL0     H36982   6.972   7.967   2.208  0.2652  1.3705  1.3916
  274MOL0     H36983   7.020   7.850   2.329 -1.9778  0.7593 -0.0760
  274MOL0     H36984   6.968   7.773   2.047  2.8791  1.9965 -0.5797
  274MOL0     H36985   7.032   7.656   2.157 -2.4738 -1.2881  0.2348
  274MOL0     H36986   6.616   7.670   2.262 -1.2062  0.2929 -2.3410
  274MOL0     H36987   7.284   8.262   2.262 -1.2188 -1.5901 -2.2048
  274MOL0     H36988   7.517   8.450   2.461  0.8972  0.0308 -0.4408
  274MOL0     H36989   7.436   8.558   2.345  1.1649  1.1717  3.8976
  274MOL0     H36990   7.348   8.433   2.421  0.6675  1.9424  1.9456
  275MOL0     O36991   8.650   3.945   3.716 -0.5735  0.1966  0.3674
  275MOL0     C36992   8.616   3.848   3.649 -0.0028  0.0898  0.2076
  275MOL0     O36993   8.674   3.796   3.532 -0.1266  0.0514 -1.2700
  275MOL0     C36994   8.767   3.882   3.476 -1.2410  0.5358 -1.2796
  275MOL0     C36995   8.897   3.880   3.530 -1.2218 -0.0717  0.0496
  275MOL0     C36996   8.996   3.983   3.493 -0.4650 -0.4264  0.9673
  275MOL0     C36997   8.964   4.077   3.398 -0.3012  0.5201  0.3219
  275MOL0     O36998   9.049   4.170   3.354 -0.1037 -0.2587 -0.5975
  275MOL0     C36999   9.192   4.150   3.335  0.0546  0.0449  0.7086
  275MOL0     C37000   9.274   4.209   3.446 -0.2788 -0.8191  0.2589
  275MOL0     C37001   9.419   4.229   3.402  0.1647  0.1474 -0.2104
  275MOL0     C37002   9.500   4.296   3.521 -0.0396  0.3192 -0.6339
  275MOL0     C37003   9.643   4.328   3.472 -0.3282  1.1687 -0.7415
  275MOL0     C37004   9.745   4.355   3.584  0.4343 -0.2722 -0.6237
  275MOL0     C37005   9.894   4.353   3.538  0.1989 -0.1338  0.4911
  275MOL0     C37006   9.946   4.204   3.536 -0.3875 -0.6132  0.2925
  275MOL0     N37007  10.090   4.203   3.509  0.5635 -0.6587 -0.4822
  275MOL0     C37008  10.180   4.211   3.608 -0.7538  0.5384  0.1768
  275MOL0     C37009  10.299   4.234   3.545 -0.2713  0.2110  0.3352
  275MOL0     C37010  10.430   4.268   3.618 -0.4728  0.9376  0.4902
  275MOL0     C37011  10.568   4.209   3.563 -0.0918  0.0682  1.0567
  275MOL0     C37012  10.689   4.231   3.665  0.2331 -0.3868 -0.4303
  275MOL0     C37013  10.822   4.259   3.603  0.0520  0.9681  0.3846
  275MOL0     O37014  10.910   4.301   3.703  0.0280  0.1802  0.1386
  275MOL0     C37015  11.034   4.335   3.670 -0.4571  0.1147  0.6168
  275MOL0     C37016  11.122   4.370   3.780  0.4192 -0.2337  0.0034
  275MOL0     C37017  11.253   4.395   3.756  0.4821 -0.6101  0.1253
  275MOL0     C37018  11.305   4.409   3.629  0.5098  1.0726  0.0380
  275MOL0     C37019  11.447   4.445   3.608 -0.4070 -0.4164 -1.0552
  275MOL0     O37020  11.484   4.451   3.480 -0.3668 -0.5354  0.5366
  275MOL0     C37021  11.615   4.476   3.433  0.4214  0.2286  0.5004
  275MOL0     C37022  11.625   4.454   3.291 -0.2616 -0.8793  0.0646
  275MOL0     C37023  11.748   4.487   3.226  0.2187  0.0376  0.4861
  275MOL0     C37024  11.856   4.527   3.298  0.3404  0.2372 -0.1945
  275MOL0     O37025  11.973   4.558   3.232  0.6385  0.0339  0.8076
  275MOL0     C37026  12.096   4.597   3.295  1.5187 -0.1051 -0.2372
  275MOL0     C37027  12.175   4.477   3.334 -0.1616 -0.6410 -0.0918
  275MOL0     C37028  12.303   4.520   3.407 -0.9852 -0.3611  0.3932
  275MOL0     C37029  12.392   4.411   3.466  0.2535  0.0014  0.6923
  275MOL0     C37030  12.493   4.468   3.559  0.0766 -0.7745 -0.0405
  275MOL0     C37031  12.586   4.358   3.611 -0.1028  0.3771  0.4479
  275MOL0     C37032  12.689   4.412   3.713 -0.4085  0.3865 -0.0195
  275MOL0     C37033  12.756   4.289   3.776 -0.7167 -0.1859  0.4130
  275MOL0    Cl37034  12.891   4.238   3.667 -0.0901 -0.2335  0.2210
  275MOL0     C37035  11.848   4.530   3.440  0.8031 -0.9242 -0.0943
  275MOL0     C37036  11.729   4.506   3.509  0.4099 -0.1015 -0.5288
  275MOL0     O37037  11.515   4.483   3.708 -0.2723  0.8251  0.4410
  275MOL0     C37038  11.221   4.376   3.515 -0.2087 -1.0143  0.3556
  275MOL0     C37039  11.084   4.337   3.538 -0.5097 -1.0124  0.0473
  275MOL0     N37040  10.279   4.236   3.410  0.3029  0.2274  0.4848
  275MOL0     N37041  10.153   4.235   3.394 -0.6849  0.6445 -0.8999
  275MOL0     C37042   8.839   4.064   3.337 -0.3474 -0.3827  0.3238
  275MOL0     C37043   8.743   3.973   3.381 -0.5453  0.1058  0.5116
  275MOL0     C37044   8.510   3.759   3.699  1.2354 -0.6269  0.3033
  275MOL0     C37045   8.545   3.630   3.737  0.0757  0.8293  0.3930
  275MOL0     C37046   8.454   3.548   3.793 -0.0581 -0.4330 -0.1349
  275MOL0     C37047   8.316   3.598   3.816 -0.0852  0.6257  0.3465
  275MOL0     O37048   8.224   3.528   3.891  0.1111 -0.5151  0.6692
  275MOL0     C37049   8.254   3.394   3.933  0.4677  0.4016  0.6910
  275MOL0     C37050   8.128   3.333   3.998  0.2347 -0.6739  0.2248
  275MOL0     C37051   8.159   3.210   4.088 -0.2241 -0.0608  0.4774
  275MOL0     C37052   8.043   3.174   4.176  0.7526 -0.5340  0.6812
  275MOL0     C37053   7.935   3.094   4.111  0.7627 -0.4748 -0.1782
  275MOL0     C37054   7.843   3.042   4.056  0.5460  0.0399 -0.0860
  275MOL0     C37055   8.279   3.722   3.769 -0.3032 -0.0802 -0.3584
  275MOL0     C37056   8.373   3.802   3.707  0.5898  0.2762  0.5371
  275MOL0     C37057   8.333   3.929   3.640 -1.3208  0.0992 -0.9581
  275MOL0     H37058   8.920   3.797   3.597 -1.1311 -0.3813 -0.3641
  275MOL0     H37059   9.093   3.988   3.541 -0.0971  0.7149  0.1638
  275MOL0     H37060   9.218   4.044   3.334 -3.0019 -0.8901  3.3119
  275MOL0     H37061   9.217   4.201   3.241  0.3673  0.4896  1.0357
  275MOL0     H37062   9.271   4.145   3.535 -2.7517  0.6843  1.3372
  275MOL0     H37063   9.229   4.303   3.479  1.7388  0.2355  0.1641
  275MOL0     H37064   9.429   4.307   3.326 -1.4322 -0.5732 -1.2025
  275MOL0     H37065   9.471   4.139   3.368 -0.3530  1.1456 -4.0130
  275MOL0     H37066   9.459   4.390   3.561 -1.7618  0.1781 -1.9400
  275MOL0     H37067   9.499   4.230   3.609  0.5400  1.2817  0.1118
  275MOL0     H37068   9.682   4.240   3.421 -1.0748  0.9597 -0.9596
  275MOL0     H37069   9.635   4.407   3.397 -1.2204  2.2186  0.4104
  275MOL0     H37070   9.726   4.453   3.628 -0.2709 -1.2792  1.4394
  275MOL0     H37071   9.738   4.285   3.668  0.6686  0.0794 -0.3079
  275MOL0     H37072   9.950   4.410   3.612  0.0653  2.4311 -1.2526
  275MOL0     H37073   9.892   4.406   3.442  0.3470 -2.1341 -0.6740
  275MOL0     H37074   9.928   4.153   3.631  0.3485  2.0124  1.9415
  275MOL0     H37075   9.898   4.143   3.458 -4.1613  2.0697  0.2114
  275MOL0     H37076  10.165   4.207   3.716  0.3017 -0.0660  0.3197
  275MOL0     H37077  10.427   4.378   3.624 -1.9123  0.9973 -0.8199
  275MOL0     H37078  10.423   4.226   3.719 -0.8970 -1.9446 -0.6696
  275MOL0     H37079  10.553   4.104   3.539  1.6713 -0.0620  0.3672
  275MOL0     H37080  10.582   4.267   3.471  1.6690  1.5529  2.1722
  275MOL0     H37081  10.691   4.150   3.738 -1.8054 -0.4137 -0.3472
  275MOL0     H37082  10.671   4.324   3.719  2.8713  0.5226 -0.9948
  275MOL0     H37083  10.805   4.344   3.537  0.4834  1.2549  0.6411
  275MOL0     H37084  10.853   4.175   3.540  1.2094 -0.4773  2.7257
  275MOL0     H37085  11.077   4.368   3.879 -1.9329  1.7649 -0.9064
  275MOL0     H37086  11.314   4.423   3.841  0.6589  1.9439 -0.7632
  275MOL0     H37087  11.538   4.430   3.231 -0.3007 -2.0038  0.5506
  275MOL0     H37088  11.746   4.475   3.118  1.8439  0.7015  0.3590
  275MOL0     H37089  12.155   4.647   3.217 -1.6180 -2.3426 -4.4900
  275MOL0     H37090  12.085   4.668   3.377 -0.2047 -0.1630 -0.3786
  275MOL0     H37091  12.122   4.412   3.405  0.0279  0.5682  1.1921
  275MOL0     H37092  12.199   4.407   3.253 -1.2140  0.1877 -1.1562
  275MOL0     H37093  12.363   4.575   3.334 -0.5647 -3.6868 -2.0151
  275MOL0     H37094  12.278   4.586   3.491 -1.8343 -0.2940  0.0985
  275MOL0     H37095  12.447   4.358   3.387 -0.2774 -1.0812  1.0222
  275MOL0     H37096  12.328   4.333   3.508 -2.9986  1.2431 -1.5844
  275MOL0     H37097  12.445   4.523   3.641  1.5396  4.0131 -2.0105
  275MOL0     H37098  12.542   4.551   3.508 -3.5927  0.2758 -2.2459
  275MOL0     H37099  12.530   4.277   3.658  0.4262  0.1797  0.7441
  275MOL0     H37100  12.646   4.320   3.527  1.4779  2.5305  0.5271
  275MOL0     H37101  12.627   4.460   3.790  0.3005 -0.7730  1.3086
  275MOL0     H37102  12.745   4.486   3.655  0.0130 -0.9562 -1.3923
  275MOL0     H37103  12.801   4.310   3.874  0.5591  0.2346 -0.2486
  275MOL0     H37104  12.693   4.200   3.788  1.8402 -2.0896  0.6427
  275MOL0     H37105  11.928   4.566   3.503 -0.1317 -1.2242  1.2921
  275MOL0     H37106  11.738   4.523   3.616 -2.8686 -1.8156  0.1623
  275MOL0     H37107  11.255   4.377   3.412  3.5194  0.6038  1.4319
  275MOL0     H37108  11.027   4.317   3.448  1.2881 -0.4488 -1.2703
  275MOL0     H37109   8.810   4.139   3.265  0.0953 -0.9828 -0.4996
  275MOL0     H37110   8.646   3.993   3.336 -1.2572 -0.9299  1.5377
  275MOL0     H37111   8.647   3.599   3.717  0.2669  1.2612  0.6726
  275MOL0     H37112   8.499   3.458   3.835  1.0623 -0.6732 -1.7702
  275MOL0     H37113   8.338   3.402   4.002  1.0145  1.4565 -0.0789
  275MOL0     H37114   8.277   3.338   3.842 -0.0501  2.8597 -1.0354
  275MOL0     H37115   8.051   3.305   3.926  0.6792 -0.0033 -0.5207
  275MOL0     H37116   8.093   3.413   4.064 -0.5573  0.4487 -1.4824
  275MOL0     H37117   8.244   3.243   4.148  0.0154 -0.4913  0.3725
  275MOL0     H37118   8.185   3.121   4.030 -0.9080 -0.1593  0.3111
  275MOL0     H37119   8.074   3.105   4.255  0.2464 -0.5395  0.8829
  275MOL0     H37120   7.989   3.257   4.223  0.6888 -1.1153  1.6717
  275MOL0     H37121   7.755   2.998   4.012  0.9434 -0.2408 -0.6197
  275MOL0     H37122   8.178   3.753   3.795 -0.3106 -0.9696  0.7814
  275MOL0     H37123   8.372   4.004   3.710 -0.1679  0.9463 -2.4404
  275MOL0     H37124   8.393   3.944   3.549  0.8958 -0.3183  0.3484
  275MOL0     H37125   8.228   3.958   3.631 -1.4813 -0.4443 -0.8815
  276MOL0     O37126   5.324   8.420   3.532 -0.5945 -0.2088 -0.7100
  276MOL0     C37127   5.283   8.452   3.643 -0.2974  0.6674  0.6585
  276MOL0     O37128   5.360   8.467   3.753 -0.7242 -0.4545 -0.5973
  276MOL0     C37129   5.494   8.462   3.735 -0.1950 -0.3563  0.3761
  276MOL0     C37130   5.573   8.575   3.760 -0.0278 -0.1777 -0.5687
  276MOL0     C37131   5.710   8.566   3.752 -0.4719 -0.0775 -0.3674
  276MOL0     C37132   5.772   8.446   3.727 -0.2606  0.1088 -0.2506
  276MOL0     O37133   5.905   8.424   3.744 -0.2065 -0.3277 -0.1047
  276MOL0     C37134   5.951   8.293   3.787 -0.2033  0.7979 -0.4024
  276MOL0     C37135   6.038   8.226   3.681 -0.3921  0.6332 -0.4928
  276MOL0     C37136   6.173   8.296   3.659  0.3055 -0.4048  0.3144
  276MOL0     C37137   6.240   8.222   3.536 -0.3339  0.5921 -0.1251
  276MOL0     C37138   6.353   8.310   3.494 -0.7936  0.1104 -0.0946
  276MOL0     C37139   6.470   8.309   3.594 -0.1538 -0.3121  0.0896
  276MOL0     C37140   6.592   8.380   3.523 -0.2381  0.1799 -0.3367
  276MOL0     C37141   6.699   8.379   3.633 -0.4379  0.5587 -0.2811
  276MOL0     N37142   6.831   8.427   3.586  0.1901 -0.1833  0.4877
  276MOL0     C37143   6.907   8.364   3.484  0.7699  0.2533 -0.3192
  276MOL0     C37144   7.038   8.387   3.507  0.2701  0.8082 -0.5201
  276MOL0     C37145   7.143   8.337   3.413 -0.8949 -0.4908 -0.1557
  276MOL0     C37146   7.284   8.370   3.468  0.2469  0.2854  0.2251
  276MOL0     C37147   7.321   8.508   3.505 -0.0396 -0.0385 -0.0278
  276MOL0     C37148   7.477   8.513   3.501 -0.2333  0.5501 -1.0898
  276MOL0     O37149   7.523   8.615   3.593 -0.1406 -0.5619  0.2074
  276MOL0     C37150   7.648   8.668   3.579  0.1510 -0.0730 -0.0831
  276MOL0     C37151   7.757   8.593   3.529 -0.1113 -0.1296 -0.3847
  276MOL0     C37152   7.880   8.658   3.527  0.0416  0.1462  0.2417
  276MOL0     C37153   7.898   8.785   3.586  0.7067  0.7947 -0.6182
  276MOL0     C37154   8.031   8.842   3.588 -0.1866 -0.6033 -0.4484
  276MOL0     O37155   8.124   8.774   3.521 -0.2320  0.0549  0.4491
  276MOL0     C37156   8.257   8.812   3.512  0.2108  0.0269 -0.1913
  276MOL0     C37157   8.303   8.861   3.389  0.3225  0.3103 -0.0522
  276MOL0     C37158   8.436   8.893   3.383 -0.8821 -0.2472 -0.2143
  276MOL0     C37159   8.520   8.912   3.495 -0.1353 -0.5461  0.0003
  276MOL0     O37160   8.649   8.954   3.485  0.3458 -0.5581  0.4913
  276MOL0     C37161   8.701   8.978   3.350  0.4851  1.1289  0.1818
  276MOL0     C37162   8.843   9.035   3.371 -0.2959 -0.2940  0.6227
  276MOL0     C37163   8.934   8.941   3.447  0.2076 -1.4183 -0.3663
  276MOL0     C37164   9.065   9.019   3.473 -0.5990 -0.5186  0.7859
  276MOL0     C37165   9.175   8.944   3.550  0.0476  1.1369 -0.4009
  276MOL0     C37166   9.243   8.827   3.473 -0.5404 -0.9797 -0.4215
  276MOL0     C37167   9.314   8.731   3.577 -0.0295  0.1527  0.8738
  276MOL0     C37168   9.398   8.629   3.519  0.5126  0.1789  0.5793
  276MOL0    Cl37169   9.511   8.701   3.399  0.1966  0.4469 -0.0619
  276MOL0     C37170   8.462   8.872   3.619  0.2257 -0.5935  0.1107
  276MOL0     C37171   8.337   8.817   3.629 -0.1042  0.0289 -0.0524
  276MOL0     O37172   8.053   8.945   3.656  0.8374  0.5473  0.5822
  276MOL0     C37173   7.794   8.856   3.636 -0.6056 -0.2427 -0.6469
  276MOL0     C37174   7.669   8.800   3.632  0.7161 -0.1226 -0.1760
  276MOL0     N37175   7.034   8.458   3.626 -0.9097 -0.2257 -0.0119
  276MOL0     N37176   6.918   8.487   3.663 -0.3637  0.2429  0.4770
  276MOL0     C37177   5.691   8.335   3.681 -0.1009  0.2670  0.1125
  276MOL0     C37178   5.556   8.343   3.699 -0.1688  1.6884  0.8467
  276MOL0     C37179   5.137   8.474   3.668  1.4376 -0.3386 -0.2654
  276MOL0     C37180   5.105   8.570   3.770  0.5215 -0.0770 -0.4147
  276MOL0     C37181   4.969   8.599   3.802  0.2115  0.4889  0.7733
  276MOL0     C37182   4.869   8.534   3.721  0.5836  0.1432  0.0325
  276MOL0     O37183   4.734   8.577   3.748  0.2012  0.0675  0.0717
  276MOL0     C37184   4.630   8.557   3.641 -0.1602 -0.5559  0.0251
  276MOL0     C37185   4.569   8.418   3.664 -0.0597 -0.1397 -0.0072
  276MOL0     C37186   4.488   8.363   3.547  0.9224 -0.5359  0.3816
  276MOL0     C37187   4.385   8.273   3.595 -0.0006  0.9689  0.0686
  276MOL0     C37188   4.276   8.269   3.493  0.3959  0.2409 -0.6494
  276MOL0     C37189   4.187   8.277   3.414 -0.7119  0.4640  0.2700
  276MOL0     C37190   4.900   8.450   3.613 -0.4860 -0.7973  0.0412
  276MOL0     C37191   5.032   8.410   3.592 -0.8901  0.2032 -0.5216
  276MOL0     C37192   5.056   8.312   3.475  0.2133  0.1421  0.3315
  276MOL0     H37193   5.531   8.671   3.788  1.0140 -0.2737  1.4972
  276MOL0     H37194   5.772   8.654   3.762 -0.4660 -0.1522  0.2914
  276MOL0     H37195   6.005   8.293   3.883  0.5305 -1.4490 -0.7567
  276MOL0     H37196   5.868   8.227   3.815 -0.1648  1.5101  1.5739
  276MOL0     H37197   5.975   8.223   3.592 -4.8516  1.2754  2.3065
  276MOL0     H37198   6.043   8.120   3.708 -2.1413  1.1777  2.3567
  276MOL0     H37199   6.234   8.281   3.749  3.7336 -4.1257 -2.2960
  276MOL0     H37200   6.164   8.400   3.626  1.4887 -0.5031 -0.3583
  276MOL0     H37201   6.270   8.118   3.553 -2.3611 -0.3063 -1.6157
  276MOL0     H37202   6.178   8.207   3.448  0.4750  0.4199 -0.6743
  276MOL0     H37203   6.388   8.269   3.398 -0.0405  2.1520 -0.7406
  276MOL0     H37204   6.304   8.405   3.475  0.0795  0.6390  0.2176
  276MOL0     H37205   6.451   8.372   3.682  0.2756 -0.5054  0.3208
  276MOL0     H37206   6.501   8.209   3.626 -0.0023 -0.5343 -0.7330
  276MOL0     H37207   6.587   8.484   3.489  2.3054 -0.4847 -3.0839
  276MOL0     H37208   6.611   8.324   3.432 -0.8154 -1.9045  0.7518
  276MOL0     H37209   6.673   8.434   3.724  1.0705  0.2546  0.3608
  276MOL0     H37210   6.710   8.276   3.666  1.9569  0.0609 -2.2941
  276MOL0     H37211   6.876   8.299   3.403  1.7374  1.9560 -2.1125
  276MOL0     H37212   7.129   8.234   3.378 -1.5371  0.1112 -1.7969
  276MOL0     H37213   7.139   8.390   3.317 -0.4059 -0.3068 -0.0796
  276MOL0     H37214   7.306   8.305   3.553  0.5745  0.7947  0.5378
  276MOL0     H37215   7.358   8.341   3.393  1.7400 -0.6144  1.9533
  276MOL0     H37216   7.280   8.530   3.604  0.6234  0.7635  0.0777
  276MOL0     H37217   7.283   8.589   3.441  1.9287  0.8792 -0.0961
  276MOL0     H37218   7.506   8.527   3.396 -1.3732 -0.2187 -1.5328
  276MOL0     H37219   7.508   8.417   3.544 -1.5531  0.4076 -0.4075
  276MOL0     H37220   7.730   8.492   3.500 -1.8551 -0.3228  1.6916
  276MOL0     H37221   7.963   8.603   3.483 -2.0643 -2.2186 -1.0746
  276MOL0     H37222   8.241   8.865   3.300 -2.0197 -3.5826  1.1693
  276MOL0     H37223   8.457   8.914   3.278 -0.0431 -1.0381 -0.2251
  276MOL0     H37224   8.700   8.887   3.289 -2.0821  1.3882 -0.2827
  276MOL0     H37225   8.639   9.049   3.295  1.6201  1.2603 -0.9702
  276MOL0     H37226   8.894   9.059   3.278 -0.2009 -1.8964  0.2374
  276MOL0     H37227   8.827   9.134   3.416 -2.2022 -0.4457  0.3676
  276MOL0     H37228   8.883   8.910   3.539  0.1976 -0.6732 -0.1114
  276MOL0     H37229   8.949   8.851   3.387  0.8464 -1.1135 -0.6697
  276MOL0     H37230   9.049   9.106   3.536 -0.2960  0.6131 -0.6462
  276MOL0     H37231   9.102   9.041   3.372 -1.1841 -1.9579  0.2256
  276MOL0     H37232   9.124   8.902   3.637 -0.5785 -0.4654 -1.4966
  276MOL0     H37233   9.262   8.997   3.591  1.7331 -2.1869  0.6793
  276MOL0     H37234   9.178   8.773   3.404  1.0458 -1.3827 -1.6822
  276MOL0     H37235   9.316   8.869   3.403 -1.6388  0.8846 -0.4921
  276MOL0     H37236   9.228   8.682   3.624 -2.1296  0.6954 -2.0806
  276MOL0     H37237   9.371   8.791   3.649 -0.6770  1.8560  0.0339
  276MOL0     H37238   9.458   8.589   3.601  1.9126  0.0419 -0.4701
  276MOL0     H37239   9.342   8.550   3.468  1.8461  0.8088 -2.0724
  276MOL0     H37240   8.514   8.872   3.714 -1.3214 -2.3271  1.0349
  276MOL0     H37241   8.298   8.792   3.726 -2.8017  3.3803 -0.0892
  276MOL0     H37242   7.809   8.956   3.675 -0.3052 -0.4582 -0.1914
  276MOL0     H37243   7.592   8.860   3.680  0.8941  0.7136 -0.8876
  276MOL0     H37244   5.724   8.236   3.651  0.7883  0.5480  0.1239
  276MOL0     H37245   5.495   8.253   3.691  0.0535  1.6162 -0.2958
  276MOL0     H37246   5.186   8.620   3.822  1.2672  0.1142 -1.7117
  276MOL0     H37247   4.938   8.650   3.893 -0.8936  1.7312 -0.2665
  276MOL0     H37248   4.667   8.566   3.538 -2.2081  0.7028 -0.6596
  276MOL0     H37249   4.561   8.641   3.633  1.7104  0.9622 -1.1324
  276MOL0     H37250   4.502   8.418   3.751 -2.1866  2.4223 -1.5041
  276MOL0     H37251   4.652   8.348   3.678 -1.1094 -1.3735  0.2401
  276MOL0     H37252   4.551   8.315   3.471  2.6643  3.9634 -1.3664
  276MOL0     H37253   4.435   8.443   3.494  0.6364 -1.4388 -0.7234
  276MOL0     H37254   4.425   8.175   3.623  0.5412  1.2250  0.2017
  276MOL0     H37255   4.327   8.303   3.683  0.4293 -0.9129  1.0603
  276MOL0     H37256   4.115   8.281   3.335 -1.5906 -1.7971  0.8622
  276MOL0     H37257   4.822   8.416   3.546 -0.1681  0.1947 -0.8724
  276MOL0     H37258   4.974   8.240   3.468  0.4833 -0.0694 -0.8768
  276MOL0     H37259   5.077   8.375   3.388 -0.0311  1.7823  1.4002
  276MOL0     H37260   5.146   8.252   3.493  1.0965  0.5706 -2.2674
  277MOL0     O37261   3.751   4.428   7.501  0.1174 -0.6322  0.1111
  277MOL0     C37262   3.679   4.369   7.423  0.2504 -0.4867  0.2373
  277MOL0     O37263   3.719   4.345   7.300 -0.2954 -0.1312  0.2876
  277MOL0     C37264   3.822   4.428   7.248  0.0024  0.5492 -0.2947
  277MOL0     C37265   3.782   4.499   7.140 -0.8475  0.1689  0.0739
  277MOL0     C37266   3.876   4.590   7.079  0.9106 -0.4801  0.5264
  277MOL0     C37267   4.000   4.618   7.132 -0.0887 -1.0055  0.1505
  277MOL0     O37268   4.077   4.709   7.060 -0.5430  0.5162 -0.1102
  277MOL0     C37269   4.216   4.738   7.104 -0.2651 -0.7434 -0.4756
  277MOL0     C37270   4.298   4.788   6.990 -0.0766 -0.1606 -0.3400
  277MOL0     C37271   4.426   4.863   7.025 -0.8139 -0.2419 -0.8642
  277MOL0     C37272   4.522   4.777   7.113 -0.3007 -0.8570 -0.1271
  277MOL0     C37273   4.660   4.842   7.144 -1.0155 -0.1953 -0.9004
  277MOL0     C37274   4.768   4.744   7.176  0.2897  0.1314  0.3915
  277MOL0     C37275   4.903   4.805   7.183 -1.6591  0.2650  0.8997
  277MOL0     C37276   5.010   4.695   7.176  0.1100 -0.0268 -0.0163
  277MOL0     N37277   5.132   4.742   7.237 -0.0482 -0.3985 -0.0662
  277MOL0     C37278   5.197   4.862   7.199 -0.1256 -0.2624 -0.6851
  277MOL0     C37279   5.307   4.871   7.283 -0.1598  0.1105 -0.3681
  277MOL0     C37280   5.408   4.973   7.273  0.4271  0.0529  0.2168
  277MOL0     C37281   5.550   4.923   7.284 -0.0101  0.1016  0.0672
  277MOL0     C37282   5.649   5.024   7.229  0.8409 -0.5819  0.3191
  277MOL0     C37283   5.782   4.951   7.216 -0.5044  0.1181  0.9121
  277MOL0     O37284   5.897   5.032   7.176 -0.0609  0.2623 -0.6251
  277MOL0     C37285   6.026   5.002   7.228  0.7191  0.7701 -0.0017
  277MOL0     C37286   6.079   4.876   7.234  0.2741  0.7831 -0.0828
  277MOL0     C37287   6.206   4.853   7.294  0.1606 -0.5063 -0.3925
  277MOL0     C37288   6.277   4.961   7.345 -0.1883 -0.3618  0.4913
  277MOL0     C37289   6.420   4.946   7.384 -0.1012 -0.1733 -0.1252
  277MOL0     O37290   6.452   5.040   7.483 -0.2739  0.8415  0.1966
  277MOL0     C37291   6.583   5.055   7.512  0.6309 -0.3441  0.0763
  277MOL0     C37292   6.654   5.162   7.457  0.6545  0.1954  1.0820
  277MOL0     C37293   6.792   5.175   7.462  0.0893  0.1526 -0.3998
  277MOL0     C37294   6.860   5.076   7.535 -0.1376 -0.3464 -0.1527
  277MOL0     O37295   7.004   5.089   7.526  0.6077 -0.0951 -0.1878
  277MOL0     C37296   7.083   4.990   7.586 -1.0692 -0.0914 -0.4881
  277MOL0     C37297   7.199   4.972   7.491 -0.8286  0.3165 -0.5616
  277MOL0     C37298   7.288   4.849   7.524  0.0860 -0.0275 -0.6200
  277MOL0     C37299   7.359   4.860   7.663  0.6431  0.0689 -1.2206
  277MOL0     C37300   7.454   4.739   7.699 -0.4963 -0.0131  0.3515
  277MOL0     C37301   7.535   4.696   7.576 -0.3150 -0.1094  0.1232
  277MOL0     C37302   7.650   4.593   7.612  0.1909  0.4338 -1.2469
  277MOL0     C37303   7.724   4.556   7.495 -0.0487 -0.9731 -0.2834
  277MOL0    Cl37304   7.878   4.480   7.552  0.0412  0.2605  0.1984
  277MOL0     C37305   6.791   4.983   7.606 -0.9681 -0.1243 -0.9868
  277MOL0     C37306   6.655   4.970   7.593 -0.5234 -0.1654 -0.7269
  277MOL0     O37307   6.492   4.868   7.327 -0.0678 -0.1174  0.6710
  277MOL0     C37308   6.223   5.091   7.335  0.5719 -0.2994 -0.0271
  277MOL0     C37309   6.104   5.109   7.279  0.8053 -0.8103 -0.2570
  277MOL0     N37310   5.306   4.765   7.371 -0.3776 -0.2529  0.5128
  277MOL0     N37311   5.197   4.691   7.343  0.3302 -0.1236 -0.3236
  277MOL0     C37312   4.040   4.537   7.241 -0.1895 -0.1887 -0.6454
  277MOL0     C37313   3.953   4.452   7.299  0.4167  0.4386  0.5505
  277MOL0     C37314   3.545   4.333   7.478 -0.0499 -0.0662 -1.0252
  277MOL0     C37315   3.468   4.251   7.397  0.4110 -0.9174 -0.7148
  277MOL0     C37316   3.359   4.187   7.452 -0.0882  0.2109 -0.3198
  277MOL0     C37317   3.318   4.203   7.579  0.5326  0.0996 -0.3503
  277MOL0     O37318   3.210   4.140   7.628  0.3003  0.3822  0.3544
  277MOL0     C37319   3.080   4.196   7.586 -0.8522  0.9476  0.7169
  277MOL0     C37320   3.020   4.302   7.680  0.4847 -0.5837  0.0366
  277MOL0     C37321   2.880   4.343   7.623 -0.3530 -0.4249  0.4797
  277MOL0     C37322   2.823   4.479   7.668 -0.7176  0.5657  0.2724
  277MOL0     C37323   2.870   4.594   7.585 -0.9110 -0.8425 -0.6613
  277MOL0     C37324   2.929   4.684   7.525  0.0409 -0.4961  0.4163
  277MOL0     C37325   3.391   4.286   7.665 -0.3839  0.9838  0.4542
  277MOL0     C37326   3.507   4.345   7.618 -0.1299  0.0903  0.3847
  277MOL0     C37327   3.582   4.423   7.729  0.2041  0.1919  0.0573
  277MOL0     H37328   3.683   4.488   7.098 -0.6382  1.1852 -0.7501
  277MOL0     H37329   3.837   4.633   6.987  0.0620  0.9702  1.5152
  277MOL0     H37330   4.215   4.821   7.174  0.8266  0.7610 -2.1579
  277MOL0     H37331   4.271   4.652   7.142  0.1403 -0.3276 -0.1230
  277MOL0     H37332   4.235   4.854   6.930 -3.1076 -1.4588  1.2147
  277MOL0     H37333   4.311   4.700   6.927 -1.4752  1.3018 -2.8135
  277MOL0     H37334   4.403   4.954   7.082  1.8385  1.0460 -1.6635
  277MOL0     H37335   4.486   4.898   6.941  3.2490  0.3733  1.9800
  277MOL0     H37336   4.473   4.748   7.206 -2.6404  0.6581 -0.7820
  277MOL0     H37337   4.549   4.690   7.053  2.4736 -0.2735  0.1418
  277MOL0     H37338   4.696   4.904   7.062  0.9939 -0.3153 -0.1601
  277MOL0     H37339   4.653   4.910   7.229 -1.3037 -0.8152 -0.4120
  277MOL0     H37340   4.743   4.699   7.272 -0.6870 -0.5005 -0.1361
  277MOL0     H37341   4.763   4.658   7.108 -2.0924 -0.4872  1.2642
  277MOL0     H37342   4.912   4.874   7.267  0.2043  2.8441 -1.2482
  277MOL0     H37343   4.907   4.867   7.093 -1.6711 -0.8596  0.0980
  277MOL0     H37344   4.985   4.603   7.230  1.0683 -0.5297 -0.4199
  277MOL0     H37345   5.027   4.663   7.073 -3.5352 -2.7067 -0.0026
  277MOL0     H37346   5.172   4.928   7.117 -0.2486  0.6165  0.0393
  277MOL0     H37347   5.391   5.016   7.174 -1.5772 -2.9873 -0.9055
  277MOL0     H37348   5.387   5.044   7.354 -6.4701 -0.1967 -0.7436
  277MOL0     H37349   5.579   4.893   7.385  1.0111 -2.1565 -0.8123
  277MOL0     H37350   5.558   4.840   7.213  2.3552  0.1382  0.1939
  277MOL0     H37351   5.662   5.108   7.298  1.7817 -1.0505  0.7368
  277MOL0     H37352   5.616   5.060   7.131  4.1075  2.3142  0.0856
  277MOL0     H37353   5.777   4.877   7.135  1.1254  1.2097 -0.2560
  277MOL0     H37354   5.813   4.898   7.306  0.6507  0.5793  0.8070
  277MOL0     H37355   6.014   4.797   7.197  1.0475  1.0956 -2.2327
  277MOL0     H37356   6.245   4.753   7.307 -0.4027 -0.7098 -0.2328
  277MOL0     H37357   6.586   5.230   7.407  0.1016 -1.1095 -0.0194
  277MOL0     H37358   6.844   5.254   7.409 -0.1972  0.6466  0.0456
  277MOL0     H37359   7.107   5.009   7.691  0.2091 -1.5145 -0.4873
  277MOL0     H37360   7.025   4.898   7.599 -1.0014  0.0414  0.8671
  277MOL0     H37361   7.161   4.956   7.390 -0.3714  1.7107 -0.9629
  277MOL0     H37362   7.262   5.061   7.489  1.3728 -0.8997  3.3504
  277MOL0     H37363   7.228   4.758   7.536 -1.5831  1.0485 -0.5271
  277MOL0     H37364   7.371   4.835   7.454  0.8355 -1.4961  0.4978
  277MOL0     H37365   7.290   4.867   7.747  0.8106  2.1471 -1.1970
  277MOL0     H37366   7.420   4.950   7.657 -0.2453  0.5843 -3.5024
  277MOL0     H37367   7.390   4.657   7.733  0.2090 -0.7998 -0.2020
  277MOL0     H37368   7.522   4.768   7.779  0.8268 -1.9416 -0.0219
  277MOL0     H37369   7.470   4.633   7.515  0.3549 -0.0776 -0.6348
  277MOL0     H37370   7.578   4.777   7.516  1.0856 -1.2279 -0.4521
  277MOL0     H37371   7.620   4.500   7.660  0.9514  1.0055  0.3939
  277MOL0     H37372   7.714   4.645   7.683 -1.2101  0.5731 -0.0553
  277MOL0     H37373   7.658   4.505   7.424  1.5065 -4.1792  0.4016
  277MOL0     H37374   7.751   4.653   7.453  0.5442 -1.5580 -1.2783
  277MOL0     H37375   6.835   4.895   7.653  0.1083 -1.3224 -4.0259
  277MOL0     H37376   6.611   4.881   7.636 -0.9553  1.6071  2.7964
  277MOL0     H37377   6.277   5.183   7.356  3.3746 -1.7713 -0.2340
  277MOL0     H37378   6.065   5.211   7.275 -1.5774 -1.6134  0.9618
  277MOL0     H37379   4.135   4.539   7.292 -0.4507  0.4550 -0.1657
  277MOL0     H37380   3.985   4.390   7.382  3.2756  1.1827  0.1260
  277MOL0     H37381   3.490   4.227   7.293  2.3462 -2.7923  0.0568
  277MOL0     H37382   3.295   4.134   7.382 -2.8080 -0.1961  2.2647
  277MOL0     H37383   3.022   4.103   7.580  0.2025  0.3552 -2.6960
  277MOL0     H37384   3.097   4.253   7.494  2.8352 -1.2317 -0.1890
  277MOL0     H37385   3.091   4.385   7.691  0.4680 -0.4205 -0.9975
  277MOL0     H37386   3.015   4.252   7.777  1.8093  0.4535  0.6711
  277MOL0     H37387   2.818   4.267   7.672 -0.4587 -0.4883  0.2523
  277MOL0     H37388   2.866   4.316   7.518 -1.2760  1.0547  0.1794
  277MOL0     H37389   2.714   4.480   7.660 -0.5902  0.6825 -3.2300
  277MOL0     H37390   2.862   4.499   7.768  1.3480  1.1045 -0.5805
  277MOL0     H37391   2.987   4.761   7.478  0.1426  0.2687  1.7151
  277MOL0     H37392   3.353   4.287   7.766 -0.6950  0.3100  0.3467
  277MOL0     H37393   3.536   4.413   7.828  1.7412 -2.6514  0.5776
  277MOL0     H37394   3.682   4.384   7.751 -0.3915 -0.5827  1.5284
  277MOL0     H37395   3.587   4.529   7.700  1.4468  0.3897  0.9231
  278MOL0     O37396   3.473   3.186  10.323  0.1568  0.1626  0.6390
  278MOL0     C37397   3.422   3.079  10.300  0.1771 -0.4645  0.2847
  278MOL0     O37398   3.496   2.967  10.269 -0.6974  0.2464 -0.2248
  278MOL0     C37399   3.633   2.965  10.256 -0.1424  0.2082 -0.1217
  278MOL0     C37400   3.693   3.013  10.144  0.4839  0.6024 -0.3566
  278MOL0     C37401   3.834   3.020  10.139 -0.3477  0.0769  0.3479
  278MOL0     C37402   3.910   2.962  10.242 -0.0105  0.5283  0.0391
  278MOL0     O37403   4.049   2.967  10.231 -0.3401  0.6016  0.6377
  278MOL0     C37404   4.128   3.034  10.331 -0.4227 -0.0206  0.3967
  278MOL0     C37405   4.270   2.983  10.342  0.2545 -0.2116  1.0727
  278MOL0     C37406   4.346   3.035  10.456  0.4825 -0.1705 -0.9630
  278MOL0     C37407   4.368   2.928  10.570 -0.6149  0.0938 -0.1400
  278MOL0     C37408   4.470   2.980  10.667  0.5400  0.2561 -0.0955
  278MOL0     C37409   4.480   2.916  10.809  1.1590  1.1149 -0.1494
  278MOL0     C37410   4.581   2.984  10.903  0.3968 -0.6459 -0.3887
  278MOL0     C37411   4.731   2.972  10.876 -0.1591  0.5961 -0.6001
  278MOL0     N37412   4.779   2.842  10.910 -0.8587 -0.8240  0.0182
  278MOL0     C37413   4.776   2.728  10.834 -0.1333  0.0641  0.2357
  278MOL0     C37414   4.858   2.637  10.897  1.5858 -0.6083  0.2281
  278MOL0     C37415   4.914   2.509  10.864  0.1647 -0.5167 -0.7324
  278MOL0     C37416   5.012   2.506  10.753 -0.0307 -0.2027  0.6165
  278MOL0     C37417   5.104   2.379  10.755 -0.2699 -0.9245 -0.7820
  278MOL0     C37418   5.157   2.352  10.606  0.2992  0.0385  0.1871
  278MOL0     O37419   5.260   2.447  10.570 -0.5503 -0.6537  0.2752
  278MOL0     C37420   5.383   2.427  10.617 -0.0783 -0.5812 -0.0417
  278MOL0     C37421   5.482   2.528  10.582  0.1261 -0.0136 -0.1107
  278MOL0     C37422   5.608   2.532  10.631 -0.4339  0.3032 -0.4110
  278MOL0     C37423   5.645   2.438  10.731  0.0777  0.8958 -1.3712
  278MOL0     C37424   5.773   2.450  10.796 -0.0621  0.5214  0.5422
  278MOL0     O37425   5.849   2.565  10.771 -0.4294 -0.5973  0.3755
  278MOL0     C37426   5.981   2.553  10.802  0.3148 -0.6477  0.6891
  278MOL0     C37427   6.081   2.491  10.726  0.1238 -0.4167  0.3990
  278MOL0     C37428   6.223   2.509  10.759 -0.3198  0.0717 -0.1210
  278MOL0     C37429   6.263   2.566  10.880 -0.6894 -0.4880  0.7018
  278MOL0     O37430   6.392   2.571  10.909  0.8582  0.1437  0.1559
  278MOL0     C37431   6.410   2.536  11.049 -0.1998  0.4003 -0.1330
  278MOL0     C37432   6.562   2.501  11.050  0.1652 -0.1332 -0.6165
  278MOL0     C37433   6.655   2.618  11.000  0.5903  0.8386  0.3352
  278MOL0     C37434   6.797   2.578  11.035 -0.4559 -0.6750  0.0784
  278MOL0     C37435   6.907   2.676  10.990 -0.2409 -0.1574 -0.3740
  278MOL0     C37436   6.891   2.815  11.034 -0.3935  0.0974  0.1713
  278MOL0     C37437   7.010   2.912  11.008 -0.0142  0.3688  0.6715
  278MOL0     C37438   6.988   3.052  11.055 -0.5375 -0.4093  0.2843
  278MOL0    Cl37439   6.938   3.064  11.228 -0.2042  0.0812  0.2702
  278MOL0     C37440   6.155   2.609  10.961 -0.2070  0.6191 -0.2622
  278MOL0     C37441   6.021   2.612  10.917  0.0986 -0.3319 -0.0556
  278MOL0     O37442   5.811   2.361  10.870 -0.0679  0.1971 -0.7351
  278MOL0     C37443   5.549   2.340  10.768  0.0130  0.6719 -0.3794
  278MOL0     C37444   5.427   2.326  10.711  0.0994 -0.9737 -0.0600
  278MOL0     N37445   4.900   2.701  11.018 -0.1459  0.1887  0.2071
  278MOL0     N37446   4.840   2.820  11.030 -0.7064  0.5923  0.3481
  278MOL0     C37447   3.844   2.904  10.351  0.4704 -0.1849 -0.0161
  278MOL0     C37448   3.706   2.907  10.364  0.3908 -0.4259 -0.3196
  278MOL0     C37449   3.282   3.058  10.333 -0.0727  0.1643  0.5508
  278MOL0     C37450   3.232   2.928  10.359 -0.5735  0.2766  0.3494
  278MOL0     C37451   3.097   2.904  10.374 -0.4191  0.2208  1.1498
  278MOL0     C37452   3.003   3.010  10.354  0.5529  0.0142  0.7326
  278MOL0     O37453   2.869   3.001  10.345  0.0422  0.5063 -0.0627
  278MOL0     C37454   2.815   2.883  10.304 -0.6651 -0.8509  0.6512
  278MOL0     C37455   2.660   2.890  10.302  0.3989  0.1982 -0.5976
  278MOL0     C37456   2.604   2.866  10.438  0.4407  0.1612 -1.3304
  278MOL0     C37457   2.468   2.939  10.470 -0.3421  0.3378 -0.3937
  278MOL0     C37458   2.363   2.921  10.368  0.6083 -0.6060 -0.6536
  278MOL0     C37459   2.269   2.921  10.291  0.1682  0.0580  0.2172
  278MOL0     C37460   3.049   3.138  10.336  0.2365 -0.3448 -0.6945
  278MOL0     C37461   3.187   3.165  10.326 -0.1307  0.1621 -0.2427
  278MOL0     C37462   3.226   3.321  10.327  0.4519 -0.0684  0.5300
  278MOL0     H37463   3.632   3.049  10.062 -0.2523 -1.2438 -0.6610
  278MOL0     H37464   3.886   3.048  10.048  1.8747  0.4295  1.6464
  278MOL0     H37465   4.130   3.141  10.309 -0.0410 -0.0609  0.2365
  278MOL0     H37466   4.082   3.016  10.429 -0.3860 -3.2981 -0.0589
  278MOL0     H37467   4.323   3.011  10.250  1.2144  0.3296  1.7691
  278MOL0     H37468   4.280   2.874  10.339  3.6907  0.0068  1.2312
  278MOL0     H37469   4.297   3.122  10.501 -1.2807 -0.8794 -1.4179
  278MOL0     H37470   4.444   3.071  10.423 -0.6723  2.6290 -1.6810
  278MOL0     H37471   4.280   2.898  10.627 -0.4160 -0.6127 -0.1979
  278MOL0     H37472   4.408   2.836  10.527  0.1501  0.6765 -0.7080
  278MOL0     H37473   4.569   2.959  10.624  2.3144 -0.8505  4.0613
  278MOL0     H37474   4.455   3.088  10.675 -0.3961  0.3808 -2.5943
  278MOL0     H37475   4.384   2.922  10.861  1.1169 -0.9564  0.0958
  278MOL0     H37476   4.510   2.811  10.807  1.9369  1.1700  3.0381
  278MOL0     H37477   4.571   2.949  11.006  1.6859  0.4666  0.1348
  278MOL0     H37478   4.542   3.087  10.906  1.6083 -0.1850 -0.1016
  278MOL0     H37479   4.756   2.993  10.772  1.4328 -0.7683 -0.5265
  278MOL0     H37480   4.773   3.055  10.934 -0.1619 -0.3118  0.7636
  278MOL0     H37481   4.728   2.721  10.737  0.6646 -1.8232 -0.0548
  278MOL0     H37482   4.970   2.477  10.952  2.7534  0.8680 -1.7877
  278MOL0     H37483   4.830   2.443  10.838 -0.7281 -1.5470  3.9089
  278MOL0     H37484   4.956   2.500  10.659 -0.1149  0.3315  0.6304
  278MOL0     H37485   5.069   2.598  10.767  0.3112 -0.6456  2.4722
  278MOL0     H37486   5.045   2.294  10.791 -0.4687 -1.8816 -3.1848
  278MOL0     H37487   5.187   2.406  10.820 -1.3315  1.2840 -0.2297
  278MOL0     H37488   5.079   2.359  10.529  1.5877  1.0695 -1.0709
  278MOL0     H37489   5.194   2.249  10.618  1.2135  0.3624  0.2199
  278MOL0     H37490   5.445   2.597  10.507  1.1314  0.7002  0.0462
  278MOL0     H37491   5.667   2.614  10.590 -2.4732  1.9589 -0.1753
  278MOL0     H37492   6.058   2.434  10.637 -1.7042  1.0580 -0.1565
  278MOL0     H37493   6.304   2.468  10.700  1.3288 -0.3220  2.2867
  278MOL0     H37494   6.392   2.623  11.114  0.9082 -0.7830  1.8618
  278MOL0     H37495   6.354   2.445  11.073 -0.8277  0.6451 -0.6553
  278MOL0     H37496   6.580   2.474  11.155 -0.3804  0.5617 -0.3368
  278MOL0     H37497   6.577   2.417  10.983 -0.5927 -0.0727 -0.8737
  278MOL0     H37498   6.638   2.641  10.894 -1.6488  0.4436  0.5487
  278MOL0     H37499   6.618   2.704  11.056 -0.0590  0.4929  0.4530
  278MOL0     H37500   6.829   2.491  10.978  3.2054  1.9412 -2.3757
  278MOL0     H37501   6.802   2.565  11.143 -1.0180 -2.0229 -0.0433
  278MOL0     H37502   6.897   2.676  10.881 -2.5590  1.9887 -0.2435
  278MOL0     H37503   7.003   2.640  11.026 -0.4535  0.9769  1.4147
  278MOL0     H37504   6.800   2.855  10.988  0.9511  1.3273 -1.5327
  278MOL0     H37505   6.875   2.814  11.143 -2.9721 -0.6632 -0.1390
  278MOL0     H37506   7.036   2.917  10.902  0.2301 -1.5893  0.6023
  278MOL0     H37507   7.104   2.878  11.051  1.3498  3.8254  0.7104
  278MOL0     H37508   7.085   3.103  11.056 -0.2522 -0.9235 -0.3279
  278MOL0     H37509   6.932   3.104  10.976  0.0364 -1.3589 -0.7758
  278MOL0     H37510   6.174   2.665  11.053 -1.8662  0.2104  0.3720
  278MOL0     H37511   5.948   2.670  10.973  0.2539 -0.4596  0.2854
  278MOL0     H37512   5.570   2.258  10.835 -1.6428  0.4528 -0.0781
  278MOL0     H37513   5.357   2.246  10.734  1.2637 -1.4984  1.9011
  278MOL0     H37514   3.897   2.874  10.441 -0.4548  3.6245  2.0374
  278MOL0     H37515   3.648   2.903  10.455 -0.8588  0.1539 -1.0505
  278MOL0     H37516   3.299   2.843  10.365 -2.0072 -1.1234 -1.9752
  278MOL0     H37517   3.072   2.803  10.403  0.7038  0.2166  2.1708
  278MOL0     H37518   2.850   2.800  10.366 -1.9276 -1.4364  0.6078
  278MOL0     H37519   2.848   2.865  10.202  0.0139 -1.0892  0.9037
  278MOL0     H37520   2.620   2.817  10.232 -4.2914  1.6501  0.2538
  278MOL0     H37521   2.623   2.981  10.256  0.4579  0.3490 -0.3498
  278MOL0     H37522   2.673   2.899  10.517 -1.7701  0.1315  0.7427
  278MOL0     H37523   2.586   2.759  10.450 -3.5168  0.7826 -0.5581
  278MOL0     H37524   2.440   2.904  10.570  0.7874 -1.4780 -0.6635
  278MOL0     H37525   2.479   3.048  10.474 -0.4583  0.4764 -2.6769
  278MOL0     H37526   2.173   2.919  10.242  1.0665  0.6379 -1.6791
  278MOL0     H37527   2.972   3.215  10.334 -1.2683 -1.7811  0.0183
  278MOL0     H37528   3.142   3.383  10.296  0.1465  0.3662  2.1257
  278MOL0     H37529   3.263   3.366  10.420 -2.0324  0.9868  1.0907
  278MOL0     H37530   3.298   3.325  10.245  0.0432 -1.3091  0.0786
  279MOL0     O37531   4.785   7.568   1.137  0.2583 -0.8168  0.0919
  279MOL0     C37532   4.780   7.449   1.173 -0.2526 -0.4716  0.3909
  279MOL0     O37533   4.887   7.381   1.218  0.4950  0.4346 -0.0479
  279MOL0     C37534   5.008   7.433   1.229  0.6890  0.5809  0.0234
  279MOL0     C37535   5.037   7.558   1.284 -0.6829 -0.8101  1.3009
  279MOL0     C37536   5.174   7.600   1.301  0.3816 -0.3760  1.0721
  279MOL0     C37537   5.279   7.522   1.256 -0.0717 -0.8664  0.2781
  279MOL0     O37538   5.405   7.578   1.244  0.0944  1.0636 -0.2757
  279MOL0     C37539   5.513   7.492   1.266 -0.8032 -0.2114 -0.1478
  279MOL0     C37540   5.647   7.581   1.267 -0.8819 -0.6743 -1.3878
  279MOL0     C37541   5.772   7.495   1.271 -0.2026 -0.3139 -1.2708
  279MOL0     C37542   5.906   7.569   1.314  0.8775 -0.0265  0.0030
  279MOL0     C37543   6.021   7.483   1.302  0.1740  0.5894  0.4338
  279MOL0     C37544   6.147   7.557   1.367 -0.9808  0.0312 -0.5281
  279MOL0     C37545   6.266   7.455   1.383 -1.5713 -0.1594  0.2649
  279MOL0     C37546   6.401   7.528   1.399  0.0536  0.3889  0.1016
  279MOL0     N37547   6.518   7.447   1.437 -1.0276  0.3555  0.0727
  279MOL0     C37548   6.629   7.428   1.358 -0.4229 -0.4664  0.5021
  279MOL0     C37549   6.705   7.336   1.429 -0.5827  0.0380  0.0072
  279MOL0     C37550   6.835   7.264   1.383  0.9084 -0.4121  0.2007
  279MOL0     C37551   6.806   7.170   1.269 -0.2056  0.9289  0.3740
  279MOL0     C37552   6.933   7.126   1.204 -0.4950  0.5265 -0.1061
  279MOL0     C37553   7.041   7.052   1.287  0.5786 -0.2394  0.0841
  279MOL0     O37554   7.090   7.136   1.391 -0.7581  0.0699  0.6422
  279MOL0     C37555   7.211   7.202   1.363  0.9174  0.2249 -0.6986
  279MOL0     C37556   7.255   7.242   1.241  0.2664  0.4100 -0.1180
  279MOL0     C37557   7.386   7.299   1.244  0.8727  0.2238  0.3515
  279MOL0     C37558   7.459   7.319   1.354  0.3382 -0.1052 -0.1890
  279MOL0     C37559   7.589   7.390   1.352 -0.3408  0.6921  0.1468
  279MOL0     O37560   7.651   7.434   1.460 -0.1723  1.1110 -0.6807
  279MOL0     C37561   7.755   7.523   1.443  0.0103 -0.1774  1.2829
  279MOL0     C37562   7.740   7.651   1.486  0.0982 -0.8724 -1.1049
  279MOL0     C37563   7.840   7.753   1.462  0.5790  0.6631 -0.0087
  279MOL0     C37564   7.966   7.723   1.408  1.3611  0.1326 -0.3465
  279MOL0     O37565   8.072   7.807   1.402 -0.3376  0.9967  0.4866
  279MOL0     C37566   8.094   7.891   1.516  0.0599  0.2252 -0.2028
  279MOL0     C37567   8.228   7.952   1.508  0.2227  0.5907  0.2416
  279MOL0     C37568   8.341   7.847   1.491  0.3612  0.2848  0.6819
  279MOL0     C37569   8.480   7.909   1.500 -0.0192  0.0948  1.0636
  279MOL0     C37570   8.583   7.813   1.440  0.1132  0.0633 -0.1628
  279MOL0     C37571   8.724   7.863   1.448 -0.1961  0.1727 -0.0648
  279MOL0     C37572   8.816   7.750   1.392 -0.3896 -0.5124 -0.3910
  279MOL0     C37573   8.963   7.802   1.407  0.9225 -0.1991  0.3455
  279MOL0    Cl37574   9.078   7.680   1.372 -0.3902  0.0764 -0.2065
  279MOL0     C37575   7.984   7.592   1.363 -0.3679 -0.3215 -0.0811
  279MOL0     C37576   7.878   7.498   1.378 -0.2288  0.1935  0.0846
  279MOL0     O37577   7.645   7.386   1.242  0.0042 -0.4051  0.0251
  279MOL0     C37578   7.406   7.278   1.479 -0.4565  0.7547  1.2045
  279MOL0     C37579   7.281   7.223   1.481 -0.0566 -0.4161  0.3087
  279MOL0     N37580   6.643   7.300   1.546  0.1920 -0.6162 -0.3588
  279MOL0     N37581   6.530   7.374   1.554 -0.5530 -0.8814  0.5121
  279MOL0     C37582   5.251   7.392   1.195  0.0139 -0.0967 -0.6632
  279MOL0     C37583   5.115   7.356   1.181  0.9179 -0.3848  0.3887
  279MOL0     C37584   4.664   7.363   1.167  0.1336  0.7727 -0.1595
  279MOL0     C37585   4.681   7.226   1.195  0.0899 -0.1030 -0.6640
  279MOL0     C37586   4.572   7.133   1.217 -0.5963  0.2289 -1.2995
  279MOL0     C37587   4.447   7.180   1.182 -0.2943  0.1033 -0.1017
  279MOL0     O37588   4.331   7.107   1.185 -0.1254  0.0672 -0.3560
  279MOL0     C37589   4.340   6.971   1.219  0.7938  0.5469 -0.8559
  279MOL0     C37590   4.220   6.888   1.200 -1.0767 -0.6718 -0.2963
  279MOL0     C37591   4.093   6.969   1.250  0.4281  0.2617 -0.4689
  279MOL0     C37592   3.973   6.867   1.258  0.2630 -1.3758  0.4736
  279MOL0     C37593   3.844   6.929   1.244  0.1892  0.1503  0.3015
  279MOL0     C37594   3.739   6.985   1.224 -0.4755 -0.1007 -0.4243
  279MOL0     C37595   4.432   7.307   1.139  0.4873 -0.7485  0.2361
  279MOL0     C37596   4.533   7.402   1.126 -0.4182  0.1093  0.1362
  279MOL0     C37597   4.488   7.543   1.082 -0.7624 -0.7617  0.5461
  279MOL0     H37598   4.962   7.630   1.317 -2.8460 -2.0752 -0.5723
  279MOL0     H37599   5.192   7.693   1.353 -4.2859  0.8267  0.9427
  279MOL0     H37600   5.509   7.445   1.365  1.2463  2.3686  1.2614
  279MOL0     H37601   5.526   7.417   1.188 -0.2436 -0.0471 -0.2119
  279MOL0     H37602   5.635   7.653   1.348 -3.1878 -2.2096 -0.2537
  279MOL0     H37603   5.659   7.636   1.173  0.2478 -2.7397 -2.5119
  279MOL0     H37604   5.781   7.452   1.171 -0.3078 -2.6956 -0.3179
  279MOL0     H37605   5.767   7.415   1.346  3.0272  1.4142  1.0540
  279MOL0     H37606   5.918   7.663   1.259 -1.2990 -0.1629 -0.7910
  279MOL0     H37607   5.890   7.586   1.421 -1.1177 -0.8869 -0.1212
  279MOL0     H37608   6.010   7.386   1.351 -1.5538  1.0413  0.9930
  279MOL0     H37609   6.033   7.460   1.195 -1.3875  1.5635  0.0152
  279MOL0     H37610   6.168   7.651   1.313  1.1711  0.0367  0.2455
  279MOL0     H37611   6.111   7.597   1.462  2.9092  3.6206 -0.2397
  279MOL0     H37612   6.263   7.388   1.297 -1.6619 -1.6467  1.3982
  279MOL0     H37613   6.255   7.397   1.475 -0.2561  0.8565  1.0997
  279MOL0     H37614   6.436   7.585   1.313  5.3113 -3.2588 -0.7202
  279MOL0     H37615   6.390   7.599   1.481  1.2485 -1.5552  2.0885
  279MOL0     H37616   6.642   7.463   1.256  2.7271 -1.2357  0.5355
  279MOL0     H37617   6.897   7.341   1.337  0.7748  0.3748  1.2850
  279MOL0     H37618   6.891   7.229   1.471  1.0308  0.7590  0.6148
  279MOL0     H37619   6.753   7.085   1.313 -0.7290  1.9681  1.7877
  279MOL0     H37620   6.748   7.219   1.190 -0.0070  0.2661 -0.2022
  279MOL0     H37621   6.992   7.209   1.164 -1.2222  1.9887  1.7709
  279MOL0     H37622   6.897   7.068   1.118  0.3017  1.8790 -1.4143
  279MOL0     H37623   7.118   7.004   1.226 -0.2956 -1.0681 -0.3815
  279MOL0     H37624   6.995   6.970   1.343  0.7463 -0.4823 -0.1318
  279MOL0     H37625   7.199   7.233   1.148 -1.1591  0.4550  0.7251
  279MOL0     H37626   7.420   7.342   1.150  1.1722  1.2519  0.9182
  279MOL0     H37627   7.647   7.686   1.528  1.5186 -0.0858  1.5880
  279MOL0     H37628   7.823   7.857   1.487  1.3218  0.4483  1.4854
  279MOL0     H37629   8.017   7.965   1.540 -1.2460 -1.9895  3.2590
  279MOL0     H37630   8.098   7.816   1.595  1.2631 -0.4328 -0.8628
  279MOL0     H37631   8.237   8.034   1.437  3.8444  0.3906  0.2916
  279MOL0     H37632   8.236   8.000   1.606  0.7389 -0.0150  0.5036
  279MOL0     H37633   8.332   7.771   1.570 -0.7078  0.7218  0.9999
  279MOL0     H37634   8.324   7.805   1.392 -4.5097  3.7250 -0.3336
  279MOL0     H37635   8.509   7.939   1.601  0.6711  1.4399  0.5021
  279MOL0     H37636   8.501   7.999   1.440  0.5316  1.1075  2.7082
  279MOL0     H37637   8.559   7.799   1.334 -2.3201  3.0304 -0.1145
  279MOL0     H37638   8.578   7.716   1.490  0.1421 -0.2319 -0.7178
  279MOL0     H37639   8.733   7.955   1.389  0.6369  0.4617  0.4968
  279MOL0     H37640   8.749   7.881   1.553 -0.1072 -3.7782  0.7213
  279MOL0     H37641   8.793   7.714   1.291  2.7343 -3.2313 -0.3253
  279MOL0     H37642   8.802   7.670   1.465 -0.7344 -0.9767 -0.9564
  279MOL0     H37643   8.964   7.885   1.335 -0.0223 -0.4484  0.0256
  279MOL0     H37644   8.984   7.832   1.510  0.1890  1.4446  0.0560
  279MOL0     H37645   8.079   7.555   1.326 -0.3115 -0.7976  0.5279
  279MOL0     H37646   7.889   7.398   1.336 -1.4644  0.3853 -0.7504
  279MOL0     H37647   7.473   7.290   1.564  3.1991 -1.8095 -1.0165
  279MOL0     H37648   7.240   7.197   1.578 -0.4870 -1.0776 -0.0452
  279MOL0     H37649   5.323   7.319   1.159 -1.8139 -2.2701 -0.1153
  279MOL0     H37650   5.088   7.256   1.147 -0.1128 -0.8970  2.5192
  279MOL0     H37651   4.782   7.184   1.201  0.2914  0.3247 -0.9955
  279MOL0     H37652   4.588   7.034   1.259 -0.8887  1.4042  1.8920
  279MOL0     H37653   4.354   6.970   1.328 -1.4322  1.4741 -0.4988
  279MOL0     H37654   4.428   6.929   1.170  3.3171  1.1460  2.8031
  279MOL0     H37655   4.231   6.799   1.263 -1.2816 -1.5014 -1.4027
  279MOL0     H37656   4.210   6.860   1.095  0.2236  1.5042 -1.0583
  279MOL0     H37657   4.066   7.044   1.176 -0.8430  1.3205  1.0146
  279MOL0     H37658   4.112   7.007   1.351 -0.3534 -2.1830  0.6915
  279MOL0     H37659   3.973   6.810   1.165 -0.8809  1.5566 -1.4754
  279MOL0     H37660   3.980   6.799   1.344  1.2381 -1.9242 -0.0111
  279MOL0     H37661   3.645   7.035   1.219 -0.8083 -0.6764  0.0321
  279MOL0     H37662   4.326   7.330   1.128  0.6805  0.0825  0.0193
  279MOL0     H37663   4.503   7.539   0.974  1.9362  1.5952  0.7059
  279MOL0     H37664   4.389   7.578   1.111 -1.9282 -1.6566 -2.0638
  279MOL0     H37665   4.562   7.614   1.122 -0.4196 -1.0473  0.4297
  280MOL0     O37666   5.209   1.442   0.732 -1.0720 -0.6673  0.1265
  280MOL0     C37667   5.161   1.538   0.790 -1.2467  0.5543  0.6595
  280MOL0     O37668   5.223   1.617   0.886 -0.5076  0.1434  0.5440
  280MOL0     C37669   5.345   1.601   0.942  0.1246  0.1290 -0.4061
  280MOL0     C37670   5.376   1.489   1.023 -0.8147 -0.0033 -0.1731
  280MOL0     C37671   5.492   1.487   1.101  0.1605 -0.7697  0.5773
  280MOL0     C37672   5.584   1.591   1.102  0.6491  0.2344 -0.8008
  280MOL0     O37673   5.703   1.559   1.169 -0.1512 -0.5161  0.0255
  280MOL0     C37674   5.772   1.681   1.196 -0.0732  0.0978 -0.3091
  280MOL0     C37675   5.886   1.660   1.297 -0.5622  0.1013 -0.2756
  280MOL0     C37676   5.991   1.778   1.281  0.3035  0.1420 -0.5947
  280MOL0     C37677   6.121   1.746   1.369  0.8053 -0.7242  0.1798
  280MOL0     C37678   6.234   1.835   1.342 -0.5071 -1.3424  0.0925
  280MOL0     C37679   6.338   1.838   1.454 -0.6375  0.0438  0.0911
  280MOL0     C37680   6.452   1.933   1.404 -0.4492  0.4407  0.4687
  280MOL0     C37681   6.572   1.922   1.499 -0.2556 -0.2298  0.0724
  280MOL0     N37682   6.696   1.985   1.463 -0.0914 -0.6490 -0.3942
  280MOL0     C37683   6.795   2.012   1.561 -0.3228 -0.1824  0.6540
  280MOL0     C37684   6.915   2.014   1.488  0.2856  0.8036  0.0183
  280MOL0     C37685   7.050   2.020   1.560  0.1599  0.2719  0.3848
  280MOL0     C37686   7.165   1.999   1.465 -0.3366 -0.1419  0.5443
  280MOL0     C37687   7.204   2.139   1.405 -0.6000 -0.6111 -1.0515
  280MOL0     C37688   7.338   2.123   1.334  0.8432  0.2069  0.2197
  280MOL0     O37689   7.450   2.146   1.418 -0.0033 -0.0104 -0.5248
  280MOL0     C37690   7.578   2.122   1.372  0.7695 -0.1020 -0.3025
  280MOL0     C37691   7.679   2.172   1.457  0.3068 -0.3347  0.8208
  280MOL0     C37692   7.806   2.173   1.419  0.5055 -0.0869 -0.4734
  280MOL0     C37693   7.847   2.115   1.299 -0.9547 -0.4032  0.2016
  280MOL0     C37694   7.989   2.115   1.255 -0.4418  1.0650  1.0678
  280MOL0     O37695   8.011   2.076   1.121 -0.4853 -0.6174  0.3618
  280MOL0     C37696   8.139   2.094   1.067  0.1978  0.9517  0.1680
  280MOL0     C37697   8.207   2.210   1.095  1.0801  0.3132  0.1766
  280MOL0     C37698   8.336   2.226   1.054  0.1038 -0.6811 -0.6389
  280MOL0     C37699   8.389   2.135   0.965  0.1102  0.1071 -1.2112
  280MOL0     O37700   8.517   2.139   0.928 -0.4591  0.0558  0.1178
  280MOL0     C37701   8.608   2.250   0.954  0.5534  0.5376 -0.7901
  280MOL0     C37702   8.739   2.243   0.878  0.5094  0.2423 -0.5260
  280MOL0     C37703   8.823   2.115   0.892 -0.8151  0.1359  0.0707
  280MOL0     C37704   8.906   2.073   0.764 -0.5096  0.0067  0.3866
  280MOL0     C37705   9.004   1.954   0.796 -0.3697  0.5041 -0.1825
  280MOL0     C37706   9.043   1.870   0.668 -0.0744  0.1172  0.1222
  280MOL0     C37707   9.114   1.747   0.714  0.0973 -0.1714  0.3464
  280MOL0     C37708   9.185   1.677   0.598 -1.5070  0.0592  1.2508
  280MOL0    Cl37709   9.088   1.648   0.440 -0.0323  0.2040 -0.1611
  280MOL0     C37710   8.316   2.025   0.922 -0.0931  0.4721  0.0160
  280MOL0     C37711   8.191   1.995   0.979 -0.8509 -1.5155 -0.2148
  280MOL0     O37712   8.070   2.145   1.337 -0.3756 -0.2643 -0.2737
  280MOL0     C37713   7.745   2.046   1.218 -0.2814  0.5915  0.4444
  280MOL0     C37714   7.611   2.054   1.256 -0.3757  0.3153 -0.0228
  280MOL0     N37715   6.885   1.992   1.346  0.1187 -0.4931 -0.5798
  280MOL0     N37716   6.754   1.983   1.338  0.1846  0.1505  0.7880
  280MOL0     C37717   5.561   1.697   1.016  0.2551  0.0344  0.0037
  280MOL0     C37718   5.434   1.709   0.946  0.1150  0.4978  0.4824
  280MOL0     C37719   5.027   1.585   0.743  0.6272  0.2728  0.7147
  280MOL0     C37720   4.963   1.676   0.828  0.8129 -0.5213 -0.1963
  280MOL0     C37721   4.837   1.740   0.797 -0.4943 -0.4844 -0.6656
  280MOL0     C37722   4.772   1.692   0.682  0.5208 -0.0458 -0.3277
  280MOL0     O37723   4.642   1.730   0.678  1.2697 -0.1026  0.0110
  280MOL0     C37724   4.599   1.790   0.554  0.3151 -0.3637  0.2175
  280MOL0     C37725   4.474   1.720   0.515 -0.7771 -0.0309  0.1988
  280MOL0     C37726   4.352   1.763   0.590 -0.1779 -0.2717 -0.0574
  280MOL0     C37727   4.294   1.894   0.542 -0.2545  0.2961 -0.1828
  280MOL0     C37728   4.172   1.939   0.606  0.0748  0.6184  0.1239
  280MOL0     C37729   4.076   1.974   0.664  0.1014 -0.6089 -0.1457
  280MOL0     C37730   4.831   1.605   0.591 -0.4395  0.1267  0.2211
  280MOL0     C37731   4.958   1.553   0.620 -0.5254  0.2484  0.4864
  280MOL0     C37732   5.016   1.459   0.517 -0.5935 -0.5074 -0.5521
  280MOL0     H37733   5.312   1.401   1.029 -0.4707 -0.1607  2.0018
  280MOL0     H37734   5.514   1.404   1.167  1.8722  1.2790  2.7657
  280MOL0     H37735   5.818   1.705   1.100  1.9234 -2.2472 -0.0271
  280MOL0     H37736   5.709   1.755   1.245  3.1383  2.0472  1.1854
  280MOL0     H37737   5.938   1.565   1.280  2.4745  1.1578  2.0994
  280MOL0     H37738   5.846   1.650   1.399 -0.1112 -0.1864 -0.1240
  280MOL0     H37739   5.948   1.872   1.318 -2.9876 -1.5670  0.2728
  280MOL0     H37740   6.024   1.797   1.178 -1.9659  0.0772 -1.3840
  280MOL0     H37741   6.086   1.758   1.472 -0.3347 -0.4793 -0.2211
  280MOL0     H37742   6.153   1.641   1.359  1.8941 -0.3394 -0.5667
  280MOL0     H37743   6.275   1.796   1.249  0.0574  0.0528 -0.2759
  280MOL0     H37744   6.209   1.940   1.327  1.6831 -0.5922  1.1869
  280MOL0     H37745   6.303   1.878   1.549  4.1784  0.4927  1.9062
  280MOL0     H37746   6.368   1.735   1.479 -1.3999 -0.0758  0.5615
  280MOL0     H37747   6.419   2.038   1.401  0.3657  0.6917  0.0522
  280MOL0     H37748   6.485   1.908   1.303  0.5417 -0.1877  0.9302
  280MOL0     H37749   6.542   1.959   1.597  0.7423  0.1579  0.2461
  280MOL0     H37750   6.593   1.816   1.519  3.6722  0.9296  3.5989
  280MOL0     H37751   6.789   1.982   1.665 -2.0931  0.0803  0.6539
  280MOL0     H37752   7.060   2.109   1.624  1.2704 -0.5249  1.3640
  280MOL0     H37753   7.052   1.931   1.623  1.2298 -1.6769 -2.2489
  280MOL0     H37754   7.253   1.962   1.518 -0.0919 -2.1349 -1.1038
  280MOL0     H37755   7.143   1.928   1.385  0.3298 -0.3965  0.5827
  280MOL0     H37756   7.226   2.211   1.485  1.0843  1.9234 -3.6180
  280MOL0     H37757   7.119   2.173   1.345 -2.2447 -1.2125  0.8238
  280MOL0     H37758   7.329   2.199   1.255 -2.1494  1.8682  1.9373
  280MOL0     H37759   7.338   2.023   1.289  3.4326  1.0465 -1.8285
  280MOL0     H37760   7.651   2.213   1.553 -1.4621 -0.8938  0.5771
  280MOL0     H37761   7.875   2.231   1.479 -1.4307  3.3144 -1.2986
  280MOL0     H37762   8.155   2.290   1.147 -3.7362 -2.6183  0.4333
  280MOL0     H37763   8.392   2.316   1.078  3.0824 -2.3188 -0.8484
  280MOL0     H37764   8.551   2.343   0.942 -4.5935 -1.8276  1.7305
  280MOL0     H37765   8.635   2.237   1.059  2.2704  2.0747 -0.9855
  280MOL0     H37766   8.713   2.261   0.773 -3.4558  1.2112  0.4298
  280MOL0     H37767   8.798   2.332   0.903  1.0647  0.1028 -1.3221
  280MOL0     H37768   8.887   2.133   0.979  1.1549 -2.2151 -0.7683
  280MOL0     H37769   8.757   2.031   0.917  0.3539 -0.9546 -0.3801
  280MOL0     H37770   8.962   2.157   0.722 -0.2288 -0.1870  0.3676
  280MOL0     H37771   8.837   2.033   0.689 -2.0817  0.8226  1.3475
  280MOL0     H37772   8.965   1.881   0.867 -0.8626 -2.2770 -3.0772
  280MOL0     H37773   9.093   1.999   0.840  0.1980  0.3989 -1.1987
  280MOL0     H37774   8.951   1.833   0.622 -1.3440  0.6930  2.0593
  280MOL0     H37775   9.110   1.924   0.600  0.2583  0.5945  0.8173
  280MOL0     H37776   9.037   1.681   0.756 -1.1653  0.3255 -1.0880
  280MOL0     H37777   9.185   1.772   0.793  0.5976 -0.4743 -0.0019
  280MOL0     H37778   9.272   1.740   0.574 -0.3144 -0.6515  3.4088
  280MOL0     H37779   9.234   1.586   0.633 -1.4461 -0.4086  0.0100
  280MOL0     H37780   8.348   1.940   0.862 -2.1810 -1.1714  1.1209
  280MOL0     H37781   8.137   1.902   0.962  0.2172 -1.9164 -1.7083
  280MOL0     H37782   7.756   1.990   1.126 -0.6281  0.5448  0.4302
  280MOL0     H37783   7.532   2.006   1.200 -1.7177  1.4512  0.8179
  280MOL0     H37784   5.633   1.775   0.990  0.1542 -0.8216 -3.3258
  280MOL0     H37785   5.401   1.805   0.907 -1.8465 -0.4581 -0.3600
  280MOL0     H37786   5.009   1.713   0.919 -0.6337  0.3797  0.2022
  280MOL0     H37787   4.787   1.805   0.867 -1.4252  0.5997 -2.2754
  280MOL0     H37788   4.660   1.780   0.465 -1.7484 -1.7896 -1.1327
  280MOL0     H37789   4.571   1.894   0.574 -2.1888 -1.3133  2.3346
  280MOL0     H37790   4.496   1.613   0.517 -0.4462  0.0307 -0.0117
  280MOL0     H37791   4.465   1.744   0.409  4.9942  3.3502  0.0338
  280MOL0     H37792   4.379   1.768   0.696  0.5885  1.8305 -0.3098
  280MOL0     H37793   4.279   1.683   0.577 -0.1819  0.0108 -2.0968
  280MOL0     H37794   4.361   1.979   0.557  1.4039 -0.6166 -1.9660
  280MOL0     H37795   4.277   1.890   0.434  0.5807 -0.2953 -0.3002
  280MOL0     H37796   3.990   2.008   0.717  0.2698  0.3795 -0.4817
  280MOL0     H37797   4.774   1.577   0.503 -0.5565  1.0021  0.0093
  280MOL0     H37798   5.100   1.509   0.467 -1.7254  0.6212 -1.3820
  280MOL0     H37799   5.053   1.369   0.566 -1.3262  0.5472  2.1145
  280MOL0     H37800   4.942   1.435   0.441 -0.4709 -1.2727 -0.4388
  281MOL0     O37801   5.478   8.373   1.489 -0.0701 -0.0987  0.3058
  281MOL0     C37802   5.450   8.387   1.370  0.5515  0.6267  0.3396
  281MOL0     O37803   5.543   8.402   1.271  0.8891 -0.2047  0.4332
  281MOL0     C37804   5.677   8.391   1.296  0.1622 -0.4227 -0.4109
  281MOL0     C37805   5.719   8.270   1.365 -0.0279 -1.0726 -0.1448
  281MOL0     C37806   5.856   8.250   1.391 -0.7721  0.1473  0.7673
  281MOL0     C37807   5.951   8.347   1.345  0.2268  0.4759  0.7084
  281MOL0     O37808   6.079   8.309   1.359 -1.2029 -0.2528  0.1363
  281MOL0     C37809   6.167   8.316   1.237 -0.0726 -0.1309 -0.9584
  281MOL0     C37810   6.302   8.256   1.283  0.3739 -0.3289 -0.0591
  281MOL0     C37811   6.387   8.348   1.384  0.9895 -0.2529  0.5075
  281MOL0     C37812   6.444   8.472   1.320  0.0327  0.2876 -0.2745
  281MOL0     C37813   6.540   8.548   1.406  0.6722 -0.5960  0.2228
  281MOL0     C37814   6.606   8.649   1.314 -0.8673 -0.2714  0.1175
  281MOL0     C37815   6.699   8.744   1.377 -0.4934 -0.6586  0.1236
  281MOL0     C37816   6.837   8.750   1.311 -0.0310 -0.6686 -0.2962
  281MOL0     N37817   6.827   8.872   1.227 -0.0656  0.8253  0.2256
  281MOL0     C37818   6.740   8.892   1.118  0.3378  0.8045  0.3856
  281MOL0     C37819   6.774   9.022   1.088 -0.0355 -0.0459 -0.1450
  281MOL0     C37820   6.730   9.100   0.965  0.3398 -0.5276 -0.0439
  281MOL0     C37821   6.852   9.149   0.877  0.2389  0.0743 -0.5573
  281MOL0     C37822   6.901   9.284   0.919  0.0086 -0.6958 -1.0898
  281MOL0     C37823   7.029   9.321   0.837  0.4314  0.1747  0.0369
  281MOL0     O37824   7.084   9.441   0.892  0.6819 -0.5827 -0.5913
  281MOL0     C37825   7.210   9.483   0.854 -0.0947  0.4174 -0.3473
  281MOL0     C37826   7.250   9.604   0.911 -0.2195  0.4388 -0.8363
  281MOL0     C37827   7.381   9.655   0.892 -0.0839  0.3551  0.5434
  281MOL0     C37828   7.471   9.599   0.797  0.1462 -0.5002 -0.5149
  281MOL0     C37829   7.600   9.657   0.772  0.0269 -0.2195 -0.2487
  281MOL0     O37830   7.670   9.625   0.654  0.2354 -0.2147 -0.7792
  281MOL0     C37831   7.797   9.680   0.643 -0.1578  0.1822  0.8464
  281MOL0     C37832   7.905   9.596   0.645 -0.3304 -0.2366  0.2270
  281MOL0     C37833   8.029   9.644   0.617  0.2629 -0.4054  1.2312
  281MOL0     C37834   8.056   9.781   0.591  0.0298  0.4005  0.0028
  281MOL0     O37835   8.179   9.834   0.561 -0.2258 -0.0650  0.6481
  281MOL0     C37836   8.285   9.746   0.533 -0.0559 -1.0669 -0.3825
  281MOL0     C37837   8.415   9.831   0.513  0.1576 -0.0937  0.1402
  281MOL0     C37838   8.420   9.893   0.371 -0.5748  0.0917 -0.4218
  281MOL0     C37839   8.323  10.005   0.341  0.7319 -0.0085  0.0735
  281MOL0     C37840   8.340  10.079   0.208 -1.0035  0.7273  0.2499
  281MOL0     C37841   8.436  10.198   0.219  0.0766  0.2939  0.6023
  281MOL0     C37842   8.435  10.281   0.088 -0.0719 -0.4728  0.2200
  281MOL0     C37843   8.398  10.428   0.106 -0.4151 -0.3692  0.4635
  281MOL0    Cl37844   8.233  10.442   0.179 -0.1868  0.2919  0.0389
  281MOL0     C37845   7.943   9.863   0.588  0.6800  0.6941  0.1013
  281MOL0     C37846   7.811   9.812   0.614 -0.2515  0.4518 -0.3591
  281MOL0     O37847   7.641   9.739   0.858 -0.4132  0.7279 -0.0385
  281MOL0     C37848   7.432   9.475   0.742 -0.1526  0.1162 -0.1729
  281MOL0     C37849   7.308   9.417   0.772 -0.1684 -0.2412 -0.0611
  281MOL0     N37850   6.873   9.071   1.165  0.7586  0.2931 -0.4052
  281MOL0     N37851   6.903   8.976   1.246  0.7220 -0.4120 -0.0196
  281MOL0     C37852   5.908   8.457   1.274  0.5887 -0.7221 -0.9231
  281MOL0     C37853   5.771   8.479   1.247 -0.1649  0.1427  0.4161
  281MOL0     C37854   5.316   8.358   1.323 -0.0219  1.1473  0.2377
  281MOL0     C37855   5.212   8.383   1.418 -1.2525 -0.0469  0.3187
  281MOL0     C37856   5.084   8.358   1.377  0.3723  0.2560 -0.4613
  281MOL0     C37857   5.051   8.325   1.244  0.1530 -0.9732  0.2208
  281MOL0     O37858   4.919   8.314   1.219  0.3944  0.4036  0.6164
  281MOL0     C37859   4.863   8.364   1.091  0.3888 -0.5938 -0.0266
  281MOL0     C37860   4.882   8.518   1.076  0.4769  0.2164 -0.3474
  281MOL0     C37861   4.813   8.563   0.952 -0.6654  0.8649 -0.1814
  281MOL0     C37862   4.848   8.705   0.898  0.3959 -0.1443 -1.1666
  281MOL0     C37863   4.987   8.723   0.859  0.4126  1.0398  0.2947
  281MOL0     C37864   5.104   8.731   0.826 -0.4430  0.4296 -0.3229
  281MOL0     C37865   5.152   8.319   1.153  0.1144  0.6625 -0.4821
  281MOL0     C37866   5.282   8.332   1.184 -0.8296  0.5078 -0.1778
  281MOL0     C37867   5.389   8.289   1.082 -0.3248  1.0168 -0.8846
  281MOL0     H37868   5.642   8.199   1.392 -1.0268 -0.5363 -1.4595
  281MOL0     H37869   5.876   8.155   1.439 -1.8916 -0.0691  0.8270
  281MOL0     H37870   6.127   8.264   1.149 -0.8723  0.3458 -0.8871
  281MOL0     H37871   6.182   8.419   1.204  2.9256  0.5725  2.1398
  281MOL0     H37872   6.356   8.241   1.189 -2.4921  0.3585 -1.9306
  281MOL0     H37873   6.274   8.164   1.335 -4.7397  2.2706  2.4832
  281MOL0     H37874   6.463   8.289   1.435  0.8155  0.9863  2.3145
  281MOL0     H37875   6.326   8.393   1.463  0.8484  2.2055 -0.8917
  281MOL0     H37876   6.482   8.458   1.218  2.1288  2.4317  0.1160
  281MOL0     H37877   6.360   8.540   1.304 -0.2659 -0.4721 -2.2963
  281MOL0     H37878   6.488   8.596   1.490 -1.5136 -4.0840  1.0996
  281MOL0     H37879   6.624   8.484   1.435  3.6611  2.3962 -1.2731
  281MOL0     H37880   6.653   8.599   1.229 -0.1860 -0.7495  0.7637
  281MOL0     H37881   6.527   8.706   1.263  2.2835  4.2111 -0.3939
  281MOL0     H37882   6.723   8.716   1.480  0.3371  0.7939  0.3617
  281MOL0     H37883   6.657   8.845   1.373  0.2672 -0.3716 -1.2410
  281MOL0     H37884   6.914   8.758   1.388 -0.2255 -0.9885 -0.0662
  281MOL0     H37885   6.862   8.660   1.253 -0.7239 -0.9221 -0.2060
  281MOL0     H37886   6.655   8.835   1.081  1.1112  0.3155 -0.7021
  281MOL0     H37887   6.668   9.036   0.902  1.6544  1.5132 -3.7381
  281MOL0     H37888   6.673   9.189   0.993  1.3435  0.7028 -1.7178
  281MOL0     H37889   6.940   9.084   0.881  0.1677 -0.1856 -2.3332
  281MOL0     H37890   6.814   9.147   0.774  0.7518  1.3865 -0.7935
  281MOL0     H37891   6.926   9.287   1.026  0.4971 -0.2560 -1.2144
  281MOL0     H37892   6.815   9.349   0.904  0.1805  0.4342  2.0045
  281MOL0     H37893   7.005   9.339   0.731 -0.0074  0.6803  0.2178
  281MOL0     H37894   7.104   9.242   0.842 -0.6091 -0.9000 -0.6522
  281MOL0     H37895   7.178   9.645   0.981  0.8181  0.3245  0.3367
  281MOL0     H37896   7.413   9.743   0.947  0.0660 -0.6884  2.2116
  281MOL0     H37897   7.887   9.492   0.673 -0.8075 -0.3193 -0.3799
  281MOL0     H37898   8.113   9.576   0.624  0.9190  0.5430  3.0575
  281MOL0     H37899   8.313   9.678   0.614  2.3757 -0.4935 -0.6608
  281MOL0     H37900   8.266   9.682   0.446  0.1843 -0.4999 -0.8644
  281MOL0     H37901   8.415   9.907   0.591 -1.6357  0.7888 -0.6605
  281MOL0     H37902   8.493   9.758   0.535 -1.0346 -0.7938  2.3028
  281MOL0     H37903   8.524   9.921   0.348 -0.7124  2.2893  1.2737
  281MOL0     H37904   8.392   9.807   0.310 -1.6674 -0.4703  0.8471
  281MOL0     H37905   8.328  10.078   0.422 -3.2112  1.8260 -1.1180
  281MOL0     H37906   8.230   9.948   0.331 -0.5719  2.3632 -2.7358
  281MOL0     H37907   8.248  10.117   0.164  0.1999  1.2792 -1.9305
  281MOL0     H37908   8.374  10.005   0.135 -4.9530  1.3395 -2.5342
  281MOL0     H37909   8.408  10.258   0.306  2.0475 -0.3898  1.7609
  281MOL0     H37910   8.536  10.158   0.235  0.1635  0.2212 -0.0912
  281MOL0     H37911   8.359  10.243   0.019  0.3765 -0.3584 -0.3458
  281MOL0     H37912   8.531  10.288   0.035 -0.0667  0.2772  0.3145
  281MOL0     H37913   8.473  10.479   0.167 -1.2383 -0.3574  1.4790
  281MOL0     H37914   8.408  10.478   0.009  1.6312  0.5635  1.1006
  281MOL0     H37915   7.947   9.972   0.578 -0.2851  0.7003 -0.3320
  281MOL0     H37916   7.732   9.887   0.609  1.9311  2.8926 -0.6489
  281MOL0     H37917   7.494   9.428   0.666  1.2520 -1.4632  1.8179
  281MOL0     H37918   7.269   9.331   0.719  1.3648 -2.0944  1.6529
  281MOL0     H37919   5.986   8.525   1.241  0.7539 -0.6674 -0.4212
  281MOL0     H37920   5.737   8.565   1.191 -1.4732  0.0156  0.9793
  281MOL0     H37921   5.235   8.411   1.520 -2.5139  2.0447  0.1100
  281MOL0     H37922   5.003   8.372   1.447  1.4313  2.1310  0.4555
  281MOL0     H37923   4.754   8.353   1.088  0.0124  2.1185  1.0109
  281MOL0     H37924   4.902   8.307   1.006  2.0154  1.2196 -0.5464
  281MOL0     H37925   4.990   8.528   1.063  0.6738  0.5726  1.2862
  281MOL0     H37926   4.845   8.571   1.164 -0.2758  0.5832 -0.8747
  281MOL0     H37927   4.705   8.574   0.958 -0.6667  2.5313 -2.0059
  281MOL0     H37928   4.822   8.479   0.882 -0.5220  1.2092 -0.5799
  281MOL0     H37929   4.779   8.733   0.817  0.3983 -0.8250 -1.4083
  281MOL0     H37930   4.836   8.781   0.976  4.3564 -2.0849  1.7157
  281MOL0     H37931   5.191   8.775   0.782 -1.0439  0.4725 -1.5346
  281MOL0     H37932   5.123   8.292   1.052  0.9608 -0.1759 -0.5126
  281MOL0     H37933   5.339   8.232   1.003 -0.8553 -2.2055  1.5517
  281MOL0     H37934   5.423   8.385   1.043 -2.4259  2.2956  0.2192
  281MOL0     H37935   5.466   8.222   1.121 -2.1775 -0.9422 -0.3554
  282MOL0     O37936   5.213   1.104  11.207 -0.3907  0.4552 -0.1618
  282MOL0     C37937   5.183   1.108  11.327 -0.0191 -0.2180  0.1658
  282MOL0     O37938   5.084   1.035  11.388  0.1718 -0.6033 -0.1874
  282MOL0     C37939   4.977   0.990  11.320 -0.1175  1.1579 -0.8044
  282MOL0     C37940   5.013   0.894  11.224 -0.3480  0.5675  0.7027
  282MOL0     C37941   4.914   0.822  11.162 -0.1016 -0.3251  0.0401
  282MOL0     C37942   4.780   0.839  11.196  0.3877  0.4447  0.3825
  282MOL0     O37943   4.673   0.795  11.130  0.1317  0.6051 -0.1422
  282MOL0     C37944   4.682   0.757  10.992  0.4373  0.5363  0.2671
  282MOL0     C37945   4.539   0.761  10.934 -0.4101 -0.5284 -1.0147
  282MOL0     C37946   4.470   0.621  10.949 -0.2754  0.4924 -0.1341
  282MOL0     C37947   4.328   0.610  10.896  0.9008 -0.1464 -1.1200
  282MOL0     C37948   4.284   0.460  10.912 -0.2258 -0.0158 -0.0666
  282MOL0     C37949   4.280   0.388  10.776 -0.7999 -0.0644 -0.5430
  282MOL0     C37950   4.419   0.369  10.704 -0.3254  0.5415  0.3239
  282MOL0     C37951   4.507   0.264  10.787  0.2121 -0.4047  0.4347
  282MOL0     N37952   4.646   0.254  10.758  0.8498  0.0490  0.1384
  282MOL0     C37953   4.699   0.162  10.679 -0.8201  0.2153  0.2290
  282MOL0     C37954   4.833   0.183  10.673  0.4011 -0.2368 -0.3857
  282MOL0     C37955   4.945   0.113  10.605 -0.1000 -0.8870 -0.3319
  282MOL0     C37956   5.078   0.121  10.679  0.1996  0.6846  0.1257
  282MOL0     C37957   5.099   0.046  10.807 -0.4451 -0.8397 -1.0027
  282MOL0     C37958   5.239   0.063  10.866 -0.7328  0.3011  0.1625
  282MOL0     O37959   5.324  -0.004  10.776  0.2816 -0.3444  0.1057
  282MOL0     C37960   5.434  -0.071  10.824  0.4241  0.7089 -0.0580
  282MOL0     C37961   5.475  -0.187  10.772  0.1886  0.7752 -0.5275
  282MOL0     C37962   5.588  -0.246  10.819  1.5181  0.6777  0.0491
  282MOL0     C37963   5.654  -0.212  10.938 -0.3173 -0.0025 -0.6374
  282MOL0     C37964   5.777  -0.274  10.976  0.2571  0.2775  0.4359
  282MOL0     O37965   5.836  -0.232  11.094  1.6194 -0.0259  1.0636
  282MOL0     C37966   5.932  -0.306  11.149 -1.0843 -0.2638 -0.1065
  282MOL0     C37967   6.059  -0.257  11.144  0.1700  0.3855 -0.0632
  282MOL0     C37968   6.164  -0.340  11.177  0.4438 -0.6147 -0.1944
  282MOL0     C37969   6.147  -0.466  11.233  0.6580  0.0324 -0.3656
  282MOL0     O37970   6.259  -0.533  11.260 -0.3458 -0.4466  0.4816
  282MOL0     C37971   6.245  -0.666  11.310 -0.0668  0.2471  0.8835
  282MOL0     C37972   6.377  -0.740  11.295 -0.7226  0.2954  0.8081
  282MOL0     C37973   6.356  -0.891  11.340 -0.0659  0.1034  0.0606
  282MOL0     C37974   6.480  -0.966  11.313 -0.3941 -0.2108  0.3186
  282MOL0     C37975   6.469  -1.110  11.357 -0.5872  0.3345  0.0219
  282MOL0     C37976   6.603  -1.186  11.355  0.5096  0.1237 -0.3407
  282MOL0     C37977   6.668  -1.196  11.216  0.6021  0.7285 -0.3886
  282MOL0     C37978   6.775  -1.085  11.197 -0.2113  0.7992  0.0979
  282MOL0    Cl37979   6.873  -1.116  11.054 -0.0597 -0.2731  0.2495
  282MOL0     C37980   6.010  -0.499  11.271  0.5031  0.2853 -0.7050
  282MOL0     C37981   5.903  -0.426  11.214 -0.2233 -0.0053  0.5976
  282MOL0     O37982   5.821  -0.372  10.911 -0.7825  0.3972 -0.3539
  282MOL0     C37983   5.615  -0.089  10.997 -0.1046  0.5475  0.9600
  282MOL0     C37984   5.504  -0.023  10.942 -0.6308 -0.0713  1.2150
  282MOL0     N37985   4.858   0.297  10.752  0.2697 -0.8085  0.1821
  282MOL0     N37986   4.745   0.337  10.805  0.4289  0.3207  0.2219
  282MOL0     C37987   4.745   0.930  11.294 -0.2799 -0.1366  0.3596
  282MOL0     C37988   4.844   1.008  11.360  0.3204  0.5202  0.5934
  282MOL0     C37989   5.268   1.199  11.414  0.3431  0.4282 -0.3100
  282MOL0     C37990   5.227   1.222  11.545  0.7684 -0.1216 -0.5570
  282MOL0     C37991   5.297   1.292  11.644  0.1957 -0.0307 -0.1971
  282MOL0     C37992   5.415   1.353  11.605 -0.7864 -0.0920 -0.2382
  282MOL0     O37993   5.474   1.448  11.687  0.5930 -0.4163  0.1238
  282MOL0     C37994   5.523   1.402  11.816  0.4681 -0.3634  0.3065
  282MOL0     C37995   5.648   1.325  11.798  1.0046 -0.0686  0.8244
  282MOL0     C37996   5.712   1.299  11.936 -0.3099  0.2941 -0.1750
  282MOL0     C37997   5.815   1.180  11.939 -1.1208 -0.2931 -0.6191
  282MOL0     C37998   5.924   1.205  11.848 -0.6722  0.0083 -0.1650
  282MOL0     C37999   5.999   1.237  11.759  0.6727 -0.2976 -0.1423
  282MOL0     C38000   5.458   1.331  11.477 -0.7543  0.1919 -0.4926
  282MOL0     C38001   5.398   1.252  11.381 -0.3715  0.7797  0.5420
  282MOL0     C38002   5.467   1.217  11.257 -0.7922 -0.7210  0.2589
  282MOL0     H38003   5.118   0.873  11.205 -0.1586  1.4683  0.7167
  282MOL0     H38004   4.936   0.758  11.076 -1.6416  1.0012 -1.4003
  282MOL0     H38005   4.745   0.825  10.933  1.4648 -1.3549 -0.9155
  282MOL0     H38006   4.721   0.656  10.983  2.9558  1.6077 -2.7787
  282MOL0     H38007   4.552   0.787  10.828  1.0823  1.0286 -0.5062
  282MOL0     H38008   4.477   0.842  10.975  0.2581 -0.7304  0.4461
  282MOL0     H38009   4.461   0.605  11.057  0.2155  1.8766  0.1301
  282MOL0     H38010   4.534   0.545  10.905  1.3763  1.1118  1.0758
  282MOL0     H38011   4.254   0.673  10.945 -0.3554 -1.5281 -1.1786
  282MOL0     H38012   4.329   0.651  10.795  2.1792  1.5485 -0.4704
  282MOL0     H38013   4.351   0.409  10.982 -1.0710  0.1045  0.8409
  282MOL0     H38014   4.186   0.461  10.960 -0.2460  2.1141 -0.0728
  282MOL0     H38015   4.235   0.290  10.794  2.0940 -1.4795 -0.4504
  282MOL0     H38016   4.224   0.449  10.705  1.2469  0.4018 -1.8461
  282MOL0     H38017   4.488   0.454  10.697  3.3718 -2.2021  0.5446
  282MOL0     H38018   4.408   0.335  10.601 -0.8050  1.5330  0.0289
  282MOL0     H38019   4.506   0.272  10.896  1.0269  2.3714  0.2995
  282MOL0     H38020   4.461   0.167  10.761 -2.7126  0.8868  0.3746
  282MOL0     H38021   4.650   0.079  10.629 -1.4582  0.8488 -0.2206
  282MOL0     H38022   4.914   0.008  10.606 -0.2326 -0.9214 -2.7618
  282MOL0     H38023   4.955   0.156  10.505  3.2903 -0.1654  0.2132
  282MOL0     H38024   5.154   0.084  10.609 -1.6511 -4.8588  0.5681
  282MOL0     H38025   5.107   0.225  10.697  0.1660  1.0945 -1.8743
  282MOL0     H38026   5.052  -0.052  10.796  0.1251 -1.4573  1.5380
  282MOL0     H38027   5.042   0.100  10.883  0.5196  1.0936 -1.5720
  282MOL0     H38028   5.237   0.022  10.968  1.5865 -0.2608  0.0281
  282MOL0     H38029   5.259   0.168  10.887 -1.3448  0.0486  2.2586
  282MOL0     H38030   5.420  -0.224  10.686  0.6389  0.8405 -0.8460
  282MOL0     H38031   5.624  -0.328  10.759  2.6361  0.2443  1.2668
  282MOL0     H38032   6.075  -0.152  11.122  0.5619  1.3754  4.1252
  282MOL0     H38033   6.265  -0.309  11.153  1.1516 -3.4831 -1.4303
  282MOL0     H38034   6.224  -0.683  11.416  1.8501 -1.4658  1.0790
  282MOL0     H38035   6.170  -0.713  11.247  0.5380  0.3820  0.0466
  282MOL0     H38036   6.407  -0.732  11.190  2.5420  0.9632  1.6845
  282MOL0     H38037   6.453  -0.686  11.352 -1.8927  0.1753  2.5558
  282MOL0     H38038   6.340  -0.898  11.448 -0.2966 -2.8767 -0.0692
  282MOL0     H38039   6.273  -0.933  11.282 -0.5899 -0.1717  0.9803
  282MOL0     H38040   6.568  -0.915  11.352  0.5720 -1.2067 -0.5106
  282MOL0     H38041   6.486  -0.957  11.204  1.5392 -0.0788  0.4121
  282MOL0     H38042   6.394  -1.161  11.296 -1.1820  1.5433 -0.2961
  282MOL0     H38043   6.424  -1.110  11.457 -1.6541 -1.1199 -0.4241
  282MOL0     H38044   6.658  -1.137  11.436 -1.6156 -1.7416  2.4332
  282MOL0     H38045   6.585  -1.287  11.393  1.9795 -0.2458 -0.5631
  282MOL0     H38046   6.599  -1.191  11.131  0.0618  1.9399  0.0945
  282MOL0     H38047   6.716  -1.295  11.215  0.1569  0.5106 -1.3394
  282MOL0     H38048   6.719  -0.992  11.183 -1.4550 -0.3492 -4.3765
  282MOL0     H38049   6.835  -1.073  11.287  0.2637 -1.4944  0.1539
  282MOL0     H38050   5.995  -0.589  11.329 -0.9384  1.8477  1.5054
  282MOL0     H38051   5.799  -0.453  11.229  0.4426 -3.1292  0.2455
  282MOL0     H38052   5.686  -0.051  11.070  2.0253  0.5308 -0.9597
  282MOL0     H38053   5.477   0.077  10.975 -0.4142  0.7717 -0.9581
  282MOL0     H38054   4.640   0.952  11.308 -0.8352 -2.2788 -0.0904
  282MOL0     H38055   4.831   1.086  11.435 -0.4757  0.0779  0.9373
  282MOL0     H38056   5.128   1.192  11.578  1.3408  1.0303  2.5843
  282MOL0     H38057   5.252   1.313  11.741 -0.3425  1.3015 -0.7109
  282MOL0     H38058   5.456   1.335  11.870 -2.0490  0.4603 -1.6292
  282MOL0     H38059   5.544   1.491  11.875 -1.8567  0.0599  0.5568
  282MOL0     H38060   5.717   1.375  11.729 -0.0888 -0.9859 -0.9856
  282MOL0     H38061   5.623   1.226  11.761 -0.3493  1.1255 -1.7449
  282MOL0     H38062   5.641   1.280  12.017 -2.4495 -3.1291 -2.5646
  282MOL0     H38063   5.770   1.385  11.969 -0.1950  0.5304 -0.9752
  282MOL0     H38064   5.842   1.158  12.043 -4.7714  0.4425  0.6274
  282MOL0     H38065   5.770   1.087  11.903 -0.2558 -0.9765  0.0078
  282MOL0     H38066   6.060   1.271  11.678 -1.6582 -0.5124 -2.1095
  282MOL0     H38067   5.550   1.377  11.443  0.0666 -1.8316 -1.2212
  282MOL0     H38068   5.469   1.108  11.244  1.9933 -0.6600 -0.5400
  282MOL0     H38069   5.421   1.267  11.171 -1.7247  1.9148  2.1692
  282MOL0     H38070   5.570   1.252  11.267 -1.3803  0.5148  2.3724
  283MOL0     O38071   5.079   6.663   2.481 -0.4333 -0.1291  0.3308
  283MOL0     C38072   5.076   6.537   2.477 -1.4335 -0.1685  0.2182
  283MOL0     O38073   5.181   6.461   2.525  0.7703 -0.2659  0.3373
  283MOL0     C38074   5.298   6.520   2.547 -0.6872 -0.8216 -0.0615
  283MOL0     C38075   5.379   6.471   2.650  0.6757 -0.2499  0.2750
  283MOL0     C38076   5.513   6.506   2.667 -0.0640  0.4584  0.0843
  283MOL0     C38077   5.566   6.584   2.572  0.1412 -0.3256  0.8563
  283MOL0     O38078   5.696   6.623   2.569  0.5568 -0.2171  0.5266
  283MOL0     C38079   5.801   6.562   2.642 -0.0717 -0.4463  0.7774
  283MOL0     C38080   5.928   6.628   2.595  0.8340 -0.1636 -0.1188
  283MOL0     C38081   6.056   6.551   2.634 -0.1153  0.0102  0.3496
  283MOL0     C38082   6.190   6.634   2.610  0.8072 -0.2907  0.5703
  283MOL0     C38083   6.312   6.556   2.647 -0.9197 -0.4918  0.3166
  283MOL0     C38084   6.429   6.633   2.594 -0.4647  0.0769 -0.1667
  283MOL0     C38085   6.556   6.573   2.656 -0.0642  0.1383  0.5425
  283MOL0     C38086   6.686   6.626   2.588 -0.1103 -0.0737  0.3532
  283MOL0     N38087   6.713   6.767   2.620  0.5761 -0.1888  0.7909
  283MOL0     C38088   6.721   6.827   2.743 -0.5653 -0.0846 -1.3671
  283MOL0     C38089   6.742   6.961   2.725  0.1482 -0.1738 -0.5706
  283MOL0     C38090   6.763   7.059   2.841  0.4546  0.1829  0.2097
  283MOL0     C38091   6.903   7.100   2.872  0.2405 -0.2825 -0.6292
  283MOL0     C38092   6.973   7.167   2.752 -0.1362  0.4645 -0.7212
  283MOL0     C38093   7.120   7.199   2.776 -0.4375 -0.7357  0.7322
  283MOL0     O38094   7.141   7.334   2.815 -0.9179 -0.4216 -0.4034
  283MOL0     C38095   7.272   7.366   2.838  0.5396  0.1219 -0.3008
  283MOL0     C38096   7.290   7.504   2.877 -0.0847  0.0483  2.1287
  283MOL0     C38097   7.419   7.553   2.907  0.0426 -0.3201 -1.1146
  283MOL0     C38098   7.526   7.469   2.919 -0.6251  1.1218 -0.7237
  283MOL0     C38099   7.664   7.514   2.927  0.4231 -0.2133  0.4195
  283MOL0     O38100   7.751   7.416   2.910 -0.7459 -0.3096 -0.3577
  283MOL0     C38101   7.884   7.453   2.924 -0.4201 -0.6457  0.5249
  283MOL0     C38102   7.946   7.439   3.045  0.2797 -0.6421  0.2159
  283MOL0     C38103   8.078   7.467   3.068 -0.1605  0.5096  0.0648
  283MOL0     C38104   8.158   7.498   2.957  0.2262 -0.0585  0.1520
  283MOL0     O38105   8.291   7.531   2.982  0.1350  0.3366 -0.4804
  283MOL0     C38106   8.387   7.517   2.872  0.2319  0.2028 -0.4856
  283MOL0     C38107   8.528   7.496   2.922  0.3271  0.2918  0.0211
  283MOL0     C38108   8.589   7.619   2.993 -0.9301  0.6429 -0.3099
  283MOL0     C38109   8.743   7.609   2.998 -0.8074  0.6281 -0.2015
  283MOL0     C38110   8.814   7.709   3.094 -0.0058 -0.5819 -0.0635
  283MOL0     C38111   8.971   7.705   3.089 -0.0855 -0.5983  0.0740
  283MOL0     C38112   9.030   7.776   2.966  0.3432 -0.6704  0.3271
  283MOL0     C38113   9.175   7.785   2.971 -0.4049  0.1674  0.4355
  283MOL0    Cl38114   9.236   7.897   2.853 -0.1009 -0.0286  0.2390
  283MOL0     C38115   8.100   7.491   2.832 -0.1746  0.0290  0.6838
  283MOL0     C38116   7.964   7.475   2.813  0.8800  0.9162  0.2542
  283MOL0     O38117   7.694   7.630   2.949  0.2108  0.1984  0.2750
  283MOL0     C38118   7.504   7.322   2.908 -0.5987 -0.2891 -0.7554
  283MOL0     C38119   7.380   7.278   2.861 -0.3183  0.3526 -0.8824
  283MOL0     N38120   6.749   6.980   2.588  0.4143 -0.4478 -0.2962
  283MOL0     N38121   6.735   6.866   2.529 -0.1051  0.1234  0.6107
  283MOL0     C38122   5.482   6.638   2.473 -0.7352  0.2114 -0.3388
  283MOL0     C38123   5.357   6.612   2.459 -0.1386  0.3165 -0.1043
  283MOL0     C38124   4.957   6.470   2.412 -0.8749  0.0573 -0.3068
  283MOL0     C38125   4.887   6.552   2.329  0.1745 -0.1431  1.0221
  283MOL0     C38126   4.772   6.502   2.255 -0.8163  0.2692  0.3350
  283MOL0     C38127   4.727   6.380   2.277 -0.7560 -0.0503 -0.2657
  283MOL0     O38128   4.622   6.358   2.194  0.0041  0.4179 -0.9451
  283MOL0     C38129   4.524   6.265   2.235 -0.7902  0.5248  0.5361
  283MOL0     C38130   4.405   6.280   2.148  0.3506  0.5395 -0.9175
  283MOL0     C38131   4.346   6.419   2.166 -0.1859 -0.7275 -0.8082
  283MOL0     C38132   4.273   6.444   2.300  0.6944 -0.5147  0.5586
  283MOL0     C38133   4.368   6.504   2.403 -0.0431  1.0668  0.4595
  283MOL0     C38134   4.452   6.555   2.467 -0.3912 -0.3942 -1.0080
  283MOL0     C38135   4.796   6.295   2.365 -0.7145 -0.0718 -0.2644
  283MOL0     C38136   4.923   6.333   2.423  1.2350 -0.9219  0.2949
  283MOL0     C38137   5.001   6.234   2.506 -0.2841  0.6953  0.3937
  283MOL0     H38138   5.342   6.394   2.717 -1.8428  2.3717  2.1335
  283MOL0     H38139   5.577   6.479   2.751  0.0604  0.8427  0.1160
  283MOL0     H38140   5.790   6.575   2.750 -0.5041 -2.1076  0.9547
  283MOL0     H38141   5.802   6.454   2.624  0.5392 -0.2970 -0.1628
  283MOL0     H38142   5.933   6.725   2.646 -2.0115 -2.0078  4.2187
  283MOL0     H38143   5.925   6.652   2.489 -1.3772  3.5749  0.6076
  283MOL0     H38144   6.065   6.458   2.578  1.6169 -0.3320  1.1252
  283MOL0     H38145   6.040   6.524   2.738  0.8394 -2.2144 -0.0297
  283MOL0     H38146   6.203   6.678   2.511 -1.7520  0.2641  0.4013
  283MOL0     H38147   6.168   6.717   2.678 -0.5800  0.5865 -0.8599
  283MOL0     H38148   6.325   6.534   2.753  1.8753 -1.2219 -0.0845
  283MOL0     H38149   6.306   6.462   2.593  0.8741 -0.1216 -0.6093
  283MOL0     H38150   6.448   6.633   2.487  3.4186 -0.2109  0.3810
  283MOL0     H38151   6.426   6.734   2.635  1.4541 -0.3800  1.2452
  283MOL0     H38152   6.567   6.466   2.633  4.2299  0.0994  1.7399
  283MOL0     H38153   6.552   6.593   2.764 -1.6968  2.4600  0.1061
  283MOL0     H38154   6.767   6.554   2.606  0.0999  0.0551 -0.0595
  283MOL0     H38155   6.683   6.626   2.479  2.3720  1.5706  0.1992
  283MOL0     H38156   6.716   6.782   2.842  0.0578 -0.7299 -1.6275
  283MOL0     H38157   6.710   7.148   2.806  1.7186  0.3287 -1.4481
  283MOL0     H38158   6.715   7.022   2.932 -0.4203 -2.2486 -1.1494
  283MOL0     H38159   6.898   7.173   2.953  0.7059 -2.7054  1.6985
  283MOL0     H38160   6.958   7.011   2.902  1.6873 -0.4256 -3.3155
  283MOL0     H38161   6.929   7.265   2.731 -1.4196  0.0588  0.0028
  283MOL0     H38162   6.971   7.093   2.671 -1.5249 -0.1598 -0.1390
  283MOL0     H38163   7.160   7.191   2.674 -3.0042 -0.9531 -0.3276
  283MOL0     H38164   7.172   7.128   2.841  2.9105  2.1758  1.5232
  283MOL0     H38165   7.201   7.566   2.880 -0.4377 -0.4738  2.5742
  283MOL0     H38166   7.428   7.661   2.911 -0.7839 -0.2256 -1.5508
  283MOL0     H38167   7.892   7.414   3.136 -1.6896  3.4050  0.4142
  283MOL0     H38168   8.119   7.453   3.167  2.2989  0.3922 -0.9101
  283MOL0     H38169   8.367   7.430   2.809 -1.1084  2.3900 -3.3147
  283MOL0     H38170   8.392   7.604   2.806 -2.5519  0.7226 -0.1198
  283MOL0     H38171   8.533   7.409   2.988  0.3796  0.8041  0.7034
  283MOL0     H38172   8.598   7.480   2.840  0.0891  1.8320 -0.5090
  283MOL0     H38173   8.571   7.712   2.938 -0.2497  0.7763 -0.3113
  283MOL0     H38174   8.542   7.625   3.092 -2.7510  1.0109 -1.1444
  283MOL0     H38175   8.785   7.626   2.899 -0.7886  0.2620 -0.2595
  283MOL0     H38176   8.776   7.513   3.039  0.5713  0.2137 -2.1702
  283MOL0     H38177   8.791   7.689   3.199 -1.5430  2.1274  0.2142
  283MOL0     H38178   8.784   7.813   3.078  0.5269 -0.6079 -1.3190
  283MOL0     H38179   9.010   7.760   3.174 -1.8897  2.0869 -0.7176
  283MOL0     H38180   9.005   7.601   3.096 -2.5690 -1.6446 -1.7598
  283MOL0     H38181   8.989   7.876   2.955 -1.4804 -1.6788 -3.3937
  283MOL0     H38182   8.999   7.724   2.875 -1.7403 -3.0673  2.2575
  283MOL0     H38183   9.193   7.830   3.069 -0.7472 -0.9903  1.0400
  283MOL0     H38184   9.222   7.687   2.972 -2.7627 -1.0369  1.5870
  283MOL0     H38185   8.170   7.503   2.749  1.4925  1.2851  2.1874
  283MOL0     H38186   7.919   7.474   2.714 -1.4410  0.3250  1.2366
  283MOL0     H38187   7.575   7.241   2.918  0.0623  0.0451 -2.4589
  283MOL0     H38188   7.378   7.170   2.865  4.4775  0.0984  1.9069
  283MOL0     H38189   5.538   6.693   2.398 -1.2208 -0.2067 -1.0180
  283MOL0     H38190   5.305   6.652   2.373  1.0304 -3.1487 -2.6661
  283MOL0     H38191   4.910   6.658   2.326 -0.2734  0.0081  2.2591
  283MOL0     H38192   4.720   6.556   2.176  0.0157  1.0638  0.3027
  283MOL0     H38193   4.493   6.275   2.339  1.1786 -1.5430  1.4137
  283MOL0     H38194   4.563   6.164   2.221 -0.2537  0.6679  0.9517
  283MOL0     H38195   4.338   6.195   2.165  0.7943 -0.6858 -4.4629
  283MOL0     H38196   4.432   6.274   2.042  0.4764  1.2586 -0.9322
  283MOL0     H38197   4.275   6.438   2.085 -0.9052 -0.0957 -0.0338
  283MOL0     H38198   4.419   6.498   2.149 -1.3374  0.3553 -0.8298
  283MOL0     H38199   4.192   6.515   2.277  0.9380  0.0359  1.3620
  283MOL0     H38200   4.219   6.362   2.348  0.7684  0.3721  2.2334
  283MOL0     H38201   4.519   6.611   2.529 -2.1202  0.1523  0.4395
  283MOL0     H38202   4.756   6.195   2.379 -1.6556  0.5251  1.4853
  283MOL0     H38203   4.966   6.133   2.482 -0.6635  0.5123  1.6288
  283MOL0     H38204   5.110   6.236   2.494 -0.1377  0.8274  1.6350
  283MOL0     H38205   4.988   6.242   2.614  1.7681 -0.0312  0.7424
  284MOL0     O38206   8.202   4.415   4.327 -0.1980 -0.5736 -0.1171
  284MOL0     C38207   8.128   4.402   4.421  0.5467 -0.7898 -1.1236
  284MOL0     O38208   8.126   4.478   4.535 -0.0711  0.1189 -0.1976
  284MOL0     C38209   8.244   4.543   4.563 -0.3336  0.5364 -0.3537
  284MOL0     C38210   8.232   4.686   4.586 -0.2286  0.0577  1.0102
  284MOL0     C38211   8.354   4.754   4.607  0.7923  0.1782 -0.3714
  284MOL0     C38212   8.478   4.687   4.609  0.6995  0.5151 -0.0279
  284MOL0     O38213   8.604   4.742   4.620  0.2493  0.2932 -0.4608
  284MOL0     C38214   8.616   4.868   4.688  0.5931 -0.5821 -0.3281
  284MOL0     C38215   8.617   4.848   4.843 -0.1051 -0.2595 -0.1700
  284MOL0     C38216   8.610   4.978   4.916  0.1590 -0.5257  0.0295
  284MOL0     C38217   8.740   5.050   4.913 -0.1748 -0.7723  1.0218
  284MOL0     C38218   8.736   5.171   4.997 -0.6197 -0.0451 -0.5949
  284MOL0     C38219   8.868   5.253   5.023 -0.0796 -0.2459  0.0145
  284MOL0     C38220   8.844   5.345   5.140  0.3134  0.2015 -0.4479
  284MOL0     C38221   8.982   5.395   5.183  0.0898 -0.1156  0.3193
  284MOL0     N38222   9.063   5.278   5.236  0.1890 -0.2429 -0.0310
  284MOL0     C38223   9.083   5.239   5.367  0.1942  0.3827 -0.1343
  284MOL0     C38224   9.186   5.144   5.358 -0.5661 -0.7354 -0.3690
  284MOL0     C38225   9.251   5.055   5.468 -0.6771 -0.6612 -0.9786
  284MOL0     C38226   9.368   5.133   5.517 -0.6928 -0.4259 -0.1307
  284MOL0     C38227   9.463   5.044   5.601  0.2769  0.0421  0.4700
  284MOL0     C38228   9.581   5.124   5.652  0.4829 -0.1104 -0.2485
  284MOL0     O38229   9.639   5.085   5.782  1.4443 -0.6970  0.2860
  284MOL0     C38230   9.766   5.118   5.811 -0.0209  0.0491 -0.5124
  284MOL0     C38231   9.814   5.039   5.924 -0.0276 -0.9997 -0.3574
  284MOL0     C38232   9.944   5.059   5.965  0.5871  0.0181 -0.3607
  284MOL0     C38233  10.031   5.150   5.895  0.1138  0.6189  0.5652
  284MOL0     C38234  10.169   5.170   5.941  0.2457 -0.2713  0.3739
  284MOL0     O38235  10.203   5.106   6.057 -0.1401  0.0746 -0.4756
  284MOL0     C38236  10.304   5.134   6.145  0.1057  0.1102 -0.2531
  284MOL0     C38237  10.340   5.271   6.169 -0.2062 -0.1195  0.1574
  284MOL0     C38238  10.449   5.296   6.251  0.2708 -0.0003 -0.1694
  284MOL0     C38239  10.518   5.194   6.316 -0.1630  0.8722 -0.7074
  284MOL0     O38240  10.622   5.225   6.408 -0.3606 -0.2859 -0.9579
  284MOL0     C38241  10.732   5.134   6.420  0.5230 -0.1342  0.8800
  284MOL0     C38242  10.844   5.204   6.489 -0.8892  0.7805 -0.1714
  284MOL0     C38243  10.992   5.136   6.465  0.4451 -0.4923  0.1446
  284MOL0     C38244  11.097   5.199   6.555  0.7692 -1.1718 -0.1192
  284MOL0     C38245  11.215   5.105   6.579  0.6399  0.0265  0.1703
  284MOL0     C38246  11.315   5.171   6.674 -0.0616  0.4897  0.5670
  284MOL0     C38247  11.442   5.086   6.656 -0.3546 -0.1306  0.0230
  284MOL0     C38248  11.542   5.111   6.769 -0.3327 -0.2785 -1.1255
  284MOL0    Cl38249  11.601   5.273   6.776 -0.5845  0.1288  0.0091
  284MOL0     C38250  10.473   5.059   6.302 -0.1869 -0.1442 -0.1092
  284MOL0     C38251  10.368   5.026   6.212 -0.6697 -1.0110  0.2699
  284MOL0     O38252  10.243   5.258   5.887  0.1608  0.0381  0.0131
  284MOL0     C38253   9.982   5.225   5.789  0.5698 -0.1380  0.7907
  284MOL0     C38254   9.852   5.202   5.738  0.2508 -0.2929 -0.5386
  284MOL0     N38255   9.220   5.135   5.222  0.3159  0.2543  0.2542
  284MOL0     N38256   9.145   5.222   5.153 -0.5300  0.1730 -0.3261
  284MOL0     C38257   8.484   4.545   4.607  0.6573  0.2304 -0.0039
  284MOL0     C38258   8.369   4.475   4.570 -0.4264 -0.6195 -0.2322
  284MOL0     C38259   8.011   4.298   4.426  0.3288 -0.6986 -0.3323
  284MOL0     C38260   7.924   4.292   4.319 -0.3743  0.6829  0.5337
  284MOL0     C38261   7.820   4.201   4.311  0.0781  0.0912  0.0404
  284MOL0     C38262   7.800   4.111   4.415  0.6503  0.1615 -0.1184
  284MOL0     O38263   7.694   4.024   4.406 -0.1934 -0.2201  0.8229
  284MOL0     C38264   7.586   4.039   4.505 -0.3935 -0.2410 -0.0101
  284MOL0     C38265   7.455   3.992   4.446  0.3412 -0.6845  0.1780
  284MOL0     C38266   7.451   3.846   4.418 -0.3736  0.1399 -0.0741
  284MOL0     C38267   7.329   3.790   4.344  0.7461 -0.5958  0.5360
  284MOL0     C38268   7.358   3.654   4.318  0.7837  0.2300 -0.2146
  284MOL0     C38269   7.385   3.534   4.305 -0.3810 -0.4656  0.9927
  284MOL0     C38270   7.874   4.132   4.534 -0.2833  0.8574 -0.5968
  284MOL0     C38271   7.975   4.223   4.544 -1.1662  0.3053 -0.0054
  284MOL0     C38272   8.038   4.244   4.679 -0.3185  0.7444  0.1553
  284MOL0     H38273   8.135   4.734   4.578  0.1085  0.8812  1.7381
  284MOL0     H38274   8.344   4.862   4.615  0.7744  0.3004 -1.8756
  284MOL0     H38275   8.714   4.907   4.658  0.0592  0.6332 -0.5481
  284MOL0     H38276   8.530   4.929   4.658 -1.1023 -2.0883  1.2169
  284MOL0     H38277   8.702   4.785   4.874 -0.0480  0.6891  1.8022
  284MOL0     H38278   8.533   4.786   4.875 -0.6881 -0.2733 -1.6876
  284MOL0     H38279   8.585   4.952   5.019 -1.5636  1.3951  0.1533
  284MOL0     H38280   8.529   5.033   4.868 -1.0387 -1.4941  0.8921
  284MOL0     H38281   8.812   4.981   4.958  1.2913  0.4508  0.6379
  284MOL0     H38282   8.770   5.064   4.808 -0.5438 -3.4444  0.4839
  284MOL0     H38283   8.658   5.242   4.965 -0.8484  0.5403  1.1486
  284MOL0     H38284   8.692   5.140   5.093 -0.3239  2.6763  0.5337
  284MOL0     H38285   8.950   5.180   5.030 -0.1100 -0.3988 -1.0950
  284MOL0     H38286   8.897   5.314   4.937 -0.2823  2.1424  1.5421
  284MOL0     H38287   8.794   5.297   5.225  3.0029  0.1542  1.2396
  284MOL0     H38288   8.780   5.425   5.102 -1.8915 -0.6301  1.3047
  284MOL0     H38289   9.035   5.448   5.102 -1.4782  1.3457  0.1987
  284MOL0     H38290   8.960   5.469   5.261 -1.2598 -0.3762  0.1956
  284MOL0     H38291   9.019   5.275   5.447 -0.9445 -1.5946 -0.1063
  284MOL0     H38292   9.181   5.038   5.550  0.3262  1.4331  0.4094
  284MOL0     H38293   9.298   4.975   5.409  2.1242 -0.1556  0.4216
  284MOL0     H38294   9.412   5.182   5.429 -0.8479  0.4647  0.2796
  284MOL0     H38295   9.332   5.214   5.581 -0.6016 -1.0523  0.7177
  284MOL0     H38296   9.491   4.967   5.529  1.3815  0.2857  0.6263
  284MOL0     H38297   9.411   5.006   5.689  1.7595 -0.4607  1.1623
  284MOL0     H38298   9.543   5.226   5.662 -2.4138 -1.2453  1.1582
  284MOL0     H38299   9.659   5.114   5.575 -0.8118 -1.3768 -1.4317
  284MOL0     H38300   9.756   4.959   5.968  1.6476 -2.4477 -0.6666
  284MOL0     H38301   9.985   4.994   6.041  2.0271  0.2182 -0.9258
  284MOL0     H38302  10.280   5.353   6.131 -0.0414  0.4648  1.1041
  284MOL0     H38303  10.488   5.396   6.267  2.8307 -0.8654 -0.4005
  284MOL0     H38304  10.697   5.047   6.476 -0.2718  0.9751  2.1421
  284MOL0     H38305  10.764   5.095   6.322  2.9501  0.0787  1.5219
  284MOL0     H38306  10.858   5.302   6.444  1.5138  0.1452 -0.9661
  284MOL0     H38307  10.813   5.213   6.594 -3.7236  2.0785 -1.0220
  284MOL0     H38308  10.986   5.027   6.471 -1.9603 -0.3783  0.9120
  284MOL0     H38309  11.029   5.156   6.364  0.0412  0.7811  0.2366
  284MOL0     H38310  11.050   5.228   6.649 -1.0762 -2.8826 -0.4424
  284MOL0     H38311  11.126   5.288   6.498 -2.4403  0.5978  0.7531
  284MOL0     H38312  11.266   5.075   6.487  1.0611 -2.0089  1.0047
  284MOL0     H38313  11.176   5.018   6.633 -0.7633 -0.1567 -1.0700
  284MOL0     H38314  11.338   5.273   6.642  0.9415  0.6083  1.6257
  284MOL0     H38315  11.275   5.188   6.774 -2.5488  2.6988 -0.6806
  284MOL0     H38316  11.486   5.114   6.560 -0.5458 -0.1895 -0.0824
  284MOL0     H38317  11.436   4.977   6.652  0.0491 -0.1461 -0.2378
  284MOL0     H38318  11.504   5.090   6.870  0.0345  2.1639 -0.4097
  284MOL0     H38319  11.633   5.053   6.750  1.0935  1.8160 -1.0827
  284MOL0     H38320  10.529   4.979   6.351  2.7856 -0.3391 -3.3791
  284MOL0     H38321  10.346   4.929   6.168 -0.7050 -1.0739  0.4282
  284MOL0     H38322  10.049   5.297   5.744  3.0107 -0.6387  3.3948
  284MOL0     H38323   9.816   5.270   5.662 -1.0807  0.0429  0.3713
  284MOL0     H38324   8.579   4.494   4.622  0.8294 -0.2269 -2.3096
  284MOL0     H38325   8.367   4.367   4.558  2.0432 -0.9348  1.4288
  284MOL0     H38326   7.939   4.361   4.237 -2.2522 -1.2059 -1.5541
  284MOL0     H38327   7.753   4.194   4.225  2.2618  0.1244 -1.7650
  284MOL0     H38328   7.582   4.141   4.544  0.8858 -0.3020  0.3177
  284MOL0     H38329   7.619   3.977   4.589  2.2550 -1.5107 -1.8659
  284MOL0     H38330   7.439   4.039   4.349 -3.1390 -0.6085  0.6621
  284MOL0     H38331   7.364   4.013   4.504  0.1101 -1.9708  0.3016
  284MOL0     H38332   7.455   3.791   4.513 -1.2692 -2.3719 -1.4135
  284MOL0     H38333   7.539   3.810   4.363 -0.7291 -1.0893  0.1337
  284MOL0     H38334   7.236   3.800   4.401  0.0399 -0.9825 -0.5070
  284MOL0     H38335   7.315   3.839   4.247 -0.3822  1.7275  1.7791
  284MOL0     H38336   7.389   3.427   4.292 -0.1517 -0.1151 -3.8222
  284MOL0     H38337   7.842   4.066   4.614 -0.0057 -0.9557 -1.9126
  284MOL0     H38338   8.046   4.159   4.748 -0.5517  1.3798  0.9794
  284MOL0     H38339   8.139   4.278   4.658  0.0089 -0.8948 -1.1392
  284MOL0     H38340   7.975   4.321   4.726 -1.1937 -0.7387  1.5366
  285MOL0     O38341   6.185   8.719  10.597 -0.3479 -0.5010 -0.4184
  285MOL0     C38342   6.238   8.830  10.641  0.9972  0.2506  0.1419
  285MOL0     O38343   6.189   8.956  10.611  0.4723 -0.2218  0.0568
  285MOL0     C38344   6.060   8.996  10.583  0.6931  0.1685  0.3327
  285MOL0     C38345   6.032   9.132  10.560 -0.0146  0.4866 -0.6970
  285MOL0     C38346   5.899   9.176  10.548  0.6777 -0.0225  0.4776
  285MOL0     C38347   5.798   9.087  10.541 -0.0343  0.2747  0.2168
  285MOL0     O38348   5.679   9.143  10.511  0.5160  0.6037  0.1616
  285MOL0     C38349   5.580   9.061  10.455 -0.2682  0.6363 -0.3673
  285MOL0     C38350   5.461   9.146  10.433  0.3455 -0.3776  0.1945
  285MOL0     C38351   5.355   9.071  10.355  0.5673 -0.5338  0.6995
  285MOL0     C38352   5.239   9.179  10.337 -0.0044  0.3786 -0.6152
  285MOL0     C38353   5.150   9.129  10.226 -0.1856  0.2915  0.7716
  285MOL0     C38354   5.021   9.206  10.200 -0.2444  0.3460 -0.3868
  285MOL0     C38355   4.949   9.163  10.074 -0.3220  0.0780 -0.2972
  285MOL0     C38356   4.799   9.151  10.079 -0.3546 -0.2938  0.3123
  285MOL0     N38357   4.731   9.283  10.079 -0.2547  0.5458 -0.0749
  285MOL0     C38358   4.708   9.367  10.183 -0.5959 -0.2735 -0.3596
  285MOL0     C38359   4.653   9.480  10.132 -0.1514  0.0145  0.1991
  285MOL0     C38360   4.600   9.595  10.213 -1.1965  0.1108  0.9947
  285MOL0     C38361   4.713   9.652  10.295  0.6494 -0.2228 -0.3226
  285MOL0     C38362   4.673   9.784  10.369  0.7607  0.8915 -0.1777
  285MOL0     C38363   4.789   9.844  10.452  0.0450  0.0057 -0.4263
  285MOL0     O38364   4.902   9.854  10.366  1.0051 -0.2623 -0.1271
  285MOL0     C38365   5.002   9.931  10.426 -0.0006 -0.1742  1.3532
  285MOL0     C38366   5.032   9.951  10.560  0.2791 -0.1598 -0.3473
  285MOL0     C38367   5.147  10.025  10.603  0.4788  0.0383  0.0568
  285MOL0     C38368   5.234  10.086  10.513  0.6736  0.6421 -0.7540
  285MOL0     C38369   5.362  10.160  10.549  0.5306 -0.4010 -0.8997
  285MOL0     O38370   5.391  10.184  10.681  0.0796 -0.1049 -0.2292
  285MOL0     C38371   5.527  10.231  10.704  0.3369 -0.1704 -0.3455
  285MOL0     C38372   5.652  10.198  10.636 -0.0499 -0.0854 -0.4011
  285MOL0     C38373   5.778  10.243  10.685 -0.2993  0.6076  0.2737
  285MOL0     C38374   5.774  10.327  10.801  0.1938  0.1661 -0.2499
  285MOL0     O38375   5.894  10.381  10.835  0.6578 -0.3208 -1.0067
  285MOL0     C38376   5.890  10.504  10.925 -0.6009 -0.0912  0.7704
  285MOL0     C38377   6.037  10.542  10.952 -0.3309  0.1261  0.3919
  285MOL0     C38378   6.108  10.587  10.825  0.1627  0.2860 -0.4728
  285MOL0     C38379   6.252  10.620  10.859 -0.0703 -0.3414  0.9078
  285MOL0     C38380   6.347  10.650  10.752 -0.5057  0.3096  0.9675
  285MOL0     C38381   6.294  10.705  10.617  0.3561 -0.6186 -0.4598
  285MOL0     C38382   6.403  10.727  10.516 -0.2936  0.1855 -0.0920
  285MOL0     C38383   6.348  10.708  10.374 -0.5124  0.1038  0.3412
  285MOL0    Cl38384   6.478  10.751  10.272  0.3634  0.0017 -0.1855
  285MOL0     C38385   5.653  10.347  10.877 -0.1077 -0.6478  1.2145
  285MOL0     C38386   5.539  10.301  10.825 -0.1856  0.7331 -0.5334
  285MOL0     O38387   5.429  10.191  10.453  0.7468 -0.8927  0.7759
  285MOL0     C38388   5.202  10.064  10.375 -0.3141  0.3454  0.1746
  285MOL0     C38389   5.088   9.994  10.342  0.0757 -0.4554  0.6408
  285MOL0     N38390   4.633   9.458   9.995  0.2378 -0.3322  0.3367
  285MOL0     N38391   4.673   9.341   9.967  0.0191 -0.1359 -0.2525
  285MOL0     C38392   5.820   8.949  10.562  0.2708 -0.3599 -0.3116
  285MOL0     C38393   5.951   8.906  10.592 -0.1932  0.4739  0.1921
  285MOL0     C38394   6.366   8.810  10.707 -0.1270  0.2052 -0.0757
  285MOL0     C38395   6.460   8.736  10.633 -0.1005  0.0547 -0.7490
  285MOL0     C38396   6.589   8.718  10.688  0.2795  0.0747  0.7995
  285MOL0     C38397   6.618   8.767  10.812  0.2468 -0.6527 -0.3723
  285MOL0     O38398   6.735   8.757  10.881 -0.3213  0.3194 -0.4830
  285MOL0     C38399   6.845   8.688  10.817  0.3135  0.0061  0.0734
  285MOL0     C38400   6.981   8.736  10.869 -0.0552 -0.2231 -0.2143
  285MOL0     C38401   7.000   8.894  10.859  0.4358 -0.0823  0.0343
  285MOL0     C38402   7.133   8.939  10.912  0.0656  0.7068  0.0810
  285MOL0     C38403   7.242   8.894  10.819  0.1706  0.6549  0.1582
  285MOL0     C38404   7.343   8.855  10.761 -0.4351 -0.2179 -0.0317
  285MOL0     C38405   6.522   8.834  10.889  0.0049 -0.8013 -0.0611
  285MOL0     C38406   6.392   8.860  10.834  0.1051  0.3359  0.1565
  285MOL0     C38407   6.295   8.942  10.915 -0.8392  0.3128  0.0014
  285MOL0     H38408   6.113   9.204  10.549 -0.3878  0.8603 -1.0358
  285MOL0     H38409   5.871   9.280  10.534  0.5768  0.0357  1.1207
  285MOL0     H38410   5.591   9.007  10.360  1.6993 -1.2749  0.8437
  285MOL0     H38411   5.550   8.993  10.536  1.9254  2.7181  2.3714
  285MOL0     H38412   5.483   9.237  10.376 -1.0707  0.1024  0.3782
  285MOL0     H38413   5.425   9.174  10.532 -0.5001 -1.6006  0.2543
  285MOL0     H38414   5.319   8.991  10.419  0.9194  0.6252  2.4132
  285MOL0     H38415   5.400   9.034  10.262  1.0950  2.9176 -0.5676
  285MOL0     H38416   5.180   9.194  10.428 -2.0399 -0.5060 -1.7116
  285MOL0     H38417   5.280   9.275  10.306  1.6144 -1.2176 -3.8464
  285MOL0     H38418   5.217   9.119  10.140 -0.1229 -2.5498  1.0670
  285MOL0     H38419   5.113   9.028  10.244 -0.7507 -0.1299 -2.1635
  285MOL0     H38420   4.960   9.193  10.290  2.7441  4.1145  2.5906
  285MOL0     H38421   5.029   9.316  10.198  0.0842  0.3460  0.3152
  285MOL0     H38422   4.998   9.067  10.053  3.4152  1.6241  0.5792
  285MOL0     H38423   4.975   9.238   9.999 -0.0848  1.1931  0.8771
  285MOL0     H38424   4.768   9.095   9.990  0.5244  1.5266 -1.2142
  285MOL0     H38425   4.772   9.090  10.165 -0.0695  0.5263  0.9866
  285MOL0     H38426   4.735   9.351  10.287  0.6756  2.3770 -0.1908
  285MOL0     H38427   4.567   9.679  10.150  1.4408 -0.6191 -1.5853
  285MOL0     H38428   4.520   9.557  10.277 -0.4817 -0.3215  1.6361
  285MOL0     H38429   4.746   9.577  10.368 -3.3755 -1.7838  0.1221
  285MOL0     H38430   4.800   9.675  10.232  1.7717  0.7857  1.5014
  285MOL0     H38431   4.583   9.758  10.425  2.3652 -0.1808  2.0666
  285MOL0     H38432   4.649   9.859  10.293  2.2234 -0.1348 -1.7540
  285MOL0     H38433   4.797   9.775  10.537 -1.0406 -0.0240 -0.3298
  285MOL0     H38434   4.741   9.940  10.472 -0.9535  0.1000 -2.8472
  285MOL0     H38435   4.975   9.900  10.637 -0.6591  1.1175 -0.1669
  285MOL0     H38436   5.174  10.014  10.707 -1.7359 -1.5459  0.5689
  285MOL0     H38437   5.654  10.136  10.548  2.5243  1.2586 -1.3968
  285MOL0     H38438   5.871  10.221  10.634  0.5383 -0.4947  2.1479
  285MOL0     H38439   5.837  10.583  10.871 -1.3356 -2.2442 -1.9282
  285MOL0     H38440   5.840  10.480  11.019 -2.2838 -0.1980 -0.1117
  285MOL0     H38441   6.040  10.628  11.020  0.7694  0.3275  0.1104
  285MOL0     H38442   6.097  10.465  11.002  0.3999  0.5307  0.1471
  285MOL0     H38443   6.099  10.507  10.752 -0.1617  1.3026 -1.5760
  285MOL0     H38444   6.062  10.677  10.783  3.4498  1.2117 -2.4554
  285MOL0     H38445   6.307  10.541  10.911 -0.3549 -2.1050 -1.2872
  285MOL0     H38446   6.247  10.710  10.920 -1.7389  2.5288 -3.0708
  285MOL0     H38447   6.400  10.559  10.721 -0.7808  0.2780  0.5843
  285MOL0     H38448   6.423  10.716  10.795  0.0800  1.6523 -1.9578
  285MOL0     H38449   6.224  10.629  10.582 -0.5003  0.3304 -0.8431
  285MOL0     H38450   6.230  10.793  10.621 -1.2361 -1.7781  1.6951
  285MOL0     H38451   6.488  10.660  10.533 -0.6243 -1.0272 -2.7857
  285MOL0     H38452   6.436  10.832  10.513  3.1220 -0.7980 -1.2017
  285MOL0     H38453   6.306  10.607  10.361 -0.8338  0.0783  1.4989
  285MOL0     H38454   6.277  10.787  10.346  1.3212  1.7974  0.3076
  285MOL0     H38455   5.647  10.404  10.969 -1.8603 -0.7752  1.2012
  285MOL0     H38456   5.449  10.316  10.883 -0.5490 -2.8276  0.0083
  285MOL0     H38457   5.269  10.089  10.294  1.1335  2.3329  1.8564
  285MOL0     H38458   5.074   9.984  10.235 -0.0518  3.3288  0.1767
  285MOL0     H38459   5.748   8.868  10.559 -0.9095  0.6471 -3.7691
  285MOL0     H38460   5.958   8.799  10.609  0.2249  0.2528 -1.2320
  285MOL0     H38461   6.449   8.697  10.533 -0.3931  3.5025 -2.2275
  285MOL0     H38462   6.665   8.663  10.633  0.8652  0.0716  1.5955
  285MOL0     H38463   6.850   8.702  10.709  1.2587  0.2093  0.1427
  285MOL0     H38464   6.838   8.580  10.837 -0.9358  0.6632  4.0152
  285MOL0     H38465   7.037   8.687  10.788  0.1495 -0.0730 -0.1635
  285MOL0     H38466   7.013   8.694  10.965  0.4647  0.8006  0.0788
  285MOL0     H38467   6.929   8.949  10.920  0.6299 -1.4293  1.5485
  285MOL0     H38468   6.991   8.924  10.754  0.3244  0.0918  0.0935
  285MOL0     H38469   7.126   9.048  10.907 -2.4972  0.7120  2.1748
  285MOL0     H38470   7.157   8.914  11.015  1.8703 -0.2902 -0.5206
  285MOL0     H38471   7.435   8.853  10.707 -0.4861 -0.2112 -0.1177
  285MOL0     H38472   6.545   8.870  10.989  0.2973 -4.2482  1.2653
  285MOL0     H38473   6.198   8.891  10.912 -0.3817 -0.5300 -1.1985
  285MOL0     H38474   6.331   8.940  11.019  0.2792 -0.3073 -0.3820
  285MOL0     H38475   6.281   9.046  10.884  2.0920  0.9167  0.3691
  286MOL0     O38476   1.129   6.005   0.541  0.0530  0.6237  0.2056
  286MOL0     C38477   1.036   5.936   0.501 -0.5928  0.6378 -0.8108
  286MOL0     O38478   1.041   5.804   0.466  0.1280  0.5350  0.7927
  286MOL0     C38479   1.159   5.741   0.438  0.2767 -0.2143  0.9050
  286MOL0     C38480   1.270   5.743   0.523  0.6303  1.0222 -0.7978
  286MOL0     C38481   1.392   5.673   0.487  0.3561 -0.9310  0.5662
  286MOL0     C38482   1.402   5.605   0.370  0.8314  0.1535 -0.8167
  286MOL0     O38483   1.518   5.541   0.338  0.4717 -0.3474 -0.0373
  286MOL0     C38484   1.530   5.456   0.226  1.1474  0.2483 -0.2446
  286MOL0     C38485   1.666   5.395   0.237 -0.7613 -0.1737  0.8593
  286MOL0     C38486   1.691   5.315   0.363 -0.1688 -0.8145 -0.1603
  286MOL0     C38487   1.807   5.225   0.341 -0.0616  0.0943  0.1427
  286MOL0     C38488   1.830   5.114   0.450 -0.0281  0.4686  0.5850
  286MOL0     C38489   1.755   4.987   0.406  0.3352  1.0780  0.2968
  286MOL0     C38490   1.838   4.888   0.325 -0.6398 -0.3226  0.5189
  286MOL0     C38491   1.768   4.764   0.271  0.1769 -0.3465  0.1816
  286MOL0     N38492   1.871   4.672   0.215  0.3469  0.4967  0.1889
  286MOL0     C38493   1.935   4.683   0.091  0.0498 -0.4748 -0.0017
  286MOL0     C38494   2.022   4.581   0.083 -0.1401 -0.1316 -0.6712
  286MOL0     C38495   2.120   4.534  -0.022 -0.1820 -0.5008  0.0634
  286MOL0     C38496   2.172   4.652  -0.105  0.2111 -0.1908  0.4027
  286MOL0     C38497   2.268   4.613  -0.216 -0.7026 -0.3245  0.5537
  286MOL0     C38498   2.199   4.561  -0.338  0.4320 -0.3658  0.0304
  286MOL0     O38499   2.296   4.548  -0.439  0.2499  0.7006 -0.0336
  286MOL0     C38500   2.272   4.461  -0.546 -0.2950  0.0300  0.1490
  286MOL0     C38501   2.389   4.408  -0.619  0.4862  0.5875  0.2958
  286MOL0     C38502   2.381   4.308  -0.721  0.1246 -0.1969  0.0321
  286MOL0     C38503   2.249   4.264  -0.753  0.7437 -0.5443  0.8302
  286MOL0     C38504   2.226   4.164  -0.860  0.5369 -0.2163  0.0716
  286MOL0     O38505   2.345   4.104  -0.902 -0.3440 -0.2301 -0.2175
  286MOL0     C38506   2.349   4.010  -1.006  0.5726  0.7424 -0.6906
  286MOL0     C38507   2.239   3.927  -1.042 -0.3182 -0.4739 -0.2328
  286MOL0     C38508   2.259   3.834  -1.139  0.5435  1.2044  0.4708
  286MOL0     C38509   2.383   3.818  -1.199 -0.9098 -0.0657 -0.3365
  286MOL0     O38510   2.409   3.728  -1.287 -0.6218  0.0686  0.2345
  286MOL0     C38511   2.435   3.603  -1.223 -0.0060  0.8876 -0.1736
  286MOL0     C38512   2.536   3.528  -1.301  0.1570 -1.2209 -0.6182
  286MOL0     C38513   2.552   3.388  -1.246 -0.8732  0.4895  0.6970
  286MOL0     C38514   2.670   3.328  -1.324 -0.7624  0.2712 -0.4747
  286MOL0     C38515   2.694   3.176  -1.289  0.2817 -0.7463 -0.1919
  286MOL0     C38516   2.799   3.100  -1.388  0.6292 -0.2756  0.2527
  286MOL0     C38517   2.946   3.097  -1.340  0.5733 -0.0734 -0.4236
  286MOL0     C38518   2.997   3.231  -1.324 -0.1501 -0.1039  0.4247
  286MOL0    Cl38519   3.163   3.246  -1.266 -0.0210 -0.0178  0.4246
  286MOL0     C38520   2.494   3.894  -1.166 -0.1226 -0.6427  0.6304
  286MOL0     C38521   2.475   3.983  -1.063 -0.3361  0.2769 -0.6115
  286MOL0     O38522   2.114   4.150  -0.904 -0.9196  0.3462 -0.1823
  286MOL0     C38523   2.136   4.312  -0.678  0.2164 -0.5388  1.0901
  286MOL0     C38524   2.150   4.407  -0.582 -0.7176 -0.2615  0.3678
  286MOL0     N38525   2.018   4.514   0.207 -0.5055  0.1816  0.1906
  286MOL0     N38526   1.926   4.568   0.284  0.3546 -0.3835  0.4100
  286MOL0     C38527   1.279   5.588   0.295  0.8498  0.1221  0.3961
  286MOL0     C38528   1.163   5.654   0.328 -0.1732 -0.0920 -0.0915
  286MOL0     C38529   0.901   5.995   0.499  1.3312 -0.0731 -0.5440
  286MOL0     C38530   0.802   5.925   0.423 -0.9240 -0.2537  0.3281
  286MOL0     C38531   0.677   5.972   0.409  0.1451  0.5772  0.0295
  286MOL0     C38532   0.639   6.098   0.449  0.0539 -0.5611 -0.9810
  286MOL0     O38533   0.510   6.144   0.441  0.1120  0.2015  0.3083
  286MOL0     C38534   0.460   6.281   0.416 -0.1379  0.5876 -0.0928
  286MOL0     C38535   0.418   6.284   0.268  0.3415 -0.9190  0.3371
  286MOL0     C38536   0.295   6.195   0.231 -0.4277 -0.1540 -0.2270
  286MOL0     C38537   0.168   6.253   0.297  0.4837 -0.0393 -0.1299
  286MOL0     C38538   0.054   6.191   0.226  0.4786 -0.2125  0.3692
  286MOL0     C38539  -0.044   6.133   0.190 -0.0323  0.5104 -0.1649
  286MOL0     C38540   0.728   6.171   0.525 -0.2512 -0.8372  0.1940
  286MOL0     C38541   0.859   6.121   0.557 -1.0809  0.1043 -0.5471
  286MOL0     C38542   0.941   6.231   0.632  0.4388 -0.7790  0.0266
  286MOL0     H38543   1.267   5.779   0.625 -0.4914 -1.4271  0.1141
  286MOL0     H38544   1.474   5.684   0.558  1.9617  2.7137 -1.6001
  286MOL0     H38545   1.456   5.375   0.229  0.3720  0.9652  1.0178
  286MOL0     H38546   1.517   5.503   0.128  0.6481  1.9887  0.6150
  286MOL0     H38547   1.741   5.474   0.230  0.8719 -1.2137  4.4745
  286MOL0     H38548   1.676   5.333   0.147 -5.8946 -1.9635  1.2138
  286MOL0     H38549   1.605   5.251   0.383 -0.1006 -0.7188  0.4603
  286MOL0     H38550   1.708   5.387   0.444  1.1007 -0.5140 -0.6660
  286MOL0     H38551   1.805   5.191   0.237 -1.8684  2.5395 -0.7456
  286MOL0     H38552   1.897   5.286   0.346 -1.0942  1.9472 -1.8848
  286MOL0     H38553   1.936   5.094   0.469 -0.6022 -1.0499  2.4170
  286MOL0     H38554   1.790   5.145   0.546 -1.2041 -3.1247  1.4117
  286MOL0     H38555   1.720   4.941   0.499 -1.0414  1.3709 -0.0482
  286MOL0     H38556   1.672   5.023   0.345 -0.0706 -0.3215 -0.0155
  286MOL0     H38557   1.925   4.861   0.385  1.7323  2.2332 -1.5322
  286MOL0     H38558   1.883   4.951   0.248 -1.0483 -1.2578 -0.5189
  286MOL0     H38559   1.713   4.717   0.352  0.7604 -1.5838 -0.1178
  286MOL0     H38560   1.694   4.798   0.198  1.5786 -0.7265 -1.5048
  286MOL0     H38561   1.905   4.746   0.007 -0.5523 -2.7444 -1.5717
  286MOL0     H38562   2.210   4.496   0.027  0.7914  0.4017 -0.9730
  286MOL0     H38563   2.067   4.460  -0.082  0.0731 -1.3537  0.8607
  286MOL0     H38564   2.085   4.697  -0.153 -1.3609 -2.3045  1.1114
  286MOL0     H38565   2.225   4.729  -0.049  1.1687  0.2975 -1.0889
  286MOL0     H38566   2.344   4.541  -0.183  2.9245  0.6789 -4.4190
  286MOL0     H38567   2.320   4.704  -0.248 -0.9716 -0.2428  0.3449
  286MOL0     H38568   2.122   4.630  -0.373 -0.1836 -1.4906 -0.8505
  286MOL0     H38569   2.155   4.466  -0.309 -2.5425  0.5691 -1.0961
  286MOL0     H38570   2.484   4.451  -0.587  0.7405  0.3580 -0.1373
  286MOL0     H38571   2.466   4.274  -0.779  0.8509 -0.5684  1.2762
  286MOL0     H38572   2.138   3.939  -1.005  0.1631  1.9922  0.4922
  286MOL0     H38573   2.179   3.780  -1.187  1.0595 -0.2377  1.1704
  286MOL0     H38574   2.463   3.601  -1.117 -0.4182  0.6795 -0.0624
  286MOL0     H38575   2.341   3.548  -1.210  0.7133  0.1412  2.4571
  286MOL0     H38576   2.513   3.521  -1.408  0.7920 -0.4234 -0.8162
  286MOL0     H38577   2.630   3.583  -1.301 -0.6747  0.2916 -1.7998
  286MOL0     H38578   2.580   3.386  -1.140  2.2147 -2.0733 -0.0046
  286MOL0     H38579   2.467   3.324  -1.268  1.4473 -2.3845 -0.4785
  286MOL0     H38580   2.760   3.387  -1.305  0.3623 -1.4573 -0.2348
  286MOL0     H38581   2.664   3.323  -1.433  2.7015  2.4231 -0.8800
  286MOL0     H38582   2.603   3.115  -1.300 -0.5780  0.6896 -1.4466
  286MOL0     H38583   2.726   3.171  -1.185  0.3512  2.1613 -0.0030
  286MOL0     H38584   2.763   2.998  -1.406 -1.4301  0.5621 -0.5684
  286MOL0     H38585   2.791   3.144  -1.487  1.2104  1.1683  0.8244
  286MOL0     H38586   3.000   3.037  -1.414 -0.2156  0.3093 -1.3366
  286MOL0     H38587   2.954   3.050  -1.242  1.3640  0.8153 -0.0557
  286MOL0     H38588   2.993   3.293  -1.413  0.8242 -0.9216 -0.2079
  286MOL0     H38589   2.935   3.279  -1.247  1.2597  0.4549  1.2583
  286MOL0     H38590   2.587   3.877  -1.218 -0.8348 -1.6078 -0.3593
  286MOL0     H38591   2.560   4.039  -1.026  1.6056 -2.3794 -0.7452
  286MOL0     H38592   2.037   4.286  -0.713  0.6609 -0.4459 -0.2915
  286MOL0     H38593   2.063   4.435  -0.524  0.7074  1.3961  1.8126
  286MOL0     H38594   1.294   5.520   0.212  3.8876  1.2713 -0.1434
  286MOL0     H38595   1.070   5.645   0.273 -1.5173  2.8138  1.4656
  286MOL0     H38596   0.815   5.831   0.370  2.1807  0.0629  0.3192
  286MOL0     H38597   0.617   5.906   0.348  1.9420 -0.4298 -0.7410
  286MOL0     H38598   0.530   6.361   0.440  0.1403  2.1487 -5.0068
  286MOL0     H38599   0.370   6.293   0.477  0.4803 -1.2201  1.2729
  286MOL0     H38600   0.500   6.243   0.208 -0.1770 -1.9171  0.2880
  286MOL0     H38601   0.395   6.387   0.239  1.3025 -0.4356  1.2240
  286MOL0     H38602   0.318   6.100   0.282  2.9429  2.8074  4.7025
  286MOL0     H38603   0.290   6.192   0.122 -0.6943  0.3962 -0.2314
  286MOL0     H38604   0.170   6.239   0.405  0.7644  0.7083 -0.0326
  286MOL0     H38605   0.166   6.360   0.275  0.4219 -0.5217 -2.7552
  286MOL0     H38606  -0.137   6.087   0.163 -0.3820  0.1369  1.5699
  286MOL0     H38607   0.690   6.254   0.585  1.0443 -0.8357  1.0654
  286MOL0     H38608   0.890   6.286   0.712  0.4285  0.5063 -0.8317
  286MOL0     H38609   1.037   6.194   0.669  0.6550 -1.3695 -1.0853
  286MOL0     H38610   0.970   6.303   0.555  1.1981 -1.0492  0.0511
  287MOL0     O38611   5.255   1.331   9.991  0.4571  0.5047 -0.8094
  287MOL0     C38612   5.218   1.371  10.103  0.3920  0.5191  0.1957
  287MOL0     O38613   5.290   1.460  10.184  0.3801  0.3463  0.3310
  287MOL0     C38614   5.427   1.474  10.157  0.2501  0.2860 -0.2725
  287MOL0     C38615   5.473   1.600  10.188  0.8086  0.2974  0.3551
  287MOL0     C38616   5.612   1.622  10.181 -0.4150  0.9374 -0.0265
  287MOL0     C38617   5.702   1.520  10.156  0.3115  0.0478  0.4987
  287MOL0     O38618   5.840   1.538  10.151  0.0176 -0.5136  0.2646
  287MOL0     C38619   5.884   1.640  10.241 -0.3469  0.4077 -0.0972
  287MOL0     C38620   6.003   1.568  10.312  0.1693  0.2657 -0.3831
  287MOL0     C38621   6.069   1.670  10.407  0.0723 -0.0089  0.2975
  287MOL0     C38622   6.212   1.629  10.444  0.8926  0.1443 -0.5611
  287MOL0     C38623   6.305   1.723  10.517  0.4352  0.5058 -0.5568
  287MOL0     C38624   6.330   1.847  10.445 -0.5072 -0.4527 -0.5006
  287MOL0     C38625   6.467   1.921  10.466  0.3920 -0.1428 -0.5069
  287MOL0     C38626   6.593   1.849  10.442 -0.5770  0.4519 -0.2565
  287MOL0     N38627   6.692   1.938  10.382 -0.2914  0.6339 -0.0847
  287MOL0     C38628   6.726   2.061  10.422  0.4268 -0.6363 -0.1282
  287MOL0     C38629   6.834   2.100  10.348 -0.3434  0.7074  0.0646
  287MOL0     C38630   6.903   2.230  10.379  0.2264  0.8908  0.2592
  287MOL0     C38631   6.863   2.347  10.283  0.9588 -0.5921 -0.5079
  287MOL0     C38632   6.929   2.331  10.153  0.6759 -0.2680 -0.8349
  287MOL0     C38633   6.901   2.460  10.077 -0.6042 -0.8784 -0.5708
  287MOL0     O38634   6.912   2.578  10.156  1.0400  0.0996 -0.0189
  287MOL0     C38635   7.030   2.655  10.141  0.3155 -0.0074 -0.5446
  287MOL0     C38636   7.069   2.707  10.016  0.0735 -0.3791 -0.1893
  287MOL0     C38637   7.189   2.776  10.014  0.3645 -1.2294  0.6904
  287MOL0     C38638   7.276   2.783  10.122 -0.7388 -0.1897  0.3237
  287MOL0     C38639   7.408   2.848  10.119 -0.6234  0.3166  0.0375
  287MOL0     O38640   7.439   2.900   9.992  0.0936  0.1046 -0.3970
  287MOL0     C38641   7.558   2.953   9.957  0.3081 -0.3673  1.0751
  287MOL0     C38642   7.574   2.978   9.817  0.1950 -0.1354  0.3428
  287MOL0     C38643   7.687   3.042   9.753  0.5100  0.3843  0.5942
  287MOL0     C38644   7.787   3.083   9.842 -0.5719  0.6413 -0.1005
  287MOL0     O38645   7.904   3.143   9.800 -0.1132 -0.5326 -0.6195
  287MOL0     C38646   7.964   3.237   9.883 -0.0428 -0.0061 -0.1513
  287MOL0     C38647   8.064   3.321   9.806 -0.3574 -0.3284  0.2679
  287MOL0     C38648   8.169   3.381   9.891 -0.6198 -0.4073  0.1838
  287MOL0     C38649   8.246   3.490   9.810  0.0315 -0.1570  0.0674
  287MOL0     C38650   8.369   3.536   9.890 -0.0201  0.1962  0.1696
  287MOL0     C38651   8.458   3.650   9.832  0.3670  0.4342  0.5263
  287MOL0     C38652   8.379   3.783   9.797 -0.3783  0.1550  0.4891
  287MOL0     C38653   8.323   3.860   9.910  0.6309  0.7312  0.2183
  287MOL0    Cl38654   8.439   3.947  10.022  0.0876  0.0967 -0.1250
  287MOL0     C38655   7.772   3.062   9.983  0.3106 -0.3583 -0.4021
  287MOL0     C38656   7.655   3.004  10.037  0.1598 -0.3380  0.5659
  287MOL0     O38657   7.477   2.853  10.223 -1.2087  0.5369  0.0810
  287MOL0     C38658   7.237   2.722  10.243 -0.1921 -0.4742 -0.4712
  287MOL0     C38659   7.109   2.665  10.258 -0.3355 -0.4696  0.9919
  287MOL0     N38660   6.855   1.997  10.255 -0.1975 -0.3028  0.2549
  287MOL0     N38661   6.775   1.901  10.276 -0.9865 -0.2405 -0.9913
  287MOL0     C38662   5.648   1.393  10.126 -0.3687  0.5724 -0.3395
  287MOL0     C38663   5.512   1.371  10.134  0.1921 -0.1329 -0.4912
  287MOL0     C38664   5.079   1.344  10.149 -0.7598 -0.2491  0.3429
  287MOL0     C38665   5.031   1.412  10.265  1.1197 -0.0201 -0.0698
  287MOL0     C38666   4.897   1.405  10.303  0.1069  0.0503 -0.2924
  287MOL0     C38667   4.809   1.332  10.227  0.2998 -0.2797  1.2458
  287MOL0     O38668   4.675   1.321  10.252 -0.0830 -1.1489  0.0290
  287MOL0     C38669   4.621   1.343  10.386 -0.2628 -0.8846 -0.1640
  287MOL0     C38670   4.479   1.290  10.395  0.0955  0.4677 -0.1500
  287MOL0     C38671   4.383   1.375  10.306  0.0828 -0.4094 -0.5980
  287MOL0     C38672   4.237   1.350  10.357  0.8778  0.3576 -0.3701
  287MOL0     C38673   4.195   1.209  10.360  0.0810  0.1964  0.3858
  287MOL0     C38674   4.157   1.092  10.362  0.6680 -0.0371  0.6626
  287MOL0     C38675   4.850   1.273  10.114 -0.1731 -0.0224  0.0358
  287MOL0     C38676   4.983   1.263  10.075  0.2042 -0.6977  1.0143
  287MOL0     C38677   5.023   1.173   9.962  0.9470 -0.8817 -0.7191
  287MOL0     H38678   5.403   1.680  10.207  1.1449  0.3744  1.2952
  287MOL0     H38679   5.642   1.725  10.196 -1.4025  1.3241 -0.6000
  287MOL0     H38680   5.916   1.737  10.202 -0.1991  0.9309  1.2833
  287MOL0     H38681   5.814   1.668  10.321  1.4215  1.1676  1.2715
  287MOL0     H38682   6.071   1.545  10.230 -0.9895 -2.4115 -0.7015
  287MOL0     H38683   5.974   1.476  10.364  2.2266  0.4391  1.2088
  287MOL0     H38684   6.002   1.677  10.493 -1.5132  0.5268 -0.9286
  287MOL0     H38685   6.077   1.773  10.369 -1.3623  0.5902  1.5513
  287MOL0     H38686   6.190   1.543  10.509 -0.7654  0.9722  0.0225
  287MOL0     H38687   6.261   1.595  10.352 -1.5516  0.0154 -1.9032
  287MOL0     H38688   6.257   1.743  10.613  0.6270  1.1227 -0.5817
  287MOL0     H38689   6.398   1.667  10.529 -0.2479 -0.6336 -0.4187
  287MOL0     H38690   6.343   1.814  10.341 -0.8099 -0.3404 -0.5744
  287MOL0     H38691   6.243   1.912  10.451 -0.5338 -0.0222 -3.6920
  287MOL0     H38692   6.451   1.949  10.570 -1.4627 -2.6693 -0.0133
  287MOL0     H38693   6.460   2.006  10.397 -1.6548  0.3131  0.1872
  287MOL0     H38694   6.626   1.806  10.537  0.3197  1.3992 -0.1230
  287MOL0     H38695   6.573   1.766  10.373 -0.5127 -1.3431  1.7419
  287MOL0     H38696   6.674   2.113  10.502 -1.5966  0.6587 -2.1279
  287MOL0     H38697   6.883   2.266  10.481 -1.3658 -0.5424  0.5050
  287MOL0     H38698   7.010   2.211  10.363  0.4199  3.0808 -1.5778
  287MOL0     H38699   6.754   2.360  10.283  1.2322  2.3204  0.7783
  287MOL0     H38700   6.907   2.435  10.330 -0.0181 -0.4529  0.1667
  287MOL0     H38701   6.878   2.252  10.097 -1.5093  0.6717 -0.2777
  287MOL0     H38702   7.036   2.305  10.151 -0.0786 -3.8373 -1.2475
  287MOL0     H38703   6.800   2.446  10.036 -0.0105  1.2529 -3.0664
  287MOL0     H38704   6.963   2.470   9.987 -1.9592  1.9524 -1.3056
  287MOL0     H38705   7.004   2.710   9.929 -3.3353 -0.0270  2.2160
  287MOL0     H38706   7.215   2.825   9.921  0.0061 -2.5530 -0.1428
  287MOL0     H38707   7.506   2.932   9.747  1.8426 -1.2632 -0.5646
  287MOL0     H38708   7.697   3.050   9.646  0.3523 -0.0193  0.5456
  287MOL0     H38709   7.894   3.308   9.929  0.9061  1.4488 -0.8817
  287MOL0     H38710   8.015   3.196   9.971 -2.1242 -0.4646  0.9064
  287MOL0     H38711   8.107   3.272   9.719 -1.5200  1.2362 -1.2835
  287MOL0     H38712   8.013   3.412   9.772  0.3655 -0.1455 -0.3427
  287MOL0     H38713   8.119   3.426   9.977 -0.8915  0.9402 -0.6365
  287MOL0     H38714   8.227   3.293   9.920 -0.1077 -0.3309 -0.5907
  287MOL0     H38715   8.180   3.573   9.782  1.0541  1.0702  1.1294
  287MOL0     H38716   8.273   3.437   9.719 -2.4100 -0.9113 -0.2924
  287MOL0     H38717   8.434   3.450   9.910 -0.5300 -0.1822  0.2339
  287MOL0     H38718   8.326   3.559   9.988 -1.1793 -0.4660 -0.1723
  287MOL0     H38719   8.544   3.671   9.897  1.9296  1.6299 -1.8025
  287MOL0     H38720   8.512   3.611   9.745  2.1407 -1.5221  2.3680
  287MOL0     H38721   8.301   3.776   9.722  1.6958  1.3505 -1.9133
  287MOL0     H38722   8.458   3.839   9.746 -1.6822  1.2908 -0.3217
  287MOL0     H38723   8.249   3.933   9.874  1.9144 -0.2308 -5.3034
  287MOL0     H38724   8.270   3.792   9.977  0.6285  1.4182  0.9333
  287MOL0     H38725   7.848   3.087  10.056  0.7100 -3.8490  0.5363
  287MOL0     H38726   7.642   3.003  10.145 -2.8441  3.6954  0.4589
  287MOL0     H38727   7.295   2.741  10.333 -0.4910  0.4557 -0.4659
  287MOL0     H38728   7.094   2.609  10.350 -0.7991  1.3406  2.0621
  287MOL0     H38729   5.722   1.316  10.108 -0.0867  0.6379  0.5134
  287MOL0     H38730   5.474   1.270  10.118  2.3632 -0.9805 -0.6208
  287MOL0     H38731   5.104   1.471  10.319  3.5241 -0.8534 -2.2365
  287MOL0     H38732   4.871   1.463  10.390  0.3631 -2.1352  1.3451
  287MOL0     H38733   4.629   1.448  10.414 -1.1473 -1.3158  1.9522
  287MOL0     H38734   4.675   1.276  10.453  0.0179 -1.5795 -1.0610
  287MOL0     H38735   4.445   1.293  10.499  3.2282  1.7606  0.9558
  287MOL0     H38736   4.468   1.191  10.350  1.5168  0.0788  0.3313
  287MOL0     H38737   4.394   1.350  10.200  1.4314 -1.6690 -0.1891
  287MOL0     H38738   4.404   1.481  10.322  0.0152 -0.4557 -0.1912
  287MOL0     H38739   4.232   1.392  10.458  0.0415 -0.3145 -0.1174
  287MOL0     H38740   4.169   1.403  10.289  0.8246  3.1228  1.6791
  287MOL0     H38741   4.131   0.988  10.372  1.5567 -0.2762  0.5478
  287MOL0     H38742   4.780   1.208  10.062 -2.1927  0.8195  1.5805
  287MOL0     H38743   5.052   1.230   9.873 -2.4924  0.1108 -1.3547
  287MOL0     H38744   5.101   1.104   9.993  3.0740  1.2018 -1.1595
  287MOL0     H38745   4.938   1.113   9.926 -0.4764  0.6525 -0.0485
  288MOL0     O38746   0.553   0.673   4.682 -0.1436  0.1252  0.5712
  288MOL0     C38747   0.488   0.630   4.583  0.5129  0.3996  0.2226
  288MOL0     O38748   0.538   0.557   4.478  0.0802 -0.3946  0.1994
  288MOL0     C38749   0.662   0.506   4.500  0.4240 -0.0596  1.0441
  288MOL0     C38750   0.777   0.589   4.514  0.2352  0.0575 -0.1539
  288MOL0     C38751   0.901   0.530   4.531 -0.3215  0.3132 -0.4788
  288MOL0     C38752   0.921   0.392   4.541 -0.1470  0.1414  0.0037
  288MOL0     O38753   1.043   0.327   4.555 -0.0301  0.2110  0.1390
  288MOL0     C38754   1.150   0.417   4.517 -0.7115  0.3448 -0.0831
  288MOL0     C38755   1.285   0.336   4.526 -0.2512 -0.3195  0.3916
  288MOL0     C38756   1.392   0.435   4.483 -0.0301  0.2281  0.0010
  288MOL0     C38757   1.537   0.380   4.500 -0.1927  0.2793 -0.2496
  288MOL0     C38758   1.635   0.472   4.427  0.3954  0.3274  0.2989
  288MOL0     C38759   1.771   0.412   4.437 -0.1616 -0.1408  0.2762
  288MOL0     C38760   1.827   0.368   4.576  0.2901 -0.8722  0.3660
  288MOL0     C38761   1.952   0.270   4.553  0.6213  0.0234 -0.6687
  288MOL0     N38762   2.067   0.332   4.490  0.3950  0.3063  0.1548
  288MOL0     C38763   2.151   0.427   4.542 -0.4370  0.3764 -0.4699
  288MOL0     C38764   2.240   0.456   4.447 -0.4069  1.3105  0.0332
  288MOL0     C38765   2.352   0.551   4.460 -0.4276  0.1556 -0.4724
  288MOL0     C38766   2.458   0.527   4.351  0.2507 -0.5027 -0.1189
  288MOL0     C38767   2.573   0.619   4.380  0.2245  0.3667 -0.0502
  288MOL0     C38768   2.689   0.612   4.279 -0.9172 -0.0359 -0.3871
  288MOL0     O38769   2.780   0.717   4.292 -0.6301 -0.4776 -0.5071
  288MOL0     C38770   2.895   0.694   4.362 -0.5567 -0.2701  1.2553
  288MOL0     C38771   2.909   0.615   4.475 -0.0542 -0.6124 -0.7845
  288MOL0     C38772   3.027   0.600   4.546 -0.6786  0.2164  0.1163
  288MOL0     C38773   3.136   0.686   4.508 -0.6533 -0.1629 -0.1562
  288MOL0     C38774   3.263   0.684   4.591 -0.4714 -1.0369  0.0192
  288MOL0     O38775   3.358   0.769   4.548 -0.0887 -0.4001  0.3359
  288MOL0     C38776   3.487   0.780   4.600 -0.3233 -0.1056  0.0607
  288MOL0     C38777   3.513   0.760   4.731  0.4455  0.8172  0.1697
  288MOL0     C38778   3.632   0.793   4.789  0.0826 -0.0019  0.5006
  288MOL0     C38779   3.735   0.862   4.711  0.7930  0.7334  0.2765
  288MOL0     O38780   3.854   0.890   4.775  0.4409 -0.2695  0.1161
  288MOL0     C38781   3.978   0.880   4.700  0.1402  0.3293 -0.4851
  288MOL0     C38782   4.084   0.872   4.809  0.4093 -0.6785  0.2895
  288MOL0     C38783   4.225   0.850   4.757  0.5081 -0.1416 -0.3013
  288MOL0     C38784   4.327   0.817   4.865 -0.3877 -0.2545 -0.5137
  288MOL0     C38785   4.468   0.825   4.805 -0.6726 -0.3166 -0.1160
  288MOL0     C38786   4.573   0.828   4.917 -0.4258 -0.1179  0.4241
  288MOL0     C38787   4.715   0.831   4.857 -0.0318  0.5160 -0.6071
  288MOL0     C38788   4.817   0.859   4.961 -0.2037  0.3459 -0.9642
  288MOL0    Cl38789   4.808   1.026   5.034  0.4635 -0.4188  0.2902
  288MOL0     C38790   3.712   0.878   4.569 -0.4371  0.7128 -0.0436
  288MOL0     C38791   3.586   0.831   4.521 -0.8714  0.4547 -0.0992
  288MOL0     O38792   3.257   0.618   4.696 -0.3819 -0.0925  0.0075
  288MOL0     C38793   3.130   0.772   4.393  0.7777  1.2969 -0.4331
  288MOL0     C38794   3.008   0.766   4.321 -0.0614 -0.6558 -0.6869
  288MOL0     N38795   2.210   0.372   4.340  0.7423  0.5196 -0.4923
  288MOL0     N38796   2.107   0.300   4.360 -0.2763  0.5282 -0.2081
  288MOL0     C38797   0.798   0.317   4.543 -0.7230  0.3972 -0.9962
  288MOL0     C38798   0.675   0.370   4.514 -0.8302  0.5877 -0.3635
  288MOL0     C38799   0.345   0.679   4.565  0.7774 -0.7551  0.6898
  288MOL0     C38800   0.332   0.823   4.598 -0.5176 -0.4847  0.3795
  288MOL0     C38801   0.207   0.885   4.584 -0.8804  0.1891  0.1381
  288MOL0     C38802   0.096   0.813   4.542  0.2143 -0.2402  0.5977
  288MOL0     O38803  -0.018   0.884   4.514 -0.3236  0.0640 -0.3492
  288MOL0     C38804  -0.147   0.819   4.492 -0.0183 -0.7430 -0.1310
  288MOL0     C38805  -0.201   0.776   4.630  0.0596 -0.6085  0.4331
  288MOL0     C38806  -0.342   0.708   4.618  0.4307 -0.0736 -0.6034
  288MOL0     C38807  -0.378   0.617   4.739  0.6828  0.9964 -0.4813
  288MOL0     C38808  -0.512   0.559   4.731  0.5452 -0.3337  0.5605
  288MOL0     C38809  -0.620   0.511   4.725  0.3007 -0.4600  0.5887
  288MOL0     C38810   0.105   0.676   4.559 -0.1666  0.3970  0.4011
  288MOL0     C38811   0.225   0.603   4.558  0.6028 -0.8089  0.0064
  288MOL0     C38812   0.235   0.456   4.554  0.0771  0.3279  0.3619
  288MOL0     H38813   0.774   0.695   4.491  1.5956 -0.0010 -0.6382
  288MOL0     H38814   0.982   0.600   4.519 -0.8185  1.5165  2.4035
  288MOL0     H38815   1.139   0.454   4.415 -0.3368 -1.4620 -0.8148
  288MOL0     H38816   1.157   0.496   4.592  0.2963 -0.6181  0.8730
  288MOL0     H38817   1.282   0.243   4.469  2.6826 -1.8673  2.5323
  288MOL0     H38818   1.305   0.312   4.631  0.6346 -0.3663  0.2172
  288MOL0     H38819   1.384   0.527   4.542 -1.0682 -0.2049  0.5751
  288MOL0     H38820   1.371   0.455   4.378 -1.9483 -0.6571  0.1674
  288MOL0     H38821   1.558   0.376   4.607 -2.4425  1.8427  0.3361
  288MOL0     H38822   1.541   0.279   4.459 -2.5287 -0.3835  0.9296
  288MOL0     H38823   1.601   0.470   4.323  0.6697 -1.5585  0.2219
  288MOL0     H38824   1.620   0.570   4.475 -2.0251  0.1433  0.0378
  288MOL0     H38825   1.759   0.323   4.375  0.8853  0.2481 -0.5146
  288MOL0     H38826   1.843   0.476   4.384  0.0165 -0.3926  0.2134
  288MOL0     H38827   1.752   0.318   4.638 -0.0595 -0.8936 -0.0679
  288MOL0     H38828   1.859   0.461   4.625 -1.1474 -0.6189  0.8792
  288MOL0     H38829   1.994   0.243   4.650  0.0246  3.9815  0.8680
  288MOL0     H38830   1.924   0.179   4.499  2.3880 -0.7575 -0.3537
  288MOL0     H38831   2.155   0.465   4.644  0.7565  0.2797 -0.4665
  288MOL0     H38832   2.310   0.652   4.468 -1.4778  0.0184 -3.1287
  288MOL0     H38833   2.405   0.523   4.552  0.8955  0.8422 -0.9966
  288MOL0     H38834   2.496   0.425   4.355  1.4319 -0.0251  2.1649
  288MOL0     H38835   2.418   0.548   4.251  1.1703 -0.3676 -0.4645
  288MOL0     H38836   2.608   0.589   4.480  0.5442 -2.4783 -0.9256
  288MOL0     H38837   2.529   0.718   4.391 -0.5717  0.4179 -2.9239
  288MOL0     H38838   2.649   0.618   4.177  3.1818 -3.7754 -2.5041
  288MOL0     H38839   2.747   0.520   4.275 -0.3700  0.3347 -1.1880
  288MOL0     H38840   2.829   0.556   4.520  0.3699 -0.0532  0.7825
  288MOL0     H38841   3.025   0.546   4.640  0.1637 -1.4059 -0.7664
  288MOL0     H38842   3.439   0.717   4.797  1.4102  0.9458  1.3826
  288MOL0     H38843   3.653   0.780   4.894 -1.0091  1.6507  0.9717
  288MOL0     H38844   3.976   0.795   4.631 -2.3150  0.5474 -0.8001
  288MOL0     H38845   3.991   0.978   4.653  1.9750  1.3844  2.0162
  288MOL0     H38846   4.089   0.967   4.863  1.5983 -0.5897  0.0383
  288MOL0     H38847   4.041   0.797   4.876  0.4497  1.0311  2.3446
  288MOL0     H38848   4.227   0.770   4.682  0.1756  2.4107 -3.2331
  288MOL0     H38849   4.253   0.944   4.709 -0.9331 -0.8705 -2.7566
  288MOL0     H38850   4.314   0.717   4.908  1.0018 -0.1177  0.2950
  288MOL0     H38851   4.324   0.890   4.946  5.5126  2.2796 -2.0472
  288MOL0     H38852   4.480   0.921   4.755  0.2941 -0.2439  0.2213
  288MOL0     H38853   4.494   0.741   4.740 -1.3935 -0.0027 -0.8123
  288MOL0     H38854   4.558   0.921   4.972  0.3137  0.3479 -0.1418
  288MOL0     H38855   4.572   0.740   4.982  0.2732 -0.7699 -0.4220
  288MOL0     H38856   4.718   0.906   4.778 -1.2695 -1.4799 -2.6966
  288MOL0     H38857   4.735   0.732   4.814  1.2343  0.4333  0.1384
  288MOL0     H38858   4.798   0.786   5.040  0.2476  0.2891 -0.9071
  288MOL0     H38859   4.919   0.850   4.923  0.2788  1.1505  0.0605
  288MOL0     H38860   3.785   0.929   4.507 -2.3689  0.9220 -2.2679
  288MOL0     H38861   3.568   0.847   4.415  0.6711  2.5757 -0.1083
  288MOL0     H38862   3.209   0.829   4.346 -0.6414  3.1045 -0.7428
  288MOL0     H38863   3.000   0.835   4.237 -1.1300 -0.7690 -0.6890
  288MOL0     H38864   0.815   0.211   4.559 -1.5731  0.4256  0.1808
  288MOL0     H38865   0.583   0.312   4.520  0.1239 -1.1231 -1.4794
  288MOL0     H38866   0.416   0.883   4.631  1.0979 -1.2628 -2.0729
  288MOL0     H38867   0.207   0.991   4.606 -2.1648  0.2857 -0.2305
  288MOL0     H38868  -0.123   0.729   4.435 -2.8845 -0.7610 -1.4387
  288MOL0     H38869  -0.207   0.888   4.432  0.8205  1.2618  1.2380
  288MOL0     H38870  -0.202   0.858   4.702 -1.7474 -0.4549  0.2868
  288MOL0     H38871  -0.133   0.699   4.668 -0.3089 -1.2966 -0.2640
  288MOL0     H38872  -0.356   0.654   4.524 -0.5912 -0.2037 -0.3873
  288MOL0     H38873  -0.419   0.785   4.614  0.0605 -0.3833  0.3187
  288MOL0     H38874  -0.300   0.540   4.749 -0.6145 -0.5542 -1.7995
  288MOL0     H38875  -0.371   0.681   4.828 -3.1148 -2.3611  2.5764
  288MOL0     H38876  -0.712   0.459   4.708  0.4313 -0.1420 -1.3274
  288MOL0     H38877   0.013   0.617   4.556  0.1219 -0.0304 -1.4030
  288MOL0     H38878   0.313   0.405   4.611  1.6748 -0.4807 -2.3555
  288MOL0     H38879   0.142   0.409   4.587  0.8079 -0.6147  1.1064
  288MOL0     H38880   0.252   0.429   4.449  0.2514  1.3236  0.1206
  289MOL0     O38881   1.535   9.149   4.036  0.1163 -0.6519  0.7112
  289MOL0     C38882   1.571   9.219   4.122  0.5059 -0.0705 -0.4987
  289MOL0     O38883   1.702   9.258   4.139  0.0735  0.3552  0.2897
  289MOL0     C38884   1.786   9.241   4.035 -0.5942  0.4739 -0.0862
  289MOL0     C38885   1.837   9.354   3.976 -0.4133 -0.0739  0.4393
  289MOL0     C38886   1.947   9.353   3.891  0.0712 -0.2351 -0.2707
  289MOL0     C38887   2.005   9.227   3.856 -0.0064  0.0845 -0.7251
  289MOL0     O38888   2.120   9.214   3.778 -0.1147  0.2312 -0.1864
  289MOL0     C38889   2.182   9.335   3.739  0.3264 -0.6671 -0.6537
  289MOL0     C38890   2.305   9.298   3.664  1.2176  0.6466 -0.9566
  289MOL0     C38891   2.388   9.429   3.664 -0.1115 -0.0142 -0.1737
  289MOL0     C38892   2.521   9.405   3.589 -0.1994  0.6002 -0.6387
  289MOL0     C38893   2.600   9.534   3.549 -0.4726 -0.7927  0.4725
  289MOL0     C38894   2.689   9.504   3.421 -0.0943 -0.0848 -0.2774
  289MOL0     C38895   2.744   9.640   3.372  0.5360  0.2705 -0.1181
  289MOL0     C38896   2.869   9.686   3.458 -0.9735  0.1313  0.5228
  289MOL0     N38897   2.966   9.572   3.491  0.4857 -0.7405  0.8925
  289MOL0     C38898   3.064   9.514   3.406 -0.2884 -0.5334  0.2144
  289MOL0     C38899   3.116   9.413   3.482 -0.4640 -0.1767 -0.4119
  289MOL0     C38900   3.227   9.322   3.448  0.4981  0.3684 -0.1706
  289MOL0     C38901   3.182   9.204   3.362 -0.4246 -0.9295  0.7695
  289MOL0     C38902   3.286   9.105   3.348  0.5559  0.2601 -1.2367
  289MOL0     C38903   3.408   9.140   3.251  1.1547 -0.8742 -0.3204
  289MOL0     O38904   3.506   9.047   3.283  0.3071 -0.3253 -0.0323
  289MOL0     C38905   3.610   9.092   3.364  0.6331 -1.0704 -1.0042
  289MOL0     C38906   3.661   9.227   3.386  0.1494  0.7549 -0.0252
  289MOL0     C38907   3.767   9.240   3.478  0.8613  0.3756 -1.1249
  289MOL0     C38908   3.818   9.135   3.552 -0.5767  0.4116  0.3642
  289MOL0     C38909   3.929   9.160   3.644 -0.0658 -0.0387  0.1966
  289MOL0     O38910   4.003   9.269   3.617  0.4350  0.1482 -0.2552
  289MOL0     C38911   4.119   9.307   3.682  0.5059 -0.9674 -0.3734
  289MOL0     C38912   4.176   9.429   3.630 -0.1485 -0.0188  0.0235
  289MOL0     C38913   4.289   9.487   3.688  1.0278 -0.0322 -0.9781
  289MOL0     C38914   4.350   9.421   3.792  0.0725  0.2479  0.1283
  289MOL0     O38915   4.478   9.468   3.814  0.4974  0.4221 -0.4242
  289MOL0     C38916   4.547   9.425   3.933 -0.3145  0.0277  0.1366
  289MOL0     C38917   4.697   9.459   3.925  0.0997  1.1450  0.1128
  289MOL0     C38918   4.727   9.614   3.921 -0.0635 -0.0088 -0.2866
  289MOL0     C38919   4.881   9.621   3.922 -0.3160 -1.1086  0.1266
  289MOL0     C38920   4.932   9.763   3.957 -1.1509 -0.4938  0.1259
  289MOL0     C38921   5.089   9.760   3.947 -0.7359 -0.1174  0.0604
  289MOL0     C38922   5.153   9.897   3.983 -0.9903  1.0675 -0.6963
  289MOL0     C38923   5.310   9.888   3.970 -0.0356  0.1890 -0.6161
  289MOL0    Cl38924   5.381  10.020   4.063  0.1556  0.1274  0.1443
  289MOL0     C38925   4.294   9.306   3.850  0.5468 -0.3875  0.0338
  289MOL0     C38926   4.178   9.251   3.792  0.5105  0.0650 -0.2260
  289MOL0     O38927   3.947   9.079   3.732 -0.6635 -0.2275 -0.1959
  289MOL0     C38928   3.766   9.001   3.528 -0.6568 -0.4645 -0.0854
  289MOL0     C38929   3.668   8.993   3.430  0.1566  0.5714 -0.9161
  289MOL0     N38930   3.056   9.419   3.605 -0.2240 -0.3345 -0.5887
  289MOL0     N38931   2.966   9.506   3.610  0.9043  0.3451 -0.4502
  289MOL0     C38932   1.939   9.111   3.904  0.4628  0.0280 -0.0833
  289MOL0     C38933   1.833   9.115   4.000 -0.4033  0.7284  0.1097
  289MOL0     C38934   1.492   9.247   4.250  0.4332 -0.4217  0.6768
  289MOL0     C38935   1.557   9.289   4.376  0.0387  0.8542 -0.0054
  289MOL0     C38936   1.474   9.317   4.490 -0.1092 -0.6588 -0.1682
  289MOL0     C38937   1.336   9.295   4.495 -0.4931  0.5368  0.3844
  289MOL0     O38938   1.258   9.315   4.605 -0.0021  0.7015 -0.1334
  289MOL0     C38939   1.309   9.385   4.722  0.0484 -0.2434 -0.3861
  289MOL0     C38940   1.190   9.440   4.798 -0.2876  0.1406  0.1080
  289MOL0     C38941   1.093   9.529   4.713  0.4225  0.0458 -0.2982
  289MOL0     C38942   0.952   9.534   4.797 -0.8613  0.0687 -0.5359
  289MOL0     C38943   0.847   9.605   4.729  0.5559  0.1401  0.1943
  289MOL0     C38944   0.758   9.664   4.673 -0.4304 -0.1110 -0.2276
  289MOL0     C38945   1.280   9.244   4.374  0.4003 -0.3686 -0.4215
  289MOL0     C38946   1.351   9.222   4.258 -0.6016  0.1620  0.2235
  289MOL0     C38947   1.268   9.171   4.142  0.5869  0.0757  0.3424
  289MOL0     H38948   1.801   9.454   4.002  3.0913  1.3119  0.5487
  289MOL0     H38949   2.002   9.440   3.855 -0.9340  0.5555  0.0578
  289MOL0     H38950   2.114   9.402   3.686 -1.1565  0.8536  2.8558
  289MOL0     H38951   2.220   9.392   3.824 -1.2337  0.0069 -0.3779
  289MOL0     H38952   2.278   9.270   3.562  1.1606  0.2116 -0.8237
  289MOL0     H38953   2.370   9.225   3.713  0.3040  0.6579  0.3165
  289MOL0     H38954   2.421   9.464   3.762  1.1468  1.0753 -0.9659
  289MOL0     H38955   2.325   9.499   3.609 -1.3783 -0.6419  0.4308
  289MOL0     H38956   2.584   9.328   3.634  0.9733  1.8836  0.0326
  289MOL0     H38957   2.491   9.361   3.494  5.2960 -2.9748 -1.1869
  289MOL0     H38958   2.525   9.613   3.538 -0.0940 -0.5198 -0.2481
  289MOL0     H38959   2.666   9.574   3.627 -0.5372  0.9302 -0.2882
  289MOL0     H38960   2.774   9.437   3.437  0.6681  1.2321  1.4333
  289MOL0     H38961   2.625   9.461   3.343 -0.8477 -1.0060  0.8304
  289MOL0     H38962   2.670   9.719   3.386  0.2839  0.1080 -0.5325
  289MOL0     H38963   2.784   9.631   3.270  0.1538 -0.9277 -0.1756
  289MOL0     H38964   2.936   9.754   3.406  0.3380  1.3067  3.5028
  289MOL0     H38965   2.843   9.735   3.552  1.0155  1.3614  0.4872
  289MOL0     H38966   3.087   9.541   3.303 -2.5306  1.0980  0.0669
  289MOL0     H38967   3.303   9.381   3.396  0.1253  3.2925  2.3338
  289MOL0     H38968   3.260   9.284   3.545 -2.5008  1.8141  1.5949
  289MOL0     H38969   3.101   9.153   3.414  0.2101 -2.4372  0.3308
  289MOL0     H38970   3.143   9.226   3.262  0.0970 -1.6926  0.3967
  289MOL0     H38971   3.231   9.017   3.313 -1.3124  0.7503  0.2787
  289MOL0     H38972   3.320   9.081   3.449  0.2317 -0.3119 -1.2574
  289MOL0     H38973   3.427   9.244   3.276  1.6499 -0.9173 -0.5039
  289MOL0     H38974   3.387   9.147   3.144 -0.7886  1.2131  0.1260
  289MOL0     H38975   3.634   9.305   3.316 -0.9860  0.3355 -0.0789
  289MOL0     H38976   3.807   9.341   3.483  0.4879  0.4951 -0.3920
  289MOL0     H38977   4.122   9.479   3.550 -1.0299  1.6032  1.5323
  289MOL0     H38978   4.333   9.582   3.658 -0.0911  0.1310 -2.1925
  289MOL0     H38979   4.500   9.475   4.018 -1.0286  0.2704 -0.3916
  289MOL0     H38980   4.543   9.316   3.943  0.2052 -0.2200 -1.8946
  289MOL0     H38981   4.739   9.404   4.010 -0.0715  1.4137  0.3721
  289MOL0     H38982   4.745   9.412   3.838  1.7791  1.4361  0.8583
  289MOL0     H38983   4.684   9.677   3.842 -0.0867  2.4357  1.5466
  289MOL0     H38984   4.689   9.658   4.014  2.3301 -0.0958  0.8091
  289MOL0     H38985   4.915   9.583   3.825 -2.6936 -0.1802 -1.1458
  289MOL0     H38986   4.916   9.557   4.004 -0.4081 -0.9091  0.3217
  289MOL0     H38987   4.896   9.795   4.055 -3.7732  0.4081 -1.0454
  289MOL0     H38988   4.893   9.838   3.888 -3.3227 -0.1360  1.6430
  289MOL0     H38989   5.128   9.672   3.999  0.3351  2.2086  3.5683
  289MOL0     H38990   5.104   9.738   3.841 -2.1770 -0.0535 -0.1682
  289MOL0     H38991   5.132   9.922   4.088  2.7502  1.1591  0.1652
  289MOL0     H38992   5.120   9.975   3.914  0.8934  0.7704 -2.0082
  289MOL0     H38993   5.344   9.794   4.014  1.4901  1.0458  0.1523
  289MOL0     H38994   5.336   9.878   3.864 -2.7993 -0.0036 -1.3451
  289MOL0     H38995   4.347   9.255   3.930 -0.6897 -1.9739 -0.1117
  289MOL0     H38996   4.137   9.162   3.838  0.8735 -0.9273 -1.7549
  289MOL0     H38997   3.798   8.907   3.572 -1.9686 -1.2321 -0.7025
  289MOL0     H38998   3.628   8.896   3.403  0.3749 -0.0725  0.9152
  289MOL0     H38999   1.981   9.015   3.876  2.3281 -0.0664  2.6128
  289MOL0     H39000   1.793   9.023   4.041 -1.2596  0.1842 -1.8317
  289MOL0     H39001   1.664   9.305   4.385  0.1422 -0.1013  0.5796
  289MOL0     H39002   1.525   9.336   4.583  0.4911 -0.5878 -0.5061
  289MOL0     H39003   1.367   9.470   4.686  0.5356 -0.1740  0.5334
  289MOL0     H39004   1.361   9.313   4.786 -2.1209 -1.0657  0.5704
  289MOL0     H39005   1.234   9.509   4.871  1.2613  1.5464 -2.0370
  289MOL0     H39006   1.135   9.361   4.848 -2.1845 -0.7769 -3.1580
  289MOL0     H39007   1.069   9.475   4.620  1.2225 -0.8887  0.0234
  289MOL0     H39008   1.133   9.630   4.702  1.0589 -0.3639 -2.1341
  289MOL0     H39009   0.931   9.431   4.825  0.4753  0.0456  0.4556
  289MOL0     H39010   0.960   9.578   4.897 -0.4571 -0.4409 -0.3382
  289MOL0     H39011   0.670   9.704   4.627 -1.2077 -0.2685  1.0730
  289MOL0     H39012   1.172   9.236   4.380  0.4258 -0.3698  0.1343
  289MOL0     H39013   1.180   9.119   4.179  2.1217 -2.3988  0.7777
  289MOL0     H39014   1.239   9.259   4.083  1.3367 -1.0901 -1.8961
  289MOL0     H39015   1.321   9.102   4.075 -1.1385  0.5348 -1.5961
  290MOL0     O39016   2.419   3.904   8.757 -0.0426 -0.0341 -0.0692
  290MOL0     C39017   2.408   3.829   8.664  0.4231  0.1852  0.2806
  290MOL0     O39018   2.295   3.786   8.596  0.1488  0.5620 -0.0922
  290MOL0     C39019   2.171   3.818   8.643  0.6223  0.2311 -0.3118
  290MOL0     C39020   2.073   3.734   8.591 -0.1819 -0.3986 -0.8968
  290MOL0     C39021   1.942   3.736   8.638  0.0669  0.0504  0.5397
  290MOL0     C39022   1.899   3.832   8.725  0.0626 -0.0020  0.3934
  290MOL0     O39023   1.772   3.843   8.780  0.4463 -0.0075  0.2740
  290MOL0     C39024   1.672   3.770   8.712  0.0373 -0.4413  0.7431
  290MOL0     C39025   1.536   3.771   8.783 -0.4243 -0.2815 -0.2206
  290MOL0     C39026   1.470   3.906   8.784  0.7829  0.0857 -0.2557
  290MOL0     C39027   1.362   3.920   8.676  0.3425 -0.5565 -0.5737
  290MOL0     C39028   1.278   4.048   8.687  0.5412  0.2363 -0.5492
  290MOL0     C39029   1.365   4.168   8.733  0.0319  0.4764  0.7042
  290MOL0     C39030   1.282   4.301   8.742  0.5656 -0.1457 -1.1540
  290MOL0     C39031   1.374   4.431   8.760  1.0284  0.5072  0.4559
  290MOL0     N39032   1.428   4.415   8.898  0.0630 -0.5906 -0.1332
  290MOL0     C39033   1.549   4.370   8.934 -0.7872 -0.3216 -0.8410
  290MOL0     C39034   1.583   4.426   9.051  0.1193 -0.3655 -1.3231
  290MOL0     C39035   1.711   4.413   9.133  0.6645  0.5301  0.2769
  290MOL0     C39036   1.755   4.265   9.115 -0.7159  0.1263 -0.9372
  290MOL0     C39037   1.853   4.223   9.217  0.1583 -0.0836  0.5036
  290MOL0     C39038   1.937   4.101   9.165  0.3962  0.1854 -0.1663
  290MOL0     O39039   2.020   4.056   9.279  0.1519 -0.4430  0.1275
  290MOL0     C39040   2.148   4.030   9.245  0.1753  0.5504 -0.6593
  290MOL0     C39041   2.247   4.071   9.331 -0.3327 -0.5356 -0.1200
  290MOL0     C39042   2.371   4.017   9.328 -0.6713 -0.2474 -0.4921
  290MOL0     C39043   2.410   3.932   9.224 -0.3890 -0.1500 -0.7384
  290MOL0     C39044   2.546   3.878   9.204  0.6704 -0.7358  0.4734
  290MOL0     O39045   2.593   3.853   9.073  0.0216 -0.5146  0.0514
  290MOL0     C39046   2.720   3.792   9.049  0.8258  0.2402  0.5015
  290MOL0     C39047   2.789   3.831   8.937 -0.0862 -0.4404  0.2972
  290MOL0     C39048   2.900   3.763   8.892  0.4167 -0.0020 -0.1870
  290MOL0     C39049   2.946   3.650   8.962  0.7508  0.1579 -0.3866
  290MOL0     O39050   3.058   3.571   8.946 -0.6134  0.6572 -0.4592
  290MOL0     C39051   3.151   3.631   8.855 -1.2605  0.7245  0.1814
  290MOL0     C39052   3.305   3.588   8.862  0.7800 -0.2063  0.4623
  290MOL0     C39053   3.321   3.436   8.863  0.2025  0.3450 -0.7870
  290MOL0     C39054   3.460   3.399   8.926  0.8014  0.3575 -0.8172
  290MOL0     C39055   3.574   3.438   8.838 -0.0034  0.0996  0.5152
  290MOL0     C39056   3.710   3.407   8.905  0.2942 -0.1399 -0.3094
  290MOL0     C39057   3.817   3.445   8.797 -0.4862 -0.3777 -1.0281
  290MOL0     C39058   3.962   3.414   8.850 -0.6843 -0.4517  0.5704
  290MOL0    Cl39059   4.062   3.449   8.715 -0.4984 -0.2207  0.3701
  290MOL0     C39060   2.869   3.602   9.066  0.3617  0.8907 -0.5757
  290MOL0     C39061   2.754   3.670   9.112  0.1329 -0.2416  0.0808
  290MOL0     O39062   2.602   3.853   9.311  0.0047 -0.5411 -0.0241
  290MOL0     C39063   2.317   3.916   9.123 -0.2369  0.3483  0.2227
  290MOL0     C39064   2.180   3.939   9.146  0.0255  0.1957 -0.1986
  290MOL0     N39065   1.469   4.493   9.095 -0.1647  0.3689 -0.1037
  290MOL0     N39066   1.373   4.479   9.007 -0.2531  0.2906  0.0116
  290MOL0     C39067   1.997   3.926   8.772  0.7214  0.2818 -1.1513
  290MOL0     C39068   2.133   3.919   8.732  0.5664  0.2725  0.1165
  290MOL0     C39069   2.534   3.781   8.612 -0.0488 -0.7507 -0.1914
  290MOL0     C39070   2.580   3.830   8.493  0.6714 -0.6895  0.7751
  290MOL0     C39071   2.693   3.775   8.435 -1.2380 -0.0236  0.0522
  290MOL0     C39072   2.772   3.681   8.503 -0.5234 -0.6353 -0.3110
  290MOL0     O39073   2.888   3.629   8.457  0.7308 -0.2207 -0.2957
  290MOL0     C39074   2.973   3.708   8.370  0.1216 -0.5421 -0.0633
  290MOL0     C39075   3.105   3.635   8.372  0.0333  0.1001 -0.5382
  290MOL0     C39076   3.207   3.694   8.266 -0.0562  0.0394  0.2536
  290MOL0     C39077   3.346   3.625   8.270 -0.2316 -0.3687  0.1532
  290MOL0     C39078   3.341   3.484   8.229 -0.0017 -0.3478 -1.2248
  290MOL0     C39079   3.321   3.371   8.192 -0.0522  0.0902  0.2805
  290MOL0     C39080   2.726   3.634   8.621  0.0268 -0.2088 -0.7276
  290MOL0     C39081   2.611   3.681   8.683 -0.7737 -0.4858 -0.0224
  290MOL0     C39082   2.568   3.613   8.813 -0.1784 -0.4292  0.5749
  290MOL0     H39083   2.094   3.650   8.526  1.8223  2.1188 -3.7066
  290MOL0     H39084   1.873   3.671   8.585  1.0193 -0.3864 -0.2079
  290MOL0     H39085   1.667   3.798   8.606  0.9863 -0.3587  0.7150
  290MOL0     H39086   1.698   3.664   8.725 -1.0536 -0.6484  1.3832
  290MOL0     H39087   1.555   3.736   8.885 -3.1837  0.0170  0.4873
  290MOL0     H39088   1.467   3.702   8.733  1.4470 -1.0485 -1.8841
  290MOL0     H39089   1.549   3.979   8.766  3.9888 -2.8198  0.7768
  290MOL0     H39090   1.425   3.911   8.884 -2.4057 -0.0575 -1.5742
  290MOL0     H39091   1.412   3.891   8.583  0.1696  1.4875 -1.3382
  290MOL0     H39092   1.291   3.837   8.688 -2.4174  2.0370  3.6488
  290MOL0     H39093   1.239   4.068   8.586 -0.3429  1.2176 -0.0342
  290MOL0     H39094   1.191   4.041   8.753 -0.2321 -0.0988 -1.5821
  290MOL0     H39095   1.415   4.153   8.828  1.6139 -2.4973 -0.4709
  290MOL0     H39096   1.442   4.189   8.658  0.4554 -0.6862  0.7870
  290MOL0     H39097   1.208   4.296   8.822  1.1394 -3.6862 -0.6566
  290MOL0     H39098   1.227   4.308   8.648 -1.5938 -1.1117 -0.0430
  290MOL0     H39099   1.452   4.421   8.685 -1.0731  0.6511 -1.8683
  290MOL0     H39100   1.331   4.531   8.752  3.6651  1.8394  1.6247
  290MOL0     H39101   1.620   4.303   8.885 -2.4003 -1.7684 -1.3268
  290MOL0     H39102   1.787   4.487   9.109 -0.4676  1.5094 -0.3874
  290MOL0     H39103   1.689   4.447   9.235 -0.2410  1.4755 -0.2174
  290MOL0     H39104   1.671   4.196   9.109 -0.5340 -0.4036  1.6786
  290MOL0     H39105   1.795   4.263   9.013 -2.5689  0.9663 -1.7340
  290MOL0     H39106   1.812   4.187   9.311  2.2438 -0.5372  1.2947
  290MOL0     H39107   1.925   4.300   9.246 -1.8013  0.6527  3.9248
  290MOL0     H39108   1.996   4.132   9.079 -1.5674  2.1205 -0.9229
  290MOL0     H39109   1.879   4.018   9.124  0.9075  0.9316 -2.5541
  290MOL0     H39110   2.218   4.132   9.417  0.6647  0.0969 -0.2136
  290MOL0     H39111   2.451   4.049   9.393 -0.3910 -1.2733 -0.3161
  290MOL0     H39112   2.750   3.915   8.881 -2.2155 -0.9191  0.9779
  290MOL0     H39113   2.959   3.804   8.811  1.1265  0.0884  0.3649
  290MOL0     H39114   3.122   3.621   8.750  0.5505  0.6390 -0.3584
  290MOL0     H39115   3.153   3.737   8.881 -0.4952  0.6725  0.3696
  290MOL0     H39116   3.355   3.627   8.773  1.5099  1.3569  1.5076
  290MOL0     H39117   3.341   3.643   8.950 -0.5308  0.5609  0.5442
  290MOL0     H39118   3.237   3.390   8.915 -1.1372  3.8245  0.3617
  290MOL0     H39119   3.319   3.399   8.759  1.0458  1.8098 -1.3532
  290MOL0     H39120   3.450   3.290   8.937  0.2112  0.3557 -1.3464
  290MOL0     H39121   3.476   3.449   9.022  3.5771 -0.3693 -0.8295
  290MOL0     H39122   3.558   3.544   8.817  1.2132 -0.0482 -1.4295
  290MOL0     H39123   3.551   3.387   8.743 -2.4611  1.2317  0.4044
  290MOL0     H39124   3.723   3.476   8.990  0.1672 -1.3669  0.7373
  290MOL0     H39125   3.720   3.304   8.939 -2.9621 -0.1588  0.9379
  290MOL0     H39126   3.813   3.553   8.781  0.0788  0.0647  1.4063
  290MOL0     H39127   3.795   3.391   8.704 -0.9343  0.6706 -1.5446
  290MOL0     H39128   3.994   3.477   8.934 -0.1648  1.0919 -0.7314
  290MOL0     H39129   3.979   3.311   8.881 -0.3588 -0.6348 -0.1865
  290MOL0     H39130   2.891   3.513   9.125 -1.1057  0.5711 -0.4676
  290MOL0     H39131   2.695   3.625   9.191 -3.4057 -2.9494 -3.7068
  290MOL0     H39132   2.347   3.858   9.036  0.1005 -2.5091  2.1252
  290MOL0     H39133   2.099   3.902   9.083  0.4909 -1.5118  0.1547
  290MOL0     H39134   1.956   3.998   8.843 -1.9226  0.7654 -3.0052
  290MOL0     H39135   2.202   3.995   8.766 -0.9672  2.7269 -1.8983
  290MOL0     H39136   2.525   3.912   8.448  1.4682 -0.4233  0.2701
  290MOL0     H39137   2.733   3.809   8.340 -3.9699  0.7790 -0.9024
  290MOL0     H39138   2.991   3.805   8.417 -1.7017 -1.2654  2.3240
  290MOL0     H39139   2.939   3.712   8.266  0.5729  1.6617 -0.1594
  290MOL0     H39140   3.096   3.528   8.353  2.4662  0.2335 -2.9513
  290MOL0     H39141   3.163   3.644   8.464  3.2078 -0.4384 -2.3612
  290MOL0     H39142   3.223   3.800   8.288  2.9581 -0.3071  0.1311
  290MOL0     H39143   3.179   3.685   8.160  1.9092  0.4848 -0.3476
  290MOL0     H39144   3.410   3.681   8.201 -1.4188 -1.4829 -1.9498
  290MOL0     H39145   3.389   3.634   8.370 -1.1961  0.1666  0.5331
  290MOL0     H39146   3.290   3.272   8.166 -0.4320  0.0102  1.0118
  290MOL0     H39147   2.797   3.581   8.684 -0.1326  0.9580  0.4764
  290MOL0     H39148   2.650   3.557   8.859 -0.6504 -0.2385  1.6805
  290MOL0     H39149   2.533   3.677   8.894  1.9789  1.8350 -0.1572
  290MOL0     H39150   2.500   3.534   8.779  1.1607 -2.0317  1.4298
  291MOL0     O39151   5.688   7.855   5.793 -0.1259 -0.4961 -0.1233
  291MOL0     C39152   5.601   7.773   5.833 -0.6154 -0.8280 -0.5971
  291MOL0     O39153   5.629   7.672   5.919 -0.0857  0.4511 -0.4688
  291MOL0     C39154   5.763   7.655   5.956  0.2322 -0.0650 -0.5535
  291MOL0     C39155   5.796   7.683   6.092 -0.5177  0.3804  0.0206
  291MOL0     C39156   5.927   7.680   6.125 -0.7712  0.3552  0.5207
  291MOL0     C39157   6.039   7.652   6.045  0.4366  0.4266  0.8828
  291MOL0     O39158   6.165   7.639   6.104  0.6911 -0.3135  0.0705
  291MOL0     C39159   6.280   7.653   6.018  0.7399  0.6368  0.6690
  291MOL0     C39160   6.321   7.518   5.963 -0.0277  0.1980  0.3578
  291MOL0     C39161   6.430   7.543   5.860  0.8488  0.6354  0.6523
  291MOL0     C39162   6.486   7.407   5.820 -0.1530 -0.3866  0.2587
  291MOL0     C39163   6.635   7.423   5.777  0.4048  0.0667 -0.4156
  291MOL0     C39164   6.704   7.281   5.762  0.5401  0.3218 -0.4240
  291MOL0     C39165   6.647   7.171   5.667  0.1273  0.6790 -0.8965
  291MOL0     C39166   6.623   7.223   5.519  0.2728 -0.1187 -0.5877
  291MOL0     N39167   6.596   7.124   5.425 -0.3730  0.2447  0.3958
  291MOL0     C39168   6.528   7.009   5.468  0.2348  0.4212 -0.5982
  291MOL0     C39169   6.569   6.913   5.375  0.3908  0.0418 -0.1959
  291MOL0     C39170   6.543   6.772   5.393  0.2648  0.3272  0.6995
  291MOL0     C39171   6.662   6.710   5.456  0.1359  0.2923  0.2975
  291MOL0     C39172   6.666   6.564   5.469  0.0130  0.4221  0.6512
  291MOL0     C39173   6.801   6.509   5.524 -0.2607  0.2380 -0.2652
  291MOL0     O39174   6.834   6.537   5.658 -0.3545  0.3213  0.1809
  291MOL0     C39175   6.959   6.483   5.686  0.2259  1.2248 -0.8767
  291MOL0     C39176   6.974   6.352   5.736 -0.1984  0.1477 -0.2275
  291MOL0     C39177   7.102   6.307   5.767 -0.4369 -0.3601  0.0044
  291MOL0     C39178   7.214   6.394   5.751  0.4435 -1.1227 -0.3174
  291MOL0     C39179   7.347   6.351   5.801  0.5755 -0.6911  0.0277
  291MOL0     O39180   7.431   6.461   5.823 -0.7754  0.2523 -0.1048
  291MOL0     C39181   7.554   6.429   5.879 -0.0356 -0.2086  1.3987
  291MOL0     C39182   7.560   6.379   6.005 -0.0776 -0.0506 -0.5304
  291MOL0     C39183   7.678   6.343   6.066  0.5793  0.5028  0.3800
  291MOL0     C39184   7.801   6.380   6.012  0.0209  0.2629  0.5478
  291MOL0     O39185   7.910   6.331   6.081  0.6557  0.6048 -0.2087
  291MOL0     C39186   8.033   6.337   6.009  0.3342 -0.0159 -0.0340
  291MOL0     C39187   8.119   6.261   6.103 -0.1712  0.2495  0.3705
  291MOL0     C39188   8.266   6.318   6.102  0.3991 -0.5086 -0.1879
  291MOL0     C39189   8.326   6.295   5.956  0.3900 -0.7062 -0.3850
  291MOL0     C39190   8.402   6.422   5.927  0.2529 -0.1840 -0.1350
  291MOL0     C39191   8.502   6.464   6.031 -1.0343  0.3448  0.4668
  291MOL0     C39192   8.601   6.350   6.064  0.6457 -0.1265 -0.4272
  291MOL0     C39193   8.724   6.404   6.139 -0.0874  0.1271 -0.0917
  291MOL0    Cl39194   8.799   6.540   6.057  0.2366 -0.4346  0.5725
  291MOL0     C39195   7.799   6.445   5.889 -0.9278  0.0359 -0.7224
  291MOL0     C39196   7.678   6.468   5.823 -0.0241  0.1597  0.5979
  291MOL0     O39197   7.382   6.232   5.810 -0.3077  0.0621  1.2833
  291MOL0     C39198   7.187   6.526   5.709 -0.4519 -0.4385 -0.0124
  291MOL0     C39199   7.058   6.568   5.674 -0.5820  0.0152  0.1157
  291MOL0     N39200   6.643   6.970   5.272  0.0828  0.2256  0.3981
  291MOL0     N39201   6.663   7.100   5.309  0.4722 -0.5434  0.0711
  291MOL0     C39202   6.008   7.636   5.908 -0.1523 -0.0006 -0.2249
  291MOL0     C39203   5.870   7.628   5.866 -0.8038 -0.0897  1.0082
  291MOL0     C39204   5.457   7.795   5.786  0.3335 -0.5909  0.0523
  291MOL0     C39205   5.376   7.679   5.782 -0.0550  0.3303  0.6839
  291MOL0     C39206   5.253   7.683   5.718  0.7974  0.2568 -0.5764
  291MOL0     C39207   5.186   7.799   5.674  0.1514  0.4335 -0.0581
  291MOL0     O39208   5.064   7.792   5.615 -0.5573  0.6898  0.2627
  291MOL0     C39209   4.950   7.733   5.678 -0.7499  0.3615 -0.2267
  291MOL0     C39210   4.889   7.838   5.774 -0.2236  0.5338 -0.2275
  291MOL0     C39211   4.864   7.963   5.692  0.0650 -0.0427  0.1651
  291MOL0     C39212   4.809   8.068   5.790  0.2915 -0.2073 -0.7537
  291MOL0     C39213   4.926   8.122   5.858  0.5363 -0.2036  0.1960
  291MOL0     C39214   5.023   8.146   5.922 -0.1081  0.1441 -0.0914
  291MOL0     C39215   5.261   7.915   5.699 -0.4883 -0.2297 -0.2377
  291MOL0     C39216   5.391   7.912   5.749 -0.4397  0.5696 -0.6028
  291MOL0     C39217   5.458   8.043   5.755 -0.1182  0.0174 -0.5766
  291MOL0     H39218   5.723   7.717   6.165  0.4568 -2.0372  2.2918
  291MOL0     H39219   5.941   7.715   6.227 -1.2904  0.1281  0.6706
  291MOL0     H39220   6.259   7.728   5.941 -1.2089  1.3649  1.8719
  291MOL0     H39221   6.362   7.688   6.081  0.4729  0.7358  0.9593
  291MOL0     H39222   6.243   7.453   5.922  1.1611 -0.9388 -0.1675
  291MOL0     H39223   6.356   7.466   6.052  0.5448  0.2505  0.1656
  291MOL0     H39224   6.506   7.615   5.894  1.1554  1.5144 -1.7214
  291MOL0     H39225   6.386   7.591   5.772 -0.2821  0.1822  0.9579
  291MOL0     H39226   6.494   7.347   5.911 -1.3247 -1.0758 -0.0792
  291MOL0     H39227   6.422   7.350   5.752  2.6369 -3.8716  0.2776
  291MOL0     H39228   6.642   7.467   5.677 -1.4252  1.8466  0.1700
  291MOL0     H39229   6.689   7.488   5.847 -1.3132  0.2272  0.8309
  291MOL0     H39230   6.800   7.302   5.714 -1.1692  1.7337 -3.4935
  291MOL0     H39231   6.698   7.237   5.862 -2.5418  1.4760  0.0092
  291MOL0     H39232   6.553   7.137   5.710 -0.1459  0.5527 -1.5699
  291MOL0     H39233   6.716   7.086   5.671  1.9365  2.1424  2.2657
  291MOL0     H39234   6.544   7.299   5.521 -1.5931 -1.8924  2.6491
  291MOL0     H39235   6.711   7.281   5.491  2.0676 -1.8700  1.1608
  291MOL0     H39236   6.488   7.003   5.569  1.8684  1.2539  0.1453
  291MOL0     H39237   6.461   6.751   5.462 -0.3036 -2.3769 -0.6272
  291MOL0     H39238   6.519   6.726   5.296 -3.3221  2.1945  0.5406
  291MOL0     H39239   6.749   6.733   5.393 -0.3445 -0.0985 -0.5247
  291MOL0     H39240   6.672   6.761   5.552 -2.5671 -0.7758  1.2317
  291MOL0     H39241   6.644   6.514   5.375 -2.3985  1.7892  0.4194
  291MOL0     H39242   6.584   6.539   5.536  0.5568 -2.1262  0.4892
  291MOL0     H39243   6.875   6.563   5.464  0.7018  0.9312  1.4646
  291MOL0     H39244   6.818   6.402   5.507  0.2553  0.2556  0.1151
  291MOL0     H39245   6.885   6.292   5.749 -0.4413  0.3681 -0.8562
  291MOL0     H39246   7.117   6.204   5.799  0.3082  0.0916  1.1979
  291MOL0     H39247   7.470   6.360   6.062 -0.3218 -0.6451 -1.1001
  291MOL0     H39248   7.669   6.287   6.159  2.6048 -0.3711  0.1141
  291MOL0     H39249   8.024   6.294   5.909 -1.1020  0.9901 -0.3645
  291MOL0     H39250   8.058   6.443   6.011 -0.3536  0.1660 -0.6015
  291MOL0     H39251   8.067   6.267   6.199 -4.5698 -1.4391 -1.6571
  291MOL0     H39252   8.124   6.158   6.068 -1.5880 -0.1265  1.1897
  291MOL0     H39253   8.261   6.424   6.126 -0.3074 -0.3661 -0.9180
  291MOL0     H39254   8.324   6.264   6.178  1.3011 -0.2610 -0.6885
  291MOL0     H39255   8.248   6.278   5.880 -2.0776  0.4195  1.7381
  291MOL0     H39256   8.391   6.207   5.951  1.8553  0.3492 -0.2217
  291MOL0     H39257   8.323   6.497   5.919 -1.6149 -2.0860 -0.4818
  291MOL0     H39258   8.459   6.417   5.834 -1.0912 -2.2436 -0.9194
  291MOL0     H39259   8.562   6.543   5.984  3.0257 -2.7476 -0.1334
  291MOL0     H39260   8.465   6.514   6.121 -0.2565 -1.2085  1.7012
  291MOL0     H39261   8.625   6.291   5.975 -0.5556 -2.6469  0.8057
  291MOL0     H39262   8.553   6.273   6.126  1.3310 -0.0252  0.2531
  291MOL0     H39263   8.692   6.443   6.235  1.8696 -1.6651  1.3961
  291MOL0     H39264   8.796   6.322   6.150 -0.8881 -0.3702  1.7597
  291MOL0     H39265   7.885   6.482   5.835 -1.6781  1.7007 -0.8465
  291MOL0     H39266   7.675   6.514   5.724 -1.9532  1.9193  1.3981
  291MOL0     H39267   7.259   6.607   5.707 -0.4322 -0.4497  0.2059
  291MOL0     H39268   7.045   6.671   5.641  1.4850 -0.4317 -2.4603
  291MOL0     H39269   6.090   7.608   5.842 -0.0734 -0.7791  0.1995
  291MOL0     H39270   5.841   7.604   5.765  2.6335  1.8644 -0.6134
  291MOL0     H39271   5.411   7.596   5.842  0.6769  0.8752  1.0222
  291MOL0     H39272   5.193   7.592   5.718  2.3051 -0.8907  2.6703
  291MOL0     H39273   4.973   7.645   5.738 -0.1335 -0.4822 -1.6674
  291MOL0     H39274   4.875   7.713   5.601 -0.1193 -1.2925 -0.4328
  291MOL0     H39275   4.949   7.848   5.865 -0.8613  0.0482  0.2559
  291MOL0     H39276   4.792   7.797   5.803 -0.6412  1.6981  0.0930
  291MOL0     H39277   4.781   7.923   5.633  0.2707 -1.1683  0.6155
  291MOL0     H39278   4.940   8.007   5.626 -0.5289  1.1370  0.2390
  291MOL0     H39279   4.757   8.149   5.738 -4.1944 -1.9339  0.5214
  291MOL0     H39280   4.735   8.024   5.858  1.1910 -0.1627  0.2789
  291MOL0     H39281   5.106   8.166   5.988  1.7010 -4.1988 -0.7174
  291MOL0     H39282   5.217   8.010   5.672  0.2693 -0.2274 -1.5208
  291MOL0     H39283   5.489   8.058   5.859  0.7765  0.3493 -0.8762
  291MOL0     H39284   5.536   8.044   5.677 -1.2385  1.5984 -1.7490
  291MOL0     H39285   5.396   8.128   5.724  2.0562  1.8302 -0.2628
  292MOL0     O39286   6.796   2.388   8.149 -0.2392  0.0073  0.6158
  292MOL0     C39287   6.717   2.298   8.174 -0.3866  0.3807 -0.2045
  292MOL0     O39288   6.712   2.178   8.110  0.4516  0.3822  0.9882
  292MOL0     C39289   6.819   2.129   8.040 -0.1564  0.2673  0.1421
  292MOL0     C39290   6.948   2.141   8.091 -0.1424 -0.4686 -0.8030
  292MOL0     C39291   7.056   2.085   8.021 -0.3408  0.7652  1.2165
  292MOL0     C39292   7.039   2.008   7.904 -0.1743 -0.4099 -0.1447
  292MOL0     O39293   7.147   1.943   7.852  0.4457 -0.2511 -0.1364
  292MOL0     C39294   7.115   1.840   7.750  0.0772 -0.0434 -0.2835
  292MOL0     C39295   7.253   1.803   7.698  0.2911 -0.5266 -0.3282
  292MOL0     C39296   7.258   1.680   7.609  0.5386 -0.1592 -0.2747
  292MOL0     C39297   7.392   1.648   7.566  0.2565  0.6129  0.3832
  292MOL0     C39298   7.382   1.533   7.464 -0.0960  0.3557  0.2759
  292MOL0     C39299   7.518   1.471   7.438 -0.2699 -0.8263 -0.9073
  292MOL0     C39300   7.566   1.379   7.551  0.3099  0.0669 -0.5852
  292MOL0     C39301   7.671   1.279   7.501  0.7849  0.4993 -0.1317
  292MOL0     N39302   7.793   1.353   7.462  0.3596 -1.1721  0.6492
  292MOL0     C39303   7.895   1.386   7.548 -0.2996 -0.2780 -0.2218
  292MOL0     C39304   7.963   1.478   7.481  0.2105 -0.0565 -0.4955
  292MOL0     C39305   8.052   1.571   7.559  0.4779 -0.1025  0.2756
  292MOL0     C39306   8.184   1.508   7.598  0.2696  0.1895 -0.2617
  292MOL0     C39307   8.286   1.607   7.650 -0.1221  0.0448 -0.0608
  292MOL0     C39308   8.354   1.697   7.543 -0.1603  0.3697  0.2457
  292MOL0     O39309   8.454   1.784   7.603  0.5075  0.6124 -0.1629
  292MOL0     C39310   8.515   1.880   7.517  0.5036 -0.8251 -0.5344
  292MOL0     C39311   8.584   1.989   7.574 -0.7312  0.4347 -0.5415
  292MOL0     C39312   8.659   2.078   7.500 -0.5109  0.1040  0.3780
  292MOL0     C39313   8.668   2.059   7.361 -0.2653 -0.1076  0.8646
  292MOL0     C39314   8.774   2.141   7.283  1.1486 -0.2622  0.4235
  292MOL0     O39315   8.778   2.277   7.307  0.2277 -0.0410  0.5564
  292MOL0     C39316   8.891   2.344   7.294 -0.1368 -0.5466  0.6358
  292MOL0     C39317   9.019   2.286   7.274  0.4646  0.2845 -0.6611
  292MOL0     C39318   9.135   2.363   7.245 -0.6545  0.3538  0.2214
  292MOL0     C39319   9.120   2.505   7.239  1.1392 -0.4507 -0.5842
  292MOL0     O39320   9.227   2.571   7.195 -0.2074 -0.6179  0.0775
  292MOL0     C39321   9.244   2.709   7.247 -0.1284 -0.2523  0.2782
  292MOL0     C39322   9.388   2.737   7.195 -0.4970  0.3571 -0.3867
  292MOL0     C39323   9.446   2.857   7.266  0.1397 -0.3272 -0.3074
  292MOL0     C39324   9.584   2.903   7.210  0.3236  0.7694 -0.1132
  292MOL0     C39325   9.644   3.023   7.280  0.5724  0.7862  0.0009
  292MOL0     C39326   9.764   3.070   7.196  0.6555  0.1566  0.1265
  292MOL0     C39327   9.856   3.165   7.271  0.4720 -0.6345 -0.0739
  292MOL0     C39328   9.986   3.197   7.202  0.5078 -0.1954 -0.1087
  292MOL0    Cl39329  10.102   3.067   7.219 -0.1266  0.5889  0.2138
  292MOL0     C39330   8.990   2.564   7.271  0.7052 -0.4068 -0.8366
  292MOL0     C39331   8.875   2.481   7.300 -0.2292 -0.6241 -0.0123
  292MOL0     O39332   8.829   2.082   7.189  0.0326  0.0425 -0.4472
  292MOL0     C39333   8.598   1.951   7.301  0.1825 -0.7346 -0.3935
  292MOL0     C39334   8.525   1.864   7.379  0.6716  0.1221 -0.1322
  292MOL0     N39335   7.915   1.488   7.350  0.1803  0.5476 -0.1894
  292MOL0     N39336   7.811   1.408   7.338 -0.1345  0.0269  0.2129
  292MOL0     C39337   6.905   1.988   7.864 -1.1862 -0.4918  0.3178
  292MOL0     C39338   6.801   2.046   7.930  0.3241  0.4199 -0.4244
  292MOL0     C39339   6.616   2.317   8.277 -0.0401 -0.6042 -0.0250
  292MOL0     C39340   6.489   2.249   8.261  0.0523  0.7230  0.1612
  292MOL0     C39341   6.377   2.268   8.348 -0.1427  0.4289 -0.3108
  292MOL0     C39342   6.390   2.353   8.459  0.3343 -0.8544  0.6430
  292MOL0     O39343   6.293   2.380   8.549  0.3402 -0.1831  0.1029
  292MOL0     C39344   6.319   2.323   8.671  0.4141  0.8043 -0.4954
  292MOL0     C39345   6.184   2.321   8.747  0.8031  0.2925 -0.2165
  292MOL0     C39346   6.088   2.203   8.708 -0.0985  0.5114 -0.5635
  292MOL0     C39347   6.019   2.224   8.578  0.1417 -1.9030  0.4684
  292MOL0     C39348   5.930   2.110   8.554 -0.0852 -0.2244 -0.3497
  292MOL0     C39349   5.855   2.021   8.524 -0.0256 -0.2126 -0.1955
  292MOL0     C39350   6.516   2.417   8.475 -0.8804 -0.7184 -0.4727
  292MOL0     C39351   6.625   2.403   8.386  0.3874  0.0933  0.4845
  292MOL0     C39352   6.743   2.494   8.404 -0.4259  0.3128 -0.5217
  292MOL0     H39353   6.944   2.200   8.182 -2.6619 -0.0044 -1.1449
  292MOL0     H39354   7.155   2.088   8.064  0.7306  1.6532 -1.1572
  292MOL0     H39355   7.062   1.758   7.800  2.4277  0.0543  2.6155
  292MOL0     H39356   7.059   1.878   7.663 -1.4356  2.3764  1.6164
  292MOL0     H39357   7.323   1.787   7.781  0.1727 -0.5037 -0.2244
  292MOL0     H39358   7.292   1.885   7.638 -2.4200  0.2900 -1.0974
  292MOL0     H39359   7.185   1.684   7.528 -1.1799 -1.8086  1.0830
  292MOL0     H39360   7.215   1.604   7.676 -0.1570  2.3077  2.2757
  292MOL0     H39361   7.444   1.732   7.519 -0.8814  1.4700  0.6290
  292MOL0     H39362   7.455   1.614   7.649  1.1355  2.7017  0.6416
  292MOL0     H39363   7.305   1.466   7.504 -1.1580  1.1513 -0.3582
  292MOL0     H39364   7.345   1.578   7.371 -1.0057  0.4339  0.6602
  292MOL0     H39365   7.510   1.405   7.351 -0.9478 -1.3293 -0.4628
  292MOL0     H39366   7.591   1.549   7.412  1.5638 -1.5008  1.7874
  292MOL0     H39367   7.485   1.316   7.590  2.0978 -1.5238  0.7549
  292MOL0     H39368   7.606   1.442   7.631 -0.4852 -0.8594  0.5836
  292MOL0     H39369   7.701   1.210   7.580  1.9838  0.4344 -0.6113
  292MOL0     H39370   7.634   1.227   7.412 -1.0180  0.0618  0.8353
  292MOL0     H39371   7.893   1.354   7.651  3.4206 -0.9520 -0.2298
  292MOL0     H39372   8.061   1.662   7.500  2.0595  0.3863  1.2257
  292MOL0     H39373   8.001   1.604   7.650 -1.8063  3.1024 -1.9466
  292MOL0     H39374   8.152   1.442   7.679 -3.3216  2.7587  0.6912
  292MOL0     H39375   8.237   1.456   7.518  0.2527  1.4154 -1.0985
  292MOL0     H39376   8.364   1.559   7.709 -0.2746 -0.1688 -0.0325
  292MOL0     H39377   8.233   1.671   7.722 -1.4168  1.4187 -2.1134
  292MOL0     H39378   8.281   1.752   7.483  0.3360 -1.3906 -2.1023
  292MOL0     H39379   8.403   1.623   7.479 -3.7761 -1.2901 -0.8643
  292MOL0     H39380   8.582   2.010   7.681 -2.0822 -1.2449 -0.1895
  292MOL0     H39381   8.719   2.149   7.557  0.4918 -0.9072  0.6127
  292MOL0     H39382   9.031   2.178   7.274 -0.9098  0.1064 -1.1524
  292MOL0     H39383   9.233   2.324   7.219  0.3073  2.9617 -0.3609
  292MOL0     H39384   9.177   2.782   7.200  0.8943  0.8519  0.4688
  292MOL0     H39385   9.234   2.734   7.353 -3.4583  0.5859 -0.1323
  292MOL0     H39386   9.457   2.654   7.210  2.3635  2.8721  1.4110
  292MOL0     H39387   9.379   2.772   7.092 -1.1829  1.1536 -0.0705
  292MOL0     H39388   9.381   2.946   7.262  0.7201  0.0834 -0.7635
  292MOL0     H39389   9.442   2.830   7.372 -1.5097 -0.3343 -0.3473
  292MOL0     H39390   9.563   2.919   7.104 -2.9730 -2.1477 -0.0845
  292MOL0     H39391   9.656   2.820   7.211 -0.2583  0.2391 -0.7384
  292MOL0     H39392   9.669   2.986   7.381 -0.7141  3.8858  1.5869
  292MOL0     H39393   9.572   3.106   7.283 -1.2679 -0.7450  0.7245
  292MOL0     H39394   9.826   2.996   7.145  0.5872 -0.2756  0.6594
  292MOL0     H39395   9.723   3.132   7.116 -0.7867  0.1383  0.8108
  292MOL0     H39396   9.867   3.117   7.369  1.2063  1.9956  1.2039
  292MOL0     H39397   9.809   3.262   7.288  1.2214 -0.3466  0.3861
  292MOL0     H39398   9.964   3.221   7.098  1.5083  1.6847  0.0624
  292MOL0     H39399  10.026   3.295   7.232  2.3825  0.1726 -3.3681
  292MOL0     H39400   8.984   2.673   7.269  1.8963 -0.2159  1.9630
  292MOL0     H39401   8.774   2.519   7.315 -1.6276 -2.8240 -2.8968
  292MOL0     H39402   8.607   1.924   7.196 -0.7197 -2.0252 -0.1677
  292MOL0     H39403   8.484   1.780   7.322  2.7532 -0.5959 -0.6657
  292MOL0     H39404   6.877   1.926   7.780 -3.0963  2.1211 -1.1148
  292MOL0     H39405   6.702   2.014   7.898 -0.1292  2.0643 -0.7660
  292MOL0     H39406   6.478   2.179   8.179  0.6178 -1.1059  1.5860
  292MOL0     H39407   6.298   2.193   8.341  0.5132 -0.1616 -1.6882
  292MOL0     H39408   6.393   2.382   8.725  0.1404  2.7197 -2.0939
  292MOL0     H39409   6.366   2.225   8.661 -2.2794 -0.6054 -0.3510
  292MOL0     H39410   6.137   2.420   8.754 -0.0124 -0.0053 -1.2213
  292MOL0     H39411   6.205   2.298   8.852 -1.9260  0.8513  0.5386
  292MOL0     H39412   6.021   2.176   8.790  0.6694  1.1247  0.2964
  292MOL0     H39413   6.148   2.113   8.691 -1.1582 -0.0580 -1.4408
  292MOL0     H39414   5.961   2.316   8.574  1.2687 -1.2109 -0.3755
  292MOL0     H39415   6.090   2.227   8.495  1.2766  2.5089  1.3866
  292MOL0     H39416   5.791   1.940   8.496 -3.7706  1.8707  1.5909
  292MOL0     H39417   6.536   2.483   8.559 -2.2763 -1.9903  0.9342
  292MOL0     H39418   6.738   2.575   8.330 -3.3436 -0.6067 -1.4663
  292MOL0     H39419   6.747   2.533   8.506  0.2660  2.2024 -1.2232
  292MOL0     H39420   6.833   2.433   8.398  1.4278  2.3217  3.2105
  293MOL0     O39421  10.216   5.959   5.273 -1.2391  0.2703 -0.0331
  293MOL0     C39422  10.257   6.051   5.197 -0.6015  0.1649 -0.1829
  293MOL0     O39423  10.388   6.092   5.183 -0.4404 -0.1421  0.1763
  293MOL0     C39424  10.484   6.047   5.267 -0.3664  0.1234 -0.9548
  293MOL0     C39425  10.473   6.026   5.408 -0.0537 -0.2715 -1.0746
  293MOL0     C39426  10.567   5.964   5.488 -0.3936  0.6461 -0.5288
  293MOL0     C39427  10.687   5.929   5.425 -0.4041  0.3194 -0.0111
  293MOL0     O39428  10.773   5.853   5.499  0.4775  0.3129  0.7631
  293MOL0     C39429  10.915   5.876   5.477 -0.2316 -0.3138  0.0328
  293MOL0     C39430  10.987   5.852   5.600  0.0201 -0.0925 -0.2550
  293MOL0     C39431  11.137   5.864   5.590  0.3297 -0.0463 -0.2143
  293MOL0     C39432  11.190   5.872   5.727  0.4240 -0.4718  0.0680
  293MOL0     C39433  11.346   5.878   5.725  0.3748  0.3108  0.6815
  293MOL0     C39434  11.393   5.871   5.870  0.1035 -0.4166 -0.2699
  293MOL0     C39435  11.534   5.840   5.880  0.5598 -0.8351  0.5525
  293MOL0     C39436  11.585   5.855   6.023 -1.1538  0.8079 -0.1481
  293MOL0     N39437  11.710   5.778   6.018  0.2265 -0.4504 -0.2735
  293MOL0     C39438  11.730   5.647   6.056  0.6679 -0.4492 -0.7205
  293MOL0     C39439  11.864   5.623   6.074  0.4759 -0.4949  0.3592
  293MOL0     C39440  11.933   5.496   6.099  0.0226 -0.8873  0.0022
  293MOL0     C39441  12.086   5.490   6.083  0.5690  0.0379 -0.0233
  293MOL0     C39442  12.151   5.414   6.197 -0.0231  0.3349 -0.0650
  293MOL0     C39443  12.296   5.431   6.210 -0.1922  0.2061  0.0968
  293MOL0     O39444  12.338   5.358   6.323  0.1066 -0.2009  0.4738
  293MOL0     C39445  12.461   5.398   6.361  0.0468  1.0085  0.5410
  293MOL0     C39446  12.502   5.364   6.491  0.8378  0.2596 -0.5916
  293MOL0     C39447  12.631   5.392   6.545  0.0778 -1.0261  0.8985
  293MOL0     C39448  12.728   5.452   6.462 -0.1827 -0.1721 -0.1835
  293MOL0     C39449  12.867   5.494   6.505 -0.0284  0.4741  0.0336
  293MOL0     O39450  12.925   5.604   6.451  0.4151  0.8241  0.2066
  293MOL0     C39451  13.034   5.649   6.525 -0.4060 -0.6222  0.6225
  293MOL0     C39452  13.154   5.668   6.461 -0.3777 -0.2152  0.4839
  293MOL0     C39453  13.270   5.725   6.522  0.2497 -0.0197 -0.0793
  293MOL0     C39454  13.261   5.764   6.657  0.3683 -0.2569  0.1947
  293MOL0     O39455  13.364   5.841   6.715 -0.7533 -0.2946  0.2431
  293MOL0     C39456  13.491   5.772   6.701  0.2197  0.2449 -0.9375
  293MOL0     C39457  13.595   5.844   6.794 -0.5914 -0.3912  0.9570
  293MOL0     C39458  13.589   5.999   6.761  0.5764 -0.2900 -0.3109
  293MOL0     C39459  13.685   6.080   6.851  0.0950  1.0596  0.1173
  293MOL0     C39460  13.650   6.092   7.001  0.6929 -0.0172 -0.2345
  293MOL0     C39461  13.529   6.185   7.036  0.2225 -0.0327 -0.0392
  293MOL0     C39462  13.478   6.148   7.176  0.1446  0.2174 -0.1642
  293MOL0     C39463  13.345   6.205   7.214 -0.9089 -0.7292  0.2760
  293MOL0    Cl39464  13.307   6.132   7.380 -0.3589 -0.1827 -0.1925
  293MOL0     C39465  13.133   5.759   6.722 -0.3865  0.4393 -0.1915
  293MOL0     C39466  13.024   5.694   6.658 -0.0964  0.3606 -0.6877
  293MOL0     O39467  12.911   5.425   6.597  0.1197 -0.0241 -0.3675
  293MOL0     C39468  12.690   5.477   6.331  1.0242 -0.0670 -1.3976
  293MOL0     C39469  12.564   5.447   6.278  0.1680 -0.2956  0.7549
  293MOL0     N39470  11.920   5.745   6.047 -0.1028  0.1867 -0.1841
  293MOL0     N39471  11.830   5.829   6.017 -0.2977 -0.7543 -0.0704
  293MOL0     C39472  10.707   5.947   5.290 -0.3494  0.1793 -0.0487
  293MOL0     C39473  10.606   6.007   5.216  0.4880 -0.0932  0.3100
  293MOL0     C39474  10.143   6.121   5.120  0.1417  0.3662  0.2489
  293MOL0     C39475  10.007   6.081   5.146  0.5784 -0.3515  0.3780
  293MOL0     C39476   9.902   6.156   5.088  0.1582 -0.7323 -0.6904
  293MOL0     C39477   9.920   6.267   5.004 -0.1518  0.0459 -0.0507
  293MOL0     O39478   9.815   6.337   4.951 -0.6661 -0.3772 -0.1141
  293MOL0     C39479   9.683   6.277   4.946 -0.2748  0.0413 -0.0162
  293MOL0     C39480   9.596   6.346   4.855  0.7470 -0.4170  0.2191
  293MOL0     C39481   9.452   6.310   4.874  0.3549  0.7920 -0.2366
  293MOL0     C39482   9.354   6.372   4.772  0.4873  0.0162 -0.0513
  293MOL0     C39483   9.234   6.292   4.773 -0.4755  0.2106  0.3133
  293MOL0     C39484   9.127   6.242   4.776 -0.2870  1.0604 -0.0740
  293MOL0     C39485  10.050   6.294   4.967 -0.2099 -0.5431  0.2692
  293MOL0     C39486  10.160   6.208   5.011  0.1342  0.5991  0.5475
  293MOL0     C39487  10.285   6.236   4.950 -0.1118  0.1086  0.4059
  293MOL0     H39488  10.384   6.071   5.451 -0.2409  0.6099 -2.3368
  293MOL0     H39489  10.538   5.947   5.591 -0.6914  0.9557 -0.5589
  293MOL0     H39490  10.946   5.815   5.392 -0.5357 -0.5774  0.1077
  293MOL0     H39491  10.936   5.977   5.442  1.0416 -1.0001 -1.3156
  293MOL0     H39492  10.967   5.750   5.633  3.3101 -0.9404 -0.5817
  293MOL0     H39493  10.946   5.920   5.675  1.4388 -0.2431  0.6828
  293MOL0     H39494  11.157   5.949   5.524 -0.7954 -0.1311 -0.6814
  293MOL0     H39495  11.172   5.773   5.542  2.7875  0.0192  1.2961
  293MOL0     H39496  11.149   5.960   5.776  0.7813 -0.1090 -0.2816
  293MOL0     H39497  11.150   5.791   5.789  1.5252  0.4409  2.0776
  293MOL0     H39498  11.382   5.796   5.662 -0.0236 -0.6935  1.7187
  293MOL0     H39499  11.382   5.972   5.683  2.7973  0.6059  3.1133
  293MOL0     H39500  11.370   5.965   5.921 -2.6953 -2.1657  1.9527
  293MOL0     H39501  11.330   5.801   5.926  0.6890 -1.7654 -1.2441
  293MOL0     H39502  11.579   5.917   5.817 -0.8054 -2.1763 -2.2153
  293MOL0     H39503  11.553   5.735   5.854 -0.9601 -1.3853  1.5255
  293MOL0     H39504  11.600   5.961   6.046 -0.5385  0.7302 -0.1755
  293MOL0     H39505  11.517   5.810   6.096 -0.8252  1.7103  0.7450
  293MOL0     H39506  11.654   5.570   6.055 -1.9160  1.8467  1.6612
  293MOL0     H39507  11.902   5.479   6.202  0.4428  0.3518  0.3537
  293MOL0     H39508  11.889   5.421   6.032  2.8394 -0.7776 -2.1914
  293MOL0     H39509  12.103   5.444   5.985 -3.3173 -0.5516 -0.5808
  293MOL0     H39510  12.120   5.594   6.082 -2.5666  1.1634 -1.5307
  293MOL0     H39511  12.135   5.307   6.181  3.6704 -0.5994  1.6612
  293MOL0     H39512  12.109   5.445   6.293 -0.1098 -0.8799  0.3072
  293MOL0     H39513  12.328   5.535   6.221 -0.0349 -0.0834  3.3239
  293MOL0     H39514  12.345   5.393   6.120  2.0832 -0.9279  1.7105
  293MOL0     H39515  12.429   5.315   6.556  0.5807  0.4978 -0.6978
  293MOL0     H39516  12.666   5.368   6.645  1.1936  1.5019  1.2019
  293MOL0     H39517  13.161   5.620   6.364  1.5837 -2.1223  1.4836
  293MOL0     H39518  13.364   5.724   6.467  1.7404 -0.9093  2.3407
  293MOL0     H39519  13.477   5.669   6.735 -0.3049  1.1774  1.9623
  293MOL0     H39520  13.533   5.768   6.600  1.6578 -0.9670 -0.3240
  293MOL0     H39521  13.581   5.827   6.901 -2.4636 -1.2519  0.6252
  293MOL0     H39522  13.691   5.800   6.766 -0.6477  0.5610 -0.8877
  293MOL0     H39523  13.623   6.017   6.659  0.5496  1.3055 -0.0748
  293MOL0     H39524  13.491   6.044   6.781  2.4497  3.1371  2.2412
  293MOL0     H39525  13.688   6.182   6.810 -0.3508  0.1149 -2.4181
  293MOL0     H39526  13.788   6.045   6.842  1.4324  3.8333  2.8212
  293MOL0     H39527  13.734   6.141   7.050  3.1528 -1.2139 -3.0078
  293MOL0     H39528  13.623   5.995   7.044 -0.5043  1.4847  2.7763
  293MOL0     H39529  13.565   6.288   7.039  1.4478 -0.4634  1.3193
  293MOL0     H39530  13.441   6.190   6.971  0.8839 -1.8800 -1.1594
  293MOL0     H39531  13.552   6.163   7.255 -0.2076  1.7287 -0.0959
  293MOL0     H39532  13.463   6.040   7.174  1.7075 -0.0206 -0.3769
  293MOL0     H39533  13.352   6.314   7.221  0.5296 -0.6187 -2.0109
  293MOL0     H39534  13.277   6.181   7.132  0.0395 -2.1220 -0.1339
  293MOL0     H39535  13.107   5.802   6.818  0.0306 -0.1578  0.2007
  293MOL0     H39536  12.926   5.702   6.704  1.0394  2.3230  1.6116
  293MOL0     H39537  12.765   5.511   6.259  0.1140 -0.1646 -2.4225
  293MOL0     H39538  12.552   5.462   6.171  0.8452 -0.2676  0.6793
  293MOL0     H39539  10.799   5.913   5.243  0.2151  0.4160  0.8612
  293MOL0     H39540  10.616   6.013   5.108  2.4780 -2.4567  0.2721
  293MOL0     H39541   9.972   6.000   5.209  0.6147  2.2606  4.1325
  293MOL0     H39542   9.799   6.131   5.112  0.2948 -0.1823  0.5250
  293MOL0     H39543   9.634   6.282   5.043 -3.8609  0.0509 -1.6898
  293MOL0     H39544   9.685   6.171   4.919 -1.0307  0.1544 -0.5361
  293MOL0     H39545   9.629   6.338   4.751  0.3647 -0.5918  0.1083
  293MOL0     H39546   9.612   6.449   4.887  3.2997 -1.1474  1.5945
  293MOL0     H39547   9.426   6.345   4.975  0.6370  1.3013 -0.3412
  293MOL0     H39548   9.451   6.201   4.865  1.9302  0.6032  1.3417
  293MOL0     H39549   9.334   6.474   4.806 -1.4947 -0.1730 -0.5577
  293MOL0     H39550   9.398   6.376   4.672  2.2148  2.6225  0.6956
  293MOL0     H39551   9.029   6.199   4.776  0.5452 -0.9599 -0.5992
  293MOL0     H39552  10.069   6.366   4.888  1.9164 -0.9110  0.3908
  293MOL0     H39553  10.332   6.143   4.917 -0.1151 -0.0811  0.9221
  293MOL0     H39554  10.259   6.294   4.861 -0.5180 -2.5092 -1.3009
  293MOL0     H39555  10.357   6.296   5.007  0.1935 -0.8476  1.0525
  294MOL0     O39556   5.082   2.985   6.411  0.4965  0.2984  0.7806
  294MOL0     C39557   5.179   2.943   6.351  0.8170 -0.0244  0.5337
  294MOL0     O39558   5.292   3.015   6.315 -0.1736 -0.3309 -0.2706
  294MOL0     C39559   5.325   3.123   6.395 -0.1728 -0.9448  0.4628
  294MOL0     C39560   5.247   3.232   6.396  0.0314 -0.0964  0.2557
  294MOL0     C39561   5.273   3.338   6.480  0.0115  0.2352 -0.2791
  294MOL0     C39562   5.390   3.329   6.566  0.4098  0.2702 -0.4196
  294MOL0     O39563   5.443   3.420   6.653  0.3353 -0.4843  1.2836
  294MOL0     C39564   5.381   3.553   6.660 -0.2234  0.2543 -0.4476
  294MOL0     C39565   5.432   3.658   6.554  0.3987  0.5682 -0.7600
  294MOL0     C39566   5.584   3.632   6.519  0.4478  0.6903 -0.8176
  294MOL0     C39567   5.670   3.720   6.608  0.5825 -0.9075  0.4628
  294MOL0     C39568   5.816   3.715   6.573  0.7025  0.4648  0.4219
  294MOL0     C39569   5.909   3.780   6.676 -0.5073  0.0507  0.4028
  294MOL0     C39570   6.055   3.733   6.660  0.1973  1.1711  0.4310
  294MOL0     C39571   6.100   3.728   6.506  0.0923  0.4233  0.4522
  294MOL0     N39572   6.080   3.851   6.431 -0.1009  0.2338 -0.1237
  294MOL0     C39573   6.028   3.868   6.303 -0.8781 -0.0374 -0.5961
  294MOL0     C39574   6.055   3.999   6.272  0.0671 -0.5131  0.3386
  294MOL0     C39575   6.046   4.070   6.145 -0.6851 -0.3918  0.0448
  294MOL0     C39576   6.160   4.028   6.050 -0.2598 -0.7544 -0.4740
  294MOL0     C39577   6.302   4.026   6.116  0.5098  0.4067  0.4826
  294MOL0     C39578   6.344   4.162   6.176  0.7162  0.7490 -1.1036
  294MOL0     O39579   6.359   4.255   6.072 -0.0346  0.2337  0.1853
  294MOL0     C39580   6.474   4.268   6.015 -0.6944 -0.7769 -0.5559
  294MOL0     C39581   6.602   4.238   6.060 -0.1505 -0.3026 -0.1527
  294MOL0     C39582   6.718   4.268   5.987 -0.1118  0.2541  0.5374
  294MOL0     C39583   6.705   4.323   5.859  0.5625  0.6916  0.1655
  294MOL0     C39584   6.814   4.359   5.770  0.3171 -1.3626 -0.0496
  294MOL0     O39585   6.936   4.332   5.820 -0.6171  0.4513 -0.2992
  294MOL0     C39586   7.056   4.336   5.739  0.2184 -0.5263 -0.6922
  294MOL0     C39587   7.163   4.277   5.805  0.0199  0.6111  0.1354
  294MOL0     C39588   7.280   4.252   5.731 -0.1168 -0.4710  0.2713
  294MOL0     C39589   7.304   4.295   5.603 -0.2363 -0.4780 -0.2730
  294MOL0     O39590   7.428   4.252   5.547  0.6218 -0.1505  0.1445
  294MOL0     C39591   7.508   4.346   5.471 -0.3078 -1.1212 -0.4099
  294MOL0     C39592   7.632   4.275   5.420  0.2854  0.2657 -0.3688
  294MOL0     C39593   7.717   4.376   5.341  1.0462 -0.5475 -0.1835
  294MOL0     C39594   7.828   4.298   5.277  0.2595 -0.3372 -0.2838
  294MOL0     C39595   7.923   4.398   5.212  0.5046  0.5236 -0.8484
  294MOL0     C39596   8.054   4.334   5.143  0.7511  0.4168  0.1806
  294MOL0     C39597   8.138   4.447   5.081 -0.1615  0.0595 -0.0856
  294MOL0     C39598   8.280   4.413   5.066 -0.4191  0.3199 -0.5235
  294MOL0    Cl39599   8.350   4.549   4.975  0.4472  0.1899 -0.1219
  294MOL0     C39600   7.202   4.377   5.537 -0.6372 -0.2085 -0.3686
  294MOL0     C39601   7.078   4.388   5.606 -0.2427 -0.6632 -0.7305
  294MOL0     O39602   6.799   4.432   5.671 -0.8604 -0.1848 -0.1424
  294MOL0     C39603   6.575   4.359   5.811 -0.4310  0.5012 -0.3030
  294MOL0     C39604   6.460   4.323   5.890 -0.7237  0.0429 -0.3190
  294MOL0     N39605   6.091   4.065   6.389  0.2133  0.4432  0.0649
  294MOL0     N39606   6.114   3.974   6.482  1.1117  0.3659 -0.1312
  294MOL0     C39607   5.479   3.221   6.553  0.3272  0.6112 -1.0058
  294MOL0     C39608   5.449   3.114   6.466  0.5230 -0.2529  0.2206
  294MOL0     C39609   5.184   2.804   6.301 -0.6799 -0.4470 -0.8391
  294MOL0     C39610   5.262   2.786   6.187 -0.2512 -0.5451  0.3348
  294MOL0     C39611   5.265   2.664   6.126 -0.4607  0.2899 -1.2745
  294MOL0     C39612   5.194   2.558   6.182  1.3578  0.1651  0.3131
  294MOL0     O39613   5.174   2.430   6.121  0.8260 -0.3056  0.3694
  294MOL0     C39614   5.203   2.424   5.974  0.2137  0.6635  0.0877
  294MOL0     C39615   5.119   2.508   5.884  0.1931  0.7286 -0.0578
  294MOL0     C39616   4.964   2.492   5.909 -0.0717  0.7489  0.5797
  294MOL0     C39617   4.885   2.583   5.814  0.2171 -0.2112  0.0406
  294MOL0     C39618   4.738   2.596   5.837  0.2156 -0.0781 -0.3464
  294MOL0     C39619   4.623   2.624   5.845  0.5157  0.5569  0.4615
  294MOL0     C39620   5.121   2.571   6.297 -0.4871  0.9171  0.9051
  294MOL0     C39621   5.117   2.695   6.362  0.8389 -0.4523  0.0663
  294MOL0     C39622   5.033   2.712   6.493 -0.4282  0.4263 -0.0597
  294MOL0     H39623   5.158   3.237   6.333  0.6314  2.1614 -0.5220
  294MOL0     H39624   5.214   3.429   6.474  0.3955  0.6154  1.2521
  294MOL0     H39625   5.272   3.546   6.652 -0.1613 -2.1790  0.1652
  294MOL0     H39626   5.396   3.597   6.759  2.5119 -1.4791 -0.0135
  294MOL0     H39627   5.422   3.755   6.604 -0.0971  0.9108 -1.4978
  294MOL0     H39628   5.369   3.647   6.465 -2.5195  0.7230  1.1553
  294MOL0     H39629   5.601   3.669   6.418 -1.8079 -2.0413 -2.3184
  294MOL0     H39630   5.611   3.526   6.523  1.3763  0.9498  1.4992
  294MOL0     H39631   5.643   3.825   6.594 -1.6729 -1.7457 -2.6762
  294MOL0     H39632   5.645   3.699   6.712 -0.0335  2.4427  1.0924
  294MOL0     H39633   5.838   3.607   6.570  0.3874  0.4071  0.1540
  294MOL0     H39634   5.837   3.757   6.474  1.8815 -0.1340  0.3922
  294MOL0     H39635   5.894   3.888   6.666  1.0204  0.2458 -0.1042
  294MOL0     H39636   5.874   3.764   6.778  0.1763  0.0953  0.6506
  294MOL0     H39637   6.071   3.635   6.706  2.7337  0.0795 -2.4659
  294MOL0     H39638   6.130   3.787   6.719  0.3063  2.1419 -0.5674
  294MOL0     H39639   6.203   3.693   6.502 -0.7966 -2.5216  0.6000
  294MOL0     H39640   6.040   3.649   6.459 -1.1934  0.6185  1.7064
  294MOL0     H39641   5.993   3.795   6.230  1.6282  1.7809 -3.8683
  294MOL0     H39642   5.945   4.053   6.105 -2.2284  1.3033  2.8952
  294MOL0     H39643   6.059   4.178   6.153  2.1579 -0.4213 -2.4648
  294MOL0     H39644   6.142   3.926   6.018  1.5055 -0.6510 -1.9884
  294MOL0     H39645   6.176   4.106   5.974 -1.9481  0.8309  0.6972
  294MOL0     H39646   6.372   3.997   6.037  1.3654  1.5179  0.8022
  294MOL0     H39647   6.317   3.958   6.201  1.3124 -0.2387 -0.1543
  294MOL0     H39648   6.429   4.160   6.245 -0.8424  2.2173  0.9915
  294MOL0     H39649   6.271   4.186   6.254  0.2589 -3.0829 -0.1257
  294MOL0     H39650   6.623   4.199   6.159  0.9153  3.8916  1.5074
  294MOL0     H39651   6.818   4.253   6.028 -0.4102 -0.8347  0.8990
  294MOL0     H39652   7.164   4.236   5.906  0.7544 -0.8004 -0.4233
  294MOL0     H39653   7.355   4.195   5.784  0.2210 -0.3501 -0.0787
  294MOL0     H39654   7.455   4.393   5.387 -0.1145  1.4158  0.7687
  294MOL0     H39655   7.544   4.430   5.532 -1.1144 -0.5028 -0.7592
  294MOL0     H39656   7.692   4.235   5.502 -0.0425  1.5097  0.4902
  294MOL0     H39657   7.606   4.196   5.349  2.1254 -0.3590 -0.4167
  294MOL0     H39658   7.659   4.421   5.260  2.5888 -2.3450 -2.4004
  294MOL0     H39659   7.760   4.451   5.410 -0.8823  0.4656 -0.0172
  294MOL0     H39660   7.781   4.240   5.197 -0.5245 -1.6233  1.0404
  294MOL0     H39661   7.885   4.222   5.331 -1.3030 -1.2162  0.2062
  294MOL0     H39662   7.958   4.471   5.286 -3.8597 -0.4116  2.5618
  294MOL0     H39663   7.871   4.457   5.136  0.9399  0.1956 -1.4039
  294MOL0     H39664   8.116   4.273   5.208  1.3283  0.5889 -0.1980
  294MOL0     H39665   8.020   4.269   5.062  0.7151 -0.6363  1.0279
  294MOL0     H39666   8.136   4.545   5.130 -0.7481  0.5703 -1.0952
  294MOL0     H39667   8.098   4.477   4.984 -2.9508  3.5136  1.8738
  294MOL0     H39668   8.336   4.408   5.160  1.0682 -1.4879 -1.4264
  294MOL0     H39669   8.281   4.320   5.009  1.3751 -0.8832  1.3421
  294MOL0     H39670   7.219   4.403   5.433 -2.0344  0.2288 -0.5065
  294MOL0     H39671   6.999   4.448   5.562 -0.6790  1.9230  3.1175
  294MOL0     H39672   6.554   4.404   5.715 -0.6250 -4.0592 -2.6860
  294MOL0     H39673   6.356   4.334   5.859 -0.9012 -0.3748  0.1132
  294MOL0     H39674   5.578   3.223   6.597 -0.0729  0.1876 -0.0648
  294MOL0     H39675   5.507   3.023   6.458  0.1412 -0.4970  0.2604
  294MOL0     H39676   5.319   2.864   6.136  1.7763 -1.4294  1.1395
  294MOL0     H39677   5.323   2.651   6.035  1.3222  0.7576 -0.2459
  294MOL0     H39678   5.188   2.323   5.935  2.7332  1.2130 -2.6327
  294MOL0     H39679   5.309   2.448   5.961 -0.0005  0.0055 -4.0012
  294MOL0     H39680   5.148   2.491   5.780  0.6433 -2.1581  0.4621
  294MOL0     H39681   5.128   2.617   5.895  0.3830  0.7440 -0.3520
  294MOL0     H39682   4.938   2.508   6.014  1.6887  2.4243  0.8100
  294MOL0     H39683   4.929   2.391   5.887  0.4117  0.9596 -1.4069
  294MOL0     H39684   4.924   2.685   5.808  2.1659 -0.7077  2.8253
  294MOL0     H39685   4.892   2.537   5.715  1.2386  1.5634 -0.7540
  294MOL0     H39686   4.519   2.646   5.836  0.4980  0.7892  1.1527
  294MOL0     H39687   5.071   2.486   6.343  1.6228 -0.8998 -0.0096
  294MOL0     H39688   5.005   2.614   6.534  2.2684 -0.2611  0.3345
  294MOL0     H39689   5.084   2.769   6.571 -3.2978  2.1597  0.7072
  294MOL0     H39690   4.945   2.772   6.466  0.3346  1.1146 -1.0626
  295MOL0     O39691   1.618   2.947   8.322  0.1457 -0.4883 -0.2110
  295MOL0     C39692   1.552   2.913   8.228  0.1056  0.5628 -0.3352
  295MOL0     O39693   1.603   2.863   8.105  0.0185 -0.1801 -0.3679
  295MOL0     C39694   1.728   2.808   8.090  0.1162 -0.1569 -0.7897
  295MOL0     C39695   1.761   2.768   7.958  0.8004  0.8145  0.4113
  295MOL0     C39696   1.886   2.712   7.928 -0.4933  0.4897  0.2014
  295MOL0     C39697   1.977   2.689   8.033 -0.3686  0.2575  0.1863
  295MOL0     O39698   2.096   2.628   8.019  0.0193 -0.2425  0.4900
  295MOL0     C39699   2.185   2.677   7.916  0.4599  0.3957 -0.2223
  295MOL0     C39700   2.291   2.575   7.902  0.0639  0.3490 -0.4019
  295MOL0     C39701   2.356   2.578   7.765 -0.3303  0.4377  0.3624
  295MOL0     C39702   2.471   2.468   7.763 -0.1158  0.2365  0.1500
  295MOL0     C39703   2.516   2.442   7.617  0.2930 -0.2621  0.0318
  295MOL0     C39704   2.666   2.405   7.601 -0.8349  0.9976 -0.1174
  295MOL0     C39705   2.769   2.525   7.611  0.7414  0.1131 -0.0824
  295MOL0     C39706   2.777   2.612   7.483 -0.6876 -0.0147  0.3671
  295MOL0     N39707   2.827   2.540   7.359 -0.0996  0.2373 -0.1556
  295MOL0     C39708   2.960   2.508   7.331 -0.2219  0.1963  0.0218
  295MOL0     C39709   2.971   2.459   7.206 -0.0505 -0.2599  0.8124
  295MOL0     C39710   3.099   2.439   7.139  0.0255  0.7626  0.6894
  295MOL0     C39711   3.191   2.329   7.203 -0.4220  0.1954  0.6493
  295MOL0     C39712   3.325   2.290   7.137  0.7246 -0.2705 -0.7626
  295MOL0     C39713   3.428   2.381   7.198 -0.2767 -0.8194  0.4037
  295MOL0     O39714   3.426   2.511   7.139  0.8378  0.4002  0.5310
  295MOL0     C39715   3.515   2.609   7.171  0.0042 -0.1791 -0.1257
  295MOL0     C39716   3.507   2.718   7.086 -0.0373 -1.1267 -1.3675
  295MOL0     C39717   3.592   2.827   7.116 -0.5283 -0.3246 -0.1776
  295MOL0     C39718   3.700   2.827   7.211 -0.0138 -0.2132  0.4398
  295MOL0     C39719   3.793   2.941   7.222 -0.2300 -0.2538  0.2707
  295MOL0     O39720   3.883   2.941   7.328 -0.2007  0.7487 -0.2560
  295MOL0     C39721   3.993   3.029   7.320  0.5075  0.4044 -0.5231
  295MOL0     C39722   4.109   2.979   7.263 -0.3110  0.3227 -0.1322
  295MOL0     C39723   4.222   3.059   7.257 -0.3548 -0.4514  0.1491
  295MOL0     C39724   4.232   3.191   7.319  0.5570  0.3077 -1.0382
  295MOL0     O39725   4.343   3.271   7.313 -0.0803 -0.2618 -0.1665
  295MOL0     C39726   4.444   3.259   7.208  0.4551  0.2671 -0.1122
  295MOL0     C39727   4.542   3.377   7.200 -0.1404  0.1667  0.0909
  295MOL0     C39728   4.475   3.510   7.194 -0.7661  0.4727 -0.6148
  295MOL0     C39729   4.372   3.527   7.081  0.0486 -0.1461 -0.3878
  295MOL0     C39730   4.317   3.674   7.087  0.7339 -1.0513 -0.1486
  295MOL0     C39731   4.227   3.686   6.954  0.0363  0.8724  0.0514
  295MOL0     C39732   4.150   3.817   6.951 -0.1605 -0.0822 -0.1644
  295MOL0     C39733   4.026   3.809   6.869 -0.6974  0.4242 -0.0289
  295MOL0    Cl39734   3.901   3.702   6.952 -0.3545 -0.0131 -0.2476
  295MOL0     C39735   4.118   3.231   7.393  0.5774  0.0169  0.0787
  295MOL0     C39736   4.000   3.144   7.396  0.2635 -0.3940  0.0798
  295MOL0     O39737   3.801   3.021   7.126  0.0588  0.0885  0.7992
  295MOL0     C39738   3.698   2.710   7.297  0.4228  0.0595  0.5693
  295MOL0     C39739   3.612   2.601   7.275  0.0664 -0.2007 -0.3213
  295MOL0     N39740   2.845   2.461   7.152 -0.1928 -0.3804 -0.2067
  295MOL0     N39741   2.765   2.506   7.241 -0.4635  0.1461 -0.2262
  295MOL0     C39742   1.949   2.732   8.161  0.3476  0.1950  0.3597
  295MOL0     C39743   1.829   2.788   8.190 -0.2637 -0.8240  0.2128
  295MOL0     C39744   1.410   2.943   8.240  0.7770 -0.0737  0.7259
  295MOL0     C39745   1.322   2.867   8.152  0.6977  0.0093 -0.3056
  295MOL0     C39746   1.180   2.876   8.169  0.4556  0.3317  0.3500
  295MOL0     C39747   1.122   2.955   8.262  0.0487 -0.7020 -0.5204
  295MOL0     O39748   0.986   2.958   8.283 -0.0885  0.3141  0.0712
  295MOL0     C39749   0.910   2.848   8.207  0.3264 -0.5113  0.2076
  295MOL0     C39750   0.761   2.847   8.250 -0.5215  0.6100 -0.0614
  295MOL0     C39751   0.695   2.978   8.248 -0.4571 -0.1390  0.4224
  295MOL0     C39752   0.563   2.992   8.331 -0.1061 -1.4689  0.3684
  295MOL0     C39753   0.461   2.895   8.294 -1.3808  0.1293 -0.7182
  295MOL0     C39754   0.372   2.812   8.263  0.4945 -0.0070 -0.0666
  295MOL0     C39755   1.202   3.035   8.341 -0.0099  0.9961 -0.2272
  295MOL0     C39756   1.344   3.028   8.334  0.6063 -0.2951  0.6574
  295MOL0     C39757   1.411   3.119   8.424 -0.8474 -0.3909 -0.1754
  295MOL0     H39758   1.690   2.797   7.882  1.9841 -0.9891 -1.4624
  295MOL0     H39759   1.910   2.687   7.826  1.4428  1.7901  0.2848
  295MOL0     H39760   2.127   2.680   7.823 -1.5089 -0.6913  0.8995
  295MOL0     H39761   2.225   2.776   7.940 -1.6629  0.8660  1.6483
  295MOL0     H39762   2.238   2.479   7.905  0.8073 -0.1123 -1.4311
  295MOL0     H39763   2.367   2.581   7.980  0.1393 -1.1648 -0.3253
  295MOL0     H39764   2.404   2.677   7.756  0.1544  0.3098  1.3495
  295MOL0     H39765   2.282   2.558   7.687  0.4374 -1.7243  0.1261
  295MOL0     H39766   2.549   2.516   7.824 -1.8680  0.2611  2.5350
  295MOL0     H39767   2.458   2.372   7.815 -2.3442  1.3949  1.9189
  295MOL0     H39768   2.450   2.365   7.577  0.3295 -0.8625  1.0899
  295MOL0     H39769   2.502   2.542   7.573 -0.5874  0.4269  1.7619
  295MOL0     H39770   2.693   2.332   7.678  1.7919  1.4735 -0.4936
  295MOL0     H39771   2.675   2.349   7.507 -2.2258 -0.6177  0.6545
  295MOL0     H39772   2.864   2.475   7.628 -0.8010 -3.3600 -0.8330
  295MOL0     H39773   2.735   2.586   7.695 -0.9643  0.7843 -1.2058
  295MOL0     H39774   2.681   2.656   7.456  0.5881  2.2465 -0.7955
  295MOL0     H39775   2.843   2.699   7.482 -2.4513  1.3816  0.3168
  295MOL0     H39776   3.038   2.531   7.403  0.3523 -1.4349 -0.0152
  295MOL0     H39777   3.065   2.408   7.040 -0.1917 -0.4738  1.1376
  295MOL0     H39778   3.154   2.533   7.124 -2.1531  2.2513  1.5964
  295MOL0     H39779   3.209   2.363   7.306 -0.5143 -0.1976  0.7970
  295MOL0     H39780   3.140   2.232   7.204  1.6068 -0.9113  0.7618
  295MOL0     H39781   3.329   2.294   7.028  1.0592  2.7550 -0.7052
  295MOL0     H39782   3.324   2.186   7.173  0.5689  0.3351  1.0997
  295MOL0     H39783   3.531   2.346   7.183 -0.0715  0.4878 -1.6456
  295MOL0     H39784   3.416   2.385   7.306  2.3912 -2.8968  0.8739
  295MOL0     H39785   3.433   2.721   7.006 -0.3388  2.4443 -1.1126
  295MOL0     H39786   3.573   2.912   7.052  2.1291 -1.6171 -2.9810
  295MOL0     H39787   4.103   2.878   7.223 -1.9190  0.1066  0.5534
  295MOL0     H39788   4.307   3.028   7.197  0.3171 -0.1839  0.9327
  295MOL0     H39789   4.497   3.165   7.223  0.2124 -0.1001 -1.4215
  295MOL0     H39790   4.400   3.238   7.110  3.9640 -0.2835 -1.7173
  295MOL0     H39791   4.603   3.379   7.291 -0.6332 -0.5570  0.4504
  295MOL0     H39792   4.611   3.365   7.117  0.6612  0.1891  0.7372
  295MOL0     H39793   4.423   3.514   7.291  0.0750  0.9868 -0.1689
  295MOL0     H39794   4.557   3.581   7.185  0.1562  0.3354  4.1510
  295MOL0     H39795   4.282   3.469   7.103 -0.4709  1.3795  1.9590
  295MOL0     H39796   4.410   3.500   6.982  1.1228 -0.0928 -0.0095
  295MOL0     H39797   4.394   3.752   7.076 -0.2462 -0.3702 -2.8320
  295MOL0     H39798   4.254   3.688   7.175  0.2698  0.4645 -0.6953
  295MOL0     H39799   4.294   3.669   6.869 -0.6696  0.6135 -0.4666
  295MOL0     H39800   4.160   3.600   6.970  1.1176  0.4675  3.3005
  295MOL0     H39801   4.214   3.895   6.910 -0.1470  1.1397  2.0316
  295MOL0     H39802   4.119   3.838   7.054 -1.5546 -2.2193 -0.0848
  295MOL0     H39803   3.982   3.906   6.845 -1.0679  0.5402  1.0643
  295MOL0     H39804   4.068   3.760   6.780  0.1250 -0.3017  0.7346
  295MOL0     H39805   4.123   3.321   7.453  0.2032 -0.2260  0.4858
  295MOL0     H39806   3.919   3.175   7.460 -0.2396 -0.3307 -0.5775
  295MOL0     H39807   3.765   2.707   7.382  1.2177  0.8928 -0.0027
  295MOL0     H39808   3.617   2.514   7.339 -0.6944 -1.2523 -1.6445
  295MOL0     H39809   2.015   2.709   8.244  1.1882  0.0882 -0.3299
  295MOL0     H39810   1.820   2.824   8.292 -1.7115 -0.6690  0.0432
  295MOL0     H39811   1.347   2.811   8.063  1.1019  1.7661 -1.3260
  295MOL0     H39812   1.120   2.827   8.093  1.5495  0.1998 -0.4549
  295MOL0     H39813   0.956   2.751   8.227 -0.0541 -0.7718 -0.1527
  295MOL0     H39814   0.907   2.872   8.100  0.0780 -0.9258  0.1192
  295MOL0     H39815   0.753   2.808   8.352 -2.4904  0.5289 -0.1954
  295MOL0     H39816   0.706   2.777   8.186  1.1992 -0.9526  0.0982
  295MOL0     H39817   0.686   3.007   8.143 -0.8185 -1.0375  0.1956
  295MOL0     H39818   0.762   3.048   8.300 -1.6880  0.2943  1.4608
  295MOL0     H39819   0.588   2.977   8.437 -1.3876  0.7507  1.0753
  295MOL0     H39820   0.529   3.096   8.324  0.2968 -1.3650 -0.0743
  295MOL0     H39821   0.298   2.741   8.231 -1.3567  1.8427 -0.0509
  295MOL0     H39822   1.152   3.095   8.417  0.1907  0.9417 -0.0512
  295MOL0     H39823   1.431   3.055   8.511 -2.0331  0.0781  0.4551
  295MOL0     H39824   1.508   3.159   8.392 -0.5498  1.5099  2.7673
  295MOL0     H39825   1.350   3.204   8.455 -0.8458 -0.7391  0.8216
  296MOL0     O39826   5.201   8.486  10.567  0.4388 -0.0551  0.0097
  296MOL0     C39827   5.188   8.603  10.535 -0.0019 -0.1543 -0.0903
  296MOL0     O39828   5.290   8.694  10.529  0.8364  0.1608  0.4988
  296MOL0     C39829   5.417   8.668  10.578 -0.3089  0.6607 -0.0419
  296MOL0     C39830   5.460   8.742  10.691 -0.6190  0.6912 -0.1626
  296MOL0     C39831   5.591   8.721  10.740  0.6404 -0.5793 -0.0399
  296MOL0     C39832   5.674   8.628  10.676  0.1995  0.6168 -0.0539
  296MOL0     O39833   5.792   8.591  10.729  0.0744 -0.2169 -0.1845
  296MOL0     C39834   5.829   8.642  10.857 -0.2036 -0.6339  0.2713
  296MOL0     C39835   5.953   8.567  10.886 -0.3719 -0.6337 -0.4472
  296MOL0     C39836   6.030   8.605  11.023 -0.5487  0.5107 -0.3105
  296MOL0     C39837   6.143   8.511  11.054 -0.7502  0.4549  0.0110
  296MOL0     C39838   6.212   8.520  11.194  0.3085 -0.4988  0.3459
  296MOL0     C39839   6.357   8.464  11.194  1.1649 -0.2154  0.3822
  296MOL0     C39840   6.396   8.438  11.341  0.3545 -0.4456  0.6877
  296MOL0     C39841   6.548   8.398  11.350  0.2078  0.2596 -0.3936
  296MOL0     N39842   6.640   8.519  11.347  0.2435  0.1087  0.0914
  296MOL0     C39843   6.702   8.586  11.240 -0.3014 -0.3193  0.0576
  296MOL0     C39844   6.773   8.683  11.302 -0.8463  0.3791 -0.0756
  296MOL0     C39845   6.865   8.766  11.220 -0.2567  0.2075 -0.7009
  296MOL0     C39846   6.854   8.915  11.257 -0.2077  0.3052  0.5548
  296MOL0     C39847   6.934   8.953  11.380 -0.4736  0.4535 -0.2497
  296MOL0     C39848   6.975   9.095  11.387 -0.5526  0.7089 -0.0913
  296MOL0     O39849   7.041   9.154  11.271  0.1507  0.3929  0.1488
  296MOL0     C39850   7.170   9.120  11.237  0.1345 -0.5855 -0.1116
  296MOL0     C39851   7.253   9.025  11.313  0.7059  0.2788 -0.2339
  296MOL0     C39852   7.381   8.995  11.258 -0.1578  0.8548  0.1902
  296MOL0     C39853   7.433   9.051  11.137 -0.9972 -0.2426 -0.8930
  296MOL0     C39854   7.566   9.018  11.086  0.9583  0.9496  0.1024
  296MOL0     O39855   7.605   9.070  10.970  0.2874 -0.1055 -0.1936
  296MOL0     C39856   7.721   9.038  10.915 -0.4592 -0.4508  0.3749
  296MOL0     C39857   7.770   9.130  10.820  0.1479  0.3512  0.0862
  296MOL0     C39858   7.882   9.105  10.750 -0.3192 -0.0343 -1.1655
  296MOL0     C39859   7.958   8.987  10.761 -0.0480 -0.2179 -0.7827
  296MOL0     O39860   8.076   8.957  10.708  0.7494  0.0261  0.2617
  296MOL0     C39861   8.153   9.062  10.655 -0.3764 -0.0231  0.2819
  296MOL0     C39862   8.214   9.144  10.772 -0.1632 -0.1842 -0.1637
  296MOL0     C39863   8.316   9.235  10.710 -0.5338  0.0632 -0.0879
  296MOL0     C39864   8.458   9.176  10.697 -1.1297  0.1307  0.1289
  296MOL0     C39865   8.539   9.282  10.623  0.3260 -0.0402  0.4776
  296MOL0     C39866   8.684   9.243  10.612  0.5700 -0.2195 -1.1232
  296MOL0     C39867   8.772   9.248  10.745 -0.3431 -0.5167 -0.1266
  296MOL0     C39868   8.916   9.235  10.705 -0.0262 -0.3345 -0.7217
  296MOL0    Cl39869   9.009   9.258  10.851  0.5812 -0.0447 -0.4047
  296MOL0     C39870   7.894   8.883  10.834 -1.1414 -0.2334 -0.0319
  296MOL0     C39871   7.787   8.919  10.922  0.2253  0.3941  0.0333
  296MOL0     O39872   7.639   8.955  11.163  0.6194  0.2498 -0.0127
  296MOL0     C39873   7.345   9.150  11.070 -0.4611  0.6022  0.3905
  296MOL0     C39874   7.217   9.176  11.121 -0.4981 -0.5754  0.1832
  296MOL0     N39875   6.749   8.681  11.435 -0.1294  0.1040 -0.6899
  296MOL0     N39876   6.670   8.583  11.462 -0.4294  1.0502  0.1575
  296MOL0     C39877   5.632   8.544  10.567  0.2388  0.0508 -0.7902
  296MOL0     C39878   5.504   8.572  10.516 -0.4940  0.2681 -0.7086
  296MOL0     C39879   5.061   8.647  10.483 -0.1364  1.1552  0.5303
  296MOL0     C39880   5.059   8.715  10.363 -0.9348  0.7906 -0.1325
  296MOL0     C39881   4.938   8.763  10.312 -0.3513 -0.0377  0.1248
  296MOL0     C39882   4.815   8.733  10.374  0.4324  0.1561 -0.4659
  296MOL0     O39883   4.684   8.754  10.331 -0.3647  0.1289 -0.0245
  296MOL0     C39884   4.657   8.798  10.193 -0.3878 -0.1757  0.1521
  296MOL0     C39885   4.507   8.788  10.166 -0.2186  0.4224  0.5230
  296MOL0     C39886   4.464   8.643  10.146 -0.0035 -0.6217 -1.0049
  296MOL0     C39887   4.333   8.648  10.073 -0.0769  0.5540  0.1349
  296MOL0     C39888   4.211   8.675  10.155 -0.6221  0.3692 -0.2996
  296MOL0     C39889   4.114   8.701  10.225 -0.0812  0.4821  0.2540
  296MOL0     C39890   4.819   8.664  10.495 -0.1073 -0.0644 -0.7481
  296MOL0     C39891   4.942   8.617  10.549  0.9220  0.2079  0.7026
  296MOL0     C39892   4.938   8.555  10.694  0.1146 -0.5299  0.3269
  296MOL0     H39893   5.389   8.811  10.735 -0.9133  1.8233 -2.3025
  296MOL0     H39894   5.627   8.790  10.815  1.1871 -0.4060 -0.4624
  296MOL0     H39895   5.855   8.748  10.857  2.9147 -1.3040  1.2952
  296MOL0     H39896   5.763   8.616  10.941  2.1121  1.6932  3.0262
  296MOL0     H39897   6.019   8.594  10.803  1.2731  0.1211  1.0355
  296MOL0     H39898   5.932   8.460  10.888 -3.6451 -0.1129 -1.2420
  296MOL0     H39899   5.958   8.586  11.104  1.7864 -1.3654  1.4762
  296MOL0     H39900   6.074   8.705  11.017  0.0112  0.1635 -3.0980
  296MOL0     H39901   6.108   8.408  11.043 -0.5744  0.5560 -1.6691
  296MOL0     H39902   6.219   8.536  10.980 -0.6022 -0.5389 -0.1827
  296MOL0     H39903   6.211   8.625  11.225 -1.3744  0.7457 -3.3396
  296MOL0     H39904   6.144   8.460  11.255  0.3234 -0.8160  0.0497
  296MOL0     H39905   6.356   8.368  11.141 -0.0854  1.0674 -2.0624
  296MOL0     H39906   6.426   8.524  11.135  2.5676 -0.8723  1.2881
  296MOL0     H39907   6.330   8.360  11.381 -0.5725  0.4089  0.8769
  296MOL0     H39908   6.388   8.528  11.403 -2.2809  1.4171 -2.0683
  296MOL0     H39909   6.575   8.338  11.437  1.8012 -0.8924 -1.6173
  296MOL0     H39910   6.573   8.337  11.262  0.5236  1.0128 -0.8397
  296MOL0     H39911   6.697   8.555  11.136 -1.0020  0.2078 -0.0729
  296MOL0     H39912   6.960   8.722  11.251 -0.3428  0.3066 -0.2955
  296MOL0     H39913   6.853   8.758  11.111  1.7486 -1.9621 -0.8304
  296MOL0     H39914   6.889   8.977  11.174 -1.5833  1.5813  0.8723
  296MOL0     H39915   6.749   8.944  11.269 -0.2698  1.6699 -2.3840
  296MOL0     H39916   7.020   8.888  11.397 -0.7014  0.3723  0.6876
  296MOL0     H39917   6.872   8.932  11.468 -0.3754 -1.9620 -0.6703
  296MOL0     H39918   7.044   9.099  11.472 -1.1756 -1.7328  0.6215
  296MOL0     H39919   6.891   9.162  11.404 -0.2801  1.0008  0.1062
  296MOL0     H39920   7.218   8.974  11.402  0.7110 -0.2228 -0.5191
  296MOL0     H39921   7.444   8.926  11.311 -2.3891 -0.1216  1.7487
  296MOL0     H39922   7.721   9.226  10.811  1.1718  0.9556  0.7017
  296MOL0     H39923   7.902   9.193  10.689 -0.2063  0.1083 -0.9283
  296MOL0     H39924   8.239   9.033  10.593  1.0667  2.3844  1.0429
  296MOL0     H39925   8.085   9.116  10.589 -0.2026  0.7398  0.7173
  296MOL0     H39926   8.138   9.206  10.820 -0.8199 -0.3349 -0.9821
  296MOL0     H39927   8.260   9.080  10.848 -2.2979 -1.2372  0.3132
  296MOL0     H39928   8.289   9.272  10.610  2.9742 -0.7136 -1.4592
  296MOL0     H39929   8.331   9.320  10.778  0.9830  0.4056 -0.8149
  296MOL0     H39930   8.451   9.078  10.649  0.8491 -1.5105  2.8526
  296MOL0     H39931   8.495   9.159  10.799 -3.0942 -1.7318  0.6106
  296MOL0     H39932   8.526   9.381  10.667 -0.8010  1.8450 -3.6923
  296MOL0     H39933   8.499   9.286  10.522 -1.0284 -0.8527  0.9523
  296MOL0     H39934   8.689   9.144  10.567  0.6893 -1.2602  1.0606
  296MOL0     H39935   8.724   9.310  10.536  0.4490  0.1905 -0.8289
  296MOL0     H39936   8.748   9.177  10.824  1.3615 -0.7512  0.2220
  296MOL0     H39937   8.769   9.351  10.783  1.9090 -0.4543  0.0090
  296MOL0     H39938   8.947   9.139  10.662  2.6864  1.2129 -2.5645
  296MOL0     H39939   8.937   9.310  10.628  0.5024 -0.3353 -0.5846
  296MOL0     H39940   7.941   8.786  10.843 -0.1591  0.2489  0.1741
  296MOL0     H39941   7.745   8.843  10.987 -0.6642  0.1435 -0.8078
  296MOL0     H39942   7.393   9.192  10.981  0.4067  1.0818  1.0689
  296MOL0     H39943   7.161   9.248  11.061 -0.6745 -1.5785 -0.9177
  296MOL0     H39944   5.689   8.468  10.515  2.6629  1.6712 -0.6746
  296MOL0     H39945   5.459   8.515  10.436 -0.7973 -1.1214  0.4213
  296MOL0     H39946   5.153   8.733  10.312 -0.5324  2.4840  1.1156
  296MOL0     H39947   4.927   8.811  10.216  0.6359  1.0607  0.5352
  296MOL0     H39948   4.701   8.737  10.114 -0.5369 -3.4860  2.4254
  296MOL0     H39949   4.690   8.902  10.181  1.7300 -0.9070 -0.8698
  296MOL0     H39950   4.490   8.843  10.073  0.4433 -0.4959 -0.1526
  296MOL0     H39951   4.446   8.827  10.249  0.8084  2.0176  0.5793
  296MOL0     H39952   4.447   8.590  10.241 -2.8316  1.1122 -0.4418
  296MOL0     H39953   4.533   8.582  10.087  1.9582 -0.6942  1.1827
  296MOL0     H39954   4.335   8.709   9.982 -3.1090  1.2468  0.4182
  296MOL0     H39955   4.320   8.546  10.035  1.3506  0.8963 -1.3859
  296MOL0     H39956   4.024   8.722  10.278 -0.3663  1.3848 -0.5440
  296MOL0     H39957   4.723   8.652  10.543 -1.0423  0.1525 -2.4720
  296MOL0     H39958   5.002   8.467  10.703  1.2560  0.1829 -0.4636
  296MOL0     H39959   4.969   8.626  10.771 -0.9375 -1.5735  1.7640
  296MOL0     H39960   4.833   8.534  10.718 -0.3733 -0.3693 -1.4598
  297MOL0     O39961  10.377   5.207   9.752  0.2124 -0.3717  0.1809
  297MOL0     C39962  10.324   5.109   9.704 -1.0111 -0.5279  0.4283
  297MOL0     O39963  10.395   4.999   9.649 -0.2759  0.1402 -0.3606
  297MOL0     C39964  10.524   5.015   9.615  0.0788  0.1899 -0.1728
  297MOL0     C39965  10.572   5.104   9.519  0.6733 -0.2189  0.4045
  297MOL0     C39966  10.705   5.140   9.502  0.1913 -0.8773  0.5138
  297MOL0     C39967  10.799   5.084   9.584 -0.2068 -0.0113  0.0474
  297MOL0     O39968  10.932   5.119   9.575  0.6651 -0.4688  0.5083
  297MOL0     C39969  11.018   5.092   9.688  0.6205  0.1046 -0.8767
  297MOL0     C39970  11.158   5.133   9.649  0.0698  0.5972  0.8311
  297MOL0     C39971  11.257   5.073   9.743 -0.0405  0.3124  0.0004
  297MOL0     C39972  11.394   5.149   9.749 -0.3001  0.5635 -0.5407
  297MOL0     C39973  11.390   5.259   9.855 -0.2009 -0.2431 -0.0708
  297MOL0     C39974  11.483   5.376   9.808 -0.2292  0.2421  0.2046
  297MOL0     C39975  11.475   5.490   9.914 -0.1274  0.5258  0.3153
  297MOL0     C39976  11.589   5.590   9.879  0.6653 -0.3699  0.3209
  297MOL0     N39977  11.714   5.534   9.930  0.7716  0.1940  0.2262
  297MOL0     C39978  11.752   5.521  10.060  0.3178  0.3040 -0.3335
  297MOL0     C39979  11.883   5.485  10.049 -0.1047 -0.3959 -0.2471
  297MOL0     C39980  11.976   5.448  10.161  0.2582  0.4794 -0.1897
  297MOL0     C39981  12.005   5.561  10.260  0.7015 -0.4207 -0.0132
  297MOL0     C39982  12.073   5.686  10.200 -0.1366  0.6968 -0.2893
  297MOL0     C39983  12.136   5.778  10.303 -0.1114  0.2771 -0.5616
  297MOL0     O39984  12.162   5.908  10.227 -0.4946  0.6708 -0.2617
  297MOL0     C39985  12.290   5.953  10.213 -0.5309  0.3543  0.1388
  297MOL0     C39986  12.304   6.082  10.159 -0.1389  0.6929 -0.8196
  297MOL0     C39987  12.435   6.141  10.126  0.6293  0.8229  0.0471
  297MOL0     C39988  12.552   6.069  10.152  0.4341 -0.4557  0.2680
  297MOL0     C39989  12.696   6.121  10.146 -0.1780  0.4796 -0.3498
  297MOL0     O39990  12.791   6.030  10.170  0.6222  0.1482  0.3434
  297MOL0     C39991  12.913   6.052  10.118  0.0953  0.2494 -0.4360
  297MOL0     C39992  12.942   6.109   9.987  0.3622  0.6066 -0.3064
  297MOL0     C39993  13.069   6.110   9.940  0.3283 -0.6262  0.9081
  297MOL0     C39994  13.176   6.051  10.005 -0.5094 -0.3629 -0.0478
  297MOL0     O39995  13.298   6.043   9.951  0.4133  0.0243 -0.2879
  297MOL0     C39996  13.413   6.045  10.034 -0.4062 -0.5485  0.1032
  297MOL0     C39997  13.522   6.122   9.955 -0.4440  0.4435 -0.1482
  297MOL0     C39998  13.643   6.143  10.038 -0.9580  0.0631 -0.1261
  297MOL0     C39999  13.765   6.179   9.946  0.2407 -0.3199 -0.9576
  297MOL0     C40000  13.897   6.186  10.019 -0.4194  0.3363 -0.0430
  297MOL0     C40001  13.945   6.042  10.063 -0.3318  0.6916  0.0709
  297MOL0     C40002  14.088   6.026  10.123 -0.2068  1.0699  0.6606
  297MOL0     C40003  14.195   6.029  10.017 -0.3440 -0.5712 -0.1234
  297MOL0    Cl40004  14.345   6.017  10.117 -0.0191 -0.3973  0.1638
  297MOL0     C40005  13.157   6.004  10.143  0.8599  0.1248 -0.2651
  297MOL0     C40006  13.024   6.012  10.191 -0.4167  0.8304  0.0649
  297MOL0     O40007  12.705   6.238  10.125 -0.5774  0.0876 -0.3130
  297MOL0     C40008  12.531   5.937  10.205 -0.6053 -0.2149 -0.0489
  297MOL0     C40009  12.405   5.883  10.234  0.4026  0.2910 -0.0428
  297MOL0     N40010  11.920   5.479   9.917 -0.6399 -0.4196  0.4013
  297MOL0     N40011  11.821   5.526   9.851  0.1361 -0.8810 -0.3447
  297MOL0     C40012  10.751   4.993   9.681  0.5245 -0.0442 -0.9235
  297MOL0     C40013  10.618   4.965   9.701 -0.2171 -0.0276  0.6829
  297MOL0     C40014  10.175   5.115   9.682  0.0674  0.9401  0.7269
  297MOL0     C40015  10.117   5.041   9.573 -0.0406 -0.0974  0.0322
  297MOL0     C40016   9.981   5.042   9.544 -0.1327  0.1328 -0.0637
  297MOL0     C40017   9.897   5.125   9.617 -0.0433 -0.2480 -0.0241
  297MOL0     O40018   9.761   5.123   9.584 -0.2181  0.8821 -0.1307
  297MOL0     C40019   9.670   5.166   9.689  0.3591  0.2423  0.5079
  297MOL0     C40020   9.530   5.148   9.651 -0.6847 -0.1573  0.0440
  297MOL0     C40021   9.441   5.258   9.718 -1.1871  0.5653 -0.2970
  297MOL0     C40022   9.302   5.262   9.672 -0.2655 -0.5127 -0.1259
  297MOL0     C40023   9.245   5.387   9.724  1.4130 -0.6289  0.0972
  297MOL0     C40024   9.186   5.475   9.776 -0.1149 -0.3160  0.4907
  297MOL0     C40025   9.952   5.192   9.724 -0.3706 -0.0000 -0.0077
  297MOL0     C40026  10.089   5.193   9.763  0.3791  0.0252  0.1243
  297MOL0     C40027  10.132   5.268   9.896  0.4492  0.5167 -0.1470
  297MOL0     H40028  10.498   5.153   9.456 -0.3217  1.3346  2.6127
  297MOL0     H40029  10.735   5.208   9.423 -1.2959 -1.6932 -0.8257
  297MOL0     H40030  10.987   5.151   9.775 -1.2839 -0.0199 -1.4205
  297MOL0     H40031  11.018   4.985   9.709 -0.0311 -0.0119 -1.4254
  297MOL0     H40032  11.166   5.242   9.642  1.5107  0.4550 -0.0801
  297MOL0     H40033  11.177   5.096   9.548 -2.3268  0.4506  0.3640
  297MOL0     H40034  11.280   4.974   9.702  5.8680  1.3680 -0.2400
  297MOL0     H40035  11.220   5.062   9.845 -2.2428 -2.6322 -0.9697
  297MOL0     H40036  11.476   5.081   9.775 -0.2809  1.0622  0.8255
  297MOL0     H40037  11.414   5.204   9.657 -1.9774  2.7115  0.2960
  297MOL0     H40038  11.290   5.300   9.872  0.7112  2.1051 -0.0403
  297MOL0     H40039  11.431   5.224   9.951  0.9507 -0.7927 -0.7331
  297MOL0     H40040  11.583   5.335   9.795 -1.3262 -2.3273 -0.6539
  297MOL0     H40041  11.448   5.411   9.711 -0.9215 -0.1915  0.2993
  297MOL0     H40042  11.490   5.461  10.018  1.0893 -3.4066 -0.7747
  297MOL0     H40043  11.377   5.537   9.908 -0.1912  0.4341  0.6081
  297MOL0     H40044  11.579   5.616   9.774 -1.9529 -1.8623  0.1182
  297MOL0     H40045  11.577   5.686   9.930  1.1886  0.0919 -0.4088
  297MOL0     H40046  11.692   5.532  10.149 -1.5156  1.3098 -1.6105
  297MOL0     H40047  11.916   5.376  10.217  1.2008  2.2040  3.2883
  297MOL0     H40048  12.069   5.415  10.113  0.7935  3.3007 -1.2618
  297MOL0     H40049  11.911   5.596  10.305  1.2385 -0.8841  1.5249
  297MOL0     H40050  12.072   5.522  10.337  1.8301  1.7798  0.2005
  297MOL0     H40051  11.991   5.739  10.151 -0.6619  0.6141  0.4850
  297MOL0     H40052  12.146   5.645  10.129 -0.6770 -1.4653  0.3293
  297MOL0     H40053  12.228   5.734  10.341 -0.8255 -0.3525  0.4986
  297MOL0     H40054  12.064   5.798  10.382 -0.9219  0.6731 -1.3761
  297MOL0     H40055  12.208   6.133  10.154 -0.9471 -0.6057  0.5675
  297MOL0     H40056  12.433   6.241  10.083 -1.0598  1.2650  1.0587
  297MOL0     H40057  12.859   6.147   9.929  0.4946  0.6754 -0.4515
  297MOL0     H40058  13.086   6.145   9.839 -0.0608  0.9376  1.3567
  297MOL0     H40059  13.404   6.103  10.127  2.3225 -0.9913  0.7213
  297MOL0     H40060  13.446   5.945  10.061  0.8542  0.4665  2.6040
  297MOL0     H40061  13.538   6.061   9.866 -1.0334  2.0391 -1.3932
  297MOL0     H40062  13.488   6.220   9.920 -0.9553  0.5455  0.6003
  297MOL0     H40063  13.622   6.229  10.103  0.4014  1.6540 -1.7029
  297MOL0     H40064  13.664   6.054  10.098  0.2960  0.7589  0.5045
  297MOL0     H40065  13.745   6.277   9.902 -3.6039  0.2371  1.4993
  297MOL0     H40066  13.767   6.098   9.873 -0.2967 -0.0723 -1.2546
  297MOL0     H40067  13.900   6.249  10.108 -2.2088 -3.0297  2.6298
  297MOL0     H40068  13.984   6.211   9.957  2.2572 -1.1418  2.8296
  297MOL0     H40069  13.886   5.995  10.142  0.9377 -0.2117  0.5090
  297MOL0     H40070  13.930   5.968   9.984 -0.2340 -0.3610  1.0145
  297MOL0     H40071  14.095   5.931  10.178 -2.7331  1.4797  1.8141
  297MOL0     H40072  14.106   6.101  10.201  1.9231 -0.6219  1.9161
  297MOL0     H40073  14.188   5.945   9.947  0.2480 -0.6512 -0.0941
  297MOL0     H40074  14.195   6.125   9.965  0.6461 -0.6348 -0.2691
  297MOL0     H40075  13.238   5.952  10.193  0.4988 -1.4292 -1.2338
  297MOL0     H40076  13.018   5.968  10.290  0.2928  0.2496 -0.1402
  297MOL0     H40077  12.615   5.872  10.228 -0.7955  0.0055  1.3079
  297MOL0     H40078  12.402   5.786  10.281 -0.4811 -0.0098 -0.6899
  297MOL0     H40079  10.815   4.931   9.744 -0.3541 -0.7724 -0.7214
  297MOL0     H40080  10.590   4.894   9.777 -1.2614 -1.7057 -1.1682
  297MOL0     H40081  10.181   4.983   9.507  0.8024  0.5832  0.2379
  297MOL0     H40082   9.934   4.984   9.465  3.0143  0.3884 -2.3182
  297MOL0     H40083   9.679   5.273   9.714 -2.4315  0.0302  3.0416
  297MOL0     H40084   9.688   5.100   9.774  0.5475 -0.5541 -0.1424
  297MOL0     H40085   9.506   5.044   9.674 -1.1627  0.2610  1.5680
  297MOL0     H40086   9.519   5.169   9.545 -0.2801  1.2254  0.2558
  297MOL0     H40087   9.478   5.355   9.683 -1.3462  1.0452  0.8320
  297MOL0     H40088   9.451   5.251   9.827  0.2871 -2.3652 -0.5191
  297MOL0     H40089   9.313   5.262   9.563  0.7253 -2.2440 -0.0796
  297MOL0     H40090   9.261   5.167   9.707  3.0692 -1.1931  2.5810
  297MOL0     H40091   9.134   5.559   9.819  0.2570  0.8028 -1.1817
  297MOL0     H40092   9.879   5.247   9.783 -1.5936 -1.8483  0.3111
  297MOL0     H40093  10.176   5.364   9.867  1.9087  0.6955  2.3387
  297MOL0     H40094  10.046   5.305   9.952  0.5586  0.4014  0.1004
  297MOL0     H40095  10.207   5.209   9.950 -0.4549 -2.5555 -2.0349
  298MOL0     O40096  10.571   1.685   5.029  0.1593  0.2994  0.0632
  298MOL0     C40097  10.528   1.582   5.084  0.1033 -0.8247  0.1667
  298MOL0     O40098  10.603   1.466   5.096  0.7423 -0.3853 -0.0862
  298MOL0     C40099  10.738   1.473   5.108 -0.3839 -0.1362  0.4209
  298MOL0     C40100  10.808   1.591   5.142  0.0013  1.0527 -0.0139
  298MOL0     C40101  10.946   1.598   5.141  0.2123  0.7843  0.3332
  298MOL0     C40102  11.018   1.495   5.092 -0.1776 -0.1700  0.3311
  298MOL0     O40103  11.153   1.493   5.093  0.3714  0.0632 -0.6724
  298MOL0     C40104  11.218   1.611   5.038  0.9576 -0.0207  0.0987
  298MOL0     C40105  11.361   1.613   5.095  0.5538  0.6859  0.8459
  298MOL0     C40106  11.449   1.688   4.995 -0.3296  0.5445 -0.2978
  298MOL0     C40107  11.601   1.678   5.019 -0.1742  0.0364  0.1731
  298MOL0     C40108  11.667   1.540   5.043  0.7056  0.3149  0.0337
  298MOL0     C40109  11.817   1.563   5.080  0.3005 -0.3096 -0.2023
  298MOL0     C40110  11.895   1.439   5.128  0.3891 -0.2217  0.2218
  298MOL0     C40111  12.045   1.454   5.161  0.2069 -0.3647  0.4476
  298MOL0     N40112  12.108   1.338   5.209  0.0868  0.1216  0.5316
  298MOL0     C40113  12.146   1.237   5.126 -0.0366 -0.6332  0.3487
  298MOL0     C40114  12.197   1.139   5.207  0.3178 -0.7169  0.2201
  298MOL0     C40115  12.256   1.004   5.166 -0.7674  0.0813 -0.0635
  298MOL0     C40116  12.374   0.946   5.241 -0.8088 -0.4735  0.7182
  298MOL0     C40117  12.434   0.820   5.183  0.0104 -0.1519 -0.7988
  298MOL0     C40118  12.559   0.762   5.264 -0.1339 -0.4049 -0.2778
  298MOL0     O40119  12.664   0.860   5.270  0.1209 -0.2246 -0.6457
  298MOL0     C40120  12.790   0.832   5.317  0.3955  1.0404 -0.0965
  298MOL0     C40121  12.836   0.707   5.362 -1.2691  0.2113 -0.3636
  298MOL0     C40122  12.966   0.688   5.403  0.0578 -0.0096  0.0054
  298MOL0     C40123  13.041   0.798   5.420 -0.7017  0.4916  0.3865
  298MOL0     C40124  13.181   0.770   5.464 -0.1670  0.1722 -0.5011
  298MOL0     O40125  13.224   0.638   5.469  0.2807  0.2902 -0.2585
  298MOL0     C40126  13.343   0.610   5.529  0.4261 -0.3042 -0.0830
  298MOL0     C40127  13.456   0.565   5.458 -0.0413  0.2595  0.5950
  298MOL0     C40128  13.575   0.528   5.534 -0.9315 -0.5768  0.8248
  298MOL0     C40129  13.590   0.550   5.672  0.1743  0.5550  0.3993
  298MOL0     O40130  13.705   0.505   5.722  0.1599 -0.9685  0.8769
  298MOL0     C40131  13.702   0.440   5.854 -0.0700 -0.4396 -0.5172
  298MOL0     C40132  13.817   0.487   5.930 -0.2920 -0.8234  0.2963
  298MOL0     C40133  13.947   0.404   5.899  0.1369 -0.5968  0.3278
  298MOL0     C40134  14.071   0.476   5.954 -0.5131  0.3297 -0.2853
  298MOL0     C40135  14.195   0.388   5.944  0.1167 -0.7283 -0.4757
  298MOL0     C40136  14.312   0.450   6.024  0.1363 -0.3337 -0.1357
  298MOL0     C40137  14.429   0.346   6.041 -0.5618 -1.0486  0.2604
  298MOL0     C40138  14.503   0.321   5.916 -0.3396  0.0589  0.4864
  298MOL0    Cl40139  14.595   0.474   5.892  0.1727  0.2008 -0.1086
  298MOL0     C40140  13.474   0.599   5.738 -1.1170 -0.4006  0.8951
  298MOL0     C40141  13.349   0.628   5.671 -0.4201  0.3265 -0.0110
  298MOL0     O40142  13.248   0.864   5.504  0.5639 -0.2598 -0.1094
  298MOL0     C40143  12.993   0.928   5.390  0.4139  0.8043 -0.5858
  298MOL0     C40144  12.873   0.934   5.332 -0.2460  0.2629  0.4645
  298MOL0     N40145  12.181   1.180   5.338  0.9204 -0.5582 -0.0210
  298MOL0     N40146  12.119   1.295   5.341 -0.5344 -0.3122  0.6925
  298MOL0     C40147  10.949   1.379   5.059 -0.1518 -0.4489 -0.3623
  298MOL0     C40148  10.812   1.364   5.067  0.0063 -0.7058  0.0721
  298MOL0     C40149  10.395   1.583   5.139  0.6636  0.2724 -0.3198
  298MOL0     C40150  10.366   1.491   5.247  0.3716 -0.2212 -0.2966
  298MOL0     C40151  10.247   1.489   5.313  0.8961 -0.0358  0.8437
  298MOL0     C40152  10.146   1.568   5.271 -0.7892  0.2281  0.5627
  298MOL0     O40153  10.034   1.572   5.337  0.5234 -0.2471  0.0239
  298MOL0     C40154   9.968   1.695   5.352 -0.4735 -0.0221  0.3741
  298MOL0     C40155   9.880   1.693   5.472  0.1267  0.3046 -0.4281
  298MOL0     C40156   9.795   1.820   5.490 -0.0060 -0.1269  0.7165
  298MOL0     C40157   9.741   1.849   5.632  0.1629 -0.7825 -0.1810
  298MOL0     C40158   9.659   1.977   5.626  0.7451  0.2552  0.3050
  298MOL0     C40159   9.581   2.063   5.604  0.1315 -0.5830  0.0219
  298MOL0     C40160  10.160   1.650   5.158  0.3237 -1.1111 -0.3033
  298MOL0     C40161  10.284   1.666   5.093 -0.6309 -0.7241  0.2099
  298MOL0     C40162  10.302   1.750   4.973 -0.1369 -0.0831 -0.7141
  298MOL0     H40163  10.751   1.673   5.183  1.2632  1.4016  1.1262
  298MOL0     H40164  10.999   1.687   5.173  0.3707  1.5927 -1.9634
  298MOL0     H40165  11.214   1.603   4.929  1.9280 -1.2089  0.1306
  298MOL0     H40166  11.187   1.711   5.069  2.5823 -0.0223  1.9022
  298MOL0     H40167  11.379   1.506   5.108 -2.6480 -0.1482 -0.6226
  298MOL0     H40168  11.360   1.663   5.192 -0.7263  0.4498  0.9674
  298MOL0     H40169  11.425   1.795   4.998 -1.1218  0.3594  0.4336
  298MOL0     H40170  11.427   1.660   4.891  0.6760  1.0326 -0.6540
  298MOL0     H40171  11.652   1.731   4.938  1.3773 -2.3219 -0.4781
  298MOL0     H40172  11.609   1.743   5.107 -2.0097 -1.0161  1.1865
  298MOL0     H40173  11.615   1.492   5.127  0.1903  0.8102 -0.0002
  298MOL0     H40174  11.657   1.477   4.954 -0.3754  1.7523 -0.9064
  298MOL0     H40175  11.875   1.601   4.995  0.6430 -0.9873 -0.2780
  298MOL0     H40176  11.817   1.648   5.149  0.4739  1.7203 -2.5455
  298MOL0     H40177  11.892   1.354   5.060  0.7522  0.1852 -0.3133
  298MOL0     H40178  11.851   1.405   5.222  2.2518 -0.7103  0.9521
  298MOL0     H40179  12.099   1.493   5.075  0.2148  0.4998  0.8354
  298MOL0     H40180  12.053   1.526   5.243  0.0254  2.1313 -1.6300
  298MOL0     H40181  12.155   1.235   5.018 -3.0127 -0.7045  0.0181
  298MOL0     H40182  12.179   0.927   5.177  0.2736 -0.7538  1.8069
  298MOL0     H40183  12.281   1.015   5.060 -0.8757 -0.1587 -0.1161
  298MOL0     H40184  12.457   1.016   5.227 -1.5184  0.0289 -1.4198
  298MOL0     H40185  12.353   0.943   5.348 -2.5766 -0.8693  0.3848
  298MOL0     H40186  12.463   0.823   5.078  2.0661  1.8519 -0.2706
  298MOL0     H40187  12.350   0.750   5.183  0.7840 -1.1011 -0.5758
  298MOL0     H40188  12.600   0.681   5.202  4.7868  2.0580 -0.7318
  298MOL0     H40189  12.527   0.721   5.360 -0.7225  1.1227  0.2196
  298MOL0     H40190  12.769   0.623   5.378 -3.4019  1.9858  0.4735
  298MOL0     H40191  12.990   0.586   5.433 -1.3872  0.0565  1.4961
  298MOL0     H40192  13.458   0.561   5.349 -0.7962 -1.4912  0.6070
  298MOL0     H40193  13.662   0.493   5.478 -0.5850 -0.2176  1.1382
  298MOL0     H40194  13.623   0.477   5.919  2.0461  2.9312  0.4177
  298MOL0     H40195  13.690   0.333   5.836 -0.9419  0.0192 -3.1264
  298MOL0     H40196  13.830   0.590   5.895  0.3056 -0.6377  1.0547
  298MOL0     H40197  13.795   0.491   6.037  0.2530  3.8925  0.4225
  298MOL0     H40198  13.934   0.304   5.941  1.5498 -0.8027  0.3392
  298MOL0     H40199  13.963   0.395   5.791  2.1218  1.7596  0.3449
  298MOL0     H40200  14.059   0.499   6.061 -3.0660 -1.5023 -0.0794
  298MOL0     H40201  14.069   0.571   5.899 -0.9086  1.0793  0.9716
  298MOL0     H40202  14.216   0.386   5.837 -0.0236  0.5494 -0.5492
  298MOL0     H40203  14.172   0.287   5.980 -0.4147 -1.0943 -1.8049
  298MOL0     H40204  14.351   0.544   5.982  0.0247  0.1130  0.7271
  298MOL0     H40205  14.270   0.477   6.121 -0.4896 -3.0630  0.4094
  298MOL0     H40206  14.388   0.250   6.073 -1.4555  0.3208  3.6762
  298MOL0     H40207  14.484   0.373   6.131  1.0027 -1.4979 -0.5211
  298MOL0     H40208  14.567   0.232   5.921  0.3323  0.5109  0.1393
  298MOL0     H40209  14.435   0.317   5.831  1.0114  3.3994 -0.9537
  298MOL0     H40210  13.483   0.622   5.844  2.2066 -1.9959  1.0886
  298MOL0     H40211  13.267   0.665   5.732 -1.9592 -0.1771 -1.6790
  298MOL0     H40212  13.059   1.013   5.407 -0.8547  2.0732 -1.8640
  298MOL0     H40213  12.849   1.036   5.303 -1.1685 -0.5849 -2.0178
  298MOL0     H40214  11.012   1.302   5.014  0.7667  0.7230 -1.1445
  298MOL0     H40215  10.761   1.272   5.041  1.0876 -1.6274  1.0897
  298MOL0     H40216  10.440   1.419   5.279 -1.4732 -2.8813 -1.6763
  298MOL0     H40217  10.235   1.420   5.396  1.1828 -0.1351  0.8058
  298MOL0     H40218   9.905   1.718   5.265 -1.7571 -0.9591  1.0232
  298MOL0     H40219  10.042   1.775   5.360  0.4808 -0.7859 -0.4372
  298MOL0     H40220   9.947   1.684   5.558 -0.5253 -3.0639 -0.1343
  298MOL0     H40221   9.820   1.602   5.476  2.6337 -1.4068  0.9127
  298MOL0     H40222   9.711   1.815   5.421 -0.6925 -1.3473  1.6125
  298MOL0     H40223   9.859   1.904   5.461  1.4792 -1.8992 -1.4765
  298MOL0     H40224   9.682   1.770   5.679 -2.6717  2.3766  2.1370
  298MOL0     H40225   9.823   1.870   5.701  0.3194  0.5691 -0.7510
  298MOL0     H40226   9.503   2.131   5.574  1.2647 -0.5364 -3.2557
  298MOL0     H40227  10.075   1.704   5.119  0.8137 -0.6937 -0.8214
  298MOL0     H40228  10.343   1.701   4.883 -1.2860  1.0605 -1.9113
  298MOL0     H40229  10.208   1.795   4.942 -0.5731 -0.2638  0.3156
  298MOL0     H40230  10.355   1.836   5.015  0.0495 -1.1626  1.3792
  299MOL0     O40231   6.286   6.843   3.449 -0.4783 -0.7224  0.3223
  299MOL0     C40232   6.249   6.724   3.441  0.2446 -0.5969 -0.7927
  299MOL0     O40233   6.335   6.616   3.428 -0.3977  0.3950 -0.7349
  299MOL0     C40234   6.470   6.641   3.416  0.4273 -0.1818  0.3277
  299MOL0     C40235   6.528   6.676   3.296  0.2868 -0.1544 -0.4189
  299MOL0     C40236   6.667   6.685   3.294  0.2094 -0.2371  0.6185
  299MOL0     C40237   6.745   6.680   3.414 -0.3613 -0.4341 -0.6583
  299MOL0     O40238   6.887   6.693   3.424  0.3979  0.8938 -0.3410
  299MOL0     C40239   6.964   6.643   3.316 -0.7143  0.1561 -0.4668
  299MOL0     C40240   6.985   6.755   3.215 -0.3909  0.6784  0.2368
  299MOL0     C40241   7.004   6.690   3.074  0.1383 -0.3454 -0.0259
  299MOL0     C40242   7.149   6.656   3.051 -0.0737  0.0176 -0.8301
  299MOL0     C40243   7.225   6.785   3.023  0.3036  0.0374  0.3031
  299MOL0     C40244   7.363   6.743   2.964  0.5839 -0.3222 -0.3727
  299MOL0     C40245   7.459   6.868   2.949 -0.5666  1.1001  0.3674
  299MOL0     C40246   7.541   6.835   2.823  0.1289  1.0437 -0.0936
  299MOL0     N40247   7.638   6.726   2.832 -0.3020  0.3963  0.1707
  299MOL0     C40248   7.770   6.734   2.796  0.1530 -0.4175 -0.1089
  299MOL0     C40249   7.829   6.613   2.816  0.4503 -1.1683 -0.6526
  299MOL0     C40250   7.970   6.584   2.794 -0.0168 -0.5155  0.2072
  299MOL0     C40251   8.065   6.635   2.898  0.8464  0.0814  0.2382
  299MOL0     C40252   8.213   6.611   2.866 -0.0414 -0.6341  0.2513
  299MOL0     C40253   8.309   6.669   2.959 -0.5766  0.1777 -0.0734
  299MOL0     O40254   8.416   6.583   2.947 -0.3481  0.1760 -0.0368
  299MOL0     C40255   8.536   6.621   3.011  0.2615  0.2291 -0.1445
  299MOL0     C40256   8.557   6.712   3.116 -0.0875  0.1852 -0.3740
  299MOL0     C40257   8.686   6.737   3.164 -0.3485 -0.2202  0.2330
  299MOL0     C40258   8.797   6.672   3.122 -0.2471  0.3263 -0.9597
  299MOL0     C40259   8.932   6.707   3.171 -0.3875  0.3754  0.1341
  299MOL0     O40260   8.944   6.783   3.283 -0.4663  0.0122  0.1673
  299MOL0     C40261   9.066   6.787   3.340 -0.3792 -0.3508 -0.2047
  299MOL0     C40262   9.092   6.689   3.442  0.4218  0.2186 -0.0102
  299MOL0     C40263   9.213   6.692   3.509 -0.7919  0.3002 -0.9421
  299MOL0     C40264   9.315   6.780   3.476 -0.0996  0.8388  0.4173
  299MOL0     O40265   9.450   6.769   3.523  0.3787  0.7157 -0.1797
  299MOL0     C40266   9.463   6.736   3.665 -0.3067  0.1001  0.3892
  299MOL0     C40267   9.585   6.784   3.732 -0.5966 -0.4940 -0.0931
  299MOL0     C40268   9.714   6.769   3.649 -0.3845 -0.3529 -0.0122
  299MOL0     C40269   9.829   6.787   3.736 -0.1972 -0.0933 -0.2870
  299MOL0     C40270   9.961   6.770   3.656 -0.3030 -0.2562  0.2409
  299MOL0     C40271  10.076   6.804   3.753 -0.3126  0.1676 -0.5105
  299MOL0     C40272  10.216   6.793   3.684 -0.7118  0.0635  0.8349
  299MOL0     C40273  10.346   6.811   3.764  0.8134  0.2178 -0.2653
  299MOL0    Cl40274  10.492   6.785   3.654  0.1967 -0.5238 -0.0340
  299MOL0     C40275   9.297   6.864   3.366 -0.1183  0.0046  0.1632
  299MOL0     C40276   9.179   6.869   3.301  0.0071  0.4120 -0.6278
  299MOL0     O40277   9.025   6.661   3.108  0.5662 -0.0745  0.0590
  299MOL0     C40278   8.776   6.580   3.019 -0.5059  0.6993  0.0430
  299MOL0     C40279   8.649   6.552   2.962  0.3273 -0.5014  0.0111
  299MOL0     N40280   7.730   6.531   2.865  0.3207 -1.4093 -0.0465
  299MOL0     N40281   7.619   6.597   2.870 -0.2200 -0.0566  0.3638
  299MOL0     C40282   6.682   6.654   3.537 -0.6207 -0.1531  0.2045
  299MOL0     C40283   6.545   6.646   3.535 -0.2213  0.3126 -0.0514
  299MOL0     C40284   6.101   6.699   3.446  1.1513  0.0221  0.6735
  299MOL0     C40285   6.066   6.562   3.452 -0.2748 -0.3425  0.7268
  299MOL0     C40286   5.937   6.517   3.467  0.2660 -0.8442  0.7933
  299MOL0     C40287   5.832   6.618   3.450 -0.1119  0.2246  0.1660
  299MOL0     O40288   5.701   6.592   3.482  0.0182 -0.5250  0.7732
  299MOL0     C40289   5.617   6.599   3.362 -0.5062  0.8546 -0.4685
  299MOL0     C40290   5.461   6.566   3.383  0.0556  0.4983  1.2633
  299MOL0     C40291   5.447   6.426   3.431 -0.2101  0.2625 -0.0361
  299MOL0     C40292   5.296   6.381   3.426  0.1239 -1.2461 -0.0086
  299MOL0     C40293   5.285   6.238   3.458 -0.2573 -0.4538  0.6494
  299MOL0     C40294   5.264   6.125   3.499  0.6365  0.0918  0.9015
  299MOL0     C40295   5.863   6.747   3.441 -0.4566  0.3402  0.4296
  299MOL0     C40296   5.999   6.799   3.443 -0.3112 -0.7696 -0.4997
  299MOL0     C40297   6.018   6.944   3.464 -0.9285 -1.0753  0.4499
  299MOL0     H40298   6.463   6.681   3.209  1.9483 -1.4185 -1.8204
  299MOL0     H40299   6.713   6.712   3.200  0.3950  2.3143  1.3855
  299MOL0     H40300   7.057   6.606   3.359 -1.8255 -0.8655  1.1765
  299MOL0     H40301   6.913   6.556   3.275 -0.7840  1.2326 -2.8242
  299MOL0     H40302   7.072   6.817   3.241  0.4924 -0.0123 -0.9840
  299MOL0     H40303   6.896   6.818   3.221 -0.4794  0.5341  0.4731
  299MOL0     H40304   6.963   6.747   2.989  0.8388 -0.6035 -0.5438
  299MOL0     H40305   6.949   6.595   3.069  3.0181 -2.1152 -0.4734
  299MOL0     H40306   7.194   6.595   3.129 -0.4947 -1.2931 -1.5873
  299MOL0     H40307   7.153   6.592   2.963 -0.0469 -2.0294  0.6026
  299MOL0     H40308   7.177   6.847   2.947 -0.3204 -0.1609  0.5337
  299MOL0     H40309   7.226   6.841   3.117 -2.2940  0.9020 -0.1168
  299MOL0     H40310   7.410   6.671   3.032  0.2017 -2.9681 -2.7470
  299MOL0     H40311   7.347   6.679   2.877 -2.0423 -1.1700  0.6360
  299MOL0     H40312   7.530   6.865   3.032 -2.2906 -1.7065  1.9167
  299MOL0     H40313   7.402   6.961   2.938 -2.9744  0.1592  3.4512
  299MOL0     H40314   7.466   6.816   2.746  1.1606  0.4684 -0.9847
  299MOL0     H40315   7.599   6.925   2.798 -1.5121  1.6682 -1.9987
  299MOL0     H40316   7.804   6.821   2.739 -1.8135  0.5733  0.1388
  299MOL0     H40317   7.979   6.475   2.785 -2.4439 -0.7877  0.5693
  299MOL0     H40318   7.992   6.635   2.699 -2.0106 -3.2672 -1.9226
  299MOL0     H40319   8.042   6.742   2.903  0.6940  0.0816 -0.3147
  299MOL0     H40320   8.038   6.592   2.995  0.2965  1.7265  0.8346
  299MOL0     H40321   8.238   6.648   2.766 -2.0921  0.2450  0.0221
  299MOL0     H40322   8.224   6.502   2.869  4.0095 -0.4141 -0.4276
  299MOL0     H40323   8.258   6.683   3.055 -1.6692  1.0027 -0.7585
  299MOL0     H40324   8.340   6.765   2.919  1.2648 -0.4878 -0.3510
  299MOL0     H40325   8.465   6.757   3.152  0.5298  0.3560  1.0461
  299MOL0     H40326   8.701   6.821   3.231  0.9304  0.2587 -0.6197
  299MOL0     H40327   9.029   6.602   3.461  1.9467 -0.5013  2.2081
  299MOL0     H40328   9.233   6.625   3.591 -1.6115  1.8914  0.6257
  299MOL0     H40329   9.382   6.774   3.728 -0.4524  0.7989 -0.2136
  299MOL0     H40330   9.463   6.629   3.688 -3.2312  0.1333  0.9758
  299MOL0     H40331   9.581   6.894   3.734  1.9374 -0.3487 -0.0455
  299MOL0     H40332   9.589   6.745   3.834 -1.6702 -0.3344  0.0252
  299MOL0     H40333   9.717   6.674   3.596  0.0557 -1.3385  1.7108
  299MOL0     H40334   9.719   6.838   3.565 -2.2267 -0.3662 -0.1838
  299MOL0     H40335   9.837   6.726   3.826 -1.0063  0.1273 -0.0576
  299MOL0     H40336   9.820   6.887   3.780  2.1735  1.1390 -2.3289
  299MOL0     H40337   9.978   6.830   3.566  1.0953 -1.9417 -0.6808
  299MOL0     H40338   9.974   6.665   3.630 -0.1133 -0.3631  0.7459
  299MOL0     H40339  10.074   6.910   3.782 -1.0775  0.6614 -2.2415
  299MOL0     H40340  10.076   6.749   3.848  2.7903 -0.2870 -0.6794
  299MOL0     H40341  10.220   6.872   3.609 -2.3812  1.3067  1.9927
  299MOL0     H40342  10.233   6.696   3.636 -1.2953  1.3277 -2.1016
  299MOL0     H40343  10.339   6.913   3.802 -0.0646 -0.0275  0.2647
  299MOL0     H40344  10.346   6.737   3.844 -0.8306 -2.2893 -2.4036
  299MOL0     H40345   9.387   6.920   3.344  0.3904 -0.4755  0.9385
  299MOL0     H40346   9.145   6.936   3.223 -2.4618 -0.5497 -0.4787
  299MOL0     H40347   8.864   6.534   2.975 -0.2837  2.4645 -1.4358
  299MOL0     H40348   8.640   6.480   2.882 -0.1066 -0.1050 -0.3072
  299MOL0     H40349   6.740   6.659   3.629  1.1981 -0.1046 -0.9062
  299MOL0     H40350   6.493   6.622   3.627 -0.2258  0.1442 -0.0985
  299MOL0     H40351   6.144   6.490   3.475  2.3602  2.8757  2.7049
  299MOL0     H40352   5.926   6.413   3.499 -1.2366 -0.8232  0.4469
  299MOL0     H40353   5.650   6.528   3.286 -1.3427 -1.5023  1.2541
  299MOL0     H40354   5.617   6.696   3.310 -1.3448 -0.9475 -4.1791
  299MOL0     H40355   5.415   6.582   3.285  2.2679 -2.1481 -0.3545
  299MOL0     H40356   5.419   6.638   3.454 -0.6859  1.0796  0.2534
  299MOL0     H40357   5.469   6.419   3.538 -2.9715  0.2680  0.5917
  299MOL0     H40358   5.509   6.361   3.368 -0.6308  0.8132 -1.0496
  299MOL0     H40359   5.240   6.445   3.495  2.6992  0.5783  0.5443
  299MOL0     H40360   5.247   6.394   3.329  0.1043  1.4976  0.3064
  299MOL0     H40361   5.224   6.032   3.534 -1.3696  1.0289  1.2433
  299MOL0     H40362   5.784   6.821   3.433 -0.3002  0.5781  1.0661
  299MOL0     H40363   6.035   6.982   3.363  1.1255 -2.3047  0.2871
  299MOL0     H40364   5.928   6.982   3.515  0.4434 -1.8019  3.7126
  299MOL0     H40365   6.101   6.961   3.534 -2.5688  1.2055  2.0139
  300MOL0     O40366   0.710   9.082   9.068 -0.9307  0.1750 -0.7736
  300MOL0     C40367   0.664   8.970   9.037 -0.7477 -0.1327 -0.3253
  300MOL0     O40368   0.721   8.884   8.951  0.4203  0.2959  0.3762
  300MOL0     C40369   0.844   8.924   8.893  0.2874  0.1543  0.4118
  300MOL0     C40370   0.953   8.840   8.917  0.7611  0.2029  0.0458
  300MOL0     C40371   1.077   8.885   8.876  0.4238  0.2235  0.7563
  300MOL0     C40372   1.103   8.998   8.800 -0.4504  1.3486 -0.3269
  300MOL0     O40373   1.226   9.037   8.749  0.2626 -0.0109 -0.2932
  300MOL0     C40374   1.337   8.950   8.768  0.1176 -0.3441 -0.3703
  300MOL0     C40375   1.462   9.009   8.691  0.1739 -0.2245  0.5250
  300MOL0     C40376   1.584   9.071   8.763 -0.7411 -0.2664 -1.0436
  300MOL0     C40377   1.698   9.105   8.655 -0.3505 -0.4519  0.1245
  300MOL0     C40378   1.671   9.234   8.567 -0.2614 -0.1454  0.2680
  300MOL0     C40379   1.654   9.362   8.649 -0.0875  0.2090 -0.3349
  300MOL0     C40380   1.659   9.486   8.567  0.2214  0.2198  0.4539
  300MOL0     C40381   1.644   9.621   8.642  0.5887  0.6574  0.0381
  300MOL0     N40382   1.703   9.731   8.570 -0.1746  0.1027 -0.6017
  300MOL0     C40383   1.840   9.764   8.584  0.0223  0.4389  0.2888
  300MOL0     C40384   1.865   9.850   8.479 -0.4274  0.4806 -1.0425
  300MOL0     C40385   1.997   9.921   8.459  0.8020 -0.2336 -0.3380
  300MOL0     C40386   2.051   9.981   8.590 -0.5430  0.4122 -0.4872
  300MOL0     C40387   2.168  10.078   8.566 -0.5062  0.4766 -0.6536
  300MOL0     C40388   2.295   9.988   8.583 -0.0680 -0.2413  0.1768
  300MOL0     O40389   2.306   9.955   8.724 -0.1379 -0.2247  0.1069
  300MOL0     C40390   2.432   9.900   8.753  0.2647  0.1295 -0.2688
  300MOL0     C40391   2.453   9.866   8.886 -0.3626 -0.9056  1.2675
  300MOL0     C40392   2.571   9.807   8.925 -0.2493 -0.1432  0.4632
  300MOL0     C40393   2.675   9.774   8.832  0.1124 -0.2436 -0.5438
  300MOL0     C40394   2.805   9.721   8.877  0.0762  0.1734  0.6311
  300MOL0     O40395   2.906   9.739   8.787  0.3210  0.4356 -0.5933
  300MOL0     C40396   3.042   9.724   8.827  0.4458  0.0777 -0.5622
  300MOL0     C40397   3.122   9.658   8.735 -0.5910 -0.2067  0.2542
  300MOL0     C40398   3.260   9.638   8.763 -0.4914  0.5039 -0.8220
  300MOL0     C40399   3.318   9.684   8.886  0.4202 -0.2827 -0.8661
  300MOL0     O40400   3.448   9.686   8.918  0.0202  0.5103 -0.2934
  300MOL0     C40401   3.524   9.567   8.887  0.5917  0.0235 -0.4644
  300MOL0     C40402   3.599   9.497   9.004  0.2057 -0.1296  0.0227
  300MOL0     C40403   3.683   9.595   9.088  0.5006  0.9252 -0.0074
  300MOL0     C40404   3.726   9.525   9.218 -0.3053 -0.4532 -0.7424
  300MOL0     C40405   3.807   9.613   9.311  0.7176  0.3324 -0.5806
  300MOL0     C40406   3.885   9.533   9.417 -0.7363 -0.7190  0.3523
  300MOL0     C40407   3.955   9.630   9.520 -0.2297  0.0702  0.5537
  300MOL0     C40408   4.046   9.552   9.621  0.1751  0.0888 -0.1094
  300MOL0    Cl40409   4.172   9.445   9.562 -0.2111  0.1299  0.1112
  300MOL0     C40410   3.231   9.758   8.972  0.7211 -0.0365  0.0809
  300MOL0     C40411   3.096   9.781   8.944  0.2027 -0.0662 -0.5978
  300MOL0     O40412   2.811   9.669   8.984  0.5148 -0.0455  0.3717
  300MOL0     C40413   2.656   9.805   8.705 -0.0956  0.0361  0.2804
  300MOL0     C40414   2.541   9.871   8.670  0.0902 -0.0473  0.7090
  300MOL0     N40415   1.748   9.855   8.402 -0.4934  0.1926 -1.1107
  300MOL0     N40416   1.661   9.772   8.448  0.4200 -0.7671  0.1339
  300MOL0     C40417   0.990   9.079   8.777 -0.0745 -1.1702  0.4733
  300MOL0     C40418   0.860   9.038   8.814  0.1898 -0.1208  0.3326
  300MOL0     C40419   0.535   8.924   9.093 -0.4784 -0.4459 -0.7823
  300MOL0     C40420   0.489   8.795   9.055 -0.5714 -0.0353  0.3060
  300MOL0     C40421   0.372   8.742   9.104  0.8800 -0.0563  1.0835
  300MOL0     C40422   0.285   8.813   9.188  0.0414  0.5855 -0.0715
  300MOL0     O40423   0.167   8.755   9.241 -0.1668 -0.1140 -0.0468
  300MOL0     C40424   0.154   8.612   9.221 -0.0759 -0.3511 -0.0377
  300MOL0     C40425   0.052   8.555   9.318 -0.3698  0.6114 -1.1498
  300MOL0     C40426   0.061   8.406   9.297 -0.1981 -0.4358 -0.1448
  300MOL0     C40427  -0.001   8.309   9.405 -0.2363  0.3095  0.5102
  300MOL0     C40428  -0.005   8.169   9.362  0.3193  0.6085  0.1676
  300MOL0     C40429   0.005   8.054   9.311 -0.4178  0.7265  0.0509
  300MOL0     C40430   0.336   8.933   9.229 -0.6436 -0.0717  0.1663
  300MOL0     C40431   0.457   8.996   9.182  1.0127 -0.1463  0.2585
  300MOL0     C40432   0.487   9.129   9.245  0.5596  0.2042 -0.0217
  300MOL0     H40433   0.949   8.743   8.965  0.2533 -0.2676 -0.9191
  300MOL0     H40434   1.160   8.823   8.907 -0.6658 -0.5055  2.3466
  300MOL0     H40435   1.353   8.934   8.875  0.2037 -0.2158 -0.3631
  300MOL0     H40436   1.322   8.853   8.720 -0.8287 -0.0510 -0.6961
  300MOL0     H40437   1.425   9.093   8.631  1.3856  0.2191  0.3691
  300MOL0     H40438   1.499   8.927   8.629 -0.0322 -1.7858  2.3751
  300MOL0     H40439   1.618   8.999   8.838  1.7601  1.0214 -0.8199
  300MOL0     H40440   1.551   9.158   8.822  0.4681  0.2355 -1.0690
  300MOL0     H40441   1.797   9.127   8.698  1.2621  0.7242 -3.8033
  300MOL0     H40442   1.708   9.014   8.596 -0.3146 -1.0887  1.0876
  300MOL0     H40443   1.746   9.248   8.488 -0.2356  0.2134  0.3539
  300MOL0     H40444   1.583   9.218   8.505 -0.2253  0.9984 -0.1196
  300MOL0     H40445   1.559   9.363   8.704 -0.4414 -0.4864 -0.9066
  300MOL0     H40446   1.744   9.366   8.710  0.4431  0.6491 -1.1272
  300MOL0     H40447   1.587   9.496   8.485 -0.6244  1.3406  1.3015
  300MOL0     H40448   1.755   9.480   8.516 -0.4208 -1.1982 -0.6643
  300MOL0     H40449   1.536   9.640   8.647  0.5657  0.3544  1.0365
  300MOL0     H40450   1.681   9.614   8.745 -1.3209  1.2990  0.8190
  300MOL0     H40451   1.912   9.729   8.657  1.4255  0.2971 -1.1119
  300MOL0     H40452   2.066   9.845   8.421  1.7415  0.0044  0.8308
  300MOL0     H40453   1.984  10.002   8.387  0.6149  1.7917  1.8657
  300MOL0     H40454   1.972  10.040   8.637  1.0802  1.7420  0.6826
  300MOL0     H40455   2.076   9.908   8.667 -1.6105  2.6879  2.1968
  300MOL0     H40456   2.174  10.161   8.637 -0.5243 -1.8430  2.2440
  300MOL0     H40457   2.155  10.118   8.465 -3.5793  0.6308 -0.2900
  300MOL0     H40458   2.376  10.058   8.558 -2.6119  3.1059  0.5667
  300MOL0     H40459   2.305   9.902   8.516 -1.7227 -1.0144  0.8789
  300MOL0     H40460   2.380   9.890   8.963  1.7772 -0.1412  3.1605
  300MOL0     H40461   2.588   9.789   9.030  0.0336 -1.2167  0.2439
  300MOL0     H40462   3.072   9.615   8.650 -4.3488  1.1638  1.5758
  300MOL0     H40463   3.332   9.593   8.696  0.8752  2.2072 -0.5699
  300MOL0     H40464   3.465   9.494   8.830 -0.2806  0.3124  0.0444
  300MOL0     H40465   3.594   9.608   8.814  1.5746  1.6308  1.2880
  300MOL0     H40466   3.529   9.442   9.066 -1.5087  1.2258 -0.6349
  300MOL0     H40467   3.670   9.423   8.964  0.2471 -0.1108  0.0623
  300MOL0     H40468   3.770   9.631   9.031  1.0083  1.5048  1.0998
  300MOL0     H40469   3.618   9.676   9.122 -2.7740 -1.4152 -0.2021
  300MOL0     H40470   3.784   9.434   9.200  0.4203 -0.3189  0.7613
  300MOL0     H40471   3.637   9.491   9.271 -0.1847 -2.4712 -1.7138
  300MOL0     H40472   3.731   9.679   9.354 -0.5390  0.4230 -2.7521
  300MOL0     H40473   3.874   9.663   9.241  1.1013 -0.1612 -0.5720
  300MOL0     H40474   3.806   9.474   9.464 -0.6793  0.2417  1.7008
  300MOL0     H40475   3.960   9.475   9.361 -0.0839 -0.3068  0.7773
  300MOL0     H40476   3.878   9.683   9.576 -1.8782 -1.3829 -0.2558
  300MOL0     H40477   4.017   9.699   9.461 -1.5090 -0.6130 -1.7177
  300MOL0     H40478   4.105   9.622   9.681  3.9617 -0.1925 -3.0995
  300MOL0     H40479   3.982   9.493   9.688 -1.1607  2.2694  0.6242
  300MOL0     H40480   3.258   9.805   9.066 -1.9723  2.1285 -0.1133
  300MOL0     H40481   3.022   9.842   8.995 -0.5779  3.3317 -5.1785
  300MOL0     H40482   2.727   9.776   8.628 -0.8502 -2.1039  0.3120
  300MOL0     H40483   2.541   9.899   8.565 -0.5520  2.0196  1.2009
  300MOL0     H40484   1.006   9.176   8.731  1.7031 -0.9283  1.5527
  300MOL0     H40485   0.768   9.089   8.788  1.1338  1.1603 -0.6815
  300MOL0     H40486   0.548   8.723   8.999  1.0413  0.3799  1.4132
  300MOL0     H40487   0.358   8.636   9.089 -0.7592 -0.0304  2.1746
  300MOL0     H40488   0.252   8.570   9.244  1.3929  1.9459 -1.6334
  300MOL0     H40489   0.123   8.589   9.118  0.2061 -0.5423 -0.0807
  300MOL0     H40490  -0.049   8.596   9.302 -0.5353  0.6798  0.0089
  300MOL0     H40491   0.094   8.578   9.416  0.7472 -1.1442 -1.1705
  300MOL0     H40492   0.164   8.370   9.287  0.0001 -0.7558  2.2759
  300MOL0     H40493   0.008   8.383   9.204  0.9020 -0.1784 -0.8482
  300MOL0     H40494   0.062   8.309   9.494  0.2824 -1.7261  0.1807
  300MOL0     H40495  -0.100   8.341   9.439 -0.8122 -0.0457 -0.7486
  300MOL0     H40496   0.030   7.960   9.267  0.4025  0.3718  1.2154
  300MOL0     H40497   0.273   8.995   9.293  1.3865  2.1088  0.1916
  300MOL0     H40498   0.403   9.163   9.307 -1.0218 -0.9511 -1.4215
  300MOL0     H40499   0.588   9.116   9.285  0.3625 -1.6313 -0.0402
  300MOL0     H40500   0.494   9.204   9.167 -1.1125  0.0337 -0.3829
  301MOL0     O40501   3.696   1.981   8.078 -0.2804  0.4614 -0.1932
  301MOL0     C40502   3.638   1.977   7.971 -0.0087  0.0303 -0.5453
  301MOL0     O40503   3.693   1.948   7.843 -0.1845 -0.4020 -0.2826
  301MOL0     C40504   3.826   1.912   7.840  0.1310 -0.0026 -0.6934
  301MOL0     C40505   3.932   1.984   7.900 -0.0279 -0.0106  0.6961
  301MOL0     C40506   4.064   1.926   7.903 -0.1867  0.1660 -0.6470
  301MOL0     C40507   4.093   1.810   7.830  0.8429  0.3185 -0.6134
  301MOL0     O40508   4.216   1.754   7.810  0.2227 -0.3118 -0.1056
  301MOL0     C40509   4.319   1.784   7.903 -0.0323 -0.1810 -1.2922
  301MOL0     C40510   4.456   1.721   7.853 -0.0904 -0.2287  0.2901
  301MOL0     C40511   4.582   1.776   7.909 -1.4451 -0.6819 -0.1052
  301MOL0     C40512   4.683   1.672   7.941 -1.0617  0.4192 -0.3826
  301MOL0     C40513   4.807   1.738   8.017  0.6955  0.3828 -0.2938
  301MOL0     C40514   4.914   1.637   8.033  0.9708 -0.5088  0.4934
  301MOL0     C40515   5.035   1.697   8.116  0.6221  1.1149  0.3252
  301MOL0     C40516   5.135   1.772   8.016  0.5569  0.9294 -0.0217
  301MOL0     N40517   5.237   1.834   8.097 -1.1441  0.5363  0.6186
  301MOL0     C40518   5.245   1.962   8.132  0.2375 -0.2791  0.6166
  301MOL0     C40519   5.372   1.984   8.171 -0.0498  0.7876 -0.9207
  301MOL0     C40520   5.451   2.105   8.209 -0.4877  0.7534 -0.0109
  301MOL0     C40521   5.425   2.126   8.360  0.7190 -0.1518  0.2621
  301MOL0     C40522   5.495   2.258   8.403  0.0653  0.0830 -0.3579
  301MOL0     C40523   5.435   2.302   8.542 -0.2167  0.2918  0.7295
  301MOL0     O40524   5.450   2.444   8.562  0.3940  0.3651  0.7602
  301MOL0     C40525   5.544   2.504   8.640 -0.7423 -0.3456 -0.5410
  301MOL0     C40526   5.563   2.646   8.635  0.3281 -0.1284 -0.5272
  301MOL0     C40527   5.672   2.707   8.696  0.0413  0.2888  0.8870
  301MOL0     C40528   5.782   2.627   8.749 -0.3372 -0.7355 -0.1946
  301MOL0     C40529   5.908   2.691   8.794 -0.1386  0.0528  0.4141
  301MOL0     O40530   5.905   2.824   8.793 -0.1119  0.2333 -0.3144
  301MOL0     C40531   6.013   2.894   8.834 -0.3354  0.1699  0.3066
  301MOL0     C40532   6.033   3.010   8.763  0.1090  0.7471  0.1709
  301MOL0     C40533   6.133   3.095   8.808  0.2829  0.1781 -0.6891
  301MOL0     C40534   6.215   3.069   8.920  0.5547 -0.2184  0.1622
  301MOL0     O40535   6.305   3.145   8.992 -0.2476 -0.4024  0.5914
  301MOL0     C40536   6.377   3.252   8.916  0.6902  0.2743  0.1818
  301MOL0     C40537   6.484   3.333   8.997 -0.2112  0.9509  0.2653
  301MOL0     C40538   6.572   3.428   8.910 -0.3365  0.6115 -0.7972
  301MOL0     C40539   6.682   3.493   8.987 -0.1623  0.1608  0.0801
  301MOL0     C40540   6.761   3.580   8.887 -0.1013 -0.1381  0.3939
  301MOL0     C40541   6.870   3.647   8.961 -0.4162  0.2793  0.2265
  301MOL0     C40542   6.942   3.756   8.881 -0.1005  0.6329 -0.3507
  301MOL0     C40543   7.023   3.858   8.966  0.4210 -0.1653  0.0384
  301MOL0    Cl40544   7.059   3.986   8.855 -0.2058  0.0599 -0.3130
  301MOL0     C40545   6.197   2.941   8.978 -0.5266  0.3882  0.2826
  301MOL0     C40546   6.095   2.858   8.942  0.4942  0.4851  0.3067
  301MOL0     O40547   6.005   2.618   8.827  0.0252 -0.7241  0.1579
  301MOL0     C40548   5.764   2.490   8.757 -0.2814  0.3235 -0.5046
  301MOL0     C40549   5.650   2.431   8.700 -0.4073  0.1201  0.9552
  301MOL0     N40550   5.435   1.863   8.177 -0.7198  0.2215  0.4550
  301MOL0     N40551   5.356   1.769   8.132 -0.3174 -0.4701 -0.2057
  301MOL0     C40552   3.985   1.747   7.763  0.0745  0.1270  0.2776
  301MOL0     C40553   3.851   1.797   7.772 -0.2317  0.6428 -0.0059
  301MOL0     C40554   3.490   2.000   7.968  0.3071 -0.3761 -0.1364
  301MOL0     C40555   3.406   1.912   7.900  0.1417  0.4888 -0.2396
  301MOL0     C40556   3.268   1.947   7.881  0.7212  0.1869  0.2728
  301MOL0     C40557   3.219   2.065   7.934 -0.2982  0.4619  0.1518
  301MOL0     O40558   3.087   2.086   7.915  0.8868 -0.2672 -0.3797
  301MOL0     C40559   3.042   2.224   7.952  0.0050 -0.7369  0.0480
  301MOL0     C40560   2.897   2.224   7.925 -0.0082  0.1679 -0.3399
  301MOL0     C40561   2.829   2.359   7.937  0.4556  0.6073 -0.4185
  301MOL0     C40562   2.811   2.392   8.088  0.3633 -0.0279 -0.1542
  301MOL0     C40563   2.716   2.498   8.115 -0.2105  1.1694 -0.0898
  301MOL0     C40564   2.624   2.570   8.137  0.2267 -0.2851 -0.2014
  301MOL0     C40565   3.299   2.135   8.021  0.2078  0.2327  0.4665
  301MOL0     C40566   3.431   2.103   8.035 -0.3917  0.3526 -0.3103
  301MOL0     C40567   3.501   2.195   8.126 -0.2301 -0.0895 -0.0237
  301MOL0     H40568   3.915   2.078   7.952 -0.2358 -0.7226  1.9556
  301MOL0     H40569   4.139   1.989   7.948  0.9293 -1.7341  0.3025
  301MOL0     H40570   4.339   1.891   7.904 -2.4889  0.3763  0.6209
  301MOL0     H40571   4.282   1.741   7.997 -0.6744  1.7099 -0.6293
  301MOL0     H40572   4.459   1.732   7.744  1.6029  0.1672  0.3498
  301MOL0     H40573   4.450   1.614   7.873  1.9169 -0.7540 -1.4565
  301MOL0     H40574   4.567   1.831   8.002  1.8333  0.0955  0.0945
  301MOL0     H40575   4.627   1.855   7.850  0.8252  0.4670  2.8784
  301MOL0     H40576   4.633   1.602   8.009 -0.6024  0.4753  0.0196
  301MOL0     H40577   4.720   1.632   7.846  0.5738  1.2614 -0.1444
  301MOL0     H40578   4.843   1.818   7.951  0.1071  0.1153 -0.9446
  301MOL0     H40579   4.765   1.774   8.112  1.0123 -0.0912  0.0311
  301MOL0     H40580   4.877   1.548   8.086  0.3663 -0.9487 -0.6382
  301MOL0     H40581   4.942   1.599   7.934 -3.1918 -1.5509 -0.4786
  301MOL0     H40582   5.090   1.609   8.152  0.1736 -0.0319 -1.6572
  301MOL0     H40583   5.013   1.760   8.203  0.4229  0.6968  0.5861
  301MOL0     H40584   5.165   1.689   7.952  0.0254  0.2542  0.5885
  301MOL0     H40585   5.086   1.848   7.955  1.2654  0.5656 -1.0782
  301MOL0     H40586   5.166   2.033   8.111 -0.8656 -1.4226  0.7699
  301MOL0     H40587   5.556   2.083   8.188 -0.3182  2.0305 -0.5514
  301MOL0     H40588   5.413   2.185   8.145  1.3061  0.2361 -1.8127
  301MOL0     H40589   5.318   2.122   8.380  0.7443 -3.2023  0.1961
  301MOL0     H40590   5.476   2.056   8.427 -1.0404 -0.6286  1.1625
  301MOL0     H40591   5.480   2.337   8.329 -0.0923 -0.1870 -0.6208
  301MOL0     H40592   5.603   2.242   8.412  0.1387 -1.3201 -2.6421
  301MOL0     H40593   5.469   2.240   8.625  0.8586  0.7630  0.6464
  301MOL0     H40594   5.326   2.297   8.528 -0.2523 -0.0560  1.0954
  301MOL0     H40595   5.476   2.699   8.597 -0.1965 -2.0865 -2.2125
  301MOL0     H40596   5.679   2.815   8.684 -0.2293  0.0329 -2.5987
  301MOL0     H40597   5.961   3.041   8.689  2.1764  1.5145 -1.6287
  301MOL0     H40598   6.142   3.190   8.757 -1.1007  1.2674  0.9881
  301MOL0     H40599   6.428   3.205   8.832  1.4761 -1.6603  1.6684
  301MOL0     H40600   6.313   3.330   8.874 -1.4441 -1.2936  0.3613
  301MOL0     H40601   6.439   3.395   9.075  0.3315  0.0479  1.3271
  301MOL0     H40602   6.547   3.260   9.048 -2.7943 -1.6395  0.0065
  301MOL0     H40603   6.601   3.363   8.827 -0.0540  1.5322 -1.4316
  301MOL0     H40604   6.506   3.504   8.869 -2.4357 -1.1820 -0.9303
  301MOL0     H40605   6.738   3.419   9.045  0.2879 -0.6644 -1.3610
  301MOL0     H40606   6.643   3.561   9.064 -1.5638  1.2093 -1.4781
  301MOL0     H40607   6.695   3.653   8.841  1.5624  0.6503 -0.8189
  301MOL0     H40608   6.796   3.520   8.802  1.6494 -0.2367  1.1357
  301MOL0     H40609   6.833   3.684   9.057 -1.3489 -0.7154  0.2792
  301MOL0     H40610   6.946   3.573   8.986 -0.8593  0.3552  1.9498
  301MOL0     H40611   6.860   3.813   8.836 -3.3202 -2.8760  0.5776
  301MOL0     H40612   7.000   3.715   8.797 -0.1428  0.0397 -0.0950
  301MOL0     H40613   6.953   3.895   9.042  0.2561 -0.3906 -0.0025
  301MOL0     H40614   7.110   3.809   9.011  1.2464  0.5155 -0.7852
  301MOL0     H40615   6.258   2.918   9.064 -0.9732 -2.2278 -0.0224
  301MOL0     H40616   6.068   2.767   8.994 -3.4626  1.1265 -0.2976
  301MOL0     H40617   5.847   2.434   8.798 -1.7287 -0.2893  1.7745
  301MOL0     H40618   5.645   2.322   8.700  3.1501 -0.1921 -1.7609
  301MOL0     H40619   3.991   1.656   7.704 -0.9172  0.0388  0.2877
  301MOL0     H40620   3.771   1.742   7.723 -2.7669  2.3514  1.9586
  301MOL0     H40621   3.450   1.825   7.852  0.7089  0.5833  0.1004
  301MOL0     H40622   3.195   1.892   7.822 -0.6632 -0.1193  2.1829
  301MOL0     H40623   3.093   2.305   7.899 -0.5821 -0.3612  0.0534
  301MOL0     H40624   3.060   2.249   8.057  0.3208  1.9607 -0.5706
  301MOL0     H40625   2.849   2.147   7.987 -1.4931  0.0416 -1.5854
  301MOL0     H40626   2.879   2.188   7.823  1.3765 -0.4247 -0.3996
  301MOL0     H40627   2.735   2.352   7.881  1.9312 -2.7230 -2.8259
  301MOL0     H40628   2.889   2.436   7.886 -3.3383  2.4123 -2.6643
  301MOL0     H40629   2.774   2.305   8.143  1.2576 -1.2968 -1.4867
  301MOL0     H40630   2.904   2.419   8.138  0.4856  1.8127 -1.2818
  301MOL0     H40631   2.538   2.618   8.177 -0.0341 -1.3688  0.5854
  301MOL0     H40632   3.255   2.220   8.071  0.2292  1.1979 -1.0918
  301MOL0     H40633   3.538   2.145   8.216  1.9534  0.9419 -0.3015
  301MOL0     H40634   3.589   2.233   8.073  0.5656 -3.5300 -1.4954
  301MOL0     H40635   3.442   2.283   8.153  0.3834  0.3550 -0.1086
  302MOL0     O40636  10.671   6.600   9.764 -0.2677  0.3968  0.4340
  302MOL0     C40637  10.632   6.572   9.881  0.2515  0.1577  0.6012
  302MOL0     O40638  10.700   6.505   9.973  0.0401 -0.4570 -0.1561
  302MOL0     C40639  10.830   6.484   9.976 -0.3907  0.1834 -0.1775
  302MOL0     C40640  10.862   6.364  10.050  0.1963  1.0321  0.3275
  302MOL0     C40641  10.998   6.341  10.066  0.8856  0.8323 -0.1050
  302MOL0     C40642  11.094   6.434  10.039  0.3548 -0.2388  0.3146
  302MOL0     O40643  11.230   6.410  10.052  0.0140  0.5416 -0.0365
  302MOL0     C40644  11.267   6.393  10.183  0.0833  0.2954  0.3458
  302MOL0     C40645  11.416   6.399  10.185 -0.3860 -0.0049 -0.0864
  302MOL0     C40646  11.471   6.520  10.109  0.9056 -0.0235 -0.2006
  302MOL0     C40647  11.624   6.552  10.145  0.3173  0.2661 -0.4595
  302MOL0     C40648  11.675   6.677  10.078  0.4639 -0.3628 -0.3249
  302MOL0     C40649  11.827   6.689  10.115 -0.0076  0.7633 -0.4792
  302MOL0     C40650  11.865   6.830  10.070 -0.0430  0.5332 -0.1263
  302MOL0     C40651  12.004   6.866  10.133 -0.3904  0.7191  0.6727
  302MOL0     N40652  12.100   6.757  10.121 -0.1601 -0.0171  0.4872
  302MOL0     C40653  12.152   6.697  10.009 -0.5549  0.6514 -0.1956
  302MOL0     C40654  12.254   6.612  10.046 -0.5431  0.4024 -0.3522
  302MOL0     C40655  12.330   6.508   9.965  0.0185 -1.0116  0.5735
  302MOL0     C40656  12.355   6.561   9.821 -0.0213  0.8222  0.0699
  302MOL0     C40657  12.447   6.459   9.752  0.0751  0.6401  0.2544
  302MOL0     C40658  12.594   6.471   9.785 -0.2492 -0.7148  0.6661
  302MOL0     O40659  12.672   6.398   9.690 -0.2856  0.0535  0.0931
  302MOL0     C40660  12.813   6.394   9.698  0.3509 -0.1206  0.2905
  302MOL0     C40661  12.888   6.357   9.582  0.0748  0.7392 -0.0418
  302MOL0     C40662  13.031   6.367   9.584 -0.6565  0.3234  0.3425
  302MOL0     C40663  13.104   6.406   9.701 -1.4279 -0.7801  0.6057
  302MOL0     C40664  13.252   6.401   9.711  0.4011  0.7679 -0.3056
  302MOL0     O40665  13.309   6.408   9.584 -0.5412  0.1475 -0.6862
  302MOL0     C40666  13.443   6.367   9.575 -1.1146 -0.6196  0.2584
  302MOL0     C40667  13.548   6.451   9.527  0.8387  0.3310  0.4503
  302MOL0     C40668  13.680   6.411   9.491  0.0219 -0.1003 -0.2694
  302MOL0     C40669  13.717   6.281   9.524 -0.2518 -0.1841 -1.0603
  302MOL0     O40670  13.843   6.234   9.495  0.0722 -0.1243  0.2893
  302MOL0     C40671  13.883   6.100   9.523 -0.4193  0.3703 -0.3776
  302MOL0     C40672  14.028   6.070   9.475 -0.2920  1.2467  0.7404
  302MOL0     C40673  14.055   5.920   9.496 -0.9737  0.6497 -0.0472
  302MOL0     C40674  14.102   5.892   9.642  0.4403  0.0265 -0.0219
  302MOL0     C40675  14.189   5.764   9.659  0.4748 -0.5296  0.1335
  302MOL0     C40676  14.328   5.784   9.611 -0.2448 -0.3316  0.0718
  302MOL0     C40677  14.421   5.674   9.661 -0.0831 -0.2786 -0.2803
  302MOL0     C40678  14.560   5.694   9.597  0.0605 -0.2246  0.0794
  302MOL0    Cl40679  14.675   5.587   9.684 -0.0158 -0.2534 -0.1807
  302MOL0     C40680  13.622   6.193   9.586  0.0011  0.0169 -0.6854
  302MOL0     C40681  13.486   6.236   9.619  0.7012 -0.2711  0.0386
  302MOL0     O40682  13.304   6.388   9.819 -0.2429 -0.5415  0.3875
  302MOL0     C40683  13.025   6.443   9.812  0.4343 -0.7571 -0.2322
  302MOL0     C40684  12.889   6.447   9.803  0.6075 -0.2144 -0.0703
  302MOL0     N40685  12.262   6.625  10.185 -0.3212  0.2840 -0.3225
  302MOL0     N40686  12.167   6.703  10.227 -0.4120 -0.2381  0.6948
  302MOL0     C40687  11.057   6.556   9.985  0.1052  0.5092 -0.3382
  302MOL0     C40688  10.924   6.580   9.942 -0.1359  0.4482 -0.3284
  302MOL0     C40689  10.492   6.597   9.919  0.4846 -0.6780  0.4236
  302MOL0     C40690  10.433   6.531  10.029 -0.1566  0.6007  0.6111
  302MOL0     C40691  10.305   6.533  10.070  0.3831  0.0643 -0.8060
  302MOL0     C40692  10.218   6.619  10.001  0.4107  0.6479  0.4963
  302MOL0     O40693  10.086   6.628  10.029  0.8994  0.2482 -0.3392
  302MOL0     C40694   9.999   6.520  10.024 -0.4610 -0.9884 -0.3501
  302MOL0     C40695   9.864   6.577   9.982 -0.6127 -0.7113  0.9213
  302MOL0     C40696   9.754   6.470   9.989  0.8778  0.0157 -0.6851
  302MOL0     C40697   9.622   6.532   9.950 -0.1488 -0.3977  0.5199
  302MOL0     C40698   9.618   6.543   9.805 -0.1012 -0.4809  0.4131
  302MOL0     C40699   9.604   6.563   9.690 -0.9558  0.7579  0.6291
  302MOL0     C40700  10.270   6.693   9.894  0.0581 -0.0193 -0.4701
  302MOL0     C40701  10.404   6.695   9.854 -0.5429  0.3167 -1.0350
  302MOL0     C40702  10.445   6.776   9.732  0.2178 -0.7208 -0.2660
  302MOL0     H40703  10.790   6.290  10.085 -0.5161  1.5618  0.0156
  302MOL0     H40704  11.039   6.249  10.109  2.2552  2.0363  1.3155
  302MOL0     H40705  11.220   6.463  10.253 -0.5633 -0.3970  0.6199
  302MOL0     H40706  11.245   6.292  10.221  1.3199  0.1840  0.7937
  302MOL0     H40707  11.451   6.318  10.120 -1.2330  2.2430 -3.5968
  302MOL0     H40708  11.464   6.404  10.284 -0.4345 -0.6029 -0.0278
  302MOL0     H40709  11.408   6.607  10.130 -1.4914 -1.2283 -1.9256
  302MOL0     H40710  11.451   6.507  10.002  1.5994  2.7768 -0.7555
  302MOL0     H40711  11.636   6.565  10.253  4.4390  0.5244 -0.7923
  302MOL0     H40712  11.681   6.465  10.110  2.1443  1.0493  0.4502
  302MOL0     H40713  11.673   6.673   9.968  0.1324 -0.7627 -0.3113
  302MOL0     H40714  11.617   6.756  10.127  1.3277 -0.4989  0.9334
  302MOL0     H40715  11.841   6.672  10.222 -4.3003 -0.4742  0.1007
  302MOL0     H40716  11.891   6.609  10.078  1.7231  2.2212 -0.7279
  302MOL0     H40717  11.791   6.901  10.107  0.9084  0.3112  2.4380
  302MOL0     H40718  11.868   6.834   9.961 -3.0681  1.8340 -0.2577
  302MOL0     H40719  12.046   6.955  10.084 -0.0927  1.3610  2.0416
  302MOL0     H40720  11.995   6.904  10.235  1.0315 -1.4825  1.7044
  302MOL0     H40721  12.113   6.710   9.909 -0.0260 -0.0989 -0.5080
  302MOL0     H40722  12.420   6.474  10.017 -0.6668 -3.9012  0.0756
  302MOL0     H40723  12.272   6.415   9.956  0.6189 -1.3679  0.2478
  302MOL0     H40724  12.260   6.577   9.769 -0.5247 -1.3431  0.2603
  302MOL0     H40725  12.414   6.654   9.823  1.0133  0.1896  2.6343
  302MOL0     H40726  12.422   6.477   9.647 -0.2432  0.1450  0.2420
  302MOL0     H40727  12.405   6.361   9.777  1.9154 -0.3284 -0.2466
  302MOL0     H40728  12.621   6.433   9.884  1.3511 -0.1834  0.4623
  302MOL0     H40729  12.615   6.578   9.775 -0.9711 -0.6557 -0.3137
  302MOL0     H40730  12.844   6.321   9.489 -0.2963 -1.0091  0.7642
  302MOL0     H40731  13.078   6.337   9.490  0.9895 -0.5499  1.3962
  302MOL0     H40732  13.523   6.553   9.499  1.3338  0.5471  0.8050
  302MOL0     H40733  13.748   6.485   9.451  0.2829  1.1021  2.2344
  302MOL0     H40734  13.892   6.079   9.630  2.1730  0.5716 -0.5079
  302MOL0     H40735  13.809   6.029   9.486 -0.4500 -0.3937  1.0670
  302MOL0     H40736  14.036   6.089   9.367  0.9211  0.9722  0.7637
  302MOL0     H40737  14.102   6.137   9.518  1.3637 -0.7737  1.1915
  302MOL0     H40738  13.971   5.852   9.482 -0.5183 -0.6882  3.0300
  302MOL0     H40739  14.136   5.890   9.428  0.1180  0.8695  1.1116
  302MOL0     H40740  14.013   5.876   9.703  1.7126 -1.9430  1.4226
  302MOL0     H40741  14.157   5.981   9.676 -0.3586  1.0164 -1.2110
  302MOL0     H40742  14.135   5.690   9.599  0.7121  0.4739 -1.3707
  302MOL0     H40743  14.193   5.740   9.766 -0.0408 -0.5566  0.1492
  302MOL0     H40744  14.332   5.786   9.502  4.1826  2.4782  0.0255
  302MOL0     H40745  14.354   5.885   9.644 -0.8280  0.0468 -0.5958
  302MOL0     H40746  14.381   5.576   9.631  1.6431 -0.9865 -0.3905
  302MOL0     H40747  14.430   5.683   9.770 -1.8049  0.1719 -0.1415
  302MOL0     H40748  14.536   5.675   9.492 -1.5360  3.5380 -0.4131
  302MOL0     H40749  14.601   5.795   9.606 -0.3106 -0.1809  1.5064
  302MOL0     H40750  13.644   6.092   9.619 -2.0345 -0.5635 -0.9485
  302MOL0     H40751  13.413   6.180   9.676  1.0614 -1.2945 -0.4928
  302MOL0     H40752  13.068   6.445   9.912 -5.4807  1.7746  2.7302
  302MOL0     H40753  12.835   6.485   9.889  0.9445  3.5146 -1.3177
  302MOL0     H40754  11.140   6.625   9.972 -0.9897  1.5640 -2.0268
  302MOL0     H40755  10.891   6.679   9.912 -0.2706  0.1979 -1.0279
  302MOL0     H40756  10.494   6.468  10.093 -0.8482 -1.3241 -0.5506
  302MOL0     H40757  10.266   6.476  10.154 -0.2996 -1.2275 -1.9579
  302MOL0     H40758   9.995   6.473  10.122 -2.0041 -0.4902 -0.1440
  302MOL0     H40759  10.032   6.451   9.945  0.8073 -0.8448  0.0442
  302MOL0     H40760   9.874   6.607   9.878 -0.8795  1.4399  1.4769
  302MOL0     H40761   9.830   6.660  10.045 -1.2371 -0.7166  0.6037
  302MOL0     H40762   9.741   6.442  10.094 -0.8837 -2.1587 -1.3988
  302MOL0     H40763   9.776   6.382   9.928 -0.8275  0.4058 -1.9314
  302MOL0     H40764   9.543   6.462   9.981  0.0009 -1.2603 -0.9802
  302MOL0     H40765   9.599   6.630   9.993  0.5698 -0.4419  1.0311
  302MOL0     H40766   9.609   6.570   9.583 -1.8309 -1.6745  0.3637
  302MOL0     H40767  10.209   6.771   9.850  1.0428  1.6791  1.0207
  302MOL0     H40768  10.475   6.726   9.640 -1.7170  0.4237 -1.5731
  302MOL0     H40769  10.364   6.843   9.702  1.2256  0.1442 -1.1232
  302MOL0     H40770  10.537   6.831   9.752  0.4940  0.4338 -4.0488
  303MOL0     O40771   2.149   6.687   0.773  0.3102  0.5876 -0.2495
  303MOL0     C40772   2.138   6.583   0.834  0.2670 -0.1973  0.2792
  303MOL0     O40773   2.227   6.491   0.860  0.0517 -0.0521 -0.2342
  303MOL0     C40774   2.356   6.501   0.806 -0.1788  0.0723 -0.3165
  303MOL0     C40775   2.394   6.415   0.702  0.2969  0.3982  0.0080
  303MOL0     C40776   2.524   6.416   0.653 -0.1230  1.0735  0.4470
  303MOL0     C40777   2.615   6.509   0.700 -0.3840 -0.2064 -0.4722
  303MOL0     O40778   2.751   6.505   0.673  0.0188 -0.6653 -0.3785
  303MOL0     C40779   2.789   6.438   0.543  0.3572  0.3926 -0.2305
  303MOL0     C40780   2.931   6.488   0.498  0.0130 -0.6795 -0.2586
  303MOL0     C40781   3.042   6.420   0.573  0.4410  0.0323 -0.4335
  303MOL0     C40782   3.184   6.463   0.514 -0.7928  0.0141 -0.2775
  303MOL0     C40783   3.294   6.403   0.596 -0.9569  0.6533 -0.1584
  303MOL0     C40784   3.429   6.451   0.540 -0.3148 -0.7512  0.2514
  303MOL0     C40785   3.545   6.413   0.639 -0.1289 -0.7352  0.7168
  303MOL0     C40786   3.682   6.459   0.572  0.1394  1.2157 -0.5939
  303MOL0     N40787   3.794   6.406   0.646 -0.2401 -0.0627 -0.3615
  303MOL0     C40788   3.848   6.464   0.757 -0.6032 -0.1571  0.6313
  303MOL0     C40789   3.950   6.383   0.806 -0.0785 -0.0257 -0.6837
  303MOL0     C40790   4.034   6.420   0.929  0.4146  0.3319 -0.5561
  303MOL0     C40791   4.186   6.469   0.883  0.7632  0.4340 -0.0569
  303MOL0     C40792   4.184   6.602   0.795  0.2544 -0.2231 -0.5704
  303MOL0     C40793   4.321   6.646   0.756 -0.2437 -1.3041  0.6347
  303MOL0     O40794   4.401   6.677   0.872 -0.0534 -0.1269 -0.0101
  303MOL0     C40795   4.512   6.753   0.854 -0.3489 -0.0350  0.0336
  303MOL0     C40796   4.579   6.765   0.730  0.0637  0.9442 -0.0996
  303MOL0     C40797   4.689   6.839   0.720  0.5577 -0.1285 -0.3770
  303MOL0     C40798   4.752   6.903   0.837  0.7672  0.5703  0.0122
  303MOL0     C40799   4.880   6.980   0.833 -0.3103 -0.2957  0.1718
  303MOL0     O40800   4.931   7.024   0.951  0.8225  0.5622  0.5773
  303MOL0     C40801   5.066   7.055   0.949  0.2799  0.7068  0.7200
  303MOL0     C40802   5.125   7.173   0.897 -0.3943  0.3211 -0.2780
  303MOL0     C40803   5.264   7.192   0.898  0.7500 -0.2598  0.5294
  303MOL0     C40804   5.348   7.103   0.964 -1.0808  0.6235 -0.2054
  303MOL0     O40805   5.475   7.147   0.979 -0.9308 -0.0331 -0.0369
  303MOL0     C40806   5.564   7.054   1.052 -0.2159  0.5388 -0.2058
  303MOL0     C40807   5.705   7.112   1.085 -0.0778  0.1508 -0.4052
  303MOL0     C40808   5.767   7.170   0.957  0.0964 -0.5696 -0.0503
  303MOL0     C40809   5.906   7.219   0.988 -0.7522  0.2455 -0.2327
  303MOL0     C40810   6.020   7.112   0.971 -0.0735  0.4640  0.4106
  303MOL0     C40811   6.160   7.176   0.982  0.0333  0.0537  0.7223
  303MOL0     C40812   6.260   7.068   1.030 -1.0793 -0.3180 -0.7568
  303MOL0     C40813   6.408   7.132   1.018  0.5565 -0.3142 -0.5841
  303MOL0    Cl40814   6.429   7.270   1.129  0.3756  0.2790 -0.2812
  303MOL0     C40815   5.294   6.977   1.004 -0.4814 -1.1905 -0.2331
  303MOL0     C40816   5.154   6.959   1.002 -0.4087  0.8415  0.2384
  303MOL0     O40817   4.934   6.979   0.726  0.0061 -0.4891  0.3901
  303MOL0     C40818   4.695   6.877   0.965 -0.0998  0.4242 -0.3928
  303MOL0     C40819   4.576   6.802   0.972  0.3910  0.0128 -0.4055
  303MOL0     N40820   3.949   6.271   0.721  1.2317 -0.2740 -0.3531
  303MOL0     N40821   3.862   6.292   0.626  1.4795  0.1534  0.5452
  303MOL0     C40822   2.575   6.594   0.805  0.6014 -0.7177  0.7915
  303MOL0     C40823   2.447   6.589   0.859  0.3106  0.1469  0.3387
  303MOL0     C40824   2.008   6.564   0.888  0.5138  0.2308  0.7469
  303MOL0     C40825   1.950   6.668   0.961  0.8245  0.2516 -0.3648
  303MOL0     C40826   1.820   6.647   1.023  1.0578  1.0022 -0.8618
  303MOL0     C40827   1.744   6.528   1.014 -0.0487  0.6097 -0.4959
  303MOL0     O40828   1.622   6.524   1.076 -0.4972 -0.1464  0.3298
  303MOL0     C40829   1.543   6.405   1.062  0.0629  0.1241  0.3518
  303MOL0     C40830   1.410   6.406   1.148  0.0871  1.2131  0.1917
  303MOL0     C40831   1.316   6.517   1.101 -0.7608 -0.5786 -0.1026
  303MOL0     C40832   1.169   6.502   1.145  0.2059 -0.2060  0.3150
  303MOL0     C40833   1.113   6.392   1.070 -0.6117 -0.0843 -0.7658
  303MOL0     C40834   1.067   6.307   0.998  0.0013  0.1730  0.3276
  303MOL0     C40835   1.811   6.422   0.946  0.0875 -1.1050 -0.0385
  303MOL0     C40836   1.937   6.440   0.889 -0.3963  0.0864 -0.4489
  303MOL0     C40837   1.991   6.312   0.825  0.1173 -0.1557 -0.2103
  303MOL0     H40838   2.332   6.331   0.673 -0.1151 -0.0770  2.1113
  303MOL0     H40839   2.543   6.329   0.591 -1.7640 -1.1695  2.8324
  303MOL0     H40840   2.775   6.331   0.557 -1.8359  0.6429 -0.2028
  303MOL0     H40841   2.712   6.463   0.470  1.0003 -1.0604 -1.4426
  303MOL0     H40842   2.935   6.597   0.506 -1.3301 -0.6727  0.6023
  303MOL0     H40843   2.941   6.455   0.394 -0.3783 -2.2782  0.1870
  303MOL0     H40844   3.034   6.311   0.579  0.4808  0.0251 -0.5142
  303MOL0     H40845   3.043   6.454   0.677 -2.8518  0.6642 -0.4854
  303MOL0     H40846   3.190   6.417   0.415 -0.5137  0.4149 -0.4475
  303MOL0     H40847   3.187   6.573   0.516 -0.8212  0.0263  2.4901
  303MOL0     H40848   3.294   6.429   0.702 -2.0543  0.3876 -0.0823
  303MOL0     H40849   3.296   6.293   0.598  0.9731  0.6239 -1.2135
  303MOL0     H40850   3.433   6.401   0.442  0.4931 -0.2983  0.0371
  303MOL0     H40851   3.420   6.560   0.531  1.5233 -0.4939  1.1234
  303MOL0     H40852   3.548   6.305   0.650 -1.5797 -0.8874 -0.1059
  303MOL0     H40853   3.541   6.460   0.738  2.1783  1.2603 -0.0163
  303MOL0     H40854   3.693   6.428   0.467  3.4878 -1.6498  0.4129
  303MOL0     H40855   3.689   6.568   0.584  0.0856  0.9972  1.8605
  303MOL0     H40856   3.832   6.562   0.801  2.3768  0.1187  1.3475
  303MOL0     H40857   3.983   6.500   0.984 -0.1605 -3.1401  4.6683
  303MOL0     H40858   4.042   6.343   1.006 -0.3429 -0.8814 -1.6606
  303MOL0     H40859   4.234   6.486   0.980  0.6460  0.7865 -0.0568
  303MOL0     H40860   4.238   6.388   0.831 -1.4349 -0.9865 -0.1534
  303MOL0     H40861   4.133   6.678   0.857  0.0224 -1.6383  1.0389
  303MOL0     H40862   4.127   6.588   0.703 -0.2888 -1.8331 -0.0269
  303MOL0     H40863   4.312   6.729   0.686  2.4909  0.0047  1.6709
  303MOL0     H40864   4.371   6.563   0.705  2.1045  0.1537  0.4087
  303MOL0     H40865   4.526   6.723   0.644 -0.4758 -0.5168  0.8930
  303MOL0     H40866   4.728   6.870   0.623 -1.6620  1.8869 -0.7150
  303MOL0     H40867   5.050   7.231   0.845  0.0284 -0.0391 -1.2989
  303MOL0     H40868   5.311   7.277   0.850 -1.9076  0.2736 -1.3493
  303MOL0     H40869   5.516   7.026   1.146 -1.1323 -1.9562 -1.3271
  303MOL0     H40870   5.588   6.969   0.988 -0.0989  0.3993  0.0254
  303MOL0     H40871   5.695   7.188   1.163  2.5638  0.5568 -0.3767
  303MOL0     H40872   5.759   7.028   1.129 -2.4209 -1.0081  0.4601
  303MOL0     H40873   5.769   7.120   0.860  0.7173  0.0242 -0.3483
  303MOL0     H40874   5.710   7.261   0.941  1.3079  0.8199  2.7641
  303MOL0     H40875   5.913   7.263   1.088 -0.2209  3.1916 -1.4729
  303MOL0     H40876   5.917   7.296   0.912 -0.7309 -0.2704 -0.7608
  303MOL0     H40877   6.003   7.062   0.875  3.7474  0.8521 -0.6369
  303MOL0     H40878   6.000   7.031   1.042 -0.1995 -0.3221 -0.4996
  303MOL0     H40879   6.182   7.205   0.879 -3.1525 -2.0485 -0.6932
  303MOL0     H40880   6.157   7.258   1.055  0.5243 -0.5185  1.3962
  303MOL0     H40881   6.262   6.972   0.976  0.8925 -0.9640  0.3500
  303MOL0     H40882   6.239   7.040   1.133  0.3755 -0.3751 -0.4460
  303MOL0     H40883   6.489   7.059   1.031  1.1157  0.1758 -1.2380
  303MOL0     H40884   6.411   7.176   0.918 -0.5329 -0.2762 -0.6123
  303MOL0     H40885   5.358   6.900   1.043 -2.2879 -2.1230  1.0271
  303MOL0     H40886   5.106   6.866   1.030 -0.7605  0.3638 -1.7891
  303MOL0     H40887   4.750   6.903   1.055 -0.4267  0.3877 -0.1794
  303MOL0     H40888   4.525   6.778   1.065 -2.6262  1.3348 -1.5902
  303MOL0     H40889   2.649   6.659   0.850 -1.8037  2.2509  0.8351
  303MOL0     H40890   2.427   6.656   0.942  2.1062 -2.6687  3.2566
  303MOL0     H40891   1.995   6.765   0.974 -0.1398  0.6844 -0.1356
  303MOL0     H40892   1.772   6.729   1.076 -3.3653 -1.2425 -0.9026
  303MOL0     H40893   1.598   6.319   1.101 -0.7696 -1.0641 -1.0075
  303MOL0     H40894   1.513   6.381   0.960  2.4897  2.0479 -0.9176
  303MOL0     H40895   1.436   6.423   1.253  0.8862 -1.2606  0.4337
  303MOL0     H40896   1.369   6.305   1.149  2.4178  0.0769  4.2137
  303MOL0     H40897   1.315   6.518   0.992  1.7566  0.1419 -0.1833
  303MOL0     H40898   1.350   6.613   1.140 -2.4812  0.4567 -1.0549
  303MOL0     H40899   1.180   6.483   1.253 -0.3928 -1.2299  0.2095
  303MOL0     H40900   1.106   6.590   1.130  1.7710  1.2805  2.0035
  303MOL0     H40901   1.028   6.245   0.920  2.1309  0.5395 -1.1165
  303MOL0     H40902   1.747   6.335   0.935 -1.6982  0.0472  0.9142
  303MOL0     H40903   2.064   6.341   0.749  0.2739  0.7636  0.2748
  303MOL0     H40904   2.032   6.249   0.905  0.4592  1.2273  0.7456
  303MOL0     H40905   1.919   6.254   0.767 -0.3413 -0.5352  0.7153
  304MOL0     O40906   3.254   3.816   7.910  0.7894 -0.3212  0.0649
  304MOL0     C40907   3.212   3.910   7.974 -0.4063 -0.7611 -0.0778
  304MOL0     O40908   3.295   4.008   8.030  0.0353  0.7793 -0.1180
  304MOL0     C40909   3.421   4.014   7.986 -1.3279 -0.4407  0.1267
  304MOL0     C40910   3.452   4.014   7.852 -0.4028  0.8822 -0.3631
  304MOL0     C40911   3.583   4.028   7.803 -0.4871 -0.1652 -0.9360
  304MOL0     C40912   3.685   4.040   7.899  0.7049  0.0156 -0.1721
  304MOL0     O40913   3.813   4.076   7.873 -0.2785 -0.0905  0.4967
  304MOL0     C40914   3.858   4.102   7.737 -0.0243 -0.4355  0.1510
  304MOL0     C40915   4.010   4.143   7.737  0.1433  0.1014  0.1652
  304MOL0     C40916   4.039   4.268   7.834 -0.0266 -0.3297 -0.2631
  304MOL0     C40917   4.181   4.318   7.835 -0.6903  0.3274 -0.7922
  304MOL0     C40918   4.250   4.260   7.959 -0.4432 -0.0060  0.6772
  304MOL0     C40919   4.397   4.258   7.926 -0.1725 -0.1870  0.6698
  304MOL0     C40920   4.451   4.397   7.876 -0.5224  0.0513 -0.0593
  304MOL0     C40921   4.598   4.370   7.842 -0.5159  0.6535  0.0472
  304MOL0     N40922   4.678   4.479   7.788 -0.5729 -0.0201  0.3932
  304MOL0     C40923   4.796   4.465   7.717 -0.6479  0.3280  0.0302
  304MOL0     C40924   4.846   4.588   7.701  0.7541 -0.0342  0.1112
  304MOL0     C40925   4.967   4.625   7.623  0.3073  0.2749  0.2106
  304MOL0     C40926   5.068   4.690   7.722  0.6379 -0.2243 -0.1216
  304MOL0     C40927   5.169   4.586   7.763 -0.1204 -0.4008  0.1471
  304MOL0     C40928   5.294   4.588   7.680 -0.3002 -0.2280  0.3966
  304MOL0     O40929   5.370   4.708   7.716  0.8373  0.4989  0.0636
  304MOL0     C40930   5.508   4.702   7.695 -1.1112 -0.1360 -0.2496
  304MOL0     C40931   5.587   4.749   7.805  0.0385  0.8630  0.0035
  304MOL0     C40932   5.725   4.739   7.796  0.3825  0.3197 -0.1198
  304MOL0     C40933   5.793   4.695   7.681  0.5340  1.0672 -0.1986
  304MOL0     C40934   5.946   4.696   7.670  0.2568  0.4031  0.2090
  304MOL0     O40935   6.016   4.674   7.790  0.5531 -0.7156 -0.0159
  304MOL0     C40936   6.147   4.696   7.799 -0.4595  0.2709 -0.4321
  304MOL0     C40937   6.210   4.635   7.911 -0.9563 -0.4259  0.0115
  304MOL0     C40938   6.345   4.664   7.945  0.0368  0.6939 -0.7911
  304MOL0     C40939   6.416   4.751   7.865 -0.5929 -0.3372 -0.2744
  304MOL0     O40940   6.552   4.780   7.872 -0.3348  0.1342 -0.4424
  304MOL0     C40941   6.630   4.682   7.941  0.0380 -0.1066 -0.2903
  304MOL0     C40942   6.778   4.711   7.927  0.7451 -0.8656 -0.4414
  304MOL0     C40943   6.816   4.850   7.977  0.0128  0.3697  0.6844
  304MOL0     C40944   6.966   4.866   7.971 -0.4797  0.1428  0.3510
  304MOL0     C40945   6.992   5.006   8.031 -0.3718  0.2225 -0.2103
  304MOL0     C40946   7.149   5.030   8.018  0.2674 -0.1810  0.4045
  304MOL0     C40947   7.197   5.157   8.087  0.3981  0.1952 -0.2785
  304MOL0     C40948   7.351   5.166   8.108  1.3146 -0.3397 -0.2567
  304MOL0    Cl40949   7.394   5.330   8.155  0.4079  0.0610 -0.5167
  304MOL0     C40950   6.355   4.820   7.755 -0.5510  0.1500 -0.9270
  304MOL0     C40951   6.229   4.784   7.718 -0.4879 -0.3738 -0.6645
  304MOL0     O40952   5.991   4.698   7.555  0.2438  0.9744 -0.0273
  304MOL0     C40953   5.714   4.652   7.573 -0.5851  0.6256 -1.4809
  304MOL0     C40954   5.568   4.661   7.573 -0.6324 -0.1278 -0.1186
  304MOL0     N40955   4.757   4.673   7.764  0.3568 -0.7921 -0.1027
  304MOL0     N40956   4.656   4.613   7.821 -0.2834 -0.2685 -0.2761
  304MOL0     C40957   3.651   4.037   8.040  0.0545  0.2576 -0.6008
  304MOL0     C40958   3.529   4.026   8.082  0.1184  0.0322  0.6152
  304MOL0     C40959   3.064   3.926   7.999  0.2420 -0.5793 -0.6084
  304MOL0     C40960   3.027   3.983   8.128 -0.3352 -0.0100  0.0498
  304MOL0     C40961   2.891   3.987   8.159 -0.7021  0.4233 -0.2774
  304MOL0     C40962   2.797   3.919   8.076 -0.2546 -0.5541 -0.1473
  304MOL0     O40963   2.671   3.910   8.128  0.1733  0.1535 -0.0249
  304MOL0     C40964   2.574   3.841   8.047 -0.2068  0.5491 -0.4840
  304MOL0     C40965   2.451   3.819   8.125 -0.5574 -0.0510 -1.3829
  304MOL0     C40966   2.375   3.951   8.133  0.2503 -0.0681  0.3578
  304MOL0     C40967   2.258   3.951   8.235  0.8052 -0.4511  0.5257
  304MOL0     C40968   2.174   4.056   8.194  0.6438  0.5672  0.4313
  304MOL0     C40969   2.110   4.148   8.160 -1.2816 -0.0549  0.4474
  304MOL0     C40970   2.832   3.890   7.941  0.1272 -0.2751 -0.7539
  304MOL0     C40971   2.967   3.895   7.902  0.2398  0.5245  0.3738
  304MOL0     C40972   2.993   3.847   7.762 -0.0734  0.4299 -0.6596
  304MOL0     H40973   3.367   4.002   7.785  0.0484 -2.3729 -0.5317
  304MOL0     H40974   3.622   4.031   7.702  1.3691 -2.2601 -0.3443
  304MOL0     H40975   3.861   4.011   7.677  0.4953  1.6474 -3.2549
  304MOL0     H40976   3.792   4.168   7.680  0.2044  0.7469  1.1909
  304MOL0     H40977   4.040   4.174   7.636  0.3501  0.6892  0.4025
  304MOL0     H40978   4.083   4.067   7.766  1.2451  1.4422  1.0230
  304MOL0     H40979   4.016   4.241   7.938  3.0772 -0.7768  0.4302
  304MOL0     H40980   3.980   4.342   7.780 -1.0973  0.2437  1.5884
  304MOL0     H40981   4.232   4.285   7.744  2.9146  2.0179  0.4360
  304MOL0     H40982   4.177   4.427   7.832  0.0733  0.4206  0.8430
  304MOL0     H40983   4.226   4.324   8.045  0.3086  0.6886  0.3821
  304MOL0     H40984   4.216   4.158   7.980  1.8659 -0.4895  2.5100
  304MOL0     H40985   4.449   4.231   8.019  0.1716  1.7472  1.0635
  304MOL0     H40986   4.427   4.181   7.854  3.0298  1.1765  0.3848
  304MOL0     H40987   4.440   4.478   7.948  0.2617 -0.3501  0.5257
  304MOL0     H40988   4.393   4.426   7.788  0.6313  1.1544 -0.4699
  304MOL0     H40989   4.647   4.327   7.930 -1.2981 -0.4287 -0.0280
  304MOL0     H40990   4.595   4.298   7.760  1.2284  2.3608 -1.6351
  304MOL0     H40991   4.840   4.376   7.674  2.6630  0.8893  1.9206
  304MOL0     H40992   5.009   4.537   7.572  1.0172  0.9336 -0.3799
  304MOL0     H40993   4.939   4.689   7.539  1.6429  1.2290  0.4560
  304MOL0     H40994   5.114   4.772   7.666  2.3003 -2.6547 -2.5480
  304MOL0     H40995   5.008   4.736   7.801 -1.3462  0.6461 -2.0272
  304MOL0     H40996   5.130   4.484   7.760  2.1751 -1.3164 -1.1470
  304MOL0     H40997   5.192   4.604   7.868 -2.8947  0.3008  0.7240
  304MOL0     H40998   5.274   4.590   7.573  3.1208  1.6981 -0.3567
  304MOL0     H40999   5.348   4.496   7.705  0.4377  0.3446  0.9687
  304MOL0     H41000   5.539   4.788   7.894 -0.2841  0.4867 -0.0034
  304MOL0     H41001   5.792   4.778   7.873  4.8027 -2.3573 -2.2498
  304MOL0     H41002   6.169   4.551   7.965 -4.5777 -0.0744 -1.8586
  304MOL0     H41003   6.401   4.611   8.022  0.0897  0.6600 -0.8526
  304MOL0     H41004   6.605   4.690   8.047  0.8456  2.4716 -0.2381
  304MOL0     H41005   6.610   4.582   7.901 -1.9000  1.0099 -2.3310
  304MOL0     H41006   6.826   4.643   7.999  0.8366  0.2283  0.5543
  304MOL0     H41007   6.803   4.692   7.822 -2.0397 -0.0061 -1.3465
  304MOL0     H41008   6.773   4.930   7.916  1.5229 -0.0064 -0.9750
  304MOL0     H41009   6.774   4.856   8.078 -0.4419 -0.2259  0.5376
  304MOL0     H41010   6.997   4.865   7.866  1.4099  1.0442  0.8470
  304MOL0     H41011   7.032   4.797   8.024  2.5317  2.8858  0.5112
  304MOL0     H41012   6.959   5.007   8.135  0.1102 -2.0459  0.0185
  304MOL0     H41013   6.942   5.078   7.966  0.9468  0.7740 -0.6428
  304MOL0     H41014   7.210   4.949   8.060  1.7687  0.6214 -0.1951
  304MOL0     H41015   7.175   5.035   7.912 -0.0333  2.1330  0.4025
  304MOL0     H41016   7.150   5.174   8.185  0.5496 -4.2802  0.7943
  304MOL0     H41017   7.163   5.241   8.026 -0.7212 -1.2135 -1.6572
  304MOL0     H41018   7.384   5.088   8.177  1.3150 -2.4670 -2.5030
  304MOL0     H41019   7.402   5.143   8.014  2.7774 -3.4269  1.1288
  304MOL0     H41020   6.410   4.898   7.703  0.8042  0.7700  1.2862
  304MOL0     H41021   6.195   4.836   7.628  0.7640 -0.8177 -1.4184
  304MOL0     H41022   5.762   4.624   7.480  0.2410  2.7807 -1.7629
  304MOL0     H41023   5.509   4.634   7.487 -0.1270 -0.0973 -0.4812
  304MOL0     H41024   3.738   4.046   8.104  1.5896 -1.6108 -2.2415
  304MOL0     H41025   3.505   4.017   8.188 -4.2950 -0.3796 -0.2175
  304MOL0     H41026   3.110   4.017   8.188  1.0681  0.3305 -1.9735
  304MOL0     H41027   2.852   4.023   8.254 -0.0094 -0.1789  0.2399
  304MOL0     H41028   2.604   3.739   8.021 -2.0179 -0.5338  1.3950
  304MOL0     H41029   2.563   3.883   7.946  0.4898 -2.2925 -1.8658
  304MOL0     H41030   2.479   3.776   8.221 -0.1662  1.8520 -0.5956
  304MOL0     H41031   2.394   3.738   8.079 -2.1016  0.4891 -0.4925
  304MOL0     H41032   2.326   3.960   8.035  0.6966 -1.0799  0.0202
  304MOL0     H41033   2.441   4.038   8.141  2.2520 -1.3909 -0.8069
  304MOL0     H41034   2.203   3.856   8.231 -1.4193  0.6976  2.3246
  304MOL0     H41035   2.299   3.972   8.334 -0.4342 -0.2142  1.0037
  304MOL0     H41036   2.060   4.236   8.125 -1.9746 -0.8634 -0.6497
  304MOL0     H41037   2.767   3.836   7.872  0.4026 -1.3533 -0.1937
  304MOL0     H41038   3.066   3.914   7.715 -1.6255  1.3920 -1.7895
  304MOL0     H41039   3.030   3.744   7.767 -0.9483  0.0613 -1.5873
  304MOL0     H41040   2.903   3.849   7.701  0.0872 -2.5172 -1.1382
  305MOL0     O41041   1.171   3.173   0.114  0.0450 -0.1772 -0.5398
  305MOL0     C41042   1.163   3.297   0.145 -0.5617  1.2082 -0.5820
  305MOL0     O41043   1.244   3.395   0.088 -0.3326  0.1370 -0.3265
  305MOL0     C41044   1.361   3.341   0.033  0.0772  0.5306 -0.2299
  305MOL0     C41045   1.464   3.317   0.120 -0.1343 -0.3565 -0.8332
  305MOL0     C41046   1.585   3.266   0.070  0.5511 -0.0544  0.2560
  305MOL0     C41047   1.604   3.246  -0.075 -0.5788  0.1506 -0.3050
  305MOL0     O41048   1.724   3.214  -0.131  0.0305 -0.8338  0.6816
  305MOL0     C41049   1.801   3.118  -0.061 -0.4891 -0.1018  0.7605
  305MOL0     C41050   1.934   3.086  -0.132  0.1313  0.5044  0.4570
  305MOL0     C41051   2.015   2.993  -0.045 -0.3718  0.3836 -0.5375
  305MOL0     C41052   2.147   2.937  -0.105 -0.0127  0.0064  0.1935
  305MOL0     C41053   2.223   2.849  -0.002  0.1282 -0.3373  0.2028
  305MOL0     C41054   2.159   2.710   0.021  0.3912 -0.6773  0.0038
  305MOL0     C41055   2.250   2.622   0.107 -0.0940  0.2566  0.5067
  305MOL0     C41056   2.229   2.474   0.091 -0.1743  0.7140 -0.2134
  305MOL0     N41057   2.105   2.433   0.154  0.6297  1.0531 -0.5732
  305MOL0     C41058   2.009   2.353   0.094  0.0394 -0.7226  0.8588
  305MOL0     C41059   1.922   2.319   0.186 -0.7101 -0.0142 -0.0436
  305MOL0     C41060   1.811   2.224   0.157 -0.5195 -0.1274  0.6271
  305MOL0     C41061   1.781   2.122   0.271 -0.6472  0.1155  0.4636
  305MOL0     C41062   1.779   1.981   0.206 -0.0038  1.2380  0.0424
  305MOL0     C41063   1.922   1.938   0.157  0.6762 -0.4527  0.0003
  305MOL0     O41064   1.917   1.876   0.031 -0.1075 -0.3554  0.2554
  305MOL0     C41065   1.986   1.756   0.014  0.7491 -0.1791 -0.0929
  305MOL0     C41066   1.916   1.635   0.003  0.2448 -0.9707 -0.6686
  305MOL0     C41067   1.987   1.523  -0.026 -0.3206  0.3516  0.1454
  305MOL0     C41068   2.122   1.514  -0.015 -0.0462 -0.5692 -0.7632
  305MOL0     C41069   2.186   1.378  -0.035 -0.0702  0.6111 -0.1145
  305MOL0     O41070   2.326   1.392  -0.057  0.8694  0.6708  0.0481
  305MOL0     C41071   2.400   1.283  -0.046  0.2276  0.8891  0.4206
  305MOL0     C41072   2.512   1.297   0.020 -0.3535  0.0177 -0.0839
  305MOL0     C41073   2.609   1.196   0.040  0.8017  0.3662  0.6721
  305MOL0     C41074   2.578   1.065  -0.012  0.1146  0.8254  0.4794
  305MOL0     O41075   2.666   0.956   0.001 -0.0030 -0.7578  0.2059
  305MOL0     C41076   2.785   0.954   0.090 -0.5186  0.3356 -1.1822
  305MOL0     C41077   2.911   1.015   0.011 -0.0399 -0.4566  0.3814
  305MOL0     C41078   3.050   0.982   0.075 -0.8036  0.1065  0.2994
  305MOL0     C41079   3.158   1.081   0.033 -0.2002 -0.0270  0.3249
  305MOL0     C41080   3.161   1.218   0.107 -0.2886 -0.3791 -0.3496
  305MOL0     C41081   3.306   1.269   0.118  1.1758  0.1953  0.1862
  305MOL0     C41082   3.390   1.269  -0.013  0.5251  0.1344  0.2591
  305MOL0     C41083   3.540   1.268   0.028  0.5763 -0.6981 -0.4845
  305MOL0    Cl41084   3.604   1.132   0.136 -0.0760  0.3287 -0.0732
  305MOL0     C41085   2.461   1.049  -0.089 -0.3237  0.3523  0.1505
  305MOL0     C41086   2.370   1.155  -0.104  0.4423  0.6822  0.5643
  305MOL0     O41087   2.121   1.274  -0.016 -0.5200  0.4303  0.0721
  305MOL0     C41088   2.197   1.634   0.007  0.0086 -0.0680 -0.6740
  305MOL0     C41089   2.122   1.749   0.026 -0.1167 -0.0357  0.4134
  305MOL0     N41090   1.960   2.379   0.306  0.1644 -0.2937 -0.0084
  305MOL0     N41091   2.065   2.453   0.286  0.3197 -0.3026 -0.4201
  305MOL0     C41092   1.497   3.272  -0.152 -0.1636  0.9524 -0.5238
  305MOL0     C41093   1.372   3.314  -0.101  0.2641 -0.2481 -0.6910
  305MOL0     C41094   1.055   3.357   0.230  1.0542 -0.1220 -0.3096
  305MOL0     C41095   1.090   3.477   0.298 -0.0801 -0.2111 -0.4020
  305MOL0     C41096   1.001   3.527   0.391  0.8545  0.0481 -0.5049
  305MOL0     C41097   0.868   3.475   0.407  0.9216  0.0988  0.1216
  305MOL0     O41098   0.785   3.554   0.484  0.6201  0.1519  0.4774
  305MOL0     C41099   0.647   3.578   0.422 -0.1219 -0.3562  0.1253
  305MOL0     C41100   0.544   3.526   0.529 -0.1191  0.8088  0.4826
  305MOL0     C41101   0.502   3.640   0.621 -1.1224 -0.5892  0.3266
  305MOL0     C41102   0.391   3.581   0.711 -0.3314 -0.2296  0.0958
  305MOL0     C41103   0.345   3.706   0.788  0.5416 -0.0247 -0.3154
  305MOL0     C41104   0.297   3.794   0.860  0.0082  0.5180 -0.0135
  305MOL0     C41105   0.829   3.364   0.332 -0.0537  0.1595 -1.0939
  305MOL0     C41106   0.921   3.306   0.244  0.2706 -0.0606 -0.4031
  305MOL0     C41107   0.872   3.182   0.170  0.0774  0.2407 -0.2382
  305MOL0     H41108   1.448   3.325   0.227 -0.4730  1.8533 -0.9815
  305MOL0     H41109   1.670   3.244   0.133  0.3414 -1.3988  0.1131
  305MOL0     H41110   1.820   3.141   0.044 -1.0531 -4.3656  2.0041
  305MOL0     H41111   1.746   3.023  -0.068  1.0595 -0.9223 -1.5147
  305MOL0     H41112   1.996   3.174  -0.151  3.7367 -2.0954 -1.0654
  305MOL0     H41113   1.917   3.047  -0.233 -0.2557  0.1750  0.6455
  305MOL0     H41114   1.954   2.903  -0.031  1.5832 -0.8225  0.7554
  305MOL0     H41115   2.037   3.035   0.054 -1.5081 -1.3489  0.5134
  305MOL0     H41116   2.123   2.879  -0.194 -0.6245 -1.1969  1.1112
  305MOL0     H41117   2.202   3.031  -0.116 -1.4936  0.6942 -1.8061
  305MOL0     H41118   2.323   2.836  -0.046 -0.3357 -1.1078 -0.6721
  305MOL0     H41119   2.229   2.904   0.092  1.3514 -0.2348  0.0786
  305MOL0     H41120   2.062   2.719   0.071  0.7147 -0.5732  0.6345
  305MOL0     H41121   2.143   2.661  -0.075 -1.9675  0.9459 -0.5163
  305MOL0     H41122   2.247   2.648   0.213 -0.8600  1.2612  0.2571
  305MOL0     H41123   2.354   2.644   0.081 -0.8440  4.0929  0.1165
  305MOL0     H41124   2.214   2.450  -0.014 -2.2753 -0.2932  0.2549
  305MOL0     H41125   2.316   2.421   0.131 -0.2707  0.3085 -0.5327
  305MOL0     H41126   2.009   2.323  -0.011  3.2325  2.5197 -0.2671
  305MOL0     H41127   1.719   2.283   0.158 -1.2510 -1.2287  0.3657
  305MOL0     H41128   1.814   2.182   0.056 -0.6507  0.3525  0.4200
  305MOL0     H41129   1.853   2.128   0.353 -1.5827 -0.0956  1.3313
  305MOL0     H41130   1.686   2.155   0.315  0.0544  3.6042 -0.3256
  305MOL0     H41131   1.707   1.963   0.126 -1.1499  3.8297  0.4033
  305MOL0     H41132   1.748   1.919   0.290 -0.3501  1.4131  0.0457
  305MOL0     H41133   1.965   1.862   0.223  1.5850 -1.7532 -1.9968
  305MOL0     H41134   1.997   2.016   0.143  0.7202 -0.5961 -0.5904
  305MOL0     H41135   1.809   1.617   0.003 -0.2330  1.4695  0.8649
  305MOL0     H41136   1.926   1.435  -0.044  0.7740 -0.4641  0.3123
  305MOL0     H41137   2.527   1.400   0.053 -1.8951  0.0858  0.4840
  305MOL0     H41138   2.702   1.221   0.089  1.2124 -1.2925  0.8148
  305MOL0     H41139   2.773   1.010   0.183  0.1425 -0.7660 -0.4121
  305MOL0     H41140   2.807   0.851   0.121  0.1551  1.3082  1.8780
  305MOL0     H41141   2.910   0.982  -0.093  1.0077  1.6399 -0.3567
  305MOL0     H41142   2.899   1.124   0.016  1.6227 -0.0346 -2.6462
  305MOL0     H41143   3.053   0.971   0.184  2.4197  0.3217  0.3134
  305MOL0     H41144   3.087   0.885   0.040  1.5407 -0.1887  3.1991
  305MOL0     H41145   3.132   1.105  -0.070 -2.0427 -0.6007  0.6122
  305MOL0     H41146   3.257   1.035   0.037  0.6827  1.7824  0.1580
  305MOL0     H41147   3.125   1.208   0.210  0.1040 -1.4875 -0.3091
  305MOL0     H41148   3.098   1.291   0.056  1.4155  0.6386 -1.0839
  305MOL0     H41149   3.315   1.372   0.154 -0.3824  0.1090  0.8835
  305MOL0     H41150   3.358   1.202   0.188  2.8900 -0.9741 -2.0798
  305MOL0     H41151   3.376   1.344  -0.092  1.7097  0.9310  0.7683
  305MOL0     H41152   3.383   1.171  -0.061 -2.4702  1.1297 -1.5828
  305MOL0     H41153   3.607   1.272  -0.059  2.9130 -1.8658  1.1387
  305MOL0     H41154   3.560   1.353   0.095 -0.2036 -0.3992 -0.6277
  305MOL0     H41155   2.433   0.959  -0.143 -2.3954 -0.9554  3.1738
  305MOL0     H41156   2.274   1.146  -0.153  0.9742 -1.0867 -0.2187
  305MOL0     H41157   2.305   1.631   0.014  0.0569  1.3086 -0.6806
  305MOL0     H41158   2.175   1.843   0.036 -0.0593  0.0777 -0.7776
  305MOL0     H41159   1.526   3.267  -0.257  0.8474  1.0762 -0.2579
  305MOL0     H41160   1.283   3.340  -0.158  0.1024 -1.1691 -0.8655
  305MOL0     H41161   1.185   3.526   0.283  0.0694 -0.5133 -0.4562
  305MOL0     H41162   1.024   3.619   0.443  0.2871 -0.8093  1.3450
  305MOL0     H41163   0.646   3.533   0.323 -0.3234 -2.1777  0.9160
  305MOL0     H41164   0.624   3.685   0.415  1.8123  0.0805 -0.0778
  305MOL0     H41165   0.575   3.432   0.576  2.0961  0.0788 -2.1856
  305MOL0     H41166   0.454   3.494   0.476 -1.4043 -0.0415  3.0139
  305MOL0     H41167   0.461   3.724   0.565  0.7349  1.3364  1.6791
  305MOL0     H41168   0.587   3.689   0.670 -0.9508  0.3161 -0.8313
  305MOL0     H41169   0.310   3.554   0.642  0.2362  2.6159 -1.8456
  305MOL0     H41170   0.432   3.503   0.775 -0.7454  0.8281  1.7010
  305MOL0     H41171   0.254   3.859   0.934 -0.5808  1.0046 -0.7643
  305MOL0     H41172   0.732   3.315   0.338  0.0507 -0.2484 -2.4102
  305MOL0     H41173   0.763   3.177   0.180  0.2907 -1.9210  1.8982
  305MOL0     H41174   0.894   3.183   0.063 -1.4864 -0.1100 -0.5861
  305MOL0     H41175   0.914   3.093   0.219  0.8583  0.8551  0.2414
  306MOL0     O41176   3.836   4.538   4.204  0.8598 -0.1233 -0.5948
  306MOL0     C41177   3.849   4.579   4.321  0.6475 -0.4173  0.7968
  306MOL0     O41178   3.962   4.588   4.386  0.0422 -0.5835 -0.6795
  306MOL0     C41179   4.081   4.523   4.344  0.1714  0.1083 -0.1602
  306MOL0     C41180   4.075   4.400   4.273  0.2213 -0.3632 -0.5832
  306MOL0     C41181   4.189   4.322   4.244 -0.1110 -0.4892 -0.4483
  306MOL0     C41182   4.314   4.366   4.305 -0.2195  0.0810  0.3289
  306MOL0     O41183   4.423   4.294   4.278  0.7363 -0.4562  0.0908
  306MOL0     C41184   4.546   4.304   4.345 -1.0728 -0.6916 -0.4455
  306MOL0     C41185   4.646   4.243   4.250  0.4564  0.1676 -0.4306
  306MOL0     C41186   4.783   4.262   4.311  0.3858  0.2217 -0.9208
  306MOL0     C41187   4.903   4.259   4.215 -0.2182  0.7354  0.0669
  306MOL0     C41188   5.047   4.260   4.290 -0.1929  0.3912 -0.5406
  306MOL0     C41189   5.151   4.185   4.209  0.0390 -0.0190  0.5403
  306MOL0     C41190   5.292   4.187   4.259 -0.7101 -0.6845 -0.4232
  306MOL0     C41191   5.354   4.323   4.245 -0.3235  0.2928  0.4833
  306MOL0     N41192   5.502   4.326   4.237 -1.1530 -0.5315  0.0081
  306MOL0     C41193   5.594   4.313   4.342 -0.2569 -0.5555 -0.1032
  306MOL0     C41194   5.714   4.306   4.280  0.0631  0.6598  0.8802
  306MOL0     C41195   5.846   4.312   4.349  0.2800 -0.1283 -0.5609
  306MOL0     C41196   5.906   4.173   4.332 -0.4642  0.4066  0.8430
  306MOL0     C41197   6.025   4.137   4.417  0.4424  0.6142  0.4080
  306MOL0     C41198   6.146   4.214   4.356  0.0267 -0.0737  0.0935
  306MOL0     O41199   6.177   4.343   4.405  0.1172  0.1175 -0.7922
  306MOL0     C41200   6.276   4.359   4.501 -0.6783  0.2973  0.0502
  306MOL0     C41201   6.337   4.256   4.583  0.1803  0.8963  0.5697
  306MOL0     C41202   6.456   4.288   4.657  0.1830 -0.2731  0.8562
  306MOL0     C41203   6.507   4.418   4.652  0.5490  0.1837  0.6275
  306MOL0     C41204   6.643   4.444   4.718 -0.2976  0.0206  0.2625
  306MOL0     O41205   6.734   4.340   4.721 -0.4825  0.1382 -0.5246
  306MOL0     C41206   6.840   4.360   4.806 -0.0563 -0.6981 -0.8889
  306MOL0     C41207   6.965   4.394   4.742  0.0539 -0.1198  1.2255
  306MOL0     C41208   7.080   4.403   4.825  0.0322  0.2722  1.4170
  306MOL0     C41209   7.063   4.402   4.958 -0.1881  0.2637  0.4126
  306MOL0     O41210   7.175   4.436   5.033  0.2676 -0.3477 -0.4825
  306MOL0     C41211   7.248   4.321   5.084  0.4174 -0.8541  0.0100
  306MOL0     C41212   7.397   4.349   5.043  0.3924 -0.2862 -0.4079
  306MOL0     C41213   7.471   4.221   5.067 -1.2115 -0.0832  0.0005
  306MOL0     C41214   7.439   4.110   4.965  0.2535  0.4751  0.3116
  306MOL0     C41215   7.540   3.990   4.970 -0.2747  0.0191  0.0480
  306MOL0     C41216   7.505   3.873   4.882  0.0235 -0.2050 -0.3856
  306MOL0     C41217   7.630   3.779   4.901  0.3724 -0.2802 -0.4963
  306MOL0     C41218   7.609   3.646   4.832 -0.7758  0.0958  0.3937
  306MOL0    Cl41219   7.659   3.523   4.947  0.2458 -0.1901 -0.4195
  306MOL0     C41220   6.938   4.382   5.017 -0.8010 -0.2341  0.2342
  306MOL0     C41221   6.826   4.348   4.947  0.2987  0.2722  0.8853
  306MOL0     O41222   6.664   4.561   4.744 -0.0148  0.2399 -0.3945
  306MOL0     C41223   6.449   4.513   4.582  0.9870 -0.8533 -0.1365
  306MOL0     C41224   6.337   4.487   4.508 -0.0805  0.5614  0.2972
  306MOL0     N41225   5.693   4.323   4.142 -0.1050  1.1889  0.5407
  306MOL0     N41226   5.564   4.343   4.118  0.1947 -0.0877  0.0276
  306MOL0     C41227   4.319   4.486   4.385 -0.2778  0.1268  0.0212
  306MOL0     C41228   4.198   4.567   4.403 -0.8714 -0.1254  0.1401
  306MOL0     C41229   3.722   4.627   4.396 -0.4790 -0.2475  1.4912
  306MOL0     C41230   3.736   4.646   4.534  0.2614  1.0816 -0.1528
  306MOL0     C41231   3.638   4.699   4.615 -0.2364  0.0034 -0.3932
  306MOL0     C41232   3.518   4.737   4.565 -0.2335  0.5849  1.1183
  306MOL0     O41233   3.426   4.771   4.661 -0.0815 -0.0713  0.0582
  306MOL0     C41234   3.297   4.822   4.627  0.1434 -0.2718 -0.2773
  306MOL0     C41235   3.280   4.966   4.677 -0.1711 -0.3001  0.2373
  306MOL0     C41236   3.124   5.002   4.683  1.1347 -0.0151  0.3373
  306MOL0     C41237   3.120   5.151   4.727  0.3697  0.6085  0.5948
  306MOL0     C41238   2.985   5.207   4.717  0.0119  0.0710 -1.1821
  306MOL0     C41239   2.878   5.263   4.707 -0.1672  0.1440  0.5981
  306MOL0     C41240   3.493   4.698   4.428  0.6704  0.3040 -0.7732
  306MOL0     C41241   3.597   4.654   4.342 -0.6164  0.1972 -0.9540
  306MOL0     C41242   3.579   4.645   4.189 -0.5589  0.2028  1.1682
  306MOL0     H41243   3.986   4.374   4.217  1.0148  0.2914 -2.2047
  306MOL0     H41244   4.196   4.233   4.182  2.9303 -1.1452  0.6453
  306MOL0     H41245   4.574   4.409   4.359  1.8610 -1.2676 -1.1933
  306MOL0     H41246   4.553   4.245   4.437  3.0697 -0.2030 -0.2376
  306MOL0     H41247   4.643   4.300   4.157 -2.0158 -0.1346 -0.6062
  306MOL0     H41248   4.615   4.140   4.229 -2.4470  0.6950  0.8315
  306MOL0     H41249   4.797   4.192   4.394 -1.7398  1.0257  0.1990
  306MOL0     H41250   4.793   4.360   4.360  0.9881  0.4158 -1.4215
  306MOL0     H41251   4.896   4.173   4.148 -1.2807 -0.7650  1.9928
  306MOL0     H41252   4.900   4.347   4.150  1.2389 -0.7285 -2.1282
  306MOL0     H41253   5.081   4.364   4.301 -1.8383  1.0527 -1.3917
  306MOL0     H41254   5.036   4.210   4.386 -2.6098  0.6325 -0.6223
  306MOL0     H41255   5.101   4.088   4.208 -2.0539  0.9480  2.1308
  306MOL0     H41256   5.137   4.227   4.108 -0.6557 -1.1291  0.1590
  306MOL0     H41257   5.354   4.125   4.194 -1.0448  0.7738 -2.1905
  306MOL0     H41258   5.303   4.151   4.362 -1.7341 -0.1869 -0.1238
  306MOL0     H41259   5.313   4.372   4.156 -2.1236 -1.0360  0.5357
  306MOL0     H41260   5.313   4.379   4.329  0.0321  2.3893 -0.6522
  306MOL0     H41261   5.572   4.316   4.448 -0.2867 -1.1534 -0.0852
  306MOL0     H41262   5.906   4.390   4.300 -1.0283  2.3636  1.5417
  306MOL0     H41263   5.838   4.336   4.456 -1.7756  1.3205 -0.9938
  306MOL0     H41264   5.828   4.102   4.362 -0.3936  0.1093  0.3395
  306MOL0     H41265   5.933   4.162   4.226  0.5313  1.1224  1.0064
  306MOL0     H41266   6.048   4.031   4.402  0.7506  0.4923  1.6051
  306MOL0     H41267   6.022   4.159   4.524 -1.0672  2.1447  0.0916
  306MOL0     H41268   6.129   4.218   4.248 -3.0760  0.1344  0.5115
  306MOL0     H41269   6.232   4.149   4.374 -0.0520  0.7028  4.0064
  306MOL0     H41270   6.287   4.160   4.575 -0.6928  1.3896 -0.0840
  306MOL0     H41271   6.498   4.205   4.713  0.5371  1.0504  2.6526
  306MOL0     H41272   6.964   4.412   4.635  1.8754  0.6057  1.2973
  306MOL0     H41273   7.171   4.440   4.780 -1.0120  3.2878  1.5598
  306MOL0     H41274   7.238   4.317   5.193 -0.7554  0.7523  0.0109
  306MOL0     H41275   7.219   4.231   5.030  1.8147 -0.9652 -0.6067
  306MOL0     H41276   7.400   4.371   4.936 -0.1708  0.5360 -0.2689
  306MOL0     H41277   7.439   4.429   5.105 -0.1355  0.0673 -0.4993
  306MOL0     H41278   7.577   4.246   5.056 -0.9956 -0.6973  0.6095
  306MOL0     H41279   7.481   4.190   5.172 -3.8500  0.0862  0.3756
  306MOL0     H41280   7.439   4.155   4.865 -1.7232  1.0922  0.5544
  306MOL0     H41281   7.346   4.056   4.984  1.7454 -2.4145 -0.0222
  306MOL0     H41282   7.537   3.949   5.072  4.9947 -3.2459 -0.6988
  306MOL0     H41283   7.642   4.029   4.964 -0.0968 -0.1096  1.6936
  306MOL0     H41284   7.410   3.827   4.910 -0.6176  1.0367 -0.4675
  306MOL0     H41285   7.498   3.900   4.776  0.2961  0.2073 -0.3008
  306MOL0     H41286   7.648   3.763   5.008  0.1420  1.2339 -0.2014
  306MOL0     H41287   7.722   3.818   4.856  0.6802 -0.1069  0.2531
  306MOL0     H41288   7.505   3.637   4.801  0.2095  1.1345 -3.8285
  306MOL0     H41289   7.666   3.629   4.740 -1.0408  0.4570  0.1596
  306MOL0     H41290   6.937   4.392   5.125  0.2152 -1.3919  0.3841
  306MOL0     H41291   6.727   4.320   4.981 -0.2010 -0.2220 -0.8872
  306MOL0     H41292   6.495   4.612   4.582  0.9615 -0.7484  2.8106
  306MOL0     H41293   6.294   4.566   4.447  0.0784  0.5615  0.1849
  306MOL0     H41294   4.414   4.516   4.427  0.4972 -0.5191 -1.2198
  306MOL0     H41295   4.187   4.651   4.471  1.8972 -1.0558  1.9062
  306MOL0     H41296   3.821   4.624   4.599 -0.3553  1.3607  0.7752
  306MOL0     H41297   3.658   4.707   4.721 -0.2584 -1.0353 -0.3069
  306MOL0     H41298   3.224   4.762   4.681  0.1391 -1.9470 -2.0338
  306MOL0     H41299   3.279   4.819   4.519  2.5006  2.6398 -0.8978
  306MOL0     H41300   3.334   5.042   4.618 -0.8001 -1.1952 -1.5536
  306MOL0     H41301   3.313   4.974   4.781 -0.2569  0.4422  0.2131
  306MOL0     H41302   3.077   4.939   4.759  1.4499 -1.3530 -0.5470
  306MOL0     H41303   3.075   4.988   4.586  2.2703  3.4032 -0.8898
  306MOL0     H41304   3.159   5.166   4.828  1.0619 -1.4138  0.6705
  306MOL0     H41305   3.176   5.217   4.660 -1.2305  1.2221 -0.2060
  306MOL0     H41306   2.773   5.285   4.704 -0.4841 -1.2948  0.3418
  306MOL0     H41307   3.395   4.719   4.385  0.5453 -1.5184 -1.4637
  306MOL0     H41308   3.568   4.541   4.155 -0.2896  0.4402  0.3487
  306MOL0     H41309   3.483   4.690   4.164 -0.1814  1.2823  1.6048
  306MOL0     H41310   3.653   4.700   4.131 -1.3036  0.7372  0.7164
  307MOL0     O41311   5.925   3.227  10.926 -0.0138  0.0900 -0.2986
  307MOL0     C41312   5.848   3.170  11.006 -0.3257 -0.0158 -0.7236
  307MOL0     O41313   5.867   3.044  11.055 -0.5155 -0.5383 -0.1698
  307MOL0     C41314   5.996   3.005  11.050 -0.3276  0.5213  0.7719
  307MOL0     C41315   6.064   2.981  11.167  0.3172 -0.6643  0.3190
  307MOL0     C41316   6.197   2.949  11.174 -0.3295  0.2510 -0.2067
  307MOL0     C41317   6.276   2.930  11.066  0.2774  0.1519 -0.3322
  307MOL0     O41318   6.408   2.899  11.076 -0.0212  0.1524  0.0788
  307MOL0     C41319   6.494   3.002  11.139  0.7293 -0.3775 -0.0930
  307MOL0     C41320   6.512   3.124  11.044  0.0889 -0.0061 -1.2389
  307MOL0     C41321   6.563   3.088  10.908 -0.0368 -0.4466 -1.2985
  307MOL0     C41322   6.583   3.217  10.821  1.2012 -0.3506  0.5240
  307MOL0     C41323   6.732   3.284  10.812 -0.6523  0.3432 -0.9518
  307MOL0     C41324   6.761   3.395  10.921 -0.5064  0.5582 -0.3617
  307MOL0     C41325   6.682   3.529  10.900  0.3601 -0.9216 -0.0577
  307MOL0     C41326   6.731   3.639  10.990 -0.7247  0.1256 -0.2042
  307MOL0     N41327   6.858   3.709  10.952 -0.3679  0.4255 -0.1165
  307MOL0     C41328   6.972   3.707  11.036 -0.4216 -0.1334  0.6863
  307MOL0     C41329   7.055   3.804  10.979  0.5862  0.4276  1.2089
  307MOL0     C41330   7.194   3.835  11.031 -0.0804  0.5306  0.2851
  307MOL0     C41331   7.205   3.930  11.143  0.8746 -0.2646 -0.2545
  307MOL0     C41332   7.170   4.074  11.113  0.7447 -0.3857  0.5052
  307MOL0     C41333   7.276   4.148  11.028 -0.1480 -0.4023  0.7869
  307MOL0     O41334   7.395   4.170  11.106 -0.5818  0.2483  0.1807
  307MOL0     C41335   7.507   4.214  11.040  0.3893  0.1749 -0.8843
  307MOL0     C41336   7.516   4.255  10.910  0.3521 -0.3667  0.3747
  307MOL0     C41337   7.627   4.300  10.844 -0.0061  0.4448 -0.2600
  307MOL0     C41338   7.748   4.286  10.918 -0.5823  0.0065 -0.4161
  307MOL0     C41339   7.873   4.325  10.847  0.3666 -0.4168  0.3621
  307MOL0     O41340   7.997   4.300  10.922  0.1898  0.3451 -0.0509
  307MOL0     C41341   8.123   4.339  10.871  0.1574 -0.3733 -0.2633
  307MOL0     C41342   8.202   4.440  10.930 -0.3867 -0.1883  0.7191
  307MOL0     C41343   8.334   4.467  10.879  0.6364 -1.1062  0.5419
  307MOL0     C41344   8.375   4.406  10.763  0.1879  0.3399 -0.2097
  307MOL0     O41345   8.504   4.426  10.714  0.1335  0.9342 -0.8149
  307MOL0     C41346   8.524   4.384  10.583 -0.1585  0.0682  0.3477
  307MOL0     C41347   8.660   4.437  10.527 -0.3485 -0.5507  0.2524
  307MOL0     C41348   8.774   4.370  10.596 -0.3869 -0.3441 -0.5651
  307MOL0     C41349   8.905   4.379  10.516 -0.5569  0.2338 -0.4559
  307MOL0     C41350   9.024   4.293  10.562  0.2642  0.2817  0.4451
  307MOL0     C41351   9.074   4.337  10.698 -0.7901 -0.2396  1.2952
  307MOL0     C41352   9.183   4.232  10.738  0.0094 -0.6431 -0.1341
  307MOL0     C41353   9.327   4.281  10.694 -0.2380 -0.0331  0.0472
  307MOL0    Cl41354   9.396   4.416  10.806 -0.1012 -0.4570  0.1120
  307MOL0     C41355   8.289   4.306  10.702  0.0256 -0.0393  0.3560
  307MOL0     C41356   8.165   4.274  10.759 -0.4725  0.0442  0.3380
  307MOL0     O41357   7.866   4.385  10.736  0.0883 -0.1503  0.2786
  307MOL0     C41358   7.747   4.245  11.058 -0.8243 -0.4198  0.7841
  307MOL0     C41359   7.624   4.212  11.115 -0.8110  0.7910 -0.0769
  307MOL0     N41360   6.987   3.844  10.863 -0.5105 -0.3718  0.4510
  307MOL0     N41361   6.879   3.782  10.846  0.5691 -0.2717 -0.0208
  307MOL0     C41362   6.208   2.937  10.938 -0.2241  0.3258 -0.2388
  307MOL0     C41363   6.070   2.969  10.927 -0.1972 -0.2683 -0.4037
  307MOL0     C41364   5.725   3.233  11.038  0.4262  0.2289  0.1067
  307MOL0     C41365   5.654   3.293  10.926  0.0973 -0.8747  0.4632
  307MOL0     C41366   5.535   3.365  10.957 -0.0456  0.3235 -0.1476
  307MOL0     C41367   5.474   3.363  11.088  0.6552  0.8143  0.2252
  307MOL0     O41368   5.361   3.430  11.117 -0.2750  0.1345  0.6532
  307MOL0     C41369   5.289   3.504  11.016  0.2634 -0.2647  0.2951
  307MOL0     C41370   5.181   3.595  11.073  0.9475  0.0130 -0.3544
  307MOL0     C41371   5.066   3.613  10.968 -0.1535 -0.2694  0.2232
  307MOL0     C41372   4.955   3.705  11.029 -0.0148 -0.4146  0.5199
  307MOL0     C41373   5.007   3.841  11.047  0.9273 -0.4973  0.3928
  307MOL0     C41374   5.065   3.949  11.060  0.3121 -0.1686 -0.2555
  307MOL0     C41375   5.550   3.305  11.188  0.4597 -0.2662 -0.3744
  307MOL0     C41376   5.676   3.249  11.171 -0.3194  1.0155  0.1135
  307MOL0     C41377   5.741   3.200  11.293  0.0270 -0.3644 -0.3124
  307MOL0     H41378   6.011   2.989  11.262  0.1118 -1.2973  0.2603
  307MOL0     H41379   6.249   2.949  11.269  0.9035 -0.4851 -0.8545
  307MOL0     H41380   6.468   3.029  11.242 -0.1580 -1.7262  0.0702
  307MOL0     H41381   6.584   2.941  11.157  1.3144  0.6136  0.4217
  307MOL0     H41382   6.580   3.193  11.094  1.8928 -4.1420  2.7960
  307MOL0     H41383   6.414   3.173  11.045 -0.7345 -1.5960 -1.2026
  307MOL0     H41384   6.490   3.022  10.859 -1.8213  1.6399 -1.5926
  307MOL0     H41385   6.655   3.030  10.921  0.5785  0.8559  0.4835
  307MOL0     H41386   6.549   3.196  10.719  1.1745  0.3099  0.3937
  307MOL0     H41387   6.524   3.301  10.857  3.4158  0.7197  1.9018
  307MOL0     H41388   6.811   3.209  10.818  1.6481  2.6875  0.0778
  307MOL0     H41389   6.750   3.327  10.714  0.7800  1.7788 -0.1148
  307MOL0     H41390   6.745   3.350  11.019  0.6657 -1.9790 -1.2652
  307MOL0     H41391   6.868   3.417  10.927 -0.5128  0.3184  0.9717
  307MOL0     H41392   6.579   3.502  10.926  0.7992 -2.1056  0.5281
  307MOL0     H41393   6.691   3.570  10.799  0.3808  1.2371  0.7611
  307MOL0     H41394   6.655   3.718  10.983 -0.4353  0.4092 -0.1234
  307MOL0     H41395   6.733   3.597  11.091 -1.1741 -1.1252 -0.6890
  307MOL0     H41396   6.987   3.658  11.131  2.8882 -0.7738 -0.0397
  307MOL0     H41397   7.240   3.743  11.068  1.0933  1.9252  2.4628
  307MOL0     H41398   7.251   3.879  10.948  1.0872  2.9692  2.2740
  307MOL0     H41399   7.143   3.892  11.225 -0.0706 -2.0918 -1.7435
  307MOL0     H41400   7.304   3.930  11.189  1.1523  1.9479 -0.7602
  307MOL0     H41401   7.159   4.134  11.205 -2.1279 -0.5188  0.3111
  307MOL0     H41402   7.079   4.085  11.054  2.4888 -2.6570 -2.9558
  307MOL0     H41403   7.221   4.237  10.998 -0.0761  0.0070  1.8036
  307MOL0     H41404   7.301   4.088  10.940 -1.9353  1.0360 -0.7692
  307MOL0     H41405   7.423   4.253  10.854 -0.2839 -3.5303  1.3573
  307MOL0     H41406   7.632   4.330  10.740  7.8673 -2.9339 -1.5803
  307MOL0     H41407   8.178   4.491  11.023  0.3131  3.0700 -0.7611
  307MOL0     H41408   8.406   4.531  10.929  0.5149 -0.7825  0.3013
  307MOL0     H41409   8.526   4.274  10.584  1.0523  0.0796  0.8397
  307MOL0     H41410   8.436   4.413  10.524 -0.9983 -1.2485  0.8993
  307MOL0     H41411   8.672   4.425  10.419  1.1419 -1.7253  0.5186
  307MOL0     H41412   8.674   4.543  10.551 -1.4466 -0.6006  1.1570
  307MOL0     H41413   8.796   4.418  10.692  0.3766 -1.1277 -0.3368
  307MOL0     H41414   8.758   4.263  10.616  0.5238 -0.8340 -2.2479
  307MOL0     H41415   8.937   4.483  10.521  1.5297 -0.3130 -1.2331
  307MOL0     H41416   8.884   4.342  10.415  1.2521 -1.8993 -0.1490
  307MOL0     H41417   9.113   4.306  10.501  0.3339  3.4652  1.0389
  307MOL0     H41418   8.992   4.189  10.558  2.4853 -0.4265 -0.5446
  307MOL0     H41419   9.111   4.440  10.701 -1.9445  0.3157 -1.2148
  307MOL0     H41420   8.988   4.321  10.763 -1.9863 -1.5865 -0.5385
  307MOL0     H41421   9.181   4.133  10.690  1.6576 -0.5134 -0.5260
  307MOL0     H41422   9.190   4.225  10.847 -0.3333  2.0113  0.1146
  307MOL0     H41423   9.395   4.197  10.681  0.8840  1.0046 -1.0957
  307MOL0     H41424   9.301   4.321  10.595 -0.1360 -0.8290 -0.3116
  307MOL0     H41425   8.299   4.255  10.606 -0.5223 -3.3970  1.9206
  307MOL0     H41426   8.105   4.200  10.706  1.4421 -1.0478 -0.3988
  307MOL0     H41427   7.836   4.227  11.117 -1.2691 -1.7836  1.0736
  307MOL0     H41428   7.631   4.176  11.217 -0.2044 -2.9823 -1.2975
  307MOL0     H41429   6.271   2.919  10.851  1.5807 -0.0904  1.0825
  307MOL0     H41430   6.020   2.995  10.834  1.6553  3.9481 -0.4476
  307MOL0     H41431   5.692   3.293  10.824 -0.7303  0.5333  0.1286
  307MOL0     H41432   5.480   3.412  10.877 -2.2527  0.6791  1.4948
  307MOL0     H41433   5.251   3.435  10.940  0.5053 -0.2570  0.1689
  307MOL0     H41434   5.363   3.564  10.962 -0.4611  0.0758 -0.3450
  307MOL0     H41435   5.224   3.692  11.099 -0.0505 -0.0593  1.7977
  307MOL0     H41436   5.141   3.555  11.166  2.8420  0.0081  0.4982
  307MOL0     H41437   5.023   3.516  10.943 -1.1618  0.6265 -1.7831
  307MOL0     H41438   5.102   3.669  10.881 -0.1701 -1.0010 -0.2541
  307MOL0     H41439   4.884   3.713  10.946  4.4435  1.4795 -3.5852
  307MOL0     H41440   4.917   3.655  11.119  0.6960 -0.4876  0.7795
  307MOL0     H41441   5.124   4.038  11.066  0.2074 -0.1494  0.8130
  307MOL0     H41442   5.509   3.314  11.288 -0.1579 -2.7917 -0.3136
  307MOL0     H41443   5.846   3.230  11.290 -1.1329  4.8166  1.1805
  307MOL0     H41444   5.696   3.228  11.389  1.2384 -0.3308  0.2642
  307MOL0     H41445   5.733   3.091  11.294  2.5368 -0.6140  1.1514
  308MOL0     O41446   6.189   6.378   7.650 -0.1846  0.0495 -0.1426
  308MOL0     C41447   6.154   6.458   7.737  0.1074  0.4264 -0.2545
  308MOL0     O41448   6.228   6.550   7.790  0.0459  0.5009 -0.0673
  308MOL0     C41449   6.360   6.546   7.771  0.3515 -0.8668 -0.2657
  308MOL0     C41450   6.444   6.492   7.869  0.0634  0.0195  0.5556
  308MOL0     C41451   6.578   6.502   7.871  0.2925 -0.4005  0.9250
  308MOL0     C41452   6.640   6.565   7.757  0.1946 -0.1541 -0.6905
  308MOL0     O41453   6.777   6.576   7.759 -0.0751  0.2492 -0.4709
  308MOL0     C41454   6.833   6.643   7.646  0.2641  0.3010  0.2588
  308MOL0     C41455   6.982   6.645   7.649  0.2572 -0.0982  0.1484
  308MOL0     C41456   7.042   6.690   7.512  0.3552  0.0084 -1.0277
  308MOL0     C41457   7.194   6.709   7.520  0.7302 -0.4477 -0.5460
  308MOL0     C41458   7.248   6.751   7.388  0.0550  0.4507 -0.0601
  308MOL0     C41459   7.406   6.766   7.405  0.6895  0.1659 -0.4814
  308MOL0     C41460   7.478   6.807   7.279  0.9345  0.1114 -0.1431
  308MOL0     C41461   7.622   6.836   7.316  0.2786 -0.0642  0.9225
  308MOL0     N41462   7.701   6.838   7.184  1.5537 -0.6714 -1.2722
  308MOL0     C41463   7.764   6.741   7.125 -0.2836  0.2925  0.0924
  308MOL0     C41464   7.829   6.790   7.015 -0.4617  0.8886 -0.8492
  308MOL0     C41465   7.923   6.715   6.927 -0.2288  0.1846  0.0672
  308MOL0     C41466   8.060   6.789   6.926  0.0137 -0.0954  0.3656
  308MOL0     C41467   8.158   6.750   7.047  0.2140 -1.2155 -0.6035
  308MOL0     C41468   8.291   6.821   7.037 -0.5591  0.6361  0.6030
  308MOL0     O41469   8.395   6.737   6.977 -0.1798  0.4197  0.4004
  308MOL0     C41470   8.516   6.791   6.964  0.5716  0.1948 -1.2799
  308MOL0     C41471   8.610   6.713   6.896 -0.0627 -0.1604  0.1572
  308MOL0     C41472   8.747   6.752   6.874 -0.3402 -0.0777  0.1954
  308MOL0     C41473   8.797   6.880   6.926 -0.3665 -0.7946 -1.1672
  308MOL0     C41474   8.944   6.917   6.920  0.3519  0.4861  0.0341
  308MOL0     O41475   8.989   7.042   6.968  0.1046 -0.5263 -0.1524
  308MOL0     C41476   9.126   7.058   6.980  0.4583  0.2904 -0.7507
  308MOL0     C41477   9.203   6.974   7.052 -0.0462 -0.5635 -0.5766
  308MOL0     C41478   9.336   7.000   7.074 -0.0608 -0.2136  0.2496
  308MOL0     C41479   9.392   7.111   7.010 -1.1600 -0.4413 -0.2188
  308MOL0     O41480   9.529   7.143   7.031  0.2062 -0.0991  0.9026
  308MOL0     C41481   9.584   7.211   6.914 -1.3629 -0.0803 -0.8320
  308MOL0     C41482   9.742   7.230   6.912 -0.2615 -0.0904 -0.3409
  308MOL0     C41483   9.809   7.295   7.030 -0.2077 -0.0289  0.0764
  308MOL0     C41484   9.959   7.274   7.026  0.5738 -0.4058 -1.0632
  308MOL0     C41485  10.027   7.317   7.155 -0.4007  0.9227 -0.1553
  308MOL0     C41486  10.159   7.243   7.175  0.5952  0.1487 -0.3825
  308MOL0     C41487  10.223   7.270   7.314  0.3735  0.4975 -0.5759
  308MOL0     C41488  10.371   7.233   7.312  0.3449 -0.1188  0.2110
  308MOL0    Cl41489  10.469   7.345   7.209 -0.4928  0.0274  0.0575
  308MOL0     C41490   9.313   7.191   6.928 -0.2356 -0.0429  0.2027
  308MOL0     C41491   9.182   7.161   6.910  0.1551  0.6539  0.1861
  308MOL0     O41492   9.012   6.834   6.861 -0.5456  0.4949 -0.0036
  308MOL0     C41493   8.704   6.945   7.006  0.4552  0.0625  0.5205
  308MOL0     C41494   8.568   6.908   7.019  0.0284  0.4720 -0.1098
  308MOL0     N41495   7.805   6.926   7.029  0.1596 -0.2571 -0.5290
  308MOL0     N41496   7.719   6.957   7.120  0.0036  1.0904  0.3698
  308MOL0     C41497   6.560   6.624   7.661  0.0995  0.0579  0.3781
  308MOL0     C41498   6.426   6.611   7.657  0.1730 -0.2629  0.2770
  308MOL0     C41499   6.010   6.453   7.786 -0.2890 -0.9478 -0.3184
  308MOL0     C41500   5.949   6.336   7.779  0.6077  0.8968  0.1324
  308MOL0     C41501   5.822   6.314   7.823 -0.3009  0.0333 -0.4286
  308MOL0     C41502   5.744   6.413   7.884 -0.5507  0.0145 -0.3882
  308MOL0     O41503   5.619   6.380   7.916  0.8735 -0.6975 -0.3540
  308MOL0     C41504   5.523   6.477   7.973 -0.0797 -0.2492  0.0804
  308MOL0     C41505   5.382   6.457   7.911 -0.5128 -0.3596  0.1025
  308MOL0     C41506   5.384   6.455   7.757  0.7114 -0.3289  0.3358
  308MOL0     C41507   5.254   6.439   7.689  0.3992  0.1958  0.7269
  308MOL0     C41508   5.232   6.296   7.649  0.0674  0.5134  0.3500
  308MOL0     C41509   5.205   6.186   7.614  0.0213  1.0218  0.0272
  308MOL0     C41510   5.805   6.537   7.897 -0.3069 -0.5373  0.0875
  308MOL0     C41511   5.936   6.562   7.841  0.0120 -0.6508  0.0398
  308MOL0     C41512   5.989   6.708   7.835  0.7238 -0.6013 -0.1941
  308MOL0     H41513   6.406   6.434   7.953  2.4528 -3.0610 -0.3043
  308MOL0     H41514   6.638   6.468   7.955  1.2483 -0.7648  0.1207
  308MOL0     H41515   6.813   6.586   7.555 -1.3849  0.0581  0.7410
  308MOL0     H41516   6.793   6.745   7.636  0.2698  0.3833  1.0458
  308MOL0     H41517   7.013   6.542   7.666 -0.6646 -0.0926  2.0880
  308MOL0     H41518   7.011   6.708   7.734 -1.1214 -0.9123  1.2655
  308MOL0     H41519   6.992   6.781   7.477 -3.4486 -0.5626  2.1923
  308MOL0     H41520   7.013   6.614   7.439  2.9404  0.1691 -2.3196
  308MOL0     H41521   7.212   6.792   7.588 -1.0529  0.0921 -0.6827
  308MOL0     H41522   7.245   6.620   7.557 -0.1937 -0.8670 -0.2349
  308MOL0     H41523   7.217   6.680   7.311  3.8996 -1.0110 -0.5009
  308MOL0     H41524   7.206   6.846   7.355  0.1266 -0.0133 -1.5717
  308MOL0     H41525   7.430   6.839   7.483  0.3252 -0.9309  0.7112
  308MOL0     H41526   7.447   6.669   7.437 -3.1483 -1.5323 -0.1241
  308MOL0     H41527   7.446   6.902   7.234  0.7890 -0.1218 -0.5345
  308MOL0     H41528   7.466   6.734   7.199  1.1744 -0.5496  0.4199
  308MOL0     H41529   7.631   6.940   7.348 -2.5947  0.5011  0.1891
  308MOL0     H41530   7.661   6.769   7.393  2.2701 -0.8485 -0.6812
  308MOL0     H41531   7.768   6.641   7.165  0.2738  1.2801  2.7104
  308MOL0     H41532   7.937   6.612   6.963  1.0677  0.3659  0.1204
  308MOL0     H41533   7.880   6.709   6.826 -0.1514  1.1572 -0.0286
  308MOL0     H41534   8.124   6.771   6.840  1.0569 -1.3856  1.3771
  308MOL0     H41535   8.040   6.897   6.920 -0.0650 -0.1958 -2.1984
  308MOL0     H41536   8.181   6.644   7.052  1.7479 -0.8791  0.0831
  308MOL0     H41537   8.107   6.780   7.139  1.7557  1.3617 -0.4723
  308MOL0     H41538   8.325   6.844   7.139 -1.2453 -3.4092  1.9621
  308MOL0     H41539   8.273   6.915   6.985 -0.5667 -0.6070 -1.7942
  308MOL0     H41540   8.589   6.618   6.849  0.0876 -1.2793  2.2372
  308MOL0     H41541   8.813   6.691   6.814 -0.3521 -0.1259  0.2311
  308MOL0     H41542   9.156   6.892   7.107 -0.3585  1.2092  1.9726
  308MOL0     H41543   9.402   6.939   7.134 -2.9868 -2.8730  1.0582
  308MOL0     H41544   9.550   7.157   6.826 -0.5414 -1.6019 -0.2545
  308MOL0     H41545   9.547   7.314   6.912 -0.4260  0.2550 -2.6646
  308MOL0     H41546   9.783   7.128   6.906  3.1080  0.9440  2.0473
  308MOL0     H41547   9.774   7.288   6.825  0.4980 -1.8836 -1.3183
  308MOL0     H41548   9.798   7.404   7.031 -0.1249 -0.0029 -1.0096
  308MOL0     H41549   9.762   7.274   7.127 -3.9670  1.7839 -1.1479
  308MOL0     H41550  10.001   7.326   6.940  1.0150  1.6440  0.3339
  308MOL0     H41551   9.968   7.167   7.004  0.0190 -0.7556  0.3229
  308MOL0     H41552   9.971   7.275   7.239 -0.9424 -0.6531 -1.2404
  308MOL0     H41553  10.052   7.422   7.170  3.9738 -0.1870  2.1228
  308MOL0     H41554  10.133   7.137   7.174  1.8584 -0.1765 -1.0437
  308MOL0     H41555  10.226   7.279   7.095 -0.0451  3.2393  0.3410
  308MOL0     H41556  10.156   7.223   7.387  0.2644 -1.0591 -1.6284
  308MOL0     H41557  10.222   7.376   7.339  0.9624  0.3441  0.1234
  308MOL0     H41558  10.408   7.214   7.413  1.7000  0.0353 -0.2379
  308MOL0     H41559  10.384   7.136   7.262  0.0663 -0.2341  0.3597
  308MOL0     H41560   9.342   7.278   6.869  0.9162  1.0157  2.1993
  308MOL0     H41561   9.115   7.208   6.839  0.9621 -0.9356 -1.7239
  308MOL0     H41562   8.727   7.041   7.052 -0.2194  0.6772 -0.3759
  308MOL0     H41563   8.505   6.971   7.081 -3.2719 -1.2243 -1.5523
  308MOL0     H41564   6.606   6.685   7.584 -0.3451  1.1658  0.9623
  308MOL0     H41565   6.356   6.646   7.582 -0.5536 -1.2309  0.4751
  308MOL0     H41566   5.993   6.246   7.737  3.4812  2.8053 -1.2257
  308MOL0     H41567   5.773   6.219   7.805 -0.3686  0.1026 -0.6257
  308MOL0     H41568   5.550   6.582   7.956  1.8237 -0.6230  0.5289
  308MOL0     H41569   5.520   6.455   8.080 -1.5336  0.6225  0.2490
  308MOL0     H41570   5.335   6.549   7.946  1.7697  0.7175  0.5070
  308MOL0     H41571   5.337   6.362   7.942  0.5127 -0.6635  0.7072
  308MOL0     H41572   5.446   6.372   7.721  1.0735  1.3395 -3.2440
  308MOL0     H41573   5.442   6.538   7.717  1.8960 -2.7663 -3.6168
  308MOL0     H41574   5.184   6.468   7.767 -0.4582 -1.1915  0.5069
  308MOL0     H41575   5.242   6.506   7.602 -2.1284 -0.4648  0.4917
  308MOL0     H41576   5.190   6.082   7.594  1.1087  0.7691  0.4602
  308MOL0     H41577   5.758   6.624   7.943  2.0786  1.4414 -1.0375
  308MOL0     H41578   5.911   6.782   7.854 -0.5823 -2.0542  0.3140
  308MOL0     H41579   6.055   6.718   7.922  0.3627 -4.6241  0.7264
  308MOL0     H41580   6.042   6.723   7.740  1.0177 -1.6966 -0.2211
  309MOL0     O41581   4.987   0.020  11.269  0.4271 -0.3418  0.0467
  309MOL0     C41582   4.894   0.059  11.199 -0.0685 -0.2952  0.1583
  309MOL0     O41583   4.876   0.186  11.157 -0.2904 -0.1122  0.5085
  309MOL0     C41584   4.959   0.291  11.196  0.0955  1.1190  0.0895
  309MOL0     C41585   5.021   0.304  11.323  0.1186  0.0696 -0.1808
  309MOL0     C41586   5.104   0.404  11.353 -0.4627 -0.6011 -0.4983
  309MOL0     C41587   5.124   0.507  11.263 -0.7836 -0.7728  0.6789
  309MOL0     O41588   5.192   0.621  11.287 -0.5129  0.4398 -0.1951
  309MOL0     C41589   5.322   0.613  11.358 -0.4768  0.7013  0.3074
  309MOL0     C41590   5.394   0.746  11.342 -0.4045  0.3024 -0.3698
  309MOL0     C41591   5.360   0.843  11.457 -0.6995 -0.7168  0.7955
  309MOL0     C41592   5.420   0.810  11.589 -0.7191 -0.7872  0.7206
  309MOL0     C41593   5.397   0.915  11.694  0.1552 -0.2851 -0.4668
  309MOL0     C41594   5.455   0.884  11.835 -0.0308 -0.4554 -0.4261
  309MOL0     C41595   5.408   0.753  11.894  0.0983 -0.4687  0.2407
  309MOL0     C41596   5.476   0.710  12.027 -0.0782 -0.7812 -0.8958
  309MOL0     N41597   5.623   0.726  12.016 -0.2179 -0.6822 -0.4757
  309MOL0     C41598   5.705   0.644  11.940 -0.3341  0.5140 -0.4339
  309MOL0     C41599   5.828   0.699  11.953  0.8422  0.9575 -1.0792
  309MOL0     C41600   5.954   0.638  11.906  0.1150 -0.4166  0.2141
  309MOL0     C41601   5.986   0.684  11.759 -0.6013  0.1517  0.3245
  309MOL0     C41602   6.021   0.831  11.753 -0.0992  0.6684 -0.6865
  309MOL0     C41603   6.063   0.864  11.605 -0.5835 -0.5112 -0.3311
  309MOL0     O41604   6.154   0.979  11.611 -0.0958  1.2191 -0.3767
  309MOL0     C41605   6.208   1.033  11.494  0.1861  0.4099 -0.0038
  309MOL0     C41606   6.204   0.963  11.374 -0.1828 -0.1202  0.4488
  309MOL0     C41607   6.281   1.013  11.265  0.8701 -0.2496 -0.2896
  309MOL0     C41608   6.368   1.125  11.283  0.6533 -0.9543 -0.0514
  309MOL0     C41609   6.456   1.172  11.169  0.0307 -0.8495  0.2970
  309MOL0     O41610   6.553   1.276  11.192  0.1390 -0.0759  0.2954
  309MOL0     C41611   6.660   1.309  11.117  0.7051  0.1711  0.0589
  309MOL0     C41612   6.674   1.282  10.977 -0.7996 -0.0808  0.4850
  309MOL0     C41613   6.797   1.301  10.914  0.0711  0.2816  0.5587
  309MOL0     C41614   6.911   1.348  10.981 -0.5638 -0.6385  0.1064
  309MOL0     O41615   7.032   1.368  10.921 -0.1407 -0.1497  0.1899
  309MOL0     C41616   7.059   1.300  10.799 -1.0594  0.4385  0.2105
  309MOL0     C41617   7.209   1.282  10.768 -0.1874 -0.0130 -0.6358
  309MOL0     C41618   7.265   1.182  10.867 -0.3306  0.6793  0.3206
  309MOL0     C41619   7.421   1.187  10.845 -0.2134  0.6732  0.1196
  309MOL0     C41620   7.516   1.113  10.940  0.0760  0.2788  0.5358
  309MOL0     C41621   7.659   1.114  10.906  0.1285  0.2391  0.1680
  309MOL0     C41622   7.745   1.015  10.994  0.2689  0.4841  0.1258
  309MOL0     C41623   7.735   1.041  11.141 -0.1516  0.7024 -0.8973
  309MOL0    Cl41624   7.780   0.889  11.226  0.2142 -0.1963 -0.1066
  309MOL0     C41625   6.894   1.381  11.120 -0.0139  0.5972 -0.3847
  309MOL0     C41626   6.763   1.366  11.187  0.2018 -0.7991  0.3376
  309MOL0     O41627   6.445   1.117  11.065  0.4511  0.1885  0.0889
  309MOL0     C41628   6.361   1.192  11.403 -0.0227  0.3204 -0.6646
  309MOL0     C41629   6.282   1.141  11.509 -0.5667 -0.4122 -0.0994
  309MOL0     N41630   5.823   0.804  12.042 -1.2942 -0.6742  0.7688
  309MOL0     N41631   5.699   0.822  12.077  0.3157  0.2743  0.2517
  309MOL0     C41632   5.061   0.503  11.136  0.0778  0.1949 -1.1026
  309MOL0     C41633   4.979   0.393  11.113 -0.3912  0.8396  0.6358
  309MOL0     C41634   4.783  -0.031  11.156  0.5617  0.1095  0.2532
  309MOL0     C41635   4.677   0.025  11.084 -0.7101 -0.1592  0.0753
  309MOL0     C41636   4.580  -0.050  11.030  0.0580 -0.4428  0.0175
  309MOL0     C41637   4.575  -0.188  11.050 -0.1868  0.0964 -0.0249
  309MOL0     O41638   4.482  -0.258  10.974  0.1086 -0.0677 -1.3418
  309MOL0     C41639   4.466  -0.396  10.986  0.0635 -0.5848 -0.1955
  309MOL0     C41640   4.385  -0.440  11.105 -0.3797 -0.4139  0.0453
  309MOL0     C41641   4.244  -0.373  11.097 -0.4368 -0.1031  0.1933
  309MOL0     C41642   4.168  -0.385  10.967  0.0395  0.8490  0.1972
  309MOL0     C41643   4.141  -0.526  10.930 -0.2320  0.8833 -0.2247
  309MOL0     C41644   4.109  -0.639  10.903 -0.6371  0.5528 -0.2433
  309MOL0     C41645   4.675  -0.245  11.131  0.4742  0.7584 -0.4826
  309MOL0     C41646   4.782  -0.171  11.176  0.3858 -0.2229 -0.1966
  309MOL0     C41647   4.895  -0.251  11.233 -0.9157 -0.2777 -0.3633
  309MOL0     H41648   4.986   0.231  11.395  0.1256 -0.7633 -0.9913
  309MOL0     H41649   5.151   0.406  11.451 -2.7218 -1.9816  0.6795
  309MOL0     H41650   5.309   0.587  11.464 -3.0124  1.3519  0.2078
  309MOL0     H41651   5.385   0.543  11.302  0.0686  1.5474 -0.1664
  309MOL0     H41652   5.363   0.794  11.249  0.6303 -1.7628 -1.8587
  309MOL0     H41653   5.499   0.716  11.340 -0.7114 -0.9550  0.9806
  309MOL0     H41654   5.251   0.846  11.467 -0.7493  2.6371  0.4074
  309MOL0     H41655   5.386   0.944  11.426  0.0232 -2.0244 -3.6279
  309MOL0     H41656   5.387   0.708  11.613 -2.0175 -1.0087 -1.7504
  309MOL0     H41657   5.529   0.798  11.587 -0.6787 -0.7228 -2.8011
  309MOL0     H41658   5.432   1.013  11.659  0.6789 -0.0844  0.5881
  309MOL0     H41659   5.288   0.922  11.709  0.0887  0.1605 -1.1003
  309MOL0     H41660   5.564   0.886  11.828 -0.0593  2.1367 -1.4214
  309MOL0     H41661   5.423   0.972  11.892  0.6054  1.0637 -2.3014
  309MOL0     H41662   5.412   0.675  11.818  1.7170  0.2106 -0.4215
  309MOL0     H41663   5.303   0.771  11.918  0.1827  0.8050 -0.2626
  309MOL0     H41664   5.433   0.780  12.099  1.4635  0.2101 -0.8978
  309MOL0     H41665   5.450   0.607  12.051 -1.4337 -0.5262 -1.1843
  309MOL0     H41666   5.679   0.555  11.884  0.3837  0.6002 -0.9082
  309MOL0     H41667   6.030   0.669  11.978  1.7284  3.7571 -2.8723
  309MOL0     H41668   5.942   0.529  11.916  1.8465 -0.5648  1.0426
  309MOL0     H41669   6.071   0.623  11.728  0.6155  0.8990  2.0030
  309MOL0     H41670   5.895   0.664  11.702 -1.7259 -0.2809  2.1523
  309MOL0     H41671   6.116   0.840  11.808  0.0263 -0.0663 -0.7729
  309MOL0     H41672   5.947   0.896  11.800  0.2442 -0.5577  1.7039
  309MOL0     H41673   5.977   0.897  11.546 -2.0909 -0.5979  1.6806
  309MOL0     H41674   6.120   0.784  11.558  0.1743  0.4789 -1.1390
  309MOL0     H41675   6.137   0.879  11.360 -1.5211  1.0325 -0.2287
  309MOL0     H41676   6.282   0.954  11.174 -1.2087 -1.7743  0.5875
  309MOL0     H41677   6.590   1.245  10.920 -0.0599 -0.3096 -0.4773
  309MOL0     H41678   6.807   1.279  10.808 -0.7606 -0.0168  0.5380
  309MOL0     H41679   7.002   1.207  10.787 -1.4711  0.7338 -0.1360
  309MOL0     H41680   7.022   1.356  10.713  1.2802  0.6304 -0.7556
  309MOL0     H41681   7.232   1.257  10.664  1.3615  1.0299 -0.5780
  309MOL0     H41682   7.268   1.371  10.792 -1.2365  0.3890  0.5716
  309MOL0     H41683   7.236   1.216  10.966 -4.8357  1.3782 -1.0106
  309MOL0     H41684   7.222   1.082  10.855 -0.1165  0.5794  0.3769
  309MOL0     H41685   7.448   1.292  10.857  1.6740  0.2300  0.1386
  309MOL0     H41686   7.433   1.162  10.739 -1.4210  0.2634  0.0604
  309MOL0     H41687   7.491   1.007  10.951  0.0415  0.2250 -0.0147
  309MOL0     H41688   7.512   1.156  11.040  2.7205 -0.7790  1.1754
  309MOL0     H41689   7.684   1.084  10.804  2.1060 -1.3964  1.0469
  309MOL0     H41690   7.699   1.214  10.925  1.3414 -0.5348  1.9734
  309MOL0     H41691   7.849   1.023  10.962  0.4300 -2.1037 -0.1808
  309MOL0     H41692   7.709   0.913  10.975  2.3691 -0.5881  1.5730
  309MOL0     H41693   7.805   1.122  11.163  0.5724 -0.4964  1.7627
  309MOL0     H41694   7.632   1.067  11.168 -1.0927 -2.7754 -0.5540
  309MOL0     H41695   6.980   1.410  11.180 -1.7932  0.5183  2.3927
  309MOL0     H41696   6.759   1.379  11.294 -1.5965 -2.1022  0.4725
  309MOL0     H41697   6.409   1.289  11.414 -1.1002  1.2731 -3.2500
  309MOL0     H41698   6.270   1.174  11.612 -0.5428  0.5493 -0.3973
  309MOL0     H41699   5.061   0.590  11.071  3.5410 -0.5379 -2.2695
  309MOL0     H41700   4.944   0.383  11.011  2.0282 -1.2772 -0.0858
  309MOL0     H41701   4.671   0.131  11.058 -1.0982 -0.2355 -0.1543
  309MOL0     H41702   4.507  -0.006  10.963  1.5662 -1.2672 -2.2982
  309MOL0     H41703   4.560  -0.453  10.992 -0.7668 -1.9017  1.6831
  309MOL0     H41704   4.423  -0.432  10.892  0.9645 -1.3710 -0.3312
  309MOL0     H41705   4.435  -0.411  11.198  1.4809 -1.2465 -0.6458
  309MOL0     H41706   4.371  -0.548  11.111 -2.0173 -0.2272  0.0316
  309MOL0     H41707   4.265  -0.267  11.116  1.0836  0.2014 -2.5989
  309MOL0     H41708   4.185  -0.415  11.178 -1.8003  0.1780 -0.6269
  309MOL0     H41709   4.075  -0.327  10.963 -0.5873 -0.1804 -2.0457
  309MOL0     H41710   4.223  -0.331  10.890  1.0277 -1.2172 -0.6084
  309MOL0     H41711   4.069  -0.733  10.872 -0.5573 -0.0543  1.3933
  309MOL0     H41712   4.678  -0.353  11.143  0.2613  0.1151 -4.6414
  309MOL0     H41713   4.997  -0.221  11.204 -1.3630  1.2870 -0.3997
  309MOL0     H41714   4.901  -0.240  11.341  0.9525  0.9863 -0.5524
  309MOL0     H41715   4.889  -0.358  11.211 -1.9510 -0.1191 -0.8884
  310MOL0     O41716  10.761  10.413   3.621 -0.0901  1.0109  0.2324
  310MOL0     C41717  10.702  10.455   3.524  1.6392 -0.2178  0.0566
  310MOL0     O41718  10.729  10.419   3.396 -0.2314  0.0791  0.0613
  310MOL0     C41719  10.856  10.379   3.373 -0.8959 -0.2391  0.7960
  310MOL0     C41720  10.974  10.458   3.400  0.7266  0.0630  0.6406
  310MOL0     C41721  11.105  10.406   3.371  0.1335 -0.5351 -0.3135
  310MOL0     C41722  11.128  10.279   3.327  0.6826  1.2243  0.1704
  310MOL0     O41723  11.244  10.219   3.290 -0.5392  0.0116  0.5339
  310MOL0     C41724  11.346  10.315   3.249  0.2326 -0.8712 -0.3875
  310MOL0     C41725  11.482  10.235   3.226  0.3851 -0.1292 -0.2182
  310MOL0     C41726  11.610  10.324   3.217  0.7184  0.6915 -0.6738
  310MOL0     C41727  11.735  10.220   3.241  0.4383 -0.3544  0.1478
  310MOL0     C41728  11.764  10.139   3.116 -0.2218  0.0361  1.2808
  310MOL0     C41729  11.898  10.054   3.136  0.6475 -0.3796 -0.0369
  310MOL0     C41730  11.907   9.976   3.267 -0.2053 -0.7104 -0.8903
  310MOL0     C41731  11.801   9.875   3.306  0.2227  0.0010 -0.2743
  310MOL0     N41732  11.817   9.745   3.233  0.2510  0.2961  0.2718
  310MOL0     C41733  11.840   9.623   3.275 -0.8018 -0.4013  0.5304
  310MOL0     C41734  11.814   9.535   3.174 -0.8456 -0.2337  0.1024
  310MOL0     C41735  11.839   9.385   3.157  0.1055 -0.4394  0.5342
  310MOL0     C41736  11.760   9.294   3.251  0.5122  0.2508  0.5024
  310MOL0     C41737  11.608   9.270   3.217 -0.2370  0.5733  0.5556
  310MOL0     C41738  11.534   9.196   3.322 -0.4377 -0.1159  0.1063
  310MOL0     O41739  11.574   9.052   3.315 -0.0034 -0.9101  0.0489
  310MOL0     C41740  11.535   8.953   3.405 -0.2743  0.4675 -0.9535
  310MOL0     C41741  11.518   8.968   3.544 -0.7508 -0.3722  0.0703
  310MOL0     C41742  11.479   8.860   3.626 -0.1632  0.0712 -0.9928
  310MOL0     C41743  11.456   8.733   3.571  0.7167 -0.8337  0.4264
  310MOL0     C41744  11.419   8.611   3.646  0.1712 -0.3753 -0.2883
  310MOL0     O41745  11.381   8.633   3.777 -0.1550  0.2360  0.3591
  310MOL0     C41746  11.334   8.516   3.844  0.2534 -0.3510 -0.0201
  310MOL0     C41747  11.203   8.499   3.893  0.0896  0.2979  0.0111
  310MOL0     C41748  11.176   8.384   3.971  0.0119  0.5634  0.0069
  310MOL0     C41749  11.273   8.283   4.000  0.8002 -0.8044 -0.0702
  310MOL0     O41750  11.251   8.178   4.076  0.1968 -0.2255  1.0366
  310MOL0     C41751  11.157   8.183   4.182 -0.1763  0.2971 -0.8811
  310MOL0     C41752  11.205   8.277   4.295  0.0372  0.7286 -0.7185
  310MOL0     C41753  11.338   8.234   4.357 -1.2979 -0.0617 -0.3729
  310MOL0     C41754  11.396   8.342   4.450  0.7651 -0.7916 -0.2878
  310MOL0     C41755  11.519   8.301   4.527 -0.4487  0.0780  1.1926
  310MOL0     C41756  11.554   8.419   4.630  0.7547 -0.3052  0.3811
  310MOL0     C41757  11.699   8.409   4.679 -0.6060 -0.0653 -0.4595
  310MOL0     C41758  11.733   8.537   4.749  0.5514 -0.0667  0.3172
  310MOL0    Cl41759  11.606   8.590   4.862  0.1341  0.0209  0.0733
  310MOL0     C41760  11.397   8.298   3.941 -0.0647  0.0181 -0.2204
  310MOL0     C41761  11.422   8.414   3.867 -0.4086  0.0880 -0.3844
  310MOL0     O41762  11.427   8.500   3.594 -0.0493 -0.2037  0.0363
  310MOL0     C41763  11.473   8.731   3.433  0.2197 -0.1765 -0.2110
  310MOL0     C41764  11.510   8.836   3.349 -0.5002 -0.4489 -0.0519
  310MOL0     N41765  11.763   9.611   3.073  0.7531 -0.7561  0.3224
  310MOL0     N41766  11.776   9.737   3.105 -0.3463  0.2009 -0.6817
  310MOL0     C41767  11.016  10.199   3.301  0.4293 -0.4238  0.3346
  310MOL0     C41768  10.886  10.248   3.320 -0.4501 -0.1803  0.1825
  310MOL0     C41769  10.576  10.532   3.534 -0.2556  0.4253 -0.1333
  310MOL0     C41770  10.529  10.600   3.422  0.2613 -0.1158  0.2145
  310MOL0     C41771  10.405  10.661   3.432 -0.3253  0.3757  0.4482
  310MOL0     C41772  10.317  10.659   3.543 -0.0703 -0.0853 -0.7342
  310MOL0     O41773  10.198  10.732   3.569 -0.1585  0.1158  0.1095
  310MOL0     C41774  10.130  10.786   3.459 -0.7214  0.1623 -0.4386
  310MOL0     C41775   9.983  10.816   3.494  0.0946 -0.1159  0.9516
  310MOL0     C41776   9.897  10.696   3.527 -0.4670  0.8442 -0.2264
  310MOL0     C41777   9.760  10.734   3.588 -0.6618  0.0078  0.0687
  310MOL0     C41778   9.695  10.833   3.507  0.4546  0.2871 -0.0566
  310MOL0     C41779   9.630  10.920   3.457 -0.1027  0.7033 -0.0416
  310MOL0     C41780  10.369  10.596   3.657  0.7870 -0.3619 -0.0187
  310MOL0     C41781  10.491  10.525   3.655 -0.0767 -0.3841  0.0449
  310MOL0     C41782  10.530  10.456   3.784  0.3044 -0.1708  0.7531
  310MOL0     H41783  10.971  10.550   3.458 -0.4929 -0.8910  2.1675
  310MOL0     H41784  11.188  10.474   3.391  1.9045 -2.4435 -0.8344
  310MOL0     H41785  11.316  10.368   3.158 -2.1559  0.0050  0.8122
  310MOL0     H41786  11.361  10.383   3.333  1.6078 -0.4644 -0.9372
  310MOL0     H41787  11.466  10.193   3.127 -1.2047  2.2698 -1.0667
  310MOL0     H41788  11.488  10.154   3.299 -2.3568 -0.2739 -0.0598
  310MOL0     H41789  11.621  10.403   3.292  3.4290 -1.3254  1.2302
  310MOL0     H41790  11.613  10.370   3.118 -0.5309  1.8286 -0.2299
  310MOL0     H41791  11.815  10.285   3.277  0.7302 -0.9259  0.5402
  310MOL0     H41792  11.699  10.154   3.321 -2.0233  0.9397  0.2251
  310MOL0     H41793  11.674  10.079   3.096  0.0875  0.4208 -1.8280
  310MOL0     H41794  11.770  10.202   3.026 -0.2487 -0.6788  0.7688
  310MOL0     H41795  11.900   9.989   3.047 -0.2656 -1.0515  0.4176
  310MOL0     H41796  11.985  10.119   3.123 -1.4612  2.8043  0.6430
  310MOL0     H41797  11.919  10.055   3.342  1.8104 -0.9846 -0.8746
  310MOL0     H41798  12.006   9.933   3.282  0.0733  0.8205  2.8155
  310MOL0     H41799  11.823   9.852   3.411 -1.9382  1.3523  0.5434
  310MOL0     H41800  11.696   9.903   3.295  0.5740  1.2204 -0.6876
  310MOL0     H41801  11.882   9.604   3.374 -2.0098  0.0857  1.1532
  310MOL0     H41802  11.814   9.358   3.054  0.0120  0.2026  0.3785
  310MOL0     H41803  11.944   9.359   3.177  0.3279  0.4054  0.5362
  310MOL0     H41804  11.833   9.212   3.258  1.0494  0.8054  1.5685
  310MOL0     H41805  11.769   9.343   3.348 -0.3088  0.7851  0.3192
  310MOL0     H41806  11.610   9.211   3.125 -0.2362  1.0864  0.2200
  310MOL0     H41807  11.557   9.365   3.197  0.1345  0.4513 -1.1346
  310MOL0     H41808  11.426   9.189   3.304 -0.4686 -3.4470  0.9499
  310MOL0     H41809  11.553   9.241   3.420  0.2085 -0.4569  0.1400
  310MOL0     H41810  11.536   9.065   3.588 -0.9805  0.0887 -0.8281
  310MOL0     H41811  11.468   8.863   3.734  0.2223 -0.6386 -0.9253
  310MOL0     H41812  11.123   8.562   3.855  0.4919  1.5722  1.2065
  310MOL0     H41813  11.077   8.358   4.009  1.3636 -2.4356  1.9230
  310MOL0     H41814  11.055   8.201   4.147 -0.8056 -1.2186  0.0466
  310MOL0     H41815  11.151   8.082   4.223  0.9042 -0.2707 -2.0366
  310MOL0     H41816  11.219   8.379   4.260 -0.3813  1.8104  2.0407
  310MOL0     H41817  11.132   8.288   4.375  0.8684  0.0210  0.1678
  310MOL0     H41818  11.318   8.146   4.419  1.2363  1.0516  2.2744
  310MOL0     H41819  11.412   8.211   4.280 -1.0907  0.6575 -0.3969
  310MOL0     H41820  11.311   8.379   4.508  0.6619  4.0441 -2.9584
  310MOL0     H41821  11.424   8.430   4.390 -1.5264  0.7795  0.8006
  310MOL0     H41822  11.606   8.280   4.465 -0.1189  1.9871  0.9419
  310MOL0     H41823  11.502   8.206   4.579 -0.4691 -0.7888 -0.3335
  310MOL0     H41824  11.565   8.511   4.573  3.9550 -1.6629 -1.4303
  310MOL0     H41825  11.500   8.413   4.725  2.2143 -1.4843  1.1765
  310MOL0     H41826  11.769   8.388   4.598 -0.0369  3.6218 -1.0952
  310MOL0     H41827  11.702   8.327   4.751  0.5846 -1.1043 -1.6232
  310MOL0     H41828  11.827   8.527   4.803  1.0102 -0.9450 -0.5965
  310MOL0     H41829  11.760   8.610   4.672  0.9481  1.0977  1.5252
  310MOL0     H41830  11.471   8.225   3.971 -0.5974 -0.7707 -0.7693
  310MOL0     H41831  11.521   8.436   3.828 -0.0381 -1.4137 -0.3477
  310MOL0     H41832  11.456   8.634   3.388 -1.5775 -0.9851  1.9687
  310MOL0     H41833  11.508   8.808   3.244 -1.9961 -1.5302  0.2150
  310MOL0     H41834  11.034  10.100   3.261  0.0340 -0.6888  0.8065
  310MOL0     H41835  10.801  10.189   3.287 -1.4563  0.8441  0.8929
  310MOL0     H41836  10.603  10.608   3.343  0.2119  0.6657  0.2386
  310MOL0     H41837  10.378  10.723   3.347 -0.7845 -0.0356  0.2939
  310MOL0     H41838  10.131  10.720   3.371 -1.9372 -0.2807 -0.1508
  310MOL0     H41839  10.177  10.877   3.421  0.7052 -1.6023 -3.3247
  310MOL0     H41840   9.936  10.876   3.416  1.7226  1.0464  0.8205
  310MOL0     H41841   9.982  10.879   3.584  2.3922 -0.5850  1.3835
  310MOL0     H41842   9.948  10.624   3.592  0.1727  0.5565 -1.0243
  310MOL0     H41843   9.870  10.648   3.432 -0.4765  1.8438 -0.7376
  310MOL0     H41844   9.698  10.644   3.593 -1.0074  0.2884  2.5313
  310MOL0     H41845   9.777  10.770   3.690 -0.4047 -2.5243  0.9768
  310MOL0     H41846   9.570  11.001   3.421  0.4814  0.7059 -1.0648
  310MOL0     H41847  10.317  10.579   3.750 -0.1971 -3.2438 -1.0030
  310MOL0     H41848  10.626  10.495   3.819  0.1812  0.6326  0.2315
  310MOL0     H41849  10.461  10.476   3.866 -0.7339  2.2266 -0.5848
  310MOL0     H41850  10.531  10.347   3.776 -3.0322 -0.2064 -1.3752
  311MOL0     O41851   6.539   3.431   8.228 -0.0804 -0.1147 -0.3222
  311MOL0     C41852   6.581   3.370   8.330  0.8028 -0.3244  0.1366
  311MOL0     O41853   6.506   3.297   8.411  1.0289 -0.1205 -0.2771
  311MOL0     C41854   6.386   3.242   8.370  0.0387 -0.9790  0.6165
  311MOL0     C41855   6.376   3.169   8.257 -0.1405  0.2810  0.6142
  311MOL0     C41856   6.253   3.105   8.234  0.5771  0.1117 -0.3046
  311MOL0     C41857   6.145   3.131   8.308  0.0869 -0.8531 -0.8308
  311MOL0     O41858   6.025   3.075   8.270  0.3115 -0.2906  0.0018
  311MOL0     C41859   5.927   3.046   8.375 -0.5932 -0.3171  0.0390
  311MOL0     C41860   5.782   3.037   8.332  0.5226  0.6919  0.0204
  311MOL0     C41861   5.705   3.165   8.309  0.4718 -0.5185  0.1153
  311MOL0     C41862   5.741   3.226   8.174 -1.0766  0.0306 -0.4042
  311MOL0     C41863   5.722   3.375   8.165  0.1742 -0.3161  0.0388
  311MOL0     C41864   5.833   3.456   8.232  0.5487  0.6414 -0.8014
  311MOL0     C41865   5.939   3.517   8.153 -0.0308  0.0853  0.8963
  311MOL0     C41866   6.001   3.421   8.048  0.2183  0.7106 -0.6673
  311MOL0     N41867   6.115   3.483   7.976  0.1993  0.0050  0.5187
  311MOL0     C41868   6.250   3.469   8.013 -0.5871  0.1513 -0.4764
  311MOL0     C41869   6.308   3.530   7.908 -0.3138  0.1391  0.3601
  311MOL0     C41870   6.461   3.537   7.908  0.3608  0.3600 -0.0389
  311MOL0     C41871   6.505   3.657   7.991 -0.1810  0.3418 -0.8591
  311MOL0     C41872   6.432   3.792   7.976  0.3941  0.4029  0.7317
  311MOL0     C41873   6.498   3.889   8.072 -0.1408 -0.6666  0.1915
  311MOL0     O41874   6.635   3.902   8.022 -0.1115 -0.2302  0.8312
  311MOL0     C41875   6.726   3.996   8.076  1.0498 -0.2383  0.5509
  311MOL0     C41876   6.853   3.979   8.032 -0.1557  0.4490 -0.1295
  311MOL0     C41877   6.959   4.052   8.087 -0.1092  0.5050 -0.2514
  311MOL0     C41878   6.931   4.159   8.174  0.4929  0.6308  0.4051
  311MOL0     C41879   7.033   4.250   8.230  0.4484 -0.1426 -0.3918
  311MOL0     O41880   7.150   4.260   8.163 -0.8200  0.7882  0.3390
  311MOL0     C41881   7.225   4.372   8.162  0.1226 -0.4432  0.3647
  311MOL0     C41882   7.359   4.359   8.158 -0.0381 -0.0607  0.1348
  311MOL0     C41883   7.447   4.467   8.159  0.4475  1.0184 -0.3874
  311MOL0     C41884   7.391   4.598   8.161 -0.3519 -0.5047 -0.0519
  311MOL0     O41885   7.466   4.713   8.175  0.2223 -0.6605 -0.1165
  311MOL0     C41886   7.606   4.713   8.175  0.0068 -0.1211  0.6088
  311MOL0     C41887   7.655   4.853   8.195  0.3742  0.2795  0.5516
  311MOL0     C41888   7.810   4.869   8.195 -0.7362  0.5531 -0.4323
  311MOL0     C41889   7.858   4.996   8.259 -0.4871 -0.1779 -0.1140
  311MOL0     C41890   7.996   5.034   8.226 -0.5338  0.6053  0.0217
  311MOL0     C41891   8.021   5.182   8.240 -0.6028  0.2312 -0.4901
  311MOL0     C41892   8.162   5.216   8.195 -0.0125 -0.5697  0.4573
  311MOL0     C41893   8.202   5.366   8.210  0.0174 -0.8860 -0.3468
  311MOL0    Cl41894   8.199   5.406   8.387 -0.1820  0.0474 -0.0380
  311MOL0     C41895   7.256   4.614   8.167 -0.1925 -0.1600 -0.8572
  311MOL0     C41896   7.173   4.501   8.172 -0.3707 -0.5929  0.0864
  311MOL0     O41897   7.009   4.313   8.334  0.3112 -0.5536  0.2933
  311MOL0     C41898   6.798   4.173   8.204  0.2673 -0.0599  0.1895
  311MOL0     C41899   6.691   4.103   8.157 -0.3703 -0.0991  0.4436
  311MOL0     N41900   6.222   3.568   7.805  0.5553  0.3573 -0.6039
  311MOL0     N41901   6.105   3.555   7.860  0.5387  0.4043 -1.0985
  311MOL0     C41902   6.149   3.221   8.414 -0.9353 -0.5545  0.3409
  311MOL0     C41903   6.272   3.277   8.446 -0.4615 -0.3564 -1.0464
  311MOL0     C41904   6.727   3.388   8.369  0.0923  0.0182 -0.5180
  311MOL0     C41905   6.751   3.354   8.504 -0.2721 -0.7885  0.2333
  311MOL0     C41906   6.871   3.384   8.563 -0.0446  0.1263 -0.0270
  311MOL0     C41907   6.964   3.468   8.497 -0.2811 -0.0672 -0.0508
  311MOL0     O41908   7.093   3.503   8.532  0.4978  0.0932  0.2781
  311MOL0     C41909   7.151   3.441   8.649  0.4751  0.9974 -0.3216
  311MOL0     C41910   7.295   3.490   8.670  0.0383 -0.1865 -0.0447
  311MOL0     C41911   7.403   3.469   8.559 -0.4159  0.2810  0.7206
  311MOL0     C41912   7.368   3.559   8.435 -0.3101  0.2057  0.0105
  311MOL0     C41913   7.486   3.552   8.353  0.0875  0.0079  0.6430
  311MOL0     C41914   7.591   3.566   8.292 -0.3254  0.4754 -0.4985
  311MOL0     C41915   6.945   3.501   8.361  0.1426  0.5168 -0.6046
  311MOL0     C41916   6.828   3.457   8.300  0.0891  0.2532  0.1360
  311MOL0     C41917   6.806   3.501   8.159 -0.4629 -0.4489  0.1097
  311MOL0     H41918   6.449   3.156   8.178 -0.7596 -1.1411  0.2463
  311MOL0     H41919   6.242   3.030   8.157  2.1017  0.3646 -0.7961
  311MOL0     H41920   5.953   2.959   8.436  1.8464 -0.9437 -1.7445
  311MOL0     H41921   5.920   3.122   8.454 -2.6653 -0.5262  0.1334
  311MOL0     H41922   5.731   2.984   8.413  2.7058  1.5314  2.0291
  311MOL0     H41923   5.782   2.979   8.239 -0.9833 -0.6483  0.7936
  311MOL0     H41924   5.720   3.241   8.387 -1.2000 -0.2202  0.1915
  311MOL0     H41925   5.601   3.134   8.301  1.2521 -3.0056 -1.3002
  311MOL0     H41926   5.844   3.201   8.149 -0.8986 -1.5147  1.6592
  311MOL0     H41927   5.680   3.170   8.102 -1.9851  0.3482  0.0918
  311MOL0     H41928   5.711   3.401   8.059  0.5599  1.5187  0.4167
  311MOL0     H41929   5.627   3.403   8.212  0.7848  2.6068 -0.2883
  311MOL0     H41930   5.777   3.534   8.285 -3.7236 -1.5046 -1.7207
  311MOL0     H41931   5.880   3.388   8.303 -0.3466  1.2461  0.3954
  311MOL0     H41932   6.015   3.563   8.216  0.7041  1.9718 -1.2235
  311MOL0     H41933   5.892   3.599   8.097  0.0388 -0.3448  0.1902
  311MOL0     H41934   6.040   3.333   8.100  0.1061  0.7055 -0.5911
  311MOL0     H41935   5.923   3.388   7.978 -3.1899  0.0732  3.0478
  311MOL0     H41936   6.300   3.423   8.097  1.5661  3.0751 -0.0021
  311MOL0     H41937   6.505   3.447   7.951  0.6797  0.7329  0.4426
  311MOL0     H41938   6.500   3.545   7.806  0.7324  0.2280  0.0901
  311MOL0     H41939   6.495   3.634   8.098 -2.5239  3.4771 -0.2493
  311MOL0     H41940   6.611   3.678   7.974  0.0814 -0.1051  0.1147
  311MOL0     H41941   6.325   3.791   7.996 -0.1737 -1.7006 -1.9354
  311MOL0     H41942   6.447   3.837   7.877 -0.1741 -0.5611  0.1934
  311MOL0     H41943   6.490   3.860   8.178 -2.0179 -0.3075  0.1848
  311MOL0     H41944   6.455   3.989   8.061  2.0393  0.4448  1.1855
  311MOL0     H41945   6.883   3.903   7.961 -0.1071 -0.9753  1.3682
  311MOL0     H41946   7.063   4.037   8.059 -0.2606  2.5894 -2.2370
  311MOL0     H41947   7.401   4.259   8.161  0.0523 -0.0437 -0.5009
  311MOL0     H41948   7.554   4.464   8.142  0.1559  2.3369 -2.9541
  311MOL0     H41949   7.641   4.644   8.252  2.7324  2.3197  1.7138
  311MOL0     H41950   7.625   4.677   8.074 -1.5960 -0.4191  0.3819
  311MOL0     H41951   7.620   4.922   8.118 -1.2460  0.0208  1.0233
  311MOL0     H41952   7.618   4.887   8.292 -1.6478 -0.0312 -0.0617
  311MOL0     H41953   7.858   4.782   8.240  4.5329  2.1089 -2.3659
  311MOL0     H41954   7.839   4.872   8.090  1.0684  1.3472  0.0459
  311MOL0     H41955   7.857   4.989   8.368  2.7865 -1.0978 -0.0416
  311MOL0     H41956   7.795   5.079   8.226 -0.2732  0.5879  1.3443
  311MOL0     H41957   8.024   5.004   8.125 -0.2309 -1.2681  0.6208
  311MOL0     H41958   8.060   4.982   8.298 -0.3117  0.5230 -0.2345
  311MOL0     H41959   7.946   5.240   8.185 -0.4197 -0.3135 -1.3300
  311MOL0     H41960   8.012   5.197   8.348  1.8419 -2.2651  0.1639
  311MOL0     H41961   8.180   5.215   8.087 -0.7305  3.7220  0.1037
  311MOL0     H41962   8.234   5.150   8.243 -1.0739 -0.3358  2.4816
  311MOL0     H41963   8.296   5.390   8.159 -0.4645  0.2542 -0.7375
  311MOL0     H41964   8.131   5.431   8.158  2.0452  1.6833 -0.1153
  311MOL0     H41965   7.204   4.708   8.180 -0.0445  0.0441 -1.6676
  311MOL0     H41966   7.065   4.514   8.175 -0.4673 -1.3215 -0.0315
  311MOL0     H41967   6.769   4.255   8.268  0.0018  2.7932 -3.2312
  311MOL0     H41968   6.589   4.129   8.186 -0.8055  0.6621 -1.5818
  311MOL0     H41969   6.060   3.252   8.468 -0.5752  1.0214  0.0729
  311MOL0     H41970   6.274   3.348   8.528 -2.7787 -1.0490 -0.3071
  311MOL0     H41971   6.671   3.309   8.562 -3.2377  2.1326 -1.2943
  311MOL0     H41972   6.905   3.352   8.661  0.3167  0.0324 -0.1824
  311MOL0     H41973   7.153   3.333   8.634  0.8974  0.7186  1.4547
  311MOL0     H41974   7.087   3.460   8.736  1.0733 -3.6709  1.4528
  311MOL0     H41975   7.328   3.453   8.768 -0.7181 -2.8826 -0.7196
  311MOL0     H41976   7.284   3.597   8.690 -1.6012 -1.0269  4.9286
  311MOL0     H41977   7.399   3.366   8.522  0.7946  0.8955 -1.2859
  311MOL0     H41978   7.504   3.490   8.596 -0.5159  3.7540 -0.5913
  311MOL0     H41979   7.285   3.522   8.374  2.9925 -1.9559 -3.6608
  311MOL0     H41980   7.347   3.663   8.463 -1.6243  0.5635 -2.1022
  311MOL0     H41981   7.682   3.605   8.251  0.9228  0.7796  2.3578
  311MOL0     H41982   7.006   3.568   8.301 -1.3485  3.1723  0.6663
  311MOL0     H41983   6.900   3.511   8.103 -0.0480 -1.6833  0.5362
  311MOL0     H41984   6.741   3.441   8.094 -1.0269  0.3410 -0.0718
  311MOL0     H41985   6.760   3.599   8.168  3.9477  1.9562 -0.7877
  312MOL0     O41986   2.297   6.150   2.867 -0.0688 -0.0269 -0.6908
  312MOL0     C41987   2.238   6.151   2.973 -0.1222 -0.2710  0.5627
  312MOL0     O41988   2.294   6.165   3.095 -0.0420 -0.2325 -0.1332
  312MOL0     C41989   2.432   6.147   3.107  0.1297  0.1522 -1.2335
  312MOL0     C41990   2.495   6.022   3.114  0.3332  0.6315 -0.3507
  312MOL0     C41991   2.630   6.005   3.148 -0.0463 -0.3071 -0.1570
  312MOL0     C41992   2.704   6.117   3.182  0.1659 -0.6282 -0.1267
  312MOL0     O41993   2.841   6.114   3.209  0.6251 -0.7161  0.1042
  312MOL0     C41994   2.918   5.996   3.227 -0.8720 -0.5544  0.5261
  312MOL0     C41995   3.067   6.027   3.245 -0.4193  0.3942  0.0147
  312MOL0     C41996   3.160   5.902   3.245  0.8386 -0.4677  0.2173
  312MOL0     C41997   3.301   5.951   3.270  0.0254  0.3402  0.3336
  312MOL0     C41998   3.406   5.830   3.264 -0.8344  0.4469 -1.0195
  312MOL0     C41999   3.547   5.869   3.222 -0.1093 -0.3943 -0.2520
  312MOL0     C42000   3.644   5.753   3.181  0.6604 -0.0957  0.7468
  312MOL0     C42001   3.681   5.661   3.299  0.3171  0.4586  0.5248
  312MOL0     N42002   3.772   5.556   3.251  0.2015  0.4314  0.0920
  312MOL0     C42003   3.909   5.565   3.237  1.1907  0.3502  0.8210
  312MOL0     C42004   3.941   5.462   3.159  0.2490  0.1655  0.3474
  312MOL0     C42005   4.079   5.428   3.112 -0.6548 -0.0746 -0.4404
  312MOL0     C42006   4.106   5.282   3.116 -0.3026 -0.3014 -0.8523
  312MOL0     C42007   4.230   5.256   3.024 -0.0268 -0.7030 -0.0655
  312MOL0     C42008   4.296   5.120   3.039 -0.4904 -0.2155 -0.1410
  312MOL0     O42009   4.410   5.116   2.950 -0.1485 -0.4647  1.1704
  312MOL0     C42010   4.521   5.057   3.006  0.0226  0.0532  0.1623
  312MOL0     C42011   4.554   4.922   2.996 -0.1667  0.7859  1.1137
  312MOL0     C42012   4.676   4.866   3.057 -0.0128  0.2774 -0.1089
  312MOL0     C42013   4.761   4.961   3.124 -0.3366 -0.8629  0.3320
  312MOL0     C42014   4.889   4.918   3.167  0.2351 -0.0892  0.1333
  312MOL0     O42015   4.925   4.786   3.144 -0.0091 -0.2925  0.6985
  312MOL0     C42016   5.047   4.757   3.201 -0.2987  0.4984 -0.7483
  312MOL0     C42017   5.045   4.683   3.319  0.4128 -0.6217  0.5213
  312MOL0     C42018   5.173   4.655   3.380  0.1989  0.1099  0.1867
  312MOL0     C42019   5.294   4.687   3.322 -0.8001 -0.0458  0.0784
  312MOL0     O42020   5.417   4.661   3.370  0.0018  0.2444  0.2116
  312MOL0     C42021   5.430   4.572   3.480  0.5070  0.0362 -0.1908
  312MOL0     C42022   5.569   4.501   3.478  0.7741 -0.6221 -0.2508
  312MOL0     C42023   5.677   4.609   3.478 -0.1698 -0.3772  0.1515
  312MOL0     C42024   5.812   4.554   3.534 -0.1665 -0.3578  0.3312
  312MOL0     C42025   5.928   4.646   3.493  0.2214  0.8848  0.1384
  312MOL0     C42026   6.058   4.647   3.567  0.0514  0.4288  0.0955
  312MOL0     C42027   6.127   4.513   3.593  0.5122  0.1461 -0.0836
  312MOL0     C42028   6.159   4.444   3.460 -0.3778  0.2254  0.1995
  312MOL0    Cl42029   6.233   4.281   3.499  0.0412 -0.1207  0.2556
  312MOL0     C42030   5.288   4.758   3.203 -0.9527 -0.3256 -0.0967
  312MOL0     C42031   5.167   4.792   3.142 -0.1711  0.5948  0.1178
  312MOL0     O42032   4.954   4.998   3.237 -0.3244  0.6787  0.3069
  312MOL0     C42033   4.728   5.093   3.124  0.2341  0.0373  0.0678
  312MOL0     C42034   4.610   5.139   3.063  0.8997 -0.2241 -0.7430
  312MOL0     N42035   3.826   5.395   3.131 -1.0771  0.8994  0.3452
  312MOL0     N42036   3.723   5.454   3.177 -0.2516 -0.1378  1.2589
  312MOL0     C42037   2.651   6.244   3.178 -0.1650  0.1963 -0.3734
  312MOL0     C42038   2.517   6.259   3.133 -0.2853 -0.2980  0.8454
  312MOL0     C42039   2.092   6.158   2.956  0.0966  0.3772  0.8372
  312MOL0     C42040   2.017   6.241   3.042 -0.0385  0.9818  0.0191
  312MOL0     C42041   1.883   6.251   3.023  0.3467 -0.1234 -0.6764
  312MOL0     C42042   1.813   6.177   2.927  0.3872 -0.5562 -0.4673
  312MOL0     O42043   1.676   6.176   2.906 -0.4306  0.3124  0.5747
  312MOL0     C42044   1.594   6.258   2.987 -0.8193  0.0396 -0.9740
  312MOL0     C42045   1.442   6.267   2.949  0.2640  0.2626  0.1681
  312MOL0     C42046   1.419   6.376   2.853 -0.2211 -0.0987  0.4451
  312MOL0     C42047   1.282   6.380   2.785 -0.0323  0.5920  0.3756
  312MOL0     C42048   1.167   6.371   2.875 -0.3823  1.2365  0.7577
  312MOL0     C42049   1.073   6.389   2.950  0.2062  0.2273  0.2439
  312MOL0     C42050   1.887   6.092   2.848  1.1476 -1.1451 -0.5611
  312MOL0     C42051   2.023   6.077   2.864  0.3208  0.2158  0.0394
  312MOL0     C42052   2.089   5.961   2.790 -0.2578 -0.6668 -0.0974
  312MOL0     H42053   2.427   5.939   3.097 -0.4061  0.8668  1.3040
  312MOL0     H42054   2.661   5.901   3.147 -0.4393 -0.4837 -3.0806
  312MOL0     H42055   2.880   5.939   3.312 -1.5744 -1.9849 -0.6985
  312MOL0     H42056   2.923   5.935   3.136 -1.0387 -1.4934  1.1349
  312MOL0     H42057   3.082   6.099   3.325 -2.1845  1.5852 -0.6544
  312MOL0     H42058   3.098   6.090   3.161 -0.2436  0.8392  0.4120
  312MOL0     H42059   3.152   5.852   3.148  1.6336  0.4088 -0.3210
  312MOL0     H42060   3.117   5.832   3.317 -1.6593  2.0077  1.3425
  312MOL0     H42061   3.329   6.014   3.185 -1.5114 -0.1420 -0.5862
  312MOL0     H42062   3.302   5.995   3.370  0.2634 -3.7256  2.3291
  312MOL0     H42063   3.416   5.786   3.363 -1.0726  1.9531 -0.3083
  312MOL0     H42064   3.366   5.746   3.206 -0.7559 -0.9441  0.8592
  312MOL0     H42065   3.539   5.925   3.128 -0.1429  0.1132  0.0469
  312MOL0     H42066   3.587   5.939   3.296 -2.1377  1.3743 -0.7138
  312MOL0     H42067   3.732   5.808   3.145 -0.4754  0.5101 -1.2843
  312MOL0     H42068   3.611   5.696   3.094  0.0832  0.8989  0.2898
  312MOL0     H42069   3.720   5.717   3.384 -1.3115  0.7338  1.1236
  312MOL0     H42070   3.598   5.599   3.333  0.7932  0.1851  1.2069
  312MOL0     H42071   3.966   5.648   3.278 -0.7164  2.6763 -0.9511
  312MOL0     H42072   4.081   5.478   3.015 -0.9419  0.4325 -0.1945
  312MOL0     H42073   4.156   5.475   3.174 -0.6015 -2.9037  1.8463
  312MOL0     H42074   4.124   5.246   3.217  0.3759  0.9549 -0.5091
  312MOL0     H42075   4.016   5.230   3.081 -0.0336 -0.0599 -1.9665
  312MOL0     H42076   4.304   5.336   3.037  1.6515 -1.9059 -1.7263
  312MOL0     H42077   4.195   5.268   2.921 -4.0047 -0.1648  1.1818
  312MOL0     H42078   4.224   5.040   3.016 -0.8682 -0.6278  2.2120
  312MOL0     H42079   4.341   5.114   3.138 -0.2479  1.5205 -0.1159
  312MOL0     H42080   4.471   4.872   2.948 -0.8363  2.8656 -0.0296
  312MOL0     H42081   4.703   4.761   3.048  0.2593  0.4844 -2.2748
  312MOL0     H42082   4.950   4.667   3.368  0.6108 -0.6958  0.8906
  312MOL0     H42083   5.177   4.605   3.476 -1.4377  0.2468  0.3552
  312MOL0     H42084   5.428   4.637   3.568 -0.7537  1.6092 -1.3074
  312MOL0     H42085   5.358   4.490   3.473  1.8172 -1.3442  1.6075
  312MOL0     H42086   5.579   4.440   3.568 -1.7065  1.2814  1.4758
  312MOL0     H42087   5.572   4.442   3.386  2.5173 -0.3197 -0.4225
  312MOL0     H42088   5.690   4.642   3.374 -0.6494 -1.0003 -0.1162
  312MOL0     H42089   5.649   4.700   3.532  0.6507  0.5989 -1.0046
  312MOL0     H42090   5.825   4.454   3.492 -1.1815  0.2134 -1.4227
  312MOL0     H42091   5.803   4.540   3.642  1.4815 -5.3825  0.0550
  312MOL0     H42092   5.889   4.748   3.501  0.7554  1.1323 -0.3916
  312MOL0     H42093   5.940   4.618   3.388 -0.2153 -1.6888  0.6862
  312MOL0     H42094   6.122   4.709   3.503 -2.2866 -0.6307 -3.6256
  312MOL0     H42095   6.051   4.696   3.664  1.6479  2.7117 -0.8423
  312MOL0     H42096   6.059   4.444   3.644  1.4080 -0.3410  0.4728
  312MOL0     H42097   6.220   4.521   3.649 -1.3731 -1.1550  3.5161
  312MOL0     H42098   6.084   4.427   3.383  1.0954 -0.5284 -1.1304
  312MOL0     H42099   6.243   4.497   3.414  0.6679 -1.3746  0.1732
  312MOL0     H42100   5.387   4.769   3.161 -0.3999 -0.4246  1.1310
  312MOL0     H42101   5.157   4.847   3.049 -0.7262  2.3629  1.1897
  312MOL0     H42102   4.785   5.165   3.183 -3.8147  2.1675  1.7893
  312MOL0     H42103   4.585   5.245   3.065  0.6475 -0.2794  0.9384
  312MOL0     H42104   2.712   6.328   3.209  0.0903 -1.4271  4.3486
  312MOL0     H42105   2.478   6.360   3.131  2.9495  1.0760  1.2757
  312MOL0     H42106   2.060   6.290   3.129 -1.7536  0.1098  1.4291
  312MOL0     H42107   1.833   6.323   3.087 -0.1278  1.8208 -3.0751
  312MOL0     H42108   1.642   6.356   2.999  1.5285 -1.1170 -0.3465
  312MOL0     H42109   1.600   6.205   3.082  2.2130  1.6239 -0.1259
  312MOL0     H42110   1.383   6.284   3.040 -0.9998  1.8423 -0.8900
  312MOL0     H42111   1.422   6.169   2.905 -1.1136  0.3292  0.6073
  312MOL0     H42112   1.499   6.364   2.780  3.5490  1.9090  3.8604
  312MOL0     H42113   1.436   6.478   2.890  0.7119 -0.4805  1.0897
  312MOL0     H42114   1.274   6.472   2.726 -2.5305  0.0677 -0.2401
  312MOL0     H42115   1.267   6.305   2.706 -0.0017 -0.4184  1.3122
  312MOL0     H42116   0.988   6.401   3.015  1.1331  3.8086  1.0400
  312MOL0     H42117   1.840   6.016   2.785 -0.0919 -1.8691  1.1641
  312MOL0     H42118   2.025   5.910   2.718 -2.0014 -2.4753  2.5574
  312MOL0     H42119   2.177   5.992   2.733 -0.1221  0.9513  0.9216
  312MOL0     H42120   2.122   5.887   2.862 -0.8203 -0.5384  0.3020
  313MOL0     O42121   0.022   6.556   1.455  0.6392  0.3678 -0.0270
  313MOL0     C42122  -0.036   6.595   1.357  0.3386  0.0203 -0.1850
  313MOL0     O42123   0.026   6.653   1.250 -0.3834  0.5821 -0.6937
  313MOL0     C42124   0.165   6.649   1.250 -0.4870  0.1069  0.2488
  313MOL0     C42125   0.244   6.530   1.270  0.2776 -0.4782 -0.3111
  313MOL0     C42126   0.390   6.534   1.257  0.2068  0.2702 -0.5437
  313MOL0     C42127   0.446   6.650   1.226  0.2653  0.0821  0.1554
  313MOL0     O42128   0.583   6.670   1.221  0.2365 -0.3021 -0.5239
  313MOL0     C42129   0.662   6.581   1.307  0.0308 -0.1653  0.2130
  313MOL0     C42130   0.795   6.660   1.316 -0.0408 -0.6009 -0.0744
  313MOL0     C42131   0.873   6.587   1.430 -0.2973 -0.4460  0.4813
  313MOL0     C42132   1.005   6.664   1.449  0.0791 -0.2557 -0.0196
  313MOL0     C42133   1.087   6.585   1.546  0.9638 -0.5791 -0.1735
  313MOL0     C42134   1.228   6.656   1.578  1.0641  0.9503  1.0548
  313MOL0     C42135   1.213   6.794   1.654  0.7861 -0.2920  0.0695
  313MOL0     C42136   1.334   6.841   1.733 -0.3849  0.4941  0.1467
  313MOL0     N42137   1.430   6.925   1.655  0.0661 -0.0168  0.0202
  313MOL0     C42138   1.546   6.889   1.581 -0.5313 -0.2326  0.1998
  313MOL0     C42139   1.604   7.007   1.546 -0.1663 -0.0804 -0.6142
  313MOL0     C42140   1.725   7.019   1.463  0.0473 -0.4689 -0.0152
  313MOL0     C42141   1.745   7.168   1.438 -0.1999 -0.0609  0.1499
  313MOL0     C42142   1.871   7.207   1.357  0.6867  0.6623  0.4458
  313MOL0     C42143   1.999   7.178   1.435 -0.1161  0.3765  0.3122
  313MOL0     O42144   2.116   7.189   1.352 -0.1238 -0.3340  0.6617
  313MOL0     C42145   2.239   7.156   1.406 -0.6664 -0.9885 -0.1762
  313MOL0     C42146   2.352   7.147   1.318  0.3189 -0.0639 -0.4696
  313MOL0     C42147   2.480   7.149   1.374 -0.2788 -0.6041 -0.0731
  313MOL0     C42148   2.495   7.143   1.514 -0.9520  0.1849  0.8521
  313MOL0     C42149   2.642   7.156   1.566  0.3897  0.2474 -0.2985
  313MOL0     O42150   2.747   7.183   1.479 -0.5472  0.3542 -0.1044
  313MOL0     C42151   2.876   7.178   1.534  0.1244  0.0847  0.8003
  313MOL0     C42152   2.937   7.291   1.559 -0.9175 -0.6475  1.1814
  313MOL0     C42153   3.052   7.306   1.637 -0.1255 -0.5774  0.2977
  313MOL0     C42154   3.104   7.190   1.709 -0.0455 -0.4961  0.4352
  313MOL0     O42155   3.212   7.178   1.789  0.2626 -0.2846  0.1034
  313MOL0     C42156   3.266   7.296   1.854  0.0588  0.3998 -0.0549
  313MOL0     C42157   3.387   7.257   1.942  0.8087 -0.5866  0.3320
  313MOL0     C42158   3.521   7.226   1.862  0.2254 -0.2585  0.4045
  313MOL0     C42159   3.634   7.222   1.962  0.7119  0.0368  0.6087
  313MOL0     C42160   3.693   7.079   1.983  0.9881  0.4659 -0.1026
  313MOL0     C42161   3.822   7.087   2.064  0.1046 -0.5509 -0.5407
  313MOL0     C42162   3.935   7.151   1.987 -0.7320  0.3172 -0.1849
  313MOL0     C42163   4.069   7.163   2.066 -0.6998 -0.3877  0.4473
  313MOL0    Cl42164   4.188   7.225   1.951  0.0216  0.1910 -0.4657
  313MOL0     C42165   3.044   7.068   1.675  0.4410  0.1903 -0.6273
  313MOL0     C42166   2.929   7.067   1.586 -0.4622 -0.1473 -0.8947
  313MOL0     O42167   2.652   7.138   1.687  0.3921  0.0845 -0.4598
  313MOL0     C42168   2.392   7.139   1.599  0.2375  0.4839  1.2112
  313MOL0     C42169   2.256   7.150   1.547 -0.7819  0.0426 -0.5125
  313MOL0     N42170   1.519   7.110   1.590  0.1860 -0.2407  0.0287
  313MOL0     N42171   1.417   7.059   1.645  0.5125  0.2135  0.2126
  313MOL0     C42172   0.367   6.767   1.196  0.7712 -0.8206  0.3389
  313MOL0     C42173   0.232   6.762   1.200 -0.6802 -0.0615 -0.3492
  313MOL0     C42174  -0.190   6.586   1.364 -0.5032 -0.4428  0.4344
  313MOL0     C42175  -0.260   6.636   1.251 -0.4232 -0.2662 -0.4571
  313MOL0     C42176  -0.403   6.638   1.243  0.2520  0.1387  0.4544
  313MOL0     C42177  -0.477   6.575   1.347 -1.2955  0.6126  0.5314
  313MOL0     O42178  -0.612   6.581   1.350  0.4801  0.6223  0.2393
  313MOL0     C42179  -0.680   6.591   1.227  0.4292 -0.6022  0.5096
  313MOL0     C42180  -0.826   6.588   1.242  0.4894  0.3068  0.7216
  313MOL0     C42181  -0.886   6.718   1.300 -0.0778 -0.0500  0.2095
  313MOL0     C42182  -1.044   6.719   1.309 -1.0521  0.0090 -0.2366
  313MOL0     C42183  -1.092   6.633   1.416  0.3881 -0.3935  0.1519
  313MOL0     C42184  -1.136   6.559   1.496 -0.9428  0.6440 -0.6088
  313MOL0     C42185  -0.414   6.544   1.463  1.0099 -0.1396 -0.4861
  313MOL0     C42186  -0.275   6.540   1.467 -0.3779 -0.1023 -0.6406
  313MOL0     C42187  -0.223   6.483   1.602 -0.3717 -0.8389 -0.5551
  313MOL0     H42188   0.195   6.434   1.290 -0.7113 -0.3130 -1.7452
  313MOL0     H42189   0.453   6.446   1.269  0.7029  0.4686 -1.5836
  313MOL0     H42190   0.620   6.574   1.408  0.1763  1.8756  0.4751
  313MOL0     H42191   0.663   6.484   1.258 -0.6960 -0.1219  0.1006
  313MOL0     H42192   0.786   6.766   1.340  0.9971 -0.5895  0.3402
  313MOL0     H42193   0.847   6.655   1.220 -1.5660  3.4510 -1.2890
  313MOL0     H42194   0.881   6.480   1.409 -0.5549 -0.0825 -1.6247
  313MOL0     H42195   0.810   6.603   1.518 -1.3850  3.9096 -0.8401
  313MOL0     H42196   1.057   6.676   1.353 -0.6836 -0.1073 -0.4263
  313MOL0     H42197   0.974   6.761   1.490  0.3464  0.1264 -0.7012
  313MOL0     H42198   1.046   6.579   1.646  1.2597  1.6565  0.1378
  313MOL0     H42199   1.104   6.483   1.510  0.8392 -0.8606  0.5678
  313MOL0     H42200   1.288   6.583   1.635 -1.8907 -1.5598  1.2307
  313MOL0     H42201   1.284   6.668   1.485 -0.6156  1.1860  0.0288
  313MOL0     H42202   1.118   6.788   1.708 -0.4784 -1.7107 -2.1521
  313MOL0     H42203   1.183   6.863   1.574  0.7290  1.5690  1.6326
  313MOL0     H42204   1.304   6.908   1.815 -0.3450 -0.6531  1.1294
  313MOL0     H42205   1.390   6.756   1.773  2.8015  2.0824 -0.5538
  313MOL0     H42206   1.586   6.794   1.550 -2.2937 -0.8644 -0.2582
  313MOL0     H42207   1.802   6.961   1.516 -0.1413 -0.3907  0.3459
  313MOL0     H42208   1.717   6.971   1.365 -0.4475  0.3767 -0.3996
  313MOL0     H42209   1.662   7.211   1.381  1.5313  3.5670  0.1068
  313MOL0     H42210   1.753   7.221   1.533  3.3088  0.9265 -0.5556
  313MOL0     H42211   1.862   7.315   1.339  3.7423  1.2419  1.6530
  313MOL0     H42212   1.874   7.155   1.261  1.5600  2.9381 -0.8483
  313MOL0     H42213   1.991   7.076   1.474 -0.3011  0.3668  0.2477
  313MOL0     H42214   2.015   7.250   1.516  1.0019  1.6109 -0.9544
  313MOL0     H42215   2.337   7.173   1.214  1.4144 -0.1057 -0.6481
  313MOL0     H42216   2.573   7.164   1.321  0.1276  2.7292  1.2948
  313MOL0     H42217   2.894   7.385   1.524  2.6906  1.1196  1.0689
  313MOL0     H42218   3.101   7.402   1.653  1.7089 -1.4216 -0.0312
  313MOL0     H42219   3.305   7.367   1.780 -0.3102 -0.9802 -1.6222
  313MOL0     H42220   3.190   7.338   1.920  1.0569 -0.0799  1.4548
  313MOL0     H42221   3.407   7.340   2.010  2.2713 -1.4790  1.0532
  313MOL0     H42222   3.357   7.171   2.002 -2.0322  0.8516  1.1493
  313MOL0     H42223   3.518   7.130   1.809  1.9452  0.7490 -1.7059
  313MOL0     H42224   3.531   7.304   1.786 -3.0341  0.2587  0.3726
  313MOL0     H42225   3.611   7.268   2.058 -2.6849  1.1659 -0.6322
  313MOL0     H42226   3.713   7.283   1.917 -0.4220  0.8713 -0.3074
  313MOL0     H42227   3.711   7.032   1.886 -0.7564 -1.2538  0.3436
  313MOL0     H42228   3.612   7.024   2.032  1.9371  0.3527  1.3751
  313MOL0     H42229   3.815   7.164   2.142 -1.0018  0.3974 -1.5324
  313MOL0     H42230   3.857   6.996   2.114  3.2569  0.5434 -0.5338
  313MOL0     H42231   3.907   7.249   1.947  0.8446  0.8892  0.0225
  313MOL0     H42232   3.957   7.090   1.899  1.9965  0.4391  0.3347
  313MOL0     H42233   4.055   7.220   2.159 -0.7132 -0.8111  0.7054
  313MOL0     H42234   4.108   7.067   2.101 -0.4779 -0.8159 -0.9219
  313MOL0     H42235   3.091   6.981   1.719 -1.5051 -1.4188 -1.5600
  313MOL0     H42236   2.885   6.970   1.565 -0.5495 -0.1568 -0.6671
  313MOL0     H42237   2.413   7.133   1.706  4.2853  0.0630  0.5514
  313MOL0     H42238   2.176   7.146   1.620 -1.8501 -0.8456 -1.6936
  313MOL0     H42239   0.417   6.861   1.177 -0.4268 -0.0378  0.9465
  313MOL0     H42240   0.181   6.857   1.183  0.0431 -0.0831 -3.1669
  313MOL0     H42241  -0.204   6.670   1.165 -0.0749 -2.0613 -0.9869
  313MOL0     H42242  -0.447   6.671   1.149 -1.2874  2.2772  1.8258
  313MOL0     H42243  -0.655   6.508   1.161  0.7050 -0.3900  0.3468
  313MOL0     H42244  -0.645   6.682   1.178  0.0195  0.0602  1.4066
  313MOL0     H42245  -0.852   6.514   1.319  0.0555  0.4066  0.6735
  313MOL0     H42246  -0.865   6.569   1.141 -0.2054  3.4184  0.3138
  313MOL0     H42247  -0.863   6.803   1.236 -0.6820 -0.9331 -1.2394
  313MOL0     H42248  -0.846   6.736   1.400 -2.8389  2.0485  1.0673
  313MOL0     H42249  -1.086   6.819   1.323 -1.6045 -0.1088 -1.0291
  313MOL0     H42250  -1.086   6.671   1.221 -2.3680 -1.4400  1.1331
  313MOL0     H42251  -1.174   6.487   1.566 -0.5881  1.9764  1.0015
  313MOL0     H42252  -0.471   6.508   1.548  0.7706 -2.6056 -1.6250
  313MOL0     H42253  -0.306   6.486   1.674 -0.6155  1.1857 -0.8505
  313MOL0     H42254  -0.176   6.387   1.584 -0.5901 -1.4796  1.9229
  313MOL0     H42255  -0.135   6.538   1.638  0.9221 -3.2928  0.2322
  314MOL0     O42256   9.187  10.484   8.675 -0.1328  0.2421 -0.1366
  314MOL0     C42257   9.144  10.510   8.564 -0.1334 -0.1561 -0.3403
  314MOL0     O42258   9.215  10.515   8.449 -0.2380 -0.0957 -0.0135
  314MOL0     C42259   9.346  10.494   8.443  0.0885 -0.6060 -0.1859
  314MOL0     C42260   9.414  10.575   8.358 -0.3355  0.4513  0.3169
  314MOL0     C42261   9.558  10.568   8.354 -0.0467  0.4730 -0.7936
  314MOL0     C42262   9.626  10.477   8.432 -1.0006 -0.5138  0.5145
  314MOL0     O42263   9.765  10.464   8.449 -0.3319 -0.4713  0.1372
  314MOL0     C42264   9.849  10.562   8.385 -0.6774 -0.0898  0.2100
  314MOL0     C42265   9.996  10.567   8.443  1.3833  0.0688 -0.2982
  314MOL0     C42266  10.094  10.465   8.402  0.0086 -0.3221  0.0160
  314MOL0     C42267  10.099  10.345   8.493  0.0263 -0.7274 -0.0561
  314MOL0     C42268  10.165  10.360   8.635  0.5718  0.1589  0.3073
  314MOL0     C42269  10.293  10.435   8.627  0.2244  0.5763  0.2850
  314MOL0     C42270  10.363  10.425   8.764  0.0896 -0.4397  0.8634
  314MOL0     C42271  10.482  10.514   8.777 -1.3586  0.0254  0.4648
  314MOL0     N42272  10.598  10.467   8.709 -0.4123  0.2943  0.0435
  314MOL0     C42273  10.707  10.393   8.754  0.1626  0.8957  0.7802
  314MOL0     C42274  10.793  10.382   8.643 -0.1614 -0.7110 -0.4486
  314MOL0     C42275  10.926  10.325   8.634  0.1182  0.4886 -0.0941
  314MOL0     C42276  11.024  10.432   8.590  0.5839 -0.6364 -0.0224
  314MOL0     C42277  11.164  10.362   8.588  0.2026  0.4799 -0.0311
  314MOL0     C42278  11.284  10.450   8.549  0.2172  0.0333 -0.8160
  314MOL0     O42279  11.385  10.359   8.506 -0.1847  0.3725 -0.5728
  314MOL0     C42280  11.503  10.416   8.466  0.6573  0.1172 -0.4472
  314MOL0     C42281  11.613  10.335   8.441  0.6021 -0.7080  0.3605
  314MOL0     C42282  11.736  10.379   8.402 -0.0172  0.0825 -0.5113
  314MOL0     C42283  11.765  10.514   8.392 -0.0505  0.1712 -0.0210
  314MOL0     C42284  11.893  10.564   8.344  0.3709 -0.0815  0.1297
  314MOL0     O42285  11.903  10.696   8.314 -0.1897  0.5327 -0.6334
  314MOL0     C42286  12.015  10.756   8.279  0.3263  0.1592 -0.1609
  314MOL0     C42287  11.987  10.881   8.215  0.0025 -0.3303 -0.8882
  314MOL0     C42288  12.093  10.964   8.174  0.0561  0.3255 -0.4678
  314MOL0     C42289  12.229  10.923   8.178 -1.0580 -0.3120 -0.0111
  314MOL0     O42290  12.315  11.005   8.118 -0.2586 -0.3853 -0.0606
  314MOL0     C42291  12.422  11.043   8.202  0.5535 -0.4122  0.7746
  314MOL0     C42292  12.503  11.158   8.149 -0.9837  0.2107 -0.0742
  314MOL0     C42293  12.569  11.133   8.016  0.5827 -0.2111 -0.1703
  314MOL0     C42294  12.684  11.227   7.976  0.2891 -0.0500 -0.2042
  314MOL0     C42295  12.814  11.191   8.046  0.7962  0.4748  0.8283
  314MOL0     C42296  12.919  11.293   8.007  0.8159  0.2659  0.3056
  314MOL0     C42297  13.064  11.254   8.065 -0.4397  1.0220  0.2349
  314MOL0     C42298  13.123  11.148   7.973 -0.4877  0.2908 -0.5087
  314MOL0    Cl42299  13.282  11.131   8.028  0.0749  0.1403  0.0288
  314MOL0     C42300  12.255  10.789   8.234  0.4973  0.6316  1.0440
  314MOL0     C42301  12.156  10.712   8.291 -0.1246  0.0315 -0.2153
  314MOL0     O42302  11.975  10.485   8.322 -0.0504  0.3773 -0.8203
  314MOL0     C42303  11.656  10.600   8.417  0.0127 -0.0436 -0.2737
  314MOL0     C42304  11.529  10.558   8.455  0.2480 -0.2742  0.1077
  314MOL0     N42305  10.727  10.434   8.533 -0.3817 -0.3676  0.3913
  314MOL0     N42306  10.624  10.499   8.578  0.3806  0.2798 -0.7257
  314MOL0     C42307   9.553  10.383   8.503 -0.3894 -0.1946  0.7754
  314MOL0     C42308   9.416  10.391   8.513  0.2750 -0.1864 -0.9113
  314MOL0     C42309   8.997  10.550   8.561 -0.7161  0.0068 -0.3414
  314MOL0     C42310   8.960  10.654   8.468  0.0093 -0.2164 -0.4923
  314MOL0     C42311   8.830  10.711   8.478  0.7459  0.7599  0.0375
  314MOL0     C42312   8.738  10.667   8.583 -0.1043  0.1328  0.4341
  314MOL0     O42313   8.613  10.727   8.599 -0.2168 -0.6963  0.4807
  314MOL0     C42314   8.519  10.728   8.493  0.6235 -0.0781  0.6297
  314MOL0     C42315   8.420  10.615   8.508 -0.0016  0.3344  0.2383
  314MOL0     C42316   8.332  10.638   8.630  0.4917 -0.2646  0.5006
  314MOL0     C42317   8.240  10.525   8.644  1.4493 -0.1097  1.1019
  314MOL0     C42318   8.131  10.525   8.549  0.2524 -0.2575  0.5019
  314MOL0     C42319   8.041  10.525   8.466 -0.0047 -1.4913 -0.1149
  314MOL0     C42320   8.784  10.563   8.666  0.1849  0.2568  0.6660
  314MOL0     C42321   8.907  10.501   8.665  0.0178 -0.0751 -0.0099
  314MOL0     C42322   8.951  10.395   8.768 -1.0829  0.1715  0.3167
  314MOL0     H42323   9.367  10.657   8.305  0.4485 -0.1377 -1.3568
  314MOL0     H42324   9.619  10.636   8.295  1.4231 -1.3719 -1.4963
  314MOL0     H42325   9.858  10.538   8.279 -1.4031  0.1031  0.0967
  314MOL0     H42326   9.801  10.660   8.394 -0.0054  0.4930 -1.9328
  314MOL0     H42327   9.993  10.571   8.552  2.0528  0.9988 -0.3030
  314MOL0     H42328  10.041  10.659   8.404  0.3345  0.8319  0.2499
  314MOL0     H42329  10.193  10.510   8.385 -0.8519  1.9723  0.6441
  314MOL0     H42330  10.055  10.437   8.304 -0.0677  2.8641 -0.9871
  314MOL0     H42331   9.997  10.308   8.505 -0.5063 -0.4491 -3.0220
  314MOL0     H42332  10.151  10.258   8.451  0.1651 -0.8680  0.4016
  314MOL0     H42333  10.097  10.414   8.702  2.0736  0.4447  1.6782
  314MOL0     H42334  10.178  10.259   8.675  0.9958  0.2890  0.5111
  314MOL0     H42335  10.361  10.392   8.553  0.3967 -0.5073  1.0405
  314MOL0     H42336  10.269  10.541   8.614 -2.8289  0.2247  2.0041
  314MOL0     H42337  10.387  10.321   8.788 -0.3167 -0.9293 -0.7726
  314MOL0     H42338  10.283  10.460   8.830  0.4824  0.6569  0.7782
  314MOL0     H42339  10.456  10.615   8.744  0.1810  0.0314 -0.7998
  314MOL0     H42340  10.510  10.516   8.883  0.2219  0.3029  0.0612
  314MOL0     H42341  10.735  10.361   8.854  4.8079  1.0614 -0.2457
  314MOL0     H42342  10.953  10.275   8.727  1.7717  1.7893  0.1645
  314MOL0     H42343  10.927  10.249   8.556  3.6955  2.1403 -1.8958
  314MOL0     H42344  10.981  10.474   8.499 -2.7737  1.5688  2.3721
  314MOL0     H42345  11.009  10.519   8.654 -2.0223  1.2595 -2.9610
  314MOL0     H42346  11.151  10.271   8.528 -0.2992 -0.5727  1.5946
  314MOL0     H42347  11.187  10.321   8.687  2.3885 -0.1963 -0.7804
  314MOL0     H42348  11.314  10.511   8.634 -0.1489  3.2463 -2.8170
  314MOL0     H42349  11.254  10.523   8.474 -1.4152 -0.2580 -0.4817
  314MOL0     H42350  11.606  10.227   8.450  3.5847 -0.9061  1.3481
  314MOL0     H42351  11.811  10.305   8.377 -1.0162 -0.5661 -1.6660
  314MOL0     H42352  11.884  10.905   8.193 -0.1117 -0.6736 -0.7236
  314MOL0     H42353  12.082  11.068   8.145 -2.0147  0.3440  0.2370
  314MOL0     H42354  12.379  11.083   8.295  1.9263  0.9974  0.8539
  314MOL0     H42355  12.493  10.963   8.226 -1.2879 -1.6631  2.3586
  314MOL0     H42356  12.438  11.246   8.144 -1.1084  0.3018  2.1269
  314MOL0     H42357  12.578  11.196   8.219  0.5475  0.8153 -1.9369
  314MOL0     H42358  12.606  11.030   8.015  0.0712 -0.3997 -2.0939
  314MOL0     H42359  12.495  11.143   7.936  0.1867 -2.0915 -0.0760
  314MOL0     H42360  12.652  11.328   8.004 -1.5756 -0.9164  0.9901
  314MOL0     H42361  12.694  11.218   7.868 -1.6153 -0.5353 -0.3801
  314MOL0     H42362  12.841  11.091   8.011 -0.6900  0.4167 -0.2189
  314MOL0     H42363  12.810  11.194   8.155 -0.8855 -0.3914  0.8185
  314MOL0     H42364  12.922  11.326   7.903  3.3321  1.3962  0.6666
  314MOL0     H42365  12.884  11.381   8.062  0.2738  1.1147 -1.3274
  314MOL0     H42366  13.059  11.211   8.166 -0.7463  1.7042  0.5144
  314MOL0     H42367  13.131  11.341   8.070 -0.6152  1.1536  0.2790
  314MOL0     H42368  13.062  11.057   7.977  1.6617 -1.1869  0.2792
  314MOL0     H42369  13.134  11.179   7.869 -2.9770 -0.9118 -1.2140
  314MOL0     H42370  12.357  10.755   8.230  0.5192  0.3668  2.8976
  314MOL0     H42371  12.179  10.622   8.346 -0.2085 -0.5793 -1.1487
  314MOL0     H42372  11.661  10.704   8.386 -0.4508  0.5611  1.5575
  314MOL0     H42373  11.449  10.628   8.476  0.8982 -0.3628  3.4480
  314MOL0     H42374   9.600  10.312   8.570  0.1355  0.8243  1.5249
  314MOL0     H42375   9.353  10.328   8.575 -0.2525  0.8219 -0.3777
  314MOL0     H42376   9.028  10.693   8.392 -0.4918  0.2104 -0.7308
  314MOL0     H42377   8.799  10.785   8.405  0.4957 -0.4531 -1.1348
  314MOL0     H42378   8.565  10.712   8.395 -1.5686 -1.0989 -0.2849
  314MOL0     H42379   8.479  10.830   8.500 -1.7764 -1.0025  1.1242
  314MOL0     H42380   8.463  10.517   8.531 -4.6127 -1.7183  1.4443
  314MOL0     H42381   8.365  10.600   8.414  0.3538 -1.1049  0.2289
  314MOL0     H42382   8.277  10.730   8.609  2.1688  0.7004  0.0711
  314MOL0     H42383   8.386  10.656   8.723 -3.6667 -2.3080  3.5823
  314MOL0     H42384   8.301  10.437   8.622  3.1592  1.6388 -1.8058
  314MOL0     H42385   8.204  10.517   8.747  0.5313  0.8593  0.8760
  314MOL0     H42386   7.954  10.524   8.403 -0.1676 -2.3936  0.1055
  314MOL0     H42387   8.708  10.529   8.736 -0.3766  0.2946  0.0866
  314MOL0     H42388   9.002  10.446   8.851 -1.9738  0.0985  0.9176
  314MOL0     H42389   8.864  10.335   8.797 -0.3685  0.0388  2.3671
  314MOL0     H42390   9.015  10.319   8.722 -0.5595  0.3302  0.7721
  315MOL0     O42391   2.311   4.206   6.756 -0.8543 -0.7345 -0.4754
  315MOL0     C42392   2.355   4.159   6.855  1.1709  0.2675 -0.1270
  315MOL0     O42393   2.457   4.211   6.940 -0.1021  0.0015 -0.1495
  315MOL0     C42394   2.506   4.332   6.902  0.3780 -0.1000 -0.6536
  315MOL0     C42395   2.640   4.343   6.854 -0.7298 -0.4038  0.1663
  315MOL0     C42396   2.707   4.466   6.821 -0.1883  0.0825  0.4453
  315MOL0     C42397   2.644   4.584   6.854 -0.6136  0.3553  0.3354
  315MOL0     O42398   2.719   4.701   6.858  0.8969 -0.4835 -0.8037
  315MOL0     C42399   2.664   4.828   6.814  0.3220  0.0459 -0.2762
  315MOL0     C42400   2.785   4.930   6.811 -0.5740  0.0659 -1.0129
  315MOL0     C42401   2.896   4.876   6.720 -0.5405  0.2358 -0.0595
  315MOL0     C42402   3.008   4.982   6.719  0.5282 -0.0877  0.2124
  315MOL0     C42403   3.109   4.944   6.606  0.0472  0.4958  0.4843
  315MOL0     C42404   3.226   5.037   6.622 -0.8095 -0.5764 -0.2069
  315MOL0     C42405   3.196   5.163   6.535 -0.6069  0.0423 -0.4989
  315MOL0     C42406   3.310   5.259   6.543 -0.4206  0.2779  0.2390
  315MOL0     N42407   3.267   5.380   6.476  0.4181 -0.6401  0.2311
  315MOL0     C42408   3.329   5.416   6.359  0.7783 -0.0413  0.0377
  315MOL0     C42409   3.272   5.532   6.321 -0.4753 -0.1754 -0.6304
  315MOL0     C42410   3.307   5.618   6.206  0.0205  0.8065 -1.1260
  315MOL0     C42411   3.454   5.655   6.224 -0.1311 -0.6026  0.2681
  315MOL0     C42412   3.499   5.743   6.111  1.2752  0.1506  0.2353
  315MOL0     C42413   3.648   5.749   6.099  0.5265  0.4148  0.1911
  315MOL0     O42414   3.692   5.826   5.988  0.5339 -0.4869  0.3336
  315MOL0     C42415   3.826   5.857   5.965  0.5814  0.4816 -0.4605
  315MOL0     C42416   3.861   5.867   5.835 -0.3630  0.0408  0.4009
  315MOL0     C42417   3.990   5.884   5.789  0.0154  0.9461  0.9361
  315MOL0     C42418   4.096   5.890   5.889  0.2335 -0.1119  0.2519
  315MOL0     C42419   4.239   5.930   5.847 -0.3229  0.4780  0.4759
  315MOL0     O42420   4.321   5.968   5.948 -0.8062  0.0001  0.2645
  315MOL0     C42421   4.458   5.988   5.941  0.4174 -0.0659 -0.3953
  315MOL0     C42422   4.541   5.947   5.838  0.2241 -0.2562 -0.0025
  315MOL0     C42423   4.676   5.986   5.847 -0.5685  1.4711  0.0405
  315MOL0     C42424   4.733   6.046   5.960 -0.4056 -0.1565 -0.0594
  315MOL0     O42425   4.857   6.084   5.995  0.6227 -0.0002  0.0153
  315MOL0     C42426   4.969   6.034   5.923 -0.8707  0.4269  0.2446
  315MOL0     C42427   5.097   6.107   5.981  0.4742 -0.1813 -0.5816
  315MOL0     C42428   5.214   6.064   5.890  0.0819 -0.0564 -0.3909
  315MOL0     C42429   5.342   6.082   5.974 -0.6857 -0.1883 -0.1912
  315MOL0     C42430   5.456   6.024   5.873  0.3320  0.5814  0.0593
  315MOL0     C42431   5.597   6.021   5.943  0.3734 -0.6219  0.4011
  315MOL0     C42432   5.653   6.164   5.960 -0.2500 -0.1813 -0.8451
  315MOL0     C42433   5.804   6.168   6.001 -0.0840 -0.2396  0.0559
  315MOL0    Cl42434   5.907   6.089   5.875 -0.1945 -0.1923 -0.1558
  315MOL0     C42435   4.646   6.078   6.064 -0.3324 -0.3457 -0.1086
  315MOL0     C42436   4.508   6.047   6.053 -0.3129  0.1389  0.3914
  315MOL0     O42437   4.261   5.937   5.727  0.2229 -0.1963  0.1885
  315MOL0     C42438   4.055   5.889   6.029  0.1342  0.4936 -0.5310
  315MOL0     C42439   3.922   5.869   6.067 -0.5768  0.5032  0.4656
  315MOL0     N42440   3.196   5.577   6.430  0.4974  0.8789  0.8967
  315MOL0     N42441   3.193   5.478   6.521 -1.0229  0.5602  0.3633
  315MOL0     C42442   2.507   4.578   6.904  0.1916 -0.4768  0.3754
  315MOL0     C42443   2.438   4.454   6.924  0.3297 -0.6021  0.7879
  315MOL0     C42444   2.289   4.035   6.907  0.2287  0.1468  0.3937
  315MOL0     C42445   2.350   3.962   7.015  0.1735  0.6162 -0.7279
  315MOL0     C42446   2.293   3.843   7.065  1.3494 -0.1992  0.2703
  315MOL0     C42447   2.171   3.797   7.002  0.4854  0.8478  1.1837
  315MOL0     O42448   2.104   3.690   7.059 -0.4528  0.1438  0.3077
  315MOL0     C42449   2.152   3.558   7.023 -0.0121  0.6458  0.0891
  315MOL0     C42450   2.200   3.543   6.876  0.9667 -0.4807  0.1815
  315MOL0     C42451   2.186   3.408   6.819 -0.4643  0.2044  0.3066
  315MOL0     C42452   2.312   3.325   6.856  0.3710 -0.0875 -0.1200
  315MOL0     C42453   2.314   3.266   6.987  0.6475 -0.2346 -1.0688
  315MOL0     C42454   2.337   3.234   7.104  0.1587  0.1138 -0.1128
  315MOL0     C42455   2.105   3.873   6.903  0.4969 -0.6366 -0.2183
  315MOL0     C42456   2.167   3.984   6.856  0.0032  0.0192 -0.1355
  315MOL0     C42457   2.087   4.051   6.738  0.2265 -0.7658 -0.1043
  315MOL0     H42458   2.702   4.256   6.836 -1.2910 -0.4403 -1.8183
  315MOL0     H42459   2.814   4.466   6.803 -0.4276  0.0671 -1.1109
  315MOL0     H42460   2.640   4.810   6.708  1.8228  0.6498 -0.7464
  315MOL0     H42461   2.579   4.857   6.876 -0.2460  1.1902 -1.5510
  315MOL0     H42462   2.814   4.958   6.913  0.9528  1.3570 -1.7520
  315MOL0     H42463   2.752   5.023   6.764  1.1747  1.0761 -0.3484
  315MOL0     H42464   2.847   4.858   6.624 -1.7077 -1.6627  0.8420
  315MOL0     H42465   2.925   4.777   6.753 -1.4473 -0.3394 -0.9201
  315MOL0     H42466   2.963   5.080   6.705 -1.6773 -1.3629 -2.5925
  315MOL0     H42467   3.064   4.982   6.814  1.8519 -0.2911 -0.5382
  315MOL0     H42468   3.145   4.841   6.616  3.0153  1.5010  1.1485
  315MOL0     H42469   3.058   4.959   6.510 -3.6145 -1.1473  1.9510
  315MOL0     H42470   3.234   5.069   6.726  0.6255 -0.2573 -0.4000
  315MOL0     H42471   3.317   4.986   6.591 -0.2804  0.2773 -0.0932
  315MOL0     H42472   3.105   5.212   6.569 -0.8432  0.5167 -1.7463
  315MOL0     H42473   3.186   5.130   6.431 -1.9280  0.7535 -0.6156
  315MOL0     H42474   3.329   5.288   6.647 -0.9524 -0.2904  0.5019
  315MOL0     H42475   3.395   5.222   6.485 -0.7936 -2.2384  1.2064
  315MOL0     H42476   3.393   5.356   6.295 -0.8939 -0.1700 -1.5678
  315MOL0     H42477   3.295   5.558   6.116  3.8311 -0.8064 -0.7943
  315MOL0     H42478   3.240   5.704   6.210  0.4674  1.1192  1.0979
  315MOL0     H42479   3.480   5.709   6.315  1.0284 -3.4822  1.7835
  315MOL0     H42480   3.502   5.557   6.223 -0.6697 -0.9709  3.1144
  315MOL0     H42481   3.454   5.843   6.116 -1.3340 -1.0167  1.9611
  315MOL0     H42482   3.457   5.697   6.021  1.4510 -0.2134  0.3375
  315MOL0     H42483   3.677   5.643   6.095  0.7897  0.3388  2.5009
  315MOL0     H42484   3.694   5.793   6.189  2.3319  1.8991 -1.3689
  315MOL0     H42485   3.781   5.859   5.763 -0.5984  2.5517  0.2846
  315MOL0     H42486   4.017   5.892   5.685  1.8509 -0.1168  1.2756
  315MOL0     H42487   4.498   5.883   5.762  0.0700  0.6040 -0.6664
  315MOL0     H42488   4.729   5.953   5.758 -2.3542 -3.7801  0.6341
  315MOL0     H42489   4.976   5.925   5.931 -3.9466  0.1324  0.2246
  315MOL0     H42490   4.972   6.070   5.820  1.4725  0.6663  0.3521
  315MOL0     H42491   5.090   6.216   5.975  2.3256 -0.0922 -2.1573
  315MOL0     H42492   5.122   6.083   6.085  2.1681  0.6393 -0.7663
  315MOL0     H42493   5.199   5.959   5.862  0.8530 -0.5676  1.0190
  315MOL0     H42494   5.217   6.128   5.801  0.8848 -0.1789 -0.4567
  315MOL0     H42495   5.338   6.023   6.066 -2.2140 -0.3483 -0.3291
  315MOL0     H42496   5.353   6.186   6.004 -1.9674 -0.4189  1.1695
  315MOL0     H42497   5.459   6.073   5.775  1.3502 -0.4194 -0.4359
  315MOL0     H42498   5.437   5.918   5.855 -1.8558  0.9052  0.2757
  315MOL0     H42499   5.595   5.971   6.041  3.0682 -0.5845  0.5535
  315MOL0     H42500   5.664   5.962   5.880 -2.3793 -2.0726 -1.3590
  315MOL0     H42501   5.597   6.221   6.035 -2.5231 -0.9545 -1.8701
  315MOL0     H42502   5.652   6.214   5.863  1.3739  0.4969 -0.5460
  315MOL0     H42503   5.835   6.273   5.996 -0.2433 -0.2391 -1.2714
  315MOL0     H42504   5.822   6.121   6.098 -0.2287 -0.3323  0.0389
  315MOL0     H42505   4.687   6.128   6.151  2.2296  1.8283 -2.3926
  315MOL0     H42506   4.435   6.056   6.133 -2.5871 -1.3866 -1.3873
  315MOL0     H42507   4.130   5.911   6.104  0.3904 -1.0669 -0.2987
  315MOL0     H42508   3.895   5.863   6.172  0.5914  0.4760  0.7789
  315MOL0     H42509   2.456   4.669   6.932 -0.6788  0.1052 -2.7364
  315MOL0     H42510   2.338   4.443   6.965  1.1579 -0.5331  2.9780
  315MOL0     H42511   2.446   3.993   7.056  2.6763 -3.0384 -3.2269
  315MOL0     H42512   2.343   3.782   7.139  1.0744 -2.9679 -1.6672
  315MOL0     H42513   2.075   3.485   7.050  0.4992  0.2193  0.4216
  315MOL0     H42514   2.234   3.528   7.090 -0.6126 -0.5705  0.3009
  315MOL0     H42515   2.301   3.583   6.863 -0.6785  4.0377 -0.3614
  315MOL0     H42516   2.124   3.598   6.820 -0.1091  0.0757  2.1018
  315MOL0     H42517   2.182   3.408   6.709  0.5569  0.1062  0.2598
  315MOL0     H42518   2.101   3.349   6.853 -0.9770  1.0442  0.5190
  315MOL0     H42519   2.318   3.242   6.786  0.3079  0.4117 -0.7293
  315MOL0     H42520   2.402   3.383   6.831  0.9197 -0.8721 -0.0224
  315MOL0     H42521   2.355   3.216   7.209  0.8059 -1.9636 -0.5289
  315MOL0     H42522   2.012   3.839   6.859  0.2346  0.2433 -0.3733
  315MOL0     H42523   2.157   4.066   6.655 -0.5603  1.8479 -0.3859
  315MOL0     H42524   2.000   3.990   6.708 -1.7007  1.5312  0.5038
  315MOL0     H42525   2.060   4.150   6.776 -0.4952 -0.7004 -0.7468
  316MOL0     O42526  10.524   6.316   8.369 -0.3471 -0.1622 -0.3180
  316MOL0     C42527  10.433   6.269   8.300  0.6177 -0.4936 -0.8559
  316MOL0     O42528  10.343   6.167   8.340 -0.3222 -0.0303 -0.8463
  316MOL0     C42529  10.371   6.080   8.451 -0.2070  0.3843  0.1448
  316MOL0     C42530  10.255   6.005   8.489 -0.6380  0.3170 -0.1797
  316MOL0     C42531  10.266   5.907   8.584  0.2206  0.5396  0.5319
  316MOL0     C42532  10.379   5.897   8.661  0.2762 -0.9827  0.1276
  316MOL0     O42533  10.392   5.812   8.764 -0.1548 -0.2249 -0.0252
  316MOL0     C42534  10.297   5.714   8.811  0.1759 -0.2311  1.0557
  316MOL0     C42535  10.288   5.723   8.965  0.3626 -0.1583  0.5273
  316MOL0     C42536  10.175   5.635   9.007 -0.2159  0.2112  0.0238
  316MOL0     C42537  10.120   5.676   9.148 -0.0242  0.5534 -0.0112
  316MOL0     C42538   9.978   5.630   9.166  0.1311 -0.5497 -0.4516
  316MOL0     C42539   9.883   5.707   9.081  0.0055  0.4089  0.0762
  316MOL0     C42540   9.751   5.628   9.066  0.2574  1.0948  0.4518
  316MOL0     C42541   9.733   5.551   8.931 -0.1645 -0.2970 -0.8452
  316MOL0     N42542   9.802   5.419   8.925 -0.3785  0.3290 -0.4565
  316MOL0     C42543   9.901   5.384   8.835 -0.3500  0.7898 -0.2533
  316MOL0     C42544   9.930   5.253   8.865 -0.7295 -0.5978  0.1887
  316MOL0     C42545  10.036   5.181   8.794 -0.2691 -0.8499  0.2746
  316MOL0     C42546  10.169   5.211   8.865 -0.6827 -0.2621 -0.4359
  316MOL0     C42547  10.291   5.202   8.777  0.2397  0.7677 -0.2945
  316MOL0     C42548  10.343   5.343   8.731  0.3601  0.5352  0.2961
  316MOL0     O42549  10.231   5.413   8.668  0.1677  0.1098 -0.6393
  316MOL0     C42550  10.260   5.492   8.559 -0.3728 -0.7809  0.1797
  316MOL0     C42551  10.167   5.516   8.466  0.1479 -0.6184  0.4911
  316MOL0     C42552  10.191   5.607   8.366 -0.2554 -0.7331 -0.4164
  316MOL0     C42553  10.310   5.679   8.348 -0.1456  0.6216  0.3199
  316MOL0     C42554  10.336   5.778   8.243 -0.7858  0.4551  0.3332
  316MOL0     O42555  10.461   5.802   8.199  0.3209 -0.8163  0.2646
  316MOL0     C42556  10.497   5.886   8.098  0.4947 -0.5877 -0.6480
  316MOL0     C42557  10.411   5.980   8.033 -0.4452 -0.5343 -0.3574
  316MOL0     C42558  10.455   6.070   7.939  0.0972  0.6218 -0.0352
  316MOL0     C42559  10.589   6.076   7.905 -0.4028 -0.2308 -0.1674
  316MOL0     O42560  10.630   6.183   7.824  0.1665  0.0223  0.0658
  316MOL0     C42561  10.773   6.213   7.821  0.0057 -0.8152 -0.2598
  316MOL0     C42562  10.794   6.356   7.770  0.1663  0.1840 -0.2175
  316MOL0     C42563  10.735   6.375   7.631 -0.7148 -0.0455  0.2669
  316MOL0     C42564  10.798   6.503   7.563 -0.4454  0.3615  0.1667
  316MOL0     C42565  10.711   6.624   7.601  0.5042  0.3521  0.4426
  316MOL0     C42566  10.753   6.754   7.527 -0.7531 -0.1634  0.4635
  316MOL0     C42567  10.666   6.869   7.577  0.2055  0.8819  0.1799
  316MOL0     C42568  10.716   6.997   7.540  0.6015 -0.5676  0.1783
  316MOL0    Cl42569  10.872   7.041   7.615  0.4988 -0.1713 -0.7804
  316MOL0     C42570  10.672   5.976   7.948 -0.6309 -0.3885 -1.0404
  316MOL0     C42571  10.629   5.885   8.039 -0.5488  0.6773 -0.7294
  316MOL0     O42572  10.233   5.831   8.205  0.0318  0.3507 -0.1202
  316MOL0     C42573  10.410   5.647   8.437 -0.2314  0.6406  0.6124
  316MOL0     C42574  10.380   5.557   8.542 -0.2699 -0.5201 -0.3492
  316MOL0     N42575   9.853   5.213   8.965 -0.1706  0.3914 -0.2007
  316MOL0     N42576   9.781   5.311   9.003  0.1351  0.3487  0.1477
  316MOL0     C42577  10.491   5.970   8.616  0.3215 -0.0017  0.0759
  316MOL0     C42578  10.492   6.061   8.515  0.3890  0.0630  0.0897
  316MOL0     C42579  10.385   6.338   8.176 -0.2868  0.5910  0.7881
  316MOL0     C42580  10.245   6.346   8.152 -0.8721  0.0204 -0.5559
  316MOL0     C42581  10.196   6.429   8.048  0.5273  0.3134  0.2460
  316MOL0     C42582  10.284   6.490   7.960  0.0112 -0.0602 -0.6432
  316MOL0     O42583  10.241   6.566   7.855  0.1537  0.3419 -0.8479
  316MOL0     C42584  10.326   6.582   7.738 -0.7312 -0.0704  0.3642
  316MOL0     C42585  10.248   6.592   7.614 -0.0342  0.7558 -0.1041
  316MOL0     C42586  10.137   6.705   7.621  0.4770 -1.1555 -0.3861
  316MOL0     C42587  10.192   6.847   7.587 -0.1924  0.0464  0.3720
  316MOL0     C42588  10.254   6.862   7.452 -0.2034  0.1163 -0.7549
  316MOL0     C42589  10.304   6.839   7.344  0.8319 -0.2263 -0.2308
  316MOL0     C42590  10.421   6.466   7.976 -0.1985 -0.0420 -0.0083
  316MOL0     C42591  10.473   6.402   8.085 -0.4262  0.7046 -0.0990
  316MOL0     C42592  10.621   6.393   8.102  0.7226 -0.1508 -0.1730
  316MOL0     H42593  10.160   6.005   8.437 -0.2845 -0.1909 -0.8402
  316MOL0     H42594  10.183   5.839   8.597 -0.8725  1.7978  0.3327
  316MOL0     H42595  10.200   5.726   8.762  2.1043 -2.6888 -4.0315
  316MOL0     H42596  10.334   5.612   8.799 -0.5687 -0.7120  2.5078
  316MOL0     H42597  10.256   5.826   8.984  2.8120  1.0482 -1.3231
  316MOL0     H42598  10.378   5.684   9.012  0.7064 -0.3649 -0.2828
  316MOL0     H42599  10.202   5.529   9.017 -0.6747  0.0477 -0.3960
  316MOL0     H42600  10.103   5.632   8.924  2.4833  0.6139 -2.5295
  316MOL0     H42601  10.187   5.639   9.225 -2.1106 -1.4509  0.9454
  316MOL0     H42602  10.115   5.784   9.164  3.6477  0.5868  1.9166
  316MOL0     H42603   9.975   5.523   9.147  3.1638 -0.7482 -0.2093
  316MOL0     H42604   9.948   5.635   9.271  1.1825 -1.3236 -0.0989
  316MOL0     H42605   9.855   5.798   9.135 -1.4427 -1.0003  1.8388
  316MOL0     H42606   9.924   5.739   8.985  1.5825  0.5120  0.7566
  316MOL0     H42607   9.658   5.687   9.068 -1.0141 -0.8015  0.0243
  316MOL0     H42608   9.747   5.553   9.145  1.7114  0.7066  0.1725
  316MOL0     H42609   9.627   5.527   8.918 -0.2598  0.1843 -0.9980
  316MOL0     H42610   9.764   5.617   8.849  0.9870 -0.4079 -0.5091
  316MOL0     H42611   9.953   5.451   8.768  0.7295 -0.4073 -0.6581
  316MOL0     H42612  10.029   5.072   8.783  3.3464 -0.9509 -3.0429
  316MOL0     H42613  10.041   5.214   8.690  0.5426 -0.5501  0.4082
  316MOL0     H42614  10.159   5.308   8.914 -2.7932 -1.6548  2.1682
  316MOL0     H42615  10.180   5.142   8.949 -4.3924 -2.4452 -1.5031
  316MOL0     H42616  10.265   5.128   8.701 -3.2793  1.9145 -0.4202
  316MOL0     H42617  10.375   5.160   8.833  2.5170  3.5560 -1.3641
  316MOL0     H42618  10.415   5.325   8.651  0.4597  0.6903  0.3490
  316MOL0     H42619  10.385   5.405   8.811  2.2540 -0.4738  0.1331
  316MOL0     H42620  10.071   5.466   8.469 -0.1870 -0.6169 -4.0558
  316MOL0     H42621  10.113   5.616   8.291 -1.4517 -1.3777  0.7177
  316MOL0     H42622  10.306   5.996   8.054 -0.2674 -0.0522  0.1930
  316MOL0     H42623  10.403   6.152   7.890  1.8498  1.3592 -0.7385
  316MOL0     H42624  10.820   6.206   7.920 -0.3768 -0.7862 -0.0736
  316MOL0     H42625  10.819   6.136   7.759 -0.6916 -1.2685 -0.2257
  316MOL0     H42626  10.748   6.431   7.836  0.3910  1.8570 -1.8532
  316MOL0     H42627  10.902   6.373   7.773  0.7291 -2.7201 -1.0664
  316MOL0     H42628  10.774   6.289   7.575 -0.0071  0.2324  0.3214
  316MOL0     H42629  10.627   6.382   7.618 -0.9026 -2.8607 -0.4078
  316MOL0     H42630  10.808   6.480   7.456  3.2103  0.1465  0.4258
  316MOL0     H42631  10.901   6.513   7.596  0.4593  0.0103 -2.2959
  316MOL0     H42632  10.708   6.638   7.710 -0.8382 -0.1830  0.4935
  316MOL0     H42633  10.609   6.595   7.574  0.4774  1.4935 -0.7786
  316MOL0     H42634  10.856   6.788   7.544 -2.1278  3.4427  2.6293
  316MOL0     H42635  10.742   6.747   7.418  0.7947 -1.0717  0.3287
  316MOL0     H42636  10.655   6.853   7.685 -0.3973 -4.9529 -0.4238
  316MOL0     H42637  10.570   6.841   7.533  0.8587 -1.2777  0.0065
  316MOL0     H42638  10.721   6.998   7.431 -1.0979  0.4444  0.0682
  316MOL0     H42639  10.644   7.070   7.578  0.1108 -0.9371 -0.0242
  316MOL0     H42640  10.776   5.967   7.920 -0.2120 -0.9019  0.5844
  316MOL0     H42641  10.698   5.810   8.078 -1.6486 -0.0189 -0.0449
  316MOL0     H42642  10.508   5.693   8.437 -0.8654  2.0526  0.1751
  316MOL0     H42643  10.465   5.532   8.604  1.4671  2.5030 -1.2845
  316MOL0     H42644  10.586   5.963   8.668  0.8147  3.2124 -0.1733
  316MOL0     H42645  10.583   6.108   8.479  1.2414 -0.5550  1.3763
  316MOL0     H42646  10.173   6.305   8.222  0.3619  0.7418  1.1793
  316MOL0     H42647  10.090   6.444   8.028  0.0243 -1.0115  1.7395
  316MOL0     H42648  10.396   6.499   7.729  0.9193  1.1206  1.5050
  316MOL0     H42649  10.387   6.673   7.730  2.1539 -1.9421 -0.1652
  316MOL0     H42650  10.212   6.494   7.580  0.9635  0.7589 -1.2627
  316MOL0     H42651  10.312   6.602   7.526 -0.8830  0.0799 -0.8166
  316MOL0     H42652  10.081   6.710   7.715 -1.8669  0.5171 -1.7635
  316MOL0     H42653  10.056   6.689   7.549  1.1302 -1.9436 -0.9747
  316MOL0     H42654  10.118   6.927   7.587  1.6448  1.8541 -1.3768
  316MOL0     H42655  10.257   6.877   7.670  0.9066 -1.9144  0.2850
  316MOL0     H42656  10.347   6.830   7.246  3.3520 -1.3501  0.8864
  316MOL0     H42657  10.502   6.502   7.914  1.2788  0.0057  1.8582
  316MOL0     H42658  10.649   6.422   8.204 -3.3033  1.2120  0.7284
  316MOL0     H42659  10.653   6.291   8.081 -1.7368 -0.6213 -2.0792
  316MOL0     H42660  10.675   6.459   8.034  1.5204 -0.6179 -0.0052
  317MOL0     O42661   0.909   5.506   6.682 -0.4786 -0.1037 -0.8621
  317MOL0     C42662   0.866   5.604   6.623 -0.2798 -0.2025 -0.2846
  317MOL0     O42663   0.925   5.732   6.622  0.0399 -0.0713  0.0813
  317MOL0     C42664   1.044   5.728   6.692 -0.1633  0.5410 -0.3419
  317MOL0     C42665   1.040   5.766   6.829  0.3588 -0.1103 -0.1057
  317MOL0     C42666   1.154   5.761   6.901  0.4232  0.0986  0.0237
  317MOL0     C42667   1.276   5.724   6.844 -0.2024  0.0623  0.0426
  317MOL0     O42668   1.396   5.692   6.913  1.0151 -0.1025 -0.4079
  317MOL0     C42669   1.412   5.753   7.042  0.8985  0.2062  0.4623
  317MOL0     C42670   1.556   5.764   7.090  0.5929  0.1709  0.8041
  317MOL0     C42671   1.626   5.627   7.103  0.3167  0.8031 -0.1399
  317MOL0     C42672   1.586   5.567   7.235 -0.0151 -0.0263 -0.3545
  317MOL0     C42673   1.624   5.423   7.238  0.1038  0.7678 -0.0529
  317MOL0     C42674   1.536   5.345   7.335  0.3738 -0.0152  0.8112
  317MOL0     C42675   1.576   5.384   7.475 -0.3266 -0.6195 -0.1122
  317MOL0     C42676   1.710   5.343   7.527 -0.0980  0.6286  0.4159
  317MOL0     N42677   1.722   5.369   7.666  0.0334  0.6681  0.1571
  317MOL0     C42678   1.659   5.314   7.773 -0.1331  0.2932 -0.3490
  317MOL0     C42679   1.741   5.332   7.881 -0.3086 -0.7220  1.2758
  317MOL0     C42680   1.715   5.293   8.017  0.8521 -0.2351  0.5701
  317MOL0     C42681   1.836   5.284   8.109 -0.0758 -0.5145 -0.3931
  317MOL0     C42682   1.920   5.156   8.094 -0.1018 -0.2675 -0.2821
  317MOL0     C42683   2.004   5.138   8.215 -0.9136  0.1561 -0.3799
  317MOL0     O42684   2.091   5.252   8.253  0.5031  0.0248  0.7573
  317MOL0     C42685   2.213   5.264   8.192 -0.6146 -0.1713  0.1048
  317MOL0     C42686   2.251   5.385   8.135 -0.5023  0.5204  0.0913
  317MOL0     C42687   2.380   5.394   8.070 -0.3909  0.8426  0.1601
  317MOL0     C42688   2.471   5.289   8.079 -0.6535  1.5229 -0.9767
  317MOL0     C42689   2.612   5.313   8.037  0.2268  0.6526  0.2447
  317MOL0     O42690   2.631   5.423   7.964 -0.0798 -0.1958 -0.3441
  317MOL0     C42691   2.754   5.471   7.933  0.1891  1.0151  0.1942
  317MOL0     C42692   2.879   5.417   7.953  1.0468  0.4085 -0.2228
  317MOL0     C42693   2.996   5.491   7.912 -0.0533  0.0010  1.4184
  317MOL0     C42694   2.987   5.624   7.871 -0.1524  0.6991  0.8732
  317MOL0     O42695   3.100   5.681   7.819  0.2578  0.0756  0.0084
  317MOL0     C42696   3.206   5.689   7.905 -0.0493  0.2694  0.8525
  317MOL0     C42697   3.315   5.771   7.831 -0.1180 -0.4470 -0.6978
  317MOL0     C42698   3.451   5.744   7.892  0.3256 -1.5284  0.0088
  317MOL0     C42699   3.543   5.769   7.782 -0.1869 -0.2552 -0.1746
  317MOL0     C42700   3.693   5.764   7.831 -0.6154  1.0631  0.8647
  317MOL0     C42701   3.789   5.796   7.712  0.6283  0.0559  0.1094
  317MOL0     C42702   3.758   5.940   7.647  1.0851  0.6156 -0.5814
  317MOL0     C42703   3.879   5.990   7.567  0.1455  0.5382 -0.1851
  317MOL0    Cl42704   3.881   5.899   7.417  0.2703  0.4676 -0.0234
  317MOL0     C42705   2.861   5.691   7.863 -0.3925  0.0606  0.2027
  317MOL0     C42706   2.745   5.605   7.885  0.2581  0.1478  1.4075
  317MOL0     O42707   2.699   5.228   8.059  0.4687 -0.7391 -0.0673
  317MOL0     C42708   2.426   5.165   8.141 -0.4317  1.0652 -0.1335
  317MOL0     C42709   2.297   5.156   8.188 -0.3301  0.6281  0.5350
  317MOL0     N42710   1.855   5.399   7.831 -0.3932 -0.5473 -0.5405
  317MOL0     N42711   1.837   5.423   7.707  0.2423 -0.3208  0.0115
  317MOL0     C42712   1.278   5.674   6.710 -0.0445  0.1652  0.0912
  317MOL0     C42713   1.160   5.677   6.635 -0.4344  0.5021 -0.7005
  317MOL0     C42714   0.733   5.590   6.560  0.1333  1.4059  0.6428
  317MOL0     C42715   0.657   5.478   6.609 -0.2323  0.2861  0.0277
  317MOL0     C42716   0.532   5.450   6.560  1.0611 -0.1533  1.2766
  317MOL0     C42717   0.469   5.534   6.465  0.1747 -0.4117 -0.4736
  317MOL0     O42718   0.344   5.524   6.418 -0.0189  0.4030  0.1395
  317MOL0     C42719   0.274   5.402   6.431  0.0185  0.1547 -0.3026
  317MOL0     C42720   0.135   5.390   6.357  0.0504  0.2824  0.2139
  317MOL0     C42721   0.039   5.503   6.395 -0.1214  0.5672  0.5916
  317MOL0     C42722   0.071   5.632   6.322  0.1350  0.5345  0.4501
  317MOL0     C42723  -0.050   5.717   6.327 -0.3455  0.0794 -0.3797
  317MOL0     C42724  -0.152   5.782   6.333 -0.5646 -0.3958 -0.9794
  317MOL0     C42725   0.544   5.643   6.420  0.3854  0.5203 -0.0540
  317MOL0     C42726   0.668   5.662   6.457 -0.0511 -0.1392  0.2858
  317MOL0     C42727   0.738   5.757   6.363 -0.4908  0.2300 -0.2428
  317MOL0     H42728   0.947   5.799   6.874  1.4545  1.5528  1.0126
  317MOL0     H42729   1.153   5.780   7.007  3.4748  0.7032  0.0574
  317MOL0     H42730   1.378   5.857   7.044  2.7844  0.8761  0.0370
  317MOL0     H42731   1.352   5.704   7.119 -1.5090  0.1362 -1.3470
  317MOL0     H42732   1.565   5.808   7.190  2.0571 -2.4270  1.9139
  317MOL0     H42733   1.613   5.818   7.013  2.8739 -2.2897  0.6117
  317MOL0     H42734   1.734   5.634   7.090  0.4130 -1.2924 -0.8883
  317MOL0     H42735   1.594   5.559   7.023  1.9273 -1.1098  0.7465
  317MOL0     H42736   1.639   5.619   7.315  2.8840 -1.2248 -1.3513
  317MOL0     H42737   1.477   5.576   7.244 -0.1342 -1.8494  0.7503
  317MOL0     H42738   1.619   5.387   7.135  3.2884  0.3191 -0.1476
  317MOL0     H42739   1.726   5.397   7.267 -1.1750 -1.7935  2.7227
  317MOL0     H42740   1.434   5.375   7.311  1.1355  2.1036  0.0298
  317MOL0     H42741   1.534   5.236   7.329 -2.0646  0.0265 -0.5293
  317MOL0     H42742   1.499   5.337   7.537 -1.7537  0.6354 -0.8644
  317MOL0     H42743   1.564   5.491   7.492  0.7756 -0.7367  1.6357
  317MOL0     H42744   1.712   5.234   7.515  2.4316  0.8052 -1.8121
  317MOL0     H42745   1.790   5.395   7.473  0.3463 -2.4636 -2.2108
  317MOL0     H42746   1.565   5.260   7.773  0.3041 -0.4817 -0.6563
  317MOL0     H42747   1.647   5.365   8.064  0.5084 -0.0764 -0.1519
  317MOL0     H42748   1.663   5.197   8.023 -0.4785  0.4173  0.0347
  317MOL0     H42749   1.909   5.364   8.091 -2.7664  2.3877  0.7082
  317MOL0     H42750   1.812   5.316   8.211 -0.7126  1.2131 -1.0498
  317MOL0     H42751   1.994   5.166   8.013 -0.3281  0.5694 -0.3934
  317MOL0     H42752   1.863   5.063   8.087  0.8072 -0.8998  0.4457
  317MOL0     H42753   2.071   5.053   8.199 -0.4845  0.4309 -0.0659
  317MOL0     H42754   1.935   5.111   8.296 -2.3499  1.2452 -1.1936
  317MOL0     H42755   2.182   5.468   8.145  0.0654  0.8638  1.3401
  317MOL0     H42756   2.399   5.488   8.019 -0.7728  0.0077 -1.5577
  317MOL0     H42757   2.893   5.315   7.989  0.5765 -0.4472 -2.2913
  317MOL0     H42758   3.093   5.444   7.923  2.0068  3.6925  0.7519
  317MOL0     H42759   3.190   5.740   8.000  3.4547 -0.4486  1.9769
  317MOL0     H42760   3.243   5.588   7.924 -2.0298 -0.1481  2.9500
  317MOL0     H42761   3.310   5.749   7.724 -0.5165  1.4506 -1.0910
  317MOL0     H42762   3.300   5.879   7.839  0.8373 -0.2867 -0.9168
  317MOL0     H42763   3.477   5.814   7.971 -1.7629  1.9131 -2.1109
  317MOL0     H42764   3.466   5.643   7.932 -1.0342 -0.7617  2.6902
  317MOL0     H42765   3.526   5.871   7.747 -2.6069  0.2838  2.2519
  317MOL0     H42766   3.528   5.703   7.696 -2.3197 -0.5069  0.3356
  317MOL0     H42767   3.718   5.672   7.884  0.0092  1.2598  0.9257
  317MOL0     H42768   3.714   5.833   7.914 -0.7376  0.0232  1.7792
  317MOL0     H42769   3.889   5.806   7.754 -0.1430  0.2672  1.9839
  317MOL0     H42770   3.779   5.719   7.635 -0.1946 -0.3226  0.5779
  317MOL0     H42771   3.743   6.011   7.729 -0.1804  0.1467 -0.3830
  317MOL0     H42772   3.670   5.939   7.582  0.6673 -0.0527 -0.0279
  317MOL0     H42773   3.858   6.093   7.537 -0.5071 -0.4944 -3.8486
  317MOL0     H42774   3.973   5.978   7.621  0.5188 -0.0013 -0.9296
  317MOL0     H42775   2.866   5.795   7.834  2.6326 -0.7415 -2.8864
  317MOL0     H42776   2.649   5.654   7.871 -0.2738 -1.7053 -3.6157
  317MOL0     H42777   2.501   5.087   8.146 -1.0263  0.4852 -0.1525
  317MOL0     H42778   2.264   5.058   8.218 -1.5169  0.3577 -1.4785
  317MOL0     H42779   1.368   5.624   6.675 -0.7215 -1.3447  0.4576
  317MOL0     H42780   1.157   5.636   6.534 -0.0674  1.4846 -1.1305
  317MOL0     H42781   0.699   5.414   6.686  1.0816  0.4118 -0.5426
  317MOL0     H42782   0.484   5.362   6.602  0.8631 -2.0995 -2.5613
  317MOL0     H42783   0.266   5.387   6.539  1.3498 -0.2474 -0.2425
  317MOL0     H42784   0.339   5.323   6.394 -0.5635 -1.3963  1.8093
  317MOL0     H42785   0.093   5.292   6.378 -1.0945  0.9662  1.2915
  317MOL0     H42786   0.146   5.392   6.248 -0.2217  3.6767  0.1348
  317MOL0     H42787   0.069   5.539   6.494  1.9483  3.6928 -1.0086
  317MOL0     H42788  -0.063   5.463   6.393 -0.4684  1.4510  0.1576
  317MOL0     H42789   0.165   5.670   6.362  0.4524 -0.7617  0.9949
  317MOL0     H42790   0.103   5.611   6.219  2.2264  1.6786  0.8089
  317MOL0     H42791  -0.245   5.831   6.355  0.2593  0.8695 -0.1514
  317MOL0     H42792   0.495   5.711   6.351 -0.7096  1.4760  1.5780
  317MOL0     H42793   0.821   5.811   6.408  0.6732 -0.8607 -1.0232
  317MOL0     H42794   0.781   5.702   6.278 -0.4169 -1.6463  0.9582
  317MOL0     H42795   0.674   5.837   6.325  0.3909  1.6736  1.2243
  318MOL0     O42796   3.053   9.577   6.186 -0.0987 -0.3155 -0.8691
  318MOL0     C42797   2.963   9.562   6.272 -0.7362  0.6668  0.3184
  318MOL0     O42798   2.987   9.587   6.403 -0.3677  0.0127 -0.5712
  318MOL0     C42799   3.120   9.615   6.433 -0.1855 -0.1706  0.6204
  318MOL0     C42800   3.155   9.741   6.494 -0.6115 -0.4300  0.4820
  318MOL0     C42801   3.286   9.772   6.528  0.0796 -0.3420 -0.6067
  318MOL0     C42802   3.393   9.681   6.523 -0.3024  0.3582 -0.0443
  318MOL0     O42803   3.531   9.705   6.553  0.0063 -0.3198  0.5308
  318MOL0     C42804   3.564   9.837   6.597 -0.0075 -0.1351  1.1463
  318MOL0     C42805   3.720   9.857   6.603 -0.3938  0.3047 -0.1452
  318MOL0     C42806   3.742  10.001   6.623 -0.2644 -0.5816  0.6450
  318MOL0     C42807   3.887  10.028   6.621 -0.3329 -0.2203 -0.1931
  318MOL0     C42808   3.913  10.169   6.688 -0.1634  0.1790  0.3169
  318MOL0     C42809   4.061  10.203   6.668 -0.7400  0.4953 -0.8657
  318MOL0     C42810   4.107  10.335   6.730  0.2685 -0.9445 -0.3472
  318MOL0     C42811   4.255  10.364   6.699 -0.2012  0.4596 -0.2708
  318MOL0     N42812   4.310  10.488   6.755 -0.1712  0.1312 -0.5258
  318MOL0     C42813   4.334  10.514   6.886 -1.4384 -0.3549  0.2103
  318MOL0     C42814   4.373  10.641   6.893  0.7389 -0.0571  0.2158
  318MOL0     C42815   4.419  10.716   7.017 -0.2441  0.4080 -0.0819
  318MOL0     C42816   4.573  10.704   7.031  0.3028  0.3380  0.6536
  318MOL0     C42817   4.622  10.823   7.108  0.4404 -0.2504  0.0968
  318MOL0     C42818   4.771  10.799   7.145 -0.1514  0.6187 -0.1006
  318MOL0     O42819   4.817  10.919   7.205 -0.1676 -0.1721  0.5565
  318MOL0     C42820   4.946  10.915   7.256 -0.4901  0.7290  0.5627
  318MOL0     C42821   5.041  10.815   7.222 -0.3626 -1.7089  0.5659
  318MOL0     C42822   5.173  10.815   7.271 -0.4630  0.7832  0.0198
  318MOL0     C42823   5.217  10.923   7.352  0.5653  0.0448  1.1687
  318MOL0     C42824   5.358  10.940   7.395 -0.3933  0.2680  0.1721
  318MOL0     O42825   5.384  11.044   7.472 -1.0531 -0.0406 -0.6844
  318MOL0     C42826   5.512  11.082   7.496  0.1870 -0.1910 -0.0151
  318MOL0     C42827   5.563  11.084   7.628  0.9016 -0.9035 -0.0349
  318MOL0     C42828   5.698  11.119   7.655  0.5931 -0.0702  0.4240
  318MOL0     C42829   5.778  11.147   7.549  0.0786 -0.1476 -0.5997
  318MOL0     O42830   5.915  11.169   7.562 -0.2144 -0.2664  0.0574
  318MOL0     C42831   5.936  11.303   7.617 -0.1104  0.4977 -0.4285
  318MOL0     C42832   6.086  11.312   7.645  0.2260 -0.0645 -0.9040
  318MOL0     C42833   6.172  11.284   7.518  0.2332  0.4749  0.2014
  318MOL0     C42834   6.320  11.309   7.544  0.5189  0.0534  0.5516
  318MOL0     C42835   6.403  11.263   7.419 -0.0828  0.1279  0.1086
  318MOL0     C42836   6.553  11.237   7.447  0.4834  0.0968  1.3118
  318MOL0     C42837   6.617  11.386   7.458  0.3235 -0.3857 -0.0029
  318MOL0     C42838   6.770  11.395   7.457  0.0513  0.3156  0.4895
  318MOL0    Cl42839   6.840  11.298   7.583  0.1324 -0.0875  0.2742
  318MOL0     C42840   5.733  11.151   7.424  0.3002 -0.1366  0.6239
  318MOL0     C42841   5.602  11.117   7.392  0.0740 -0.0811  0.1997
  318MOL0     O42842   5.440  10.849   7.355  0.7251 -0.9485 -0.5927
  318MOL0     C42843   5.119  11.019   7.385 -0.2468  0.4555 -0.6869
  318MOL0     C42844   4.996  11.020   7.330  0.9395 -0.3514 -0.2563
  318MOL0     N42845   4.370  10.693   6.766 -0.0325 -0.2823 -0.4476
  318MOL0     N42846   4.336  10.600   6.678 -0.4190  0.0136 -0.5755
  318MOL0     C42847   3.355   9.555   6.469 -1.4129  0.2520  0.6746
  318MOL0     C42848   3.226   9.529   6.414 -0.4742  0.0950 -0.5962
  318MOL0     C42849   2.829   9.527   6.220  0.5924  0.3040 -0.3838
  318MOL0     C42850   2.813   9.482   6.085  0.0206  0.2072  0.5255
  318MOL0     C42851   2.688   9.455   6.026  0.0993 -0.2060  0.2115
  318MOL0     C42852   2.569   9.468   6.097  0.6300  0.4194 -0.0961
  318MOL0     O42853   2.451   9.465   6.033 -0.0530  0.4973  0.2197
  318MOL0     C42854   2.328   9.498   6.110  0.2521 -0.5063 -0.2111
  318MOL0     C42855   2.212   9.477   6.017 -0.2144  1.3634  0.5288
  318MOL0     C42856   2.086   9.549   6.066  0.4761  0.3462  0.6454
  318MOL0     C42857   1.962   9.489   6.011  0.6260 -0.1216  0.2174
  318MOL0     C42858   1.839   9.540   6.072  0.5791 -0.1927  0.5961
  318MOL0     C42859   1.740   9.573   6.141 -0.0209 -0.2924 -0.5017
  318MOL0     C42860   2.584   9.503   6.234 -0.7559 -0.4927  0.6966
  318MOL0     C42861   2.710   9.534   6.291  0.0886 -0.4023  0.1781
  318MOL0     C42862   2.703   9.590   6.440  0.2848 -0.1034 -0.0621
  318MOL0     H42863   3.082   9.820   6.509  0.0117 -0.0214  1.5817
  318MOL0     H42864   3.313   9.873   6.556  1.2135 -1.1731  1.5041
  318MOL0     H42865   3.536   9.913   6.524  1.0698 -1.0178 -0.2301
  318MOL0     H42866   3.517   9.857   6.694 -0.8386  2.8742  0.2348
  318MOL0     H42867   3.767   9.838   6.507 -0.5279  0.8305 -0.3153
  318MOL0     H42868   3.769   9.801   6.683  1.4266  0.4480 -1.1248
  318MOL0     H42869   3.704  10.040   6.718  1.5336  2.7064  0.1520
  318MOL0     H42870   3.691  10.068   6.554 -1.5282 -0.2274  1.8736
  318MOL0     H42871   3.943   9.955   6.680  3.5356  1.6812 -1.2289
  318MOL0     H42872   3.918  10.015   6.517 -1.7685 -2.5352 -0.4078
  318MOL0     H42873   3.851  10.247   6.644  0.9118  1.2993  0.7228
  318MOL0     H42874   3.887  10.167   6.794  0.5376 -3.1682  0.5358
  318MOL0     H42875   4.119  10.129   6.724 -0.8901 -0.0249 -1.3814
  318MOL0     H42876   4.099  10.188   6.566  1.1420  1.5775 -0.3769
  318MOL0     H42877   4.092  10.322   6.838 -0.7713  0.4104 -0.2951
  318MOL0     H42878   4.036  10.409   6.693  0.5528 -1.0306 -1.0764
  318MOL0     H42879   4.317  10.285   6.743 -0.1401 -0.1463 -1.4012
  318MOL0     H42880   4.275  10.367   6.591 -1.5683  1.1241 -0.5137
  318MOL0     H42881   4.317  10.448   6.971 -0.0072  0.5714  1.2459
  318MOL0     H42882   4.395  10.822   7.014 -0.0226  0.4422 -0.9870
  318MOL0     H42883   4.366  10.674   7.104 -0.6686  3.1559  1.0844
  318MOL0     H42884   4.598  10.610   7.081 -2.0433  0.6630  2.6181
  318MOL0     H42885   4.632  10.706   6.939  0.3193  0.9663  0.6713
  318MOL0     H42886   4.562  10.840   7.198  0.4147  1.4042 -0.1883
  318MOL0     H42887   4.614  10.913   7.047  0.6759  0.1379  0.6267
  318MOL0     H42888   4.819  10.773   7.051 -0.3288 -0.7763  0.1781
  318MOL0     H42889   4.781  10.717   7.216  0.2344  0.9524  0.2405
  318MOL0     H42890   5.019  10.741   7.146  0.7996 -1.7491  0.2483
  318MOL0     H42891   5.250  10.745   7.238  0.3272  2.0689 -0.9543
  318MOL0     H42892   5.493  11.058   7.707 -0.9319  1.4933 -0.7599
  318MOL0     H42893   5.736  11.131   7.756  1.0586  2.4712  0.0009
  318MOL0     H42894   5.903  11.382   7.549 -1.4007  1.8553  1.6736
  318MOL0     H42895   5.880  11.319   7.709  0.7449  2.4835 -0.2156
  318MOL0     H42896   6.117  11.411   7.680 -2.5504  0.0933  1.5212
  318MOL0     H42897   6.110  11.241   7.724 -0.0326 -0.7548 -1.4351
  318MOL0     H42898   6.154  11.179   7.493  0.9507 -0.1444  2.0636
  318MOL0     H42899   6.143  11.348   7.435  0.4401  0.1285 -0.1399
  318MOL0     H42900   6.355  11.259   7.635 -0.4631 -2.2098 -0.2164
  318MOL0     H42901   6.342  11.415   7.551  0.8987  0.0082  0.1035
  318MOL0     H42902   6.389  11.338   7.341 -0.9992  2.0392  1.9999
  318MOL0     H42903   6.362  11.168   7.383  1.0969 -0.8762  1.3018
  318MOL0     H42904   6.558  11.174   7.537  0.0835 -4.1340 -1.3745
  318MOL0     H42905   6.581  11.182   7.357  0.1068  2.3037 -0.2507
  318MOL0     H42906   6.583  11.429   7.552  2.1105  0.6137  0.2266
  318MOL0     H42907   6.581  11.445   7.373  0.4308 -0.7214 -0.2851
  318MOL0     H42908   6.801  11.363   7.357  3.1921 -1.0438  1.7894
  318MOL0     H42909   6.805  11.498   7.472  0.6435  0.3044 -0.6720
  318MOL0     H42910   5.796  11.168   7.338 -0.7078  3.0735  0.3617
  318MOL0     H42911   5.572  11.109   7.288 -0.9358  2.0273  0.2912
  318MOL0     H42912   5.150  11.106   7.442  1.0022 -1.0576  1.0696
  318MOL0     H42913   4.937  11.110   7.342  0.0367 -1.2422  3.2278
  318MOL0     H42914   3.432   9.481   6.452 -1.9261 -0.2973  0.7183
  318MOL0     H42915   3.198   9.437   6.363 -0.2959  1.2589 -2.9348
  318MOL0     H42916   2.905   9.477   6.028  0.0647  0.7106  0.5464
  318MOL0     H42917   2.680   9.428   5.921 -0.9132 -0.1322  0.2549
  318MOL0     H42918   2.326   9.602   6.143 -1.1491 -0.6574  0.2391
  318MOL0     H42919   2.311   9.441   6.202 -4.0792  3.1754  1.5970
  318MOL0     H42920   2.196   9.370   6.006  0.0426  1.5367 -2.5698
  318MOL0     H42921   2.241   9.507   5.915  0.7815  0.6624  0.5950
  318MOL0     H42922   2.102   9.654   6.042  1.7961 -0.1830 -0.9432
  318MOL0     H42923   2.091   9.558   6.175 -0.8949  0.2359  0.7411
  318MOL0     H42924   1.957   9.492   5.902 -1.5171 -2.0783  0.1904
  318MOL0     H42925   1.952   9.386   6.046 -0.9264  0.3199  1.1634
  318MOL0     H42926   1.661   9.595   6.210  0.2482 -1.6367  0.2680
  318MOL0     H42927   2.494   9.530   6.288 -1.3252  0.9047 -0.8597
  318MOL0     H42928   2.596   9.595   6.461  0.6742 -1.1356  2.5127
  318MOL0     H42929   2.742   9.521   6.516 -1.9741 -1.0908  0.2983
  318MOL0     H42930   2.751   9.688   6.448  4.3842 -1.4796 -3.5241
  319MOL0     O42931   2.749   5.605   8.852  0.4308 -0.1527  0.0389
  319MOL0     C42932   2.695   5.713   8.883  0.0820  0.5563 -0.2037
  319MOL0     O42933   2.757   5.831   8.914 -0.6220 -0.1197 -0.2045
  319MOL0     C42934   2.893   5.834   8.947  0.1989 -0.5445 -0.2346
  319MOL0     C42935   3.005   5.801   8.866 -0.5244  0.5905  0.9973
  319MOL0     C42936   3.134   5.813   8.921 -1.3645  0.1237  0.3358
  319MOL0     C42937   3.154   5.844   9.057  1.0311 -0.3390 -0.1935
  319MOL0     O42938   3.276   5.841   9.116 -0.7191  0.3709 -0.9018
  319MOL0     C42939   3.357   5.736   9.082 -0.4560  0.7981 -0.0612
  319MOL0     C42940   3.483   5.773   8.999 -0.0717  0.0867 -0.3151
  319MOL0     C42941   3.588   5.838   9.083 -0.2091 -0.4643  0.0412
  319MOL0     C42942   3.702   5.902   9.005 -0.0667 -0.0280 -0.2253
  319MOL0     C42943   3.669   6.052   8.987 -0.3541  0.3951  0.2604
  319MOL0     C42944   3.802   6.102   8.928 -0.7446  0.2544 -0.7588
  319MOL0     C42945   3.793   6.254   8.890  0.1240 -0.4154  1.2376
  319MOL0     C42946   3.936   6.307   8.857 -0.4902 -0.3714  0.0434
  319MOL0     N42947   4.018   6.331   8.978  0.1740 -0.8587  0.1376
  319MOL0     C42948   3.983   6.427   9.072 -0.1533  0.6265  0.2226
  319MOL0     C42949   4.073   6.407   9.171 -0.3896 -0.0440  0.1569
  319MOL0     C42950   4.088   6.488   9.303 -0.5349 -0.9365  0.2889
  319MOL0     C42951   4.038   6.641   9.288  0.0198 -0.1908  0.1175
  319MOL0     C42952   4.039   6.711   9.423  0.3490 -1.0284 -0.5673
  319MOL0     C42953   4.175   6.721   9.489  0.8265  0.5911 -0.3455
  319MOL0     O42954   4.179   6.802   9.602  0.0929 -1.0023  0.4210
  319MOL0     C42955   4.299   6.815   9.667  0.2140 -0.2720 -0.1203
  319MOL0     C42956   4.297   6.861   9.798  0.6456 -0.0939 -0.1715
  319MOL0     C42957   4.415   6.872   9.876  0.8439  0.3757 -1.1466
  319MOL0     C42958   4.543   6.838   9.820  0.1533  0.5639 -0.2979
  319MOL0     C42959   4.671   6.852   9.900 -0.0444  0.4527 -0.2038
  319MOL0     O42960   4.789   6.816   9.842  0.2633 -0.3293 -0.5191
  319MOL0     C42961   4.905   6.818   9.904  0.9495 -0.2639 -0.5402
  319MOL0     C42962   5.018   6.849   9.826 -0.0300  0.1611  0.3668
  319MOL0     C42963   5.149   6.847   9.879 -1.0346  0.4641  0.9408
  319MOL0     C42964   5.171   6.825  10.012 -0.2806 -0.2962 -0.3861
  319MOL0     O42965   5.298   6.840  10.069  0.1409 -0.6216  1.1487
  319MOL0     C42966   5.319   6.874  10.204 -0.2065  1.1343  0.0684
  319MOL0     C42967   5.437   6.967  10.223  0.0964 -0.8634 -0.0985
  319MOL0     C42968   5.469   6.979  10.373 -0.2216  0.1717  0.1471
  319MOL0     C42969   5.598   7.068  10.375  0.1822 -0.5920 -0.1370
  319MOL0     C42970   5.726   6.984  10.378  1.5435 -0.2502 -0.0734
  319MOL0     C42971   5.854   7.069  10.365  0.4002  0.0141 -0.2868
  319MOL0     C42972   5.983   6.977  10.362 -0.1019 -0.1049  0.1282
  319MOL0     C42973   6.100   7.060  10.330 -0.3065 -0.2244  0.6366
  319MOL0    Cl42974   6.238   6.962  10.268 -0.1642  0.2549  0.2552
  319MOL0     C42975   5.063   6.797  10.098  0.0982 -0.3717  0.9919
  319MOL0     C42976   4.937   6.791  10.044 -0.0197 -0.1398 -0.0790
  319MOL0     O42977   4.654   6.912  10.005  0.0582  0.3701  0.0130
  319MOL0     C42978   4.540   6.797   9.685  0.1659  0.3115  0.3715
  319MOL0     C42979   4.422   6.785   9.608 -0.4866  0.1359  0.2693
  319MOL0     N42980   4.136   6.291   9.150 -0.2961 -0.5952 -0.0880
  319MOL0     N42981   4.105   6.243   9.041  0.0627 -0.1068  0.5074
  319MOL0     C42982   3.043   5.873   9.134  0.9551 -0.5407 -0.0894
  319MOL0     C42983   2.919   5.871   9.077  0.3906 -0.6687  0.7315
  319MOL0     C42984   2.550   5.716   8.856 -0.1192  1.3236 -1.0762
  319MOL0     C42985   2.489   5.840   8.866  0.9642 -0.5618 -0.6114
  319MOL0     C42986   2.348   5.851   8.835 -0.2558  0.0300  0.9711
  319MOL0     C42987   2.271   5.739   8.792  0.2420 -0.3909 -0.2251
  319MOL0     O42988   2.134   5.738   8.754  0.3165  0.3714 -0.7538
  319MOL0     C42989   2.059   5.863   8.774 -0.4313  0.4314  0.3782
  319MOL0     C42990   2.093   5.966   8.666 -0.2307  0.2117  0.2913
  319MOL0     C42991   2.034   6.100   8.674  0.6926  0.0697 -0.2772
  319MOL0     C42992   2.061   6.184   8.797  0.7467  0.0777 -0.9846
  319MOL0     C42993   2.202   6.217   8.794 -0.9108 -0.4816  0.2874
  319MOL0     C42994   2.319   6.230   8.814 -0.2827  0.2112 -0.1070
  319MOL0     C42995   2.340   5.623   8.784 -0.0315  0.0416  0.8837
  319MOL0     C42996   2.472   5.600   8.828 -0.2936 -0.3755  0.5358
  319MOL0     C42997   2.514   5.454   8.842 -0.4366  0.4134 -0.2217
  319MOL0     H42998   2.985   5.773   8.762 -3.2306  3.1982  0.6940
  319MOL0     H42999   3.219   5.790   8.858 -0.1465  3.0532  0.7547
  319MOL0     H43000   3.399   5.695   9.174 -0.5525 -1.9118 -1.1573
  319MOL0     H43001   3.301   5.653   9.040  1.5593 -0.6010 -0.1106
  319MOL0     H43002   3.454   5.847   8.923 -0.4059  1.2280  0.8871
  319MOL0     H43003   3.534   5.685   8.959  3.0085  1.8505 -0.6335
  319MOL0     H43004   3.633   5.771   9.156  1.3631 -0.5446 -0.9696
  319MOL0     H43005   3.536   5.901   9.156 -1.2650 -1.2858  0.0397
  319MOL0     H43006   3.792   5.887   9.064 -2.5269  0.5276  4.1357
  319MOL0     H43007   3.713   5.851   8.909  2.7116  0.9178 -0.4767
  319MOL0     H43008   3.596   6.057   8.905  1.1822 -0.6373 -1.2613
  319MOL0     H43009   3.650   6.115   9.073  2.6896  1.1360  0.4968
  319MOL0     H43010   3.880   6.086   9.003  0.0267  1.3786 -1.2876
  319MOL0     H43011   3.831   6.046   8.838 -3.1240 -1.8192 -0.3308
  319MOL0     H43012   3.745   6.309   8.972  0.6160 -1.4238  2.2219
  319MOL0     H43013   3.727   6.258   8.803  0.7920  1.2936  0.7591
  319MOL0     H43014   3.993   6.239   8.792  1.5322 -1.0090  2.3301
  319MOL0     H43015   3.932   6.398   8.795  0.3537 -1.4202 -1.6279
  319MOL0     H43016   3.907   6.504   9.064  0.0412  0.7944 -0.0544
  319MOL0     H43017   4.029   6.440   9.382  0.3236 -1.2257  0.7602
  319MOL0     H43018   4.194   6.486   9.327  0.0565  1.9170 -1.5975
  319MOL0     H43019   4.109   6.693   9.224  1.0429 -1.2902  0.3093
  319MOL0     H43020   3.937   6.651   9.247  0.2027  1.3170  0.0089
  319MOL0     H43021   3.974   6.654   9.491  1.1113 -1.4493 -0.1793
  319MOL0     H43022   3.994   6.811   9.423 -0.6249 -1.4493 -0.3155
  319MOL0     H43023   4.250   6.755   9.416  0.6985 -2.7029 -2.2196
  319MOL0     H43024   4.191   6.621   9.532 -0.7875  0.1823 -0.6067
  319MOL0     H43025   4.203   6.907   9.827 -0.3428 -1.2387 -1.4387
  319MOL0     H43026   4.418   6.908   9.978  2.6395  2.7135 -1.9329
  319MOL0     H43027   5.015   6.868   9.719  2.1323  2.1034  0.5629
  319MOL0     H43028   5.237   6.835   9.817 -0.7203 -1.7745  1.7347
  319MOL0     H43029   5.235   6.913  10.263 -0.1607 -0.0131  0.9458
  319MOL0     H43030   5.333   6.776  10.252 -2.6920 -0.0424 -1.3791
  319MOL0     H43031   5.519   6.922  10.166 -0.0312 -1.2024 -0.0169
  319MOL0     H43032   5.413   7.064  10.178 -3.1038 -1.1098  0.8465
  319MOL0     H43033   5.380   7.028  10.416  1.4856  2.3775  1.4383
  319MOL0     H43034   5.480   6.885  10.427  2.9843  0.5435  0.3253
  319MOL0     H43035   5.597   7.121  10.471 -1.7278  0.7540 -0.8504
  319MOL0     H43036   5.591   7.141  10.294 -1.0543  2.3031  2.3660
  319MOL0     H43037   5.735   6.917  10.293 -1.1772 -3.0059  1.5804
  319MOL0     H43038   5.728   6.918  10.466  0.6259 -1.9195 -1.2597
  319MOL0     H43039   5.858   7.114  10.266  1.3945  0.0577 -0.2370
  319MOL0     H43040   5.845   7.148  10.440 -2.2700  1.3427 -1.8361
  319MOL0     H43041   5.974   6.905  10.281  2.0273 -1.2251  0.8124
  319MOL0     H43042   6.000   6.931  10.460 -0.3434  0.7511  0.5901
  319MOL0     H43043   6.077   7.135  10.254 -0.6714 -0.0106  0.9561
  319MOL0     H43044   6.119   7.128  10.413 -1.8083  1.5143 -0.3593
  319MOL0     H43045   5.089   6.762  10.197  1.4805 -1.6755  0.2119
  319MOL0     H43046   4.863   6.756  10.116  0.0288  2.0733  1.1390
  319MOL0     H43047   4.631   6.755   9.642 -1.2476  0.7691 -3.4158
  319MOL0     H43048   4.429   6.753   9.505 -0.2238 -1.9395  0.8732
  319MOL0     H43049   3.047   5.900   9.239 -0.1275  3.2412 -0.8699
  319MOL0     H43050   2.836   5.914   9.132  0.2759  0.7579 -0.4871
  319MOL0     H43051   2.545   5.929   8.894  0.9130 -0.2082 -1.5851
  319MOL0     H43052   2.309   5.951   8.846 -0.6329  0.0443 -0.3808
  319MOL0     H43053   2.076   5.900   8.876 -0.0884 -0.7209  0.7519
  319MOL0     H43054   1.954   5.832   8.772 -0.9192  2.0361 -1.2746
  319MOL0     H43055   2.065   5.909   8.577  1.4064 -1.1020  0.5832
  319MOL0     H43056   2.201   5.976   8.653 -0.2206 -0.9974 -0.7680
  319MOL0     H43057   1.925   6.093   8.673  0.5566  1.7315 -0.0882
  319MOL0     H43058   2.075   6.156   8.589  2.6780 -0.3430  0.3591
  319MOL0     H43059   1.999   6.274   8.804  0.6804  0.0482 -1.1968
  319MOL0     H43060   2.029   6.128   8.885 -1.4137 -0.8725 -2.2978
  319MOL0     H43061   2.424   6.239   8.835 -0.4644 -2.2110  2.4435
  319MOL0     H43062   2.278   5.540   8.752  1.4154 -0.9497  0.5148
  319MOL0     H43063   2.553   5.417   8.747 -2.5398 -1.6130 -0.3805
  319MOL0     H43064   2.586   5.450   8.925 -2.0676  0.0643  1.2398
  319MOL0     H43065   2.434   5.385   8.870 -1.0220  1.9228  2.1031
  320MOL0     O43066   3.997   3.087   6.003 -0.3442 -0.4513 -0.4378
  320MOL0     C43067   3.941   2.987   5.958 -1.0214  0.1233  0.6294
  320MOL0     O43068   4.008   2.873   5.924  0.0225 -0.0541  0.8292
  320MOL0     C43069   4.148   2.877   5.944  0.6784 -0.5761  0.3383
  320MOL0     C43070   4.204   2.854   6.069  0.8881  0.0521  0.3816
  320MOL0     C43071   4.344   2.844   6.087  0.4538  0.0054 -0.3613
  320MOL0     C43072   4.428   2.872   5.974  0.0380 -0.4860  0.4490
  320MOL0     O43073   4.566   2.884   5.986 -0.0351  0.1973  0.0176
  320MOL0     C43074   4.621   2.857   6.114 -0.1812 -0.5663  0.0813
  320MOL0     C43075   4.776   2.876   6.115  0.4964 -0.2721  0.0669
  320MOL0     C43076   4.836   3.019   6.086  0.3065 -0.3473  0.1000
  320MOL0     C43077   4.751   3.131   6.138  0.0342 -0.2884  0.2786
  320MOL0     C43078   4.799   3.273   6.088 -0.1728  0.9330  0.6545
  320MOL0     C43079   4.922   3.316   6.152  0.5248  0.4615 -0.7948
  320MOL0     C43080   4.972   3.448   6.096 -0.3656  0.3886 -0.1647
  320MOL0     C43081   5.099   3.486   6.168 -0.2935 -0.1129 -0.1221
  320MOL0     N43082   5.150   3.625   6.144  0.6125 -0.8995 -0.1327
  320MOL0     C43083   5.075   3.721   6.077  0.8850  0.0976  0.3109
  320MOL0     C43084   5.154   3.828   6.108  0.3997 -1.2095  0.8221
  320MOL0     C43085   5.125   3.971   6.050  0.2311 -0.3325 -0.0011
  320MOL0     C43086   5.240   4.023   5.970  0.3035  0.0756 -0.1884
  320MOL0     C43087   5.220   4.155   5.900  0.1977  0.1327  0.5181
  320MOL0     C43088   5.352   4.206   5.851  0.2947  0.1542 -0.4065
  320MOL0     O43089   5.427   4.111   5.760  0.4889  0.1149  0.2619
  320MOL0     C43090   5.558   4.139   5.723  0.5552 -0.0479 -0.6993
  320MOL0     C43091   5.633   4.032   5.673 -0.2514 -0.0333  0.1626
  320MOL0     C43092   5.767   4.050   5.634 -0.7687  0.2060 -1.1123
  320MOL0     C43093   5.828   4.177   5.642  0.0433  0.0912  0.4456
  320MOL0     C43094   5.967   4.204   5.602 -0.5135 -0.3930  0.7411
  320MOL0     O43095   6.038   4.091   5.551 -0.9152 -0.0106  0.0701
  320MOL0     C43096   6.169   4.104   5.537 -1.1051  0.1486  1.2232
  320MOL0     C43097   6.222   4.072   5.410  0.1690 -0.4986  0.1251
  320MOL0     C43098   6.357   4.068   5.391 -0.2782  0.8251 -0.1142
  320MOL0     C43099   6.444   4.101   5.492 -0.5558  1.0437  0.4073
  320MOL0     O43100   6.585   4.091   5.475 -0.3301  0.2061 -0.7102
  320MOL0     C43101   6.617   4.174   5.365  0.4468  0.8455  0.2064
  320MOL0     C43102   6.760   4.212   5.363  0.3714 -0.3390  0.0617
  320MOL0     C43103   6.852   4.114   5.283  0.2231  0.3251 -0.2272
  320MOL0     C43104   6.993   4.123   5.339  0.3498 -0.4424  0.5656
  320MOL0     C43105   7.069   4.006   5.281 -0.4254 -0.8188  0.2577
  320MOL0     C43106   7.208   4.012   5.340  0.2958 -0.0191 -0.2926
  320MOL0     C43107   7.308   3.931   5.274 -0.6779  0.4408 -0.0051
  320MOL0     C43108   7.266   3.786   5.293  0.1250  0.2123 -0.2662
  320MOL0    Cl43109   7.385   3.683   5.200  0.0135 -0.0704  0.0941
  320MOL0     C43110   6.390   4.136   5.619  0.0332  0.3391  0.4165
  320MOL0     C43111   6.257   4.126   5.645 -0.4974 -0.0080 -0.5575
  320MOL0     O43112   6.015   4.312   5.645 -0.6640  0.1968  0.0917
  320MOL0     C43113   5.748   4.279   5.694  0.2068  0.5289 -0.6711
  320MOL0     C43114   5.614   4.263   5.735 -0.4535 -0.2378  0.6994
  320MOL0     N43115   5.268   3.792   6.179 -0.1494 -0.8353 -0.4607
  320MOL0     N43116   5.269   3.666   6.192  0.7596  0.1979 -0.5088
  320MOL0     C43117   4.373   2.875   5.844  0.0561  0.0504  0.3203
  320MOL0     C43118   4.233   2.889   5.833 -0.4267  0.1538 -0.4411
  320MOL0     C43119   3.800   2.992   5.905  1.0292 -0.7150  0.1276
  320MOL0     C43120   3.758   2.910   5.796  0.6527 -0.4722  0.3327
  320MOL0     C43121   3.626   2.915   5.746 -0.4456  0.3816  0.2272
  320MOL0     C43122   3.524   2.992   5.813 -0.6467  0.2272 -0.0024
  320MOL0     O43123   3.396   2.994   5.756  0.9124  0.0257 -0.1159
  320MOL0     C43124   3.284   3.050   5.832  0.9074 -0.5923 -0.1885
  320MOL0     C43125   3.159   3.040   5.753  0.2622  0.8935  0.8338
  320MOL0     C43126   3.031   3.077   5.829 -0.1090  0.0160 -0.9980
  320MOL0     C43127   2.917   2.988   5.787  0.5236  0.7487 -0.6631
  320MOL0     C43128   2.870   2.999   5.649 -0.8438  0.7490  0.6357
  320MOL0     C43129   2.860   3.003   5.527  0.9689 -0.0257 -0.3355
  320MOL0     C43130   3.564   3.055   5.937  0.0970 -0.0640 -0.3950
  320MOL0     C43131   3.699   3.052   5.977 -0.2883  0.0929 -0.5949
  320MOL0     C43132   3.719   3.095   6.131 -0.4654  0.6440  0.1558
  320MOL0     H43133   4.138   2.829   6.151 -1.9773 -1.3748 -2.1507
  320MOL0     H43134   4.372   2.813   6.187 -1.6439 -0.5152  0.1066
  320MOL0     H43135   4.579   2.933   6.181 -0.2080 -0.2916 -0.2416
  320MOL0     H43136   4.601   2.756   6.151 -1.0059 -0.9466 -1.2916
  320MOL0     H43137   4.814   2.803   6.044  1.0775 -0.3529  0.4540
  320MOL0     H43138   4.808   2.846   6.215 -0.1363  0.3310  0.4626
  320MOL0     H43139   4.853   3.038   5.979 -0.8151 -0.1763 -0.0628
  320MOL0     H43140   4.935   3.017   6.132  0.8931 -5.0630 -0.8778
  320MOL0     H43141   4.649   3.134   6.100  0.1602  1.2735 -0.0154
  320MOL0     H43142   4.760   3.133   6.247 -1.7254  0.6027  0.4376
  320MOL0     H43143   4.817   3.279   5.980 -2.3622 -0.2812  0.1652
  320MOL0     H43144   4.721   3.346   6.112  2.1596  3.0999  2.0884
  320MOL0     H43145   4.896   3.330   6.258  1.1599  2.2148 -0.8522
  320MOL0     H43146   5.000   3.240   6.146  0.3518  0.1985  0.1299
  320MOL0     H43147   4.895   3.525   6.110  0.2469  1.6967 -3.2273
  320MOL0     H43148   4.986   3.439   5.988 -1.0734 -0.0419 -0.2303
  320MOL0     H43149   5.083   3.467   6.275 -0.7169 -1.5320 -0.4059
  320MOL0     H43150   5.189   3.429   6.143 -0.0604  1.2091 -2.5983
  320MOL0     H43151   4.989   3.702   6.014  0.7557 -2.2614  1.0939
  320MOL0     H43152   5.031   3.972   5.994  0.2925  2.6555 -0.2348
  320MOL0     H43153   5.117   4.042   6.133  4.1093  1.0204 -0.5696
  320MOL0     H43154   5.335   4.022   6.026 -0.9594  1.1292  2.1060
  320MOL0     H43155   5.250   3.938   5.902 -1.0391 -2.2876  2.3464
  320MOL0     H43156   5.183   4.226   5.975 -0.8666  0.9722 -0.7463
  320MOL0     H43157   5.157   4.165   5.811  2.4136  2.6020 -0.9470
  320MOL0     H43158   5.416   4.238   5.933  1.9920  0.7362 -1.8786
  320MOL0     H43159   5.321   4.297   5.798 -1.4706  1.0566  2.0034
  320MOL0     H43160   5.585   3.935   5.684 -2.0016  0.9542  1.9288
  320MOL0     H43161   5.825   3.963   5.606  1.0250  0.8311  0.4495
  320MOL0     H43162   6.149   4.040   5.336  0.3592 -0.8873  0.1038
  320MOL0     H43163   6.388   4.024   5.297  1.4110 -1.0184  1.2356
  320MOL0     H43164   6.599   4.135   5.264  4.3642  0.1104 -0.3972
  320MOL0     H43165   6.567   4.271   5.374  1.0583  1.0675  1.4459
  320MOL0     H43166   6.767   4.310   5.315 -1.4449  1.5316  3.2556
  320MOL0     H43167   6.786   4.216   5.469  0.0894  0.3507  0.1084
  320MOL0     H43168   6.804   4.017   5.299 -1.4081  1.5876  3.7323
  320MOL0     H43169   6.866   4.133   5.176  5.3789 -0.3853  0.0630
  320MOL0     H43170   6.994   4.120   5.448 -0.9307  0.1062  0.5986
  320MOL0     H43171   7.036   4.221   5.318  1.2381 -0.7463  0.8694
  320MOL0     H43172   7.078   4.002   5.172  0.0906 -0.0370  0.2612
  320MOL0     H43173   7.023   3.912   5.310 -2.2487 -0.5238 -1.4611
  320MOL0     H43174   7.247   4.114   5.334  2.7384 -0.8386  0.7313
  320MOL0     H43175   7.196   3.972   5.441  0.9696 -4.3204 -1.7198
  320MOL0     H43176   7.399   3.953   5.330 -0.0168  1.8946 -1.5582
  320MOL0     H43177   7.330   3.960   5.170  0.0793  1.6639  0.4726
  320MOL0     H43178   7.277   3.756   5.397  0.8751 -1.8671 -0.8917
  320MOL0     H43179   7.163   3.772   5.258 -0.4868 -0.7939  1.7965
  320MOL0     H43180   6.469   4.146   5.693  1.1650 -0.3695 -0.6650
  320MOL0     H43181   6.210   4.140   5.742 -1.1025  1.8100 -1.0782
  320MOL0     H43182   5.791   4.378   5.706  3.4976 -0.7689 -0.8046
  320MOL0     H43183   5.552   4.346   5.768 -0.3798  0.3617 -0.6009
  320MOL0     H43184   4.443   2.888   5.762  1.9360  1.8767  2.0680
  320MOL0     H43185   4.198   2.908   5.732 -0.3292  1.6211 -0.2295
  320MOL0     H43186   3.831   2.843   5.751  0.0657 -0.6001 -0.4349
  320MOL0     H43187   3.601   2.847   5.665  0.3623  1.5572 -1.0328
  320MOL0     H43188   3.303   3.151   5.870 -0.2994  0.0811 -1.3100
  320MOL0     H43189   3.276   2.991   5.924  1.1260 -1.6608 -0.8380
  320MOL0     H43190   3.150   2.935   5.723  0.0421  0.9715  0.6252
  320MOL0     H43191   3.178   3.108   5.670 -0.2647  3.7835  2.9193
  320MOL0     H43192   2.995   3.178   5.806 -2.8374 -0.9977 -1.5528
  320MOL0     H43193   3.059   3.076   5.935  2.3659 -2.8681 -1.5529
  320MOL0     H43194   2.942   2.884   5.809 -1.5808  0.3949  0.3350
  320MOL0     H43195   2.835   3.002   5.858 -1.8304  0.2520 -3.1157
  320MOL0     H43196   2.875   2.992   5.422  1.1013  0.4549 -0.3695
  320MOL0     H43197   3.490   3.110   5.994 -0.7182  1.2626 -2.6026
  320MOL0     H43198   3.778   3.020   6.184 -3.1643 -1.3211  0.5816
  320MOL0     H43199   3.764   3.195   6.140 -0.8879  0.9580 -0.9959
  320MOL0     H43200   3.627   3.110   6.187 -0.9326  1.1457 -0.7319
  321MOL0     O43201   1.778   7.887   2.387 -0.4319  0.5081  0.3393
  321MOL0     C43202   1.669   7.836   2.361  0.0277  0.7779 -0.2009
  321MOL0     O43203   1.640   7.714   2.304 -0.1326  1.0687 -0.0946
  321MOL0     C43204   1.739   7.660   2.225 -0.9938  0.2788 -0.0298
  321MOL0     C43205   1.776   7.702   2.092 -0.1289 -0.6803  0.3995
  321MOL0     C43206   1.879   7.636   2.030 -0.7229 -0.2484 -0.4580
  321MOL0     C43207   1.964   7.543   2.091  0.5488 -0.4862 -0.2026
  321MOL0     O43208   2.076   7.495   2.036  0.5397  0.2564 -0.7466
  321MOL0     C43209   2.083   7.487   1.899  0.3098  0.6075 -0.9030
  321MOL0     C43210   2.179   7.376   1.852  0.2015  0.3925  0.5875
  321MOL0     C43211   2.327   7.412   1.860  0.2674 -0.1647  0.3421
  321MOL0     C43212   2.381   7.476   1.741  0.7113  0.7306  0.1745
  321MOL0     C43213   2.529   7.484   1.728 -0.0151  0.6491 -0.3945
  321MOL0     C43214   2.570   7.627   1.703  0.0903 -0.5207 -0.5851
  321MOL0     C43215   2.714   7.638   1.672 -0.9671 -0.7329 -0.3552
  321MOL0     C43216   2.762   7.778   1.622  0.2971  0.8269  0.1489
  321MOL0     N43217   2.890   7.791   1.556 -0.0599  0.4704 -0.1716
  321MOL0     C43218   2.915   7.720   1.446  0.1464 -0.2599  1.2041
  321MOL0     C43219   3.034   7.775   1.400  0.5545 -0.1959 -0.1505
  321MOL0     C43220   3.114   7.721   1.281 -0.1940 -0.3760  0.0837
  321MOL0     C43221   3.144   7.569   1.279  0.8705 -0.5759  0.6065
  321MOL0     C43222   3.217   7.532   1.404  1.2628 -0.3255  0.0753
  321MOL0     C43223   3.353   7.598   1.421 -0.4036 -0.4164 -0.9734
  321MOL0     O43224   3.435   7.545   1.312  0.4042  0.1785  0.0401
  321MOL0     C43225   3.564   7.595   1.298  0.2015  0.5520  0.0213
  321MOL0     C43226   3.650   7.518   1.225 -0.0243 -0.0151  0.2714
  321MOL0     C43227   3.791   7.545   1.208  0.6283 -0.9572 -0.6845
  321MOL0     C43228   3.846   7.667   1.262 -1.1586  0.5013 -0.5767
  321MOL0     C43229   3.990   7.687   1.271  0.2394 -0.0714  0.0034
  321MOL0     O43230   4.026   7.812   1.318  0.2012 -0.0938 -0.6605
  321MOL0     C43231   4.152   7.852   1.328 -0.6273  0.1730  0.4811
  321MOL0     C43232   4.236   7.857   1.217  0.0540 -0.1907  0.3940
  321MOL0     C43233   4.377   7.875   1.223  0.0065 -0.5469 -0.5190
  321MOL0     C43234   4.430   7.904   1.347  0.1360 -0.7182 -0.4852
  321MOL0     O43235   4.564   7.938   1.364  0.7594  0.5184 -0.3697
  321MOL0     C43236   4.654   7.913   1.256  0.3973  0.2822  0.5428
  321MOL0     C43237   4.787   7.981   1.302 -0.6738 -0.7041 -1.0249
  321MOL0     C43238   4.878   7.978   1.184 -1.4979  0.3963  0.6060
  321MOL0     C43239   5.022   7.972   1.238 -0.1475 -0.3369  0.1433
  321MOL0     C43240   5.121   7.956   1.125  0.5948  0.4373 -0.1993
  321MOL0     C43241   5.261   7.955   1.165 -0.3416 -0.6605 -0.4313
  321MOL0     C43242   5.345   7.941   1.045  0.2834 -0.1991 -0.7051
  321MOL0     C43243   5.495   7.929   1.076 -0.1540 -0.3892  0.2279
  321MOL0    Cl43244   5.607   7.956   0.930  0.3324 -0.1180  0.2524
  321MOL0     C43245   4.342   7.910   1.459 -0.3388  0.5114 -0.3177
  321MOL0     C43246   4.209   7.882   1.450  0.5970  0.0537  0.2085
  321MOL0     O43247   4.065   7.597   1.228 -0.3164 -0.0629  0.0384
  321MOL0     C43248   3.751   7.756   1.321 -0.4944 -0.8024 -0.2611
  321MOL0     C43249   3.614   7.720   1.344 -0.2026 -0.2067  0.0103
  321MOL0     N43250   3.084   7.868   1.485 -0.4862 -0.3668  0.0519
  321MOL0     N43251   2.990   7.880   1.585 -0.1863  0.3178  0.8465
  321MOL0     C43252   1.939   7.513   2.227 -0.2696  1.2302 -0.4962
  321MOL0     C43253   1.828   7.569   2.300 -0.9088 -0.3042  0.4786
  321MOL0     C43254   1.556   7.908   2.417 -0.6136 -0.8956 -0.2390
  321MOL0     C43255   1.452   7.843   2.475  0.2781 -0.0739  0.2771
  321MOL0     C43256   1.331   7.900   2.524 -0.4378  0.6072 -0.1022
  321MOL0     C43257   1.304   8.037   2.495  0.3099  0.2931  0.4240
  321MOL0     O43258   1.183   8.082   2.537 -0.5839  0.9985  0.3334
  321MOL0     C43259   1.153   8.222   2.532  0.2805  0.7329 -0.4567
  321MOL0     C43260   1.005   8.258   2.572  0.2725  0.4702  0.2051
  321MOL0     C43261   0.903   8.211   2.468 -0.3248  0.9844 -0.2923
  321MOL0     C43262   0.895   8.298   2.341  0.0247  0.0555  0.0781
  321MOL0     C43263   0.777   8.261   2.259 -0.2191 -0.3511  0.3825
  321MOL0     C43264   0.687   8.223   2.187 -0.2940 -0.0520  0.4082
  321MOL0     C43265   1.415   8.110   2.433  0.3226  0.0820 -0.3543
  321MOL0     C43266   1.540   8.049   2.398  0.3671 -0.7435  0.5645
  321MOL0     C43267   1.650   8.138   2.330 -0.2257 -0.4163 -0.3427
  321MOL0     H43268   1.723   7.789   2.054  0.1522 -1.5116 -2.0927
  321MOL0     H43269   1.907   7.680   1.935  1.0527 -0.7640 -0.2106
  321MOL0     H43270   1.987   7.454   1.859  0.2960 -0.1392 -0.2881
  321MOL0     H43271   2.115   7.576   1.845 -0.1350  0.2367 -1.8073
  321MOL0     H43272   2.154   7.338   1.752 -0.5460  2.7930 -0.2052
  321MOL0     H43273   2.166   7.294   1.923 -1.0655 -1.1558 -1.2927
  321MOL0     H43274   2.378   7.317   1.881  0.2132 -0.8717 -2.3766
  321MOL0     H43275   2.356   7.475   1.944 -1.9233 -1.8496  2.5174
  321MOL0     H43276   2.345   7.423   1.652  2.2158 -0.4921  0.2479
  321MOL0     H43277   2.335   7.575   1.731 -2.1842 -0.5195 -0.0425
  321MOL0     H43278   2.569   7.446   1.822  0.6597  2.6334  0.1611
  321MOL0     H43279   2.557   7.418   1.645 -0.6072 -0.2104  0.0756
  321MOL0     H43280   2.513   7.668   1.619 -1.2645  0.7746  0.9220
  321MOL0     H43281   2.545   7.685   1.792 -0.5062  2.1302 -2.3626
  321MOL0     H43282   2.735   7.557   1.601 -1.1690  0.2638 -1.5860
  321MOL0     H43283   2.773   7.624   1.763 -0.1024 -1.4303 -1.0043
  321MOL0     H43284   2.687   7.817   1.552 -1.8392  0.4222  2.0860
  321MOL0     H43285   2.770   7.841   1.712  2.7370 -0.1176  0.6700
  321MOL0     H43286   2.846   7.647   1.404 -1.2503  1.2553  0.7798
  321MOL0     H43287   3.061   7.738   1.187 -0.8922 -0.6494  0.4169
  321MOL0     H43288   3.207   7.775   1.263 -0.1907 -0.3724  0.1106
  321MOL0     H43289   3.047   7.520   1.268 -0.4610  2.2308 -1.3425
  321MOL0     H43290   3.207   7.536   1.195  1.6333 -1.6607  1.5785
  321MOL0     H43291   3.223   7.422   1.402 -0.6480 -0.4681  0.7231
  321MOL0     H43292   3.161   7.556   1.494 -0.0539 -0.7989 -0.5994
  321MOL0     H43293   3.395   7.572   1.518 -0.5880 -0.3591 -0.8785
  321MOL0     H43294   3.336   7.706   1.416 -2.1671 -0.6811 -1.5911
  321MOL0     H43295   3.614   7.429   1.173  1.6293  1.0503 -2.9822
  321MOL0     H43296   3.856   7.470   1.164  1.6402  0.0113 -0.8723
  321MOL0     H43297   4.188   7.842   1.120  0.5246 -1.3259  0.3225
  321MOL0     H43298   4.435   7.863   1.132  0.1122 -0.3045 -0.4834
  321MOL0     H43299   4.674   7.810   1.226 -0.2471 -0.0672  1.2763
  321MOL0     H43300   4.622   7.975   1.172 -0.9750 -0.3837  0.5486
  321MOL0     H43301   4.760   8.079   1.342  0.6340 -1.4715  2.0187
  321MOL0     H43302   4.829   7.922   1.383 -1.1652  0.5837  0.2033
  321MOL0     H43303   4.865   7.885   1.127 -0.8669 -0.7087  2.2037
  321MOL0     H43304   4.861   8.062   1.116 -0.1430  0.1989 -0.0199
  321MOL0     H43305   5.046   7.885   1.300 -0.3165  1.0762  2.2680
  321MOL0     H43306   5.046   8.059   1.299 -1.1979  1.1870 -1.5163
  321MOL0     H43307   5.105   8.035   1.051  0.1221  0.2922 -0.2569
  321MOL0     H43308   5.106   7.859   1.077  0.6830  1.0654 -1.5442
  321MOL0     H43309   5.286   8.047   1.219 -0.9489 -1.8405  2.0186
  321MOL0     H43310   5.282   7.877   1.239  1.0003  1.7118  1.8775
  321MOL0     H43311   5.332   8.034   0.988  0.3752 -0.0996 -0.5630
  321MOL0     H43312   5.317   7.851   0.990 -2.1834  0.6087 -0.9140
  321MOL0     H43313   5.522   7.983   1.167 -2.2084 -0.5537  0.9900
  321MOL0     H43314   5.519   7.829   1.115  1.8590  0.3707  1.0247
  321MOL0     H43315   4.371   7.947   1.558  1.1201  2.1902 -1.3023
  321MOL0     H43316   4.152   7.873   1.542  0.1434 -0.2768 -0.0990
  321MOL0     H43317   3.781   7.856   1.350 -2.1604  0.1538 -1.6791
  321MOL0     H43318   3.556   7.797   1.393 -0.8291 -0.9532  0.4603
  321MOL0     H43319   2.009   7.456   2.288 -1.4051  0.3996  0.0778
  321MOL0     H43320   1.810   7.539   2.403 -0.9360 -0.4014  0.4455
  321MOL0     H43321   1.465   7.736   2.485 -1.7985 -0.4298 -0.2987
  321MOL0     H43322   1.254   7.847   2.577 -0.2069  1.7409  1.4319
  321MOL0     H43323   1.166   8.256   2.428 -0.4293  1.0625 -0.4459
  321MOL0     H43324   1.222   8.286   2.589 -1.2747  0.8917  1.3380
  321MOL0     H43325   1.000   8.365   2.592  0.1601 -0.2082  4.8084
  321MOL0     H43326   0.988   8.201   2.664  0.5797 -1.5877 -0.9542
  321MOL0     H43327   0.803   8.197   2.512 -0.2001 -0.9565 -0.5434
  321MOL0     H43328   0.931   8.113   2.430 -3.5283 -1.1160  2.2196
  321MOL0     H43329   0.893   8.400   2.382 -0.8155  0.1515 -0.1840
  321MOL0     H43330   0.982   8.291   2.277  0.9637  0.3925  1.2716
  321MOL0     H43331   0.612   8.171   2.131  1.4244 -1.9063 -0.2942
  321MOL0     H43332   1.416   8.218   2.419 -0.0539  0.2620  0.8322
  321MOL0     H43333   1.727   8.165   2.403  0.5245 -0.0269 -1.2484
  321MOL0     H43334   1.698   8.086   2.246  1.4832  0.5021  0.0137
  321MOL0     H43335   1.613   8.234   2.293  1.2346 -0.2184 -1.3712
  322MOL0     O43336   5.223   9.648   5.714 -0.1466  0.5771 -0.4947
  322MOL0     C43337   5.189   9.709   5.815 -0.5527 -0.2995 -0.1267
  322MOL0     O43338   5.059   9.737   5.856 -0.5376  0.0154 -0.5024
  322MOL0     C43339   4.958   9.691   5.778 -1.1643 -0.3849 -0.4617
  322MOL0     C43340   4.943   9.555   5.753  0.5304  0.1701 -0.3167
  322MOL0     C43341   4.825   9.512   5.689  0.3600  0.4300  0.8011
  322MOL0     C43342   4.733   9.604   5.646  0.6227 -0.2695 -0.0214
  322MOL0     O43343   4.621   9.560   5.575 -0.1701  0.0202 -0.1572
  322MOL0     C43344   4.541   9.659   5.503 -0.8582  0.3926 -0.3111
  322MOL0     C43345   4.423   9.585   5.431 -0.0619 -0.0287 -0.1151
  322MOL0     C43346   4.469   9.475   5.336 -0.2440  0.4071 -0.2894
  322MOL0     C43347   4.356   9.396   5.265  0.1053  0.1671 -0.1471
  322MOL0     C43348   4.387   9.243   5.238 -0.2809  0.6935 -0.1886
  322MOL0     C43349   4.398   9.159   5.362 -0.1415 -0.0493  0.2489
  322MOL0     C43350   4.471   9.026   5.316 -0.2244  0.3121 -0.6701
  322MOL0     C43351   4.364   8.926   5.259 -1.0542  0.2407  0.6261
  322MOL0     N43352   4.292   8.961   5.139  0.0475  0.4024  0.0844
  322MOL0     C43353   4.353   8.955   5.014  0.0274 -1.1428 -0.1786
  322MOL0     C43354   4.257   8.996   4.922 -0.4302  0.8826 -0.9731
  322MOL0     C43355   4.268   9.036   4.784  0.1946  0.1485 -0.1171
  322MOL0     C43356   4.240   9.192   4.761 -0.0602 -0.1583  0.3608
  322MOL0     C43357   4.331   9.280   4.846 -0.1611  0.1566  0.2010
  322MOL0     C43358   4.465   9.303   4.785 -0.2044  0.7251 -0.2303
  322MOL0     O43359   4.545   9.364   4.884  0.7952  0.4522 -0.4245
  322MOL0     C43360   4.671   9.381   4.853  0.7015 -0.3007 -0.2000
  322MOL0     C43361   4.742   9.414   4.962  1.0176 -0.0183 -0.1445
  322MOL0     C43362   4.879   9.434   4.945  1.3306 -0.5856 -0.3214
  322MOL0     C43363   4.942   9.422   4.825 -0.6190  0.8909  0.4200
  322MOL0     C43364   5.089   9.451   4.804  0.6067 -0.1058  0.4559
  322MOL0     O43365   5.146   9.436   4.685  0.3761 -0.0834 -0.1500
  322MOL0     C43366   5.286   9.441   4.673  0.2867 -0.2617 -0.1097
  322MOL0     C43367   5.366   9.535   4.743 -0.1824 -0.7490 -0.2573
  322MOL0     C43368   5.501   9.555   4.736 -0.3940  0.6293  0.9091
  322MOL0     C43369   5.581   9.468   4.657  0.9685  0.3589  0.5230
  322MOL0     O43370   5.723   9.470   4.646  0.3250 -0.2865 -0.4614
  322MOL0     C43371   5.790   9.514   4.765 -0.2939 -0.1262  0.2800
  322MOL0     C43372   5.946   9.488   4.759 -0.4235  0.1459 -0.0857
  322MOL0     C43373   6.018   9.558   4.865 -1.1532 -0.2831  0.3549
  322MOL0     C43374   6.175   9.543   4.844 -0.9105  0.6813  0.0274
  322MOL0     C43375   6.249   9.601   4.968  0.2643  0.5408  0.8626
  322MOL0     C43376   6.402   9.576   4.956  0.1814  0.1559 -0.0183
  322MOL0     C43377   6.480   9.607   5.086 -0.0976  1.1966 -0.0706
  322MOL0     C43378   6.628   9.616   5.062  0.0243  0.0511  0.3125
  322MOL0    Cl43379   6.659   9.768   4.979  0.1427  0.6761 -0.0582
  322MOL0     C43380   5.497   9.367   4.585 -0.9224  0.5677 -0.5336
  322MOL0     C43381   5.355   9.357   4.589  0.1288 -0.4278 -0.7017
  322MOL0     O43382   5.152   9.489   4.904 -0.4378 -0.0814  0.0097
  322MOL0     C43383   4.865   9.390   4.712 -0.5173 -0.1809 -0.1214
  322MOL0     C43384   4.727   9.369   4.727  0.0571 -0.1213  0.4870
  322MOL0     N43385   4.135   8.998   4.990 -0.6276 -0.0648  0.2236
  322MOL0     N43386   4.158   8.984   5.119 -0.3728  0.4944 -0.0194
  322MOL0     C43387   4.756   9.740   5.685  0.6136 -0.2184 -0.0641
  322MOL0     C43388   4.868   9.790   5.743 -0.5873  0.3738 -0.2582
  322MOL0     C43389   5.302   9.768   5.889  0.6888 -0.5838 -1.1174
  322MOL0     C43390   5.307   9.730   6.023  0.7967 -0.3050  0.4641
  322MOL0     C43391   5.416   9.767   6.101 -0.3967 -0.1938 -0.1846
  322MOL0     C43392   5.533   9.827   6.049  0.0678  0.2077  0.0774
  322MOL0     O43393   5.638   9.879   6.121 -0.2824  0.4324  0.1650
  322MOL0     C43394   5.639   9.851   6.260  0.4554  0.1828  0.2004
  322MOL0     C43395   5.756   9.912   6.330 -0.2820  0.2292 -0.4441
  322MOL0     C43396   5.891   9.863   6.288 -0.2618  0.4573 -0.3655
  322MOL0     C43397   5.994   9.960   6.358  0.1909  0.4164  0.2790
  322MOL0     C43398   6.129   9.920   6.330  0.5633  0.2207  0.5113
  322MOL0     C43399   6.240   9.889   6.304 -0.1364  0.5096  0.6615
  322MOL0     C43400   5.524   9.855   5.912 -0.0392  0.0712 -0.3501
  322MOL0     C43401   5.414   9.827   5.832  0.4816 -0.2167  0.3626
  322MOL0     C43402   5.428   9.870   5.685 -0.1911  1.3627 -0.3233
  322MOL0     H43403   5.016   9.477   5.775 -0.1168 -0.9251 -1.9081
  322MOL0     H43404   4.800   9.407   5.682  0.3962  0.5157 -1.0681
  322MOL0     H43405   4.496   9.737   5.565 -0.5113 -0.0977  0.5811
  322MOL0     H43406   4.604   9.710   5.429 -1.0294 -0.1536 -0.8372
  322MOL0     H43407   4.354   9.651   5.378 -0.8641 -0.2283  0.6433
  322MOL0     H43408   4.360   9.545   5.512  0.0781  0.9497  0.5028
  322MOL0     H43409   4.527   9.408   5.401  0.4990  0.6994 -0.6370
  322MOL0     H43410   4.546   9.509   5.266 -1.9475  0.7995 -2.0827
  322MOL0     H43411   4.267   9.399   5.328 -1.3369 -1.9279 -1.9617
  322MOL0     H43412   4.341   9.439   5.165  1.4714 -0.9619 -0.8766
  322MOL0     H43413   4.301   9.204   5.183 -0.2064 -0.6619  0.6001
  322MOL0     H43414   4.479   9.230   5.179  0.8297 -0.0757  1.6284
  322MOL0     H43415   4.459   9.203   5.442  1.9213  2.3312 -2.3950
  322MOL0     H43416   4.298   9.134   5.397 -1.1596  0.3791 -2.1342
  322MOL0     H43417   4.515   8.980   5.405  0.1063  0.1003 -0.9406
  322MOL0     H43418   4.551   9.055   5.248  0.4814  0.9595  0.4106
  322MOL0     H43419   4.415   8.830   5.245 -1.1502  0.1984  0.5705
  322MOL0     H43420   4.293   8.904   5.339 -0.8949  2.5440  1.4800
  322MOL0     H43421   4.454   8.915   5.006  0.5252  0.1141 -0.4321
  322MOL0     H43422   4.361   9.012   4.733 -1.4635  0.4539 -3.6295
  322MOL0     H43423   4.186   8.984   4.732  0.2843 -0.7770  0.6431
  322MOL0     H43424   4.264   9.221   4.658  2.2114 -0.6156  0.7235
  322MOL0     H43425   4.133   9.206   4.782  0.0784  0.6512  0.5688
  322MOL0     H43426   4.354   9.247   4.948  4.1739 -0.4170 -0.7955
  322MOL0     H43427   4.298   9.383   4.859  1.3902  0.4894  1.9767
  322MOL0     H43428   4.461   9.355   4.689  0.1808 -0.4443 -0.9003
  322MOL0     H43429   4.503   9.207   4.750  1.9971  1.7251 -0.7669
  322MOL0     H43430   4.687   9.429   5.054 -0.8472  0.5744 -1.2981
  322MOL0     H43431   4.951   9.455   5.023  1.0613  1.2207 -0.5068
  322MOL0     H43432   5.317   9.612   4.802  2.7508 -0.0378  1.4822
  322MOL0     H43433   5.547   9.645   4.776  2.7185 -0.2158 -0.4450
  322MOL0     H43434   5.781   9.622   4.780  2.2505  0.3580 -1.1218
  322MOL0     H43435   5.759   9.468   4.859  1.7439 -0.1797  0.9922
  322MOL0     H43436   5.970   9.382   4.767  0.8923  0.5734  3.3338
  322MOL0     H43437   5.989   9.538   4.671  1.3485  2.6405  2.0291
  322MOL0     H43438   5.994   9.664   4.873  1.7117  0.5482 -0.7359
  322MOL0     H43439   5.992   9.514   4.962  2.4508  1.4086  2.2850
  322MOL0     H43440   6.201   9.611   4.762 -4.6790  2.0118 -0.2294
  322MOL0     H43441   6.215   9.443   4.827  0.5388  1.2917 -0.3753
  322MOL0     H43442   6.212   9.551   5.059 -1.6907  0.7222  0.1955
  322MOL0     H43443   6.218   9.705   4.975 -0.3223  0.5503 -1.3680
  322MOL0     H43444   6.426   9.478   4.913  0.5473  1.0548 -1.9596
  322MOL0     H43445   6.435   9.643   4.877 -0.4473  1.8772  1.1257
  322MOL0     H43446   6.449   9.545   5.171  0.1397  1.2320  0.0424
  322MOL0     H43447   6.447   9.707   5.115 -1.5014  0.3211  1.5596
  322MOL0     H43448   6.677   9.613   5.160 -0.5599 -1.2684  0.5946
  322MOL0     H43449   6.665   9.531   5.004  0.8786  0.3842  0.3611
  322MOL0     H43450   5.561   9.304   4.524  0.2707  0.0857  1.1418
  322MOL0     H43451   5.301   9.285   4.527 -0.3349 -2.7006  2.1300
  322MOL0     H43452   4.910   9.394   4.614  1.3801  0.9434  0.7365
  322MOL0     H43453   4.652   9.341   4.654 -1.0910  0.2520  1.4841
  322MOL0     H43454   4.679   9.815   5.667  1.0111  0.9817  2.7166
  322MOL0     H43455   4.879   9.895   5.766 -0.4328  0.7969 -2.1755
  322MOL0     H43456   5.227   9.668   6.062  1.4988 -2.0745 -0.8092
  322MOL0     H43457   5.413   9.744   6.207  0.4376 -0.7027 -0.2586
  322MOL0     H43458   5.626   9.742   6.270  0.4016 -0.0641 -2.0911
  322MOL0     H43459   5.553   9.889   6.316  0.7364  1.9495 -0.5255
  322MOL0     H43460   5.738   9.890   6.436  3.0316 -0.7939  0.0391
  322MOL0     H43461   5.741  10.019   6.316 -1.9637  0.7412  3.7587
  322MOL0     H43462   5.896   9.881   6.180  1.2823  1.5187 -0.1538
  322MOL0     H43463   5.914   9.763   6.326 -0.2543  1.0801  1.3351
  322MOL0     H43464   5.979  10.048   6.295  0.2623 -0.9383 -1.7549
  322MOL0     H43465   5.972   9.968   6.465 -0.8096 -1.1927  0.2332
  322MOL0     H43466   6.336   9.863   6.265 -0.3295 -0.2815  0.6859
  322MOL0     H43467   5.608   9.912   5.872  0.3521 -0.5678 -0.4558
  322MOL0     H43468   5.351   9.945   5.666 -0.5655  1.0920  0.0957
  322MOL0     H43469   5.528   9.906   5.657 -0.3695 -0.3404 -3.6158
  322MOL0     H43470   5.411   9.788   5.615  0.6606  1.6064 -0.8286
  323MOL0     O43471   0.574   0.826   6.454  0.0052 -0.1137 -0.2476
  323MOL0     C43472   0.487   0.789   6.371  0.2674 -0.2585 -0.9045
  323MOL0     O43473   0.367   0.864   6.339 -0.5262  0.3508  0.3102
  323MOL0     C43474   0.356   0.986   6.397 -0.2085 -0.4292  1.1464
  323MOL0     C43475   0.407   1.100   6.335 -0.1267  0.5946 -0.4215
  323MOL0     C43476   0.412   1.225   6.396 -0.1854  0.1923 -0.1955
  323MOL0     C43477   0.359   1.246   6.529 -0.1534  0.0700  0.0480
  323MOL0     O43478   0.346   1.363   6.589 -0.6171 -0.7064  0.1603
  323MOL0     C43479   0.452   1.416   6.669  0.5811  0.6684  0.2705
  323MOL0     C43480   0.585   1.471   6.597 -0.2937 -0.4477  0.0718
  323MOL0     C43481   0.666   1.538   6.709  0.5014  0.7231  0.0850
  323MOL0     C43482   0.797   1.603   6.662  0.6688 -0.8727  0.1826
  323MOL0     C43483   0.879   1.668   6.772 -0.2292 -1.1434  0.7156
  323MOL0     C43484   0.799   1.777   6.858 -0.0839 -0.2398  0.2246
  323MOL0     C43485   0.906   1.868   6.925  0.2502 -0.5954  0.3640
  323MOL0     C43486   0.839   1.967   7.018  0.5306  0.0105 -0.2638
  323MOL0     N43487   0.940   2.051   7.089  0.1744  0.0478  0.2146
  323MOL0     C43488   0.970   2.181   7.083 -0.4316 -0.2490  0.3029
  323MOL0     C43489   1.071   2.197   7.177 -0.1788 -0.7063 -0.3854
  323MOL0     C43490   1.149   2.320   7.218  0.4751  0.1660  0.7028
  323MOL0     C43491   1.286   2.308   7.142 -0.1295 -0.0382  0.3980
  323MOL0     C43492   1.270   2.287   6.989  0.1018 -0.2473  0.3300
  323MOL0     C43493   1.311   2.142   6.957 -0.2418  0.2834 -0.4094
  323MOL0     O43494   1.453   2.135   6.974  0.5685  0.1198 -0.1579
  323MOL0     C43495   1.512   2.023   6.910 -0.1276 -0.0982  0.5508
  323MOL0     C43496   1.440   1.911   6.874  0.3424 -0.8997  0.8370
  323MOL0     C43497   1.494   1.804   6.804  0.2880 -0.6073 -0.2161
  323MOL0     C43498   1.640   1.810   6.778 -0.1355  0.8442 -0.6129
  323MOL0     C43499   1.709   1.696   6.719 -0.1390 -0.6673  0.1038
  323MOL0     O43500   1.640   1.592   6.698  0.1804 -0.0647 -0.0773
  323MOL0     C43501   1.714   1.472   6.691 -0.5707 -0.0139  0.3327
  323MOL0     C43502   1.752   1.415   6.816 -0.1242  0.3497 -0.9004
  323MOL0     C43503   1.841   1.303   6.821  0.3592 -0.7172 -0.3442
  323MOL0     C43504   1.889   1.259   6.701  0.0472  0.3932  0.1234
  323MOL0     O43505   1.981   1.154   6.710  0.4247 -0.0340 -0.3010
  323MOL0     C43506   2.054   1.116   6.593  0.1684  1.0823  0.6285
  323MOL0     C43507   2.177   1.025   6.614 -0.5124  0.9644  0.4964
  323MOL0     C43508   2.280   1.099   6.699  0.5960  0.6949 -0.2792
  323MOL0     C43509   2.420   1.023   6.695  0.4162  0.2799 -0.0181
  323MOL0     C43510   2.527   1.105   6.773 -0.1387 -0.0502  0.2836
  323MOL0     C43511   2.655   1.011   6.809  0.1357 -0.3657  0.2500
  323MOL0     C43512   2.724   0.966   6.678  0.0211 -0.0595 -0.5657
  323MOL0     C43513   2.869   0.910   6.697  0.2824  0.0814  0.4465
  323MOL0    Cl43514   2.983   1.049   6.726  0.0635 -0.2138 -0.3834
  323MOL0     C43515   1.845   1.305   6.575  0.7513 -0.2599  0.2376
  323MOL0     C43516   1.757   1.411   6.569 -0.2222 -0.3972 -0.0327
  323MOL0     O43517   1.831   1.708   6.704  0.4763  0.0336  0.0051
  323MOL0     C43518   1.710   1.931   6.810 -0.6037  0.3673  0.0293
  323MOL0     C43519   1.644   2.042   6.871 -0.5272 -0.6813 -0.1449
  323MOL0     N43520   1.095   2.076   7.232 -0.2706 -0.1607  0.5113
  323MOL0     N43521   1.006   1.993   7.192 -0.1900  1.0142 -0.5487
  323MOL0     C43522   0.303   1.122   6.593  0.2141  0.5972  0.2328
  323MOL0     C43523   0.301   0.997   6.520  0.3227  0.6868  0.0461
  323MOL0     C43524   0.506   0.663   6.303 -0.1260 -0.0664  0.2882
  323MOL0     C43525   0.406   0.629   6.204 -0.5051  0.8105 -0.3223
  323MOL0     C43526   0.412   0.509   6.144  0.4477 -0.4442 -0.6596
  323MOL0     C43527   0.523   0.424   6.148  0.5623  0.0167  0.5075
  323MOL0     O43528   0.540   0.305   6.087 -0.3380 -0.6056  0.1209
  323MOL0     C43529   0.416   0.246   6.045  0.2210 -0.1561  1.1589
  323MOL0     C43530   0.450   0.113   5.970 -0.4191  0.6467  0.9247
  323MOL0     C43531   0.461   0.001   6.072 -0.3846  0.4394  0.3406
  323MOL0     C43532   0.530  -0.134   6.022 -0.1729 -0.5368  0.4294
  323MOL0     C43533   0.680  -0.127   6.015  0.0316  0.2997 -0.2935
  323MOL0     C43534   0.802  -0.128   6.004 -0.0727 -0.6557  0.0551
  323MOL0     C43535   0.629   0.464   6.231  0.1834 -0.5771 -0.5192
  323MOL0     C43536   0.627   0.579   6.310  0.3223  0.2428 -0.0201
  323MOL0     C43537   0.758   0.630   6.388  0.0131 -0.3397  0.4011
  323MOL0     H43538   0.446   1.092   6.234  1.8342 -1.9456  0.4121
  323MOL0     H43539   0.446   1.307   6.334 -1.1121  1.2266  0.6142
  323MOL0     H43540   0.413   1.499   6.728 -0.3673  0.1635  0.3752
  323MOL0     H43541   0.477   1.328   6.728 -0.5402  0.8025  0.9894
  323MOL0     H43542   0.551   1.553   6.532 -0.0056  0.6928  1.3116
  323MOL0     H43543   0.635   1.392   6.541  0.4789  0.6088 -0.7682
  323MOL0     H43544   0.682   1.469   6.792 -1.7393  1.9834  1.6727
  323MOL0     H43545   0.609   1.622   6.750  1.8254  1.4666  0.4809
  323MOL0     H43546   0.860   1.533   6.606 -0.4301  0.0369 -2.3583
  323MOL0     H43547   0.771   1.683   6.593  2.4974 -0.9376 -0.6227
  323MOL0     H43548   0.912   1.593   6.844  1.9573  1.2972  2.4742
  323MOL0     H43549   0.962   1.714   6.717 -2.1479  0.8478 -0.6619
  323MOL0     H43550   0.733   1.836   6.793  0.1914 -2.3104 -2.0835
  323MOL0     H43551   0.732   1.723   6.925 -0.7435  0.3671  0.0651
  323MOL0     H43552   0.963   1.918   6.846  0.0151 -1.0473 -0.0926
  323MOL0     H43553   0.981   1.812   6.981  2.2885 -0.7762 -2.3242
  323MOL0     H43554   0.758   2.026   6.974 -0.8214  0.5923  2.7598
  323MOL0     H43555   0.788   1.902   7.090  1.1652  1.0217  1.1305
  323MOL0     H43556   0.930   2.263   7.022  0.7670  0.9409  1.0602
  323MOL0     H43557   1.096   2.413   7.197  2.2496  1.3965  1.4462
  323MOL0     H43558   1.155   2.324   7.327 -1.6247 -1.1893  0.9323
  323MOL0     H43559   1.323   2.411   7.143 -2.3119  0.8138 -0.4289
  323MOL0     H43560   1.358   2.238   7.186 -0.6408 -0.1442  1.0753
  323MOL0     H43561   1.338   2.353   6.935  0.2689 -2.6028 -2.5997
  323MOL0     H43562   1.169   2.309   6.951 -0.3373  0.7777  1.9955
  323MOL0     H43563   1.271   2.119   6.858  0.8160 -3.2104 -0.1707
  323MOL0     H43564   1.260   2.080   7.031 -0.4673  0.5843 -0.3088
  323MOL0     H43565   1.333   1.904   6.890 -0.3432 -1.4241 -3.0556
  323MOL0     H43566   1.432   1.715   6.798 -1.4288  0.4734  0.6633
  323MOL0     H43567   1.726   1.465   6.909  1.4033 -0.1616 -0.1651
  323MOL0     H43568   1.868   1.248   6.910  0.5502 -3.6968 -2.1375
  323MOL0     H43569   1.983   1.071   6.524  0.3426  0.6544  0.7245
  323MOL0     H43570   2.091   1.203   6.538 -0.7334  0.3311 -1.2303
  323MOL0     H43571   2.156   0.926   6.654  3.0217 -0.7429 -1.4333
  323MOL0     H43572   2.217   1.005   6.514 -0.1298  1.8580  0.4603
  323MOL0     H43573   2.292   1.203   6.666 -2.2073  0.7925 -1.2471
  323MOL0     H43574   2.250   1.107   6.803  2.1057  0.7771  0.1732
  323MOL0     H43575   2.452   0.997   6.594 -1.3193  0.2985 -0.6020
  323MOL0     H43576   2.400   0.930   6.749 -1.2922  1.2734  1.1757
  323MOL0     H43577   2.481   1.137   6.867  1.9356 -2.4111  2.2822
  323MOL0     H43578   2.552   1.199   6.723 -1.1259 -0.5920 -1.2996
  323MOL0     H43579   2.715   1.074   6.876  0.0365 -1.3589  1.3177
  323MOL0     H43580   2.616   0.918   6.853  1.4747 -1.7453 -1.3195
  323MOL0     H43581   2.722   1.047   6.605  1.6019 -0.8693 -1.5497
  323MOL0     H43582   2.660   0.891   6.629 -1.8717  0.9389  0.2832
  323MOL0     H43583   2.873   0.836   6.778  1.4738 -1.1668 -0.6909
  323MOL0     H43584   2.898   0.864   6.602 -1.0309 -0.3349  0.2250
  323MOL0     H43585   1.893   1.268   6.485  0.7842 -0.0938  0.1855
  323MOL0     H43586   1.737   1.455   6.472  2.5726 -1.9532 -1.4616
  323MOL0     H43587   1.812   1.946   6.775 -0.8444  0.5500 -0.6011
  323MOL0     H43588   1.695   2.133   6.898 -1.3559  0.1144 -1.1730
  323MOL0     H43589   0.261   1.119   6.693 -0.0386 -3.9650  0.1745
  323MOL0     H43590   0.257   0.911   6.570 -0.2801  1.2948  0.5937
  323MOL0     H43591   0.317   0.690   6.187 -0.3894  1.1215  0.1526
  323MOL0     H43592   0.323   0.488   6.085  0.0424  1.3974 -0.7487
  323MOL0     H43593   0.366   0.309   5.971 -2.7955 -2.1670  1.3076
  323MOL0     H43594   0.345   0.228   6.126 -1.9253  2.6230  0.0273
  323MOL0     H43595   0.546   0.133   5.921 -0.1650 -0.8479  0.7710
  323MOL0     H43596   0.384   0.086   5.887 -0.7175  0.7792  1.1159
  323MOL0     H43597   0.363  -0.031   6.110 -0.9112  1.5423 -0.0567
  323MOL0     H43598   0.510   0.047   6.157  1.3420  0.7356 -0.7587
  323MOL0     H43599   0.491  -0.211   6.089 -0.9402 -1.1900 -0.7255
  323MOL0     H43600   0.494  -0.158   5.922  0.9861  2.4973 -0.8287
  323MOL0     H43601   0.906  -0.105   6.014 -0.2991  0.3685  0.2609
  323MOL0     H43602   0.718   0.402   6.220  0.9102  0.7860 -3.1520
  323MOL0     H43603   0.786   0.733   6.365  0.6646  0.0058  2.4812
  323MOL0     H43604   0.734   0.627   6.495 -0.9409  0.0019  0.2051
  323MOL0     H43605   0.838   0.562   6.356  0.8653  1.0646 -0.5409
  324MOL0     O43606   9.292   5.771   3.225 -0.1601  0.1416 -0.1814
  324MOL0     C43607   9.239   5.662   3.238  0.3358 -0.3821  0.3376
  324MOL0     O43608   9.301   5.536   3.251 -0.6384  0.0854 -0.7657
  324MOL0     C43609   9.433   5.524   3.238  0.2919  0.6766  0.0702
  324MOL0     C43610   9.488   5.471   3.117 -0.1376 -0.0170  1.0959
  324MOL0     C43611   9.626   5.450   3.098 -0.2739  0.0458 -0.6926
  324MOL0     C43612   9.720   5.483   3.198  0.7811 -0.5117 -0.2830
  324MOL0     O43613   9.856   5.469   3.166  1.3763 -0.6958  0.3818
  324MOL0     C43614   9.947   5.557   3.227  0.6383 -0.4587  0.8080
  324MOL0     C43615  10.080   5.547   3.153 -0.2899 -0.1830 -0.0311
  324MOL0     C43616  10.189   5.638   3.218 -0.0875  0.0136  0.8656
  324MOL0     C43617  10.198   5.770   3.144  0.0147 -0.1812 -0.6942
  324MOL0     C43618  10.305   5.865   3.208  1.1677 -0.0691 -0.1734
  324MOL0     C43619  10.438   5.803   3.230  1.2039 -0.1982  0.4029
  324MOL0     C43620  10.540   5.903   3.282 -0.6647 -0.0346  0.9559
  324MOL0     C43621  10.528   5.952   3.427 -0.7441  1.1249 -0.1376
  324MOL0     N43622  10.624   6.050   3.470 -0.1172 -0.1278 -0.1219
  324MOL0     C43623  10.760   6.020   3.473  0.1072  0.4689 -0.2597
  324MOL0     C43624  10.820   6.131   3.525 -0.0608  0.0308 -0.0818
  324MOL0     C43625  10.965   6.149   3.566 -1.4291 -0.0049 -0.0002
  324MOL0     C43626  11.063   6.166   3.450  0.4513 -0.4817  0.4253
  324MOL0     C43627  11.210   6.186   3.492  0.2289 -0.1122  0.7284
  324MOL0     C43628  11.307   6.139   3.383  1.0827 -1.2391  0.1836
  324MOL0     O43629  11.447   6.169   3.396 -0.1366 -0.2820  0.6320
  324MOL0     C43630  11.529   6.115   3.494  0.0923  0.6247 -0.2822
  324MOL0     C43631  11.495   6.025   3.593  0.0936  0.6093  0.0910
  324MOL0     C43632  11.584   5.991   3.687  1.2872 -0.0243  0.8265
  324MOL0     C43633  11.715   6.033   3.686  0.3944  0.3025 -0.6041
  324MOL0     C43634  11.804   5.996   3.788 -0.3447  0.5976 -0.1601
  324MOL0     O43635  11.920   6.050   3.790 -0.7419  0.2075 -0.3816
  324MOL0     C43636  12.021   6.025   3.883 -0.1820  0.3592 -1.1145
  324MOL0     C43637  12.150   6.069   3.850  0.8272  0.2682 -0.6009
  324MOL0     C43638  12.261   6.032   3.931  0.2651 -0.2628  0.0267
  324MOL0     C43639  12.236   5.962   4.052 -0.9619  0.9404 -0.1297
  324MOL0     O43640  12.351   5.919   4.112  0.3247 -0.7200 -0.4697
  324MOL0     C43641  12.346   5.825   4.218 -0.2876  0.1831  0.3855
  324MOL0     C43642  12.493   5.801   4.252 -0.8223  0.2812  0.2524
  324MOL0     C43643  12.573   5.920   4.311  0.0024  0.3176 -0.0687
  324MOL0     C43644  12.709   5.874   4.358  0.0132 -0.6481  0.5617
  324MOL0     C43645  12.791   5.990   4.419  0.6504  0.6453 -0.2080
  324MOL0     C43646  12.923   5.928   4.442 -1.3477 -0.3496  0.0419
  324MOL0     C43647  13.009   6.017   4.529  0.5034  0.0498  0.4050
  324MOL0     C43648  13.131   5.958   4.594  0.2157  0.1038 -0.0875
  324MOL0    Cl43649  13.227   6.084   4.685 -0.3058 -0.0205 -0.1002
  324MOL0     C43650  12.105   5.931   4.091  0.5095 -0.7380  0.3299
  324MOL0     C43651  12.002   5.975   4.010 -0.0433  0.2646 -0.0172
  324MOL0     O43652  11.764   5.902   3.857  0.2306 -0.5020  0.2581
  324MOL0     C43653  11.761   6.127   3.590 -0.4991  0.0901 -0.3010
  324MOL0     C43654  11.660   6.169   3.493 -0.2524  0.5780  0.3190
  324MOL0     N43655  10.718   6.231   3.543  0.5371  0.6567 -0.6912
  324MOL0     N43656  10.604   6.173   3.521  0.2315  0.1259 -0.4446
  324MOL0     C43657   9.668   5.538   3.316 -0.2490 -0.2952 -0.0334
  324MOL0     C43658   9.528   5.556   3.336  0.4295 -0.2659 -0.0397
  324MOL0     C43659   9.088   5.659   3.254 -0.7208 -0.1809  0.3677
  324MOL0     C43660   9.026   5.539   3.199 -0.4767  0.0867 -0.0982
  324MOL0     C43661   8.889   5.533   3.196 -0.5522 -0.2020 -0.1443
  324MOL0     C43662   8.806   5.638   3.225  0.3848 -0.8246 -0.8292
  324MOL0     O43663   8.675   5.613   3.192 -0.0959 -0.4192 -0.0726
  324MOL0     C43664   8.584   5.717   3.236  0.4412 -0.5763  0.2314
  324MOL0     C43665   8.440   5.683   3.192  0.2557 -0.1235 -0.1249
  324MOL0     C43666   8.339   5.796   3.216 -0.1756 -0.3435  0.2200
  324MOL0     C43667   8.338   5.846   3.358 -1.3098  0.1523  0.7173
  324MOL0     C43668   8.418   5.963   3.369  0.0191  0.3202  0.3903
  324MOL0     C43669   8.505   6.048   3.384  0.0005 -0.1997  0.2360
  324MOL0     C43670   8.865   5.741   3.289  0.5171 -0.2729 -0.0321
  324MOL0     C43671   9.000   5.758   3.309 -0.1757  0.3106 -0.0981
  324MOL0     C43672   9.058   5.882   3.372  0.4149 -0.1648 -0.1337
  324MOL0     H43673   9.427   5.458   3.028  0.4499  1.8497  0.3745
  324MOL0     H43674   9.664   5.409   3.005  4.3197 -0.3750  1.1322
  324MOL0     H43675   9.913   5.660   3.215  3.6964  0.3831 -2.0967
  324MOL0     H43676   9.957   5.536   3.334 -0.2062 -2.3421  0.5697
  324MOL0     H43677  10.071   5.554   3.044  1.5441 -2.5646 -0.4434
  324MOL0     H43678  10.116   5.444   3.167  1.5202  0.3800 -0.3197
  324MOL0     H43679  10.279   5.580   3.197  0.3463  1.1566 -0.5522
  324MOL0     H43680  10.174   5.664   3.323 -1.0726  2.6882  0.1311
  324MOL0     H43681  10.220   5.746   3.039  0.6838 -0.5045 -0.4887
  324MOL0     H43682  10.106   5.827   3.130  0.7713  0.7771 -2.0052
  324MOL0     H43683  10.315   5.950   3.140 -0.4734 -1.3783 -2.2268
  324MOL0     H43684  10.262   5.905   3.300 -0.3114 -0.7775 -0.5142
  324MOL0     H43685  10.421   5.722   3.302  0.2031  0.3192  0.7773
  324MOL0     H43686  10.474   5.765   3.134 -1.0507  1.0361 -1.0108
  324MOL0     H43687  10.534   5.994   3.221  3.7242 -0.0704  0.1815
  324MOL0     H43688  10.637   5.859   3.258 -0.7792  1.0188 -1.8494
  324MOL0     H43689  10.430   5.996   3.446 -0.6557  0.0912  3.3189
  324MOL0     H43690  10.535   5.868   3.496 -1.4883  2.0541  1.0995
  324MOL0     H43691  10.811   5.929   3.443  1.5400  1.7663 -1.9577
  324MOL0     H43692  10.971   6.226   3.642 -1.7567  0.0028  0.0208
  324MOL0     H43693  10.994   6.060   3.623  0.2852  2.1496  2.7053
  324MOL0     H43694  11.064   6.072   3.394 -0.7735 -1.2791  1.6958
  324MOL0     H43695  11.029   6.244   3.381  0.4996 -1.4792 -0.7662
  324MOL0     H43696  11.235   6.134   3.586  1.1042  0.6229  0.9039
  324MOL0     H43697  11.240   6.289   3.512 -1.1635  0.5753 -0.5165
  324MOL0     H43698  11.288   6.192   3.289  2.9586 -1.3566 -0.3044
  324MOL0     H43699  11.297   6.031   3.369 -1.0964 -1.0966  0.3355
  324MOL0     H43700  11.395   5.982   3.603 -0.0079  0.8305  0.0244
  324MOL0     H43701  11.548   5.937   3.774 -1.7346  3.3655  1.9145
  324MOL0     H43702  12.153   6.133   3.763  2.3560 -0.0446 -0.8048
  324MOL0     H43703  12.363   6.058   3.906  0.7142 -0.7499  1.2522
  324MOL0     H43704  12.292   5.873   4.301 -0.5864 -1.1041  0.9557
  324MOL0     H43705  12.291   5.738   4.182 -0.4771  0.9024 -1.1276
  324MOL0     H43706  12.499   5.719   4.324 -2.7734  1.3529  1.7537
  324MOL0     H43707  12.547   5.774   4.161  1.4764  0.6207  1.4214
  324MOL0     H43708  12.580   5.997   4.233  0.5817 -1.5467 -1.9263
  324MOL0     H43709  12.517   5.956   4.398  0.2295 -1.0831  0.6729
  324MOL0     H43710  12.764   5.822   4.279 -2.7672 -1.9394 -0.6375
  324MOL0     H43711  12.703   5.793   4.432  1.7234  0.4418  1.9660
  324MOL0     H43712  12.738   6.029   4.506  2.1455  1.8989  0.1943
  324MOL0     H43713  12.802   6.075   4.350 -1.1359  1.6379  0.6758
  324MOL0     H43714  12.912   5.832   4.493  0.0165  0.4116  1.8503
  324MOL0     H43715  12.972   5.908   4.346 -1.8762 -0.8803 -0.1230
  324MOL0     H43716  12.942   6.065   4.601 -2.3768 -0.5904 -1.6639
  324MOL0     H43717  13.039   6.099   4.463 -1.6343  3.3258  3.1311
  324MOL0     H43718  13.099   5.881   4.665  1.6736  0.8235  1.4333
  324MOL0     H43719  13.196   5.927   4.511  0.6217  1.5279 -0.3258
  324MOL0     H43720  12.079   5.883   4.185 -2.8980 -1.1002 -0.6369
  324MOL0     H43721  11.904   5.944   4.047  0.3273 -0.1163  0.6539
  324MOL0     H43722  11.856   6.178   3.581 -0.4453 -0.0948 -0.7904
  324MOL0     H43723  11.675   6.233   3.407  0.6649 -0.7588 -0.5546
  324MOL0     H43724   9.740   5.574   3.389  1.1290  1.1404 -1.9964
  324MOL0     H43725   9.491   5.597   3.430 -3.7168  2.2922 -2.4364
  324MOL0     H43726   9.072   5.459   3.141  0.0379  0.7729 -0.6590
  324MOL0     H43727   8.847   5.455   3.134 -1.3922 -1.7926  2.2743
  324MOL0     H43728   8.599   5.809   3.179 -2.0808 -1.2425 -1.6767
  324MOL0     H43729   8.597   5.733   3.344  1.8242 -0.5927  0.0837
  324MOL0     H43730   8.402   5.602   3.254 -2.4997 -2.3009 -4.2664
  324MOL0     H43731   8.445   5.645   3.090  4.4072 -3.2236  0.9295
  324MOL0     H43732   8.241   5.749   3.203 -1.0181  0.7493  2.1958
  324MOL0     H43733   8.342   5.870   3.136 -2.3950  0.4044  0.7715
  324MOL0     H43734   8.233   5.856   3.387 -1.4214 -1.9845  1.1663
  324MOL0     H43735   8.381   5.773   3.427  2.0167  0.0329 -1.2907
  324MOL0     H43736   8.577   6.124   3.402 -0.2734  0.4234 -1.1172
  324MOL0     H43737   8.809   5.824   3.330 -0.0013 -1.3333  1.4704
  324MOL0     H43738   9.152   5.857   3.421  1.5697  2.2151 -0.9770
  324MOL0     H43739   9.081   5.960   3.299  5.4744  0.2157  1.5023
  324MOL0     H43740   8.989   5.919   3.449  1.4503 -0.7567  1.1099
  325MOL0     O43741   9.584   3.791   9.157 -0.2119 -0.6472  0.0899
  325MOL0     C43742   9.538   3.700   9.092  1.0555  0.1210  0.4041
  325MOL0     O43743   9.606   3.593   9.050  0.5348  0.7223 -0.1868
  325MOL0     C43744   9.743   3.593   9.071 -0.0090  0.4398  0.0522
  325MOL0     C43745   9.798   3.574   9.197 -0.7205 -0.1011  0.2685
  325MOL0     C43746   9.939   3.553   9.223  0.0330  0.2318  0.9651
  325MOL0     C43747  10.029   3.566   9.117  0.4812 -0.1339  0.1744
  325MOL0     O43748  10.167   3.546   9.123 -0.4273  0.2175  0.7156
  325MOL0     C43749  10.233   3.526   9.244 -0.0138 -0.4122  0.4087
  325MOL0     C43750  10.386   3.503   9.218  0.2956  0.1015  0.5075
  325MOL0     C43751  10.451   3.462   9.349  0.1563  0.4721  0.8185
  325MOL0     C43752  10.598   3.496   9.347  0.0262 -1.4500 -0.5266
  325MOL0     C43753  10.679   3.474   9.480 -0.2398 -0.4981 -0.3225
  325MOL0     C43754  10.715   3.324   9.499 -0.5244 -0.0568 -0.6823
  325MOL0     C43755  10.808   3.315   9.620  0.0234  0.4306 -0.0775
  325MOL0     C43756  10.820   3.172   9.688  0.2497 -0.4865 -0.0227
  325MOL0     N43757  10.942   3.105   9.664 -1.3456  0.0647 -0.4280
  325MOL0     C43758  10.952   2.991   9.580  0.1307 -0.9224 -1.7435
  325MOL0     C43759  11.086   2.972   9.574 -0.2302  0.0257  0.6145
  325MOL0     C43760  11.155   2.856   9.510 -0.8131 -0.3797 -0.1823
  325MOL0     C43761  11.310   2.853   9.514  0.5009 -0.5155  0.6324
  325MOL0     C43762  11.386   2.851   9.647 -0.2865 -0.2430 -0.1780
  325MOL0     C43763  11.531   2.801   9.628 -0.0637 -0.1124  0.5360
  325MOL0     O43764  11.602   2.799   9.755  0.5321 -0.5717 -0.0177
  325MOL0     C43765  11.731   2.787   9.772  0.5507  0.0981  0.6129
  325MOL0     C43766  11.783   2.843   9.892  0.7552  0.1915 -0.6820
  325MOL0     C43767  11.923   2.841   9.928  1.2384 -0.3889  0.8662
  325MOL0     C43768  12.010   2.783   9.836  0.1169  0.6634  0.9652
  325MOL0     C43769  12.159   2.779   9.869 -0.6216  1.2965  0.8653
  325MOL0     O43770  12.244   2.722   9.773  0.0141 -1.2011  0.3945
  325MOL0     C43771  12.361   2.666   9.812 -0.6301 -0.5497  0.1289
  325MOL0     C43772  12.487   2.714   9.765  0.3659  0.3427  0.5263
  325MOL0     C43773  12.600   2.650   9.801  0.2297 -0.4006 -0.0905
  325MOL0     C43774  12.595   2.532   9.873  0.2496  0.1254 -0.2403
  325MOL0     O43775  12.711   2.465   9.908  0.4202  0.9043  0.2095
  325MOL0     C43776  12.844   2.512   9.880 -0.5359  0.3626  0.1710
  325MOL0     C43777  12.954   2.407   9.905 -0.4552  0.4053  0.5635
  325MOL0     C43778  13.076   2.459   9.970 -0.9670 -0.7384  1.0368
  325MOL0     C43779  13.155   2.561   9.886 -0.3647  0.6439  0.3077
  325MOL0     C43780  13.178   2.509   9.740 -0.2110 -0.3968  0.1594
  325MOL0     C43781  13.307   2.575   9.672  0.2962 -0.5339  0.6570
  325MOL0     C43782  13.360   2.485   9.560 -0.1693 -0.6479 -0.1818
  325MOL0     C43783  13.495   2.542   9.515  0.7225 -0.2384 -0.6738
  325MOL0    Cl43784  13.587   2.427   9.419 -0.1495  0.0166 -0.0357
  325MOL0     C43785  12.474   2.468   9.909  0.6180 -0.7217 -0.3201
  325MOL0     C43786  12.359   2.548   9.886  0.5494 -0.7487  0.6696
  325MOL0     O43787  12.188   2.814   9.986  0.5683  0.5346 -0.0996
  325MOL0     C43788  11.955   2.715   9.725 -1.0471 -0.0170  0.2458
  325MOL0     C43789  11.824   2.724   9.685 -0.3280  0.6290 -0.6708
  325MOL0     N43790  11.152   3.071   9.643  0.1267 -0.6750  0.3361
  325MOL0     N43791  11.071   3.155   9.696 -0.4369 -0.1879  0.2537
  325MOL0     C43792   9.974   3.576   8.988 -0.3542  0.2940  0.2803
  325MOL0     C43793   9.833   3.584   8.964  0.7753 -0.6537  0.1660
  325MOL0     C43794   9.393   3.706   9.048 -0.3603  0.2061  0.2180
  325MOL0     C43795   9.346   3.601   8.978 -1.3855 -0.4793 -0.2585
  325MOL0     C43796   9.216   3.595   8.928 -0.5828 -0.6291  0.2328
  325MOL0     C43797   9.120   3.694   8.958  0.3499 -0.4742  0.0669
  325MOL0     O43798   8.998   3.675   8.902 -0.5452  0.1216 -0.4663
  325MOL0     C43799   8.909   3.787   8.896  0.7707 -0.0118  0.2896
  325MOL0     C43800   8.797   3.762   8.788 -0.0903 -0.2513  1.1328
  325MOL0     C43801   8.683   3.670   8.825  1.2199 -0.1943  0.1586
  325MOL0     C43802   8.548   3.730   8.787  0.5139 -0.6473 -0.6157
  325MOL0     C43803   8.442   3.652   8.834  0.4089 -0.3216  0.3501
  325MOL0     C43804   8.345   3.588   8.855  0.6986  0.2515  0.2991
  325MOL0     C43805   9.162   3.797   9.041 -0.2313  0.2242  0.4665
  325MOL0     C43806   9.291   3.808   9.082 -0.6945  0.3538 -0.3596
  325MOL0     C43807   9.326   3.925   9.173 -0.1289 -1.2348  0.7687
  325MOL0     H43808   9.741   3.589   9.288  2.2173  0.7174  2.1166
  325MOL0     H43809   9.975   3.521   9.320 -0.3934 -1.4854  0.5742
  325MOL0     H43810  10.226   3.616   9.305  1.3007  0.3785 -0.5778
  325MOL0     H43811  10.185   3.447   9.303 -0.0887 -1.6896 -1.2637
  325MOL0     H43812  10.420   3.602   9.186 -2.8079  2.1363  2.8743
  325MOL0     H43813  10.400   3.425   9.143  4.7774  0.5403  0.6063
  325MOL0     H43814  10.444   3.354   9.363  0.6364 -0.0005 -1.9774
  325MOL0     H43815  10.396   3.509   9.431  0.0032  0.2816  0.8246
  325MOL0     H43816  10.648   3.440   9.268  0.5582 -0.3401 -1.0029
  325MOL0     H43817  10.607   3.603   9.327 -0.2010 -0.9882  1.5553
  325MOL0     H43818  10.770   3.534   9.477 -1.1990  0.9776 -1.8264
  325MOL0     H43819  10.615   3.512   9.560 -0.0614 -0.7182 -0.0735
  325MOL0     H43820  10.623   3.265   9.511 -0.1835 -0.3150  0.8162
  325MOL0     H43821  10.756   3.286   9.405  0.8470 -0.1490 -0.0739
  325MOL0     H43822  10.768   3.384   9.695 -1.0305  2.2491 -2.1940
  325MOL0     H43823  10.907   3.354   9.593  0.0492  2.7560  2.8247
  325MOL0     H43824  10.815   3.197   9.794 -0.2001  2.1416 -0.5801
  325MOL0     H43825  10.732   3.112   9.662  0.1546  0.6378 -2.5884
  325MOL0     H43826  10.873   2.932   9.537 -1.4037 -0.9230  0.8508
  325MOL0     H43827  11.106   2.766   9.549 -3.0153  0.7748 -0.1535
  325MOL0     H43828  11.132   2.861   9.403  1.5962 -0.5690 -0.7728
  325MOL0     H43829  11.340   2.764   9.459  1.3096 -0.3112  0.7390
  325MOL0     H43830  11.341   2.943   9.459 -0.7806  0.5065  1.5034
  325MOL0     H43831  11.335   2.784   9.716  1.5659 -1.2651  0.2779
  325MOL0     H43832  11.377   2.951   9.691 -1.2360  0.1629 -1.2387
  325MOL0     H43833  11.571   2.870   9.553 -1.3019  0.7264  0.6252
  325MOL0     H43834  11.528   2.704   9.577 -0.9496 -0.8318  1.8719
  325MOL0     H43835  11.705   2.882   9.958 -0.2272 -3.6060  0.6747
  325MOL0     H43836  11.955   2.889  10.020  0.1615 -1.0796  1.6228
  325MOL0     H43837  12.491   2.805   9.706  4.8297 -0.7294 -1.1735
  325MOL0     H43838  12.692   2.695   9.767  0.5456 -0.4113  0.7327
  325MOL0     H43839  12.852   2.535   9.773  0.3420 -4.1190 -0.9327
  325MOL0     H43840  12.875   2.599   9.938 -0.0585  0.9433 -0.9350
  325MOL0     H43841  12.920   2.324   9.968  1.7270 -1.1369 -0.1741
  325MOL0     H43842  12.981   2.352   9.815 -2.9296 -0.9945  0.5781
  325MOL0     H43843  13.062   2.523  10.059 -2.2103  2.9726 -1.5545
  325MOL0     H43844  13.144   2.379   9.997  2.7137  1.5804 -0.6030
  325MOL0     H43845  13.256   2.576   9.926  0.1340  0.9953 -1.0154
  325MOL0     H43846  13.103   2.657   9.884 -1.1936  0.2114 -1.7080
  325MOL0     H43847  13.098   2.553   9.680  0.3161  0.9910  0.4422
  325MOL0     H43848  13.180   2.400   9.726 -2.3584 -0.3560 -0.9861
  325MOL0     H43849  13.275   2.673   9.633 -1.6652 -1.0540  0.8331
  325MOL0     H43850  13.394   2.607   9.730  1.9616  1.1329 -2.5298
  325MOL0     H43851  13.293   2.479   9.474 -1.2920 -0.9897  0.7005
  325MOL0     H43852  13.388   2.387   9.600 -0.1810 -0.1728  0.9994
  325MOL0     H43853  13.481   2.643   9.476  0.0395  1.1228  2.7113
  325MOL0     H43854  13.561   2.557   9.601  2.4996  1.2807 -2.2337
  325MOL0     H43855  12.472   2.371   9.958  3.3402 -0.3949  0.6077
  325MOL0     H43856  12.261   2.515   9.920  0.5226 -0.9278  0.4178
  325MOL0     H43857  12.020   2.663   9.655  0.2986  1.7334  0.1315
  325MOL0     H43858  11.796   2.666   9.598 -0.1182  2.6368 -2.1311
  325MOL0     H43859  10.047   3.572   8.907  1.0848  1.9928  1.4123
  325MOL0     H43860   9.777   3.579   8.871 -0.6198 -0.0037  0.9379
  325MOL0     H43861   9.414   3.527   8.936 -2.4218 -0.6773 -1.6650
  325MOL0     H43862   9.182   3.520   8.859  2.4658 -1.0077 -1.0082
  325MOL0     H43863   8.968   3.872   8.860 -1.0657  2.4284  2.6693
  325MOL0     H43864   8.870   3.816   8.994 -4.7271 -2.1009 -0.9188
  325MOL0     H43865   8.847   3.719   8.701 -4.5605 -1.4529 -1.0804
  325MOL0     H43866   8.764   3.863   8.762  2.9505  0.4280 -0.5384
  325MOL0     H43867   8.685   3.646   8.932 -0.3755 -1.5756 -0.0623
  325MOL0     H43868   8.684   3.571   8.777  0.3940 -0.2453  0.2213
  325MOL0     H43869   8.541   3.831   8.827  3.9303 -0.0125 -1.3241
  325MOL0     H43870   8.547   3.734   8.678 -2.6849 -0.2613 -0.6647
  325MOL0     H43871   8.260   3.534   8.892 -2.6037  5.2336  0.9275
  325MOL0     H43872   9.092   3.875   9.067 -2.1851 -0.8986 -1.1862
  325MOL0     H43873   9.251   4.005   9.175  1.9158  0.7671  1.6606
  325MOL0     H43874   9.341   3.895   9.278 -1.6126 -0.9048  1.0981
  325MOL0     H43875   9.414   3.973   9.131 -0.6163 -0.5517  0.5156
  326MOL0     O43876   8.539  10.746   0.224 -0.2475 -0.1305 -0.3007
  326MOL0     C43877   8.483  10.847   0.266  0.5065  0.2147 -0.2656
  326MOL0     O43878   8.517  10.980   0.231 -0.6487  0.0509 -0.5515
  326MOL0     C43879   8.643  10.988   0.187  0.5899 -0.2696 -0.1302
  326MOL0     C43880   8.755  10.953   0.264  0.6103 -0.8972  0.0330
  326MOL0     C43881   8.888  10.973   0.217  0.7480 -0.5688 -0.5540
  326MOL0     C43882   8.913  11.044   0.098  0.4322 -0.6709  1.1595
  326MOL0     O43883   9.035  11.086   0.048  0.1413 -0.0038 -0.7440
  326MOL0     C43884   9.144  11.094   0.143 -0.4304 -0.1639 -0.0807
  326MOL0     C43885   9.265  11.160   0.072  0.4139 -1.0235 -0.1279
  326MOL0     C43886   9.248  11.319   0.055 -1.0018  0.1572 -0.3072
  326MOL0     C43887   9.293  11.372  -0.081  0.1637  0.7563  0.3859
  326MOL0     C43888   9.287  11.526  -0.075 -0.6840  0.6259 -0.0147
  326MOL0     C43889   9.295  11.589  -0.213  0.9708 -0.3621  0.6170
  326MOL0     C43890   9.429  11.568  -0.274  0.1831 -0.4284 -0.2635
  326MOL0     C43891   9.433  11.631  -0.418 -0.1538  0.1601 -0.4796
  326MOL0     N43892   9.580  11.630  -0.458  0.3262 -0.3767  0.1296
  326MOL0     C43893   9.628  11.729  -0.541 -0.0155  0.1032  0.3584
  326MOL0     C43894   9.759  11.689  -0.561  0.2492  0.1947 -0.3317
  326MOL0     C43895   9.850  11.762  -0.655 -0.2711 -0.0083  0.0985
  326MOL0     C43896   9.994  11.721  -0.633  0.0820 -0.3232 -0.5932
  326MOL0     C43897  10.093  11.812  -0.715  0.4997 -0.1792  0.4800
  326MOL0     C43898  10.221  11.749  -0.700 -0.4879 -0.7722 -0.0426
  326MOL0     O43899  10.312  11.833  -0.775  0.5096 -0.6472  0.0414
  326MOL0     C43900  10.448  11.797  -0.785  1.1169  0.1842  0.4082
  326MOL0     C43901  10.523  11.870  -0.877  0.0050 -0.3496 -0.8186
  326MOL0     C43902  10.659  11.864  -0.895  0.5201  0.2356  0.4449
  326MOL0     C43903  10.728  11.780  -0.810  0.3306 -0.2544 -0.3156
  326MOL0     C43904  10.874  11.757  -0.817  0.5638  0.8214  0.0956
  326MOL0     O43905  10.941  11.653  -0.751  0.0917  0.0161 -0.0460
  326MOL0     C43906  11.065  11.612  -0.803  0.1228 -0.3366 -0.0600
  326MOL0     C43907  11.193  11.642  -0.753  0.4687  0.3688  0.5501
  326MOL0     C43908  11.314  11.597  -0.819 -0.1532  0.0649 -0.0245
  326MOL0     C43909  11.305  11.519  -0.936  0.9040  0.0964 -0.2843
  326MOL0     O43910  11.430  11.491  -0.989 -0.3673  0.0214  0.1339
  326MOL0     C43911  11.435  11.481  -1.128  0.1267 -0.3544 -0.4899
  326MOL0     C43912  11.524  11.374  -1.157  0.3606 -0.2499 -0.2346
  326MOL0     C43913  11.544  11.353  -1.306  0.2234  0.4661  0.0293
  326MOL0     C43914  11.608  11.476  -1.372  0.4134  0.2664 -0.5643
  326MOL0     C43915  11.651  11.459  -1.521 -0.4659  0.0839  0.6758
  326MOL0     C43916  11.800  11.426  -1.535  0.1547  0.3243  0.3232
  326MOL0     C43917  11.845  11.359  -1.667 -0.6567  0.9843 -0.5273
  326MOL0     C43918  11.989  11.310  -1.675 -0.2371  0.2773 -0.2191
  326MOL0    Cl43919  12.104  11.444  -1.663 -0.9202 -0.2213  0.0273
  326MOL0     C43920  11.179  11.489  -0.982 -0.0471  1.7230  0.8779
  326MOL0     C43921  11.064  11.529  -0.913  0.0475 -0.0910  0.4183
  326MOL0     O43922  10.928  11.835  -0.885 -0.1920 -0.1652  0.0591
  326MOL0     C43923  10.659  11.692  -0.724  0.2312 -0.8275  0.2777
  326MOL0     C43924  10.519  11.709  -0.705 -0.2525 -0.1424 -0.3482
  326MOL0     N43925   9.784  11.564  -0.513  0.1943  0.4036  0.6530
  326MOL0     N43926   9.677  11.535  -0.446  0.2866  0.1462  0.3090
  326MOL0     C43927   8.803  11.083   0.028  0.7601  0.0619 -0.7386
  326MOL0     C43928   8.671  11.051   0.064  0.7181  0.6266 -0.2487
  326MOL0     C43929   8.366  10.837   0.351  0.7913 -0.4383  0.4823
  326MOL0     C43930   8.378  10.798   0.485 -0.2902 -0.6015 -0.1367
  326MOL0     C43931   8.275  10.762   0.564 -0.0699 -1.0941  0.3635
  326MOL0     C43932   8.140  10.781   0.525 -0.8751  0.1456  0.6316
  326MOL0     O43933   8.022  10.752   0.594 -0.3638  0.6729 -0.6449
  326MOL0     C43934   8.035  10.670   0.712  0.0254  0.2372 -1.1276
  326MOL0     C43935   7.901  10.647   0.775 -0.1494 -0.4795  0.4126
  326MOL0     C43936   7.811  10.548   0.689  0.5710 -0.6300 -0.0727
  326MOL0     C43937   7.714  10.463   0.771 -0.2099  0.6811  0.1780
  326MOL0     C43938   7.794  10.369   0.858  0.2425  0.3814  0.0458
  326MOL0     C43939   7.860  10.276   0.906  0.6913  0.1070  0.5732
  326MOL0     C43940   8.125  10.834   0.392  0.3871 -0.7398  0.0003
  326MOL0     C43941   8.235  10.863   0.306 -0.5711  0.8959  0.5931
  326MOL0     C43942   8.231  10.880   0.156  0.6352  0.5273 -0.3497
  326MOL0     H43943   8.734  10.907   0.361 -1.4462  0.5049  0.3169
  326MOL0     H43944   8.963  10.929   0.281 -2.0135 -5.1727 -0.0077
  326MOL0     H43945   9.111  11.150   0.231  0.6974 -0.4033  0.5036
  326MOL0     H43946   9.183  10.994   0.165  2.9419  1.2735  1.1045
  326MOL0     H43947   9.280  11.118  -0.027  0.6012 -1.1193 -0.0602
  326MOL0     H43948   9.355  11.147   0.133  1.4267  3.0944 -0.4165
  326MOL0     H43949   9.306  11.368   0.133 -1.9093  0.0448  0.4567
  326MOL0     H43950   9.143  11.343   0.073 -0.5073  1.6195  0.7965
  326MOL0     H43951   9.387  11.321  -0.103 -0.9014 -1.6513  1.1635
  326MOL0     H43952   9.219  11.330  -0.149 -1.1253 -0.9437  2.6966
  326MOL0     H43953   9.192  11.549  -0.026 -1.0569 -3.2844  1.4486
  326MOL0     H43954   9.365  11.574  -0.015 -0.7720  0.5179  0.1835
  326MOL0     H43955   9.218  11.544  -0.276  0.2774 -0.5505  1.5813
  326MOL0     H43956   9.274  11.696  -0.206  4.4998  0.3935  1.5282
  326MOL0     H43957   9.450  11.461  -0.278 -0.7759 -0.8038  2.5720
  326MOL0     H43958   9.503  11.620  -0.214  1.0129  0.7257 -2.1929
  326MOL0     H43959   9.374  11.573  -0.490 -1.6081  2.2609 -1.1104
  326MOL0     H43960   9.396  11.734  -0.423 -2.6557 -0.7116 -2.2029
  326MOL0     H43961   9.574  11.814  -0.582 -0.4193 -1.1335 -1.8092
  326MOL0     H43962   9.819  11.746  -0.759  3.2198 -1.5352 -0.8694
  326MOL0     H43963   9.836  11.865  -0.624 -0.3504  0.5635 -1.7365
  326MOL0     H43964  10.026  11.729  -0.529 -1.1442  1.7106 -0.3057
  326MOL0     H43965  10.008  11.620  -0.672 -0.4285 -0.3238 -0.7874
  326MOL0     H43966  10.086  11.918  -0.688 -0.6394 -0.1878  0.2943
  326MOL0     H43967  10.053  11.801  -0.817  0.5093 -0.8376  0.5437
  326MOL0     H43968  10.212  11.644  -0.731 -3.0991 -0.9082  0.9137
  326MOL0     H43969  10.256  11.747  -0.596  0.0352  0.8399 -0.1644
  326MOL0     H43970  10.473  11.947  -0.936  0.5380  0.4856 -0.1999
  326MOL0     H43971  10.714  11.928  -0.962 -1.1024  2.1384  0.8451
  326MOL0     H43972  11.192  11.698  -0.661 -1.2805  0.6501  0.4013
  326MOL0     H43973  11.414  11.628  -0.789  0.5870 -1.2195 -1.0230
  326MOL0     H43974  11.344  11.463  -1.184  0.3932  0.3031 -1.1452
  326MOL0     H43975  11.473  11.575  -1.168  1.5314 -1.0213 -0.7876
  326MOL0     H43976  11.622  11.392  -1.112  0.3371 -1.9229  0.5948
  326MOL0     H43977  11.491  11.282  -1.107 -0.1964  0.6391  1.0913
  326MOL0     H43978  11.613  11.270  -1.322 -2.6299 -2.3937  1.4184
  326MOL0     H43979  11.444  11.332  -1.343 -0.2013  0.3798  1.1755
  326MOL0     H43980  11.698  11.494  -1.313  1.2860 -0.2626 -1.7012
  326MOL0     H43981  11.537  11.557  -1.354  1.6636  1.0135  1.3191
  326MOL0     H43982  11.617  11.552  -1.566 -2.8232  0.3904  2.8678
  326MOL0     H43983  11.593  11.379  -1.567 -0.9604  1.0578 -0.4286
  326MOL0     H43984  11.861  11.516  -1.524  0.8653  0.0426 -1.1078
  326MOL0     H43985  11.830  11.362  -1.451 -0.2085  0.2793  0.4199
  326MOL0     H43986  11.828  11.426  -1.751 -1.1132  1.8207  0.2117
  326MOL0     H43987  11.790  11.268  -1.692  1.2235 -0.1048 -0.8782
  326MOL0     H43988  12.008  11.234  -1.599  0.0518  1.0788  0.5201
  326MOL0     H43989  11.994  11.260  -1.773 -0.2612 -1.5953  0.6891
  326MOL0     H43990  11.162  11.427  -1.068  0.4007  1.9029  0.6544
  326MOL0     H43991  10.965  11.496  -0.945 -0.7444  0.6460  2.0066
  326MOL0     H43992  10.715  11.626  -0.658  0.8226  0.6765  1.3206
  326MOL0     H43993  10.469  11.653  -0.626 -0.3713  0.0314 -0.3016
  326MOL0     H43994   8.814  11.135  -0.067  0.8188 -0.4717 -1.0303
  326MOL0     H43995   8.585  11.085   0.007 -0.1442  0.5370  0.9531
  326MOL0     H43996   8.479  10.781   0.521  0.2939  1.9875 -0.3757
  326MOL0     H43997   8.295  10.725   0.664  1.1586 -1.2037  0.0877
  326MOL0     H43998   8.097  10.720   0.787  0.2101  0.9673 -1.7548
  326MOL0     H43999   8.073  10.571   0.687 -2.0893 -1.7406  2.5985
  326MOL0     H44000   7.841  10.736   0.794  0.3571 -1.0693  7.7911
  326MOL0     H44001   7.924  10.608   0.875  2.3499  1.7863  0.8518
  326MOL0     H44002   7.864  10.490   0.614 -1.5950 -1.2351 -1.2094
  326MOL0     H44003   7.745  10.616   0.634  1.2417  0.0661 -0.0285
  326MOL0     H44004   7.645  10.528   0.826 -1.5395  0.7214 -1.4437
  326MOL0     H44005   7.652  10.408   0.699 -0.5207  0.0700  0.9001
  326MOL0     H44006   7.925  10.200   0.945 -1.3008 -1.6917  0.5602
  326MOL0     H44007   8.026  10.823   0.349 -0.5881 -1.1724  2.2238
  326MOL0     H44008   8.289  10.797   0.116 -0.1739 -1.4551  2.2781
  326MOL0     H44009   8.130  10.879   0.114  0.4313 -1.7066  0.0761
  326MOL0     H44010   8.278  10.976   0.133  0.3512  0.9408  0.7158
  327MOL0     O44011   5.094   6.254  10.240  0.0499 -0.1876  0.1002
  327MOL0     C44012   5.052   6.285  10.127  0.5893 -0.4353 -0.6246
  327MOL0     O44013   5.130   6.321  10.031 -0.6570  0.7435  0.3366
  327MOL0     C44014   5.261   6.336  10.070  0.2191 -0.1905  0.2837
  327MOL0     C44015   5.311   6.467  10.072  0.7196 -0.1880 -0.4086
  327MOL0     C44016   5.439   6.505  10.118 -0.3860  0.5420 -0.0260
  327MOL0     C44017   5.526   6.399  10.163 -0.8346  0.1137 -0.2756
  327MOL0     O44018   5.655   6.424  10.195  0.3027 -0.4013 -0.3935
  327MOL0     C44019   5.678   6.512  10.305  1.3586 -0.0672 -0.1849
  327MOL0     C44020   5.807   6.585  10.277  0.0182 -0.8177  0.0490
  327MOL0     C44021   5.922   6.486  10.286 -0.1737  0.4702 -0.1088
  327MOL0     C44022   6.052   6.572  10.300 -0.0455  0.4834 -0.5577
  327MOL0     C44023   6.180   6.481  10.285 -0.1551 -0.2064 -0.7532
  327MOL0     C44024   6.212   6.389  10.408  0.0169 -0.6529  0.6605
  327MOL0     C44025   6.355   6.331  10.391 -0.7899  0.1102 -0.3309
  327MOL0     C44026   6.371   6.222  10.283 -0.2181  0.4967 -0.0395
  327MOL0     N44027   6.514   6.181  10.293 -0.2655  0.6873 -0.4749
  327MOL0     C44028   6.544   6.053  10.344  0.2021 -0.1872  0.0944
  327MOL0     C44029   6.676   6.055  10.390 -0.4300  0.6761  0.3801
  327MOL0     C44030   6.739   5.953  10.472  0.1042  0.4485  0.1039
  327MOL0     C44031   6.784   5.829  10.382  0.1280  0.4755  0.9931
  327MOL0     C44032   6.896   5.855  10.281  0.5539  0.3111 -0.3102
  327MOL0     C44033   7.006   5.939  10.347  0.0807  0.7152  0.4999
  327MOL0     O44034   7.066   5.863  10.452 -0.4052  0.3872 -0.3779
  327MOL0     C44035   7.184   5.900  10.498 -0.8748 -0.7948  0.4253
  327MOL0     C44036   7.262   5.799  10.562  0.1397 -0.2534  0.0633
  327MOL0     C44037   7.393   5.831  10.599 -0.4093 -0.7723  0.1099
  327MOL0     C44038   7.448   5.959  10.596  0.3422 -0.9421  1.0308
  327MOL0     C44039   7.590   5.977  10.631 -0.0838 -0.2311  0.0059
  327MOL0     O44040   7.650   6.094  10.585  0.3267  0.3194 -0.2078
  327MOL0     C44041   7.789   6.100  10.577  0.7817 -0.5111  0.7566
  327MOL0     C44042   7.881   6.042  10.672  0.0401 -0.4076  1.3423
  327MOL0     C44043   8.016   6.045  10.648 -0.7122  0.5018 -0.0490
  327MOL0     C44044   8.063   6.125  10.537 -0.1590 -0.5515 -0.2742
  327MOL0     O44045   8.193   6.156  10.510 -0.3245 -0.6121  0.0051
  327MOL0     C44046   8.298   6.079  10.567 -0.1749 -0.4246  0.4999
  327MOL0     C44047   8.422   6.160  10.527  0.5867 -0.5815 -0.2386
  327MOL0     C44048   8.552   6.083  10.499  0.1899  0.3740  0.7121
  327MOL0     C44049   8.674   6.177  10.458  0.2985  0.3217 -0.6702
  327MOL0     C44050   8.812   6.111  10.457 -0.3018  0.3825  0.2512
  327MOL0     C44051   8.928   6.200  10.403  0.6202  0.2614  0.1986
  327MOL0     C44052   8.928   6.210  10.246  0.0609 -1.1287 -0.0087
  327MOL0     C44053   9.002   6.331  10.199  0.7151  0.4032  0.7449
  327MOL0    Cl44054   9.029   6.345  10.027  0.0883 -0.0855  0.1173
  327MOL0     C44055   7.980   6.190  10.446 -0.0326 -0.1271 -0.1861
  327MOL0     C44056   7.839   6.179  10.465 -0.3296  0.4229  0.1852
  327MOL0     O44057   7.646   5.891  10.694 -0.6715  0.8257  0.5548
  327MOL0     C44058   7.369   6.061  10.544  0.6331 -0.1161 -0.5574
  327MOL0     C44059   7.240   6.030  10.493 -0.2028 -0.7592 -0.0024
  327MOL0     N44060   6.723   6.182  10.362 -0.4007 -0.1998  0.3405
  327MOL0     N44061   6.623   6.256  10.319  0.0753 -0.1539  0.1522
  327MOL0     C44062   5.488   6.264  10.149  0.1308  0.0974 -0.7335
  327MOL0     C44063   5.352   6.231  10.114 -0.5490  0.5233  0.3195
  327MOL0     C44064   4.908   6.334  10.114 -0.8826  0.1282 -0.1299
  327MOL0     C44065   4.877   6.420  10.008 -0.4424 -0.6200 -0.5595
  327MOL0     C44066   4.750   6.465  10.000  0.4988 -0.2999 -0.2243
  327MOL0     C44067   4.646   6.425  10.092  0.1684  0.5151 -0.0359
  327MOL0     O44068   4.517   6.460  10.085 -0.1961 -0.0728  0.1998
  327MOL0     C44069   4.485   6.555   9.982 -0.3200 -0.0553  0.7937
  327MOL0     C44070   4.337   6.583   9.981 -0.0439  0.6525 -1.1141
  327MOL0     C44071   4.241   6.468  10.010 -0.2399 -0.3279 -0.2356
  327MOL0     C44072   4.097   6.513  10.021 -0.1414 -0.7125  0.2932
  327MOL0     C44073   4.047   6.578   9.900  0.7272 -0.9655  0.5064
  327MOL0     C44074   4.003   6.629   9.801  0.3571 -0.2814  1.0748
  327MOL0     C44075   4.683   6.334  10.186  0.9421 -0.3032 -0.1816
  327MOL0     C44076   4.808   6.282  10.201  0.6747 -0.0190 -0.2304
  327MOL0     C44077   4.823   6.177  10.310 -0.0256  0.1724  1.6066
  327MOL0     H44078   5.241   6.545  10.044 -2.3481 -2.4530  0.2971
  327MOL0     H44079   5.477   6.606  10.111 -1.4618  0.8405 -2.5706
  327MOL0     H44080   5.593   6.580  10.317 -0.0924 -1.7882 -0.3324
  327MOL0     H44081   5.693   6.454  10.396  0.6114 -0.3830 -0.2564
  327MOL0     H44082   5.829   6.658  10.356 -0.5871 -2.6031  1.9452
  327MOL0     H44083   5.813   6.635  10.179 -2.1159 -3.5694 -1.6372
  327MOL0     H44084   5.928   6.424  10.197 -1.6662  1.2423 -0.7747
  327MOL0     H44085   5.904   6.419  10.371  0.1691 -0.2403 -0.5892
  327MOL0     H44086   6.046   6.651  10.225 -1.3963  0.9654  0.0232
  327MOL0     H44087   6.045   6.622  10.397 -1.9925 -0.4546 -0.1689
  327MOL0     H44088   6.189   6.420  10.195 -0.9653 -0.0939 -0.9161
  327MOL0     H44089   6.259   6.552  10.259  0.0265 -1.0031 -2.5274
  327MOL0     H44090   6.218   6.450  10.498  2.3572 -0.2677  0.3298
  327MOL0     H44091   6.133   6.316  10.426 -2.1329  1.2134 -0.7516
  327MOL0     H44092   6.402   6.291  10.481  1.9009  1.4991 -0.9896
  327MOL0     H44093   6.418   6.417  10.363  0.6827 -0.1285  2.0259
  327MOL0     H44094   6.314   6.133  10.313 -1.3270  0.5494 -1.8737
  327MOL0     H44095   6.343   6.250  10.181 -0.8753  1.3413  0.3625
  327MOL0     H44096   6.484   5.963  10.344  0.4781 -0.3961  1.5065
  327MOL0     H44097   6.828   5.988  10.525 -0.1077  1.8350 -0.4110
  327MOL0     H44098   6.666   5.922  10.547 -0.0021 -0.0958 -0.2143
  327MOL0     H44099   6.811   5.742  10.443 -1.0401  0.0911  0.9866
  327MOL0     H44100   6.699   5.801  10.319  2.4312  0.5959 -2.3866
  327MOL0     H44101   6.856   5.911  10.196  0.0647 -2.2467 -1.8866
  327MOL0     H44102   6.941   5.761  10.247 -0.3918 -1.4221  2.8062
  327MOL0     H44103   6.960   6.035  10.372 -0.6449  0.3847  0.4540
  327MOL0     H44104   7.079   5.958  10.268 -1.8435  0.1689 -1.4961
  327MOL0     H44105   7.222   5.705  10.600 -0.1255  0.2894  1.1847
  327MOL0     H44106   7.462   5.760  10.642  1.0895  0.1132 -0.7681
  327MOL0     H44107   7.846   5.987  10.758 -0.7467 -1.4735  0.3650
  327MOL0     H44108   8.085   5.993  10.713 -0.2707  1.0829 -0.0410
  327MOL0     H44109   8.282   6.087  10.675 -0.7700 -0.1294  0.3947
  327MOL0     H44110   8.293   5.974  10.539  0.7745 -1.2389  3.0360
  327MOL0     H44111   8.402   6.218  10.437 -3.3195 -0.5213  0.4917
  327MOL0     H44112   8.443   6.237  10.602  1.8961  0.9060 -2.0712
  327MOL0     H44113   8.594   6.040  10.591 -1.1894 -1.8661  0.3623
  327MOL0     H44114   8.528   6.001  10.431  3.1770 -3.8976  4.2239
  327MOL0     H44115   8.683   6.256  10.533  1.5125  2.5340 -3.0119
  327MOL0     H44116   8.650   6.219  10.361 -0.9732 -2.0713 -1.4792
  327MOL0     H44117   8.797   6.019  10.400  0.1711  0.1144  0.5552
  327MOL0     H44118   8.847   6.096  10.559  0.6203  1.1233  0.0523
  327MOL0     H44119   8.913   6.298  10.451  0.8375  0.9821 -1.1679
  327MOL0     H44120   9.027   6.168  10.437  0.6179 -0.2928 -0.3153
  327MOL0     H44121   8.821   6.213  10.224 -0.1185 -1.2370  0.8157
  327MOL0     H44122   8.960   6.115  10.202 -0.2703 -1.6531  0.8593
  327MOL0     H44123   8.948   6.422  10.225  0.0279 -0.0116  0.7757
  327MOL0     H44124   9.101   6.347  10.242  0.3790  2.7966  0.7542
  327MOL0     H44125   8.007   6.249  10.359 -1.3557  0.3664 -0.2947
  327MOL0     H44126   7.757   6.201  10.397 -1.7158  0.6177  1.8396
  327MOL0     H44127   7.392   6.165  10.528  0.4816 -0.5103 -4.2124
  327MOL0     H44128   7.198   6.112  10.435  2.4387  0.6750 -0.0364
  327MOL0     H44129   5.556   6.188  10.187 -2.5465 -0.4087  3.8036
  327MOL0     H44130   5.315   6.131  10.093  2.5351 -0.2548 -2.1365
  327MOL0     H44131   4.951   6.461   9.940 -1.6218  1.5569 -0.6231
  327MOL0     H44132   4.729   6.533   9.918 -1.9563  1.4537  1.7290
  327MOL0     H44133   4.500   6.520   9.880 -1.8485 -0.1463  0.5782
  327MOL0     H44134   4.534   6.652   9.999  0.6137 -0.3002 -0.3651
  327MOL0     H44135   4.314   6.621   9.881 -0.2805  0.7892 -1.0084
  327MOL0     H44136   4.331   6.667  10.050  0.5611 -2.0755  2.5584
  327MOL0     H44137   4.280   6.421  10.100  0.4786  1.0703  0.2107
  327MOL0     H44138   4.252   6.399   9.925  1.0004  1.8326 -1.9586
  327MOL0     H44139   4.050   6.414  10.021  1.0531 -1.3015  1.3439
  327MOL0     H44140   4.084   6.573  10.112 -0.9569 -1.4291  0.6607
  327MOL0     H44141   3.969   6.666   9.707  1.0368 -0.0733  0.9019
  327MOL0     H44142   4.597   6.289  10.237  1.3769 -0.6512  0.2566
  327MOL0     H44143   4.893   6.100  10.277 -1.9015 -0.9062 -0.0560
  327MOL0     H44144   4.866   6.224  10.399 -2.7843  1.3035  2.4403
  327MOL0     H44145   4.731   6.124  10.334 -0.9232 -0.2842 -2.1926
  328MOL0     O44146   4.923   8.934   2.921  0.4225 -0.2137 -0.2102
  328MOL0     C44147   4.867   9.015   2.991  0.3385  0.6296  0.6722
  328MOL0     O44148   4.922   9.099   3.081 -0.0676 -0.4213 -0.1961
  328MOL0     C44149   5.057   9.100   3.094 -0.2156  0.3909 -0.1617
  328MOL0     C44150   5.147   8.993   3.089  0.2920  1.3252  0.5382
  328MOL0     C44151   5.281   9.000   3.115 -0.6441  0.4991 -0.0384
  328MOL0     C44152   5.328   9.127   3.157 -0.5799 -0.6540  0.3986
  328MOL0     O44153   5.470   9.153   3.172  0.2161 -0.1223 -0.7840
  328MOL0     C44154   5.553   9.035   3.182 -0.1104  0.0947  0.3032
  328MOL0     C44155   5.691   9.081   3.244 -0.1612  0.2807  0.2154
  328MOL0     C44156   5.758   9.163   3.135 -0.2698 -0.4777 -0.4297
  328MOL0     C44157   5.896   9.214   3.177 -0.3019  0.1983  0.3858
  328MOL0     C44158   5.965   9.295   3.057  0.3567 -0.0210  0.3519
  328MOL0     C44159   6.107   9.336   3.099 -0.8730 -0.5816  0.0168
  328MOL0     C44160   6.170   9.414   2.989  0.2838 -0.4070  0.5626
  328MOL0     C44161   6.131   9.556   2.982 -0.1363  0.0730  0.5879
  328MOL0     N44162   6.219   9.633   2.891  0.1764  0.1098 -0.4410
  328MOL0     C44163   6.352   9.638   2.883  0.0419  0.0407 -0.8470
  328MOL0     C44164   6.373   9.705   2.776  0.0910  0.3064  0.8251
  328MOL0     C44165   6.513   9.731   2.717 -0.1209  0.6182  0.0157
  328MOL0     C44166   6.543   9.875   2.687  0.3117 -0.0173  0.1548
  328MOL0     C44167   6.689   9.888   2.663  0.2278 -0.1614  0.1077
  328MOL0     C44168   6.734  10.010   2.592 -0.2893  0.2455  0.0513
  328MOL0     O44169   6.876  10.020   2.595  0.0007  0.8062  0.5052
  328MOL0     C44170   6.932  10.138   2.555  0.3093 -0.6648  0.3800
  328MOL0     C44171   6.860  10.243   2.500 -0.5837  0.3132 -0.5252
  328MOL0     C44172   6.927  10.345   2.444  0.0240 -0.2472  1.2661
  328MOL0     C44173   7.068  10.364   2.449 -0.2498  0.3249  0.1916
  328MOL0     C44174   7.150  10.473   2.384  0.5747  0.2442  0.4042
  328MOL0     O44175   7.278  10.456   2.385  0.4812  0.4520 -0.1655
  328MOL0     C44176   7.351  10.546   2.319  0.0228  0.2169  0.7415
  328MOL0     C44177   7.423  10.642   2.393 -0.1969 -0.3202 -0.3060
  328MOL0     C44178   7.506  10.739   2.325  0.3701 -0.0440  0.2486
  328MOL0     C44179   7.525  10.740   2.183  0.0928 -0.6354 -0.1191
  328MOL0     O44180   7.608  10.830   2.118  0.4641  0.4102  0.1561
  328MOL0     C44181   7.728  10.883   2.180  1.0435  0.3294 -0.1529
  328MOL0     C44182   7.719  11.027   2.187 -1.1865  0.1953 -0.1430
  328MOL0     C44183   7.846  11.105   2.241  0.2024 -0.2207 -0.6616
  328MOL0     C44184   7.979  11.056   2.178  0.2918 -0.1456  0.4898
  328MOL0     C44185   8.103  11.135   2.233 -0.0027 -0.4437 -0.1238
  328MOL0     C44186   8.240  11.088   2.167  0.4026  0.1335  0.5741
  328MOL0     C44187   8.367  11.171   2.204 -0.4533 -0.0728  0.3934
  328MOL0     C44188   8.474  11.155   2.101 -0.5619 -0.4585  0.3645
  328MOL0    Cl44189   8.606  11.251   2.164  0.0018 -0.7711  0.0215
  328MOL0     C44190   7.442  10.647   2.108 -0.0051 -0.4856  0.0595
  328MOL0     C44191   7.373  10.543   2.180  0.0666  0.1933 -1.0894
  328MOL0     O44192   7.089  10.569   2.339 -0.2630  0.1930  0.4335
  328MOL0     C44193   7.135  10.265   2.530  0.1977 -0.1845 -0.0684
  328MOL0     C44194   7.066  10.154   2.572 -0.0324 -0.0867 -0.4963
  328MOL0     N44195   6.248   9.749   2.730  0.0116  0.2110  0.7750
  328MOL0     N44196   6.154   9.693   2.797 -0.4932 -0.1071  0.3560
  328MOL0     C44197   5.245   9.241   3.155 -0.1493 -0.2811 -0.1562
  328MOL0     C44198   5.108   9.225   3.128 -0.3603 -0.2301  0.1036
  328MOL0     C44199   4.708   9.005   2.983 -0.3950  0.5691  0.0862
  328MOL0     C44200   4.648   8.888   2.937 -0.6333  0.1917 -1.1106
  328MOL0     C44201   4.507   8.880   2.941  0.3861 -0.6080 -0.0476
  328MOL0     C44202   4.430   8.985   2.991  0.9801 -0.6564 -0.0743
  328MOL0     O44203   4.299   8.965   2.993  0.5423 -1.0973 -0.5401
  328MOL0     C44204   4.205   9.069   3.047  0.1312  0.2407 -0.7021
  328MOL0     C44205   4.064   9.011   3.038  0.2958  0.7116  0.1259
  328MOL0     C44206   4.073   8.858   3.074 -0.0212 -0.2343 -0.0276
  328MOL0     C44207   3.944   8.785   3.071 -1.0859 -0.4740  0.1772
  328MOL0     C44208   3.870   8.787   2.945  0.2858 -0.3799  0.5097
  328MOL0     C44209   3.824   8.783   2.834 -0.3429  0.0224  0.3581
  328MOL0     C44210   4.488   9.096   3.041 -0.3194 -0.4231 -0.8084
  328MOL0     C44211   4.630   9.114   3.029  0.3373  0.4279 -0.2421
  328MOL0     C44212   4.686   9.253   3.065  0.6117  0.2387  0.7305
  328MOL0     H44213   5.113   8.895   3.057  7.6509 -1.1719 -1.6846
  328MOL0     H44214   5.345   8.913   3.108 -3.2009 -1.6487  1.2735
  328MOL0     H44215   5.510   8.972   3.260 -1.1222  0.2075 -0.1476
  328MOL0     H44216   5.566   8.972   3.094 -2.7742 -2.5088  1.6190
  328MOL0     H44217   5.758   9.002   3.278  1.1829  1.0833 -0.4981
  328MOL0     H44218   5.676   9.149   3.328  2.3130  4.0239 -2.0788
  328MOL0     H44219   5.687   9.240   3.104 -3.0802 -2.6840  0.1386
  328MOL0     H44220   5.751   9.110   3.039 -2.2016  2.0968 -1.8498
  328MOL0     H44221   5.889   9.282   3.263  2.9648  4.1819 -2.1169
  328MOL0     H44222   5.963   9.129   3.193 -2.2531 -1.8002 -1.3460
  328MOL0     H44223   5.970   9.242   2.961 -0.8593 -0.1895  0.3738
  328MOL0     H44224   5.907   9.385   3.031  2.1662  1.4918  1.3184
  328MOL0     H44225   6.108   9.405   3.184 -0.8510  1.0726 -1.2724
  328MOL0     H44226   6.170   9.254   3.135  2.2607  1.7189  0.2718
  328MOL0     H44227   6.162   9.362   2.894  0.1992 -0.8960  0.8331
  328MOL0     H44228   6.275   9.426   3.017  0.2481  0.5746  0.3021
  328MOL0     H44229   6.025   9.558   2.955  0.1518  2.4330 -0.6215
  328MOL0     H44230   6.145   9.603   3.080  1.8644 -0.1729  0.4554
  328MOL0     H44231   6.427   9.574   2.928 -0.0607 -0.6711 -1.6549
  328MOL0     H44232   6.596   9.685   2.771  1.6084  0.9083 -2.2185
  328MOL0     H44233   6.513   9.667   2.628  0.8369 -0.3146  0.6731
  328MOL0     H44234   6.487   9.908   2.599 -1.7076  2.3661  2.1819
  328MOL0     H44235   6.513   9.944   2.767  2.0398 -2.2233  2.8693
  328MOL0     H44236   6.717   9.809   2.593 -2.3704  0.3206 -1.5836
  328MOL0     H44237   6.747   9.875   2.755 -1.7522  0.7450  1.5417
  328MOL0     H44238   6.685  10.094   2.643 -0.3818  0.7884 -0.9038
  328MOL0     H44239   6.695  10.022   2.491 -0.9679  0.4427  0.3318
  328MOL0     H44240   6.755  10.239   2.474 -0.8799 -0.8365  0.7205
  328MOL0     H44241   6.864  10.407   2.381 -0.9070 -1.6712  0.7606
  328MOL0     H44242   7.420  10.635   2.501 -2.1795 -2.8946 -0.4143
  328MOL0     H44243   7.554  10.823   2.375  0.7959 -0.7642  1.0862
  328MOL0     H44244   7.738  10.844   2.282  2.8053  0.8929 -0.0838
  328MOL0     H44245   7.814  10.856   2.119  1.9916  0.3773  1.1269
  328MOL0     H44246   7.708  11.063   2.084 -1.9889  0.3469 -0.0132
  328MOL0     H44247   7.625  11.062   2.232 -0.0005  3.3641  0.1172
  328MOL0     H44248   7.819  11.207   2.212 -3.1423 -0.8894 -0.3051
  328MOL0     H44249   7.858  11.105   2.350  0.9048  3.1502 -0.6334
  328MOL0     H44250   7.966  11.070   2.071 -2.0887  1.0690  0.8558
  328MOL0     H44251   7.984  10.950   2.202 -1.8650 -0.1995  0.9358
  328MOL0     H44252   8.112  11.141   2.342 -0.0564  1.8193 -0.2038
  328MOL0     H44253   8.088  11.239   2.205  0.6194 -0.4406 -0.4692
  328MOL0     H44254   8.257  10.984   2.194 -3.4758 -1.1984 -1.4212
  328MOL0     H44255   8.216  11.084   2.060  2.7801 -4.4351 -0.0263
  328MOL0     H44256   8.423  11.129   2.288  0.0868  0.1623  0.1545
  328MOL0     H44257   8.343  11.276   2.223 -1.4988 -0.7805  3.7897
  328MOL0     H44258   8.503  11.050   2.097 -2.0791 -0.8871 -0.0254
  328MOL0     H44259   8.439  11.179   1.999  2.5249  0.1446 -0.6505
  328MOL0     H44260   7.444  10.664   2.001 -2.0341  0.7662  0.1825
  328MOL0     H44261   7.311  10.477   2.120  0.3410  0.4137 -1.6282
  328MOL0     H44262   7.241  10.270   2.552  0.2504  0.5448 -0.4629
  328MOL0     H44263   7.115  10.074   2.626  0.5087 -1.1937 -2.5187
  328MOL0     H44264   5.285   9.341   3.170 -0.7825  0.3959 -2.5547
  328MOL0     H44265   5.052   9.316   3.114  1.4311  0.7187 -1.3820
  328MOL0     H44266   4.708   8.805   2.902 -0.4878 -0.9359  1.5590
  328MOL0     H44267   4.452   8.795   2.902  0.1914 -2.0863  3.1464
  328MOL0     H44268   4.217   9.165   2.996 -1.8092  0.3317 -1.0369
  328MOL0     H44269   4.229   9.103   3.148  3.5560  6.3267 -2.9883
  328MOL0     H44270   4.025   9.001   2.936 -0.9404 -2.6848  0.7676
  328MOL0     H44271   3.993   9.067   3.100  0.2181  1.1209 -0.3299
  328MOL0     H44272   4.114   8.845   3.175  1.0854 -0.0911 -0.4498
  328MOL0     H44273   4.139   8.803   3.006 -1.1739 -1.6640 -0.0407
  328MOL0     H44274   3.959   8.679   3.094 -1.0849 -0.6974 -0.7988
  328MOL0     H44275   3.881   8.828   3.149 -1.1594 -1.6454  0.7804
  328MOL0     H44276   3.786   8.799   2.735  0.6476 -0.2513 -0.0732
  328MOL0     H44277   4.427   9.166   3.097  0.8381 -1.0410  1.3208
  328MOL0     H44278   4.710   9.243   3.171 -0.5036 -1.5277  0.8637
  328MOL0     H44279   4.773   9.276   3.002 -0.8786 -0.5067 -1.7504
  328MOL0     H44280   4.613   9.333   3.053  3.1860  2.3946 -2.3689
  329MOL0     O44281   5.024   5.281   0.810 -0.3643 -0.0421  0.0477
  329MOL0     C44282   5.000   5.223   0.711  0.0179 -0.8122  0.0499
  329MOL0     O44283   5.084   5.227   0.598 -0.4882  0.1280 -0.3510
  329MOL0     C44284   5.219   5.248   0.628 -0.3100 -0.6215 -0.4806
  329MOL0     C44285   5.284   5.221   0.752 -1.0468 -0.1174  0.1093
  329MOL0     C44286   5.419   5.251   0.774  0.3849  0.3143 -0.3062
  329MOL0     C44287   5.496   5.289   0.662  0.0896  0.6203 -0.3920
  329MOL0     O44288   5.632   5.286   0.693  0.0089 -0.5878  0.6227
  329MOL0     C44289   5.712   5.320   0.580  0.6227 -0.0625 -0.1607
  329MOL0     C44290   5.861   5.330   0.620  0.4050  0.4497  0.1130
  329MOL0     C44291   5.948   5.385   0.502 -0.3096 -0.1146  0.0884
  329MOL0     C44292   6.099   5.385   0.539 -0.1034 -0.6807 -0.3963
  329MOL0     C44293   6.198   5.427   0.427  0.2840 -0.7687 -1.3462
  329MOL0     C44294   6.339   5.466   0.472  0.5351 -0.0838 -0.5790
  329MOL0     C44295   6.424   5.346   0.499 -0.3513  0.4959 -0.7781
  329MOL0     C44296   6.567   5.365   0.559 -0.4559  0.4834 -0.1964
  329MOL0     N44297   6.671   5.434   0.476 -0.3968  0.8587 -0.0441
  329MOL0     C44298   6.710   5.566   0.474 -0.2912  0.4077 -0.3550
  329MOL0     C44299   6.797   5.567   0.370 -0.2960  0.5938 -1.1864
  329MOL0     C44300   6.884   5.676   0.321  0.9785  0.1557 -0.1125
  329MOL0     C44301   7.017   5.684   0.395  0.4795 -0.2596 -0.4140
  329MOL0     C44302   7.090   5.555   0.383 -0.1615  0.3657 -0.2212
  329MOL0     C44303   7.236   5.581   0.433  0.0324 -0.5934 -0.5912
  329MOL0     O44304   7.313   5.655   0.338  0.2741  0.0982 -0.5978
  329MOL0     C44305   7.451   5.630   0.335 -0.3163 -0.1814  0.6226
  329MOL0     C44306   7.505   5.627   0.208  0.0644  0.7222  0.7250
  329MOL0     C44307   7.642   5.627   0.187  0.1371 -0.5593  0.3520
  329MOL0     C44308   7.722   5.607   0.301 -0.9716 -0.2355  0.8055
  329MOL0     C44309   7.872   5.607   0.280 -0.5974  0.0675 -0.4138
  329MOL0     O44310   7.920   5.680   0.178 -0.0777  0.0403  0.5239
  329MOL0     C44311   8.051   5.654   0.135 -1.1543 -0.2067  1.0637
  329MOL0     C44312   8.062   5.617   0.002  0.7887 -0.2950  0.4267
  329MOL0     C44313   8.184   5.611  -0.059 -0.5982  0.2273  0.4211
  329MOL0     C44314   8.303   5.648   0.005  0.4939 -0.7373 -0.8481
  329MOL0     O44315   8.432   5.623  -0.027 -0.4635 -0.3337 -0.4320
  329MOL0     C44316   8.471   5.490  -0.019  0.0043 -0.4315 -1.4257
  329MOL0     C44317   8.613   5.476  -0.049 -0.3893  0.1721  0.4700
  329MOL0     C44318   8.716   5.558   0.029  0.6164 -0.2528 -0.2113
  329MOL0     C44319   8.731   5.694  -0.038  0.1469  0.2177 -0.1366
  329MOL0     C44320   8.856   5.767   0.028 -0.6167 -0.3207 -0.0400
  329MOL0     C44321   8.853   5.911  -0.023 -0.4861  0.1613  0.1994
  329MOL0     C44322   8.988   5.989   0.010  0.4232  0.4958 -0.4146
  329MOL0     C44323   8.975   6.130  -0.052  0.5236  0.3588  0.2228
  329MOL0    Cl44324   9.133   6.222  -0.025 -0.3650 -0.3331 -0.3452
  329MOL0     C44325   8.288   5.694   0.141 -0.0226  0.2972 -0.1129
  329MOL0     C44326   8.167   5.699   0.206 -0.9106 -0.4351  1.2866
  329MOL0     O44327   7.944   5.533   0.348  0.6969  0.1337  0.5781
  329MOL0     C44328   7.674   5.602   0.426  0.9700  0.3640 -0.4672
  329MOL0     C44329   7.536   5.623   0.446 -0.5268  0.0515  0.7268
  329MOL0     N44330   6.811   5.452   0.306 -0.3197 -0.0377  0.0115
  329MOL0     N44331   6.733   5.371   0.364  0.3304 -1.2483  0.6453
  329MOL0     C44332   5.431   5.327   0.538  0.3673  0.5008  0.8954
  329MOL0     C44333   5.296   5.307   0.524  0.6738 -0.9152  0.3281
  329MOL0     C44334   4.873   5.152   0.692 -0.3935 -0.3939 -0.4421
  329MOL0     C44335   4.821   5.109   0.573 -0.3060  0.2085 -0.1665
  329MOL0     C44336   4.695   5.053   0.554  0.6286 -0.3500  0.3576
  329MOL0     C44337   4.606   5.044   0.655  0.5496  0.1922  0.1033
  329MOL0     O44338   4.479   4.989   0.648 -0.1698 -0.5286  0.2260
  329MOL0     C44339   4.423   4.946   0.521 -0.4155  0.0822 -0.2097
  329MOL0     C44340   4.271   4.981   0.531  0.7063  0.2142  0.9407
  329MOL0     C44341   4.204   4.873   0.618  0.0213 -0.3881 -0.1710
  329MOL0     C44342   4.055   4.887   0.594 -0.1254 -1.0365  0.0659
  329MOL0     C44343   3.992   4.811   0.698  0.2500  0.4526 -0.0720
  329MOL0     C44344   3.942   4.750   0.785 -0.1983 -0.3178 -0.5693
  329MOL0     C44345   4.653   5.081   0.780  0.8242  0.5346  0.3838
  329MOL0     C44346   4.784   5.126   0.804 -0.2190 -0.0870  0.2903
  329MOL0     C44347   4.817   5.157   0.944  1.0743 -0.4073 -0.1528
  329MOL0     H44348   5.238   5.178   0.840  0.9755 -1.9760  0.3585
  329MOL0     H44349   5.464   5.227   0.870  1.8353 -3.8907 -1.7645
  329MOL0     H44350   5.709   5.232   0.515 -0.9617  2.6561 -4.1378
  329MOL0     H44351   5.684   5.403   0.515  1.1115 -0.3190 -0.7055
  329MOL0     H44352   5.894   5.232   0.654 -0.8648  0.0468  0.1984
  329MOL0     H44353   5.871   5.395   0.708 -2.4276  0.0271  0.8366
  329MOL0     H44354   5.909   5.482   0.470 -1.1068 -0.8330 -1.1939
  329MOL0     H44355   5.945   5.315   0.418  2.0195 -0.2315  0.0327
  329MOL0     H44356   6.107   5.468   0.609  1.8290 -1.0902 -0.0879
  329MOL0     H44357   6.135   5.289   0.577  3.1890 -1.1086 -3.9456
  329MOL0     H44358   6.196   5.337   0.364 -2.5957 -0.1697 -2.2861
  329MOL0     H44359   6.147   5.499   0.363 -0.0972  0.2699  0.0886
  329MOL0     H44360   6.388   5.513   0.386 -1.6565  1.4673 -1.0667
  329MOL0     H44361   6.328   5.544   0.548  0.5322  0.8773 -1.5354
  329MOL0     H44362   6.441   5.291   0.405 -0.5364 -2.4789  0.8146
  329MOL0     H44363   6.375   5.270   0.561 -0.0900  1.7476  1.0184
  329MOL0     H44364   6.564   5.412   0.657 -0.5501  2.3438 -1.0447
  329MOL0     H44365   6.586   5.257   0.567 -0.2986  0.5382  0.1497
  329MOL0     H44366   6.675   5.649   0.534 -0.1261  1.2853 -1.4500
  329MOL0     H44367   6.889   5.664   0.213 -2.3938 -3.9920 -0.0503
  329MOL0     H44368   6.835   5.770   0.350 -1.7805 -1.0296 -0.7167
  329MOL0     H44369   7.076   5.758   0.341 -0.1312  1.3021  0.9513
  329MOL0     H44370   7.003   5.712   0.500  0.5377  0.2307 -0.5366
  329MOL0     H44371   7.081   5.526   0.278 -0.4970 -1.2578  0.2241
  329MOL0     H44372   7.054   5.470   0.441  2.3491 -1.0111 -0.5098
  329MOL0     H44373   7.282   5.483   0.450  2.8943  0.3399 -2.2657
  329MOL0     H44374   7.243   5.632   0.530  2.3496  0.5893 -1.2891
  329MOL0     H44375   7.445   5.636   0.118 -1.4522  0.7538  1.7224
  329MOL0     H44376   7.674   5.648   0.085 -1.1267 -2.0463 -0.4058
  329MOL0     H44377   7.966   5.600  -0.045 -0.2511 -0.1191  2.3791
  329MOL0     H44378   8.184   5.569  -0.159  1.2506 -0.6860  0.7579
  329MOL0     H44379   8.451   5.449   0.081 -0.7131  0.2399 -1.2856
  329MOL0     H44380   8.423   5.427  -0.094  0.2583 -0.3416 -1.6632
  329MOL0     H44381   8.641   5.371  -0.036 -0.8303 -0.3192 -2.0196
  329MOL0     H44382   8.628   5.496  -0.155  1.0683  2.2854  1.0085
  329MOL0     H44383   8.699   5.562   0.137  0.6725 -1.3795 -0.1514
  329MOL0     H44384   8.809   5.502   0.019  0.1064 -0.8809 -1.7851
  329MOL0     H44385   8.639   5.752  -0.028 -0.0572 -0.3031  1.1612
  329MOL0     H44386   8.750   5.685  -0.146 -1.5131 -2.3156 -0.3136
  329MOL0     H44387   8.953   5.729  -0.003 -0.2422  3.0618 -3.8131
  329MOL0     H44388   8.839   5.749   0.135  1.1982  0.3774  0.4111
  329MOL0     H44389   8.839   5.911  -0.131  0.4773  1.5396  0.0392
  329MOL0     H44390   8.773   5.968   0.026 -2.9172 -1.2357 -1.8946
  329MOL0     H44391   9.079   5.941  -0.027  1.9083  1.7850  1.3785
  329MOL0     H44392   9.003   6.000   0.118 -0.5465 -0.5461 -0.1593
  329MOL0     H44393   8.958   6.118  -0.159  1.2613 -1.6476  0.2708
  329MOL0     H44394   8.903   6.194  -0.000  2.4952  2.5095  0.4601
  329MOL0     H44395   8.376   5.727   0.194  0.4338  3.3855 -2.5156
  329MOL0     H44396   8.161   5.731   0.309 -3.5840 -0.3477  1.1875
  329MOL0     H44397   7.744   5.593   0.508  0.7409  2.5288  0.0127
  329MOL0     H44398   7.494   5.617   0.546 -0.0792  0.8507  0.9687
  329MOL0     H44399   5.489   5.363   0.454 -0.4311  1.7471  0.8598
  329MOL0     H44400   5.244   5.335   0.433  3.8353 -2.0232 -1.9757
  329MOL0     H44401   4.891   5.131   0.493  2.5156 -0.5902  1.8744
  329MOL0     H44402   4.664   5.019   0.455 -1.0388  0.4415  0.5637
  329MOL0     H44403   4.441   4.838   0.515 -1.8263 -0.3699  2.3389
  329MOL0     H44404   4.459   5.006   0.436  1.9971 -0.0984  0.6207
  329MOL0     H44405   4.224   4.960   0.435  0.4453  0.4897  1.0078
  329MOL0     H44406   4.247   5.081   0.566 -2.2087  1.3865 -3.5839
  329MOL0     H44407   4.238   4.895   0.720  0.3171 -1.8929  0.0690
  329MOL0     H44408   4.247   4.776   0.594  2.4060  0.5342  0.1191
  329MOL0     H44409   4.019   4.990   0.592 -0.5637 -1.1750  0.5239
  329MOL0     H44410   4.041   4.849   0.492  0.5161  1.0729 -0.8423
  329MOL0     H44411   3.900   4.679   0.854  0.1412 -2.3267 -2.3133
  329MOL0     H44412   4.592   5.050   0.864 -0.4476  0.2394 -0.6158
  329MOL0     H44413   4.744   5.099   1.002  1.3392 -0.4419  0.1426
  329MOL0     H44414   4.913   5.112   0.969  0.8709 -1.3537 -1.0073
  329MOL0     H44415   4.802   5.262   0.971  2.5592 -0.1179 -0.3993
  330MOL0     O44416   0.022   0.459   3.954 -0.3081  0.5489  0.0136
  330MOL0     C44417   0.025   0.521   4.062 -0.3974  0.4391  0.4535
  330MOL0     O44418   0.133   0.534   4.139 -0.5555 -0.1424 -0.0742
  330MOL0     C44419   0.256   0.541   4.078  0.0750  0.3992  0.3526
  330MOL0     C44420   0.283   0.618   3.964 -0.7298  0.0387  0.0769
  330MOL0     C44421   0.413   0.616   3.908 -0.1525 -0.4152  0.2222
  330MOL0     C44422   0.519   0.545   3.981  0.1257 -0.2624  0.7330
  330MOL0     O44423   0.654   0.555   3.928 -0.2185  0.2942  0.3814
  330MOL0     C44424   0.766   0.480   3.978 -0.6157  0.0385  0.1763
  330MOL0     C44425   0.838   0.558   4.088 -0.1386 -0.4350  0.2130
  330MOL0     C44426   0.993   0.535   4.108  0.1844 -0.5418 -0.3039
  330MOL0     C44427   1.039   0.397   4.126 -0.4550  0.7642  0.6291
  330MOL0     C44428   1.190   0.400   4.126 -0.3562 -0.1875 -0.3826
  330MOL0     C44429   1.253   0.262   4.153  0.0704 -0.4113 -0.1864
  330MOL0     C44430   1.399   0.255   4.150  0.0133  0.2648 -0.2534
  330MOL0     C44431   1.464   0.276   4.015 -0.3708  0.9420 -0.6223
  330MOL0     N44432   1.608   0.240   4.019  0.3582  0.4670  0.1558
  330MOL0     C44433   1.713   0.323   4.053 -0.0610 -0.7926  0.1066
  330MOL0     C44434   1.825   0.252   4.033  0.4753  1.0656  0.4081
  330MOL0     C44435   1.973   0.279   4.063  0.2052  0.2324  0.8579
  330MOL0     C44436   2.047   0.300   3.940 -0.6845 -0.1773  0.3954
  330MOL0     C44437   2.197   0.319   3.959 -1.0257 -0.7337  0.3381
  330MOL0     C44438   2.281   0.204   4.025  0.2619  0.3552  0.0236
  330MOL0     O44439   2.260   0.072   3.960  1.1555  0.1048  0.4941
  330MOL0     C44440   2.281   0.058   3.825  0.5019  0.8513 -0.0096
  330MOL0     C44441   2.180  -0.003   3.743 -0.4011  1.0761 -0.2659
  330MOL0     C44442   2.200  -0.034   3.603  0.2523 -0.1821  0.3421
  330MOL0     C44443   2.329   0.001   3.548  0.1467  0.3712  0.2929
  330MOL0     C44444   2.347  -0.020   3.404 -0.0687 -0.0012  0.6875
  330MOL0     O44445   2.471   0.009   3.347  0.4739 -0.0795 -0.1341
  330MOL0     C44446   2.525  -0.047   3.225 -0.2446  0.2515 -0.6904
  330MOL0     C44447   2.646   0.004   3.179 -0.6241  0.4207  0.4176
  330MOL0     C44448   2.709  -0.059   3.068  0.8646 -0.8351  0.9728
  330MOL0     C44449   2.655  -0.173   3.004  0.7248 -0.2273  0.1559
  330MOL0     O44450   2.717  -0.220   2.894  0.0279  0.7890 -0.4267
  330MOL0     C44451   2.635  -0.261   2.786  0.0822  0.7020  0.1900
  330MOL0     C44452   2.599  -0.141   2.698  0.3891 -0.0931  0.2668
  330MOL0     C44453   2.710  -0.121   2.595  0.4520  0.1689  0.3360
  330MOL0     C44454   2.671  -0.021   2.485  0.5156 -0.2939 -0.5872
  330MOL0     C44455   2.794   0.032   2.404 -0.6473 -0.5038 -0.0629
  330MOL0     C44456   2.895  -0.077   2.352 -0.3940 -0.6038 -0.4366
  330MOL0     C44457   3.002  -0.025   2.247 -0.3804 -0.3081 -0.6595
  330MOL0     C44458   3.084  -0.132   2.185 -0.1001  0.2598 -0.5211
  330MOL0    Cl44459   3.218  -0.180   2.303  0.2715  0.0218  0.0913
  330MOL0     C44460   2.525  -0.212   3.044 -0.2086  0.0436 -0.3408
  330MOL0     C44461   2.464  -0.152   3.156 -0.3266 -0.4861 -0.2673
  330MOL0     O44462   2.248  -0.050   3.340  0.5689  0.7553  0.3007
  330MOL0     C44463   2.427   0.054   3.632  0.4619  0.5398  0.6456
  330MOL0     C44464   2.406   0.088   3.766  0.4682 -0.0403  0.3914
  330MOL0     N44465   1.782   0.123   3.994 -0.0688  0.4749  0.2142
  330MOL0     N44466   1.656   0.126   3.972 -0.2773 -0.0211 -0.5676
  330MOL0     C44467   0.489   0.483   4.103 -1.2381 -0.4514 -0.1251
  330MOL0     C44468   0.361   0.484   4.152  0.0370  0.2629  0.1658
  330MOL0     C44469  -0.108   0.575   4.099 -0.0621 -0.2575  0.6507
  330MOL0     C44470  -0.114   0.714   4.110 -0.1167 -0.3162  0.2200
  330MOL0     C44471  -0.239   0.767   4.135  0.1563  0.1559  0.0261
  330MOL0     C44472  -0.348   0.695   4.182 -0.3412 -0.0538  0.4596
  330MOL0     O44473  -0.460   0.762   4.226  0.3833 -0.1634 -0.0597
  330MOL0     C44474  -0.570   0.676   4.257 -0.2259 -0.1358 -0.1079
  330MOL0     C44475  -0.706   0.752   4.260  0.1663  0.7213 -0.5290
  330MOL0     C44476  -0.761   0.801   4.394 -0.0814 -0.2869 -0.7629
  330MOL0     C44477  -0.893   0.871   4.364  0.1849  0.3088  0.8704
  330MOL0     C44478  -0.946   0.935   4.482  0.3242 -0.5326  0.4929
  330MOL0     C44479  -0.991   0.993   4.582 -0.3144  0.2606 -0.6573
  330MOL0     C44480  -0.333   0.555   4.172  0.5054 -0.4196 -0.1738
  330MOL0     C44481  -0.215   0.495   4.127 -0.2661 -0.2840  0.1572
  330MOL0     C44482  -0.211   0.345   4.126 -0.8791  0.8000  0.4363
  330MOL0     H44483   0.204   0.673   3.914 -1.7568 -1.8469 -0.4742
  330MOL0     H44484   0.434   0.675   3.819 -1.1659  1.3894  1.1040
  330MOL0     H44485   0.720   0.388   4.014 -0.1677  0.0563  0.8371
  330MOL0     H44486   0.839   0.460   3.899 -0.0329  2.5385 -0.0145
  330MOL0     H44487   0.781   0.543   4.181 -2.0382  3.5816 -0.1198
  330MOL0     H44488   0.820   0.666   4.082 -0.6930  0.0161  5.3142
  330MOL0     H44489   1.023   0.582   4.202 -1.6004  0.0544  0.0027
  330MOL0     H44490   1.046   0.577   4.022  1.7853 -1.4932  0.1754
  330MOL0     H44491   0.998   0.367   4.224  0.2163  3.0136  1.6574
  330MOL0     H44492   0.996   0.333   4.049  0.0289 -1.4168  2.0586
  330MOL0     H44493   1.214   0.434   4.025 -2.5423  0.2924 -0.7984
  330MOL0     H44494   1.221   0.482   4.192 -1.4075 -1.1471  1.3869
  330MOL0     H44495   1.219   0.224   4.249  2.3628 -1.1077  0.3974
  330MOL0     H44496   1.216   0.195   4.075  0.5016 -0.4215 -0.3824
  330MOL0     H44497   1.426   0.162   4.202  1.5685 -0.2907 -1.9400
  330MOL0     H44498   1.441   0.332   4.215  1.9275  0.6759 -1.8665
  330MOL0     H44499   1.407   0.216   3.943  0.0699 -1.2140  0.7399
  330MOL0     H44500   1.452   0.383   3.994  0.0432  1.3820  1.2120
  330MOL0     H44501   1.715   0.425   4.090  3.4843 -0.5764 -0.3602
  330MOL0     H44502   1.983   0.359   4.137 -1.2901 -0.3102  1.6740
  330MOL0     H44503   2.022   0.191   4.107  0.6061  1.2470  2.5591
  330MOL0     H44504   2.035   0.211   3.878 -0.3801 -0.9162  1.3778
  330MOL0     H44505   2.004   0.388   3.890 -0.7749 -1.3619 -1.7345
  330MOL0     H44506   2.203   0.404   4.027 -2.6917 -0.5562  0.2937
  330MOL0     H44507   2.241   0.350   3.864  4.2519 -5.0118  0.8792
  330MOL0     H44508   2.251   0.214   4.130  1.6582  2.3321  0.2946
  330MOL0     H44509   2.386   0.233   4.030 -0.2664  2.6074 -0.7902
  330MOL0     H44510   2.095  -0.049   3.793 -0.3865  3.2234  1.9047
  330MOL0     H44511   2.121  -0.090   3.554  2.6738 -0.7707 -3.2206
  330MOL0     H44512   2.698   0.086   3.228 -0.2495  1.1414 -1.1422
  330MOL0     H44513   2.809  -0.022   3.045  0.6323 -1.7944 -2.0789
  330MOL0     H44514   2.701  -0.333   2.736  1.2498  0.4611  1.9783
  330MOL0     H44515   2.545  -0.319   2.807 -0.1990  0.7019 -0.9385
  330MOL0     H44516   2.501  -0.161   2.655  0.8707  0.7733 -1.3100
  330MOL0     H44517   2.588  -0.050   2.756  0.2710  1.0684 -1.5074
  330MOL0     H44518   2.799  -0.095   2.655  0.3588  2.1556 -0.3335
  330MOL0     H44519   2.750  -0.215   2.556  0.5394 -0.6830  2.3194
  330MOL0     H44520   2.615   0.065   2.522 -0.5648 -1.8225  1.5641
  330MOL0     H44521   2.604  -0.085   2.428 -1.8287  0.7715  0.8302
  330MOL0     H44522   2.847   0.101   2.470 -1.9692  0.8223 -0.3395
  330MOL0     H44523   2.756   0.090   2.320  1.6722  0.2625 -0.6682
  330MOL0     H44524   2.943  -0.113   2.444 -0.0994  0.0115 -0.3466
  330MOL0     H44525   2.842  -0.163   2.310  2.1537 -1.4066 -2.2454
  330MOL0     H44526   3.072   0.050   2.285  0.0025 -0.8322 -0.3219
  330MOL0     H44527   2.944   0.016   2.164  0.3417  2.8447  0.2330
  330MOL0     H44528   3.023  -0.221   2.164  0.3820 -0.5698  1.3129
  330MOL0     H44529   3.135  -0.098   2.095  2.2350  0.4315  0.7970
  330MOL0     H44530   2.469  -0.290   2.994 -1.0725  0.5368 -0.1644
  330MOL0     H44531   2.365  -0.190   3.175 -0.8628  1.1497  0.4060
  330MOL0     H44532   2.526   0.071   3.592  0.2680 -2.5378 -1.4755
  330MOL0     H44533   2.491   0.125   3.822  0.6346  0.6700 -0.3179
  330MOL0     H44534   0.556   0.436   4.174 -0.3750  0.4071 -0.3516
  330MOL0     H44535   0.351   0.446   4.253 -0.9888  2.0967  0.8125
  330MOL0     H44536  -0.028   0.778   4.092  1.2713 -1.9030  0.9738
  330MOL0     H44537  -0.251   0.875   4.140  3.4480  0.5595  1.7961
  330MOL0     H44538  -0.565   0.623   4.353 -2.1368  0.2438  0.2449
  330MOL0     H44539  -0.582   0.604   4.176 -3.5310  0.6914 -0.4953
  330MOL0     H44540  -0.784   0.681   4.233  0.9220 -0.7197  0.9002
  330MOL0     H44541  -0.695   0.828   4.182 -1.6836 -0.1979 -1.7582
  330MOL0     H44542  -0.697   0.876   4.440 -0.0595  1.0136 -2.8050
  330MOL0     H44543  -0.793   0.724   4.466 -1.6356  1.0892  0.0915
  330MOL0     H44544  -0.868   0.945   4.288 -3.0409 -1.5248 -2.2802
  330MOL0     H44545  -0.973   0.806   4.327 -1.2792  2.3903  0.2055
  330MOL0     H44546  -1.029   1.050   4.665  2.1369  1.1597 -0.0748
  330MOL0     H44547  -0.412   0.489   4.206 -0.9350  1.4335  0.2579
  330MOL0     H44548  -0.308   0.301   4.149 -1.5131  2.6449  1.4383
  330MOL0     H44549  -0.186   0.305   4.027 -1.3953  0.1134  0.5786
  330MOL0     H44550  -0.131   0.304   4.189 -1.0961 -0.9347 -0.3497
  331MOL0     O44551   5.538   4.834   8.890  0.6474 -0.1448 -0.0183
  331MOL0     C44552   5.447   4.784   8.957 -0.6966 -0.2180  0.3389
  331MOL0     O44553   5.461   4.727   9.085 -0.5721 -0.0747  0.1225
  331MOL0     C44554   5.581   4.668   9.127  0.5538 -0.4105  0.2468
  331MOL0     C44555   5.583   4.620   9.256 -0.6832  0.8657 -0.6160
  331MOL0     C44556   5.706   4.588   9.315  0.0865  0.5770 -0.8984
  331MOL0     C44557   5.824   4.596   9.239 -0.4860 -0.9037  0.3535
  331MOL0     O44558   5.934   4.573   9.318  0.1797  0.6707 -0.6225
  331MOL0     C44559   6.054   4.543   9.244 -0.5759 -0.2347  0.8080
  331MOL0     C44560   6.147   4.467   9.340 -1.2644  0.3364  0.3763
  331MOL0     C44561   6.286   4.530   9.349  1.0278 -0.3611 -0.2550
  331MOL0     C44562   6.383   4.439   9.418  0.0569 -0.0969 -0.0073
  331MOL0     C44563   6.529   4.501   9.419  0.4308  0.7268 -0.7763
  331MOL0     C44564   6.639   4.418   9.482 -0.3020  0.0701 -0.3702
  331MOL0     C44565   6.767   4.486   9.459  0.2420 -0.2355 -0.4436
  331MOL0     C44566   6.778   4.618   9.546  0.8420  0.1957  0.0730
  331MOL0     N44567   6.912   4.677   9.542  0.3111 -0.0121 -0.3417
  331MOL0     C44568   6.959   4.747   9.437 -0.0449 -0.2424 -0.8066
  331MOL0     C44569   7.085   4.771   9.488  0.6991 -0.9865  0.0201
  331MOL0     C44570   7.187   4.850   9.411 -0.2467  0.2848 -0.4312
  331MOL0     C44571   7.296   4.758   9.354  0.5842  0.1948 -0.2223
  331MOL0     C44572   7.414   4.755   9.454  0.5326 -0.3189 -0.2269
  331MOL0     C44573   7.519   4.652   9.405  0.0992 -0.6333  0.0878
  331MOL0     O44574   7.612   4.697   9.312  0.1941  0.2989  0.2314
  331MOL0     C44575   7.706   4.786   9.353 -0.0098  0.0418 -0.8049
  331MOL0     C44576   7.720   4.847   9.477  0.7452  0.0570  0.0143
  331MOL0     C44577   7.808   4.953   9.499 -0.6219 -0.6009 -0.1604
  331MOL0     C44578   7.895   5.001   9.400 -0.1227  0.9814  1.1135
  331MOL0     C44579   7.992   5.115   9.413  0.0230  0.5330 -0.1879
  331MOL0     O44580   7.998   5.174   9.530 -0.4771  0.2025 -0.2181
  331MOL0     C44581   8.099   5.255   9.544 -0.4999 -0.3504  0.2634
  331MOL0     C44582   8.098   5.386   9.491  0.0012  0.2072 -0.0723
  331MOL0     C44583   8.202   5.469   9.514 -1.4214 -0.0260  0.6950
  331MOL0     C44584   8.303   5.431   9.595 -0.7198 -0.4128  0.2758
  331MOL0     O44585   8.408   5.523   9.623 -0.4424 -0.0835 -0.3548
  331MOL0     C44586   8.462   5.601   9.525  0.0724 -0.3252  1.1645
  331MOL0     C44587   8.605   5.649   9.567 -0.0404  0.1499  0.8227
  331MOL0     C44588   8.703   5.532   9.589 -0.0069 -0.1376  0.1676
  331MOL0     C44589   8.768   5.479   9.456 -0.0760 -0.4602 -0.1134
  331MOL0     C44590   8.878   5.376   9.491 -0.1713 -0.3367 -0.2974
  331MOL0     C44591   8.960   5.321   9.367  0.0175  0.1924 -0.7260
  331MOL0     C44592   9.015   5.428   9.272 -0.2690 -0.6124 -0.7339
  331MOL0     C44593   9.126   5.514   9.337  0.0914  0.8201 -0.2355
  331MOL0    Cl44594   9.164   5.650   9.229  0.6068  0.2830 -0.1197
  331MOL0     C44595   8.313   5.307   9.647  0.0437  0.6205 -0.5578
  331MOL0     C44596   8.207   5.218   9.629  0.8552 -0.3547  0.5874
  331MOL0     O44597   8.061   5.141   9.316  0.2424 -0.3658 -0.2712
  331MOL0     C44598   7.884   4.939   9.281 -0.3631 -0.3505 -0.4020
  331MOL0     C44599   7.797   4.836   9.258 -0.4867 -0.6999  0.0527
  331MOL0     N44600   7.109   4.728   9.615  0.9372  0.5992 -0.0845
  331MOL0     N44601   6.998   4.678   9.650  0.4537 -0.0361 -0.7889
  331MOL0     C44602   5.819   4.619   9.100  0.4858  0.2532  0.3595
  331MOL0     C44603   5.697   4.663   9.054 -0.0339 -0.5333  0.5156
  331MOL0     C44604   5.318   4.788   8.896 -0.1972 -0.0590  0.4697
  331MOL0     C44605   5.224   4.698   8.951  0.1055 -0.9468 -0.1784
  331MOL0     C44606   5.103   4.688   8.900  0.5400  0.1617  0.1864
  331MOL0     C44607   5.062   4.760   8.790 -0.2474 -0.4130  0.0842
  331MOL0     O44608   4.931   4.742   8.744 -0.0224 -0.1334  0.6234
  331MOL0     C44609   4.854   4.861   8.775  0.1856  0.2378  0.2641
  331MOL0     C44610   4.708   4.833   8.734 -0.5835 -0.4056 -0.3769
  331MOL0     C44611   4.642   4.724   8.815 -0.1621 -0.1019 -0.2131
  331MOL0     C44612   4.499   4.686   8.770 -0.7470  0.1998  0.7082
  331MOL0     C44613   4.400   4.788   8.803  0.2862 -0.0902 -0.6614
  331MOL0     C44614   4.318   4.863   8.845  0.2930  0.1472  0.3998
  331MOL0     C44615   5.146   4.857   8.737 -0.3830  0.0221 -0.0588
  331MOL0     C44616   5.275   4.876   8.788 -0.3506  0.6973 -0.0042
  331MOL0     C44617   5.359   4.993   8.738  0.3891  0.3955 -0.2578
  331MOL0     H44618   5.500   4.610   9.325  0.2540 -0.7913  0.3244
  331MOL0     H44619   5.713   4.561   9.419  1.2159  2.4293 -0.4422
  331MOL0     H44620   6.020   4.475   9.165 -1.2169 -2.0233  2.5339
  331MOL0     H44621   6.105   4.633   9.208  3.2298 -1.5462  2.3038
  331MOL0     H44622   6.146   4.362   9.310 -0.7724  0.4462 -0.0389
  331MOL0     H44623   6.114   4.474   9.445  1.5009  0.3096  1.3273
  331MOL0     H44624   6.281   4.626   9.402 -0.1425 -1.0685  0.9662
  331MOL0     H44625   6.321   4.557   9.249  2.1375 -1.0580 -0.0734
  331MOL0     H44626   6.356   4.419   9.522  2.8285  0.9818  1.0035
  331MOL0     H44627   6.381   4.341   9.368  0.7183 -0.0671 -0.1054
  331MOL0     H44628   6.550   4.534   9.316  1.0810 -0.8054 -1.1582
  331MOL0     H44629   6.514   4.594   9.475 -0.1411  0.5978 -0.7046
  331MOL0     H44630   6.618   4.413   9.589 -0.5153 -4.0049 -0.4525
  331MOL0     H44631   6.639   4.313   9.450  0.9606 -0.6986  1.9011
  331MOL0     H44632   6.777   4.512   9.353 -0.0377  1.4941 -0.0855
  331MOL0     H44633   6.848   4.416   9.481 -0.1064 -1.1608 -1.9483
  331MOL0     H44634   6.713   4.692   9.499  1.4507  1.1311  0.6650
  331MOL0     H44635   6.728   4.605   9.643 -2.3154  1.4530 -1.2317
  331MOL0     H44636   6.921   4.782   9.342 -1.5612 -2.1641 -0.9620
  331MOL0     H44637   7.134   4.898   9.328  1.9459  0.2161 -1.9811
  331MOL0     H44638   7.232   4.924   9.478 -0.2477 -0.5947  0.5620
  331MOL0     H44639   7.267   4.652   9.345 -0.8977  0.6724 -1.5570
  331MOL0     H44640   7.332   4.803   9.261 -0.3424  0.2157 -0.5881
  331MOL0     H44641   7.385   4.712   9.549 -0.1474 -0.3948 -0.4635
  331MOL0     H44642   7.457   4.854   9.472 -1.4815  0.3705  1.0975
  331MOL0     H44643   7.462   4.572   9.357 -1.5823  0.7229 -0.3087
  331MOL0     H44644   7.581   4.616   9.487  0.8292  2.4168  1.0343
  331MOL0     H44645   7.648   4.809   9.549  0.0136 -3.2577 -2.2672
  331MOL0     H44646   7.816   5.000   9.596  0.5919  3.7681 -2.1098
  331MOL0     H44647   8.027   5.408   9.412  0.2450  1.2735 -0.0144
  331MOL0     H44648   8.208   5.568   9.470 -1.3112 -1.1571 -2.0117
  331MOL0     H44649   8.472   5.544   9.432 -0.7640  2.2756 -0.6325
  331MOL0     H44650   8.407   5.692   9.501  2.5888  1.2945  1.2076
  331MOL0     H44651   8.652   5.708   9.488  0.8773 -0.7490  0.6750
  331MOL0     H44652   8.595   5.705   9.660  1.1769  3.0963 -0.6896
  331MOL0     H44653   8.786   5.572   9.648  0.5807 -0.7764 -0.2092
  331MOL0     H44654   8.659   5.456   9.655  0.1948 -0.8100 -0.4553
  331MOL0     H44655   8.817   5.560   9.403  1.0143 -1.1011 -0.1138
  331MOL0     H44656   8.686   5.444   9.393  0.7470 -2.4913 -0.1482
  331MOL0     H44657   8.829   5.294   9.543  0.8058 -1.1612 -0.6293
  331MOL0     H44658   8.948   5.426   9.558 -2.3767 -1.3483  2.9567
  331MOL0     H44659   9.036   5.263   9.419 -0.2738  0.9955  0.6358
  331MOL0     H44660   8.897   5.253   9.308 -0.0257  0.6192 -1.1875
  331MOL0     H44661   8.930   5.488   9.239 -2.1664 -2.2104  0.9212
  331MOL0     H44662   9.055   5.381   9.182 -2.8464  0.7032 -2.7111
  331MOL0     H44663   9.099   5.561   9.432 -0.9345  3.5437 -1.7581
  331MOL0     H44664   9.213   5.454   9.365  0.3441  0.1412 -2.2962
  331MOL0     H44665   8.398   5.287   9.712 -0.6827  2.1699  0.9511
  331MOL0     H44666   8.198   5.126   9.686 -1.2525  0.4119  1.6103
  331MOL0     H44667   7.938   4.972   9.192  1.3990 -0.6443  0.5210
  331MOL0     H44668   7.776   4.800   9.158 -1.1319 -0.0595 -0.0441
  331MOL0     H44669   5.907   4.622   9.036 -0.0450 -0.8504 -0.4637
  331MOL0     H44670   5.706   4.698   8.951 -0.7107 -1.5466  0.1048
  331MOL0     H44671   5.238   4.636   9.038  1.0838 -0.0567  0.3196
  331MOL0     H44672   5.024   4.628   8.944  1.7517 -0.6908  1.3160
  331MOL0     H44673   4.887   4.947   8.716  0.1496 -0.7973 -1.3194
  331MOL0     H44674   4.871   4.895   8.878 -0.7912  1.2069  0.1234
  331MOL0     H44675   4.709   4.822   8.625  2.0680 -0.6665 -0.3912
  331MOL0     H44676   4.646   4.922   8.748 -0.5775  0.0962 -3.0808
  331MOL0     H44677   4.636   4.758   8.918 -2.0005 -0.0379 -0.3049
  331MOL0     H44678   4.707   4.637   8.804  2.1452  1.1960  2.1057
  331MOL0     H44679   4.506   4.672   8.662  0.0824 -3.7845  1.1129
  331MOL0     H44680   4.469   4.588   8.808 -0.8326 -0.3202 -0.6586
  331MOL0     H44681   4.224   4.900   8.879  1.3383  2.7205  0.7153
  331MOL0     H44682   5.108   4.911   8.651 -0.6708 -1.6423 -1.0227
  331MOL0     H44683   5.296   5.052   8.670  0.0527 -1.3142 -1.4878
  331MOL0     H44684   5.394   5.062   8.815 -1.6169 -0.8822  1.9489
  331MOL0     H44685   5.445   4.951   8.685  1.1439 -0.0465  1.2858
  332MOL0     O44686   2.219   7.270   5.286 -0.4610  0.0107  0.4431
  332MOL0     C44687   2.130   7.188   5.321  0.6744 -0.3827  0.5697
  332MOL0     O44688   2.143   7.087   5.411 -0.4251 -0.2482  0.4990
  332MOL0     C44689   2.256   7.057   5.489  0.3177  0.3044  0.0596
  332MOL0     C44690   2.388   7.063   5.444  0.5140 -0.5200  0.1282
  332MOL0     C44691   2.493   7.020   5.523 -0.4700  0.9142  0.6539
  332MOL0     C44692   2.484   6.991   5.663 -0.0465  0.0965 -0.0242
  332MOL0     O44693   2.577   6.958   5.754 -0.6198 -0.1144 -0.5766
  332MOL0     C44694   2.713   7.013   5.745  0.4766 -0.2223 -1.4566
  332MOL0     C44695   2.806   6.887   5.727  0.2654  0.3042  0.7755
  332MOL0     C44696   2.953   6.913   5.742 -0.3302  1.0919 -0.6652
  332MOL0     C44697   2.994   6.906   5.892  0.2559  1.1467  0.8693
  332MOL0     C44698   3.135   6.968   5.898 -0.0619 -0.1128 -0.0114
  332MOL0     C44699   3.173   7.013   6.039 -0.3692 -0.3572 -0.3900
  332MOL0     C44700   3.210   6.901   6.136  0.2615 -0.3439 -0.6569
  332MOL0     C44701   3.350   6.836   6.111  0.2598 -1.2736 -1.1444
  332MOL0     N44702   3.454   6.940   6.092 -0.4979 -0.1269 -0.3728
  332MOL0     C44703   3.516   7.008   6.201 -0.6719 -0.0434  0.8491
  332MOL0     C44704   3.615   7.081   6.140  0.1522  0.0722 -0.4674
  332MOL0     C44705   3.730   7.155   6.203 -0.4014  0.4953  0.1388
  332MOL0     C44706   3.701   7.281   6.278  0.0447  0.1271 -0.3509
  332MOL0     C44707   3.830   7.340   6.338 -0.0377 -1.0165  0.2786
  332MOL0     C44708   3.938   7.395   6.236 -0.1161  0.3247 -0.1812
  332MOL0     O44709   4.043   7.459   6.312  0.8022 -0.1084  0.0538
  332MOL0     C44710   4.151   7.380   6.356  0.7861 -0.4283 -0.2827
  332MOL0     C44711   4.254   7.451   6.425 -0.2549  0.2967 -0.3144
  332MOL0     C44712   4.369   7.385   6.462 -0.7520  0.6260 -0.5591
  332MOL0     C44713   4.390   7.250   6.419 -0.7929 -0.0816 -0.3941
  332MOL0     C44714   4.525   7.180   6.431  0.0507  0.0094  0.5488
  332MOL0     O44715   4.522   7.046   6.450  0.1726 -0.4530 -0.2452
  332MOL0     C44716   4.637   6.974   6.450 -0.3840 -0.0769  0.4537
  332MOL0     C44717   4.737   7.006   6.545 -0.1016 -0.6085  0.2050
  332MOL0     C44718   4.857   6.942   6.535  0.4205 -0.4964  0.7370
  332MOL0     C44719   4.886   6.853   6.432 -0.4676  0.7048 -0.1490
  332MOL0     O44720   5.009   6.790   6.416 -0.5363  0.2686  0.3981
  332MOL0     C44721   5.122   6.863   6.451 -0.6143 -0.2465 -0.6845
  332MOL0     C44722   5.255   6.790   6.426 -0.0987 -0.1471  0.1590
  332MOL0     C44723   5.384   6.862   6.475  0.3555 -0.0169 -0.3613
  332MOL0     C44724   5.500   6.766   6.456 -0.7214  0.3662 -0.4106
  332MOL0     C44725   5.633   6.835   6.495  0.7911 -0.0327  0.2533
  332MOL0     C44726   5.740   6.739   6.466 -0.3451  0.1231 -0.2519
  332MOL0     C44727   5.882   6.790   6.483 -0.0573 -0.2774 -0.4771
  332MOL0     C44728   5.991   6.684   6.502 -0.6528  0.1886  0.0691
  332MOL0    Cl44729   6.158   6.747   6.532  0.1594 -0.2290  0.0515
  332MOL0     C44730   4.788   6.817   6.340 -0.0357  0.0177 -0.4816
  332MOL0     C44731   4.666   6.878   6.353  0.0707 -0.4704  1.1160
  332MOL0     O44732   4.624   7.248   6.419 -1.0068 -0.7653 -0.4283
  332MOL0     C44733   4.285   7.174   6.371  0.4954 -0.7887 -0.4691
  332MOL0     C44734   4.163   7.243   6.350 -0.3128 -0.0052 -0.6036
  332MOL0     N44735   3.599   7.068   5.998 -0.7953 -0.3461 -0.5451
  332MOL0     N44736   3.504   6.982   5.973  0.0392  0.3092 -0.3383
  332MOL0     C44737   2.353   6.997   5.717 -0.0177 -0.2090  0.8076
  332MOL0     C44738   2.244   7.027   5.629  0.5931 -0.3014 -0.1168
  332MOL0     C44739   1.996   7.226   5.254  0.0528 -0.8578 -0.2286
  332MOL0     C44740   1.882   7.208   5.322  1.4429 -0.9993  0.2662
  332MOL0     C44741   1.759   7.251   5.278  0.7798  0.4322 -0.3214
  332MOL0     C44742   1.751   7.319   5.154 -0.1093  0.3004  0.8853
  332MOL0     O44743   1.639   7.381   5.109 -0.0033 -0.1189 -0.0733
  332MOL0     C44744   1.515   7.351   5.182 -0.7638  0.0897 -0.4008
  332MOL0     C44745   1.395   7.418   5.112 -0.5768  0.8519 -0.0661
  332MOL0     C44746   1.406   7.570   5.095  0.5578 -0.0346 -0.2177
  332MOL0     C44747   1.413   7.646   5.232 -0.1814  0.3280 -0.6082
  332MOL0     C44748   1.295   7.625   5.320  0.1483 -0.2523 -0.1943
  332MOL0     C44749   1.212   7.597   5.401 -0.1058 -0.5861  0.8506
  332MOL0     C44750   1.861   7.323   5.073  0.4515  0.2153 -0.0596
  332MOL0     C44751   1.988   7.279   5.123  1.1110  0.2822  0.7159
  332MOL0     C44752   2.108   7.293   5.036  0.9101  0.2782 -0.7319
  332MOL0     H44753   2.397   7.085   5.338 -0.0185  2.1638  0.5681
  332MOL0     H44754   2.585   7.009   5.468 -3.3851 -0.4233 -4.6212
  332MOL0     H44755   2.718   7.086   5.663 -0.9083 -0.6114 -1.9306
  332MOL0     H44756   2.739   7.066   5.837  2.6738 -0.8009 -1.7036
  332MOL0     H44757   2.789   6.848   5.626  0.9781  0.7285  0.4825
  332MOL0     H44758   2.767   6.814   5.799  0.1049 -0.2499  0.1424
  332MOL0     H44759   2.976   7.012   5.703  0.5407 -0.6071 -5.0532
  332MOL0     H44760   3.014   6.842   5.685 -1.7034  0.1013 -0.9485
  332MOL0     H44761   2.923   6.966   5.950 -0.8965  0.1770  0.4988
  332MOL0     H44762   2.991   6.810   5.944  1.0212 -0.6135 -2.1015
  332MOL0     H44763   3.210   6.893   5.868 -0.2805 -0.1670 -0.4253
  332MOL0     H44764   3.133   7.051   5.828 -1.0931 -0.0393  0.0946
  332MOL0     H44765   3.250   7.089   6.043  0.1069 -0.7020 -2.1348
  332MOL0     H44766   3.088   7.070   6.078  0.1229  1.3765 -1.7072
  332MOL0     H44767   3.135   6.821   6.136  1.0992 -1.1597 -1.3233
  332MOL0     H44768   3.213   6.938   6.239  3.1148  0.2884 -0.8924
  332MOL0     H44769   3.382   6.768   6.190 -0.8663 -2.9478 -2.0790
  332MOL0     H44770   3.352   6.776   6.020  0.6111  0.1834 -2.1373
  332MOL0     H44771   3.485   6.985   6.303  0.4427  0.1820  1.2461
  332MOL0     H44772   3.780   7.083   6.269 -2.5716 -0.2747  1.0215
  332MOL0     H44773   3.807   7.188   6.132 -0.1190  0.7851  0.5708
  332MOL0     H44774   3.647   7.354   6.218 -0.3264  0.3873  0.2855
  332MOL0     H44775   3.647   7.251   6.368 -0.2275  0.8199 -0.2781
  332MOL0     H44776   3.868   7.256   6.397 -1.1683 -3.0779 -1.7589
  332MOL0     H44777   3.805   7.425   6.402  0.3403 -1.5541  1.1490
  332MOL0     H44778   3.897   7.476   6.174  0.3067  1.7415  1.3044
  332MOL0     H44779   3.977   7.317   6.170 -0.8164 -0.9067  0.8168
  332MOL0     H44780   4.254   7.557   6.445 -0.3646  0.4571 -1.1652
  332MOL0     H44781   4.456   7.431   6.509 -0.5492 -0.8027  0.5324
  332MOL0     H44782   4.718   7.071   6.630  0.4632 -2.4329  1.8080
  332MOL0     H44783   4.929   6.972   6.611  0.1048  2.2139  0.0400
  332MOL0     H44784   5.125   6.966   6.413 -1.2319  1.1576  2.6762
  332MOL0     H44785   5.113   6.875   6.560  1.7650 -1.8276 -0.2471
  332MOL0     H44786   5.260   6.690   6.470  1.9307 -2.3537 -4.4060
  332MOL0     H44787   5.254   6.780   6.317  0.1668  2.4564 -0.1382
  332MOL0     H44788   5.396   6.949   6.410  0.1587  0.5160  0.3077
  332MOL0     H44789   5.385   6.903   6.577 -0.4213  3.2849 -1.5724
  332MOL0     H44790   5.498   6.734   6.351  2.0474 -0.5405 -0.2830
  332MOL0     H44791   5.481   6.681   6.522  2.3472  0.0382  0.2152
  332MOL0     H44792   5.632   6.854   6.602 -1.5643  1.0550  0.1062
  332MOL0     H44793   5.645   6.925   6.433  1.6210 -1.5566 -1.9339
  332MOL0     H44794   5.719   6.655   6.533 -0.2161 -0.2627 -0.6894
  332MOL0     H44795   5.729   6.694   6.366  1.0280 -0.2687 -0.2476
  332MOL0     H44796   5.871   6.841   6.580 -0.9460  0.2834 -0.8625
  332MOL0     H44797   5.922   6.857   6.406  1.8217  2.8632  2.8830
  332MOL0     H44798   5.957   6.620   6.584 -0.5738  0.7516  0.5536
  332MOL0     H44799   5.990   6.620   6.414 -0.0982 -0.5867  0.6119
  332MOL0     H44800   4.803   6.736   6.270  0.1374  0.1535 -0.6022
  332MOL0     H44801   4.592   6.862   6.276 -1.0828  2.2966  1.5241
  332MOL0     H44802   4.289   7.068   6.349 -0.6381 -0.8887 -0.2395
  332MOL0     H44803   4.078   7.185   6.315 -0.8047  0.9665 -1.0860
  332MOL0     H44804   2.343   6.967   5.821 -0.3642 -0.2000  0.7782
  332MOL0     H44805   2.144   7.022   5.670  0.7883  0.9108  0.5779
  332MOL0     H44806   1.879   7.169   5.423 -0.7492 -1.2202  0.1678
  332MOL0     H44807   1.674   7.230   5.344 -0.7035 -0.7677 -2.4830
  332MOL0     H44808   1.524   7.393   5.283  0.8005 -0.3402 -0.3378
  332MOL0     H44809   1.488   7.246   5.188 -3.5490  0.7762  0.8300
  332MOL0     H44810   1.303   7.399   5.169  0.6790  0.2919  1.8525
  332MOL0     H44811   1.384   7.370   5.014 -0.9763  2.4751 -0.8616
  332MOL0     H44812   1.316   7.608   5.045  1.2384 -0.5284 -1.9026
  332MOL0     H44813   1.496   7.602   5.042  0.8670  1.0875  0.9290
  332MOL0     H44814   1.499   7.624   5.295  0.2297 -0.6900 -1.4893
  332MOL0     H44815   1.407   7.755   5.216  0.5560  0.5631  0.6232
  332MOL0     H44816   1.147   7.553   5.474 -0.4552 -1.3063  0.1128
  332MOL0     H44817   1.851   7.383   4.984  1.0023  1.8262  0.9275
  332MOL0     H44818   2.163   7.200   5.057 -1.1378 -0.5948  1.1970
  332MOL0     H44819   2.066   7.286   4.936 -1.6528  0.8263  0.2348
  332MOL0     H44820   2.161   7.388   5.046  0.6046  0.4189 -0.4084
  333MOL0     O44821   4.867   2.617   1.247  0.6100 -0.3447  0.1725
  333MOL0     C44822   4.813   2.722   1.211  0.0438  0.2303  0.1609
  333MOL0     O44823   4.868   2.842   1.206  0.5052  0.1357  0.1712
  333MOL0     C44824   4.991   2.847   1.261 -0.1433  0.3750 -0.3504
  333MOL0     C44825   5.093   2.889   1.179  0.2380  0.3097  0.1672
  333MOL0     C44826   5.221   2.902   1.219 -0.0424 -0.6237 -0.5576
  333MOL0     C44827   5.243   2.860   1.354 -0.1109  0.3448 -0.5524
  333MOL0     O44828   5.373   2.866   1.385 -0.3208  0.4054  0.1129
  333MOL0     C44829   5.421   2.877   1.520  1.1211 -0.5494  0.1592
  333MOL0     C44830   5.417   3.030   1.572  0.0234 -0.4037 -0.8635
  333MOL0     C44831   5.441   3.137   1.465  0.5110 -0.6915 -0.1682
  333MOL0     C44832   5.578   3.130   1.403  0.0843  0.5355 -0.1318
  333MOL0     C44833   5.597   3.235   1.296 -0.3451  0.1081 -0.5727
  333MOL0     C44834   5.743   3.228   1.230  0.7264  0.4800 -0.6336
  333MOL0     C44835   5.750   3.309   1.100 -0.1136 -0.6008  0.0039
  333MOL0     C44836   5.890   3.298   1.029  0.5950 -0.1935 -0.1271
  333MOL0     N44837   5.984   3.387   1.104  0.6089 -0.7235  0.2828
  333MOL0     C44838   5.973   3.518   1.140  0.8090 -0.7736  0.3407
  333MOL0     C44839   6.094   3.549   1.181 -0.7724 -0.4909 -0.3674
  333MOL0     C44840   6.121   3.696   1.236  0.7985  1.4447 -0.2886
  333MOL0     C44841   6.122   3.782   1.107  0.9656  0.2285  0.4344
  333MOL0     C44842   6.251   3.770   1.019  0.7871 -0.6396 -0.4503
  333MOL0     C44843   6.379   3.814   1.098  0.1898 -0.4545 -0.0266
  333MOL0     O44844   6.494   3.799   1.010  0.1191  0.0588  0.5509
  333MOL0     C44845   6.608   3.862   1.035 -0.1135  0.2141 -0.1499
  333MOL0     C44846   6.699   3.878   0.927  0.2427 -0.1894 -0.2828
  333MOL0     C44847   6.826   3.937   0.945  1.3256 -0.4662 -0.0410
  333MOL0     C44848   6.866   3.968   1.077 -0.5185 -0.5285  0.0944
  333MOL0     C44849   7.007   4.013   1.090 -0.1830 -0.7159 -0.1378
  333MOL0     O44850   7.030   4.073   1.209  0.4378 -0.7209  0.1086
  333MOL0     C44851   7.163   4.114   1.221  0.9090 -0.1056  0.1657
  333MOL0     C44852   7.252   4.063   1.312 -0.3063 -0.5620  0.3035
  333MOL0     C44853   7.386   4.102   1.310  0.5267 -0.2260 -0.5813
  333MOL0     C44854   7.437   4.205   1.227  0.3638  0.2991 -0.5658
  333MOL0     O44855   7.569   4.243   1.243  0.1152  0.5965 -0.1459
  333MOL0     C44856   7.617   4.370   1.202 -0.1849  0.8007 -0.0866
  333MOL0     C44857   7.646   4.379   1.057 -0.2196 -0.0590 -0.5477
  333MOL0     C44858   7.669   4.519   1.001  0.8119 -0.5324 -1.5518
  333MOL0     C44859   7.738   4.505   0.870 -0.1878  0.4975 -0.6069
  333MOL0     C44860   7.798   4.633   0.818 -0.1081 -0.1882 -0.3327
  333MOL0     C44861   7.912   4.697   0.899  0.6894 -0.7862  0.8658
  333MOL0     C44862   7.859   4.802   0.995  0.9364  0.3625  0.0696
  333MOL0     C44863   7.973   4.902   1.042  0.7857 -0.1412  1.2735
  333MOL0    Cl44864   8.138   4.836   1.055 -0.2251  0.2714 -0.1444
  333MOL0     C44865   7.348   4.263   1.142 -0.3417  0.2785  1.1426
  333MOL0     C44866   7.213   4.217   1.140  0.3219 -0.2712 -0.0778
  333MOL0     O44867   7.087   3.989   0.999 -0.1633  0.4660 -0.2403
  333MOL0     C44868   6.774   3.965   1.178 -0.0651 -0.1215  0.3299
  333MOL0     C44869   6.648   3.919   1.156  0.8059  0.1376  0.0210
  333MOL0     N44870   6.182   3.443   1.173  0.8542  0.2653 -0.1146
  333MOL0     N44871   6.108   3.342   1.132 -0.5765 -0.3710  0.4925
  333MOL0     C44872   5.139   2.827   1.442 -0.3581  0.0134  0.3653
  333MOL0     C44873   5.016   2.813   1.394  0.0353 -0.9404 -0.5031
  333MOL0     C44874   4.677   2.708   1.153  0.4957  0.3970 -0.2316
  333MOL0     C44875   4.583   2.811   1.193 -0.2478  0.9806  0.1242
  333MOL0     C44876   4.447   2.800   1.160 -0.6581  0.8072  0.1213
  333MOL0     C44877   4.401   2.703   1.074 -0.8449 -0.2076  0.1140
  333MOL0     O44878   4.267   2.693   1.059 -0.3861  0.1633 -0.1757
  333MOL0     C44879   4.205   2.580   0.997 -0.8025  0.8959 -0.5850
  333MOL0     C44880   4.053   2.604   1.001 -0.0015  0.2219 -0.3018
  333MOL0     C44881   4.014   2.704   0.894 -0.2210 -0.0596  0.2432
  333MOL0     C44882   3.865   2.717   0.866 -0.2522  0.1756 -0.6629
  333MOL0     C44883   3.800   2.775   0.984  0.9050  1.1251  0.6967
  333MOL0     C44884   3.749   2.815   1.087 -0.1054  0.5444  0.1464
  333MOL0     C44885   4.495   2.614   1.016  0.0934  0.9917  0.2074
  333MOL0     C44886   4.632   2.620   1.057 -0.6865 -0.1060 -0.5583
  333MOL0     C44887   4.730   2.514   1.011  0.4630  0.7253  0.1905
  333MOL0     H44888   5.067   2.904   1.074 -2.6430 -1.6564  0.4951
  333MOL0     H44889   5.304   2.934   1.158 -0.8245  0.7653 -0.9389
  333MOL0     H44890   5.357   2.809   1.576  0.1233 -0.1465 -0.4505
  333MOL0     H44891   5.529   2.860   1.524  1.7703  2.4463  5.5581
  333MOL0     H44892   5.482   3.066   1.652  0.1438  0.0294 -1.1565
  333MOL0     H44893   5.318   3.041   1.619 -0.2485  1.0803 -1.7153
  333MOL0     H44894   5.423   3.232   1.515 -0.1902 -0.9242  0.0267
  333MOL0     H44895   5.369   3.121   1.384  1.8346 -2.7628 -1.0287
  333MOL0     H44896   5.655   3.134   1.481  1.1160 -0.8985 -1.0291
  333MOL0     H44897   5.598   3.035   1.354  1.0797  0.8098 -0.2811
  333MOL0     H44898   5.520   3.217   1.220  0.2459 -1.0861 -0.9123
  333MOL0     H44899   5.579   3.334   1.338  1.4199  0.3751 -0.3706
  333MOL0     H44900   5.825   3.272   1.288  0.2546 -1.2426  1.4428
  333MOL0     H44901   5.770   3.122   1.219 -0.1037  0.3047 -1.0405
  333MOL0     H44902   5.723   3.410   1.131 -3.1188 -1.6428  1.2581
  333MOL0     H44903   5.682   3.277   1.020 -1.1189  3.0057 -0.7461
  333MOL0     H44904   5.929   3.196   1.033 -0.3888 -0.5620  1.7899
  333MOL0     H44905   5.877   3.332   0.926 -0.6697  0.9643  0.3786
  333MOL0     H44906   5.890   3.589   1.143  3.7305  3.1085 -1.0968
  333MOL0     H44907   6.044   3.727   1.307  2.0886  1.8990  0.9417
  333MOL0     H44908   6.214   3.705   1.293  0.1944  1.7133  0.6741
  333MOL0     H44909   6.035   3.763   1.045  1.5832  0.1537 -0.4237
  333MOL0     H44910   6.117   3.886   1.140 -3.1759  0.0211  0.9185
  333MOL0     H44911   6.240   3.833   0.930  0.4715 -0.6083 -0.3915
  333MOL0     H44912   6.261   3.668   0.980 -3.2084 -1.4762  0.2504
  333MOL0     H44913   6.391   3.750   1.186  1.9069 -2.0898 -1.3739
  333MOL0     H44914   6.360   3.916   1.133 -0.2334 -0.7341  0.5814
  333MOL0     H44915   6.673   3.830   0.834 -3.2355  0.3045  0.3057
  333MOL0     H44916   6.887   3.963   0.859 -0.9491  1.7117 -1.1142
  333MOL0     H44917   7.215   3.985   1.378 -0.5504 -1.9349 -1.3658
  333MOL0     H44918   7.451   4.060   1.386 -0.8281  0.4382  1.0127
  333MOL0     H44919   7.548   4.447   1.237  0.1970 -0.2578  3.3217
  333MOL0     H44920   7.716   4.394   1.243 -0.6979 -0.5780  2.0883
  333MOL0     H44921   7.732   4.314   1.041  0.2352  0.9878 -2.6486
  333MOL0     H44922   7.562   4.343   0.996 -1.1348  0.6010  0.2854
  333MOL0     H44923   7.573   4.572   0.999  0.7997 -0.4800 -0.1983
  333MOL0     H44924   7.726   4.570   1.079 -1.5943 -1.8294  1.2096
  333MOL0     H44925   7.655   4.480   0.804 -0.8414  1.9935 -0.3829
  333MOL0     H44926   7.810   4.422   0.879 -0.1279  0.5601 -0.5103
  333MOL0     H44927   7.717   4.705   0.804  1.1795  1.5452  0.6852
  333MOL0     H44928   7.850   4.609   0.725 -0.5340 -1.3891 -0.2724
  333MOL0     H44929   7.989   4.624   0.923  1.2831 -1.0574 -1.5758
  333MOL0     H44930   7.959   4.761   0.824 -0.1885 -0.9672  0.1272
  333MOL0     H44931   7.805   4.754   1.078 -3.7342  1.1536 -2.2085
  333MOL0     H44932   7.776   4.856   0.949  0.8947 -0.6915 -1.1674
  333MOL0     H44933   7.976   4.989   0.976 -1.5125  0.5905  2.0216
  333MOL0     H44934   7.932   4.935   1.138  0.3514  2.5855  0.2520
  333MOL0     H44935   7.369   4.346   1.075  1.1647 -1.9913 -1.4455
  333MOL0     H44936   7.146   4.259   1.065 -0.6584 -1.6243  0.0099
  333MOL0     H44937   6.792   4.013   1.273 -0.6867  0.4320  0.1821
  333MOL0     H44938   6.573   3.914   1.235 -0.9220 -0.7656 -1.6061
  333MOL0     H44939   5.158   2.813   1.548 -1.3374  0.9831  0.6831
  333MOL0     H44940   4.940   2.796   1.470  0.1773  3.4070  0.9210
  333MOL0     H44941   4.622   2.892   1.253  0.3929  0.8046 -0.0527
  333MOL0     H44942   4.378   2.871   1.204 -0.4342  0.1943  1.5047
  333MOL0     H44943   4.224   2.488   1.053 -4.8114  1.1788  1.5999
  333MOL0     H44944   4.236   2.576   0.893 -1.7217  0.7386 -0.8627
  333MOL0     H44945   4.015   2.618   1.102  1.1550  0.0120  0.1855
  333MOL0     H44946   4.003   2.511   0.973  0.3548  0.9107 -3.6176
  333MOL0     H44947   4.046   2.662   0.798 -2.7611 -0.0330 -0.6959
  333MOL0     H44948   4.047   2.804   0.919 -0.6508 -0.3270  2.0099
  333MOL0     H44949   3.868   2.776   0.773  2.6666  2.2948  0.6105
  333MOL0     H44950   3.809   2.626   0.844 -1.4389  0.1929  1.9511
  333MOL0     H44951   3.699   2.854   1.173 -1.2467 -0.4561 -0.0259
  333MOL0     H44952   4.457   2.547   0.940 -0.0283  0.9025  0.3445
  333MOL0     H44953   4.705   2.482   0.910 -0.4083 -1.2525  0.9825
  333MOL0     H44954   4.829   2.559   1.002 -0.4986  2.5670 -2.0494
  333MOL0     H44955   4.732   2.426   1.077 -0.8380  0.8903  0.4787
  334MOL0     O44956   9.204   4.350   8.003 -0.2325  0.3573 -0.3379
  334MOL0     C44957   9.186   4.400   8.115  0.1434 -0.0794  0.2428
  334MOL0     O44958   9.290   4.452   8.193 -0.0539  0.2365  0.5546
  334MOL0     C44959   9.417   4.420   8.149 -0.5951  1.2719  0.4510
  334MOL0     C44960   9.463   4.485   8.033 -1.0082 -0.0613  0.3232
  334MOL0     C44961   9.589   4.439   7.989 -0.5011  0.5040  0.9741
  334MOL0     C44962   9.658   4.322   8.046  0.2283  0.1528 -0.4894
  334MOL0     O44963   9.768   4.268   7.992  0.2407 -0.0421 -0.2855
  334MOL0     C44964   9.754   4.230   7.853  0.5151 -0.4628 -0.9666
  334MOL0     C44965   9.875   4.149   7.811  0.3078  0.1425  0.5943
  334MOL0     C44966   9.866   4.091   7.673  0.1745 -0.7855  0.7922
  334MOL0     C44967   9.996   4.006   7.630  0.3917 -0.5337  0.6051
  334MOL0     C44968  10.128   4.077   7.598 -0.0658  0.5063  0.3148
  334MOL0     C44969  10.230   3.981   7.548  0.2856  0.0078 -0.5113
  334MOL0     C44970  10.368   4.051   7.532 -0.3772 -0.0568 -0.0207
  334MOL0     C44971  10.478   3.952   7.493 -0.5748 -0.6792 -0.3254
  334MOL0     N44972  10.604   4.026   7.505  0.4665 -0.3557 -0.1810
  334MOL0     C44973  10.644   4.089   7.622 -0.0365  0.1859  0.6708
  334MOL0     C44974  10.749   4.163   7.586  0.1986 -0.5629  0.2464
  334MOL0     C44975  10.828   4.243   7.683  0.2198 -0.6486  0.7551
  334MOL0     C44976  10.961   4.182   7.718 -0.5652  0.0735 -0.2627
  334MOL0     C44977  11.047   4.140   7.601  0.3883 -0.9990 -0.2862
  334MOL0     C44978  11.189   4.112   7.650  0.3442 -0.4923 -0.6102
  334MOL0     O44979  11.282   4.070   7.551 -0.1324 -0.6075  0.3127
  334MOL0     C44980  11.412   4.057   7.588  0.0311 -0.5588  0.3628
  334MOL0     C44981  11.455   4.061   7.718 -0.6087 -0.2726  0.8465
  334MOL0     C44982  11.586   4.026   7.746  0.0836  0.9744 -0.0866
  334MOL0     C44983  11.681   4.003   7.642 -0.2198  0.3452 -0.3206
  334MOL0     C44984  11.827   3.998   7.670 -0.1598 -0.1228 -0.5183
  334MOL0     O44985  11.906   4.024   7.558 -0.1234  0.5063  0.2876
  334MOL0     C44986  12.039   4.036   7.580  0.3271 -0.1210 -0.2639
  334MOL0     C44987  12.095   4.148   7.637  0.4392 -0.1980 -0.8732
  334MOL0     C44988  12.236   4.169   7.630  0.5221 -0.1306 -0.1029
  334MOL0     C44989  12.321   4.074   7.577  0.3365  0.3855 -0.0234
  334MOL0     O44990  12.459   4.099   7.576 -0.0419  0.8315 -0.1848
  334MOL0     C44991  12.513   4.122   7.452 -0.3308  0.5400  0.2400
  334MOL0     C44992  12.662   4.112   7.451 -0.5521  0.5939 -0.2715
  334MOL0     C44993  12.732   4.144   7.319  0.0105  0.2507  0.5359
  334MOL0     C44994  12.885   4.112   7.317  0.1590  0.1894  0.1332
  334MOL0     C44995  12.949   4.110   7.176  0.5812 -0.6311  0.2502
  334MOL0     C44996  13.105   4.081   7.191 -0.0831  0.1546  0.0372
  334MOL0     C44997  13.133   3.958   7.274  1.6898 -0.4249 -0.6266
  334MOL0     C44998  13.288   3.946   7.263 -1.2432  0.5401 -0.4773
  334MOL0    Cl44999  13.357   3.840   7.382 -0.0995  0.4512 -0.2206
  334MOL0     C45000  12.266   3.964   7.514  0.1581  0.2309 -0.3498
  334MOL0     C45001  12.121   3.939   7.523  0.3769  0.0448  0.8601
  334MOL0     O45002  11.869   3.987   7.785 -0.0902  0.1591 -0.8042
  334MOL0     C45003  11.639   4.002   7.512  0.8080 -0.0068  0.4039
  334MOL0     C45004  11.502   4.028   7.484 -0.9841 -0.1875 -0.2244
  334MOL0     N45005  10.774   4.138   7.452 -0.4841 -0.1044  0.3789
  334MOL0     N45006  10.691   4.059   7.401  0.7379  0.0001  0.6360
  334MOL0     C45007   9.597   4.258   8.149  1.1153 -0.4955 -0.0509
  334MOL0     C45008   9.483   4.310   8.208 -0.2051 -0.5529  0.1490
  334MOL0     C45009   9.048   4.409   8.164 -1.0148 -1.4144  0.7870
  334MOL0     C45010   9.041   4.479   8.285 -0.7296  0.2151  0.2276
  334MOL0     C45011   8.920   4.492   8.342  0.2406 -0.0089 -0.2475
  334MOL0     C45012   8.802   4.439   8.294  0.5227 -0.0770 -0.1933
  334MOL0     O45013   8.682   4.483   8.345  0.1781  0.2103  0.3141
  334MOL0     C45014   8.563   4.425   8.286 -0.1545  0.2396 -0.1853
  334MOL0     C45015   8.439   4.464   8.363  0.1841  0.1441  0.2596
  334MOL0     C45016   8.317   4.449   8.269 -0.0452 -0.9931  0.1956
  334MOL0     C45017   8.187   4.492   8.346  0.5886 -0.7991  0.2330
  334MOL0     C45018   8.057   4.475   8.277 -0.2289 -0.3242 -0.4078
  334MOL0     C45019   7.950   4.447   8.223 -0.2681 -0.7571 -0.3139
  334MOL0     C45020   8.815   4.357   8.174  0.4099 -0.1940 -0.5696
  334MOL0     C45021   8.938   4.340   8.109 -0.4163  0.0026  0.3255
  334MOL0     C45022   8.944   4.229   8.002 -0.0419  0.0141  0.6581
  334MOL0     H45023   9.419   4.569   7.981  1.6172  1.4389  0.3623
  334MOL0     H45024   9.622   4.496   7.902 -2.6857 -0.2080 -0.3952
  334MOL0     H45025   9.655   4.183   7.854 -0.4355  1.1182  3.4605
  334MOL0     H45026   9.735   4.322   7.798  1.3719  0.3656  0.0774
  334MOL0     H45027   9.882   4.069   7.886 -0.4208  0.7457  1.3200
  334MOL0     H45028   9.967   4.208   7.813  0.8766 -0.6956  0.0411
  334MOL0     H45029   9.848   4.172   7.601  0.6358  0.4082  1.9858
  334MOL0     H45030   9.775   4.031   7.666 -0.7768  0.7905 -1.6245
  334MOL0     H45031  10.012   3.930   7.707 -0.1911 -1.0687  0.2145
  334MOL0     H45032   9.961   3.944   7.546  0.4527 -0.9975  0.9189
  334MOL0     H45033  10.105   4.155   7.525 -1.7110 -1.5391 -1.4962
  334MOL0     H45034  10.156   4.123   7.693  2.5432 -2.8860  1.3945
  334MOL0     H45035  10.236   3.903   7.625 -2.2900 -2.1892 -2.3398
  334MOL0     H45036  10.205   3.937   7.451  0.3087 -0.5200 -0.2824
  334MOL0     H45037  10.402   4.104   7.622  3.6551 -3.1837  0.5728
  334MOL0     H45038  10.364   4.121   7.447  0.3316  0.0041 -0.0099
  334MOL0     H45039  10.476   3.865   7.558 -0.4741  1.5388  2.9129
  334MOL0     H45040  10.456   3.927   7.390 -0.4136 -4.0144  0.3569
  334MOL0     H45041  10.602   4.079   7.722  1.4109  0.4128  1.3274
  334MOL0     H45042  10.854   4.343   7.645  0.9954 -0.4868  1.6659
  334MOL0     H45043  10.771   4.265   7.774 -1.7813  3.3838 -1.1827
  334MOL0     H45044  11.007   4.250   7.790 -1.2089 -0.1405  0.3566
  334MOL0     H45045  10.942   4.089   7.772 -1.2602 -0.5913 -1.6107
  334MOL0     H45046  11.048   4.220   7.527  2.6585 -0.2350  0.4958
  334MOL0     H45047  11.013   4.042   7.567 -2.3377 -0.9816  2.0187
  334MOL0     H45048  11.174   4.042   7.733 -1.9905 -0.8394 -1.2419
  334MOL0     H45049  11.221   4.211   7.685 -3.3137  0.4442  0.5969
  334MOL0     H45050  11.384   4.085   7.797  0.9202  2.1058  1.5859
  334MOL0     H45051  11.621   4.024   7.849  1.6936 -2.2530 -0.5622
  334MOL0     H45052  12.037   4.219   7.695 -0.2118 -1.2162 -0.2403
  334MOL0     H45053  12.283   4.254   7.677  0.2100  0.7296 -1.3027
  334MOL0     H45054  12.484   4.048   7.377  0.1163  3.0715 -2.6616
  334MOL0     H45055  12.471   4.216   7.414 -2.5679  0.2040  1.6743
  334MOL0     H45056  12.695   4.181   7.529 -0.5874 -1.1770  1.3945
  334MOL0     H45057  12.698   4.014   7.483 -2.0240  1.0651  3.2133
  334MOL0     H45058  12.695   4.079   7.239 -0.3268 -0.5425  1.3248
  334MOL0     H45059  12.707   4.246   7.290  1.1341  0.9305  1.8405
  334MOL0     H45060  12.890   4.014   7.365 -0.6103  0.3671  0.5815
  334MOL0     H45061  12.930   4.176   7.393 -1.0099 -0.2545  1.2338
  334MOL0     H45062  12.922   4.206   7.130 -4.2792 -1.9867 -0.3565
  334MOL0     H45063  12.898   4.029   7.122 -1.7256  1.1230 -0.3682
  334MOL0     H45064  13.148   4.071   7.091  3.3719  1.6802  1.2273
  334MOL0     H45065  13.156   4.157   7.251  0.3600 -0.1392  0.0333
  334MOL0     H45066  13.087   3.869   7.230  0.7800 -0.3124  0.0619
  334MOL0     H45067  13.103   3.975   7.378  0.4167  1.3617 -1.2371
  334MOL0     H45068  13.325   3.920   7.163  0.5240 -0.8383  0.4749
  334MOL0     H45069  13.324   4.046   7.290 -3.2695  1.6268 -1.5710
  334MOL0     H45070  12.329   3.892   7.463 -2.1185 -1.1676 -1.3652
  334MOL0     H45071  12.074   3.856   7.471 -2.1003  0.7254  1.9162
  334MOL0     H45072  11.705   3.988   7.427 -1.0750  0.8230 -1.2836
  334MOL0     H45073  11.475   4.026   7.379 -0.1531 -1.0319 -0.4330
  334MOL0     H45074   9.639   4.171   8.197 -0.6450 -0.9528  0.7447
  334MOL0     H45075   9.435   4.260   8.291  1.5050  0.1167  1.5902
  334MOL0     H45076   9.127   4.529   8.330  0.6327 -0.7900 -1.1925
  334MOL0     H45077   8.918   4.554   8.431  2.8145 -0.3054  0.0964
  334MOL0     H45078   8.569   4.316   8.285 -0.7322  0.2034 -1.1971
  334MOL0     H45079   8.564   4.470   8.186  1.6197  0.5628 -0.0445
  334MOL0     H45080   8.446   4.564   8.406  0.5047  0.1871  0.1116
  334MOL0     H45081   8.427   4.395   8.447 -2.2833  0.7764  0.5048
  334MOL0     H45082   8.311   4.350   8.224 -0.2855 -0.5884 -0.6907
  334MOL0     H45083   8.328   4.530   8.196  0.8614  0.9107  2.2831
  334MOL0     H45084   8.188   4.427   8.434  0.9173 -0.4994  0.4526
  334MOL0     H45085   8.195   4.598   8.372 -1.2867 -0.7516  0.7491
  334MOL0     H45086   7.856   4.427   8.176 -0.6169 -2.5064  1.0226
  334MOL0     H45087   8.728   4.301   8.142 -1.4592  0.0117  3.6004
  334MOL0     H45088   8.854   4.167   8.010 -0.9478  1.4252  1.9825
  334MOL0     H45089   8.956   4.269   7.901 -0.6044  0.3398  0.7154
  334MOL0     H45090   9.028   4.162   8.020 -0.4946 -0.6941  0.2130
  335MOL0     O45091   9.212   7.017   5.916 -0.4745 -0.1009  0.3776
  335MOL0     C45092   9.120   6.945   5.936  0.2927  0.2888 -0.5940
  335MOL0     O45093   9.109   6.813   5.919  0.1927 -0.2310  0.1130
  335MOL0     C45094   9.206   6.726   5.878 -0.4998 -0.9737  0.1081
  335MOL0     C45095   9.346   6.757   5.865  0.3458 -0.3171  0.2206
  335MOL0     C45096   9.431   6.659   5.835 -0.4598  0.1644 -0.1271
  335MOL0     C45097   9.390   6.531   5.803 -0.2901 -0.5463 -0.3361
  335MOL0     O45098   9.478   6.449   5.745 -0.2594  0.2037  0.1949
  335MOL0     C45099   9.448   6.305   5.755 -0.2598  0.6732 -0.3404
  335MOL0     C45100   9.572   6.237   5.705  0.2291  0.0402  0.0225
  335MOL0     C45101   9.556   6.092   5.674  0.1684  1.1817  0.1957
  335MOL0     C45102   9.684   6.020   5.625  0.3860 -0.4548 -0.5192
  335MOL0     C45103   9.677   5.872   5.614  0.5273  0.1159 -0.1495
  335MOL0     C45104   9.793   5.821   5.540  1.4076  0.8003 -0.7848
  335MOL0     C45105   9.758   5.816   5.389 -0.9178  0.2666  0.1184
  335MOL0     C45106   9.667   5.697   5.344 -0.9067  0.6982  0.0919
  335MOL0     N45107   9.736   5.578   5.381 -1.2191  0.5438  0.6434
  335MOL0     C45108   9.862   5.527   5.338 -0.3885  0.1006  0.5695
  335MOL0     C45109   9.872   5.403   5.392 -0.4750 -0.2899 -0.6474
  335MOL0     C45110   9.986   5.317   5.380 -0.5002 -0.6609  0.1167
  335MOL0     C45111  10.107   5.364   5.473  0.7663 -0.1610  0.2866
  335MOL0     C45112  10.208   5.241   5.496 -0.3658  0.3075 -0.1501
  335MOL0     C45113  10.285   5.203   5.375  0.6887 -0.2157  0.2521
  335MOL0     O45114  10.347   5.308   5.301 -0.0154 -0.5405 -0.7258
  335MOL0     C45115  10.437   5.279   5.204 -0.2183 -0.0555 -0.1652
  335MOL0     C45116  10.571   5.245   5.233  0.1871 -0.1268  0.9862
  335MOL0     C45117  10.659   5.210   5.124  0.1265  0.5487  0.1582
  335MOL0     C45118  10.608   5.198   4.991  0.3103 -0.1008 -0.1783
  335MOL0     C45119  10.687   5.167   4.869  0.6316  0.1439  0.6223
  335MOL0     O45120  10.816   5.143   4.887 -0.3596  0.6265 -0.3306
  335MOL0     C45121  10.897   5.136   4.779  0.1771  0.4826  0.0581
  335MOL0     C45122  10.901   5.021   4.699 -0.6558  0.1686 -0.0386
  335MOL0     C45123  11.009   5.001   4.610  0.0600  0.0891 -0.7947
  335MOL0     C45124  11.108   5.106   4.591 -0.5173 -0.0748 -0.0055
  335MOL0     O45125  11.209   5.099   4.502  0.4144 -0.2202  0.2616
  335MOL0     C45126  11.204   5.021   4.385 -0.5613 -0.4209  0.2882
  335MOL0     C45127  11.302   4.897   4.393  0.2334 -0.1629  1.2022
  335MOL0     C45128  11.445   4.941   4.412 -0.5032  0.6983  0.2714
  335MOL0     C45129  11.532   4.825   4.357  0.7333  0.5859  0.6616
  335MOL0     C45130  11.682   4.848   4.383 -0.4757  0.0995 -0.2214
  335MOL0     C45131  11.746   4.973   4.323  0.2056  0.3360  0.2968
  335MOL0     C45132  11.886   4.990   4.364  0.1634  0.2060 -0.0002
  335MOL0     C45133  11.950   5.117   4.308  0.0501  0.2300  0.2646
  335MOL0    Cl45134  12.120   5.104   4.355  0.3525  0.2011 -0.3060
  335MOL0     C45135  11.101   5.217   4.669  0.1655 -0.3359 -0.6565
  335MOL0     C45136  10.997   5.231   4.760 -0.1764 -0.2491 -0.3997
  335MOL0     O45137  10.632   5.170   4.761 -0.1743 -0.8477  0.5420
  335MOL0     C45138  10.469   5.232   4.973 -0.7929 -0.0500  0.5320
  335MOL0     C45139  10.387   5.274   5.071 -0.2466  0.1504 -0.1856
  335MOL0     N45140   9.757   5.386   5.462  0.3512  0.2003  0.0554
  335MOL0     N45141   9.672   5.482   5.452 -1.0273 -0.8226  0.4935
  335MOL0     C45142   9.254   6.501   5.831  0.3427 -0.3631 -0.2432
  335MOL0     C45143   9.162   6.590   5.870  1.2039 -0.2297  0.2565
  335MOL0     C45144   8.990   7.004   5.972 -0.6083 -1.0304  0.6167
  335MOL0     C45145   8.874   6.941   5.930 -0.0839 -0.2168 -0.4559
  335MOL0     C45146   8.743   6.995   5.969 -0.7434  0.2586 -0.1427
  335MOL0     C45147   8.733   7.109   6.038  0.0954 -0.1315  0.1082
  335MOL0     O45148   8.614   7.153   6.086 -0.3546 -0.0041  0.0799
  335MOL0     C45149   8.491   7.091   6.063  0.4001 -0.2297  0.8575
  335MOL0     C45150   8.386   7.171   6.142  0.2031  0.3459 -0.3516
  335MOL0     C45151   8.333   7.290   6.065  0.0595  0.4855  0.0487
  335MOL0     C45152   8.222   7.249   5.965  0.2915 -0.2506  0.0161
  335MOL0     C45153   8.092   7.204   6.018 -0.2877  0.1701 -0.9688
  335MOL0     C45154   7.982   7.175   6.062 -0.1477 -0.3628  0.4523
  335MOL0     C45155   8.848   7.179   6.064  0.3788  0.2531  0.7125
  335MOL0     C45156   8.975   7.137   6.026  0.1627  0.0161 -0.6776
  335MOL0     C45157   9.089   7.217   6.078  0.8996 -0.0935 -0.1167
  335MOL0     H45158   9.382   6.858   5.879 -0.4866  0.4137 -2.3250
  335MOL0     H45159   9.536   6.675   5.814 -0.1766 -2.3232 -0.9033
  335MOL0     H45160   9.416   6.280   5.857  0.7002 -2.3413 -0.6574
  335MOL0     H45161   9.362   6.272   5.695 -0.7927  0.6580  0.4071
  335MOL0     H45162   9.647   6.243   5.784  1.6028  0.7827 -1.3036
  335MOL0     H45163   9.604   6.290   5.616  0.4841  1.9388  1.2007
  335MOL0     H45164   9.476   6.074   5.601 -0.3348  0.4996  0.8903
  335MOL0     H45165   9.517   6.043   5.764 -0.8972 -0.2026 -0.9714
  335MOL0     H45166   9.705   6.060   5.526  0.3665  0.7556 -0.0485
  335MOL0     H45167   9.757   6.064   5.693 -1.3249  4.2828 -1.3554
  335MOL0     H45168   9.668   5.840   5.718  0.2964  1.8435  0.3928
  335MOL0     H45169   9.579   5.841   5.576 -1.2357  0.6778  3.4968
  335MOL0     H45170   9.882   5.882   5.555  0.6766  1.2654  2.3685
  335MOL0     H45171   9.821   5.728   5.591  4.4751  2.8634  1.6444
  335MOL0     H45172   9.851   5.809   5.332 -1.4544 -4.2758 -0.5279
  335MOL0     H45173   9.710   5.913   5.371  2.4275  2.3319  1.3210
  335MOL0     H45174   9.569   5.704   5.393 -0.8373  1.0742  0.1804
  335MOL0     H45175   9.653   5.704   5.236  1.0458  2.5645 -0.0935
  335MOL0     H45176   9.930   5.577   5.270 -0.1718 -3.5832 -2.1677
  335MOL0     H45177   9.960   5.214   5.402 -0.6560 -0.7156 -0.3061
  335MOL0     H45178  10.019   5.322   5.275  0.1996  0.1314  0.3581
  335MOL0     H45179  10.161   5.451   5.434 -2.8356  0.9787 -2.7527
  335MOL0     H45180  10.063   5.399   5.567  2.6253  2.8687  0.1776
  335MOL0     H45181  10.150   5.157   5.535 -0.6794  0.9979  0.9287
  335MOL0     H45182  10.292   5.260   5.563  1.6916 -1.8897 -1.9576
  335MOL0     H45183  10.220   5.152   5.303 -0.2366  0.0439  0.8861
  335MOL0     H45184  10.368   5.139   5.407  1.0668 -0.8798 -1.8950
  335MOL0     H45185  10.619   5.258   5.329  2.6328  1.3576 -0.3408
  335MOL0     H45186  10.767   5.207   5.130  0.1789 -2.7766 -0.1451
  335MOL0     H45187  10.817   4.952   4.697  0.0573 -0.7456 -2.5268
  335MOL0     H45188  11.019   4.912   4.548  2.6155  0.2217 -0.7127
  335MOL0     H45189  11.099   4.992   4.375 -0.5916 -0.9277  1.8523
  335MOL0     H45190  11.220   5.092   4.304 -3.0611 -0.4630 -0.3303
  335MOL0     H45191  11.276   4.831   4.476 -0.3837 -0.0756  1.0821
  335MOL0     H45192  11.287   4.841   4.300  1.3552  1.2288  0.1465
  335MOL0     H45193  11.455   5.027   4.344 -4.1336  1.0982  0.0782
  335MOL0     H45194  11.448   4.957   4.520 -1.4432 -1.7020  0.7049
  335MOL0     H45195  11.505   4.826   4.251 -2.6167  1.1764  1.4162
  335MOL0     H45196  11.488   4.728   4.384 -1.3220  1.4263  0.4945
  335MOL0     H45197  11.733   4.761   4.340  1.4276  0.8896  0.3174
  335MOL0     H45198  11.709   4.837   4.489 -2.8170  0.2055  0.4511
  335MOL0     H45199  11.748   4.972   4.214 -0.8363  3.9995  0.1162
  335MOL0     H45200  11.685   5.062   4.342 -1.4978 -0.3026 -1.7281
  335MOL0     H45201  11.941   4.899   4.338 -0.5661 -0.2591  0.0689
  335MOL0     H45202  11.899   5.002   4.472  2.2963  1.2351 -0.3124
  335MOL0     H45203  11.932   5.126   4.200  1.9196  2.2434  0.0458
  335MOL0     H45204  11.913   5.209   4.353  1.7209  0.9026  0.3434
  335MOL0     H45205  11.166   5.304   4.668  1.0700 -0.8266  2.8506
  335MOL0     H45206  10.995   5.327   4.811  1.4808 -1.0482  1.3384
  335MOL0     H45207  10.429   5.225   4.873  0.7998 -4.0864 -0.0330
  335MOL0     H45208  10.282   5.298   5.056  0.1265  1.3690 -1.0549
  335MOL0     H45209   9.222   6.397   5.836  3.7280 -1.7142 -2.8369
  335MOL0     H45210   9.062   6.554   5.892  0.9076  0.7799  0.6016
  335MOL0     H45211   8.873   6.845   5.879 -2.0645 -2.0094  2.6828
  335MOL0     H45212   8.658   6.931   5.949 -0.5945  0.2124 -0.6239
  335MOL0     H45213   8.490   6.985   6.089  1.1208 -0.3596  0.3972
  335MOL0     H45214   8.465   7.100   5.957  0.6014 -1.6826  0.6646
  335MOL0     H45215   8.427   7.210   6.235  2.0994  0.3651 -1.1470
  335MOL0     H45216   8.300   7.110   6.170  1.1631 -0.9525 -0.1497
  335MOL0     H45217   8.412   7.339   6.007 -0.4136  3.3101  1.5831
  335MOL0     H45218   8.289   7.367   6.129  1.3104  1.3296 -0.0818
  335MOL0     H45219   8.204   7.338   5.905  2.3221 -0.4454 -0.9564
  335MOL0     H45220   8.253   7.176   5.890  1.0267 -2.2640  2.1377
  335MOL0     H45221   7.883   7.152   6.097 -0.4326 -0.3539 -0.3387
  335MOL0     H45222   8.832   7.268   6.123 -1.5848  0.8794 -0.6588
  335MOL0     H45223   9.154   7.240   5.993  0.9507 -1.2055 -0.3874
  335MOL0     H45224   9.048   7.314   6.110 -0.7395 -0.9938  0.6311
  335MOL0     H45225   9.137   7.169   6.164  0.0465 -1.9930 -0.6468
  336MOL0     O45226   4.041   2.007   1.642 -0.2407 -0.1047  0.2978
  336MOL0     C45227   4.086   1.989   1.526 -0.3872 -0.2909  0.0589
  336MOL0     O45228   4.224   1.969   1.495 -0.2910  0.5263 -0.2585
  336MOL0     C45229   4.315   1.922   1.588 -0.3812 -0.0079 -0.2420
  336MOL0     C45230   4.454   1.915   1.546 -0.6128  0.0128 -0.3173
  336MOL0     C45231   4.557   1.861   1.628  0.0953 -0.5782  0.7519
  336MOL0     C45232   4.518   1.799   1.747  0.6349  1.0404 -0.4913
  336MOL0     O45233   4.628   1.753   1.819 -0.8531  0.4460  0.0167
  336MOL0     C45234   4.608   1.727   1.962 -1.1067 -0.2605 -0.6517
  336MOL0     C45235   4.740   1.684   2.022 -0.3888  0.3603  0.1391
  336MOL0     C45236   4.786   1.551   1.972 -0.3402 -0.4093  0.9713
  336MOL0     C45237   4.924   1.508   2.022  0.5192  0.2657 -0.6457
  336MOL0     C45238   5.041   1.583   1.963 -0.6048 -0.3834  0.0005
  336MOL0     C45239   5.171   1.505   1.998 -0.2104 -0.7994 -0.7047
  336MOL0     C45240   5.293   1.585   1.943 -0.2950  0.2517 -0.0319
  336MOL0     C45241   5.322   1.711   2.025  0.1816 -0.2446  0.2907
  336MOL0     N45242   5.464   1.748   2.022 -0.2998 -0.6777 -0.1306
  336MOL0     C45243   5.542   1.757   1.911 -0.5168  0.2825  0.3802
  336MOL0     C45244   5.672   1.769   1.949 -0.2305  0.3426 -0.2061
  336MOL0     C45245   5.780   1.788   1.850 -0.3527 -0.1418 -0.8889
  336MOL0     C45246   5.801   1.662   1.769 -0.3024 -1.0492  0.0450
  336MOL0     C45247   5.886   1.547   1.828 -0.0228 -0.1005  0.0564
  336MOL0     C45248   6.038   1.575   1.804  0.7747  0.2060  0.0465
  336MOL0     O45249   6.069   1.696   1.867  0.0058 -0.8512 -0.0668
  336MOL0     C45250   6.204   1.731   1.858 -0.2663  0.6056  0.6282
  336MOL0     C45251   6.302   1.668   1.773  0.3708  0.1906  0.2080
  336MOL0     C45252   6.435   1.718   1.778 -0.4149  0.1234 -0.1741
  336MOL0     C45253   6.474   1.810   1.876 -0.2854 -0.7033 -0.7629
  336MOL0     C45254   6.616   1.858   1.881 -0.8639  0.2406 -0.4493
  336MOL0     O45255   6.642   1.961   1.969  0.0168 -0.1364 -0.2042
  336MOL0     C45256   6.756   2.037   1.963  0.1913  0.9273  0.2286
  336MOL0     C45257   6.867   2.017   2.037  0.0970  0.9142  0.6429
  336MOL0     C45258   6.983   2.100   2.028 -0.5146  0.0841  0.5276
  336MOL0     C45259   6.979   2.200   1.932 -0.0762  0.1133  0.0358
  336MOL0     O45260   7.098   2.268   1.900  0.5865 -1.0334 -0.7971
  336MOL0     C45261   7.210   2.242   1.982  0.7213 -1.1574  1.1341
  336MOL0     C45262   7.318   2.327   1.920  0.1826 -0.4621 -0.1686
  336MOL0     C45263   7.341   2.307   1.764  0.1698 -0.1752  0.1923
  336MOL0     C45264   7.482   2.356   1.724  1.3979 -0.9863  0.9061
  336MOL0     C45265   7.511   2.501   1.758  0.4512 -0.2446 -0.3874
  336MOL0     C45266   7.624   2.534   1.668  0.8260  0.2986 -0.6709
  336MOL0     C45267   7.671   2.674   1.708 -0.1640 -0.0614  1.0383
  336MOL0     C45268   7.799   2.708   1.646 -0.0810 -0.2726 -0.5184
  336MOL0    Cl45269   7.933   2.600   1.707  0.3781 -0.2631  0.3236
  336MOL0     C45270   6.864   2.223   1.857 -0.7113 -0.3730 -0.6871
  336MOL0     C45271   6.751   2.141   1.874  0.2485 -0.1258 -0.3808
  336MOL0     O45272   6.712   1.796   1.829  0.3101  0.2657 -0.4002
  336MOL0     C45273   6.373   1.884   1.948 -0.7153  0.1403 -0.0098
  336MOL0     C45274   6.244   1.836   1.938 -0.1479  0.5504  0.0660
  336MOL0     N45275   5.668   1.771   2.089  0.0559  0.4394 -0.5255
  336MOL0     N45276   5.547   1.776   2.129  0.2020 -0.6058 -0.5667
  336MOL0     C45277   4.388   1.791   1.792 -0.2886 -0.1578  0.5817
  336MOL0     C45278   4.291   1.857   1.713 -0.2151 -1.3558 -0.8282
  336MOL0     C45279   3.977   1.991   1.420 -0.4850 -0.5628 -0.0563
  336MOL0     C45280   3.841   2.006   1.459 -0.4197 -0.8604  0.4289
  336MOL0     C45281   3.729   2.009   1.373  0.2655  0.5421 -0.5106
  336MOL0     C45282   3.755   1.992   1.236 -1.1098  0.2016  0.0165
  336MOL0     O45283   3.664   1.975   1.136  0.2060 -0.0477  0.1252
  336MOL0     C45284   3.523   1.990   1.153 -0.2204  0.1928 -0.2602
  336MOL0     C45285   3.452   1.880   1.231  0.0485  0.7623  0.2046
  336MOL0     C45286   3.346   1.811   1.144  0.7105 -0.7210 -0.5105
  336MOL0     C45287   3.265   1.710   1.230  0.6562 -0.1821  0.3600
  336MOL0     C45288   3.183   1.638   1.143  0.6519 -0.1575  0.2659
  336MOL0     C45289   3.116   1.586   1.058  0.1055 -1.1087  0.1766
  336MOL0     C45290   3.891   1.963   1.199  0.3996 -0.4948  0.0900
  336MOL0     C45291   4.000   1.970   1.283  1.0513 -0.7727 -0.0192
  336MOL0     C45292   4.131   1.951   1.216 -0.1958  0.3339  0.5964
  336MOL0     H45293   4.472   1.951   1.446 -0.2984 -1.1825 -0.7097
  336MOL0     H45294   4.658   1.857   1.587  0.5570  2.2726  1.3636
  336MOL0     H45295   4.591   1.822   2.015 -0.2155 -0.9150  0.8946
  336MOL0     H45296   4.520   1.665   1.982 -0.9999  0.0792  1.0108
  336MOL0     H45297   4.730   1.692   2.131  2.1479  0.7179  0.4247
  336MOL0     H45298   4.822   1.755   2.002 -0.3345 -0.4345 -2.8670
  336MOL0     H45299   4.802   1.557   1.864  1.1526  1.2610  1.2347
  336MOL0     H45300   4.715   1.471   1.995 -0.0555 -0.5794  1.2866
  336MOL0     H45301   4.922   1.531   2.128 -1.3822  2.0246 -1.0113
  336MOL0     H45302   4.933   1.401   1.998 -0.0655  0.3542 -1.2873
  336MOL0     H45303   5.027   1.585   1.854 -2.1178 -0.9273  0.1578
  336MOL0     H45304   5.048   1.686   1.997 -1.8319 -0.4070  0.3691
  336MOL0     H45305   5.177   1.493   2.106 -0.5366  0.0188 -0.5878
  336MOL0     H45306   5.177   1.399   1.970 -0.0416 -1.8902  2.9153
  336MOL0     H45307   5.265   1.612   1.840  1.1118 -2.0682 -1.1126
  336MOL0     H45308   5.383   1.523   1.942  0.5456  1.3939 -2.0831
  336MOL0     H45309   5.266   1.796   1.986 -0.0645 -0.3294  0.4579
  336MOL0     H45310   5.290   1.705   2.129 -2.2520  0.9304 -0.3364
  336MOL0     H45311   5.518   1.754   1.805  1.5012  0.8158 -0.1475
  336MOL0     H45312   5.758   1.874   1.785 -2.7054  0.1403  0.1711
  336MOL0     H45313   5.867   1.818   1.908 -0.6254 -0.0467 -0.5229
  336MOL0     H45314   5.708   1.615   1.737 -1.1744 -0.6873  1.9473
  336MOL0     H45315   5.851   1.688   1.674  0.4474 -1.8313  0.2110
  336MOL0     H45316   5.855   1.452   1.781 -0.6412  0.4475 -0.6784
  336MOL0     H45317   5.861   1.532   1.933  0.1217  0.7082  0.2106
  336MOL0     H45318   6.065   1.562   1.699  2.6386 -3.1259  0.8018
  336MOL0     H45319   6.097   1.501   1.859  0.2678  2.4462  3.9969
  336MOL0     H45320   6.280   1.588   1.703  0.2210  0.0088  0.4624
  336MOL0     H45321   6.500   1.661   1.713 -0.5904 -1.9495  1.3869
  336MOL0     H45322   6.849   1.931   2.102 -2.1532  0.1184 -0.9377
  336MOL0     H45323   7.062   2.076   2.098 -0.6074  1.0541  0.9853
  336MOL0     H45324   7.187   2.276   2.084  2.4732 -0.9123  1.4775
  336MOL0     H45325   7.250   2.140   1.977  1.2229 -0.9215  0.1831
  336MOL0     H45326   7.288   2.431   1.931  0.9176 -0.3598  1.0412
  336MOL0     H45327   7.409   2.313   1.980  1.7716  1.5168 -1.9565
  336MOL0     H45328   7.335   2.202   1.737 -0.4759 -0.3170  0.8578
  336MOL0     H45329   7.266   2.356   1.702 -2.3620 -2.5138  1.1813
  336MOL0     H45330   7.489   2.335   1.617  1.5021  0.3729  0.6287
  336MOL0     H45331   7.562   2.298   1.770  0.4895 -1.2269  2.2228
  336MOL0     H45332   7.539   2.515   1.863  2.9509 -0.2797 -0.9800
  336MOL0     H45333   7.427   2.564   1.730  0.1478  0.0329  1.0904
  336MOL0     H45334   7.699   2.454   1.673  0.5593 -0.0876 -2.0921
  336MOL0     H45335   7.589   2.529   1.564 -2.8407 -0.6928  0.4744
  336MOL0     H45336   7.679   2.684   1.817  1.3919  0.4534  0.9112
  336MOL0     H45337   7.589   2.742   1.684  1.7629  1.9002 -0.4263
  336MOL0     H45338   7.803   2.703   1.537 -0.9319 -0.4624 -0.5445
  336MOL0     H45339   7.812   2.811   1.681 -1.1247  0.1252 -1.2519
  336MOL0     H45340   6.866   2.305   1.785 -0.0245  1.3598  1.1947
  336MOL0     H45341   6.655   2.161   1.827 -0.4484 -3.7698 -0.7719
  336MOL0     H45342   6.384   1.973   2.009  1.4822 -1.4652  2.0980
  336MOL0     H45343   6.162   1.879   1.995 -0.2776  0.0222  0.2855
  336MOL0     H45344   4.363   1.737   1.883  0.6970  0.8966  1.5060
  336MOL0     H45345   4.191   1.837   1.749  0.4295 -1.3583  1.1195
  336MOL0     H45346   3.826   2.019   1.565 -1.9196 -0.1821  0.1655
  336MOL0     H45347   3.629   2.026   1.411  0.2176  0.3598 -0.5571
  336MOL0     H45348   3.483   2.010   1.053  2.3392 -0.6083 -1.5127
  336MOL0     H45349   3.505   2.084   1.207  2.0104 -0.3698  1.5820
  336MOL0     H45350   3.395   1.920   1.315 -3.6931  1.1368 -2.2756
  336MOL0     H45351   3.531   1.813   1.265 -0.8823 -1.1495 -1.2033
  336MOL0     H45352   3.403   1.752   1.071  2.9621  1.9326 -1.0863
  336MOL0     H45353   3.277   1.882   1.099  1.0108 -1.8475 -2.8798
  336MOL0     H45354   3.332   1.649   1.291 -0.6849 -1.3918  0.6792
  336MOL0     H45355   3.195   1.767   1.293 -2.6463 -4.5193  1.0769
  336MOL0     H45356   3.062   1.533   0.982  2.1543  1.2283 -3.2090
  336MOL0     H45357   3.903   1.940   1.093 -0.1621  5.1177 -1.4896
  336MOL0     H45358   4.194   2.038   1.236  0.3598 -0.2633  1.5100
  336MOL0     H45359   4.175   1.853   1.239 -0.4552 -0.2607 -1.2491
  336MOL0     H45360   4.122   1.951   1.107  0.7384 -0.3860  0.5026
  337MOL0     O45361   6.589  10.103   5.432  0.3962 -0.3141 -0.0533
  337MOL0     C45362   6.490  10.092   5.503 -0.2736 -0.0846 -0.1788
  337MOL0     O45363   6.486  10.127   5.640  0.0876 -0.1803  0.0778
  337MOL0     C45364   6.600  10.187   5.686 -0.1886 -0.7339  0.1176
  337MOL0     C45365   6.595  10.324   5.722 -1.2385 -0.8562  0.4421
  337MOL0     C45366   6.705  10.402   5.766  0.0591  0.0515  0.3578
  337MOL0     C45367   6.830  10.331   5.777 -0.5935  0.2028 -0.5067
  337MOL0     O45368   6.952  10.391   5.820  0.4181  0.8256  0.3289
  337MOL0     C45369   6.972  10.533   5.786 -0.9014  0.0751 -0.2754
  337MOL0     C45370   7.128  10.569   5.805 -0.1834  0.6077 -0.0930
  337MOL0     C45371   7.200  10.518   5.687 -0.2944 -0.0273 -0.6153
  337MOL0     C45372   7.349  10.538   5.703 -0.4328 -0.0306 -0.3631
  337MOL0     C45373   7.412  10.439   5.804 -0.2398  0.1046  0.3183
  337MOL0     C45374   7.472  10.515   5.927  0.8925 -0.2051 -0.3246
  337MOL0     C45375   7.606  10.580   5.908 -0.1033 -0.4208  0.1010
  337MOL0     C45376   7.712  10.469   5.928 -0.1644 -0.2560  0.6339
  337MOL0     N45377   7.844  10.535   5.935  0.7836  0.1688 -0.1699
  337MOL0     C45378   7.897  10.621   5.842 -0.0602 -0.1538  0.0571
  337MOL0     C45379   8.033  10.618   5.870  0.6509  0.1046  1.0895
  337MOL0     C45380   8.148  10.697   5.808  0.3431  0.9395  0.1696
  337MOL0     C45381   8.129  10.730   5.659  0.1514  0.2849 -0.7596
  337MOL0     C45382   8.233  10.830   5.598  0.2670  0.4532  0.7600
  337MOL0     C45383   8.380  10.806   5.636  0.1188  0.3559  1.3358
  337MOL0     O45384   8.458  10.874   5.537  0.3807 -0.1305 -0.0117
  337MOL0     C45385   8.589  10.900   5.562 -0.4382 -0.0901  0.3940
  337MOL0     C45386   8.666  10.953   5.453  0.8300  0.4516  0.2377
  337MOL0     C45387   8.794  10.998   5.476  0.8262 -0.6954  0.2461
  337MOL0     C45388   8.856  10.977   5.604  0.3318 -1.0586  0.7819
  337MOL0     C45389   9.002  11.003   5.620  0.0736  0.1541  0.5505
  337MOL0     O45390   9.070  10.964   5.738 -0.1535  0.5139 -0.0100
  337MOL0     C45391   9.205  10.963   5.768  0.3505 -0.5742  0.1159
  337MOL0     C45392   9.242  10.948   5.904  0.5263 -0.5742 -0.4737
  337MOL0     C45393   9.373  10.959   5.947  0.9163 -0.8436 -0.0478
  337MOL0     C45394   9.478  10.980   5.856  0.5629 -0.8610  0.9964
  337MOL0     O45395   9.607  11.001   5.912 -0.3702  0.2505 -0.2122
  337MOL0     C45396   9.714  10.923   5.864  0.3753 -0.1903 -0.1117
  337MOL0     C45397   9.813  10.918   5.976  0.3687  0.0644 -0.0247
  337MOL0     C45398   9.906  11.028   5.952 -0.3556 -0.4041  0.4583
  337MOL0     C45399  10.001  11.048   6.071  0.2880  0.8505 -0.2384
  337MOL0     C45400  10.113  11.142   6.047 -0.0242 -1.0153 -0.2950
  337MOL0     C45401  10.194  11.161   6.182  0.4665  0.1934 -0.1355
  337MOL0     C45402  10.298  11.265   6.161  0.0511 -1.0158 -0.7075
  337MOL0     C45403  10.388  11.274   6.280  0.2452  0.3101 -0.5856
  337MOL0    Cl45404  10.497  11.408   6.248  0.1358 -0.2590 -0.2326
  337MOL0     C45405   9.438  10.987   5.721 -0.0882 -0.0344  0.1881
  337MOL0     C45406   9.311  10.973   5.673  0.2697 -1.1523  0.5498
  337MOL0     O45407   9.052  11.063   5.523 -0.5848 -0.1361 -0.7673
  337MOL0     C45408   8.773  10.943   5.708  1.3542  0.5283  0.6279
  337MOL0     C45409   8.644  10.903   5.693 -0.2224  0.4894 -0.2785
  337MOL0     N45410   8.058  10.536   5.980 -0.1290 -0.2681 -0.2514
  337MOL0     N45411   7.940  10.485   6.015  0.2977 -0.6858 -0.0126
  337MOL0     C45412   6.841  10.197   5.748 -0.6023 -0.1250  0.0213
  337MOL0     C45413   6.733  10.126   5.705  0.7475 -0.5874  0.2865
  337MOL0     C45414   6.370  10.024   5.445  0.4409 -0.0023  0.2037
  337MOL0     C45415   6.376   9.923   5.341  0.5349 -0.6074 -0.5023
  337MOL0     C45416   6.261   9.865   5.292 -0.7352 -0.2151  0.0955
  337MOL0     C45417   6.134   9.887   5.357 -0.1053 -0.9539  1.1531
  337MOL0     O45418   6.027   9.806   5.316 -0.5557 -0.3877 -0.5098
  337MOL0     C45419   5.901   9.826   5.381 -0.0474  0.4261  0.2819
  337MOL0     C45420   5.786   9.763   5.296  0.3121  0.0690 -0.4708
  337MOL0     C45421   5.819   9.622   5.242  0.2170  0.8343 -0.9087
  337MOL0     C45422   5.702   9.575   5.148 -0.1950 -0.5577 -0.4400
  337MOL0     C45423   5.590   9.533   5.233 -0.2134 -0.3281 -0.0196
  337MOL0     C45424   5.493   9.520   5.307 -0.1693  0.2028  0.1897
  337MOL0     C45425   6.128   9.983   5.462  0.3224 -0.2444 -0.5666
  337MOL0     C45426   6.239  10.053   5.503 -0.1043 -0.4684  0.2971
  337MOL0     C45427   6.209  10.172   5.599  0.4123 -0.0915  0.0150
  337MOL0     H45428   6.506  10.382   5.700 -1.7260 -2.1459 -1.1536
  337MOL0     H45429   6.696  10.504   5.800 -0.0090  0.2923 -0.3791
  337MOL0     H45430   6.949  10.555   5.681 -1.1844 -0.5092 -0.3379
  337MOL0     H45431   6.917  10.594   5.857 -2.7190  0.6464 -2.0724
  337MOL0     H45432   7.161  10.525   5.900  0.9778  0.4015 -0.5843
  337MOL0     H45433   7.146  10.677   5.802  2.5706  0.1967 -0.5284
  337MOL0     H45434   7.170  10.579   5.601  2.2664  1.1138 -0.7912
  337MOL0     H45435   7.180  10.412   5.667  0.8506 -0.4128  0.1816
  337MOL0     H45436   7.404  10.524   5.609 -0.3493  0.0811 -0.3312
  337MOL0     H45437   7.358  10.645   5.724 -0.7181 -0.2125  0.7382
  337MOL0     H45438   7.338  10.372   5.849 -1.1124  1.3949  0.8557
  337MOL0     H45439   7.483  10.367   5.763  0.4401 -0.5667  2.5198
  337MOL0     H45440   7.397  10.590   5.958 -2.4613 -3.6459  0.6735
  337MOL0     H45441   7.477  10.447   6.013  1.9486  0.9453  0.5583
  337MOL0     H45442   7.607  10.669   5.971 -0.4165  0.9923 -1.8271
  337MOL0     H45443   7.599  10.618   5.806 -3.0029 -0.2821  0.2791
  337MOL0     H45444   7.691  10.411   6.018 -1.8920  0.3671  0.6628
  337MOL0     H45445   7.718  10.402   5.841  0.7267  1.0369 -0.3463
  337MOL0     H45446   7.864  10.678   5.755 -2.1071  0.2914  1.0839
  337MOL0     H45447   8.163  10.783   5.874 -1.4350  1.0814  0.4547
  337MOL0     H45448   8.232  10.628   5.811 -2.1453 -2.7344 -3.4433
  337MOL0     H45449   8.136  10.639   5.598  2.1102 -0.8810  1.0779
  337MOL0     H45450   8.029  10.772   5.648 -1.2923 -2.0895  2.1202
  337MOL0     H45451   8.201  10.932   5.624 -2.3359 -0.0052 -0.2632
  337MOL0     H45452   8.227  10.819   5.489 -0.0416 -0.3685  0.8548
  337MOL0     H45453   8.414  10.703   5.650  1.2313  0.6186  0.6417
  337MOL0     H45454   8.374  10.843   5.739 -2.8140  0.2428  1.2951
  337MOL0     H45455   8.614  10.973   5.360 -0.7931 -3.1174  0.1787
  337MOL0     H45456   8.851  11.038   5.393  4.3719 -3.8340  0.8913
  337MOL0     H45457   9.162  10.950   5.978 -0.1555  0.7238 -1.2154
  337MOL0     H45458   9.402  10.945   6.051 -0.0189 -2.3324  0.0544
  337MOL0     H45459   9.672  10.828   5.832  0.0557  0.5688 -2.0769
  337MOL0     H45460   9.761  10.968   5.776  0.3421  0.5274  0.2229
  337MOL0     H45461   9.760  10.932   6.071  0.0886  1.8670 -0.3983
  337MOL0     H45462   9.878  10.833   5.955  0.5035  0.7936 -3.0844
  337MOL0     H45463   9.958  10.998   5.860  0.0071 -2.0257  1.1565
  337MOL0     H45464   9.854  11.122   5.930 -1.5140 -0.9274  0.8996
  337MOL0     H45465  10.052  10.953   6.090 -0.8233  0.2694 -0.0914
  337MOL0     H45466   9.938  11.067   6.158  0.2614 -0.9348  0.1695
  337MOL0     H45467  10.075  11.241   6.019  1.5597 -0.6740 -1.4249
  337MOL0     H45468  10.179  11.108   5.966 -0.6012 -3.1387  0.0841
  337MOL0     H45469  10.133  11.194   6.266  1.3870 -0.3390  0.7733
  337MOL0     H45470  10.236  11.063   6.206 -2.0808 -1.2452 -1.1596
  337MOL0     H45471  10.255  11.364   6.146 -0.2666 -0.7810  1.4343
  337MOL0     H45472  10.361  11.238   6.076  4.1988 -1.4207  2.2143
  337MOL0     H45473  10.329  11.303   6.366  1.1409  1.6809 -0.3903
  337MOL0     H45474  10.452  11.189   6.305 -1.2217 -0.4323  0.7707
  337MOL0     H45475   9.515  11.015   5.650  2.0188 -1.7413  1.6404
  337MOL0     H45476   9.287  10.996   5.569  2.5805  0.4073  0.2744
  337MOL0     H45477   8.812  10.929   5.809 -0.5200 -1.9255  1.1319
  337MOL0     H45478   8.595  10.859   5.779 -1.6895  0.9653 -0.8504
  337MOL0     H45479   6.937  10.147   5.749 -0.3084  0.3219 -1.9881
  337MOL0     H45480   6.757  10.028   5.666  1.4986 -0.2298 -0.1748
  337MOL0     H45481   6.477   9.897   5.314  1.4845 -0.5736  2.7106
  337MOL0     H45482   6.273   9.790   5.214  3.2570 -0.2883  0.5679
  337MOL0     H45483   5.881   9.932   5.395 -3.2923 -0.1287  0.7554
  337MOL0     H45484   5.887   9.779   5.478  0.6079  0.3637  0.3503
  337MOL0     H45485   5.771   9.825   5.207 -0.5293 -0.9301 -1.0569
  337MOL0     H45486   5.695   9.765   5.356  0.7743  0.0542  0.2382
  337MOL0     H45487   5.823   9.552   5.326  2.1051  0.3377 -1.3770
  337MOL0     H45488   5.918   9.612   5.197 -0.1043  1.6403 -1.8445
  337MOL0     H45489   5.669   9.657   5.083 -0.2413 -0.0965  0.1661
  337MOL0     H45490   5.733   9.484   5.095 -0.6218 -1.5618  0.9768
  337MOL0     H45491   5.411   9.494   5.370  0.5229 -0.6942  0.7388
  337MOL0     H45492   6.035   9.991   5.517  0.8267 -3.6493  1.0518
  337MOL0     H45493   6.245  10.154   5.701 -1.5557 -0.3848  0.7188
  337MOL0     H45494   6.244  10.268   5.559  0.9240 -0.5431 -0.6162
  337MOL0     H45495   6.101  10.191   5.609  0.8895  2.6048  0.9855
  338MOL0     O45496   2.350   4.847   3.516  0.4416 -0.1516  0.0367
  338MOL0     C45497   2.301   4.856   3.401  0.0508  0.1258 -0.4566
  338MOL0     O45498   2.370   4.839   3.285 -0.1223 -0.1177  0.2123
  338MOL0     C45499   2.491   4.772   3.296  0.5670  0.0441  0.4288
  338MOL0     C45500   2.501   4.647   3.354 -0.2898  0.0420  0.2663
  338MOL0     C45501   2.625   4.579   3.353  0.4176 -0.2702 -0.3058
  338MOL0     C45502   2.734   4.644   3.298  0.3820  0.1859  0.4821
  338MOL0     O45503   2.868   4.605   3.302 -0.0508  0.1654  0.1269
  338MOL0     C45504   2.919   4.494   3.373  1.2684  0.8766 -0.3864
  338MOL0     C45505   3.071   4.491   3.351  0.3260  0.2856 -0.1277
  338MOL0     C45506   3.133   4.364   3.413  0.4172  0.5239 -0.1373
  338MOL0     C45507   3.283   4.369   3.425  0.3448 -0.7183  0.9005
  338MOL0     C45508   3.348   4.248   3.465  0.0597  0.7146 -0.2783
  338MOL0     C45509   3.403   4.153   3.361  0.1527 -0.1989 -1.0468
  338MOL0     C45510   3.467   4.026   3.428  0.0223  0.1895 -0.9750
  338MOL0     C45511   3.598   4.055   3.503  0.1609 -0.1839  0.6003
  338MOL0     N45512   3.686   4.125   3.411 -0.1653  0.3813 -0.2209
  338MOL0     C45513   3.757   4.243   3.444  0.1768 -0.2665  0.8597
  338MOL0     C45514   3.865   4.241   3.359  0.4932  0.5478  0.7791
  338MOL0     C45515   3.971   4.351   3.346  0.5839 -0.2899 -0.1982
  338MOL0     C45516   3.912   4.492   3.316  0.4824 -0.0025  0.0661
  338MOL0     C45517   3.881   4.523   3.161  0.8833  0.1468 -0.1368
  338MOL0     C45518   3.749   4.457   3.115 -0.4549 -0.3946 -0.3138
  338MOL0     O45519   3.645   4.532   3.186  0.0537 -0.3236 -1.0027
  338MOL0     C45520   3.524   4.540   3.132 -0.3440 -0.5688  0.3093
  338MOL0     C45521   3.470   4.479   3.024 -0.2893 -0.1093  0.6877
  338MOL0     C45522   3.337   4.514   2.979 -0.0807 -0.7439  1.2646
  338MOL0     C45523   3.262   4.610   3.044 -0.5078  0.0509  0.1466
  338MOL0     C45524   3.128   4.630   3.000  0.5332 -0.6479 -0.0325
  338MOL0     O45525   3.065   4.548   2.902  0.8932 -0.1242 -0.7518
  338MOL0     C45526   2.935   4.578   2.876  0.5480 -0.1339 -0.2304
  338MOL0     C45527   2.840   4.562   2.976  0.2420  0.4338  0.2036
  338MOL0     C45528   2.707   4.591   2.958 -0.5466  0.4039 -0.0031
  338MOL0     C45529   2.662   4.640   2.835  0.0509 -0.1690  0.2298
  338MOL0     O45530   2.533   4.682   2.801 -0.2260 -0.4941 -0.0351
  338MOL0     C45531   2.474   4.781   2.895  1.0888 -0.2432  0.2040
  338MOL0     C45532   2.321   4.814   2.872  0.6172  0.1806 -0.6590
  338MOL0     C45533   2.244   4.688   2.854 -0.2464 -0.5072  0.0701
  338MOL0     C45534   2.098   4.705   2.815  0.1903  0.1355 -0.3075
  338MOL0     C45535   2.040   4.562   2.793 -0.0366  0.1841  0.1893
  338MOL0     C45536   1.909   4.561   2.719  0.4512  0.2965  0.0782
  338MOL0     C45537   1.800   4.645   2.800 -0.0608  0.4552  0.4584
  338MOL0     C45538   1.660   4.639   2.746 -0.2769  0.7953  0.2746
  338MOL0    Cl45539   1.533   4.705   2.846 -0.0948 -0.3369 -0.0335
  338MOL0     C45540   2.754   4.648   2.731  0.1468  0.0054  0.6133
  338MOL0     C45541   2.893   4.612   2.746 -0.2876  0.6925  0.4654
  338MOL0     O45542   3.075   4.716   3.061  0.0660  0.0329 -0.7893
  338MOL0     C45543   3.313   4.665   3.166 -0.9007  0.1465 -0.6187
  338MOL0     C45544   3.444   4.635   3.196 -0.0659 -0.0188  0.4825
  338MOL0     N45545   3.844   4.134   3.274 -0.3727 -1.0106  0.5310
  338MOL0     N45546   3.738   4.067   3.308 -0.1644  0.2961  0.3840
  338MOL0     C45547   2.719   4.768   3.231 -0.0311 -0.1651  0.5073
  338MOL0     C45548   2.600   4.832   3.234  0.8658 -0.4882  1.0691
  338MOL0     C45549   2.160   4.926   3.397  0.0831  0.1397 -0.9401
  338MOL0     C45550   2.137   5.010   3.293 -0.2762  0.7312  0.0173
  338MOL0     C45551   2.013   5.067   3.267  0.4649  0.0858 -0.1952
  338MOL0     C45552   1.909   5.019   3.340  0.0840 -0.1166  0.7899
  338MOL0     O45553   1.783   5.062   3.290  1.2253 -0.3771  0.3404
  338MOL0     C45554   1.672   5.054   3.385 -0.9079 -0.1605  0.1168
  338MOL0     C45555   1.545   5.101   3.319 -0.0313 -0.2544  0.0049
  338MOL0     C45556   1.562   5.239   3.256  0.1957  0.3693 -0.6912
  338MOL0     C45557   1.437   5.303   3.192  0.3873 -0.8789 -0.8003
  338MOL0     C45558   1.429   5.450   3.193 -0.3636  1.2491  0.7634
  338MOL0     C45559   1.400   5.565   3.200  0.1796  0.5882 -0.0744
  338MOL0     C45560   1.928   4.931   3.451  1.1968 -0.9019 -0.6416
  338MOL0     C45561   2.053   4.898   3.491  0.0337 -0.2731  0.6389
  338MOL0     C45562   2.084   4.812   3.615 -0.6080 -0.4633 -1.0362
  338MOL0     H45563   2.413   4.605   3.401 -1.0769 -0.0125 -1.2025
  338MOL0     H45564   2.632   4.481   3.399 -0.9039 -0.1746  0.1297
  338MOL0     H45565   2.890   4.504   3.478  1.8622  1.8707 -0.2981
  338MOL0     H45566   2.876   4.401   3.334 -0.4723  0.2034  2.7663
  338MOL0     H45567   3.119   4.582   3.388  0.7559  0.5649 -1.3077
  338MOL0     H45568   3.087   4.480   3.243  1.2418 -1.2361  0.1370
  338MOL0     H45569   3.099   4.275   3.360 -1.8739 -0.0444  2.1278
  338MOL0     H45570   3.087   4.360   3.512 -0.4242 -0.4457 -0.5558
  338MOL0     H45571   3.330   4.399   3.331  0.8981 -0.5162  1.2345
  338MOL0     H45572   3.314   4.451   3.490 -0.0270  2.2224 -2.3607
  338MOL0     H45573   3.440   4.291   3.505  0.2262 -0.1142  0.2737
  338MOL0     H45574   3.300   4.187   3.543  0.6464 -0.7164 -1.0020
  338MOL0     H45575   3.314   4.124   3.305 -0.8234  1.6276 -0.5334
  338MOL0     H45576   3.469   4.190   3.282 -1.7932 -1.1700 -3.2462
  338MOL0     H45577   3.489   3.947   3.356  0.4175 -0.8241  0.2119
  338MOL0     H45578   3.399   3.979   3.500 -0.2665 -1.1604 -2.0894
  338MOL0     H45579   3.573   4.118   3.588 -1.6867  0.6933 -0.5327
  338MOL0     H45580   3.641   3.965   3.548 -1.6981 -0.2584  2.3438
  338MOL0     H45581   3.739   4.316   3.522 -0.1792  0.5912 -0.0005
  338MOL0     H45582   4.014   4.355   3.447  1.3625 -1.0910 -0.4939
  338MOL0     H45583   4.050   4.321   3.276 -0.7561  0.8160 -2.2675
  338MOL0     H45584   3.819   4.511   3.371 -0.8453 -0.3331 -1.9530
  338MOL0     H45585   3.985   4.565   3.354 -1.6087  1.3513  1.7184
  338MOL0     H45586   3.966   4.492   3.099  1.4474  1.0269  0.1799
  338MOL0     H45587   3.875   4.632   3.151  1.1521  0.1516 -0.2473
  338MOL0     H45588   3.750   4.354   3.150 -1.7704  0.1672  1.5670
  338MOL0     H45589   3.739   4.475   3.008 -1.5935  2.7561  0.1964
  338MOL0     H45590   3.528   4.400   2.978 -1.3527 -1.2869  1.2998
  338MOL0     H45591   3.299   4.463   2.891  2.1372 -2.3417  1.1689
  338MOL0     H45592   2.878   4.524   3.070 -0.7842  0.0268  0.4563
  338MOL0     H45593   2.651   4.588   3.051 -0.9725 -0.0719 -0.2670
  338MOL0     H45594   2.483   4.744   2.997  1.1530 -2.1027 -0.4397
  338MOL0     H45595   2.529   4.874   2.882  1.9885 -0.8070 -0.1458
  338MOL0     H45596   2.277   4.865   2.958  2.2479  2.2197 -0.9484
  338MOL0     H45597   2.314   4.885   2.788 -1.2653  0.7865 -0.0426
  338MOL0     H45598   2.294   4.640   2.769  0.2784 -1.1555  0.7357
  338MOL0     H45599   2.257   4.627   2.944  0.6933 -0.7113 -0.1871
  338MOL0     H45600   2.092   4.762   2.722 -0.5266  1.1983  0.3741
  338MOL0     H45601   2.038   4.751   2.894  0.2742 -1.9730  1.0769
  338MOL0     H45602   2.024   4.510   2.888  0.8201 -0.6472 -0.1076
  338MOL0     H45603   2.112   4.494   2.747  1.0396  0.5870  1.2047
  338MOL0     H45604   1.927   4.604   2.620  0.2587  0.0914 -0.0494
  338MOL0     H45605   1.879   4.456   2.705 -0.0994  0.7920 -3.2609
  338MOL0     H45606   1.818   4.751   2.816  0.7247  0.6386 -1.4046
  338MOL0     H45607   1.808   4.594   2.896  2.0977 -0.1918 -0.0160
  338MOL0     H45608   1.658   4.700   2.656 -0.4369  0.2175 -0.1235
  338MOL0     H45609   1.634   4.536   2.718  0.5286  0.4066  0.8889
  338MOL0     H45610   2.720   4.678   2.633  0.9687  0.0557  0.3353
  338MOL0     H45611   2.967   4.618   2.667 -1.7173  0.9906 -0.8979
  338MOL0     H45612   3.257   4.739   3.222  0.5362  0.9703 -0.2383
  338MOL0     H45613   3.492   4.688   3.278  2.0796  0.7379 -1.1466
  338MOL0     H45614   2.798   4.821   3.178 -1.1654  0.7154 -0.3728
  338MOL0     H45615   2.599   4.931   3.190 -3.7252 -1.3859 -1.5547
  338MOL0     H45616   2.212   5.017   3.215 -1.3646  1.4973 -1.0078
  338MOL0     H45617   2.003   5.133   3.181 -0.3416  1.5773  0.9998
  338MOL0     H45618   1.695   5.113   3.475 -1.2840  0.5592 -0.2434
  338MOL0     H45619   1.651   4.953   3.420 -4.5447  0.2301 -0.5825
  338MOL0     H45620   1.455   5.104   3.382 -3.0659  0.5248 -3.9405
  338MOL0     H45621   1.524   5.027   3.241 -0.9126 -2.0791  1.8712
  338MOL0     H45622   1.639   5.248   3.179 -1.8885  0.7621 -2.8321
  338MOL0     H45623   1.597   5.305   3.336  1.3141 -4.4233  3.2935
  338MOL0     H45624   1.434   5.276   3.086  1.4815 -0.6157 -0.9086
  338MOL0     H45625   1.351   5.261   3.244 -0.7723  2.2142  0.0050
  338MOL0     H45626   1.363   5.665   3.195 -2.1223 -0.2351 -0.4145
  338MOL0     H45627   1.853   4.896   3.521  1.0114 -0.1702 -0.4584
  338MOL0     H45628   2.000   4.798   3.684 -0.5497 -0.9699 -1.0606
  338MOL0     H45629   2.125   4.715   3.586  2.2587  0.8748 -1.7908
  338MOL0     H45630   2.164   4.866   3.667 -2.0884  1.3921 -0.5687
  339MOL0     O45631   1.993   6.606   3.230  0.4321  0.9324 -0.0106
  339MOL0     C45632   1.966   6.512   3.308 -0.3575 -0.0327  0.1889
  339MOL0     O45633   2.057   6.444   3.371  0.1580 -0.1721  0.1475
  339MOL0     C45634   2.192   6.466   3.365 -0.2750  0.1078  0.3614
  339MOL0     C45635   2.260   6.360   3.413  0.3502  0.4590  0.0375
  339MOL0     C45636   2.394   6.358   3.434  0.2144 -0.5964 -0.2647
  339MOL0     C45637   2.469   6.472   3.403 -0.1525  0.4808  0.0911
  339MOL0     O45638   2.610   6.470   3.408  0.2761  0.1551 -0.4762
  339MOL0     C45639   2.675   6.380   3.502 -0.0321  0.6300  0.3173
  339MOL0     C45640   2.823   6.417   3.500 -0.2231  0.4867  0.1651
  339MOL0     C45641   2.908   6.314   3.570  0.2648 -0.6414  0.0009
  339MOL0     C45642   3.050   6.363   3.569 -0.1914 -0.0388  0.2274
  339MOL0     C45643   3.145   6.252   3.617 -0.4806 -0.9244 -0.4430
  339MOL0     C45644   3.107   6.196   3.754  0.3003  0.3095  0.1639
  339MOL0     C45645   3.212   6.095   3.803 -0.5611 -0.0316  0.8207
  339MOL0     C45646   3.170   6.036   3.930  0.7563  0.1504  0.6013
  339MOL0     N45647   3.271   5.973   4.009 -0.4841 -0.3187  0.4800
  339MOL0     C45648   3.314   6.007   4.141  0.2526 -0.2907  0.5780
  339MOL0     C45649   3.434   5.939   4.153 -0.1567 -0.5258  0.4080
  339MOL0     C45650   3.525   5.946   4.272  0.3116 -0.7145 -0.2422
  339MOL0     C45651   3.672   5.960   4.227 -0.4167  0.4718  0.2308
  339MOL0     C45652   3.728   5.817   4.201 -0.0551 -0.3739 -0.0101
  339MOL0     C45653   3.879   5.821   4.169  0.8644  0.2910 -0.0797
  339MOL0     O45654   3.913   5.731   4.064 -0.9566 -0.5292  0.1740
  339MOL0     C45655   4.042   5.683   4.072  0.2763  0.6282  0.1511
  339MOL0     C45656   4.109   5.678   3.950 -0.5221 -0.1831  0.0935
  339MOL0     C45657   4.232   5.618   3.930  0.3011 -0.6833  0.9280
  339MOL0     C45658   4.291   5.552   4.039 -0.9587  0.5458  0.3267
  339MOL0     C45659   4.428   5.503   4.007  0.5616  0.2836  0.6326
  339MOL0     O45660   4.481   5.530   3.885 -0.5053 -0.0748  0.0128
  339MOL0     C45661   4.610   5.477   3.864  0.0921 -0.7926 -0.0957
  339MOL0     C45662   4.720   5.554   3.889  0.6707  0.9449  0.1206
  339MOL0     C45663   4.851   5.509   3.877 -0.3117  0.9783 -0.6220
  339MOL0     C45664   4.876   5.374   3.832 -0.4330 -0.3293  0.0337
  339MOL0     O45665   5.001   5.317   3.824 -1.0718 -0.2082  0.0236
  339MOL0     C45666   5.118   5.388   3.880  0.2404 -0.4394 -0.7115
  339MOL0     C45667   5.241   5.328   3.824 -0.1693 -1.1902  0.3930
  339MOL0     C45668   5.362   5.374   3.902 -0.1676 -1.6485  0.2390
  339MOL0     C45669   5.495   5.336   3.826  0.3470 -0.1747  0.2425
  339MOL0     C45670   5.622   5.369   3.903  0.4981  0.4513  0.0934
  339MOL0     C45671   5.679   5.504   3.882 -0.0742  0.0292 -0.1857
  339MOL0     C45672   5.832   5.529   3.917 -0.2190  0.1791  0.4107
  339MOL0     C45673   5.927   5.415   3.867  1.0464 -0.4935  0.0862
  339MOL0    Cl45674   5.928   5.418   3.683  0.1605 -0.4213  0.8773
  339MOL0     C45675   4.766   5.290   3.803 -0.1741  0.1308 -0.3897
  339MOL0     C45676   4.631   5.346   3.818  0.0293  0.6414 -0.1779
  339MOL0     O45677   4.487   5.449   4.092 -0.1802  0.2987  0.7320
  339MOL0     C45678   4.230   5.551   4.164 -0.3556  0.9571  0.3943
  339MOL0     C45679   4.102   5.613   4.179  0.3432 -0.1269 -0.4556
  339MOL0     N45680   3.462   5.879   4.036 -0.6409 -0.1230  0.3368
  339MOL0     N45681   3.358   5.881   3.959  0.1495 -0.0807 -0.1265
  339MOL0     C45682   2.400   6.586   3.348 -0.4281 -0.1094 -0.2373
  339MOL0     C45683   2.267   6.584   3.337  0.2565  0.0529 -0.0750
  339MOL0     C45684   1.821   6.470   3.327 -0.3146 -0.1072  1.3658
  339MOL0     C45685   1.791   6.375   3.424 -0.0699  0.2342 -0.2808
  339MOL0     C45686   1.659   6.327   3.434  0.3085  0.0469  0.0209
  339MOL0     C45687   1.549   6.389   3.360 -0.4686 -0.4899  0.1731
  339MOL0     O45688   1.420   6.329   3.353  0.3024 -0.4047  0.2945
  339MOL0     C45689   1.314   6.419   3.349 -0.1195 -0.1655  0.9446
  339MOL0     C45690   1.177   6.355   3.392 -0.1773  0.2446  0.4023
  339MOL0     C45691   1.177   6.319   3.546  0.3368 -0.8353 -0.4534
  339MOL0     C45692   1.036   6.332   3.594  0.1641  0.1057  0.0686
  339MOL0     C45693   0.939   6.244   3.525 -0.1361 -0.0909 -0.2472
  339MOL0     C45694   0.860   6.174   3.480  0.5796  0.3221 -0.1658
  339MOL0     C45695   1.581   6.491   3.280 -0.4773 -1.6149 -0.1328
  339MOL0     C45696   1.714   6.532   3.255  0.0150 -0.5250 -1.1331
  339MOL0     C45697   1.719   6.654   3.162  0.5898 -0.4086 -1.4093
  339MOL0     H45698   2.195   6.279   3.446 -1.5216  3.3359  4.2418
  339MOL0     H45699   2.431   6.271   3.486 -0.1392  0.6718  2.2796
  339MOL0     H45700   2.633   6.393   3.602 -0.1323  2.0827  0.1134
  339MOL0     H45701   2.656   6.275   3.478 -1.3224  0.1925  2.9748
  339MOL0     H45702   2.837   6.517   3.542 -1.5666  1.7168 -2.1217
  339MOL0     H45703   2.858   6.434   3.398 -0.4345  0.3377  0.0665
  339MOL0     H45704   2.900   6.220   3.515 -1.4726  1.0794 -2.9230
  339MOL0     H45705   2.867   6.304   3.672 -1.6588  2.4711 -0.3389
  339MOL0     H45706   3.082   6.389   3.468  1.5426  0.3356  0.8331
  339MOL0     H45707   3.059   6.446   3.640  0.6737 -1.5386  1.9815
  339MOL0     H45708   3.140   6.158   3.560 -2.3479 -1.8488  1.1291
  339MOL0     H45709   3.248   6.288   3.604 -1.7478  2.3063 -2.8084
  339MOL0     H45710   3.083   6.270   3.831 -0.3539 -0.4648  0.7287
  339MOL0     H45711   3.010   6.148   3.741 -2.3645  5.2640 -0.4706
  339MOL0     H45712   3.310   6.139   3.827  1.0758 -3.2833  0.5959
  339MOL0     H45713   3.231   6.011   3.736 -1.1108  1.0431 -0.7393
  339MOL0     H45714   3.118   6.113   3.987 -2.4898 -2.8173  2.0565
  339MOL0     H45715   3.088   5.965   3.913  0.1395  1.0737 -0.4189
  339MOL0     H45716   3.281   6.081   4.214  0.4566  0.7000 -0.3181
  339MOL0     H45717   3.507   6.046   4.312 -2.7907 -0.6016 -1.6658
  339MOL0     H45718   3.511   5.865   4.345  3.9860 -1.2894  0.0246
  339MOL0     H45719   3.681   6.013   4.132 -1.1736  1.8124  0.8852
  339MOL0     H45720   3.736   6.003   4.305 -0.2290  1.0990 -0.2676
  339MOL0     H45721   3.663   5.773   4.125 -1.1833 -0.6303  1.0727
  339MOL0     H45722   3.703   5.756   4.288 -2.8574  1.9590  0.9771
  339MOL0     H45723   3.926   5.791   4.263  0.4643 -1.1547 -0.3298
  339MOL0     H45724   3.908   5.925   4.150  1.5518 -0.2833 -2.5855
  339MOL0     H45725   4.057   5.743   3.880  0.5699 -0.6747 -1.2192
  339MOL0     H45726   4.287   5.650   3.842 -2.0337  1.8649  0.2393
  339MOL0     H45727   4.700   5.648   3.939  2.6139  1.8455 -0.6616
  339MOL0     H45728   4.926   5.578   3.916 -0.2533  0.2861  0.5382
  339MOL0     H45729   5.124   5.494   3.855  1.0589 -0.5578 -1.0611
  339MOL0     H45730   5.115   5.380   3.989 -0.0612  2.3348 -0.4549
  339MOL0     H45731   5.233   5.219   3.819 -1.3647 -1.4119  4.1528
  339MOL0     H45732   5.252   5.365   3.721  4.7506 -1.8567  0.4197
  339MOL0     H45733   5.364   5.480   3.930  4.6425 -1.0354 -1.4825
  339MOL0     H45734   5.363   5.323   3.998  0.3740  1.5395  2.0759
  339MOL0     H45735   5.495   5.388   3.730 -0.3636 -1.4440 -0.4740
  339MOL0     H45736   5.503   5.230   3.800 -0.9809 -0.4928  1.0704
  339MOL0     H45737   5.698   5.295   3.874  2.8837  2.3339  1.1652
  339MOL0     H45738   5.593   5.357   4.007 -2.0898  1.6966 -0.4090
  339MOL0     H45739   5.662   5.529   3.776 -2.6393  0.9585  0.3599
  339MOL0     H45740   5.617   5.572   3.941 -1.2070 -1.0042 -0.1645
  339MOL0     H45741   5.854   5.535   4.024  4.6877 -3.0779 -0.0677
  339MOL0     H45742   5.860   5.627   3.875  1.8393 -0.4112  0.3010
  339MOL0     H45743   6.029   5.448   3.887  1.3358  0.1482 -2.0980
  339MOL0     H45744   5.914   5.314   3.908  1.2384 -0.6321 -0.1900
  339MOL0     H45745   4.778   5.184   3.784 -1.5567 -0.3184  0.9266
  339MOL0     H45746   4.548   5.276   3.809  1.0718 -0.3716 -2.6570
  339MOL0     H45747   4.269   5.498   4.250 -3.6752 -0.5901  1.1225
  339MOL0     H45748   4.043   5.594   4.267  2.3375 -1.0693  0.7566
  339MOL0     H45749   2.471   6.664   3.324 -0.4486  0.1607  0.5614
  339MOL0     H45750   2.214   6.669   3.296 -1.0372 -0.1962  0.9969
  339MOL0     H45751   1.867   6.313   3.469 -0.3871  0.5661  0.7344
  339MOL0     H45752   1.637   6.235   3.488  0.1941  0.7467  1.2122
  339MOL0     H45753   1.305   6.451   3.244  0.2358 -2.0847  0.2841
  339MOL0     H45754   1.329   6.507   3.413  1.6484  0.6384 -0.4707
  339MOL0     H45755   1.166   6.262   3.336 -0.5625 -0.2169  1.2341
  339MOL0     H45756   1.096   6.424   3.367  0.6784  0.4046 -2.2736
  339MOL0     H45757   1.258   6.360   3.606  2.1239 -3.8127 -0.6647
  339MOL0     H45758   1.205   6.214   3.555 -0.9983 -1.3557 -1.8487
  339MOL0     H45759   1.038   6.310   3.701  3.4241  0.3437  0.1656
  339MOL0     H45760   1.004   6.436   3.585 -0.5656  0.0394  1.6935
  339MOL0     H45761   0.793   6.101   3.440  2.0177 -1.1093 -0.0829
  339MOL0     H45762   1.500   6.531   3.220 -0.7409 -2.3190 -0.2511
  339MOL0     H45763   1.753   6.736   3.226  0.3293 -0.1081 -1.6577
  339MOL0     H45764   1.789   6.629   3.081  2.3465 -0.9313  0.1839
  339MOL0     H45765   1.620   6.679   3.124 -0.1386 -0.4548  0.3482
  340MOL0     O45766   8.162   3.171   2.036  0.1005 -0.5945  0.1029
  340MOL0     C45767   8.082   3.083   2.063  0.0025  0.1282  0.0164
  340MOL0     O45768   8.098   2.960   2.012 -0.6163 -0.4401 -0.1471
  340MOL0     C45769   8.214   2.898   1.956  0.2975  0.5530 -0.1592
  340MOL0     C45770   8.185   2.774   1.888 -0.9101  0.5207 -0.4333
  340MOL0     C45771   8.287   2.707   1.815 -0.8360 -0.5779  0.4068
  340MOL0     C45772   8.420   2.762   1.808 -0.1619  1.8043 -0.3504
  340MOL0     O45773   8.524   2.695   1.740  0.3343  0.0231 -0.3893
  340MOL0     C45774   8.493   2.573   1.672 -0.0370  1.1226 -0.4377
  340MOL0     C45775   8.617   2.506   1.612 -0.5232 -0.2886 -0.3881
  340MOL0     C45776   8.737   2.491   1.716  0.2273 -0.0006  0.0116
  340MOL0     C45777   8.818   2.355   1.702 -0.3477  0.2088 -0.2822
  340MOL0     C45778   8.928   2.342   1.816  0.3128 -0.2113  0.8199
  340MOL0     C45779   9.001   2.216   1.800 -0.2146 -0.1648 -0.2887
  340MOL0     C45780   9.135   2.218   1.881  0.7405  0.1053 -0.3808
  340MOL0     C45781   9.245   2.295   1.818 -0.1746  0.1454 -0.2728
  340MOL0     N45782   9.372   2.289   1.896 -0.9645 -0.9731  0.7405
  340MOL0     C45783   9.410   2.372   1.994 -0.4169  0.0926  0.1590
  340MOL0     C45784   9.534   2.326   2.025 -0.5260 -0.7022 -0.4941
  340MOL0     C45785   9.628   2.374   2.139  0.2809  0.3180 -0.4881
  340MOL0     C45786   9.631   2.530   2.143  0.3749  0.5610 -0.7830
  340MOL0     C45787   9.718   2.577   2.258 -0.8771  0.6526  0.6826
  340MOL0     C45788   9.867   2.558   2.233 -0.9130  0.1392  0.0962
  340MOL0     O45789   9.931   2.617   2.352 -0.3493 -0.1019 -0.0645
  340MOL0     C45790  10.068   2.624   2.350 -0.2631 -1.1378 -0.0586
  340MOL0     C45791  10.148   2.598   2.239 -0.2056  1.2064 -0.2101
  340MOL0     C45792  10.286   2.622   2.234  0.7954 -0.0291  0.9390
  340MOL0     C45793  10.349   2.680   2.349  0.6665  0.1565 -0.2407
  340MOL0     C45794  10.493   2.707   2.346 -1.1829 -0.4172  0.0312
  340MOL0     O45795  10.551   2.763   2.459 -0.6504 -0.6464 -0.1949
  340MOL0     C45796  10.689   2.777   2.454  0.2660 -1.0590 -0.6963
  340MOL0     C45797  10.765   2.666   2.501 -0.0840 -0.4818 -0.3385
  340MOL0     C45798  10.906   2.689   2.502 -0.3788 -0.5351 -0.1382
  340MOL0     C45799  10.968   2.811   2.476 -0.0750 -0.6450  0.2167
  340MOL0     O45800  11.104   2.849   2.487  0.4243  1.0366  0.3508
  340MOL0     C45801  11.193   2.742   2.527  0.2650  0.9618  0.8194
  340MOL0     C45802  11.324   2.815   2.557 -0.8489  0.1242  1.0940
  340MOL0     C45803  11.368   2.927   2.466  0.1261  0.6051  0.4885
  340MOL0     C45804  11.521   2.948   2.462  0.3075 -0.9981  0.0744
  340MOL0     C45805  11.588   2.870   2.346 -0.2647 -0.0893  1.1557
  340MOL0     C45806  11.746   2.859   2.358  0.2949  0.3454  0.0280
  340MOL0     C45807  11.807   3.001   2.345  1.1276  0.4161 -0.3303
  340MOL0     C45808  11.939   3.007   2.416 -0.5225  0.2313 -0.2786
  340MOL0    Cl45809  12.026   3.160   2.376 -0.4677  0.1261 -0.1078
  340MOL0     C45810  10.888   2.918   2.427  0.1666 -0.2670 -0.4867
  340MOL0     C45811  10.752   2.894   2.409  0.3316 -0.3343  0.0904
  340MOL0     O45812  10.554   2.678   2.242 -0.2567 -0.2825  0.9740
  340MOL0     C45813  10.269   2.698   2.468  0.3037  0.2443 -0.0370
  340MOL0     C45814  10.131   2.660   2.474 -0.7135  1.0340  0.1895
  340MOL0     N45815   9.566   2.220   1.956  0.7399 -0.2284  0.3307
  340MOL0     N45816   9.475   2.201   1.861 -0.8490 -0.0158 -0.4723
  340MOL0     C45817   8.453   2.873   1.891 -0.5021 -0.0082  0.4440
  340MOL0     C45818   8.349   2.938   1.960  0.3445 -0.3212  0.3880
  340MOL0     C45819   7.937   3.116   2.104  0.0543 -0.0908 -0.1438
  340MOL0     C45820   7.893   3.252   2.111  0.3759  0.0266 -0.1058
  340MOL0     C45821   7.762   3.284   2.153 -0.4787 -0.4308 -0.0202
  340MOL0     C45822   7.674   3.185   2.182 -0.0215 -0.3846 -0.2989
  340MOL0     O45823   7.541   3.226   2.203  0.5069 -0.2227 -0.4114
  340MOL0     C45824   7.446   3.122   2.221  0.2670  0.0136 -0.5161
  340MOL0     C45825   7.307   3.184   2.206  0.1969  0.3075  0.4733
  340MOL0     C45826   7.204   3.136   2.314 -0.3694  0.3436 -0.2968
  340MOL0     C45827   7.071   3.200   2.287 -0.3295 -0.7405  0.1764
  340MOL0     C45828   6.998   3.117   2.186 -0.2516  0.1529 -0.4181
  340MOL0     C45829   6.927   3.059   2.100 -0.2212  0.3261 -0.6481
  340MOL0     C45830   7.714   3.054   2.187 -0.1228 -0.1710  0.7186
  340MOL0     C45831   7.842   3.019   2.148 -0.3096 -0.0587  0.5846
  340MOL0     C45832   7.878   2.871   2.151  0.1842 -0.1367 -0.1086
  340MOL0     H45833   8.084   2.739   1.871 -0.6936 -0.3633  0.0233
  340MOL0     H45834   8.258   2.628   1.746  1.4027  0.2224 -1.5854
  340MOL0     H45835   8.453   2.504   1.747 -0.7493  0.0118 -1.7942
  340MOL0     H45836   8.416   2.591   1.596  0.8161  0.6120 -1.4450
  340MOL0     H45837   8.655   2.563   1.527 -1.0065 -2.2505 -2.0082
  340MOL0     H45838   8.588   2.411   1.566  2.7773 -1.8150  0.3674
  340MOL0     H45839   8.704   2.486   1.820  0.7104 -1.8132  0.1144
  340MOL0     H45840   8.798   2.580   1.698 -0.3785  0.2766 -0.7407
  340MOL0     H45841   8.746   2.273   1.709 -0.3355  0.2134 -0.0886
  340MOL0     H45842   8.856   2.345   1.599 -1.1387  1.6571 -0.7345
  340MOL0     H45843   8.986   2.431   1.789 -0.5701  0.3366  0.6657
  340MOL0     H45844   8.878   2.351   1.913  0.6606 -1.0216  1.0783
  340MOL0     H45845   8.928   2.139   1.828 -0.8973 -0.0431 -1.6801
  340MOL0     H45846   9.034   2.199   1.697 -1.0169  0.5081 -0.6611
  340MOL0     H45847   9.164   2.114   1.894  0.1172  0.2060  2.7505
  340MOL0     H45848   9.113   2.254   1.982  1.8841 -1.1332  0.3411
  340MOL0     H45849   9.275   2.248   1.724  0.8241 -1.6885  0.9047
  340MOL0     H45850   9.225   2.401   1.801  0.2454 -0.0760 -2.4025
  340MOL0     H45851   9.354   2.453   2.040  0.2768 -0.3122  1.7815
  340MOL0     H45852   9.596   2.325   2.231  4.8995  0.9401  1.7046
  340MOL0     H45853   9.727   2.336   2.114 -0.2354 -2.8276  1.6624
  340MOL0     H45854   9.664   2.567   2.045 -4.8789  0.4010 -2.9902
  340MOL0     H45855   9.533   2.578   2.155 -1.0137 -2.5052  1.2622
  340MOL0     H45856   9.690   2.522   2.348  1.0376 -0.1821  0.8173
  340MOL0     H45857   9.700   2.682   2.282 -0.2414  0.6261  1.3194
  340MOL0     H45858   9.892   2.610   2.140 -1.6050  0.9115  0.3365
  340MOL0     H45859   9.894   2.452   2.225  0.1196  0.4671 -0.9611
  340MOL0     H45860  10.110   2.550   2.149  0.0973  0.1227  0.2150
  340MOL0     H45861  10.331   2.610   2.137  0.3918 -1.3328  0.8915
  340MOL0     H45862  10.716   2.573   2.526  0.2394 -0.6321 -0.2502
  340MOL0     H45863  10.962   2.597   2.515  2.7011  1.0117 -1.5280
  340MOL0     H45864  11.158   2.690   2.617 -1.5750  0.4666 -0.1143
  340MOL0     H45865  11.210   2.665   2.451  4.0239  1.2811  1.1790
  340MOL0     H45866  11.319   2.853   2.659 -0.5783 -0.5833  1.3801
  340MOL0     H45867  11.402   2.738   2.553 -1.6410 -0.6525  0.0251
  340MOL0     H45868  11.329   2.906   2.365 -2.2294 -0.9202  1.6175
  340MOL0     H45869  11.313   3.012   2.508 -1.5011  0.0096 -0.3111
  340MOL0     H45870  11.566   2.917   2.556 -0.4211 -0.3624  0.6442
  340MOL0     H45871  11.541   3.055   2.462 -4.0928  0.1237  3.0595
  340MOL0     H45872  11.563   2.918   2.251 -0.5817  0.0024  1.2845
  340MOL0     H45873  11.545   2.770   2.334  1.4159 -0.8028  0.7799
  340MOL0     H45874  11.770   2.819   2.457 -0.0137 -2.1432 -0.8504
  340MOL0     H45875  11.783   2.792   2.279 -1.1278 -0.8969  0.3692
  340MOL0     H45876  11.745   3.079   2.389  1.3135  1.2161 -1.4544
  340MOL0     H45877  11.816   3.025   2.238  0.6316 -1.7301 -0.8952
  340MOL0     H45878  11.931   2.999   2.525  4.3794  1.5468  0.4129
  340MOL0     H45879  11.997   2.921   2.381  2.2842  1.9795 -0.2314
  340MOL0     H45880  10.929   3.013   2.395 -1.6783 -0.0998 -2.5481
  340MOL0     H45881  10.686   2.973   2.375  0.1767 -0.9399 -1.0478
  340MOL0     H45882  10.323   2.704   2.561  1.2039  0.1798 -0.5404
  340MOL0     H45883  10.062   2.672   2.557 -2.1332 -3.9150  0.0593
  340MOL0     H45884   8.555   2.910   1.886 -0.8710  0.9399 -0.5999
  340MOL0     H45885   8.380   3.034   1.999  0.5602 -0.0495 -0.4426
  340MOL0     H45886   7.962   3.336   2.098 -0.2935  0.2507 -2.8054
  340MOL0     H45887   7.726   3.386   2.159 -2.4515 -1.0681 -0.1555
  340MOL0     H45888   7.468   3.072   2.316 -1.8609 -1.6844 -0.8486
  340MOL0     H45889   7.462   3.049   2.142 -1.7907 -1.8552  0.6896
  340MOL0     H45890   7.273   3.163   2.104  2.6799 -0.1238 -0.3558
  340MOL0     H45891   7.310   3.294   2.204 -1.4930  0.3964  1.5983
  340MOL0     H45892   7.223   3.169   2.416  0.1503  2.2362 -0.9661
  340MOL0     H45893   7.192   3.027   2.311  1.0429  0.0739  1.7687
  340MOL0     H45894   7.012   3.205   2.379  1.4666  0.0986  1.3457
  340MOL0     H45895   7.082   3.307   2.267  1.4337 -0.9249  0.0223
  340MOL0     H45896   6.864   3.000   2.037  0.5339 -0.5202 -0.6264
  340MOL0     H45897   7.651   2.978   2.234 -0.8585  0.7286  1.2227
  340MOL0     H45898   7.968   2.866   2.213  0.6397 -0.4728 -0.7959
  340MOL0     H45899   7.792   2.812   2.185 -2.4002  1.2251 -3.6954
  340MOL0     H45900   7.900   2.833   2.051  3.6318  0.6315  0.2219
  341MOL0     O45901   6.208   7.583   9.676 -0.3599 -0.2542 -0.5656
  341MOL0     C45902   6.101   7.642   9.663  0.3280 -0.3008  0.7161
  341MOL0     O45903   6.086   7.771   9.627 -0.2751 -0.3822 -0.5501
  341MOL0     C45904   6.194   7.832   9.590 -0.8287 -0.6275  0.3034
  341MOL0     C45905   6.261   7.906   9.683  0.4200 -0.0185 -0.3733
  341MOL0     C45906   6.373   7.980   9.670 -0.8577  0.0021 -0.2212
  341MOL0     C45907   6.424   7.984   9.539 -0.4598  0.2162  0.7033
  341MOL0     O45908   6.544   8.043   9.506  0.5564 -0.0113 -0.3957
  341MOL0     C45909   6.595   8.135   9.594 -0.0399  0.0227  0.6958
  341MOL0     C45910   6.725   8.164   9.519 -0.1940  0.6512  0.7045
  341MOL0     C45911   6.813   8.242   9.615 -1.4526 -0.8602  0.7571
  341MOL0     C45912   6.950   8.275   9.544 -0.4280 -0.6299  0.3367
  341MOL0     C45913   7.031   8.399   9.606  0.2546  1.2593 -0.1786
  341MOL0     C45914   7.146   8.441   9.507  0.0137  0.1585  0.3602
  341MOL0     C45915   7.228   8.546   9.581 -0.3829 -0.8705 -0.3708
  341MOL0     C45916   7.370   8.566   9.520  0.2947 -0.1455 -0.1047
  341MOL0     N45917   7.451   8.679   9.571 -0.0195  0.5920 -0.2140
  341MOL0     C45918   7.548   8.660   9.663  0.0006  0.2187 -0.3282
  341MOL0     C45919   7.575   8.790   9.707  0.7257  0.5821  1.0930
  341MOL0     C45920   7.665   8.845   9.813 -0.3291  0.0414  0.3328
  341MOL0     C45921   7.780   8.927   9.769  0.4996 -0.2261  0.1390
  341MOL0     C45922   7.884   8.860   9.684 -0.1563  0.2904 -0.1206
  341MOL0     C45923   7.987   8.962   9.640  0.2503 -0.2023  0.2100
  341MOL0     O45924   8.049   9.005   9.763 -0.3403  0.4238 -0.6224
  341MOL0     C45925   8.156   9.086   9.767  0.1829 -0.4894  0.3889
  341MOL0     C45926   8.218   9.133   9.653  0.7892 -0.0134  0.5283
  341MOL0     C45927   8.328   9.209   9.655 -0.7055 -0.2076 -0.4209
  341MOL0     C45928   8.396   9.233   9.782 -0.6543 -0.1278  0.2655
  341MOL0     C45929   8.521   9.301   9.785 -0.5508 -0.3321 -0.4715
  341MOL0     O45930   8.576   9.337   9.659 -0.2170  0.6061  0.0474
  341MOL0     C45931   8.715   9.364   9.657  0.0471  0.6027  0.2314
  341MOL0     C45932   8.799   9.250   9.668 -0.1836  0.9814  1.5413
  341MOL0     C45933   8.935   9.265   9.674 -0.1885 -0.0354 -0.4484
  341MOL0     C45934   8.985   9.394   9.653 -0.2920  0.6030  0.9348
  341MOL0     O45935   9.118   9.427   9.631  0.2596 -0.5387 -0.7334
  341MOL0     C45936   9.205   9.340   9.700  0.2270  0.8449 -0.2394
  341MOL0     C45937   9.241   9.216   9.612 -0.1787  0.5695  0.1790
  341MOL0     C45938   9.391   9.197   9.591  0.1760  0.3973 -0.0338
  341MOL0     C45939   9.427   9.073   9.500  0.2379 -0.6554  0.4762
  341MOL0     C45940   9.380   9.096   9.358  1.3045 -0.4907  0.0970
  341MOL0     C45941   9.431   9.218   9.285 -0.1699 -0.3702  0.4650
  341MOL0     C45942   9.582   9.211   9.274  0.3694  0.2427 -0.2560
  341MOL0     C45943   9.639   9.308   9.168  0.0054 -0.4504  0.8067
  341MOL0    Cl45944   9.627   9.475   9.218  0.0276 -0.1486  0.0004
  341MOL0     C45945   8.894   9.501   9.621  0.1712  0.2205 -0.0755
  341MOL0     C45946   8.762   9.480   9.624  0.0252  0.1889  0.0556
  341MOL0     O45947   8.573   9.323   9.894  0.2855 -0.2216 -0.3491
  341MOL0     C45948   8.331   9.189   9.901 -0.3461  0.3485 -0.2687
  341MOL0     C45949   8.213   9.115   9.888  0.0298 -0.6571 -0.2882
  341MOL0     N45950   7.507   8.876   9.630  0.1204  0.0542 -0.0152
  341MOL0     N45951   7.431   8.814   9.545  0.9978  0.9775 -0.4386
  341MOL0     C45952   6.364   7.918   9.426 -0.6215 -0.4294  0.5773
  341MOL0     C45953   6.248   7.841   9.456  0.9447  0.2940 -0.2611
  341MOL0     C45954   5.973   7.587   9.714 -0.9047  1.1184  0.2445
  341MOL0     C45955   5.859   7.668   9.725  0.0763  0.3637  0.4338
  341MOL0     C45956   5.737   7.618   9.755  0.0291  0.9387 -0.1674
  341MOL0     C45957   5.725   7.482   9.792  0.5319  0.2974 -0.3102
  341MOL0     O45958   5.603   7.414   9.819  0.3009 -0.2003  0.0489
  341MOL0     C45959   5.486   7.492   9.832  0.2116 -0.3034  0.0766
  341MOL0     C45960   5.490   7.592   9.959  0.3610 -0.6347  0.5985
  341MOL0     C45961   5.508   7.521  10.093  0.1264 -0.6158 -0.0270
  341MOL0     C45962   5.377   7.482  10.172  0.1548 -0.5539  0.0360
  341MOL0     C45963   5.301   7.380  10.102 -0.4106 -0.9826  0.4684
  341MOL0     C45964   5.239   7.286  10.055  0.2287 -0.4920 -0.1506
  341MOL0     C45965   5.834   7.403   9.785 -0.3953 -0.3126  0.1945
  341MOL0     C45966   5.955   7.447   9.744 -0.2991  0.8018 -0.5212
  341MOL0     C45967   6.067   7.341   9.744 -0.2742  0.4545 -0.3049
  341MOL0     H45968   6.222   7.904   9.785  0.9141 -0.5790 -0.1928
  341MOL0     H45969   6.420   8.020   9.759 -0.5398  1.6269 -1.0888
  341MOL0     H45970   6.527   8.220   9.602 -1.0751 -0.8541  1.3869
  341MOL0     H45971   6.620   8.089   9.690  0.7089 -1.1965 -0.0564
  341MOL0     H45972   6.705   8.225   9.430  2.1523 -0.9917 -1.0783
  341MOL0     H45973   6.788   8.079   9.489 -0.7204 -0.1754  1.8808
  341MOL0     H45974   6.829   8.197   9.713 -0.6935  3.8194  3.0879
  341MOL0     H45975   6.753   8.331   9.634  0.7563  0.4644  2.0142
  341MOL0     H45976   6.997   8.176   9.536 -0.2453 -0.3772 -3.2666
  341MOL0     H45977   6.940   8.305   9.440 -0.3448  4.3095  1.5071
  341MOL0     H45978   6.964   8.478   9.641  1.0333  2.1368 -0.6332
  341MOL0     H45979   7.073   8.365   9.701 -0.7548 -1.4611 -0.5928
  341MOL0     H45980   7.197   8.350   9.472  0.2444  0.5167 -0.2640
  341MOL0     H45981   7.096   8.486   9.421 -2.5432  5.0658  3.9021
  341MOL0     H45982   7.244   8.517   9.685 -1.0053 -1.1343 -0.3409
  341MOL0     H45983   7.181   8.643   9.568  1.7496  0.5957  2.0118
  341MOL0     H45984   7.434   8.481   9.542  1.5551  1.1925  1.7453
  341MOL0     H45985   7.342   8.584   9.416  1.0926 -2.2407 -0.7254
  341MOL0     H45986   7.588   8.566   9.698  1.0728  1.0216  0.7192
  341MOL0     H45987   7.612   8.909   9.883 -1.1691  1.0162 -1.1437
  341MOL0     H45988   7.695   8.756   9.870 -2.4852  0.0531  1.5584
  341MOL0     H45989   7.740   9.015   9.719 -1.8553  0.1772  2.5361
  341MOL0     H45990   7.820   8.959   9.865 -2.8828  0.9674  1.2942
  341MOL0     H45991   7.840   8.806   9.600 -0.3995 -0.0757  0.2389
  341MOL0     H45992   7.938   8.785   9.742 -1.2181  0.2560  0.8514
  341MOL0     H45993   7.937   9.046   9.590 -0.0590  0.6670  1.8976
  341MOL0     H45994   8.060   8.912   9.576  0.1579 -0.1725  0.0803
  341MOL0     H45995   8.178   9.097   9.558  0.2301  2.4937 -0.2594
  341MOL0     H45996   8.369   9.239   9.559  1.9594  1.8984  1.2420
  341MOL0     H45997   8.751   9.154   9.684  1.7211  0.2064  2.9764
  341MOL0     H45998   9.002   9.179   9.674  0.4011  0.4208 -0.9745
  341MOL0     H45999   9.295   9.398   9.723 -1.0238  1.9695  2.1810
  341MOL0     H46000   9.171   9.302   9.796  2.0098  0.0165  0.1156
  341MOL0     H46001   9.198   9.128   9.660 -0.1666  0.4206 -0.0801
  341MOL0     H46002   9.196   9.232   9.513  1.8397 -1.3879 -1.1663
  341MOL0     H46003   9.432   9.284   9.539 -1.2588  0.4683 -1.1144
  341MOL0     H46004   9.444   9.184   9.685 -0.4726 -0.7531  0.1814
  341MOL0     H46005   9.379   8.979   9.529 -1.0457 -0.0551  0.3501
  341MOL0     H46006   9.535   9.055   9.499  1.1136  3.5524 -1.1901
  341MOL0     H46007   9.270   9.093   9.364  1.0043 -0.2115 -3.3992
  341MOL0     H46008   9.407   9.007   9.299 -0.7021  0.0704 -1.8092
  341MOL0     H46009   9.395   9.211   9.182  1.5569 -2.7098 -0.0500
  341MOL0     H46010   9.392   9.307   9.336 -0.7151 -1.0446  1.2507
  341MOL0     H46011   9.610   9.109   9.245  0.7204  0.7201 -1.6727
  341MOL0     H46012   9.630   9.218   9.372 -1.4847  2.0405  0.5925
  341MOL0     H46013   9.743   9.291   9.139 -0.0969  3.0247 -2.2775
  341MOL0     H46014   9.594   9.299   9.069  2.7000  1.6331 -0.7351
  341MOL0     H46015   8.932   9.600   9.601 -0.4901  0.4814 -0.0616
  341MOL0     H46016   8.691   9.556   9.595  2.8081  2.7115 -0.6412
  341MOL0     H46017   8.377   9.213   9.996 -1.7756 -0.5853  0.6966
  341MOL0     H46018   8.167   9.074   9.978  2.7892 -1.5230  0.8375
  341MOL0     H46019   6.417   7.917   9.330  2.6586 -1.3701  2.2417
  341MOL0     H46020   6.207   7.772   9.384  1.5199  0.0005 -0.3101
  341MOL0     H46021   5.855   7.769   9.686  0.3170 -0.5403 -2.1178
  341MOL0     H46022   5.646   7.677   9.748 -1.7246 -1.6433 -0.7362
  341MOL0     H46023   5.397   7.435   9.858 -1.1681  1.9380  0.6062
  341MOL0     H46024   5.464   7.538   9.735  0.8746 -0.4148 -0.1368
  341MOL0     H46025   5.394   7.645   9.961  0.6529 -0.1375  2.2000
  341MOL0     H46026   5.558   7.676   9.941 -0.2196 -0.2428  0.1904
  341MOL0     H46027   5.567   7.578  10.165 -1.1756 -0.7718  1.2056
  341MOL0     H46028   5.564   7.428  10.086 -0.3281 -0.9193  0.2857
  341MOL0     H46029   5.412   7.437  10.266  1.0805  0.5846  0.2532
  341MOL0     H46030   5.322   7.571  10.201  0.7196 -0.3113  0.3937
  341MOL0     H46031   5.183   7.203  10.016 -2.7997  1.7300 -0.9286
  341MOL0     H46032   5.830   7.300   9.820  1.3163 -0.0874  1.1636
  341MOL0     H46033   6.034   7.238   9.754 -2.0102  0.8516 -1.6064
  341MOL0     H46034   6.129   7.343   9.654  1.4934  1.0399  0.8531
  341MOL0     H46035   6.142   7.369   9.820  0.8975 -0.9067 -0.9249
  342MOL0     O46036   4.502   4.013   6.241 -0.2233 -0.2345 -0.1986
  342MOL0     C46037   4.548   3.982   6.131 -0.0636 -0.1394 -0.7066
  342MOL0     O46038   4.653   4.042   6.070  0.0675  0.1613  0.4043
  342MOL0     C46039   4.747   4.107   6.144 -0.6281  0.2081  0.1333
  342MOL0     C46040   4.808   4.214   6.082  0.1840  0.0873 -0.0677
  342MOL0     C46041   4.888   4.303   6.153 -0.2786  0.0751 -0.0880
  342MOL0     C46042   4.930   4.270   6.281  0.8245  0.2765 -0.2713
  342MOL0     O46043   5.018   4.362   6.336  0.9433  0.2566  0.5935
  342MOL0     C46044   5.120   4.318   6.423 -0.0797 -0.1879  0.5111
  342MOL0     C46045   5.212   4.212   6.350  0.1269 -0.2218 -0.0924
  342MOL0     C46046   5.373   4.215   6.375  0.1009  0.3486  0.6081
  342MOL0     C46047   5.407   4.189   6.526  0.6260 -0.0135  1.5726
  342MOL0     C46048   5.418   4.042   6.572 -0.0610 -0.1654 -0.0978
  342MOL0     C46049   5.431   4.053   6.727  0.5130  0.9494 -1.0423
  342MOL0     C46050   5.560   4.116   6.773 -0.0428  0.8048  0.2250
  342MOL0     C46051   5.605   4.037   6.904 -0.1564 -0.2407  0.0979
  342MOL0     N46052   5.741   4.082   6.945 -0.3939 -0.4923 -0.8598
  342MOL0     C46053   5.841   4.125   6.865 -0.4218 -1.1266 -0.0178
  342MOL0     C46054   5.953   4.144   6.943  0.7950  0.0613  0.3188
  342MOL0     C46055   6.069   4.225   6.887 -0.6415  0.0406 -1.0175
  342MOL0     C46056   6.147   4.139   6.789 -0.4203  0.0769  0.2535
  342MOL0     C46057   6.286   4.197   6.763  0.6765  0.1118  0.8947
  342MOL0     C46058   6.357   4.113   6.657  0.1229 -0.5543  0.1231
  342MOL0     O46059   6.471   4.182   6.618  0.0077 -0.4516  0.3194
  342MOL0     C46060   6.561   4.127   6.532  0.3610 -1.1615  0.4693
  342MOL0     C46061   6.688   4.182   6.520  0.6091 -0.2257 -0.0483
  342MOL0     C46062   6.786   4.149   6.430  0.4524 -0.2608 -0.6414
  342MOL0     C46063   6.756   4.039   6.346 -0.4270  0.4003  0.2542
  342MOL0     C46064   6.846   3.995   6.242 -0.6947  0.1616  0.6760
  342MOL0     O46065   6.972   4.061   6.232  0.1678 -0.1479 -0.2053
  342MOL0     C46066   7.056   4.024   6.131 -0.4169  0.5192 -0.5032
  342MOL0     C46067   7.189   3.990   6.167  0.9471 -1.0317 -0.0628
  342MOL0     C46068   7.291   3.964   6.071  0.2862  1.4514 -0.9509
  342MOL0     C46069   7.260   3.950   5.939 -0.6071 -0.2431  0.3282
  342MOL0     O46070   7.362   3.915   5.847  0.6370 -0.6030 -0.1132
  342MOL0     C46071   7.322   3.816   5.750  0.0103 -0.2377 -0.8580
  342MOL0     C46072   7.449   3.760   5.689  0.0230  0.0354  0.3362
  342MOL0     C46073   7.538   3.868   5.628 -0.8110  0.2093  0.5612
  342MOL0     C46074   7.643   3.810   5.528  0.2914 -0.2186  0.1342
  342MOL0     C46075   7.724   3.917   5.456  0.2427  0.0830  0.5408
  342MOL0     C46076   7.809   3.842   5.348 -0.0289 -0.0768  0.1286
  342MOL0     C46077   7.879   3.937   5.233  0.2488  0.9593 -0.5088
  342MOL0     C46078   7.970   3.865   5.139  0.4381 -0.4196  0.0331
  342MOL0    Cl46079   8.013   3.977   5.003  0.3739 -0.2988  0.3609
  342MOL0     C46080   7.121   3.973   5.904 -0.0981 -0.6413 -0.1927
  342MOL0     C46081   7.027   4.016   5.997 -0.6411 -0.8130  0.4601
  342MOL0     O46082   6.814   3.897   6.174 -0.4121  0.2789 -0.0569
  342MOL0     C46083   6.632   3.981   6.362  0.6500 -0.1450  0.0757
  342MOL0     C46084   6.534   4.022   6.447 -0.2115 -0.6840 -0.1798
  342MOL0     N46085   5.921   4.104   7.070 -0.3747  0.6367 -0.3701
  342MOL0     N46086   5.804   4.055   7.067  0.5384 -0.0711  0.7424
  342MOL0     C46087   4.892   4.150   6.341 -0.1169  0.2841  0.3823
  342MOL0     C46088   4.803   4.071   6.271  0.1441  0.9734 -0.1406
  342MOL0     C46089   4.477   3.880   6.052  0.2200  0.4712  0.1501
  342MOL0     C46090   4.335   3.879   6.070 -0.5624 -0.1996  0.0485
  342MOL0     C46091   4.249   3.787   6.008 -0.1784  0.3509  1.5542
  342MOL0     C46092   4.303   3.684   5.928 -1.0884  0.0127 -0.3034
  342MOL0     O46093   4.237   3.587   5.859 -0.4093  0.3954 -0.1073
  342MOL0     C46094   4.142   3.517   5.944 -0.5064  0.2551  0.4053
  342MOL0     C46095   3.996   3.554   5.905 -0.4964 -0.5063  0.0879
  342MOL0     C46096   3.891   3.467   5.971  0.7694  0.2121 -0.5478
  342MOL0     C46097   3.775   3.550   6.023  0.4773 -0.3083 -0.7211
  342MOL0     C46098   3.820   3.603   6.148 -0.3864 -0.0314 -0.0582
  342MOL0     C46099   3.877   3.648   6.249 -0.2428  0.5245  0.1384
  342MOL0     C46100   4.443   3.684   5.910  0.3721 -0.3200 -0.7466
  342MOL0     C46101   4.530   3.775   5.970 -0.7480  0.5069 -0.1939
  342MOL0     C46102   4.676   3.738   5.972 -0.3075  0.5720  0.1291
  342MOL0     H46103   4.755   4.243   5.992 -1.1901  0.0702  0.7069
  342MOL0     H46104   4.919   4.402   6.120 -1.4607  1.5858  2.9247
  342MOL0     H46105   5.189   4.395   6.457  1.8410 -1.9918  0.9122
  342MOL0     H46106   5.077   4.269   6.511  0.8871  0.3299  1.2898
  342MOL0     H46107   5.197   4.229   6.243 -0.2067  0.9949  0.1245
  342MOL0     H46108   5.179   4.112   6.377  0.1378  0.1139  1.2339
  342MOL0     H46109   5.404   4.316   6.347 -0.7085  0.5904  0.5746
  342MOL0     H46110   5.435   4.144   6.319  3.3400  1.8463  1.9819
  342MOL0     H46111   5.503   4.237   6.549  1.7250 -2.2963  1.9930
  342MOL0     H46112   5.320   4.231   6.576 -0.1788 -1.6946  1.6416
  342MOL0     H46113   5.324   3.993   6.545  0.7274 -2.9603  1.8900
  342MOL0     H46114   5.498   3.978   6.534  0.1303 -0.8220  1.3445
  342MOL0     H46115   5.340   4.096   6.768  0.0341 -0.1139 -0.9602
  342MOL0     H46116   5.432   3.950   6.765 -0.4515  2.0339  2.2950
  342MOL0     H46117   5.546   4.223   6.795 -1.3858  0.0170  3.8816
  342MOL0     H46118   5.640   4.097   6.700  1.0570 -1.1958  1.8432
  342MOL0     H46119   5.526   4.048   6.979  0.5442  0.5675  0.7338
  342MOL0     H46120   5.616   3.930   6.883  2.7308 -0.2106  1.0977
  342MOL0     H46121   5.828   4.154   6.761 -2.0615  2.1839  0.9909
  342MOL0     H46122   6.032   4.313   6.834 -1.5455 -0.8399 -1.8978
  342MOL0     H46123   6.134   4.259   6.968 -1.0741 -0.6849 -0.3425
  342MOL0     H46124   6.171   4.038   6.823  1.2983 -0.3591 -1.9911
  342MOL0     H46125   6.084   4.140   6.700  1.7383  0.3080 -1.3804
  342MOL0     H46126   6.342   4.197   6.857  0.1937  1.5334  1.2015
  342MOL0     H46127   6.283   4.299   6.722  0.5766 -0.2988 -0.1529
  342MOL0     H46128   6.286   4.107   6.574 -0.6557  0.8799  0.6553
  342MOL0     H46129   6.387   4.016   6.698  3.9148  1.0873  1.7610
  342MOL0     H46130   6.715   4.261   6.589  0.2506  0.9176 -1.1785
  342MOL0     H46131   6.884   4.195   6.433  0.2532  0.1449 -0.1769
  342MOL0     H46132   7.219   3.979   6.271  0.2534 -1.0735  0.1371
  342MOL0     H46133   7.388   3.937   6.112 -0.4977 -0.8870 -0.4350
  342MOL0     H46134   7.267   3.744   5.810 -1.8926  1.8570  0.0647
  342MOL0     H46135   7.261   3.859   5.670 -2.6456 -0.9985  0.6467
  342MOL0     H46136   7.506   3.709   5.767 -2.8331  0.2823  2.7557
  342MOL0     H46137   7.425   3.684   5.613 -0.0361  1.4245 -1.0979
  342MOL0     H46138   7.487   3.948   5.572  1.4394  0.2678 -1.5903
  342MOL0     H46139   7.594   3.909   5.713 -0.2261 -1.3973  0.9714
  342MOL0     H46140   7.583   3.748   5.460 -0.9527  1.8558 -0.7682
  342MOL0     H46141   7.721   3.754   5.581 -1.0388 -2.4488 -0.1709
  342MOL0     H46142   7.788   3.972   5.526  0.1514 -0.1939  0.8432
  342MOL0     H46143   7.657   3.984   5.401  0.6143  0.0002 -0.0192
  342MOL0     H46144   7.888   3.787   5.398  0.1668  2.0360  2.3155
  342MOL0     H46145   7.748   3.765   5.299 -0.5497  0.4108 -0.0052
  342MOL0     H46146   7.930   4.011   5.295  1.1879 -0.8702  0.9972
  342MOL0     H46147   7.796   3.981   5.177 -1.7472  1.1855  2.3851
  342MOL0     H46148   8.058   3.835   5.198  0.3740 -2.6920 -0.9080
  342MOL0     H46149   7.909   3.789   5.089 -0.2898  0.6059 -0.6625
  342MOL0     H46150   7.080   3.964   5.804  1.2963  0.2770 -0.8687
  342MOL0     H46151   6.923   4.026   5.966 -0.1156  2.5064 -0.6978
  342MOL0     H46152   6.597   3.910   6.287 -2.9439  2.2616 -0.7301
  342MOL0     H46153   6.442   3.965   6.446  0.0323 -1.1511 -2.6945
  342MOL0     H46154   4.931   4.124   6.439 -0.6246 -0.2737  0.4432
  342MOL0     H46155   4.765   3.976   6.309  1.7926 -0.2562 -1.4034
  342MOL0     H46156   4.283   3.956   6.127 -0.4261 -0.2209  0.2013
  342MOL0     H46157   4.140   3.795   6.008 -0.4872 -2.6584  1.9305
  342MOL0     H46158   4.156   3.523   6.052  2.2732 -1.3794  0.2420
  342MOL0     H46159   4.154   3.408   5.937 -0.8762  0.1373  1.3418
  342MOL0     H46160   3.994   3.530   5.799 -1.4493 -0.1931  0.0236
  342MOL0     H46161   3.985   3.662   5.913 -0.0562 -0.3067 -1.7171
  342MOL0     H46162   3.931   3.412   6.056 -2.6587  2.0431  2.5261
  342MOL0     H46163   3.845   3.399   5.898 -3.3761  2.9824 -0.8373
  342MOL0     H46164   3.749   3.622   5.945 -0.5681 -1.8472 -1.8626
  342MOL0     H46165   3.687   3.491   6.051  0.7266 -0.1120  0.5650
  342MOL0     H46166   3.903   3.686   6.345 -0.0967 -0.3307  0.4514
  342MOL0     H46167   4.485   3.606   5.847 -1.2967 -2.7552  0.9736
  342MOL0     H46168   4.681   3.643   6.026 -2.3924  0.8807  0.9505
  342MOL0     H46169   4.722   3.721   5.874  1.3651  1.7576  0.6583
  342MOL0     H46170   4.729   3.823   6.016 -2.9807  0.9655  2.9163
  343MOL0     O46171   1.868   1.378   1.843  0.4787 -0.6870 -1.2253
  343MOL0     C46172   1.821   1.470   1.779 -0.2532 -0.1983  0.3487
  343MOL0     O46173   1.842   1.605   1.810  0.3614  0.5205 -0.4004
  343MOL0     C46174   1.958   1.637   1.868  1.6658  0.0708 -0.2912
  343MOL0     C46175   1.945   1.740   1.956  0.0559  0.3536  0.2081
  343MOL0     C46176   2.050   1.775   2.041 -0.2536  0.8954  0.1815
  343MOL0     C46177   2.171   1.699   2.042  0.4283 -0.8473  0.1659
  343MOL0     O46178   2.254   1.734   2.140  0.0180 -0.4240 -0.1978
  343MOL0     C46179   2.393   1.725   2.094 -0.1881 -0.0868 -0.8957
  343MOL0     C46180   2.460   1.600   2.157 -0.5408 -0.1930  0.0721
  343MOL0     C46181   2.609   1.584   2.128 -0.8818  0.6259 -0.1330
  343MOL0     C46182   2.669   1.448   2.169  0.5851  0.4570  0.5122
  343MOL0     C46183   2.824   1.448   2.161  0.7366 -0.8697  0.6743
  343MOL0     C46184   2.873   1.312   2.198 -0.0960  1.3742 -0.3561
  343MOL0     C46185   3.016   1.320   2.248  0.4249  0.5448 -0.0420
  343MOL0     C46186   3.087   1.185   2.238 -1.2915 -0.4114  0.6054
  343MOL0     N46187   3.229   1.204   2.273  0.6712  0.2536 -0.1744
  343MOL0     C46188   3.268   1.212   2.401  1.0559 -0.3816 -0.1377
  343MOL0     C46189   3.392   1.158   2.400  0.3990  0.2559 -0.2600
  343MOL0     C46190   3.484   1.145   2.514  0.1679  0.4126  0.8257
  343MOL0     C46191   3.600   1.040   2.508  0.4022 -0.0023 -0.9006
  343MOL0     C46192   3.656   1.030   2.651 -0.8778 -0.6365  0.2951
  343MOL0     C46193   3.784   0.937   2.664 -0.2110  0.7322  0.5333
  343MOL0     O46194   3.806   0.909   2.803 -0.3183  0.4788  0.6416
  343MOL0     C46195   3.917   0.837   2.834 -0.2853 -0.1997 -0.8856
  343MOL0     C46196   4.025   0.799   2.750  0.3954 -0.0064  0.4103
  343MOL0     C46197   4.144   0.737   2.796  0.3669  0.6792 -0.3561
  343MOL0     C46198   4.150   0.701   2.933 -0.7537 -0.1191 -0.2163
  343MOL0     C46199   4.276   0.622   2.978 -0.2429 -0.2220 -0.3428
  343MOL0     O46200   4.340   0.542   2.880  0.3686 -0.1172 -0.4001
  343MOL0     C46201   4.456   0.485   2.912 -1.3409  0.1492  0.1914
  343MOL0     C46202   4.576   0.556   2.935  0.1549  0.1633 -0.0052
  343MOL0     C46203   4.688   0.476   2.966  0.3105 -0.4076 -0.4616
  343MOL0     C46204   4.684   0.335   2.971 -0.6199  0.1656  1.3180
  343MOL0     O46205   4.806   0.272   2.987  0.1142  0.3322 -0.1643
  343MOL0     C46206   4.841   0.174   2.894 -0.0167 -0.1533 -0.1982
  343MOL0     C46207   4.999   0.170   2.904  0.0127  0.3413  0.2837
  343MOL0     C46208   5.071   0.299   2.865 -0.0267  0.0992  0.5070
  343MOL0     C46209   5.212   0.287   2.916  0.1745 -0.2179 -0.5640
  343MOL0     C46210   5.302   0.175   2.864  0.3655  0.4705 -0.1376
  343MOL0     C46211   5.447   0.198   2.914  0.2254 -0.4101 -0.3120
  343MOL0     C46212   5.525   0.308   2.835  0.3586  0.0694  0.5909
  343MOL0     C46213   5.651   0.369   2.907 -0.1102 -0.2693 -0.1739
  343MOL0    Cl46214   5.602   0.442   3.076 -0.6176  0.4663 -0.1834
  343MOL0     C46215   4.565   0.267   2.933 -0.5050 -0.3228 -0.5554
  343MOL0     C46216   4.449   0.342   2.915 -0.4936 -0.4486 -0.4570
  343MOL0     O46217   4.298   0.621   3.097 -0.1864  0.1013 -0.2630
  343MOL0     C46218   4.035   0.735   3.016 -0.4621 -0.0949  0.2167
  343MOL0     C46219   3.924   0.792   2.963  1.3673  0.3345 -0.2360
  343MOL0     N46220   3.433   1.147   2.270 -0.2407  0.2082 -0.0726
  343MOL0     N46221   3.335   1.176   2.193  0.2675 -0.5615 -0.1655
  343MOL0     C46222   2.182   1.591   1.950  0.0463 -0.0746 -0.7111
  343MOL0     C46223   2.078   1.564   1.860  0.1915 -0.4661 -0.1396
  343MOL0     C46224   1.710   1.442   1.685  0.5091 -0.3827 -0.0545
  343MOL0     C46225   1.626   1.342   1.711  0.5965  0.3268  0.3396
  343MOL0     C46226   1.509   1.317   1.633 -0.7612  0.5132  0.8476
  343MOL0     C46227   1.486   1.390   1.518 -0.3679 -0.6530  0.4100
  343MOL0     O46228   1.369   1.390   1.441 -0.3350 -0.3630 -0.9454
  343MOL0     C46229   1.297   1.271   1.440 -0.2975 -0.4092 -0.3544
  343MOL0     C46230   1.191   1.265   1.327 -0.5445 -0.1029 -0.7533
  343MOL0     C46231   1.077   1.175   1.360 -0.0151  0.3538 -0.3098
  343MOL0     C46232   0.982   1.167   1.242  0.1967 -0.1838  0.2878
  343MOL0     C46233   0.869   1.076   1.276  0.5070 -0.1698  0.0088
  343MOL0     C46234   0.795   0.984   1.301 -0.0149 -0.9110 -0.8720
  343MOL0     C46235   1.582   1.491   1.482  0.2183  0.2466  0.3389
  343MOL0     C46236   1.690   1.517   1.568 -0.0795 -0.1698  0.2556
  343MOL0     C46237   1.798   1.623   1.525  0.3622  0.4569 -0.4146
  343MOL0     H46238   1.848   1.789   1.958 -0.9667 -1.4563 -1.7469
  343MOL0     H46239   2.055   1.864   2.103  1.5511  1.1396 -0.2448
  343MOL0     H46240   2.389   1.729   1.985  0.4102  0.4655 -0.9052
  343MOL0     H46241   2.451   1.814   2.122 -0.3625 -0.2524  0.0271
  343MOL0     H46242   2.410   1.508   2.127 -0.7240 -0.0779  0.0224
  343MOL0     H46243   2.435   1.613   2.263 -3.4587 -0.4274 -0.4990
  343MOL0     H46244   2.663   1.665   2.178 -2.0096  0.6373  1.1272
  343MOL0     H46245   2.611   1.610   2.022  2.0424 -2.2649 -0.9609
  343MOL0     H46246   2.637   1.431   2.272 -0.8550 -0.3588 -0.0427
  343MOL0     H46247   2.634   1.364   2.108  1.1268 -1.7898  3.1314
  343MOL0     H46248   2.865   1.475   2.063 -0.8679  1.2847  0.5257
  343MOL0     H46249   2.863   1.520   2.233  1.3918 -1.1467  0.6077
  343MOL0     H46250   2.810   1.267   2.275 -1.5855 -0.3182 -2.4438
  343MOL0     H46251   2.857   1.233   2.124 -2.3260  1.1699  0.2723
  343MOL0     H46252   3.027   1.364   2.348  1.2770  0.1073  0.0608
  343MOL0     H46253   3.058   1.390   2.175 -0.2952  0.3730 -0.6348
  343MOL0     H46254   3.027   1.108   2.287 -1.0671 -0.6043  0.5777
  343MOL0     H46255   3.088   1.153   2.133 -3.2441  1.0163  0.0983
  343MOL0     H46256   3.221   1.267   2.483 -3.0693  1.3717 -3.3220
  343MOL0     H46257   3.526   1.241   2.544 -1.5327  2.2118 -2.1295
  343MOL0     H46258   3.414   1.105   2.588 -0.7892 -1.9368 -1.1896
  343MOL0     H46259   3.559   0.942   2.481  1.5823 -0.2556 -1.8732
  343MOL0     H46260   3.676   1.068   2.434 -1.1484  3.6540 -1.3458
  343MOL0     H46261   3.579   0.994   2.720 -2.3880 -1.4419 -1.7207
  343MOL0     H46262   3.689   1.124   2.697  0.2589 -1.3691  1.0387
  343MOL0     H46263   3.858   1.002   2.617 -1.8764  2.2644 -0.1102
  343MOL0     H46264   3.790   0.845   2.606  0.5570  1.4928 -0.6341
  343MOL0     H46265   4.031   0.824   2.645 -0.9370 -1.4472 -0.0507
  343MOL0     H46266   4.234   0.729   2.736 -0.2840 -0.7525 -1.1931
  343MOL0     H46267   4.580   0.664   2.933 -0.7641  0.2773  1.9788
  343MOL0     H46268   4.783   0.524   2.988  0.2328  0.4636 -1.8839
  343MOL0     H46269   4.794   0.077   2.914  0.8827 -1.2584 -2.9292
  343MOL0     H46270   4.819   0.199   2.790  1.1513  1.0943 -0.1720
  343MOL0     H46271   5.030   0.152   3.007 -1.9484  0.5731  0.9598
  343MOL0     H46272   5.036   0.087   2.843  1.0699 -0.5959  2.1146
  343MOL0     H46273   5.070   0.302   2.755 -1.8390 -0.9893  0.4598
  343MOL0     H46274   5.017   0.388   2.898  0.1679 -0.1034  1.3753
  343MOL0     H46275   5.199   0.271   3.023  1.0425  0.7524 -0.2904
  343MOL0     H46276   5.249   0.388   2.894 -0.3867  0.2130  0.4525
  343MOL0     H46277   5.305   0.171   2.754  0.8947 -0.2746 -0.0995
  343MOL0     H46278   5.262   0.080   2.899  0.2400 -0.2550 -2.1178
  343MOL0     H46279   5.438   0.214   3.022 -1.2463 -1.6744 -0.2118
  343MOL0     H46280   5.495   0.101   2.900  1.8140  0.0738  1.4165
  343MOL0     H46281   5.452   0.387   2.814  1.5662  0.7397 -1.3099
  343MOL0     H46282   5.553   0.264   2.739  0.3733  0.1523  0.5571
  343MOL0     H46283   5.729   0.297   2.935 -0.6975 -1.1254 -0.7106
  343MOL0     H46284   5.692   0.444   2.839  0.8775  0.5506  1.2581
  343MOL0     H46285   4.565   0.159   2.938 -1.7677 -0.2771  1.5365
  343MOL0     H46286   4.356   0.287   2.919 -0.1843 -1.0740 -1.6485
  343MOL0     H46287   4.031   0.710   3.121 -2.6038  1.0766  0.4566
  343MOL0     H46288   3.850   0.831   3.033 -0.3362  0.4826 -2.0586
  343MOL0     H46289   2.267   1.523   1.951  0.7197  0.7340 -1.5482
  343MOL0     H46290   2.093   1.472   1.805  1.4247 -0.5420  0.2998
  343MOL0     H46291   1.652   1.275   1.792 -1.0697  1.4110  1.8530
  343MOL0     H46292   1.445   1.235   1.663  0.7403 -0.2731  2.0347
  343MOL0     H46293   1.252   1.256   1.539  0.0905  1.3513  0.1159
  343MOL0     H46294   1.369   1.192   1.419 -1.1465 -1.0251 -1.0442
  343MOL0     H46295   1.249   1.223   1.245 -0.8159  0.1378 -1.0672
  343MOL0     H46296   1.156   1.360   1.284 -3.5675 -0.7794 -0.0117
  343MOL0     H46297   1.028   1.209   1.452 -0.9332 -0.0722 -0.6263
  343MOL0     H46298   1.119   1.076   1.377  1.0152  0.3402 -2.6364
  343MOL0     H46299   0.935   1.259   1.206 -2.7725 -3.0624 -4.1749
  343MOL0     H46300   1.034   1.123   1.157  0.4011  0.1691  0.2280
  343MOL0     H46301   0.732   0.902   1.331 -0.4092 -0.6540 -0.9857
  343MOL0     H46302   1.573   1.535   1.383  0.0615  0.9914  0.6784
  343MOL0     H46303   1.781   1.712   1.585  0.0186 -0.3942  0.7872
  343MOL0     H46304   1.897   1.590   1.557 -0.1522  0.8958  1.7759
  343MOL0     H46305   1.804   1.637   1.417  0.1066 -0.5798 -0.5817
  344MOL0     O46306   5.893   3.805   8.325  0.2968 -0.4882  0.0753
  344MOL0     C46307   5.868   3.876   8.226  0.7345  0.1608  0.8020
  344MOL0     O46308   5.927   3.995   8.187 -0.4245 -0.3033 -0.4198
  344MOL0     C46309   6.035   4.031   8.258 -0.0881 -0.4749  0.4152
  344MOL0     C46310   6.167   4.043   8.200 -0.0634  0.3847 -1.1023
  344MOL0     C46311   6.272   4.088   8.282 -0.7364 -0.1933 -0.2136
  344MOL0     C46312   6.251   4.115   8.422  0.0679 -0.9522  0.1625
  344MOL0     O46313   6.364   4.155   8.497 -0.2097  0.1060  0.1733
  344MOL0     C46314   6.360   4.155   8.641 -0.2699  0.7698 -0.4717
  344MOL0     C46315   6.500   4.154   8.697 -0.2652 -0.1255  0.3264
  344MOL0     C46316   6.612   4.245   8.621 -0.0408  0.5612  0.6496
  344MOL0     C46317   6.747   4.220   8.687 -0.7069 -0.0915 -0.0592
  344MOL0     C46318   6.848   4.324   8.637  0.2652 -0.5712 -0.2309
  344MOL0     C46319   6.962   4.327   8.736 -0.0628  0.3248 -0.4274
  344MOL0     C46320   7.059   4.450   8.720  0.1700 -0.2749  1.0393
  344MOL0     C46321   7.157   4.437   8.601 -0.6661  0.6903 -0.1903
  344MOL0     N46322   7.286   4.512   8.636 -0.0571 -0.3866 -0.4323
  344MOL0     C46323   7.325   4.630   8.565  0.3482  0.2640 -0.6883
  344MOL0     C46324   7.437   4.668   8.620 -0.0239 -0.2063 -0.0536
  344MOL0     C46325   7.523   4.786   8.577  1.0156 -0.3290  0.0200
  344MOL0     C46326   7.663   4.745   8.526 -0.7426 -0.4197 -0.3694
  344MOL0     C46327   7.749   4.691   8.641 -0.4336 -0.4568 -0.0486
  344MOL0     C46328   7.897   4.709   8.612  1.4211  0.1750 -0.1531
  344MOL0     O46329   7.947   4.847   8.614 -0.5606 -0.7034 -0.0996
  344MOL0     C46330   8.084   4.878   8.595  0.6630  0.2112  0.2484
  344MOL0     C46331   8.106   5.011   8.569 -0.4403 -0.2931 -0.1498
  344MOL0     C46332   8.238   5.066   8.565 -0.0732  0.4809 -0.4125
  344MOL0     C46333   8.348   4.979   8.574 -0.6443 -0.2792  0.3243
  344MOL0     C46334   8.500   5.018   8.566  0.6943 -0.1390  0.8380
  344MOL0     O46335   8.594   4.925   8.597 -0.1313 -0.2551  0.3474
  344MOL0     C46336   8.729   4.943   8.562 -0.1255 -0.9964  0.7508
  344MOL0     C46337   8.798   4.840   8.503  0.6621 -0.8612  0.0693
  344MOL0     C46338   8.935   4.849   8.472  0.4317  0.5402 -0.4960
  344MOL0     C46339   9.012   4.959   8.497  0.8026 -0.1860  0.2621
  344MOL0     O46340   9.139   4.959   8.450 -0.5262 -0.3132  0.1485
  344MOL0     C46341   9.219   5.073   8.467 -0.3466  0.2695  0.5958
  344MOL0     C46342   9.368   5.057   8.420 -0.1328  0.7019  0.2621
  344MOL0     C46343   9.377   5.034   8.265 -0.4967  0.5491  0.0058
  344MOL0     C46344   9.523   5.002   8.240 -1.0304  0.2208  0.2137
  344MOL0     C46345   9.541   4.996   8.089 -0.0233  0.2225  0.2651
  344MOL0     C46346   9.686   4.979   8.049  0.1447  0.0747  0.8296
  344MOL0     C46347   9.730   4.834   8.091  0.7577 -0.2400 -0.3013
  344MOL0     C46348   9.865   4.800   8.028 -0.6612 -0.4335  0.5278
  344MOL0    Cl46349   9.862   4.779   7.853 -0.3468  0.3731  0.3560
  344MOL0     C46350   8.943   5.068   8.560 -0.3846  0.0160  0.3075
  344MOL0     C46351   8.807   5.057   8.595 -0.6289  0.7439 -0.1283
  344MOL0     O46352   8.514   5.134   8.532 -0.0963 -0.4483 -0.8146
  344MOL0     C46353   8.325   4.839   8.582 -0.2842  0.0377  0.4304
  344MOL0     C46354   8.194   4.791   8.595 -1.0869 -0.2120 -0.6238
  344MOL0     N46355   7.464   4.578   8.722  0.7185  0.7740  0.0332
  344MOL0     N46356   7.371   4.495   8.737  0.0832 -0.3017 -0.2284
  344MOL0     C46357   6.120   4.100   8.472 -0.0281 -0.7970  0.0705
  344MOL0     C46358   6.009   4.062   8.396 -0.0350  0.0798  0.4833
  344MOL0     C46359   5.753   3.815   8.144 -0.3759  0.1550 -0.2888
  344MOL0     C46360   5.649   3.743   8.208  0.0278 -0.0683  0.3086
  344MOL0     C46361   5.540   3.691   8.129 -0.8481  0.2729  0.0468
  344MOL0     C46362   5.543   3.694   7.987  0.3950  0.9266  0.3775
  344MOL0     O46363   5.458   3.624   7.913  0.9476  0.2953  0.3733
  344MOL0     C46364   5.335   3.581   7.969 -1.3288 -0.5264  0.6809
  344MOL0     C46365   5.282   3.484   7.868  0.4636 -0.0555  0.4828
  344MOL0     C46366   5.378   3.368   7.828 -0.1919  0.3723 -0.8729
  344MOL0     C46367   5.415   3.269   7.951  0.2627  0.2757 -0.0948
  344MOL0     C46368   5.299   3.213   8.029 -0.2747 -0.1599 -0.7239
  344MOL0     C46369   5.201   3.171   8.096  0.0881  0.1393 -0.4134
  344MOL0     C46370   5.651   3.752   7.921  0.3808 -0.0237 -0.1609
  344MOL0     C46371   5.751   3.815   8.000  0.4541  0.2411 -0.3572
  344MOL0     C46372   5.860   3.877   7.915  0.2679  1.5352  0.2394
  344MOL0     H46373   6.189   4.022   8.096 -0.5369  1.3054 -1.4009
  344MOL0     H46374   6.369   4.119   8.246 -0.4692  1.6319  1.8649
  344MOL0     H46375   6.298   4.238   8.675 -2.8277 -1.6953  1.3678
  344MOL0     H46376   6.304   4.065   8.671 -0.8409  1.1122 -0.4960
  344MOL0     H46377   6.536   4.051   8.688  1.9164  0.7255 -1.7670
  344MOL0     H46378   6.499   4.178   8.804 -2.0180  0.5585  0.1858
  344MOL0     H46379   6.597   4.353   8.634  1.3459  0.6968  1.2596
  344MOL0     H46380   6.597   4.219   8.516 -2.4558 -0.2255  1.1361
  344MOL0     H46381   6.746   4.223   8.797  1.9617 -0.0343  0.0138
  344MOL0     H46382   6.785   4.122   8.657  1.3362  0.8278 -0.6286
  344MOL0     H46383   6.903   4.296   8.547  2.4307 -0.8396  1.0932
  344MOL0     H46384   6.802   4.421   8.616  0.2978 -1.2522 -4.0787
  344MOL0     H46385   6.923   4.340   8.837 -1.6109  4.6014 -1.3589
  344MOL0     H46386   7.019   4.234   8.737 -1.2033 -0.3899 -0.7176
  344MOL0     H46387   7.113   4.475   8.812  1.1464  0.1145  0.3743
  344MOL0     H46388   7.002   4.542   8.706 -0.6134 -1.1766 -2.8916
  344MOL0     H46389   7.179   4.331   8.586  2.3772  0.9609  1.5565
  344MOL0     H46390   7.128   4.480   8.505  1.5776  1.3184 -0.6391
  344MOL0     H46391   7.278   4.685   8.484  0.0419  1.1620  0.0767
  344MOL0     H46392   7.471   4.824   8.489  1.8762 -3.2159 -1.8865
  344MOL0     H46393   7.528   4.849   8.667  2.8671 -0.7389  0.2418
  344MOL0     H46394   7.644   4.654   8.469  1.3476 -0.0171 -1.8059
  344MOL0     H46395   7.703   4.832   8.473  0.7073 -0.4284  0.6396
  344MOL0     H46396   7.727   4.585   8.656 -0.4463 -0.6033 -1.0183
  344MOL0     H46397   7.737   4.746   8.735  0.6872 -1.0419  0.4505
  344MOL0     H46398   7.937   4.656   8.526  1.1967  0.1449 -0.2400
  344MOL0     H46399   7.934   4.650   8.697 -1.3366 -0.5596  0.6693
  344MOL0     H46400   8.026   5.083   8.570 -0.7189 -0.4273  4.4297
  344MOL0     H46401   8.256   5.172   8.547 -1.0570  0.3027 -3.0338
  344MOL0     H46402   8.738   4.753   8.478 -0.7698 -0.0696  0.6674
  344MOL0     H46403   8.984   4.761   8.430 -1.4528  1.0183 -4.0847
  344MOL0     H46404   9.176   5.155   8.408 -0.4762 -0.7715 -0.8209
  344MOL0     H46405   9.233   5.104   8.571  0.9518  0.5314  0.3696
  344MOL0     H46406   9.419   5.149   8.451 -0.0578 -0.1963  3.1703
  344MOL0     H46407   9.415   4.971   8.470 -0.7564  0.4172  0.3739
  344MOL0     H46408   9.314   4.951   8.231  0.5154 -0.8199  1.3439
  344MOL0     H46409   9.351   5.124   8.209 -2.4455 -1.0911 -1.9279
  344MOL0     H46410   9.552   4.912   8.296  0.7462  0.2813 -0.5670
  344MOL0     H46411   9.583   5.086   8.276 -0.0509 -0.6128  0.6118
  344MOL0     H46412   9.506   5.086   8.039  1.2301  0.1079 -0.8737
  344MOL0     H46413   9.487   4.908   8.052 -1.0278  0.1501  1.8029
  344MOL0     H46414   9.701   4.993   7.942 -0.5678 -1.4905  0.4881
  344MOL0     H46415   9.753   5.055   8.089  2.7195 -1.0414 -1.1051
  344MOL0     H46416   9.663   4.752   8.065  1.8556 -1.0015 -0.8097
  344MOL0     H46417   9.738   4.844   8.200 -3.5992  1.8052  0.0254
  344MOL0     H46418   9.935   4.878   8.058 -1.7225 -0.1707  2.4362
  344MOL0     H46419   9.898   4.702   8.062 -0.6110 -0.5925  0.0379
  344MOL0     H46420   8.999   5.159   8.584 -0.1922  0.4748 -1.6625
  344MOL0     H46421   8.771   5.141   8.654  0.0770 -1.0328  3.0377
  344MOL0     H46422   8.405   4.765   8.579  0.3642  0.7577 -0.4036
  344MOL0     H46423   8.186   4.683   8.593 -3.1319 -0.0905 -0.9110
  344MOL0     H46424   6.098   4.127   8.575  0.5588  0.8473 -0.2174
  344MOL0     H46425   5.911   4.071   8.439 -0.1580  0.7236  0.0763
  344MOL0     H46426   5.653   3.723   8.314  1.4655 -1.8340 -0.0368
  344MOL0     H46427   5.462   3.643   8.186 -0.0997 -2.7795 -1.2851
  344MOL0     H46428   5.268   3.664   7.991  0.4356  0.8676  0.9684
  344MOL0     H46429   5.348   3.518   8.058  0.5346 -1.9534 -0.5258
  344MOL0     H46430   5.255   3.541   7.779 -0.0189 -1.7808 -0.5179
  344MOL0     H46431   5.187   3.437   7.896 -1.9491  1.8502 -3.6682
  344MOL0     H46432   5.472   3.411   7.790 -0.4121  1.5921 -0.0847
  344MOL0     H46433   5.326   3.297   7.763  0.2271 -0.8485  0.0736
  344MOL0     H46434   5.482   3.186   7.927  0.9162  0.4122  1.1711
  344MOL0     H46435   5.469   3.342   8.012 -0.1296 -0.0739  0.6776
  344MOL0     H46436   5.120   3.130   8.154 -1.5147  1.0525 -1.8915
  344MOL0     H46437   5.672   3.747   7.815  2.4902  1.1169  0.1440
  344MOL0     H46438   5.957   3.868   7.965  0.2004 -3.6066 -0.0065
  344MOL0     H46439   5.857   3.839   7.812  0.4849 -0.9444  1.0758
  344MOL0     H46440   5.849   3.983   7.891 -1.2348  1.3939  0.2388
  345MOL0     O46441   9.694   2.097  11.224 -0.7317 -0.3017  0.0055
  345MOL0     C46442   9.652   2.205  11.191 -0.3762  0.7239  0.1730
  345MOL0     O46443   9.732   2.303  11.123 -0.0211  0.1188 -0.2409
  345MOL0     C46444   9.863   2.272  11.075  0.6480  0.2395 -0.6588
  345MOL0     C46445   9.961   2.200  11.140  0.0385 -0.0434  0.0533
  345MOL0     C46446  10.095   2.197  11.094  0.6239 -1.1412  0.0061
  345MOL0     C46447  10.132   2.255  10.975  0.8458 -0.0435  0.1960
  345MOL0     O46448  10.257   2.281  10.927 -0.5570 -0.2008 -0.4291
  345MOL0     C46449  10.368   2.216  10.992 -0.7781 -0.1716  0.3961
  345MOL0     C46450  10.488   2.269  10.915 -0.1563  1.0824 -0.3697
  345MOL0     C46451  10.624   2.227  10.977 -0.1941 -0.1236 -0.9022
  345MOL0     C46452  10.732   2.318  10.917 -0.4663  0.2518  0.5625
  345MOL0     C46453  10.869   2.292  10.983  0.5592 -0.3730 -0.2303
  345MOL0     C46454  10.973   2.362  10.915 -0.7655 -0.1614 -0.7540
  345MOL0     C46455  11.107   2.309  10.972 -0.3908  0.3799  0.2603
  345MOL0     C46456  11.226   2.387  10.923  0.1914 -0.4849  0.0376
  345MOL0     N46457  11.358   2.374  10.990  0.8285 -0.2197 -0.5595
  345MOL0     C46458  11.478   2.401  10.934  0.6299 -0.4826  0.1155
  345MOL0     C46459  11.572   2.375  11.025 -0.2185  0.3008 -0.4731
  345MOL0     C46460  11.721   2.404  11.008 -0.5821  0.4213  0.0685
  345MOL0     C46461  11.813   2.417  11.126 -0.8301 -0.4534 -0.3453
  345MOL0     C46462  11.848   2.285  11.195  0.0676 -0.0111  0.3065
  345MOL0     C46463  11.943   2.302  11.317 -0.5585 -0.0863 -0.2334
  345MOL0     O46464  12.077   2.350  11.281 -0.8598  0.2461  0.0296
  345MOL0     C46465  12.180   2.350  11.372  0.0935  0.6605 -1.4534
  345MOL0     C46466  12.298   2.393  11.326 -0.4640 -0.2841 -0.1804
  345MOL0     C46467  12.413   2.400  11.407 -0.3622  0.1507  1.0838
  345MOL0     C46468  12.408   2.368  11.544  0.1921  0.9732 -0.6294
  345MOL0     C46469  12.518   2.399  11.636 -0.2674 -0.0370 -0.3977
  345MOL0     O46470  12.635   2.458  11.596  0.3509  0.1195  0.6446
  345MOL0     C46471  12.738   2.486  11.690  0.5672 -0.7611 -0.5473
  345MOL0     C46472  12.865   2.496  11.641  0.2451 -0.3906  0.9895
  345MOL0     C46473  12.979   2.512  11.725 -0.7157  0.0755 -0.3135
  345MOL0     C46474  12.962   2.531  11.865  0.7644  1.1310  0.5279
  345MOL0     O46475  13.065   2.555  11.957 -0.4676 -0.0575 -0.9412
  345MOL0     C46476  13.198   2.526  11.918 -0.8801 -0.1768  0.2095
  345MOL0     C46477  13.300   2.541  12.033 -0.5514  0.0477  0.7338
  345MOL0     C46478  13.416   2.452  12.023 -0.1995  0.3763  1.4870
  345MOL0     C46479  13.533   2.497  12.109 -0.6771  0.6108 -0.5456
  345MOL0     C46480  13.655   2.401  12.084  0.2504  0.0828  0.1443
  345MOL0     C46481  13.778   2.447  12.164  0.5713 -0.6921  0.5033
  345MOL0     C46482  13.773   2.413  12.314 -0.9406 -0.5953  0.7691
  345MOL0     C46483  13.914   2.432  12.375 -0.5095  0.3203  0.4136
  345MOL0    Cl46484  14.034   2.316  12.293  0.0971  0.4435  0.4080
  345MOL0     C46485  12.834   2.521  11.916 -0.6892  0.0090  0.8164
  345MOL0     C46486  12.725   2.496  11.829  0.3314 -1.4762 -1.1103
  345MOL0     O46487  12.499   2.352  11.751  0.6885  0.7041  0.4804
  345MOL0     C46488  12.282   2.324  11.585 -0.6501 -0.6542 -0.2718
  345MOL0     C46489  12.171   2.320  11.507 -0.1233 -0.0747  0.3060
  345MOL0     N46490  11.505   2.317  11.135 -1.0437  0.1326 -0.1076
  345MOL0     N46491  11.377   2.318  11.114 -0.0759  0.6811 -0.3885
  345MOL0     C46492  10.035   2.320  10.897 -0.1539 -0.0385 -0.0265
  345MOL0     C46493   9.905   2.333  10.953  1.0847 -0.0921 -0.1264
  345MOL0     C46494   9.510   2.240  11.230 -0.4373  0.8063 -0.2759
  345MOL0     C46495   9.421   2.140  11.279 -0.3883 -0.5732 -0.3844
  345MOL0     C46496   9.286   2.154  11.297 -0.1669 -0.2363 -0.4764
  345MOL0     C46497   9.226   2.275  11.270  0.6878 -0.4681 -0.2776
  345MOL0     O46498   9.089   2.290  11.288  0.2492 -0.2856 -0.1351
  345MOL0     C46499   9.014   2.397  11.226  0.8963 -0.0090  0.6756
  345MOL0     C46500   8.863   2.347  11.215 -0.4202 -0.2534 -0.3104
  345MOL0     C46501   8.804   2.332  11.354  0.5488  0.0745 -0.5024
  345MOL0     C46502   8.655   2.285  11.354 -1.1697 -0.2877  0.4980
  345MOL0     C46503   8.576   2.340  11.246 -0.1083  0.0551 -0.3943
  345MOL0     C46504   8.500   2.378  11.162 -0.8870  0.2304 -0.3941
  345MOL0     C46505   9.305   2.378  11.219  0.1395  0.3888 -0.4276
  345MOL0     C46506   9.445   2.365  11.203 -0.9799 -0.2550 -0.1326
  345MOL0     C46507   9.515   2.495  11.170  0.3777 -0.2913 -0.6945
  345MOL0     H46508   9.935   2.156  11.236  2.5380 -0.1524  0.7512
  345MOL0     H46509  10.168   2.148  11.158 -0.0587 -0.9112  0.9776
  345MOL0     H46510  10.374   2.245  11.097 -1.9320  1.7088 -0.0052
  345MOL0     H46511  10.358   2.108  10.981  1.0341 -0.3205 -0.2070
  345MOL0     H46512  10.494   2.378  10.922 -2.4729  1.2350  0.2192
  345MOL0     H46513  10.483   2.242  10.809 -0.2349  0.1927 -0.1536
  345MOL0     H46514  10.643   2.122  10.955 -2.1334 -0.3617 -1.6087
  345MOL0     H46515  10.620   2.240  11.085 -0.5751 -0.5086 -0.8680
  345MOL0     H46516  10.745   2.302  10.809 -1.0387  0.6318  0.4368
  345MOL0     H46517  10.705   2.424  10.918  1.4837  0.9276 -2.5511
  345MOL0     H46518  10.866   2.316  11.090 -2.7929 -0.3074 -0.2378
  345MOL0     H46519  10.886   2.185  10.967  0.4163 -0.2823 -1.0552
  345MOL0     H46520  10.972   2.346  10.807 -0.0745 -0.9998 -0.6483
  345MOL0     H46521  10.960   2.470  10.931 -0.8486 -0.0813 -1.3501
  345MOL0     H46522  11.112   2.202  10.954 -2.4943  0.4851 -1.2080
  345MOL0     H46523  11.105   2.334  11.079 -1.6739  1.1540  0.0759
  345MOL0     H46524  11.242   2.363  10.817  1.2593 -0.5387  0.1970
  345MOL0     H46525  11.188   2.490  10.927 -1.8737 -1.2430  1.5394
  345MOL0     H46526  11.497   2.444  10.836 -1.0391  0.4250  0.1642
  345MOL0     H46527  11.754   2.322  10.944 -0.8110  1.2742 -1.1679
  345MOL0     H46528  11.738   2.488  10.941 -2.9510 -0.5741 -1.9315
  345MOL0     H46529  11.909   2.456  11.093  0.7160 -1.7937  2.2542
  345MOL0     H46530  11.779   2.496  11.194  0.7178  0.7208 -0.8801
  345MOL0     H46531  11.899   2.223  11.121 -0.0003  0.1867  0.0946
  345MOL0     H46532  11.752   2.242  11.225 -1.1392  1.0924 -1.7575
  345MOL0     H46533  11.960   2.208  11.370 -2.2941 -0.0639  0.4305
  345MOL0     H46534  11.900   2.377  11.384  0.8534  1.5418 -1.0685
  345MOL0     H46535  12.297   2.425  11.222  1.6655 -0.2837 -0.2439
  345MOL0     H46536  12.505   2.436  11.363 -0.1322 -0.6369  0.9008
  345MOL0     H46537  12.879   2.485  11.534 -1.0508  1.7949  0.5075
  345MOL0     H46538  13.077   2.525  11.682  0.4253 -0.8522  1.8172
  345MOL0     H46539  13.203   2.423  11.881  0.1903 -0.4644  1.0969
  345MOL0     H46540  13.225   2.592  11.835 -0.8001 -1.6147 -0.9372
  345MOL0     H46541  13.347   2.640  12.028  1.8164 -0.9468  1.8350
  345MOL0     H46542  13.247   2.525  12.127 -3.4950  0.5915 -0.7254
  345MOL0     H46543  13.388   2.347  12.036 -2.0237 -0.5877 -5.6332
  345MOL0     H46544  13.450   2.452  11.919  0.4815  2.3659  1.6707
  345MOL0     H46545  13.502   2.481  12.212 -1.8828  0.4519 -0.9189
  345MOL0     H46546  13.560   2.600  12.085 -2.4588  0.7842 -2.0335
  345MOL0     H46547  13.675   2.400  11.977  0.5943 -1.0234  0.2080
  345MOL0     H46548  13.626   2.298  12.104 -1.4564  0.0550 -2.1385
  345MOL0     H46549  13.855   2.382  12.121  0.5184  0.0164 -0.7019
  345MOL0     H46550  13.804   2.551  12.144 -2.4213  0.1788  0.5942
  345MOL0     H46551  13.731   2.316  12.341  0.8356 -1.9167 -0.8690
  345MOL0     H46552  13.705   2.488  12.356 -0.7580  0.0888 -0.1196
  345MOL0     H46553  13.948   2.536  12.369 -0.2636  0.2311  0.2513
  345MOL0     H46554  13.909   2.400  12.480 -0.9426  0.3865  0.4171
  345MOL0     H46555  12.835   2.539  12.023  1.1046 -0.4271  0.9007
  345MOL0     H46556  12.631   2.486  11.882 -1.6405  1.9255 -3.5668
  345MOL0     H46557  12.271   2.285  11.686 -1.7438  2.9249  1.1678
  345MOL0     H46558  12.079   2.294  11.559 -0.2305 -0.4027 -0.0481
  345MOL0     H46559  10.062   2.383  10.813 -1.7806 -2.4744 -2.5551
  345MOL0     H46560   9.828   2.391  10.904  0.4321 -0.6240  0.2452
  345MOL0     H46561   9.464   2.041  11.281  2.2718  0.4744 -1.4912
  345MOL0     H46562   9.217   2.077  11.331 -0.0424 -0.9947 -1.8845
  345MOL0     H46563   9.063   2.416  11.131 -1.2528 -0.0840 -0.5117
  345MOL0     H46564   9.013   2.486  11.290 -1.0296 -0.6484  1.6331
  345MOL0     H46565   8.863   2.252  11.162 -1.8403 -0.1166 -0.5787
  345MOL0     H46566   8.804   2.414  11.152 -0.9560 -0.3139  0.1175
  345MOL0     H46567   8.797   2.428  11.406  0.7186 -0.0103 -0.3226
  345MOL0     H46568   8.868   2.268  11.415  0.4199  1.1577  0.8186
  345MOL0     H46569   8.651   2.175  11.352 -0.2722 -0.3447 -2.0358
  345MOL0     H46570   8.606   2.314  11.447 -0.7274 -0.3313  0.7483
  345MOL0     H46571   8.446   2.405  11.073 -1.5384 -0.9187 -0.3676
  345MOL0     H46572   9.256   2.471  11.192  0.3194  0.8057  0.6076
  345MOL0     H46573   9.598   2.517  11.238 -0.9990  1.2037  0.5969
  345MOL0     H46574   9.549   2.508  11.067 -1.4496  2.4074 -1.0863
  345MOL0     H46575   9.441   2.575  11.184 -0.6276 -1.4174  0.7083
  346MOL0     O46576   1.309   0.397   0.143 -0.1287 -0.2948 -0.5801
  346MOL0     C46577   1.265   0.462   0.053  0.0306 -0.3111  0.1910
  346MOL0     O46578   1.310   0.475  -0.076 -0.4194  0.2661 -0.4884
  346MOL0     C46579   1.446   0.457  -0.107  0.0028  0.1164 -0.4441
  346MOL0     C46580   1.477   0.378  -0.217  0.2970 -0.1935 -0.2637
  346MOL0     C46581   1.614   0.354  -0.253  0.2727  0.9054  0.0382
  346MOL0     C46582   1.717   0.399  -0.183 -0.3471  0.1520  0.1958
  346MOL0     O46583   1.845   0.363  -0.239 -0.5122 -1.3077  0.4570
  346MOL0     C46584   1.944   0.344  -0.140 -0.1176  0.3937  0.4032
  346MOL0     C46585   2.054   0.262  -0.211 -0.6743 -0.2036 -0.3221
  346MOL0     C46586   2.150   0.229  -0.090 -0.6589 -1.2581 -0.6912
  346MOL0     C46587   2.268   0.140  -0.132 -0.2788 -0.5665 -0.9115
  346MOL0     C46588   2.334   0.063  -0.015 -0.5894 -0.2341 -0.3444
  346MOL0     C46589   2.261  -0.069   0.008 -0.1966  0.6698 -0.1960
  346MOL0     C46590   2.312  -0.176   0.110 -0.6898 -0.2228 -0.2054
  346MOL0     C46591   2.319  -0.106   0.249  0.4889  0.6075 -0.6392
  346MOL0     N46592   2.368  -0.200   0.356 -0.0032  0.7618  0.3360
  346MOL0     C46593   2.511  -0.228   0.375 -0.0269  0.6059  0.8626
  346MOL0     C46594   2.508  -0.338   0.457 -0.2284  0.0046 -0.5451
  346MOL0     C46595   2.625  -0.415   0.515 -0.1097 -0.1208 -0.3009
  346MOL0     C46596   2.733  -0.324   0.592  0.5675 -0.8280 -0.1374
  346MOL0     C46597   2.842  -0.413   0.655 -0.5996  0.3009  0.3787
  346MOL0     C46598   2.955  -0.337   0.733  1.1388 -1.3958  0.2669
  346MOL0     O46599   3.059  -0.436   0.768  0.2112  0.3614  0.4254
  346MOL0     C46600   3.134  -0.428   0.881 -0.0425 -0.3263  0.2849
  346MOL0     C46601   3.209  -0.534   0.914  0.5154  0.2495 -0.5155
  346MOL0     C46602   3.283  -0.534   1.028 -0.4083  0.7487  0.0834
  346MOL0     C46603   3.299  -0.411   1.103  0.6957 -0.0609  0.1478
  346MOL0     C46604   3.376  -0.419   1.226 -0.0436  0.3103 -0.6784
  346MOL0     O46605   3.466  -0.523   1.241 -0.0126 -0.2315  0.0889
  346MOL0     C46606   3.564  -0.529   1.335  0.3230 -0.2630 -0.6276
  346MOL0     C46607   3.681  -0.588   1.297 -0.3574 -0.4552  0.5029
  346MOL0     C46608   3.786  -0.624   1.376 -0.5620 -0.4774 -0.4566
  346MOL0     C46609   3.771  -0.581   1.520 -0.4608  0.7662  0.2044
  346MOL0     O46610   3.869  -0.603   1.619  0.1588 -0.5289  0.6101
  346MOL0     C46611   3.988  -0.674   1.585 -0.6191  0.5253 -0.4935
  346MOL0     C46612   4.103  -0.594   1.517  0.0828 -0.1762  0.2176
  346MOL0     C46613   4.152  -0.481   1.607  1.1338 -0.2932  0.1204
  346MOL0     C46614   4.279  -0.415   1.555  0.0922 -0.0735 -0.6765
  346MOL0     C46615   4.376  -0.374   1.666 -0.1302 -1.0025  0.7043
  346MOL0     C46616   4.511  -0.313   1.607  0.8203  0.2348 -0.2925
  346MOL0     C46617   4.619  -0.327   1.712 -0.5001 -0.3831 -0.2358
  346MOL0     C46618   4.756  -0.268   1.696  0.6460 -0.7523 -0.6384
  346MOL0    Cl46619   4.853  -0.371   1.599 -0.8685  0.0606  0.0360
  346MOL0     C46620   3.648  -0.522   1.563 -0.2751  0.5782 -0.0067
  346MOL0     C46621   3.551  -0.490   1.467 -0.1756 -0.6356 -0.5946
  346MOL0     O46622   3.366  -0.326   1.307 -0.4460 -0.1202  0.4593
  346MOL0     C46623   3.239  -0.295   1.059 -0.5383 -0.3243 -0.5506
  346MOL0     C46624   3.151  -0.313   0.957  0.4802 -0.1551  1.4291
  346MOL0     N46625   2.380  -0.371   0.491 -0.3610 -1.0459 -0.1758
  346MOL0     N46626   2.296  -0.297   0.433  0.5019  0.4831 -0.8163
  346MOL0     C46627   1.691   0.488  -0.074  1.6507 -1.0058 -0.0468
  346MOL0     C46628   1.558   0.518  -0.045  0.4415 -0.1030  0.3924
  346MOL0     C46629   1.144   0.561   0.082  0.7160 -0.4546  0.5903
  346MOL0     C46630   1.126   0.678   0.000  0.1152 -0.2868  0.7750
  346MOL0     C46631   1.023   0.770   0.025  0.2237  0.3371  0.2735
  346MOL0     C46632   0.943   0.744   0.135  0.5770  0.3774  0.3014
  346MOL0     O46633   0.840   0.830   0.134  0.7895  0.0140  0.1204
  346MOL0     C46634   0.759   0.851   0.250 -0.0142 -0.7161 -0.1370
  346MOL0     C46635   0.816   0.955   0.346  0.1737  0.4450 -0.5877
  346MOL0     C46636   0.877   1.086   0.289 -0.4395 -0.1863  0.1174
  346MOL0     C46637   0.783   1.164   0.189 -0.0531 -0.4634 -0.0302
  346MOL0     C46638   0.641   1.183   0.231  0.0549  0.0274  0.1719
  346MOL0     C46639   0.519   1.195   0.260 -0.6217 -0.3275 -0.9151
  346MOL0     C46640   0.961   0.630   0.220 -0.7830  0.1794 -0.3748
  346MOL0     C46641   1.061   0.542   0.199  0.1821 -0.0544  0.2203
  346MOL0     C46642   1.072   0.425   0.292  0.4136  0.5621 -0.3538
  346MOL0     H46643   1.395   0.344  -0.281  0.0775  0.8976 -0.5880
  346MOL0     H46644   1.633   0.291  -0.339 -0.6103  0.4180  0.1877
  346MOL0     H46645   1.977   0.443  -0.106 -1.3622 -0.3819  4.5011
  346MOL0     H46646   1.897   0.287  -0.059  1.7137  0.4674  1.5733
  346MOL0     H46647   2.106   0.317  -0.289 -1.3798 -0.4559 -0.9858
  346MOL0     H46648   2.017   0.173  -0.263  3.1765 -1.1942 -1.7020
  346MOL0     H46649   2.095   0.176  -0.011  0.7691 -2.4446 -0.4542
  346MOL0     H46650   2.185   0.323  -0.047 -3.5299 -0.9766  1.3737
  346MOL0     H46651   2.222   0.072  -0.204 -0.6426  1.1793 -2.3939
  346MOL0     H46652   2.347   0.195  -0.184 -0.1618  0.1532 -0.0098
  346MOL0     H46653   2.435   0.035  -0.047 -0.0123  0.8609  0.4874
  346MOL0     H46654   2.332   0.118   0.079 -3.8876 -1.2164  0.3016
  346MOL0     H46655   2.152  -0.055   0.014 -0.2430 -0.1349  0.9302
  346MOL0     H46656   2.274  -0.126  -0.085  0.4313 -4.6460  2.7904
  346MOL0     H46657   2.413  -0.210   0.086 -1.0006 -0.1227 -1.7665
  346MOL0     H46658   2.252  -0.268   0.104  1.1363 -1.4072 -1.3348
  346MOL0     H46659   2.384  -0.018   0.244  0.7954  0.4027 -0.2768
  346MOL0     H46660   2.216  -0.073   0.268  0.8050  0.6245  1.2016
  346MOL0     H46661   2.590  -0.179   0.319 -2.3979 -0.1676 -3.6948
  346MOL0     H46662   2.599  -0.485   0.596  0.8497 -0.3449 -0.1732
  346MOL0     H46663   2.665  -0.482   0.439 -0.0519 -2.4845  1.6768
  346MOL0     H46664   2.788  -0.254   0.528 -1.7915  1.4475  0.1648
  346MOL0     H46665   2.685  -0.263   0.669  0.4779 -2.7292  1.3969
  346MOL0     H46666   2.893  -0.454   0.568 -3.6681  0.1466 -1.4752
  346MOL0     H46667   2.800  -0.490   0.720  0.8240 -1.8422 -1.1242
  346MOL0     H46668   2.902  -0.293   0.818 -1.1268 -0.6379 -1.4399
  346MOL0     H46669   2.992  -0.263   0.662  0.4213  0.5369  1.8453
  346MOL0     H46670   3.202  -0.632   0.866 -2.0501 -0.0799  0.3970
  346MOL0     H46671   3.326  -0.629   1.057 -0.3598  1.1332  1.3123
  346MOL0     H46672   3.699  -0.616   1.193  0.9875  2.0190 -0.0091
  346MOL0     H46673   3.871  -0.674   1.331 -1.2603 -2.3001  0.1390
  346MOL0     H46674   4.026  -0.717   1.678  0.3655 -1.0005 -1.5350
  346MOL0     H46675   3.963  -0.766   1.530 -0.1918 -1.5243  2.4838
  346MOL0     H46676   4.186  -0.663   1.501 -0.7746 -1.6051  1.5242
  346MOL0     H46677   4.073  -0.545   1.424 -2.8899 -3.2926 -0.6727
  346MOL0     H46678   4.070  -0.409   1.614  0.7808 -0.7529  0.8088
  346MOL0     H46679   4.174  -0.509   1.710  1.4527 -2.6327 -0.5239
  346MOL0     H46680   4.258  -0.328   1.491 -1.1173 -0.2165 -0.4967
  346MOL0     H46681   4.326  -0.478   1.478  0.8327  0.6351 -0.8247
  346MOL0     H46682   4.397  -0.463   1.727 -1.8234 -0.8746  1.5372
  346MOL0     H46683   4.327  -0.303   1.733 -1.1175  2.9381 -3.6509
  346MOL0     H46684   4.544  -0.372   1.521  1.2538 -0.4495  0.3304
  346MOL0     H46685   4.500  -0.207   1.583 -0.9002  0.3341  0.7764
  346MOL0     H46686   4.627  -0.434   1.735 -0.1192 -0.0324  1.4156
  346MOL0     H46687   4.574  -0.284   1.803 -0.0256 -1.8303  0.7129
  346MOL0     H46688   4.749  -0.165   1.660 -2.7726 -0.0058  1.6852
  346MOL0     H46689   4.810  -0.243   1.788  0.1234  1.5870 -0.8886
  346MOL0     H46690   3.622  -0.503   1.667  2.1441  0.7581  0.6368
  346MOL0     H46691   3.459  -0.443   1.503  0.4598 -0.6840  1.1964
  346MOL0     H46692   3.246  -0.206   1.121 -3.5052 -0.6069  0.3741
  346MOL0     H46693   3.093  -0.227   0.928  3.3846  1.5250  0.1541
  346MOL0     H46694   1.766   0.545  -0.020 -0.6571  1.2202  0.9854
  346MOL0     H46695   1.530   0.573   0.045 -0.5540  1.7538 -0.9752
  346MOL0     H46696   1.188   0.694  -0.088 -1.8031 -0.5304 -0.6745
  346MOL0     H46697   1.008   0.854  -0.042  0.9973  1.9787  2.0852
  346MOL0     H46698   0.747   0.756   0.304  1.0775 -0.2320  1.0058
  346MOL0     H46699   0.667   0.898   0.216 -0.3633 -0.0688  1.6057
  346MOL0     H46700   0.894   0.895   0.394  0.1908  0.3281 -0.7623
  346MOL0     H46701   0.752   0.975   0.432  0.7434  1.4376 -0.3642
  346MOL0     H46702   0.968   1.061   0.234  2.5200 -0.5299  4.6443
  346MOL0     H46703   0.904   1.148   0.375 -2.8449 -0.6180  1.2577
  346MOL0     H46704   0.837   1.258   0.174  0.4300 -0.9500 -1.6239
  346MOL0     H46705   0.793   1.120   0.089  2.3836  0.6249 -0.3605
  346MOL0     H46706   0.419   1.219   0.290 -0.6539  0.2311 -1.4355
  346MOL0     H46707   0.904   0.626   0.313  0.9649  0.3329  0.7423
  346MOL0     H46708   0.998   0.416   0.372 -0.3149 -0.5684 -1.1306
  346MOL0     H46709   1.061   0.337   0.228 -2.3609  0.9115 -0.4918
  346MOL0     H46710   1.168   0.441   0.343 -1.3135  1.3120  2.9829
  347MOL0     O46711   1.492   3.958   6.132  0.9545 -0.1230 -0.1437
  347MOL0     C46712   1.462   3.885   6.040 -0.1040  0.2397 -0.6452
  347MOL0     O46713   1.535   3.772   6.005 -0.2967 -0.6318  0.3150
  347MOL0     C46714   1.642   3.740   6.080 -0.2042  0.5855  0.1128
  347MOL0     C46715   1.628   3.696   6.206 -0.2514  0.5345 -0.1802
  347MOL0     C46716   1.737   3.662   6.288 -0.1845 -0.2248  0.0790
  347MOL0     C46717   1.866   3.680   6.237 -0.7123 -0.2224 -0.8133
  347MOL0     O46718   1.981   3.666   6.317  0.3071 -0.1323  0.1884
  347MOL0     C46719   1.965   3.699   6.460 -0.4620  0.1627  0.2467
  347MOL0     C46720   2.099   3.699   6.537 -0.3623  0.5234 -0.0754
  347MOL0     C46721   2.206   3.776   6.458 -0.3033  0.6661  0.6560
  347MOL0     C46722   2.332   3.780   6.539 -0.1468  0.7590 -0.5013
  347MOL0     C46723   2.440   3.857   6.473 -0.8357 -0.1875 -0.0908
  347MOL0     C46724   2.417   4.007   6.496 -0.1939 -0.2289  0.5437
  347MOL0     C46725   2.536   4.082   6.432  0.5635 -0.2663  0.1743
  347MOL0     C46726   2.526   4.233   6.448  0.0117  0.8213 -0.6054
  347MOL0     N46727   2.650   4.297   6.393 -0.0174 -0.4890  0.9429
  347MOL0     C46728   2.718   4.401   6.460 -0.6743 -0.4692 -0.6153
  347MOL0     C46729   2.835   4.417   6.404 -0.0066 -0.2549  0.8066
  347MOL0     C46730   2.933   4.516   6.460  0.9404  0.5807 -0.7743
  347MOL0     C46731   3.038   4.444   6.559 -0.3118  0.1270  0.8788
  347MOL0     C46732   3.113   4.546   6.643  0.6883  0.2002 -0.3862
  347MOL0     C46733   3.247   4.587   6.578  0.5344 -0.9729 -0.2552
  347MOL0     O46734   3.219   4.645   6.447 -0.8056  0.4953  0.3475
  347MOL0     C46735   3.334   4.656   6.368 -0.2399 -0.4805 -0.4391
  347MOL0     C46736   3.466   4.671   6.422  0.2786  0.3813  0.1869
  347MOL0     C46737   3.576   4.687   6.336 -0.0847 -0.6885  0.3086
  347MOL0     C46738   3.550   4.697   6.198 -0.6636 -0.3263 -0.0599
  347MOL0     C46739   3.665   4.711   6.104 -0.3821 -0.2261 -0.3904
  347MOL0     O46740   3.773   4.793   6.140 -0.1253  0.2450  0.5224
  347MOL0     C46741   3.893   4.767   6.083 -0.1018 -0.2067  0.5430
  347MOL0     C46742   3.957   4.876   6.026  0.0024  0.4234  0.2376
  347MOL0     C46743   4.088   4.870   5.972  0.0468 -0.4854 -0.6994
  347MOL0     C46744   4.158   4.747   5.974  0.4528 -0.2556 -0.6715
  347MOL0     O46745   4.283   4.730   5.939 -0.0393  0.1596 -0.8162
  347MOL0     C46746   4.362   4.844   5.901  0.4785  0.0941  0.8118
  347MOL0     C46747   4.489   4.800   5.832 -0.4273 -0.1617 -0.7699
  347MOL0     C46748   4.588   4.919   5.836  0.1235  0.1358 -0.4110
  347MOL0     C46749   4.722   4.880   5.764  0.2273  0.6273 -0.4909
  347MOL0     C46750   4.787   5.002   5.712 -0.7862  0.6616  0.1924
  347MOL0     C46751   4.924   4.980   5.648  0.2760 -0.1496 -0.5355
  347MOL0     C46752   5.007   5.114   5.623  0.4474  0.0960  0.2540
  347MOL0     C46753   5.117   5.093   5.513  0.9164  0.1820 -0.7626
  347MOL0    Cl46754   5.205   4.942   5.516 -0.4319 -0.0963  0.0885
  347MOL0     C46755   4.091   4.634   6.016 -0.2620 -1.0343  0.7723
  347MOL0     C46756   3.957   4.642   6.076 -0.3404  0.1418 -0.1111
  347MOL0     O46757   3.647   4.667   5.989  0.2180  0.6827 -0.0606
  347MOL0     C46758   3.425   4.679   6.150  0.6117 -0.6201  0.3244
  347MOL0     C46759   3.318   4.662   6.228  0.6523 -1.0803 -0.2822
  347MOL0     N46760   2.839   4.333   6.296  0.6485 -0.5244  0.2130
  347MOL0     N46761   2.725   4.260   6.295 -0.6779 -0.5913  0.3234
  347MOL0     C46762   1.879   3.716   6.108  0.4165  0.4172  0.6280
  347MOL0     C46763   1.769   3.750   6.029 -0.8931 -0.3239  0.5997
  347MOL0     C46764   1.333   3.913   5.960  0.5588 -0.1448 -0.4565
  347MOL0     C46765   1.325   3.865   5.829 -1.2087  0.0995 -0.5839
  347MOL0     C46766   1.215   3.884   5.749  0.1382 -0.3144  0.0554
  347MOL0     C46767   1.107   3.957   5.794  0.2461 -0.6513 -0.2856
  347MOL0     O46768   0.995   3.996   5.728 -0.0246  0.0291  0.3486
  347MOL0     C46769   0.982   3.931   5.598  0.5776  0.3163  0.1567
  347MOL0     C46770   0.844   3.970   5.538  0.2072  0.6059  1.2220
  347MOL0     C46771   0.839   4.119   5.506 -0.6805  0.1381 -0.3382
  347MOL0     C46772   0.759   4.153   5.383  0.5770 -0.2788 -0.3803
  347MOL0     C46773   0.621   4.098   5.389 -0.5196  0.6451  0.0909
  347MOL0     C46774   0.503   4.065   5.395  0.2484  0.3756  0.7251
  347MOL0     C46775   1.107   4.006   5.927 -0.1624 -0.0846 -0.8520
  347MOL0     C46776   1.215   3.980   6.013  0.4647 -0.0814  0.1348
  347MOL0     C46777   1.200   4.010   6.154  0.5119 -0.5373  0.2838
  347MOL0     H46778   1.528   3.676   6.244 -0.1214  0.7148  0.2634
  347MOL0     H46779   1.719   3.632   6.391 -0.7084  0.3787  0.1703
  347MOL0     H46780   1.925   3.800   6.471 -2.5057 -0.8576  3.4490
  347MOL0     H46781   1.894   3.632   6.510  2.7213 -3.7000  0.0604
  347MOL0     H46782   2.133   3.595   6.540 -2.5051 -0.2817 -1.4046
  347MOL0     H46783   2.083   3.732   6.640 -0.1329  1.3613 -0.3037
  347MOL0     H46784   2.159   3.870   6.429 -3.0213  0.1904  2.9751
  347MOL0     H46785   2.237   3.732   6.363 -1.5363  5.0754 -2.0841
  347MOL0     H46786   2.319   3.826   6.637  2.1827  1.7879 -0.6033
  347MOL0     H46787   2.365   3.678   6.560 -2.8747  0.1746  1.4482
  347MOL0     H46788   2.533   3.829   6.523 -1.0570  1.6704  1.4916
  347MOL0     H46789   2.446   3.841   6.365  1.1894  0.9396 -0.1880
  347MOL0     H46790   2.324   4.040   6.450  0.1698 -0.5290 -0.4320
  347MOL0     H46791   2.413   4.034   6.602  0.3053  0.8893  0.3032
  347MOL0     H46792   2.532   4.056   6.326 -1.9085 -4.2991  1.0355
  347MOL0     H46793   2.631   4.049   6.474 -0.1079 -0.1944  1.8185
  347MOL0     H46794   2.436   4.277   6.407  1.3911  1.5468 -3.0315
  347MOL0     H46795   2.536   4.250   6.556  0.2584 -0.1820 -0.4645
  347MOL0     H46796   2.678   4.455   6.545 -0.3319 -2.0757  0.6292
  347MOL0     H46797   2.987   4.565   6.379  1.7626 -1.6258 -1.6378
  347MOL0     H46798   2.878   4.592   6.516 -3.1719 -2.3227 -0.3840
  347MOL0     H46799   2.986   4.378   6.629  0.8717  0.7681  2.4384
  347MOL0     H46800   3.110   4.390   6.497  0.7647  0.3751  1.8697
  347MOL0     H46801   3.135   4.507   6.743 -0.2694 -1.9848 -0.9857
  347MOL0     H46802   3.050   4.635   6.651 -1.3511 -1.0832 -1.3830
  347MOL0     H46803   3.309   4.497   6.572 -0.0304 -1.3885  0.0507
  347MOL0     H46804   3.306   4.655   6.639  3.1028 -0.3766 -3.1575
  347MOL0     H46805   3.499   4.668   6.526  4.4463  1.2094 -0.9183
  347MOL0     H46806   3.679   4.707   6.367  0.7753  0.2064 -2.7037
  347MOL0     H46807   3.900   4.969   6.024  0.8381  0.9329 -0.1518
  347MOL0     H46808   4.118   4.965   5.929  0.1951 -0.9959 -1.7529
  347MOL0     H46809   4.313   4.914   5.833 -1.1337 -0.0414  1.7859
  347MOL0     H46810   4.386   4.896   5.994  0.9053  0.8272  0.3010
  347MOL0     H46811   4.540   4.717   5.882  2.0413  1.3383 -0.6067
  347MOL0     H46812   4.468   4.774   5.728 -0.4144  0.9788 -1.0725
  347MOL0     H46813   4.542   5.003   5.783  2.1822  0.9215 -1.0649
  347MOL0     H46814   4.614   4.946   5.938 -2.3218  0.1581  0.2720
  347MOL0     H46815   4.697   4.802   5.692  1.7598 -1.0674  0.7294
  347MOL0     H46816   4.796   4.842   5.835  1.9551  3.0724 -0.8742
  347MOL0     H46817   4.812   5.065   5.798 -1.6268  2.3491 -0.7400
  347MOL0     H46818   4.721   5.055   5.643  0.6098  1.8238 -0.3225
  347MOL0     H46819   4.984   4.914   5.712 -1.1755  0.5603  1.6522
  347MOL0     H46820   4.911   4.931   5.551  0.2574  0.9043 -1.0771
  347MOL0     H46821   5.055   5.147   5.715 -0.3570  1.4847  0.2069
  347MOL0     H46822   4.937   5.189   5.584  1.2867  0.1732 -1.1697
  347MOL0     H46823   5.053   5.093   5.425  0.0365 -0.4147 -0.1453
  347MOL0     H46824   5.181   5.181   5.507 -0.1998  1.1287  0.4172
  347MOL0     H46825   4.134   4.534   6.018  2.3675 -0.0015  0.5284
  347MOL0     H46826   3.911   4.563   6.135 -0.4108 -1.4120 -2.1367
  347MOL0     H46827   3.407   4.673   6.043 -1.1264  3.3909  0.2244
  347MOL0     H46828   3.216   4.649   6.193  0.8446 -0.6040 -1.0402
  347MOL0     H46829   1.977   3.714   6.063 -0.4001 -0.8945 -1.2350
  347MOL0     H46830   1.789   3.783   5.928 -0.4161 -0.8063  0.5317
  347MOL0     H46831   1.406   3.801   5.796 -2.9881 -1.1952 -2.6880
  347MOL0     H46832   1.210   3.836   5.652  0.3157 -0.5416  0.1576
  347MOL0     H46833   0.993   3.823   5.614  1.5957  0.6282  1.8828
  347MOL0     H46834   1.060   3.972   5.533  2.2572  1.1426  2.5416
  347MOL0     H46835   0.767   3.953   5.615  0.5454 -2.9893  0.9358
  347MOL0     H46836   0.826   3.903   5.454  1.4112  0.9083  0.7084
  347MOL0     H46837   0.943   4.151   5.495 -0.0929 -2.3553 -3.2936
  347MOL0     H46838   0.792   4.176   5.587 -1.4617  1.1342 -1.4595
  347MOL0     H46839   0.759   4.261   5.369  0.9999 -0.3885 -1.3371
  347MOL0     H46840   0.811   4.110   5.296 -0.5828  0.5799 -1.5212
  347MOL0     H46841   0.397   4.053   5.384  0.4267  0.1223 -0.8738
  347MOL0     H46842   1.021   4.059   5.966  0.5483  0.4057  0.0992
  347MOL0     H46843   1.225   3.920   6.211  1.1740 -1.0351 -0.7535
  347MOL0     H46844   1.268   4.094   6.173 -0.7458  0.8336 -1.0276
  347MOL0     H46845   1.111   4.058   6.194  2.1259  2.9338  0.0765
  348MOL0     O46846   1.326   4.394   6.102  0.0169  0.9003 -0.0055
  348MOL0     C46847   1.305   4.369   5.982 -0.1109  0.0752 -0.3189
  348MOL0     O46848   1.393   4.365   5.883  1.2170 -0.2996 -0.6699
  348MOL0     C46849   1.519   4.411   5.907 -0.6145  0.0285  0.3778
  348MOL0     C46850   1.609   4.350   5.995 -0.3265  0.1691 -0.5153
  348MOL0     C46851   1.737   4.403   6.002  0.5758  0.4571 -0.6881
  348MOL0     C46852   1.789   4.506   5.933 -0.1997  0.5778  0.0664
  348MOL0     O46853   1.913   4.555   5.955 -0.2866 -0.0401 -0.3154
  348MOL0     C46854   1.981   4.599   5.838  0.9960 -0.3332  0.0839
  348MOL0     C46855   2.008   4.473   5.741  0.0626 -0.2937 -0.5593
  348MOL0     C46856   2.095   4.511   5.625 -0.9673 -0.1788  0.5166
  348MOL0     C46857   2.216   4.419   5.596 -0.1732  0.3726  0.0653
  348MOL0     C46858   2.292   4.468   5.475  0.8062 -0.4368  0.1932
  348MOL0     C46859   2.360   4.603   5.478 -0.0223  0.3212 -0.9285
  348MOL0     C46860   2.471   4.614   5.588 -0.0285 -0.0522 -0.8231
  348MOL0     C46861   2.532   4.739   5.577 -0.6792 -0.2897 -0.3037
  348MOL0     N46862   2.646   4.731   5.487 -1.4620 -0.6148  0.3161
  348MOL0     C46863   2.781   4.703   5.511 -0.8295 -0.2172 -0.2958
  348MOL0     C46864   2.843   4.716   5.391 -0.5906  0.5941  0.0146
  348MOL0     C46865   2.994   4.695   5.373  0.3441 -0.0603  0.1647
  348MOL0     C46866   3.014   4.549   5.332 -0.3358 -0.1077 -0.1594
  348MOL0     C46867   3.167   4.508   5.340  0.3652  0.2990  0.1125
  348MOL0     C46868   3.188   4.366   5.280 -0.3555  0.2131 -0.8305
  348MOL0     O46869   3.319   4.315   5.298  0.4627 -0.2637 -0.2168
  348MOL0     C46870   3.374   4.318   5.427 -0.0296  0.1079 -0.3028
  348MOL0     C46871   3.513   4.340   5.433  0.5915  0.0036  0.0795
  348MOL0     C46872   3.587   4.345   5.552 -0.7715  0.8690  1.2773
  348MOL0     C46873   3.524   4.313   5.675 -0.1425  0.7987 -0.3660
  348MOL0     C46874   3.592   4.308   5.801 -1.3081  0.6148  0.7506
  348MOL0     O46875   3.535   4.250   5.913 -0.4081 -0.2110 -0.0755
  348MOL0     C46876   3.621   4.232   6.020  0.0342 -0.7386  0.7039
  348MOL0     C46877   3.677   4.109   6.047 -0.4773 -0.4937 -0.2137
  348MOL0     C46878   3.765   4.095   6.158  0.3862  0.2221  0.2584
  348MOL0     C46879   3.797   4.201   6.244 -0.5262  0.3842 -0.8742
  348MOL0     O46880   3.900   4.199   6.341  0.0810 -0.5266  1.0608
  348MOL0     C46881   3.961   4.074   6.375 -0.0303 -0.1337 -1.0650
  348MOL0     C46882   4.081   4.120   6.456  0.4371  0.0574  0.2737
  348MOL0     C46883   4.159   4.000   6.511 -0.4001 -0.6634 -0.3651
  348MOL0     C46884   4.279   4.046   6.601 -0.2402  0.3499 -0.2860
  348MOL0     C46885   4.379   3.937   6.621  0.4724  0.1432 -0.7510
  348MOL0     C46886   4.490   3.972   6.717 -0.1459 -0.6466 -0.3354
  348MOL0     C46887   4.591   3.856   6.727  0.1442  0.0844  0.2096
  348MOL0     C46888   4.712   3.899   6.821  0.4762 -0.2778 -0.2986
  348MOL0    Cl46889   4.650   3.900   6.997  0.1671 -0.0935 -0.5112
  348MOL0     C46890   3.742   4.326   6.218 -0.9378  0.5093 -0.6022
  348MOL0     C46891   3.660   4.344   6.104  0.9655 -0.3200  0.0803
  348MOL0     O46892   3.706   4.358   5.800  0.3663  0.3951 -0.0893
  348MOL0     C46893   3.386   4.294   5.670  0.4723  0.5958  0.3911
  348MOL0     C46894   3.307   4.295   5.551  0.1658 -0.2705 -0.0953
  348MOL0     N46895   2.749   4.749   5.297 -0.3508 -0.4816 -0.6773
  348MOL0     N46896   2.640   4.762   5.355  0.9325 -0.8218  0.1560
  348MOL0     C46897   1.704   4.565   5.838  0.2902  0.8606  0.5048
  348MOL0     C46898   1.568   4.515   5.827  0.5060 -0.3421 -0.0302
  348MOL0     C46899   1.161   4.356   5.946  0.0657  0.8870  0.1963
  348MOL0     C46900   1.071   4.335   6.046  0.4828 -0.1946  0.3142
  348MOL0     C46901   0.931   4.329   6.030  0.4825 -0.6236 -0.7299
  348MOL0     C46902   0.873   4.338   5.905  0.5627  0.5496  0.2771
  348MOL0     O46903   0.739   4.311   5.872  0.1611 -0.6308 -0.2473
  348MOL0     C46904   0.650   4.297   5.978 -0.0116  0.4915 -0.6012
  348MOL0     C46905   0.570   4.167   5.948  0.4120  0.6287 -0.6796
  348MOL0     C46906   0.504   4.175   5.816  0.1587  1.0049  0.3193
  348MOL0     C46907   0.438   4.046   5.778  0.0654  0.1855 -0.1750
  348MOL0     C46908   0.317   4.034   5.863 -0.7062 -0.2635  0.5863
  348MOL0     C46909   0.218   4.019   5.923  1.2626 -0.0675 -0.3827
  348MOL0     C46910   0.960   4.353   5.800  0.1980 -0.6064  0.2835
  348MOL0     C46911   1.099   4.374   5.820  0.9160  0.4512 -0.1937
  348MOL0     C46912   1.186   4.392   5.693  0.2063  0.6025  0.3290
  348MOL0     H46913   1.584   4.256   6.043  0.1948  0.8020  1.0486
  348MOL0     H46914   1.801   4.357   6.077 -1.2216 -0.6378  0.2571
  348MOL0     H46915   1.931   4.684   5.791 -2.3912 -0.7972  2.4554
  348MOL0     H46916   2.079   4.638   5.866  0.2337  1.1571  0.7452
  348MOL0     H46917   1.917   4.431   5.699  0.7242 -1.1993 -1.1176
  348MOL0     H46918   2.060   4.390   5.790 -1.0481 -2.0432 -2.2140
  348MOL0     H46919   2.132   4.613   5.639  0.7398 -0.7415  0.2458
  348MOL0     H46920   2.041   4.511   5.529  1.3873  0.8374 -0.9103
  348MOL0     H46921   2.281   4.427   5.684 -1.7154 -0.6310  1.3639
  348MOL0     H46922   2.190   4.314   5.578  2.5571 -0.3753 -0.0114
  348MOL0     H46923   2.371   4.396   5.451  1.0459  0.2408 -1.1822
  348MOL0     H46924   2.228   4.471   5.386 -2.5251 -3.1084  2.2536
  348MOL0     H46925   2.409   4.623   5.382  1.4008 -0.6359 -0.4389
  348MOL0     H46926   2.291   4.683   5.505  1.6112  1.1762  0.9787
  348MOL0     H46927   2.546   4.535   5.591  0.0589  0.0185 -1.0600
  348MOL0     H46928   2.423   4.610   5.686  3.4991 -1.5862  1.0075
  348MOL0     H46929   2.465   4.821   5.550  0.3276  0.3582 -0.8803
  348MOL0     H46930   2.576   4.760   5.675  0.1049 -0.3466 -0.6369
  348MOL0     H46931   2.833   4.676   5.602 -0.8398 -0.5136 -0.3772
  348MOL0     H46932   3.037   4.763   5.300  0.7864 -0.8198 -0.2995
  348MOL0     H46933   3.047   4.696   5.469  2.8814 -1.3285 -1.0985
  348MOL0     H46934   2.955   4.496   5.407 -3.0813  0.9344 -1.4522
  348MOL0     H46935   2.968   4.535   5.233 -0.5799  0.4869 -0.1290
  348MOL0     H46936   3.203   4.515   5.443 -0.6091 -0.2420  0.5046
  348MOL0     H46937   3.222   4.584   5.283  1.8759  0.4875  1.7516
  348MOL0     H46938   3.170   4.367   5.172 -2.3420 -1.0785 -0.5672
  348MOL0     H46939   3.112   4.296   5.317 -0.3948 -0.7226 -2.5977
  348MOL0     H46940   3.562   4.355   5.337 -1.0517 -0.1156 -0.7994
  348MOL0     H46941   3.692   4.370   5.547 -0.5066 -0.3128  0.0002
  348MOL0     H46942   3.642   4.018   5.998 -4.2392 -0.0031  1.1816
  348MOL0     H46943   3.807   3.995   6.154 -2.0852 -0.8263 -1.5502
  348MOL0     H46944   3.888   4.018   6.434  0.6369 -0.8386 -0.8987
  348MOL0     H46945   4.001   4.026   6.286  3.9559  1.3215 -0.2839
  348MOL0     H46946   4.155   4.164   6.389 -1.6888  0.6629 -1.8113
  348MOL0     H46947   4.044   4.176   6.542 -0.9099 -0.2022 -0.1251
  348MOL0     H46948   4.098   3.928   6.566 -0.7967 -1.7808 -2.1967
  348MOL0     H46949   4.200   3.958   6.419  2.2957 -4.0385  2.1056
  348MOL0     H46950   4.248   4.076   6.701  2.2281 -0.0925  0.6708
  348MOL0     H46951   4.316   4.135   6.548  1.2289 -0.4871 -0.7173
  348MOL0     H46952   4.423   3.888   6.533  0.6005 -2.3208  0.6065
  348MOL0     H46953   4.325   3.854   6.667  1.6568  0.2194  0.8705
  348MOL0     H46954   4.548   4.054   6.676  1.0703 -0.8703  0.8796
  348MOL0     H46955   4.457   4.004   6.817 -0.3840 -0.0363 -0.6008
  348MOL0     H46956   4.631   3.827   6.629  1.2166  1.4863  0.1956
  348MOL0     H46957   4.546   3.765   6.767 -2.2620  0.9532 -0.3416
  348MOL0     H46958   4.785   3.818   6.825 -0.6261 -1.2658  1.3121
  348MOL0     H46959   4.757   3.994   6.792  0.2397 -0.0372  0.0991
  348MOL0     H46960   3.779   4.402   6.286  0.1029 -2.3059  2.2104
  348MOL0     H46961   3.621   4.442   6.080  2.4200  0.3618  0.3870
  348MOL0     H46962   3.334   4.268   5.762 -2.8697  0.9632 -1.2440
  348MOL0     H46963   3.200   4.280   5.556 -0.1955  1.8823 -0.4200
  348MOL0     H46964   1.726   4.657   5.784  0.8368  0.0249 -0.7429
  348MOL0     H46965   1.493   4.560   5.763 -0.2389  0.8173  1.5807
  348MOL0     H46966   1.097   4.330   6.151  0.4557  0.6079  0.3677
  348MOL0     H46967   0.876   4.329   6.124 -0.7959  3.2831 -1.3225
  348MOL0     H46968   0.575   4.376   5.975 -2.2768 -1.4903  0.7500
  348MOL0     H46969   0.691   4.289   6.079  0.0195 -1.4752 -0.7392
  348MOL0     H46970   0.501   4.161   6.033  1.4895  2.3451  0.3852
  348MOL0     H46971   0.638   4.083   5.964 -2.7594 -1.6630  2.3015
  348MOL0     H46972   0.581   4.186   5.739  2.9947 -0.4682  2.7056
  348MOL0     H46973   0.435   4.260   5.809 -1.7077 -0.5359 -0.8087
  348MOL0     H46974   0.395   4.054   5.678  0.3047 -0.5900 -0.3525
  348MOL0     H46975   0.494   3.952   5.785 -1.3748 -0.5837  2.0707
  348MOL0     H46976   0.127   4.011   5.979  1.9839 -1.2254  0.6868
  348MOL0     H46977   0.924   4.370   5.699  0.1327  2.0396  0.6734
  348MOL0     H46978   1.229   4.295   5.667 -3.0166 -1.0048  0.5913
  348MOL0     H46979   1.121   4.419   5.609  2.1410  2.4678 -0.7026
  348MOL0     H46980   1.256   4.477   5.696 -0.3502  1.1005 -0.4337
  349MOL0     O46981   4.849   4.463   8.527  0.2158  0.0140 -0.6162
  349MOL0     C46982   4.732   4.480   8.495  0.7721  0.0752  0.3391
  349MOL0     O46983   4.692   4.550   8.386 -0.3944 -1.5348 -0.0115
  349MOL0     C46984   4.795   4.619   8.317 -0.5084  0.4324  0.5420
  349MOL0     C46985   4.808   4.606   8.179  0.0724  0.7242 -0.3299
  349MOL0     C46986   4.902   4.674   8.105  0.0798 -0.1961  0.4782
  349MOL0     C46987   4.991   4.769   8.167 -0.4758 -0.4434  0.9147
  349MOL0     O46988   5.084   4.831   8.080  0.7973  0.0203 -0.3403
  349MOL0     C46989   5.190   4.908   8.147 -0.4774 -0.1525 -0.3820
  349MOL0     C46990   5.287   4.964   8.040 -0.2446 -0.6562 -0.8757
  349MOL0     C46991   5.431   5.000   8.093  0.2568  0.5838 -0.2469
  349MOL0     C46992   5.493   5.099   8.000  0.5489  0.3489 -0.2333
  349MOL0     C46993   5.628   5.128   8.051  0.0128  0.0053  0.0127
  349MOL0     C46994   5.730   5.016   8.043  0.1586  0.2969  0.4990
  349MOL0     C46995   5.876   5.052   8.070 -0.3054  0.9451  0.7081
  349MOL0     C46996   5.947   4.913   8.054  0.0205  0.3157 -0.0649
  349MOL0     N46997   6.080   4.902   8.119  0.4853  0.8354 -0.2642
  349MOL0     C46998   6.203   4.942   8.072  0.0989  0.2213 -0.5775
  349MOL0     C46999   6.285   4.937   8.190 -0.3265  0.7553 -0.0226
  349MOL0     C47000   6.439   4.955   8.203  0.3118 -0.2030 -0.1341
  349MOL0     C47001   6.472   5.094   8.264  0.1228  0.5030 -0.8264
  349MOL0     C47002   6.621   5.098   8.286 -0.3292  0.3600  1.0673
  349MOL0     C47003   6.673   5.202   8.374  0.6085 -0.2407 -0.8994
  349MOL0     O47004   6.814   5.223   8.369 -0.4639  0.2221 -0.0234
  349MOL0     C47005   6.879   5.334   8.427  0.7882 -1.1310  0.0647
  349MOL0     C47006   6.820   5.432   8.509 -0.1699 -0.1553  0.0815
  349MOL0     C47007   6.894   5.543   8.541 -0.3775 -0.1311 -0.7026
  349MOL0     C47008   7.029   5.553   8.506  0.2818  0.4651 -0.3565
  349MOL0     C47009   7.105   5.677   8.539  0.0072  0.3531 -0.9880
  349MOL0     O47010   7.216   5.691   8.477  0.0451 -0.2690  0.1021
  349MOL0     C47011   7.309   5.791   8.484  0.3663  0.1320 -1.2425
  349MOL0     C47012   7.345   5.862   8.604 -0.0001 -0.5151 -0.0359
  349MOL0     C47013   7.445   5.955   8.604  0.1446 -0.3179  0.3874
  349MOL0     C47014   7.529   5.976   8.490  0.6844 -0.0152  0.7640
  349MOL0     O47015   7.617   6.081   8.494 -0.3292 -0.0601  0.2474
  349MOL0     C47016   7.714   6.097   8.383  0.6735 -0.0646 -0.5376
  349MOL0     C47017   7.813   6.206   8.425  0.0836 -0.0593 -0.9930
  349MOL0     C47018   7.913   6.225   8.302  0.7047 -0.0814  0.4456
  349MOL0     C47019   7.927   6.370   8.257  0.1274 -0.8781  0.0121
  349MOL0     C47020   8.047   6.439   8.320 -0.7448 -0.3324  0.1316
  349MOL0     C47021   8.067   6.588   8.279  0.6690  0.1950  1.1211
  349MOL0     C47022   8.213   6.628   8.319  0.0777  0.0431 -0.4854
  349MOL0     C47023   8.245   6.775   8.287  0.5523 -0.4806  0.1357
  349MOL0    Cl47024   8.141   6.891   8.385  0.4810  0.1945 -0.0010
  349MOL0     C47025   7.503   5.895   8.375 -0.2604 -0.2538  0.1736
  349MOL0     C47026   7.397   5.806   8.380  0.0615  0.4662  0.2650
  349MOL0     O47027   7.046   5.760   8.602 -0.3911 -0.2152  0.0364
  349MOL0     C47028   7.092   5.452   8.428  0.7440  0.6692 -0.1731
  349MOL0     C47029   7.008   5.346   8.387 -0.7601  0.2899 -0.6276
  349MOL0     N47030   6.204   4.896   8.297 -0.4744  0.5124 -0.1929
  349MOL0     N47031   6.087   4.878   8.255  0.2538 -0.0957 -0.0990
  349MOL0     C47032   4.979   4.785   8.306  0.8184 -0.0980 -0.4260
  349MOL0     C47033   4.888   4.706   8.376 -0.0149  0.4713 -0.1758
  349MOL0     C47034   4.615   4.430   8.572 -1.4568  1.0298  0.2591
  349MOL0     C47035   4.492   4.450   8.532  1.0149  0.2857  0.5290
  349MOL0     C47036   4.375   4.405   8.600 -0.2560  0.0523 -0.5616
  349MOL0     C47037   4.390   4.341   8.718  0.4738 -0.2582 -0.0419
  349MOL0     O47038   4.280   4.307   8.795  0.0472  0.1969 -0.0601
  349MOL0     C47039   4.142   4.325   8.756 -0.3731 -1.3611 -0.0346
  349MOL0     C47040   4.044   4.297   8.872  0.8657 -0.7280 -0.2504
  349MOL0     C47041   3.896   4.345   8.836  1.1924  0.2445 -0.6190
  349MOL0     C47042   3.834   4.255   8.730 -0.3689 -0.9443 -0.3682
  349MOL0     C47043   3.687   4.271   8.726  0.8633  0.2705  0.2003
  349MOL0     C47044   3.563   4.263   8.721 -0.1325  0.0518 -0.2616
  349MOL0     C47045   4.517   4.309   8.766 -0.6672 -0.2584  0.6073
  349MOL0     C47046   4.633   4.362   8.695  0.7174 -0.5260  0.1313
  349MOL0     C47047   4.758   4.327   8.764 -1.1369 -0.3106  1.1922
  349MOL0     H47048   4.730   4.550   8.130 -2.0624  1.0280  2.4816
  349MOL0     H47049   4.906   4.653   7.999 -0.0337 -3.6589  1.0699
  349MOL0     H47050   5.167   4.984   8.222 -0.8392 -0.9028  0.2961
  349MOL0     H47051   5.250   4.830   8.194 -0.9070 -1.7021 -2.2849
  349MOL0     H47052   5.248   5.053   7.990  3.8775  1.5750 -0.5991
  349MOL0     H47053   5.301   4.884   7.966  2.8076 -3.4470  2.3959
  349MOL0     H47054   5.492   4.910   8.105 -0.9795 -0.3371 -0.6818
  349MOL0     H47055   5.435   5.037   8.196 -1.0313  2.2496 -0.7484
  349MOL0     H47056   5.497   5.056   7.899  0.2947  2.5457 -1.2387
  349MOL0     H47057   5.433   5.191   7.998  2.2382  1.4891 -0.6152
  349MOL0     H47058   5.661   5.209   7.986 -2.3633  0.1508 -1.1178
  349MOL0     H47059   5.622   5.179   8.148 -1.1112  0.1740 -0.1248
  349MOL0     H47060   5.694   4.941   8.114 -2.2969  0.6783 -0.2614
  349MOL0     H47061   5.720   4.981   7.940  1.2147 -1.4097  0.9407
  349MOL0     H47062   5.887   5.095   8.170 -1.8729  1.0090  0.8738
  349MOL0     H47063   5.911   5.123   7.994 -2.9620 -1.6399 -3.3159
  349MOL0     H47064   5.880   4.837   8.094 -0.2555  1.8849  2.7057
  349MOL0     H47065   5.961   4.886   7.949 -1.8175 -1.6507  0.1355
  349MOL0     H47066   6.235   4.971   7.973  1.7158  0.9026  0.1048
  349MOL0     H47067   6.486   4.873   8.256 -3.5824 -2.0020  0.8856
  349MOL0     H47068   6.482   4.956   8.103  1.1841 -0.9710  0.2235
  349MOL0     H47069   6.439   5.170   8.192 -2.9888  0.4925  0.4787
  349MOL0     H47070   6.415   5.101   8.357 -1.5591  1.1439 -1.8597
  349MOL0     H47071   6.658   5.111   8.183 -0.4667  2.2424  1.2129
  349MOL0     H47072   6.657   5.002   8.324 -1.8195 -0.6864 -0.0389
  349MOL0     H47073   6.636   5.193   8.477  1.9170  1.6063 -0.2193
  349MOL0     H47074   6.618   5.292   8.345 -1.1976 -1.2801 -0.8663
  349MOL0     H47075   6.719   5.419   8.547 -0.4927  0.9539 -0.3686
  349MOL0     H47076   6.844   5.620   8.599  0.8224  0.9443 -1.0754
  349MOL0     H47077   7.288   5.852   8.696 -0.0263  0.4597  0.0649
  349MOL0     H47078   7.464   6.024   8.685  3.7284 -0.7324  0.0793
  349MOL0     H47079   7.776   6.008   8.367  1.8889  0.2951  1.7884
  349MOL0     H47080   7.650   6.123   8.298 -2.5478  0.5176  1.8871
  349MOL0     H47081   7.756   6.293   8.459  0.5984 -0.2914  0.5218
  349MOL0     H47082   7.854   6.170   8.520 -2.2153  1.9930  0.9353
  349MOL0     H47083   8.010   6.178   8.319  0.5214  0.0593  2.0587
  349MOL0     H47084   7.858   6.173   8.223  1.7268 -2.1787  1.0478
  349MOL0     H47085   7.832   6.423   8.276 -0.2307 -2.1825  2.2850
  349MOL0     H47086   7.951   6.382   8.151  4.9141  1.5900  1.0857
  349MOL0     H47087   8.142   6.389   8.296 -0.8780 -0.1446 -0.7943
  349MOL0     H47088   8.039   6.425   8.429 -0.8281 -1.9815 -0.0583
  349MOL0     H47089   8.057   6.600   8.171 -2.7593 -0.3311  1.2883
  349MOL0     H47090   7.982   6.640   8.324 -1.3388 -1.2538 -0.7808
  349MOL0     H47091   8.286   6.559   8.276 -0.8006 -0.4482 -1.2101
  349MOL0     H47092   8.216   6.613   8.427  2.0477 -0.1372 -0.5263
  349MOL0     H47093   8.350   6.803   8.302  0.7979 -0.8121 -0.8554
  349MOL0     H47094   8.222   6.793   8.181  2.4991  0.8797 -0.1126
  349MOL0     H47095   7.564   5.902   8.286  0.9163 -2.1010  0.7835
  349MOL0     H47096   7.372   5.744   8.295 -1.0818 -1.0995  1.6945
  349MOL0     H47097   7.194   5.462   8.393  0.6224 -1.1121 -1.1583
  349MOL0     H47098   7.030   5.267   8.315 -2.5503 -1.1283  0.2928
  349MOL0     H47099   5.037   4.854   8.367  1.4651 -1.0137  0.0206
  349MOL0     H47100   4.880   4.723   8.483 -0.7072 -0.0226 -0.1344
  349MOL0     H47101   4.469   4.494   8.435 -2.5712 -0.6965  0.8145
  349MOL0     H47102   4.281   4.431   8.553 -2.2115 -2.7708  1.4171
  349MOL0     H47103   4.116   4.256   8.675  0.0900  0.9464 -2.2799
  349MOL0     H47104   4.131   4.429   8.724  1.0601 -1.6734 -1.7180
  349MOL0     H47105   4.076   4.350   8.962 -0.8933 -0.8847  0.5124
  349MOL0     H47106   4.056   4.190   8.893 -1.1031 -0.4829  2.6732
  349MOL0     H47107   3.885   4.445   8.793 -2.4590  0.0422 -0.4340
  349MOL0     H47108   3.837   4.343   8.929  0.6703 -1.4338 -0.9549
  349MOL0     H47109   3.880   4.289   8.636  1.5598 -0.4984  0.7005
  349MOL0     H47110   3.854   4.151   8.755  3.3894  0.1536  1.9558
  349MOL0     H47111   3.457   4.245   8.714 -0.0547  0.1551 -2.3769
  349MOL0     H47112   4.517   4.261   8.863 -1.7931 -2.2870 -0.3325
  349MOL0     H47113   4.835   4.287   8.697 -0.5685  3.0185 -0.3434
  349MOL0     H47114   4.797   4.414   8.818  2.3186  0.6540 -2.3862
  349MOL0     H47115   4.747   4.250   8.841  1.2882 -1.3209  0.6097
  350MOL0     O47116   9.648   7.870   1.534  0.8126 -0.3112  0.3946
  350MOL0     C47117   9.647   7.944   1.630 -0.3529 -0.4805  0.6515
  350MOL0     O47118   9.758   8.015   1.656  0.3505 -0.4342  0.4513
  350MOL0     C47119   9.866   8.006   1.572  0.2762  0.5791  0.5380
  350MOL0     C47120   9.988   7.969   1.628 -0.1701 -0.0142  0.0351
  350MOL0     C47121  10.099   7.990   1.544  0.6404 -0.2277  0.4142
  350MOL0     C47122  10.093   8.039   1.405 -0.4702  0.0664 -1.2233
  350MOL0     O47123  10.206   8.045   1.332  0.0945 -0.1443 -0.4278
  350MOL0     C47124  10.199   8.107   1.203  0.2321  0.8234 -0.4157
  350MOL0     C47125  10.344   8.137   1.171 -0.3937 -0.5854  0.5408
  350MOL0     C47126  10.433   8.008   1.136 -0.3273  0.2105  0.1294
  350MOL0     C47127  10.388   7.923   1.016 -0.2892  0.0820  0.2247
  350MOL0     C47128  10.512   7.854   0.955 -0.2795  0.8993  0.3835
  350MOL0     C47129  10.565   7.750   1.059  0.3369  0.4097  0.5690
  350MOL0     C47130  10.647   7.631   0.993  0.1210 -0.0925 -0.3380
  350MOL0     C47131  10.704   7.547   1.113  0.3227 -0.4557  0.1319
  350MOL0     N47132  10.803   7.447   1.063  0.0157  0.2925 -1.0083
  350MOL0     C47133  10.937   7.468   1.043  0.4717 -0.1218 -0.3608
  350MOL0     C47134  10.983   7.349   1.012  0.0836  0.2752  0.0941
  350MOL0     C47135  11.126   7.319   0.978 -0.4017 -0.2985  0.0302
  350MOL0     C47136  11.133   7.190   0.904 -0.1130 -0.1281  0.2720
  350MOL0     C47137  11.276   7.136   0.908 -0.2567 -0.3312  0.1465
  350MOL0     C47138  11.387   7.223   0.853  0.7684 -0.4739 -0.4868
  350MOL0     O47139  11.506   7.144   0.891  0.8677 -0.3073  0.4301
  350MOL0     C47140  11.635   7.194   0.874  1.2389  0.2894 -0.9917
  350MOL0     C47141  11.654   7.314   0.811 -0.2294 -0.0787  0.8313
  350MOL0     C47142  11.788   7.357   0.798 -0.4023 -0.0394 -0.2370
  350MOL0     C47143  11.898   7.276   0.840 -0.7575  0.2395  0.2080
  350MOL0     C47144  12.035   7.307   0.813  0.0221 -0.4290  0.1352
  350MOL0     O47145  12.132   7.214   0.849 -0.0168 -0.5043  0.2719
  350MOL0     C47146  12.257   7.252   0.806  0.6371  0.9856 -0.3467
  350MOL0     C47147  12.341   7.303   0.900  0.0852  1.1715  0.3010
  350MOL0     C47148  12.469   7.339   0.861  0.1083  0.7876 -0.3166
  350MOL0     C47149  12.519   7.307   0.734  0.0424  0.5992  1.0257
  350MOL0     O47150  12.646   7.351   0.697  0.5452 -1.0558 -0.4411
  350MOL0     C47151  12.752   7.370   0.792 -1.2123  0.3882 -0.1587
  350MOL0     C47152  12.887   7.376   0.709 -0.2898 -0.9429  0.2274
  350MOL0     C47153  12.921   7.237   0.654  0.3532  0.1544 -0.3409
  350MOL0     C47154  13.065   7.228   0.608  0.3059 -0.5358  0.2839
  350MOL0     C47155  13.102   7.079   0.582 -0.0131  0.2899 -0.4114
  350MOL0     C47156  13.246   7.059   0.567  0.1082 -0.0239  0.2019
  350MOL0     C47157  13.280   6.909   0.548 -0.4761  0.1953  0.3230
  350MOL0     C47158  13.432   6.903   0.511  0.0972  0.0728  0.9634
  350MOL0    Cl47159  13.448   6.916   0.330 -0.1098 -0.2085 -0.1421
  350MOL0     C47160  12.432   7.251   0.634 -0.8681 -0.3801 -0.4822
  350MOL0     C47161  12.300   7.230   0.678 -0.5577 -0.2384  0.2720
  350MOL0     O47162  12.053   7.410   0.749 -0.4046 -0.9347 -0.4370
  350MOL0     C47163  11.871   7.158   0.905 -0.0103 -0.2059 -1.0552
  350MOL0     C47164  11.740   7.119   0.924 -0.4616 -0.2574  0.3377
  350MOL0     N47165  10.878   7.259   1.019  0.0020  0.2946 -0.2974
  350MOL0     N47166  10.772   7.314   1.062  0.8329 -0.2814  0.7128
  350MOL0     C47167   9.964   8.061   1.361  0.3545 -0.2218  0.0805
  350MOL0     C47168   9.852   8.052   1.443 -0.3487  0.5046 -0.0832
  350MOL0     C47169   9.528   7.948   1.718  0.1739  0.2339 -0.0444
  350MOL0     C47170   9.534   8.024   1.843  1.1311 -0.0122  0.2243
  350MOL0     C47171   9.425   8.031   1.932 -0.2712 -0.0426  0.0987
  350MOL0     C47172   9.306   7.972   1.891  0.2114 -0.0012 -0.3235
  350MOL0     O47173   9.205   7.979   1.983  0.5909 -0.7295  0.1009
  350MOL0     C47174   9.071   7.942   1.952  0.5568  0.1521  0.7523
  350MOL0     C47175   9.057   7.789   1.964 -0.3914 -0.3810  0.3562
  350MOL0     C47176   8.912   7.746   1.953  0.1918 -0.0302  0.5450
  350MOL0     C47177   8.832   7.802   1.829  0.1505  0.2420  0.5204
  350MOL0     C47178   8.693   7.759   1.828 -0.4040  0.2613 -0.5624
  350MOL0     C47179   8.572   7.733   1.818  0.5821  0.1947 -0.0623
  350MOL0     C47180   9.291   7.918   1.762 -0.5287 -0.0115 -0.4266
  350MOL0     C47181   9.399   7.889   1.678 -0.2635 -0.3349  0.6827
  350MOL0     C47182   9.362   7.825   1.550  0.2851  0.2657  0.2390
  350MOL0     H47183   9.990   7.929   1.729  0.1146 -1.5130 -0.5312
  350MOL0     H47184  10.201   7.965   1.572  1.1342 -0.1677 -1.2053
  350MOL0     H47185  10.155   8.032   1.136  1.6125 -2.8310  2.4010
  350MOL0     H47186  10.147   8.203   1.198  0.5863  1.1214  1.2611
  350MOL0     H47187  10.387   8.185   1.259  1.7326 -0.5235 -0.4712
  350MOL0     H47188  10.363   8.213   1.095 -3.3513  2.7705  2.8678
  350MOL0     H47189  10.440   7.941   1.222  1.6550 -0.4140 -0.4703
  350MOL0     H47190  10.533   8.045   1.112  0.0998 -0.8961  0.1478
  350MOL0     H47191  10.314   7.856   1.062  0.3495  0.7910  2.4254
  350MOL0     H47192  10.328   7.985   0.949 -1.8932 -1.5923  0.0142
  350MOL0     H47193  10.494   7.791   0.867 -0.1261  2.2195 -0.6161
  350MOL0     H47194  10.591   7.923   0.925  1.1734 -0.0741  1.7774
  350MOL0     H47195  10.631   7.807   1.125 -1.6945  0.8627  2.3245
  350MOL0     H47196  10.481   7.713   1.118 -0.8479 -1.2611 -1.9637
  350MOL0     H47197  10.721   7.670   0.922 -0.1415 -0.8350 -1.0378
  350MOL0     H47198  10.586   7.565   0.931  0.8665 -2.2324  1.0756
  350MOL0     H47199  10.757   7.618   1.177  0.0496  1.5858 -1.7610
  350MOL0     H47200  10.616   7.504   1.161 -1.7264  0.8312 -2.2194
  350MOL0     H47201  11.001   7.555   1.042  0.5601 -0.1743  0.2081
  350MOL0     H47202  11.176   7.405   0.932  0.0359  0.4973  1.8685
  350MOL0     H47203  11.180   7.314   1.073 -1.2243  0.6738  0.5764
  350MOL0     H47204  11.081   7.111   0.959 -2.1461  1.0411  0.1397
  350MOL0     H47205  11.085   7.199   0.807 -1.5422 -1.8217  0.7737
  350MOL0     H47206  11.292   7.039   0.859  1.8131  0.9850 -2.0233
  350MOL0     H47207  11.302   7.134   1.014  0.5944  0.6118 -0.0256
  350MOL0     H47208  11.387   7.324   0.895  0.8986 -0.3342 -0.8169
  350MOL0     H47209  11.379   7.230   0.744 -2.6298  0.6143 -0.2772
  350MOL0     H47210  11.577   7.381   0.772  1.1492  1.7531  1.0939
  350MOL0     H47211  11.797   7.451   0.745 -2.4077 -0.7205 -1.9238
  350MOL0     H47212  12.306   7.321   1.001 -1.4773  2.6108 -0.4431
  350MOL0     H47213  12.525   7.391   0.938 -1.7359  0.2842  1.4561
  350MOL0     H47214  12.730   7.462   0.845  1.3685  1.8348 -1.4100
  350MOL0     H47215  12.764   7.290   0.865  1.1585  1.0467  0.2516
  350MOL0     H47216  12.885   7.447   0.626  1.8176 -1.0901 -0.0236
  350MOL0     H47217  12.973   7.400   0.773 -1.0208 -0.8063  1.1881
  350MOL0     H47218  12.912   7.173   0.742 -0.7651 -0.5704 -0.9550
  350MOL0     H47219  12.849   7.203   0.579  0.7502 -2.0203  0.1959
  350MOL0     H47220  13.124   7.261   0.695 -1.9635  0.7088  1.4605
  350MOL0     H47221  13.077   7.297   0.524 -0.8343 -1.8472 -0.9919
  350MOL0     H47222  13.058   7.051   0.486 -1.7338 -1.6494  0.8586
  350MOL0     H47223  13.061   7.011   0.657 -2.5014  0.1835 -1.7520
  350MOL0     H47224  13.270   7.125   0.483  0.1442  0.4914  0.6096
  350MOL0     H47225  13.299   7.093   0.657 -1.6953 -2.3742  2.2753
  350MOL0     H47226  13.216   6.866   0.471 -1.2595 -0.4837  1.3259
  350MOL0     H47227  13.260   6.853   0.640 -1.0996  0.4162  0.3243
  350MOL0     H47228  13.495   6.975   0.565 -0.2113  2.0950 -1.1938
  350MOL0     H47229  13.475   6.804   0.530  2.4671  0.6297 -0.9777
  350MOL0     H47230  12.453   7.238   0.528  0.7002  1.9721 -0.5539
  350MOL0     H47231  12.234   7.189   0.603  1.1604 -0.2551 -1.2952
  350MOL0     H47232  11.950   7.092   0.939  0.1729  0.6022  0.1665
  350MOL0     H47233  11.715   7.026   0.975  2.5686 -2.4788 -1.8949
  350MOL0     H47234   9.948   8.088   1.258  2.7483  1.1099 -0.0100
  350MOL0     H47235   9.753   8.079   1.407 -0.0223 -0.0409 -1.4407
  350MOL0     H47236   9.630   8.072   1.860  1.7689 -1.0333 -0.3848
  350MOL0     H47237   9.412   8.081   2.027 -4.2548  0.9813 -0.7933
  350MOL0     H47238   9.038   7.988   1.859  0.4885 -0.1913  0.6046
  350MOL0     H47239   8.992   7.984   2.015 -0.5935  0.4586 -0.8140
  350MOL0     H47240   9.098   7.745   2.055 -0.7901  1.3941  1.4333
  350MOL0     H47241   9.113   7.733   1.887  0.5740  2.3383 -1.0835
  350MOL0     H47242   8.869   7.779   2.048 -2.8839  0.1788 -0.8193
  350MOL0     H47243   8.904   7.637   1.952 -1.8658  0.0991 -0.1550
  350MOL0     H47244   8.831   7.911   1.821 -1.2490  0.2982  1.1568
  350MOL0     H47245   8.879   7.772   1.735 -0.1821 -4.8736  1.6842
  350MOL0     H47246   8.466   7.738   1.807  0.2558 -2.2374  1.2717
  350MOL0     H47247   9.195   7.888   1.722 -0.7262 -1.1269  0.8272
  350MOL0     H47248   9.426   7.754   1.497 -0.4688 -0.5221  0.3439
  350MOL0     H47249   9.270   7.767   1.563  0.9002 -1.1621 -1.3454
  350MOL0     H47250   9.346   7.909   1.482  1.6858 -0.3133 -0.8460
  351MOL0     O47251  11.145  11.228   3.935  0.3557  0.2380 -0.4107
  351MOL0     C47252  11.134  11.285   4.046  0.6616  0.2125  0.2977
  351MOL0     O47253  11.238  11.333   4.127  0.5162 -0.2543  0.8815
  351MOL0     C47254  11.367  11.330   4.081  0.3882  0.5491 -0.1656
  351MOL0     C47255  11.429  11.210   4.027 -0.2762  0.0026  0.3932
  351MOL0     C47256  11.560  11.215   3.980 -0.5508  0.3225 -0.2527
  351MOL0     C47257  11.633  11.337   3.975  0.0639 -0.0277 -0.3882
  351MOL0     O47258  11.756  11.349   3.918  0.1972 -0.2617 -0.0470
  351MOL0     C47259  11.835  11.472   3.902  0.0596  0.4088 -0.1611
  351MOL0     C47260  11.957  11.463   3.819 -0.2878 -1.1708  0.9465
  351MOL0     C47261  12.064  11.371   3.882 -0.9816 -0.3731  0.0091
  351MOL0     C47262  12.142  11.291   3.773  0.2401 -0.6368 -0.4625
  351MOL0     C47263  12.253  11.211   3.845  0.5273  0.0160 -0.0737
  351MOL0     C47264  12.325  11.113   3.756 -0.5388  0.1712  0.2998
  351MOL0     C47265  12.462  11.092   3.826 -0.2056  0.1558 -0.1403
  351MOL0     C47266  12.538  10.975   3.760 -0.1086  0.5923 -0.1948
  351MOL0     N47267  12.678  10.967   3.822  0.2603 -0.7620  0.0970
  351MOL0     C47268  12.772  11.069   3.843 -0.4067 -0.3459 -0.2672
  351MOL0     C47269  12.876  11.002   3.890 -0.3954  0.6781  1.2121
  351MOL0     C47270  13.006  11.066   3.924  0.0182 -0.5530 -0.0900
  351MOL0     C47271  13.133  10.982   3.891 -0.1298 -0.1704 -0.6882
  351MOL0     C47272  13.147  10.965   3.736 -0.4440  0.4510  0.6692
  351MOL0     C47273  13.291  10.937   3.705  0.2011  0.1670 -0.1479
  351MOL0     O47274  13.309  10.933   3.563  0.7494  0.3241 -0.8045
  351MOL0     C47275  13.427  10.872   3.514  0.0987 -1.0714  0.3251
  351MOL0     C47276  13.538  10.832   3.583  0.1730 -0.5549 -0.4949
  351MOL0     C47277  13.647  10.777   3.510 -0.3358 -1.4007  0.2892
  351MOL0     C47278  13.652  10.770   3.367 -0.3363 -0.5775 -0.0643
  351MOL0     C47279  13.767  10.729   3.295  0.5963 -0.5245 -0.1342
  351MOL0     O47280  13.857  10.650   3.364 -0.0551  0.2077 -0.6021
  351MOL0     C47281  13.964  10.609   3.291  0.4906 -0.6411  0.4149
  351MOL0     C47282  13.963  10.517   3.184 -1.0654 -0.6550  0.4544
  351MOL0     C47283  14.089  10.486   3.126  0.0510 -0.2036  0.5480
  351MOL0     C47284  14.206  10.544   3.158  0.2217 -0.4719  0.2048
  351MOL0     O47285  14.310  10.522   3.071  0.0895  0.0200 -0.1892
  351MOL0     C47286  14.429  10.604   3.078 -0.4484 -0.8186  0.3003
  351MOL0     C47287  14.508  10.571   2.955  0.0604 -0.2921  0.1313
  351MOL0     C47288  14.654  10.629   2.971  0.5575  0.3558 -0.7577
  351MOL0     C47289  14.722  10.633   2.827 -0.7031 -0.2631  0.4429
  351MOL0     C47290  14.877  10.625   2.823  0.8592  0.1417  0.5066
  351MOL0     C47291  14.932  10.704   2.695  0.2338  0.9488 -0.0810
  351MOL0     C47292  14.868  10.639   2.567 -0.2613 -0.0134  0.4458
  351MOL0     C47293  14.936  10.698   2.438  0.1830  0.3947 -0.7221
  351MOL0    Cl47294  14.910  10.873   2.413 -0.0691  0.1856  0.1036
  351MOL0     C47295  14.204  10.639   3.256 -0.0330  0.4054  0.2597
  351MOL0     C47296  14.084  10.670   3.319 -0.1257  0.0767 -0.1705
  351MOL0     O47297  13.781  10.768   3.173  0.3313 -0.2971  0.3283
  351MOL0     C47298  13.537  10.809   3.301  0.1222 -0.1097  0.7422
  351MOL0     C47299  13.426  10.858   3.377 -0.9055 -0.4032  0.4051
  351MOL0     N47300  12.854  10.864   3.902  0.0937 -0.4074 -0.5303
  351MOL0     N47301  12.730  10.852   3.868  0.6376  0.0086 -0.2899
  351MOL0     C47302  11.565  11.452   4.014  0.2247  0.7301  0.3475
  351MOL0     C47303  11.441  11.450   4.080  0.1978 -0.3534  0.2171
  351MOL0     C47304  11.000  11.305   4.097 -0.0020  0.0496  0.4366
  351MOL0     C47305  10.982  11.308   4.240 -0.0009  0.3516 -0.7938
  351MOL0     C47306  10.859  11.308   4.298 -0.5617 -0.7956 -0.0700
  351MOL0     C47307  10.744  11.313   4.217  1.1539 -0.0519  0.2233
  351MOL0     O47308  10.618  11.346   4.268 -0.5585 -0.5820  0.1320
  351MOL0     C47309  10.520  11.415   4.192 -0.1401  0.4427 -0.4094
  351MOL0     C47310  10.418  11.503   4.270 -0.2015  1.1759  0.0213
  351MOL0     C47311  10.483  11.616   4.351  0.3857 -0.0443  0.0290
  351MOL0     C47312  10.387  11.685   4.444  0.4443 -0.3727 -0.5064
  351MOL0     C47313  10.350  11.603   4.561 -0.4853  0.3491  0.6545
  351MOL0     C47314  10.322  11.533   4.655  0.2148  0.3953 -0.1115
  351MOL0     C47315  10.758  11.307   4.081  0.4460 -0.6865 -0.2407
  351MOL0     C47316  10.884  11.297   4.019 -0.2485 -0.8716  0.4506
  351MOL0     C47317  10.888  11.304   3.877  0.1182 -0.1834  0.5395
  351MOL0     H47318  11.383  11.113   4.041  1.2360 -0.5626  1.7551
  351MOL0     H47319  11.610  11.121   3.960 -3.0407 -1.1792  0.1233
  351MOL0     H47320  11.777  11.554   3.858 -0.0602 -0.6154 -2.0383
  351MOL0     H47321  11.857  11.513   4.001  0.8371 -0.7133  0.1504
  351MOL0     H47322  11.986  11.566   3.798  0.9759 -2.0448 -2.0126
  351MOL0     H47323  11.937  11.424   3.719  1.5975  0.5029 -0.1463
  351MOL0     H47324  12.017  11.312   3.962 -2.4060  1.5790  0.6990
  351MOL0     H47325  12.147  11.425   3.929 -0.0219 -2.6336  1.0547
  351MOL0     H47326  12.069  11.231   3.718  0.8426 -1.6019 -0.2329
  351MOL0     H47327  12.191  11.357   3.701  3.7965 -1.5773  0.8796
  351MOL0     H47328  12.310  11.278   3.910  0.2196  0.2323 -0.0215
  351MOL0     H47329  12.193  11.150   3.914  1.4869  0.5462  1.2792
  351MOL0     H47330  12.276  11.017   3.742 -0.7140  0.4668 -1.2442
  351MOL0     H47331  12.354  11.153   3.658  1.6071  0.8486  1.1377
  351MOL0     H47332  12.440  11.062   3.929  0.4758  0.8261  0.2096
  351MOL0     H47333  12.515  11.187   3.832 -1.5735  0.9524 -0.1687
  351MOL0     H47334  12.489  10.878   3.776  1.7604 -0.5854 -1.2765
  351MOL0     H47335  12.543  10.995   3.653 -2.0822  0.7079 -0.3009
  351MOL0     H47336  12.772  11.176   3.821  0.9187 -0.5534 -1.3819
  351MOL0     H47337  13.014  11.165   3.877 -0.1185 -0.4533  0.0964
  351MOL0     H47338  12.999  11.082   4.032 -3.4049 -0.7317 -0.1684
  351MOL0     H47339  13.217  11.041   3.930  0.8897 -0.1151 -2.8258
  351MOL0     H47340  13.126  10.885   3.942 -1.2860 -0.2656 -1.0080
  351MOL0     H47341  13.112  11.049   3.676 -0.7348  0.3313  0.6672
  351MOL0     H47342  13.088  10.876   3.709 -1.1213  1.0023  0.2668
  351MOL0     H47343  13.313  10.841   3.753 -1.1720  0.0750  0.3477
  351MOL0     H47344  13.359  11.019   3.730  1.4967  0.3947 -3.8017
  351MOL0     H47345  13.558  10.837   3.689  2.3661 -2.1574 -0.7869
  351MOL0     H47346  13.732  10.749   3.570  1.4890  1.6278 -0.6627
  351MOL0     H47347  13.871  10.469   3.152 -0.5512  0.7678 -3.7727
  351MOL0     H47348  14.087  10.421   3.040  4.5910  1.0097 -0.7226
  351MOL0     H47349  14.412  10.712   3.074 -2.2265 -1.0715 -0.0916
  351MOL0     H47350  14.491  10.588   3.166  0.1693  1.9379  0.4576
  351MOL0     H47351  14.525  10.463   2.949 -0.2798 -0.4290  1.3599
  351MOL0     H47352  14.461  10.604   2.862  0.2770 -0.8626 -0.1869
  351MOL0     H47353  14.659  10.730   3.013 -0.6335 -0.1538  0.6893
  351MOL0     H47354  14.723  10.578   3.038  1.2538  3.1715  0.8221
  351MOL0     H47355  14.679  10.719   2.774 -1.1716 -0.3399  0.6863
  351MOL0     H47356  14.682  10.544   2.777 -1.7133 -0.2884  1.2498
  351MOL0     H47357  14.896  10.518   2.826 -0.8889 -0.2194 -0.0691
  351MOL0     H47358  14.914  10.678   2.912 -0.6803  1.4243  0.4383
  351MOL0     H47359  14.900  10.806   2.714 -0.7868  0.6093  0.0874
  351MOL0     H47360  15.040  10.688   2.689  0.6507  2.5095  2.2667
  351MOL0     H47361  14.761  10.663   2.568 -0.0794  0.8442  1.0203
  351MOL0     H47362  14.887  10.532   2.557 -0.5384 -0.1185  1.0282
  351MOL0     H47363  15.044  10.696   2.450  0.0213  0.2334  0.9476
  351MOL0     H47364  14.894  10.639   2.355 -1.0424  0.7759 -0.4015
  351MOL0     H47365  14.294  10.692   3.285  0.2884  0.4286 -0.7496
  351MOL0     H47366  14.090  10.743   3.399  0.2748  1.4388 -1.3953
  351MOL0     H47367  13.521  10.781   3.197 -1.8966 -2.1783  1.5190
  351MOL0     H47368  13.341  10.897   3.321  0.4191  2.3869  0.1786
  351MOL0     H47369  11.610  11.549   3.999  2.4032 -0.3470 -0.5210
  351MOL0     H47370  11.397  11.543   4.115 -0.5150 -0.8815  0.7389
  351MOL0     H47371  11.062  11.315   4.313 -0.6611 -0.4061  0.0238
  351MOL0     H47372  10.850  11.309   4.406  0.5703 -1.9948  0.0641
  351MOL0     H47373  10.476  11.330   4.138  0.9167 -1.3013  1.3347
  351MOL0     H47374  10.564  11.477   4.113  0.8853 -1.2906 -1.2718
  351MOL0     H47375  10.364  11.443   4.345  0.6481  0.9018  0.4264
  351MOL0     H47376  10.353  11.548   4.195  0.6781  0.2888 -1.3290
  351MOL0     H47377  10.511  11.688   4.273 -1.8621  2.0195  0.9943
  351MOL0     H47378  10.566  11.579   4.412  0.8275  1.6960  0.5317
  351MOL0     H47379  10.433  11.778   4.479 -2.4526  0.9621  0.0284
  351MOL0     H47380  10.295  11.718   4.395  0.9170  0.8472 -0.5956
  351MOL0     H47381  10.321  11.472   4.743  0.6163  0.8011  0.1777
  351MOL0     H47382  10.671  11.311   4.016 -0.8989 -2.5573  1.3077
  351MOL0     H47383  10.914  11.207   3.835  0.1279 -0.3303  0.8759
  351MOL0     H47384  10.790  11.337   3.841 -0.9752 -1.7114  1.9327
  351MOL0     H47385  10.966  11.375   3.848  1.3360 -1.0247  1.6336
  352MOL0     O47386   4.159   2.116  10.426  0.4980  0.3183  0.3246
  352MOL0     C47387   4.184   2.136  10.307  0.0070 -0.2256  0.3953
  352MOL0     O47388   4.316   2.136  10.256  0.0587  0.5597 -0.0387
  352MOL0     C47389   4.429   2.107  10.326  0.0301  0.1457 -0.2164
  352MOL0     C47390   4.511   2.203  10.376 -0.5775 -0.3583  0.4017
  352MOL0     C47391   4.634   2.176  10.439 -0.4777  0.3295  0.6206
  352MOL0     C47392   4.672   2.047  10.458 -0.2752  0.2790 -0.1931
  352MOL0     O47393   4.789   2.015  10.520 -0.2244  0.1324  0.3358
  352MOL0     C47394   4.782   1.979  10.657  0.7935  0.3310 -1.1502
  352MOL0     C47395   4.913   1.986  10.736  0.6174 -0.3110  0.6977
  352MOL0     C47396   4.884   1.947  10.882  0.0402 -0.2882 -0.0333
  352MOL0     C47397   5.000   1.869  10.932  0.1760 -0.4166  0.3345
  352MOL0     C47398   4.969   1.789  11.058  0.3488  0.0522  0.8002
  352MOL0     C47399   5.083   1.710  11.117  0.6150 -0.4303  0.7971
  352MOL0     C47400   5.113   1.585  11.034 -0.0582 -0.4101  0.7203
  352MOL0     C47401   5.237   1.512  11.096  0.7718 -0.1911 -0.2390
  352MOL0     N47402   5.308   1.440  10.984  0.4127  1.2512 -0.0206
  352MOL0     C47403   5.263   1.319  10.945 -0.0296  0.2623 -0.8112
  352MOL0     C47404   5.363   1.271  10.869  0.5476 -0.3978  0.1474
  352MOL0     C47405   5.342   1.144  10.804  0.0590 -0.0774  0.3899
  352MOL0     C47406   5.436   1.122  10.685 -0.3088 -0.0137 -0.0913
  352MOL0     C47407   5.573   1.058  10.727 -0.6315 -0.2528 -0.3671
  352MOL0     C47408   5.692   1.087  10.640  0.6850  0.5801 -0.1548
  352MOL0     O47409   5.800   1.006  10.687  0.2020 -0.0996 -0.1549
  352MOL0     C47410   5.928   1.028  10.640  0.5252  0.3657  0.3042
  352MOL0     C47411   5.958   1.123  10.541 -0.3003  0.2300  0.4922
  352MOL0     C47412   6.094   1.151  10.514 -0.1602 -0.0360 -0.1824
  352MOL0     C47413   6.195   1.076  10.579  0.0333  0.6424  0.7128
  352MOL0     C47414   6.337   1.093  10.542  0.4172 -0.4080  0.3163
  352MOL0     O47415   6.418   1.007  10.599 -0.3401  0.0519  0.1349
  352MOL0     C47416   6.549   1.022  10.601 -0.3330  0.4698 -1.1016
  352MOL0     C47417   6.642   1.125  10.561  0.4050 -0.3926  1.1510
  352MOL0     C47418   6.782   1.102  10.579  0.5563  0.8231 -0.3573
  352MOL0     C47419   6.824   0.979  10.625  0.0796 -0.1662  0.6946
  352MOL0     O47420   6.960   0.962  10.619 -0.0272 -0.1796 -0.1265
  352MOL0     C47421   6.985   0.854  10.528  0.0919  0.2529 -0.2552
  352MOL0     C47422   7.125   0.801  10.564 -0.2965 -0.3707 -0.1899
  352MOL0     C47423   7.235   0.899  10.521  0.4413 -0.9151 -0.4926
  352MOL0     C47424   7.376   0.852  10.547  0.2411  0.3550  0.5700
  352MOL0     C47425   7.478   0.943  10.488 -0.0206  0.1882 -0.7871
  352MOL0     C47426   7.487   0.939  10.334 -0.7343  0.3806 -0.1463
  352MOL0     C47427   7.609   1.012  10.293  0.9806 -0.4217  0.4151
  352MOL0     C47428   7.741   0.943  10.332 -0.2405  0.6090 -0.2565
  352MOL0    Cl47429   7.765   0.791  10.254 -0.3428  0.4665  0.2622
  352MOL0     C47430   6.730   0.886  10.668 -0.3378 -0.2978  0.1500
  352MOL0     C47431   6.596   0.911  10.663  0.5789 -0.1147  0.3782
  352MOL0     O47432   6.373   1.191  10.474  1.0263 -0.4186 -0.0293
  352MOL0     C47433   6.154   0.984  10.676 -0.1082  0.0691  0.0127
  352MOL0     C47434   6.024   0.959  10.708 -0.4633 -0.0727 -0.3851
  352MOL0     N47435   5.461   1.367  10.860 -0.0591  1.1170  0.1203
  352MOL0     N47436   5.420   1.472  10.918 -0.6479  0.2225  0.3551
  352MOL0     C47437   4.585   1.949  10.400  0.7983 -0.1794  0.7544
  352MOL0     C47438   4.465   1.975  10.337 -0.6979 -0.0853  0.3124
  352MOL0     C47439   4.064   2.152  10.221  0.0333  0.1622  0.0531
  352MOL0     C47440   4.073   2.205  10.090 -0.1101  0.1539  0.4577
  352MOL0     C47441   3.968   2.227  10.004  0.1191  0.5379  0.1193
  352MOL0     C47442   3.842   2.173  10.031 -0.2433 -0.2978 -0.0440
  352MOL0     O47443   3.725   2.194   9.965 -0.4884 -0.2047  0.0963
  352MOL0     C47444   3.725   2.295   9.862  0.5149  0.3181 -0.3839
  352MOL0     C47445   3.599   2.274   9.775  0.9560  0.0303 -0.1806
  352MOL0     C47446   3.600   2.388   9.681  0.1674  0.5648 -0.0059
  352MOL0     C47447   3.467   2.393   9.605 -0.6263  0.0796  0.5251
  352MOL0     C47448   3.480   2.505   9.511  0.1151  0.0677  0.0602
  352MOL0     C47449   3.495   2.587   9.426 -0.2369 -0.1516  1.2276
  352MOL0     C47450   3.825   2.107  10.156 -0.2874 -0.1608  0.0750
  352MOL0     C47451   3.933   2.101  10.251  0.2466 -0.5723 -0.3520
  352MOL0     C47452   3.903   2.015  10.362  0.4836  0.2869 -0.3680
  352MOL0     H47453   4.469   2.302  10.358  0.9899  0.1667 -0.4935
  352MOL0     H47454   4.696   2.256  10.478  0.2652  0.2207 -0.2885
  352MOL0     H47455   4.710   2.040  10.712  1.2922 -1.3041  1.5337
  352MOL0     H47456   4.752   1.873  10.657 -0.1080  0.5462  0.3607
  352MOL0     H47457   4.939   2.092  10.734  2.3334 -0.6815 -1.7344
  352MOL0     H47458   4.988   1.930  10.680  1.4167 -0.2353  1.6795
  352MOL0     H47459   4.794   1.885  10.894  1.8547 -3.2832 -0.7212
  352MOL0     H47460   4.882   2.039  10.940  2.4428 -0.4013  0.3327
  352MOL0     H47461   5.012   1.800  10.847  0.7777  0.3225 -0.1991
  352MOL0     H47462   5.094   1.926  10.936 -0.9240  1.6357 -1.2647
  352MOL0     H47463   4.933   1.855  11.138  0.3151 -0.7154  1.4222
  352MOL0     H47464   4.885   1.721  11.037  1.3199 -0.4816 -1.7377
  352MOL0     H47465   5.169   1.775  11.136  1.6819 -0.3937 -3.3045
  352MOL0     H47466   5.038   1.671  11.209 -0.7657  0.1424  0.3835
  352MOL0     H47467   5.140   1.603  10.930  1.6451 -1.5130  0.9311
  352MOL0     H47468   5.033   1.512  11.025 -0.0225 -0.5684  1.5373
  352MOL0     H47469   5.303   1.589  11.137 -1.9152  1.8943  0.4994
  352MOL0     H47470   5.203   1.437  11.168  0.4273 -0.8067 -1.0257
  352MOL0     H47471   5.175   1.260  10.965  1.2748 -1.1659  1.1320
  352MOL0     H47472   5.337   1.057  10.870 -3.5312 -0.8575 -0.6644
  352MOL0     H47473   5.245   1.152  10.755  1.2299 -1.8756 -2.4742
  352MOL0     H47474   5.390   1.042  10.627  1.5537 -1.0099 -0.2882
  352MOL0     H47475   5.443   1.215  10.629 -0.5311 -0.1823 -0.3970
  352MOL0     H47476   5.566   0.956  10.765  1.9133  0.9325  3.8750
  352MOL0     H47477   5.606   1.111  10.817  1.8479 -0.8494 -0.8643
  352MOL0     H47478   5.714   1.193  10.656 -2.4222  1.0245  1.9892
  352MOL0     H47479   5.663   1.077  10.535  1.7030  0.8474 -0.4747
  352MOL0     H47480   5.880   1.175  10.487  0.0510  1.8144  1.4496
  352MOL0     H47481   6.118   1.224  10.438 -0.7571 -1.8652 -2.2531
  352MOL0     H47482   6.612   1.220  10.518  1.5532  0.6786  2.6205
  352MOL0     H47483   6.852   1.176  10.542 -1.8866  2.1708 -2.6568
  352MOL0     H47484   6.911   0.773  10.532  0.2302  0.1660  2.0148
  352MOL0     H47485   6.988   0.894  10.427  0.7029 -2.0525 -1.2292
  352MOL0     H47486   7.127   0.785  10.673 -1.0871 -1.2040 -0.2766
  352MOL0     H47487   7.143   0.702  10.520 -0.7869 -1.7455  2.4345
  352MOL0     H47488   7.232   0.911  10.413  3.9410  0.4911 -0.5521
  352MOL0     H47489   7.216   0.997  10.566 -1.8414 -0.9001 -1.3901
  352MOL0     H47490   7.392   0.749  10.514 -0.0037 -0.1193  1.8478
  352MOL0     H47491   7.398   0.841  10.654  3.3512  1.7904  0.1754
  352MOL0     H47492   7.572   0.907  10.532 -0.8571  0.1460  1.0501
  352MOL0     H47493   7.462   1.043  10.528  4.7078 -0.0389  2.5646
  352MOL0     H47494   7.493   0.836  10.297 -1.3406 -0.5157  2.0423
  352MOL0     H47495   7.404   0.996  10.291  0.0053  1.0298 -0.7393
  352MOL0     H47496   7.604   1.118  10.318  1.1729 -0.4477  0.5611
  352MOL0     H47497   7.616   1.015  10.184  0.6021  1.7868  0.4180
  352MOL0     H47498   7.825   1.000  10.291  0.5936  1.6814  2.6676
  352MOL0     H47499   7.753   0.944  10.441 -3.3809  0.4870  0.1716
  352MOL0     H47500   6.754   0.787  10.706  1.4164 -0.7223 -1.8645
  352MOL0     H47501   6.529   0.837  10.705 -1.4915  2.3586  1.7659
  352MOL0     H47502   6.225   0.920  10.728  2.3840  0.1211 -3.0435
  352MOL0     H47503   5.990   0.889  10.783  1.8986 -1.5788 -0.6082
  352MOL0     H47504   4.611   1.844  10.406 -0.9180 -0.8995 -2.4635
  352MOL0     H47505   4.410   1.895  10.289 -1.0341  0.8562 -0.9227
  352MOL0     H47506   4.164   2.255  10.059 -0.8427  0.3569 -1.5466
  352MOL0     H47507   3.986   2.282   9.912  2.3609 -0.2415  0.0286
  352MOL0     H47508   3.814   2.289   9.799  1.3563  0.5454  0.7332
  352MOL0     H47509   3.713   2.393   9.909 -0.2518 -1.2044  2.9699
  352MOL0     H47510   3.507   2.258   9.831  1.1651 -2.9794 -0.5092
  352MOL0     H47511   3.612   2.183   9.716  1.4585  0.6686 -1.0707
  352MOL0     H47512   3.679   2.370   9.607 -1.7776 -2.8445 -1.4837
  352MOL0     H47513   3.625   2.481   9.732  0.2634 -0.8342  2.6733
  352MOL0     H47514   3.435   2.299   9.559 -2.2391  0.0715  1.5851
  352MOL0     H47515   3.395   2.420   9.682  1.7774 -0.9383  3.2888
  352MOL0     H47516   3.513   2.660   9.350 -0.9414  0.3467  1.5256
  352MOL0     H47517   3.724   2.074  10.178  0.2713 -0.9159  1.6433
  352MOL0     H47518   3.931   2.060  10.458  1.0955 -0.6765 -0.0780
  352MOL0     H47519   3.797   1.991  10.366  0.5157  0.3169  0.9961
  352MOL0     H47520   3.958   1.921  10.360  0.5341  0.2987  0.2869
  353MOL0     O47521   3.883   7.770   2.669  0.6597 -0.6953 -0.1905
  353MOL0     C47522   3.860   7.890   2.651  0.0574 -0.3042 -0.1065
  353MOL0     O47523   3.941   7.984   2.590 -0.3239  0.3890 -0.1529
  353MOL0     C47524   4.076   7.978   2.559  0.3858  0.6089 -0.2013
  353MOL0     C47525   4.159   7.919   2.655 -0.1639  0.0872  0.1946
  353MOL0     C47526   4.295   7.908   2.640 -0.4552 -0.2647  0.3359
  353MOL0     C47527   4.362   7.958   2.524  0.6173 -0.7667  0.0366
  353MOL0     O47528   4.500   7.952   2.512  0.4072 -0.3695  0.4894
  353MOL0     C47529   4.572   7.847   2.562 -0.1598  0.3163 -0.0598
  353MOL0     C47530   4.690   7.803   2.487  0.1647  0.1222  0.4091
  353MOL0     C47531   4.808   7.754   2.562 -0.7561 -0.0183  0.1100
  353MOL0     C47532   4.916   7.691   2.474  0.1574 -0.4224  1.0772
  353MOL0     C47533   5.025   7.621   2.563  0.7239  0.7125  0.5032
  353MOL0     C47534   5.132   7.550   2.475  0.4694 -0.3045 -0.1147
  353MOL0     C47535   5.218   7.463   2.562 -0.1088 -0.0181  0.0541
  353MOL0     C47536   5.309   7.538   2.666 -0.4175 -0.2383  0.7740
  353MOL0     N47537   5.395   7.452   2.741 -0.3701  0.1119 -0.8240
  353MOL0     C47538   5.520   7.415   2.696 -0.1313  0.2886  0.4700
  353MOL0     C47539   5.583   7.352   2.799  0.1137 -0.9137  0.1714
  353MOL0     C47540   5.720   7.293   2.810  0.3055 -0.0143  0.5292
  353MOL0     C47541   5.785   7.356   2.924 -0.3755  0.0538 -0.1589
  353MOL0     C47542   5.787   7.515   2.912  0.0956  0.9223 -0.1783
  353MOL0     C47543   5.887   7.582   3.001 -0.1247 -0.2919 -0.4545
  353MOL0     O47544   6.018   7.551   2.952 -0.4078  0.4941 -0.8935
  353MOL0     C47545   6.131   7.583   3.032  0.7156 -0.1403 -0.1681
  353MOL0     C47546   6.132   7.657   3.155 -0.6653  0.2336 -0.3181
  353MOL0     C47547   6.249   7.687   3.220 -0.0741  0.5587 -0.9812
  353MOL0     C47548   6.376   7.636   3.181  0.0529 -0.4773 -0.4810
  353MOL0     C47549   6.507   7.666   3.254 -0.1930  0.7985 -0.1858
  353MOL0     O47550   6.476   7.728   3.369 -0.2045 -0.3320  0.1322
  353MOL0     C47551   6.578   7.774   3.442  0.3361 -0.1183 -0.2039
  353MOL0     C47552   6.644   7.685   3.527 -0.0113  0.5689  0.0157
  353MOL0     C47553   6.753   7.740   3.600  0.6212  0.1891  0.6347
  353MOL0     C47554   6.796   7.872   3.577 -0.2215  0.1767 -0.5479
  353MOL0     O47555   6.911   7.904   3.651  0.2564 -0.1330  0.1511
  353MOL0     C47556   6.955   8.040   3.642  0.7032  0.1866 -0.3900
  353MOL0     C47557   7.093   8.048   3.720 -0.5632 -0.6079 -0.9907
  353MOL0     C47558   7.209   7.964   3.660 -0.1459  0.4802  0.7478
  353MOL0     C47559   7.270   7.884   3.782  0.4663  0.0307  0.1077
  353MOL0     C47560   7.400   7.800   3.747 -0.1115 -0.3006  0.1534
  353MOL0     C47561   7.454   7.713   3.865 -0.6811  0.4775  0.2340
  353MOL0     C47562   7.588   7.641   3.832  0.3822 -0.3780 -0.8597
  353MOL0     C47563   7.603   7.519   3.921 -0.1017  0.3159  0.1232
  353MOL0    Cl47564   7.757   7.444   3.869 -0.2195 -0.1644  0.1161
  353MOL0     C47565   6.715   7.961   3.502 -0.4047 -0.5647 -0.0660
  353MOL0     C47566   6.604   7.913   3.430 -0.0898 -0.9722  0.1312
  353MOL0     O47567   6.614   7.640   3.209 -0.4055 -0.0742  0.1632
  353MOL0     C47568   6.375   7.556   3.060 -0.0781 -0.0304 -0.9587
  353MOL0     C47569   6.255   7.536   2.989 -0.1834 -0.2846  0.1890
  353MOL0     N47570   5.500   7.366   2.906  0.9894 -0.3495  0.0181
  353MOL0     N47571   5.389   7.427   2.874 -1.0722  0.7410  0.6223
  353MOL0     C47572   4.278   8.026   2.427 -0.0721  0.6299 -0.8790
  353MOL0     C47573   4.138   8.027   2.442 -0.1910  0.7887  0.6004
  353MOL0     C47574   3.744   7.960   2.716 -0.1654 -0.1368  0.4001
  353MOL0     C47575   3.694   8.076   2.646  0.0021 -0.4681  0.1974
  353MOL0     C47576   3.584   8.140   2.693  0.4370 -0.4927  1.1586
  353MOL0     C47577   3.506   8.096   2.796 -0.3147 -0.3731 -0.0456
  353MOL0     O47578   3.399   8.167   2.850 -0.1377  0.1122 -0.2087
  353MOL0     C47579   3.320   8.247   2.762  0.2416  0.3635  0.8481
  353MOL0     C47580   3.197   8.287   2.833 -0.6596  0.2955  0.2326
  353MOL0     C47581   3.223   8.406   2.922  0.2236  0.1661 -0.0955
  353MOL0     C47582   3.118   8.414   3.039 -0.3424  0.6475  0.2440
  353MOL0     C47583   2.974   8.398   2.990 -1.3348 -0.4644  0.4662
  353MOL0     C47584   2.863   8.370   2.957 -0.5442  0.6273  0.2215
  353MOL0     C47585   3.549   7.986   2.861 -0.1565 -0.6397 -0.1673
  353MOL0     C47586   3.666   7.914   2.825 -0.1995  0.4227  0.2127
  353MOL0     C47587   3.702   7.796   2.910 -0.4304  0.1151 -0.5776
  353MOL0     H47588   4.103   7.881   2.740 -1.4474  2.9549  0.7511
  353MOL0     H47589   4.350   7.854   2.717 -0.1782  0.2689  0.5165
  353MOL0     H47590   4.599   7.876   2.664  3.0438 -0.6458 -0.5354
  353MOL0     H47591   4.514   7.754   2.568  0.2881  0.1004  1.1134
  353MOL0     H47592   4.717   7.892   2.429 -1.2393 -0.0208 -0.5220
  353MOL0     H47593   4.660   7.723   2.419  0.0202  1.9936 -1.8495
  353MOL0     H47594   4.792   7.677   2.638  0.2140 -1.4303 -1.0535
  353MOL0     H47595   4.844   7.846   2.609 -0.6805 -0.4476  0.9195
  353MOL0     H47596   4.863   7.620   2.410 -1.3551  1.6936 -0.1289
  353MOL0     H47597   4.958   7.767   2.408 -0.3821  0.4481  1.7061
  353MOL0     H47598   5.067   7.692   2.634  0.0601  0.4297  1.1929
  353MOL0     H47599   4.979   7.543   2.624  1.6185  0.2873  0.6556
  353MOL0     H47600   5.083   7.490   2.398  1.6434 -0.7678 -0.5305
  353MOL0     H47601   5.196   7.626   2.430  0.0689  1.2347  1.7656
  353MOL0     H47602   5.277   7.394   2.502  2.4112  1.1763  0.9970
  353MOL0     H47603   5.162   7.393   2.625 -0.1217  1.5825  1.9269
  353MOL0     H47604   5.365   7.612   2.608 -1.6768 -0.1037 -0.3092
  353MOL0     H47605   5.256   7.602   2.737 -0.1330 -1.7616  2.4301
  353MOL0     H47606   5.558   7.434   2.597 -0.4270  1.0183  0.4914
  353MOL0     H47607   5.710   7.185   2.821 -1.1614 -0.1252 -1.2717
  353MOL0     H47608   5.775   7.313   2.717 -1.0746  3.9196  0.3647
  353MOL0     H47609   5.744   7.317   3.017  1.3360 -2.3668 -0.3135
  353MOL0     H47610   5.887   7.316   2.918 -1.0399 -2.1078  1.7786
  353MOL0     H47611   5.691   7.564   2.932 -0.7062 -0.7006  0.0399
  353MOL0     H47612   5.812   7.530   2.806 -0.7881 -2.3597 -0.9640
  353MOL0     H47613   5.874   7.545   3.103  2.4478  0.0813  0.0731
  353MOL0     H47614   5.877   7.690   3.004 -2.9665 -0.4579 -1.0235
  353MOL0     H47615   6.035   7.697   3.181 -2.3827 -3.1444 -0.9485
  353MOL0     H47616   6.246   7.747   3.311  0.2949 -1.1683  0.2130
  353MOL0     H47617   6.622   7.579   3.528 -0.4694  0.6344 -1.2285
  353MOL0     H47618   6.819   7.679   3.662 -0.3865  0.0853  1.6359
  353MOL0     H47619   6.975   8.072   3.540 -0.0070 -0.9142 -0.9008
  353MOL0     H47620   6.879   8.107   3.684  2.9942  2.4705  0.3550
  353MOL0     H47621   7.120   8.153   3.729 -1.5525 -0.2658 -1.7908
  353MOL0     H47622   7.063   8.013   3.819  1.8585 -1.1044 -0.3850
  353MOL0     H47623   7.163   7.898   3.587 -1.6706  0.6471  1.5161
  353MOL0     H47624   7.285   8.027   3.613  2.5893 -2.4191  1.0069
  353MOL0     H47625   7.195   7.814   3.821 -0.0084  1.1324  1.2244
  353MOL0     H47626   7.296   7.950   3.864  0.6332 -1.1701  1.0498
  353MOL0     H47627   7.482   7.868   3.719  1.9337 -2.5037  0.4456
  353MOL0     H47628   7.389   7.734   3.660 -0.0406  0.0354 -0.1163
  353MOL0     H47629   7.489   7.779   3.946 -0.3907 -0.3044  0.7601
  353MOL0     H47630   7.391   7.630   3.900  0.4340 -0.6170 -0.2719
  353MOL0     H47631   7.675   7.701   3.857 -1.5677  1.2577  2.9736
  353MOL0     H47632   7.581   7.607   3.728 -1.8836  1.0603 -1.2518
  353MOL0     H47633   7.625   7.553   4.022 -2.3102 -0.4914  0.9307
  353MOL0     H47634   7.522   7.446   3.922 -1.1259  1.3667 -1.4907
  353MOL0     H47635   6.738   8.066   3.507 -4.2725  0.5510 -2.0483
  353MOL0     H47636   6.534   7.984   3.388  2.4286  2.0887  0.7005
  353MOL0     H47637   6.463   7.520   3.008  0.6247 -0.3498  0.4153
  353MOL0     H47638   6.246   7.488   2.892 -1.5894  2.9290 -1.4525
  353MOL0     H47639   4.320   8.063   2.334  1.1989  2.3800  0.3226
  353MOL0     H47640   4.083   8.063   2.355  0.2168  0.3554  0.1637
  353MOL0     H47641   3.741   8.109   2.554  4.3164  0.6639  2.5531
  353MOL0     H47642   3.553   8.234   2.647  1.6976 -0.9874 -0.8182
  353MOL0     H47643   3.287   8.185   2.678  1.7047  1.3820 -0.5405
  353MOL0     H47644   3.374   8.338   2.736  1.7339 -0.5214  0.7320
  353MOL0     H47645   3.156   8.194   2.874  0.8748 -0.0803  0.9734
  353MOL0     H47646   3.128   8.321   2.754  0.3212 -1.5344 -1.4817
  353MOL0     H47647   3.215   8.505   2.876 -0.4613  1.6319  2.8894
  353MOL0     H47648   3.322   8.393   2.967 -0.8090  0.1957  2.3567
  353MOL0     H47649   3.151   8.343   3.116 -1.0939 -0.2753 -0.2647
  353MOL0     H47650   3.102   8.514   3.080 -2.6219  1.2343 -1.8561
  353MOL0     H47651   2.769   8.357   2.906 -0.3294 -3.5435  0.5521
  353MOL0     H47652   3.489   7.945   2.942 -0.2370  0.8814  0.5891
  353MOL0     H47653   3.810   7.784   2.918 -0.6543 -1.2919  0.8091
  353MOL0     H47654   3.651   7.788   3.006  0.6488 -0.5057 -0.0431
  353MOL0     H47655   3.679   7.706   2.852 -2.0365 -0.2753  0.6059
  354MOL0     O47656   3.898   6.641   0.208 -0.5039 -0.1352 -0.3377
  354MOL0     C47657   3.865   6.699   0.308  0.1539 -0.3427  0.7699
  354MOL0     O47658   3.929   6.704   0.430 -0.0706  0.4722  0.3216
  354MOL0     C47659   4.064   6.692   0.423  0.4419  0.1998  0.8014
  354MOL0     C47660   4.123   6.568   0.434 -0.2485  0.0924 -0.0612
  354MOL0     C47661   4.259   6.548   0.417 -0.4811 -0.3328  0.4472
  354MOL0     C47662   4.341   6.657   0.412 -0.7224 -0.3794  0.3987
  354MOL0     O47663   4.478   6.639   0.418 -0.1227  0.2903 -0.0756
  354MOL0     C47664   4.519   6.557   0.312  0.2824  0.6596  0.3028
  354MOL0     C47665   4.641   6.637   0.252  0.2637  0.4533  0.2055
  354MOL0     C47666   4.751   6.673   0.344 -1.0193 -0.0334  0.0297
  354MOL0     C47667   4.825   6.552   0.415 -0.0457 -0.4220  0.1709
  354MOL0     C47668   4.982   6.572   0.449 -0.5586 -1.0544 -0.9312
  354MOL0     C47669   4.996   6.691   0.537 -0.7124 -0.5310 -0.7257
  354MOL0     C47670   5.141   6.691   0.600  0.0200 -0.8640  0.3393
  354MOL0     C47671   5.191   6.829   0.657  0.4123  0.2335 -0.4643
  354MOL0     N47672   5.336   6.830   0.672 -0.1032 -0.1125  0.7973
  354MOL0     C47673   5.423   6.756   0.752 -0.0838  0.1828  0.3524
  354MOL0     C47674   5.548   6.779   0.709 -0.4988  0.1242 -0.2065
  354MOL0     C47675   5.679   6.718   0.745  0.7840  0.3875 -0.4053
  354MOL0     C47676   5.788   6.810   0.788 -1.0470  0.7466  0.0441
  354MOL0     C47677   5.908   6.730   0.857 -0.0990 -0.5778  0.5892
  354MOL0     C47678   5.994   6.648   0.759  0.2312  0.0880  1.0777
  354MOL0     O47679   6.030   6.722   0.644  0.2759 -0.2283 -0.0161
  354MOL0     C47680   6.158   6.769   0.647 -0.6396 -0.8093  0.8281
  354MOL0     C47681   6.173   6.907   0.665  0.8862  0.0743  0.2274
  354MOL0     C47682   6.303   6.960   0.680 -0.3710  0.0834 -0.0854
  354MOL0     C47683   6.413   6.883   0.658  0.5181 -0.0120 -0.0407
  354MOL0     C47684   6.548   6.945   0.650  0.3980  0.2009 -0.8408
  354MOL0     O47685   6.558   7.067   0.717 -0.2905  0.2367  0.1647
  354MOL0     C47686   6.674   7.132   0.696  0.4719 -1.3776  0.2431
  354MOL0     C47687   6.761   7.136   0.810  0.2321 -0.5850  1.0164
  354MOL0     C47688   6.883   7.194   0.798  0.6064 -0.4076  0.2608
  354MOL0     C47689   6.917   7.261   0.680 -0.2811  0.0712 -0.0457
  354MOL0     O47690   7.033   7.338   0.665 -0.3683  0.2564 -0.7614
  354MOL0     C47691   7.154   7.266   0.705 -0.8560 -0.1015 -1.0261
  354MOL0     C47692   7.274   7.319   0.639 -0.5130  0.2728  0.2271
  354MOL0     C47693   7.406   7.270   0.702  0.5975 -0.4154  0.9601
  354MOL0     C47694   7.532   7.349   0.656 -0.0981 -0.4626 -0.7665
  354MOL0     C47695   7.656   7.286   0.724  0.0474  0.1007  0.0553
  354MOL0     C47696   7.678   7.315   0.873  0.1180 -0.3316 -0.8416
  354MOL0     C47697   7.830   7.272   0.904 -0.6294 -0.1086  0.3436
  354MOL0     C47698   7.856   7.268   1.052  0.2112  0.0627 -0.2415
  354MOL0    Cl47699   8.021   7.242   1.077 -0.1135 -0.3645  0.2852
  354MOL0     C47700   6.821   7.272   0.575 -0.4595  0.6412  0.1191
  354MOL0     C47701   6.703   7.199   0.576  0.3502 -0.6148 -0.3977
  354MOL0     O47702   6.641   6.898   0.580  0.5971 -0.2948 -0.0190
  354MOL0     C47703   6.397   6.745   0.625  0.3361  0.1557  0.4498
  354MOL0     C47704   6.270   6.690   0.633  0.1364  0.0220  0.4256
  354MOL0     N47705   5.540   6.873   0.608  0.1996 -0.4293  0.1429
  354MOL0     N47706   5.410   6.895   0.582  0.1379  0.0560  0.0819
  354MOL0     C47707   4.289   6.783   0.426  1.1353 -0.4527 -0.7305
  354MOL0     C47708   4.148   6.807   0.424 -0.1444  0.0598 -0.1885
  354MOL0     C47709   3.732   6.768   0.299 -0.1708 -0.0054 -0.2868
  354MOL0     C47710   3.714   6.888   0.384 -0.4117 -0.5622 -0.2161
  354MOL0     C47711   3.600   6.962   0.374  0.1332  0.3411  0.0932
  354MOL0     C47712   3.490   6.921   0.297  0.2568  0.3761 -0.2836
  354MOL0     O47713   3.381   6.991   0.274  0.1248  0.2310  0.1440
  354MOL0     C47714   3.349   7.113   0.337 -0.2800  0.2884  0.4394
  354MOL0     C47715   3.299   7.083   0.478  0.0671  0.4398  0.5484
  354MOL0     C47716   3.214   7.188   0.546  0.0745 -0.0349  0.2607
  354MOL0     C47717   3.158   7.142   0.678  0.0789  0.8727  1.1039
  354MOL0     C47718   3.052   7.042   0.652 -0.1257  0.8750 -0.0669
  354MOL0     C47719   2.968   6.956   0.635  0.7033 -0.2043 -0.6011
  354MOL0     C47720   3.500   6.795   0.231 -0.8551  0.7309  0.1183
  354MOL0     C47721   3.617   6.716   0.233 -0.5479  0.0966 -0.1818
  354MOL0     C47722   3.616   6.575   0.180 -0.9360 -0.0520  0.3130
  354MOL0     H47723   4.051   6.488   0.448 -0.4455 -0.2646 -2.7325
  354MOL0     H47724   4.312   6.454   0.421 -0.2474 -0.3355 -1.6082
  354MOL0     H47725   4.549   6.457   0.344  0.1345  0.9772  1.4702
  354MOL0     H47726   4.450   6.551   0.227 -1.0882  2.1265  1.2612
  354MOL0     H47727   4.600   6.725   0.202 -0.1373 -0.1258 -0.5145
  354MOL0     H47728   4.682   6.574   0.173 -1.4459 -1.3337  0.6390
  354MOL0     H47729   4.722   6.743   0.422 -0.3761  0.4269 -0.1339
  354MOL0     H47730   4.826   6.733   0.291  0.2050  0.8753  2.6272
  354MOL0     H47731   4.768   6.534   0.507  0.0286 -2.1801 -0.0810
  354MOL0     H47732   4.806   6.463   0.354 -0.5800  0.3954 -0.8668
  354MOL0     H47733   5.010   6.479   0.499 -0.3946  1.5821  4.5879
  354MOL0     H47734   5.035   6.584   0.354 -1.2390  0.8148 -1.1213
  354MOL0     H47735   4.978   6.788   0.491 -1.7991 -1.2916 -1.9671
  354MOL0     H47736   4.922   6.680   0.616 -2.6011  0.4936 -2.2758
  354MOL0     H47737   5.218   6.678   0.523 -0.1316  2.1291 -0.4235
  354MOL0     H47738   5.155   6.614   0.677  0.9644 -1.4825 -0.4330
  354MOL0     H47739   5.146   6.901   0.588 -2.5083  0.1279  1.1553
  354MOL0     H47740   5.134   6.844   0.749  0.4976  0.8602 -0.5088
  354MOL0     H47741   5.386   6.684   0.823 -0.2542 -0.9249 -0.8094
  354MOL0     H47742   5.666   6.648   0.828  0.2810  0.8938 -0.0523
  354MOL0     H47743   5.712   6.654   0.663 -0.1696 -1.8230  0.8388
  354MOL0     H47744   5.831   6.876   0.713 -0.2308  2.0921  1.6363
  354MOL0     H47745   5.733   6.876   0.856 -1.9701 -0.9957  1.0569
  354MOL0     H47746   5.878   6.653   0.928  1.3839 -0.1021  1.7851
  354MOL0     H47747   5.969   6.810   0.900 -1.5002  1.0017 -0.2323
  354MOL0     H47748   5.931   6.567   0.719  2.4841 -0.2444 -2.1645
  354MOL0     H47749   6.075   6.594   0.809  1.2686 -0.1511 -0.7646
  354MOL0     H47750   6.077   6.957   0.667 -0.3467 -2.1781  2.9782
  354MOL0     H47751   6.309   7.068   0.693 -0.7130  0.1672 -0.5741
  354MOL0     H47752   6.748   7.078   0.900 -1.1188  0.3974  1.4890
  354MOL0     H47753   6.950   7.196   0.883  0.7763  1.1772  0.1196
  354MOL0     H47754   7.157   7.271   0.815 -2.8493  1.1806 -0.9740
  354MOL0     H47755   7.147   7.160   0.680 -0.0441 -0.9691  1.9132
  354MOL0     H47756   7.275   7.294   0.532  1.4873  2.6952 -0.4261
  354MOL0     H47757   7.278   7.428   0.637  1.5963  0.2418 -1.0892
  354MOL0     H47758   7.398   7.293   0.808 -0.9289  3.0102  0.2366
  354MOL0     H47759   7.428   7.163   0.692 -0.3680 -0.5254 -0.2028
  354MOL0     H47760   7.528   7.455   0.683  2.3976 -0.1961 -1.1802
  354MOL0     H47761   7.539   7.356   0.547 -2.4648  2.8029 -0.8548
  354MOL0     H47762   7.743   7.323   0.670 -0.2083  1.0957  0.3096
  354MOL0     H47763   7.668   7.179   0.707  2.0559  0.0153  1.6194
  354MOL0     H47764   7.657   7.421   0.893  1.0419 -0.0676 -1.2465
  354MOL0     H47765   7.610   7.257   0.936  0.6043  1.2886  1.2996
  354MOL0     H47766   7.902   7.335   0.851  0.0189 -1.6539 -0.6873
  354MOL0     H47767   7.838   7.176   0.851  1.0055  0.2129 -0.0318
  354MOL0     H47768   7.832   7.367   1.090 -0.3154  0.4734 -1.5923
  354MOL0     H47769   7.800   7.193   1.108  0.2872  0.3081  0.1686
  354MOL0     H47770   6.843   7.333   0.488 -0.0672  1.4435  0.7679
  354MOL0     H47771   6.634   7.194   0.493 -0.0771  0.3853 -0.1214
  354MOL0     H47772   6.479   6.692   0.580  1.3901  1.4989  0.7197
  354MOL0     H47773   6.257   6.588   0.597  0.8873 -0.6098  1.8881
  354MOL0     H47774   4.350   6.870   0.450  1.9694 -0.8001 -1.5407
  354MOL0     H47775   4.117   6.910   0.440 -1.1658  0.0104 -1.6811
  354MOL0     H47776   3.793   6.922   0.449  0.3380  0.0142 -1.4038
  354MOL0     H47777   3.595   7.055   0.430 -1.8789 -0.1606  0.8287
  354MOL0     H47778   3.265   7.164   0.289 -0.0599  0.2295 -0.0201
  354MOL0     H47779   3.433   7.184   0.336 -0.9048  1.1159 -2.2021
  354MOL0     H47780   3.383   7.050   0.540 -0.2812  2.2339  2.0426
  354MOL0     H47781   3.234   6.996   0.465 -0.0543  0.4440  1.1061
  354MOL0     H47782   3.128   7.222   0.487  0.5256 -2.8798 -2.3064
  354MOL0     H47783   3.276   7.278   0.551  1.2825 -0.8249 -0.0280
  354MOL0     H47784   3.233   7.101   0.746  1.7142 -0.8715 -1.5714
  354MOL0     H47785   3.110   7.234   0.715  0.9590  3.3091 -3.1099
  354MOL0     H47786   2.902   6.872   0.647 -0.3276  0.6201 -0.3437
  354MOL0     H47787   3.432   6.737   0.169  0.1261 -1.4758  0.9868
  354MOL0     H47788   3.646   6.572   0.075 -0.0323  0.8668  0.5324
  354MOL0     H47789   3.677   6.510   0.244 -0.0657 -1.7738 -2.1365
  354MOL0     H47790   3.519   6.525   0.187 -0.6794 -0.7461 -0.8481
  355MOL0     O47791   5.149   7.227   6.782 -0.2883 -0.3236  0.1412
  355MOL0     C47792   5.047   7.171   6.822 -0.2437 -0.5104  0.4210
  355MOL0     O47793   5.054   7.056   6.898  0.2900 -0.3500 -0.4415
  355MOL0     C47794   5.174   6.986   6.919  0.0727 -0.4032  0.1725
  355MOL0     C47795   5.193   6.943   7.042  0.4594 -0.2759 -1.1958
  355MOL0     C47796   5.306   6.885   7.093  0.4743 -0.7291  0.4196
  355MOL0     C47797   5.420   6.873   7.016  0.2691  0.0429  0.1022
  355MOL0     O47798   5.535   6.823   7.069  0.1669  0.2048  0.7543
  355MOL0     C47799   5.654   6.871   7.008 -0.1078 -0.1227 -0.6031
  355MOL0     C47800   5.763   6.760   7.032  0.7851  0.7060  0.1780
  355MOL0     C47801   5.864   6.763   6.920  0.0272  0.0565 -0.2763
  355MOL0     C47802   6.000   6.704   6.974 -0.0103 -0.1945  0.3352
  355MOL0     C47803   6.125   6.707   6.880  0.0945 -0.6312 -0.3456
  355MOL0     C47804   6.246   6.685   6.968  0.5897  0.7659 -0.0897
  355MOL0     C47805   6.366   6.662   6.871  0.8522  0.2219 -0.0755
  355MOL0     C47806   6.502   6.673   6.933 -0.3366 -0.7145 -0.8825
  355MOL0     N47807   6.608   6.705   6.837  0.0856 -1.1482 -0.7151
  355MOL0     C47808   6.650   6.627   6.734 -0.2786 -0.2124 -0.1049
  355MOL0     C47809   6.757   6.697   6.683 -0.2588 -0.1170 -0.3137
  355MOL0     C47810   6.821   6.655   6.559  0.9839 -0.0742 -0.0332
  355MOL0     C47811   6.961   6.699   6.549 -0.1024 -0.0347 -0.1094
  355MOL0     C47812   6.979   6.836   6.493  0.6047  0.0166 -0.0587
  355MOL0     C47813   7.125   6.879   6.465 -0.2921  0.8247 -0.6440
  355MOL0     O47814   7.182   6.797   6.357 -0.4301  0.1381 -0.1249
  355MOL0     C47815   7.313   6.815   6.326  0.5756 -0.3262  0.4524
  355MOL0     C47816   7.376   6.941   6.335 -1.2439 -0.3706 -0.0743
  355MOL0     C47817   7.510   6.964   6.309 -0.3883  0.8691 -0.3851
  355MOL0     C47818   7.591   6.850   6.274 -0.6534 -0.9462  0.0197
  355MOL0     C47819   7.742   6.859   6.272  0.0149 -0.0200  0.9145
  355MOL0     O47820   7.815   6.744   6.262 -0.0218 -0.2140 -0.0670
  355MOL0     C47821   7.949   6.750   6.269 -0.3666 -0.4684 -0.1006
  355MOL0     C47822   8.027   6.675   6.174 -0.1153 -0.8285  0.5292
  355MOL0     C47823   8.163   6.679   6.181 -0.4769  0.8575 -1.0132
  355MOL0     C47824   8.232   6.737   6.284  0.8826 -0.6582 -0.0949
  355MOL0     O47825   8.373   6.720   6.289  0.5896  0.3346  0.5001
  355MOL0     C47826   8.458   6.815   6.352  0.8841 -0.7983 -0.7437
  355MOL0     C47827   8.599   6.794   6.289 -0.4558  0.4457 -0.9055
  355MOL0     C47828   8.701   6.890   6.351 -0.5176 -0.1618  0.0292
  355MOL0     C47829   8.711   6.860   6.499  0.2088  0.1141  0.0834
  355MOL0     C47830   8.831   6.931   6.556 -0.2927  0.2064  0.5902
  355MOL0     C47831   8.838   7.082   6.552 -0.2740 -0.1617  0.8285
  355MOL0     C47832   8.925   7.153   6.446  0.1500  0.7731  0.4437
  355MOL0     C47833   8.937   7.302   6.472 -0.5994 -0.5260 -0.0814
  355MOL0    Cl47834   8.997   7.352   6.636 -0.0852  0.1213 -0.0104
  355MOL0     C47835   8.162   6.820   6.366 -0.1475  1.1902 -0.7236
  355MOL0     C47836   8.023   6.826   6.365  0.1690 -0.2677 -0.8572
  355MOL0     O47837   7.782   6.976   6.278  0.0891  1.6548  0.4954
  355MOL0     C47838   7.529   6.727   6.260  0.1693 -0.3693 -0.0455
  355MOL0     C47839   7.395   6.717   6.276  0.0523 -0.1924 -0.9193
  355MOL0     N47840   6.776   6.816   6.745  0.1099 -0.0554 -0.6179
  355MOL0     N47841   6.689   6.816   6.842 -0.3630  0.4582 -0.4522
  355MOL0     C47842   5.406   6.921   6.884  0.0099  0.3770 -0.3950
  355MOL0     C47843   5.286   6.979   6.835 -0.4764 -0.0642  0.4554
  355MOL0     C47844   4.907   7.216   6.801  0.6371  0.1006  0.3782
  355MOL0     C47845   4.809   7.169   6.884  0.3459 -0.3705 -0.2844
  355MOL0     C47846   4.678   7.221   6.883  0.2285 -0.2721  0.4513
  355MOL0     C47847   4.645   7.314   6.780  0.3651  0.3311 -0.3675
  355MOL0     O47848   4.524   7.369   6.760  0.1507 -0.1997 -0.3803
  355MOL0     C47849   4.415   7.319   6.839  0.8612  0.0954  0.1827
  355MOL0     C47850   4.276   7.370   6.810  0.4231 -0.2979  0.3757
  355MOL0     C47851   4.280   7.521   6.794 -0.1570  0.0099 -0.2783
  355MOL0     C47852   4.140   7.577   6.770  0.1777 -0.3760 -0.5070
  355MOL0     C47853   4.129   7.717   6.746  0.8596  0.2781 -0.0620
  355MOL0     C47854   4.138   7.840   6.739 -0.3005  0.1850  0.6849
  355MOL0     C47855   4.738   7.343   6.679 -0.3355  1.4146  0.4906
  355MOL0     C47856   4.871   7.300   6.696 -0.2747 -0.0216  0.4952
  355MOL0     C47857   4.970   7.322   6.578 -0.4524 -0.1105  0.0248
  355MOL0     H47858   5.106   6.943   7.107  0.9757 -1.1618 -0.4922
  355MOL0     H47859   5.307   6.851   7.196 -1.4366 -3.8148 -0.4505
  355MOL0     H47860   5.653   6.884   6.899  3.0115  0.2170 -0.6897
  355MOL0     H47861   5.692   6.964   7.053 -0.1193 -0.8983  1.0853
  355MOL0     H47862   5.719   6.660   7.029  2.8614 -0.3429  1.9677
  355MOL0     H47863   5.814   6.776   7.128  3.3767  0.6035 -1.1098
  355MOL0     H47864   5.880   6.862   6.877 -0.4544  0.7096  0.9940
  355MOL0     H47865   5.818   6.695   6.847 -1.4288  0.8230 -0.1049
  355MOL0     H47866   6.026   6.773   7.054  0.9326 -0.7480  0.5254
  355MOL0     H47867   5.987   6.607   7.023  2.4808  0.0709  1.6820
  355MOL0     H47868   6.123   6.626   6.806  1.4540 -0.6212 -0.4173
  355MOL0     H47869   6.142   6.804   6.832 -1.1464 -0.5933 -0.7475
  355MOL0     H47870   6.264   6.766   7.039 -0.1401 -0.4424  1.5281
  355MOL0     H47871   6.230   6.589   7.018  0.9354  0.6758 -0.1536
  355MOL0     H47872   6.362   6.737   6.792  0.4979  0.5146  0.2147
  355MOL0     H47873   6.351   6.563   6.826 -2.3773 -0.2533  1.7024
  355MOL0     H47874   6.499   6.759   7.000  1.7064 -0.6016 -0.8683
  355MOL0     H47875   6.519   6.573   6.975  1.5507 -1.0773 -2.3578
  355MOL0     H47876   6.608   6.535   6.694  0.1012  0.1080 -1.2955
  355MOL0     H47877   6.816   6.546   6.559 -1.1102 -0.0198  0.5501
  355MOL0     H47878   6.761   6.692   6.475 -0.0449 -0.1717  0.6363
  355MOL0     H47879   7.013   6.683   6.644  0.9274  2.4017 -0.1868
  355MOL0     H47880   7.001   6.633   6.471  2.5549  1.5306 -0.2040
  355MOL0     H47881   6.928   6.915   6.550 -0.2724 -0.7902  0.3058
  355MOL0     H47882   6.936   6.829   6.393 -1.4338 -2.0119  0.8542
  355MOL0     H47883   7.183   6.872   6.558 -0.5721  5.0516  0.0784
  355MOL0     H47884   7.122   6.987   6.450  1.0101  1.3087  1.9308
  355MOL0     H47885   7.322   7.031   6.363  0.5476  0.5634  0.5432
  355MOL0     H47886   7.554   7.062   6.330  2.5590 -0.1416 -1.3263
  355MOL0     H47887   7.963   6.621   6.105 -2.0018  1.6346  0.1984
  355MOL0     H47888   8.218   6.617   6.110 -1.6383 -0.5856 -0.7105
  355MOL0     H47889   8.428   6.918   6.330 -2.0092 -0.5992  3.1305
  355MOL0     H47890   8.464   6.799   6.460  1.1270 -1.4913 -0.8554
  355MOL0     H47891   8.625   6.689   6.301  0.2524  0.7157 -0.0137
  355MOL0     H47892   8.594   6.808   6.180 -0.8903 -0.9929 -1.0885
  355MOL0     H47893   8.794   6.874   6.295 -0.5471 -0.5715  0.0924
  355MOL0     H47894   8.677   6.996   6.340  0.6190  0.4293  2.5850
  355MOL0     H47895   8.732   6.753   6.509  0.3257  0.2467  1.3842
  355MOL0     H47896   8.628   6.888   6.563  0.8411  0.7154  0.6560
  355MOL0     H47897   8.914   6.888   6.499 -2.7220  0.4501 -3.4728
  355MOL0     H47898   8.843   6.904   6.661 -0.4713 -1.7819  0.1282
  355MOL0     H47899   8.737   7.122   6.540  0.1775  0.8848  0.3402
  355MOL0     H47900   8.875   7.115   6.650 -1.0640 -0.2304  1.1583
  355MOL0     H47901   8.885   7.134   6.346  0.1214  1.4694  0.3192
  355MOL0     H47902   9.026   7.112   6.446 -0.9350 -2.5277 -3.2197
  355MOL0     H47903   9.013   7.349   6.408  0.0804 -2.7626 -1.0114
  355MOL0     H47904   8.843   7.354   6.451 -0.0633  0.5111  0.0110
  355MOL0     H47905   8.211   6.868   6.450 -1.8902  0.1193  0.9777
  355MOL0     H47906   7.963   6.885   6.433 -2.5666 -2.2013 -1.4553
  355MOL0     H47907   7.586   6.637   6.240  1.2705 -0.1046  1.7009
  355MOL0     H47908   7.346   6.624   6.249 -0.9387  0.6240 -2.0053
  355MOL0     H47909   5.490   6.936   6.816  0.2688  2.6505  0.3412
  355MOL0     H47910   5.287   7.029   6.739 -2.1723 -1.6630 -0.4598
  355MOL0     H47911   4.843   7.106   6.966 -0.5162 -1.0778 -0.4593
  355MOL0     H47912   4.605   7.194   6.959  1.8708  0.8655  2.5499
  355MOL0     H47913   4.439   7.349   6.942  1.7947  1.1253 -0.3103
  355MOL0     H47914   4.416   7.210   6.829  0.0063  0.1472 -0.5637
  355MOL0     H47915   4.211   7.345   6.895  0.8237 -1.7990  0.2743
  355MOL0     H47916   4.245   7.325   6.715  2.1145  0.6535 -0.6734
  355MOL0     H47917   4.346   7.565   6.719  0.0167 -1.8863 -1.2937
  355MOL0     H47918   4.322   7.561   6.887  0.8750  0.0365 -0.7409
  355MOL0     H47919   4.089   7.513   6.697  0.8278 -1.8684  0.2974
  355MOL0     H47920   4.085   7.560   6.863  1.3755 -2.3230 -0.1083
  355MOL0     H47921   4.163   7.944   6.727 -0.0595  0.5026  3.2377
  355MOL0     H47922   4.708   7.398   6.591 -1.0995  0.7570  0.3366
  355MOL0     H47923   4.929   7.382   6.496  2.4563 -0.2909 -1.7057
  355MOL0     H47924   5.054   7.379   6.618  0.2748 -1.8270  1.0618
  355MOL0     H47925   5.011   7.228   6.541  0.1454  0.2768 -0.3078
  356MOL0     O47926   4.012   7.024   4.871  0.0593  0.4378 -0.6476
  356MOL0     C47927   4.043   7.117   4.945  0.3286  0.1770 -0.1784
  356MOL0     O47928   4.159   7.188   4.941 -0.3973 -0.3226 -0.2011
  356MOL0     C47929   4.265   7.125   4.869  0.4490  0.7018  0.3748
  356MOL0     C47930   4.368   7.046   4.932 -0.3290  0.0222 -0.8549
  356MOL0     C47931   4.482   7.006   4.864 -0.3378  0.6174 -0.0299
  356MOL0     C47932   4.494   7.022   4.729  0.3706  0.3193  0.0681
  356MOL0     O47933   4.611   6.981   4.658 -0.5804 -0.1613  0.1117
  356MOL0     C47934   4.623   6.999   4.516 -0.3241 -0.3315 -0.2020
  356MOL0     C47935   4.725   6.899   4.466  0.6009 -0.4668 -0.1486
  356MOL0     C47936   4.864   6.914   4.539  0.1425 -0.1323  0.3722
  356MOL0     C47937   4.984   6.859   4.459  0.3427  1.1832 -0.3835
  356MOL0     C47938   5.109   6.894   4.534  0.0875 -0.0317 -0.1998
  356MOL0     C47939   5.228   6.837   4.460 -0.2932  0.2346  0.1865
  356MOL0     C47940   5.363   6.870   4.524  0.1487  0.4178  0.6811
  356MOL0     C47941   5.377   6.817   4.674 -0.4455  0.3430 -0.1113
  356MOL0     N47942   5.519   6.787   4.714 -0.7008  0.3436 -0.0771
  356MOL0     C47943   5.605   6.687   4.667  0.5465  0.0238  0.0852
  356MOL0     C47944   5.726   6.714   4.721 -0.0324 -0.0112 -0.1084
  356MOL0     C47945   5.845   6.630   4.715 -0.0750  0.3461 -1.1091
  356MOL0     C47946   5.879   6.571   4.589 -0.5405  0.2053  0.7615
  356MOL0     C47947   5.898   6.686   4.483  0.5665  0.3083  0.0361
  356MOL0     C47948   6.026   6.676   4.402 -0.2666  0.1686 -1.4980
  356MOL0     O47949   6.136   6.696   4.491  0.9520  0.6347  0.2379
  356MOL0     C47950   6.260   6.700   4.429 -0.5234 -0.5894  0.5692
  356MOL0     C47951   6.366   6.727   4.509 -0.1795  0.1499 -0.3667
  356MOL0     C47952   6.502   6.715   4.471  1.4800  0.2803  0.2063
  356MOL0     C47953   6.525   6.698   4.333  0.0253  0.3658 -0.3734
  356MOL0     C47954   6.663   6.706   4.293  0.0517 -0.0343 -0.3781
  356MOL0     O47955   6.765   6.725   4.387 -0.1850 -0.2717  0.0882
  356MOL0     C47956   6.891   6.732   4.334  0.1070 -0.1042 -0.5248
  356MOL0     C47957   6.944   6.861   4.331 -0.3989 -0.6609  1.2797
  356MOL0     C47958   7.071   6.881   4.274 -0.2810  0.4539 -0.1969
  356MOL0     C47959   7.152   6.778   4.235  0.4681  0.3516  0.2701
  356MOL0     O47960   7.276   6.796   4.189  0.1742  0.4706  0.1769
  356MOL0     C47961   7.293   6.897   4.090 -0.3619  0.5681 -1.1104
  356MOL0     C47962   7.417   6.858   4.001  0.3983  0.2257  0.2400
  356MOL0     C47963   7.455   6.965   3.893  0.6419 -0.0466 -0.6114
  356MOL0     C47964   7.602   6.946   3.859  0.9758  0.3545 -0.3474
  356MOL0     C47965   7.645   7.045   3.758  0.4509 -0.8522  0.5343
  356MOL0     C47966   7.790   7.053   3.735 -0.0003 -0.2513 -0.2073
  356MOL0     C47967   7.844   6.923   3.680 -0.1154 -0.1065 -0.2506
  356MOL0     C47968   7.998   6.913   3.692 -0.0027 -0.5643 -0.1648
  356MOL0    Cl47969   8.075   7.038   3.604 -0.1800 -0.2756  0.1427
  356MOL0     C47970   7.101   6.644   4.253 -1.0598  0.1410  0.3388
  356MOL0     C47971   6.967   6.622   4.295 -0.4359 -0.7291 -0.2087
  356MOL0     O47972   6.680   6.706   4.172  0.3287 -0.0331 -0.0359
  356MOL0     C47973   6.418   6.678   4.243 -0.0948  0.1115  0.2315
  356MOL0     C47974   6.283   6.684   4.283 -0.9917  0.2058 -0.5905
  356MOL0     N47975   5.713   6.827   4.793 -0.0116  0.3822  0.2286
  356MOL0     N47976   5.596   6.870   4.794 -0.5799 -0.6684  0.1605
  356MOL0     C47977   4.387   7.083   4.660 -0.6053  0.1936  1.0761
  356MOL0     C47978   4.280   7.130   4.729 -0.3455 -0.3795  0.1630
  356MOL0     C47979   3.938   7.164   5.046  0.2713  0.4468  0.4561
  356MOL0     C47980   3.806   7.105   5.041  1.0268 -0.9012 -0.0927
  356MOL0     C47981   3.706   7.143   5.129  0.1214 -0.3895 -0.5941
  356MOL0     C47982   3.735   7.247   5.225 -0.6060 -0.5683 -0.0949
  356MOL0     O47983   3.627   7.280   5.302  0.0260  0.0650  0.0814
  356MOL0     C47984   3.623   7.422   5.343  0.4991  0.0349 -0.1924
  356MOL0     C47985   3.482   7.454   5.382  1.0313  0.0269 -0.2681
  356MOL0     C47986   3.371   7.411   5.277  0.5279  1.0317  0.1786
  356MOL0     C47987   3.407   7.458   5.135  0.5858  0.3491  0.6401
  356MOL0     C47988   3.404   7.605   5.133 -0.2609  0.1923 -0.1634
  356MOL0     C47989   3.405   7.729   5.128 -0.8106  0.7858  0.5193
  356MOL0     C47990   3.866   7.294   5.238 -0.0889 -0.0984  0.1920
  356MOL0     C47991   3.966   7.257   5.150  0.1617 -0.9404 -0.3646
  356MOL0     C47992   4.108   7.304   5.178  0.1879  0.1702 -0.5073
  356MOL0     H47993   4.346   7.021   5.035 -3.1792  1.0325 -1.1370
  356MOL0     H47994   4.564   6.944   4.897 -0.7176 -1.2108 -2.2983
  356MOL0     H47995   4.530   6.982   4.460  0.9661  0.3063 -2.7060
  356MOL0     H47996   4.656   7.101   4.492 -1.5070 -0.2902 -1.8717
  356MOL0     H47997   4.735   6.908   4.358  0.4108 -0.2937 -0.1512
  356MOL0     H47998   4.684   6.799   4.485 -0.4654 -0.0858 -0.3803
  356MOL0     H47999   4.857   6.868   4.638 -1.2351 -0.6438  0.0573
  356MOL0     H48000   4.889   7.018   4.560  1.5944 -0.4009  0.1231
  356MOL0     H48001   4.976   6.750   4.450  1.2596  0.9220  1.3601
  356MOL0     H48002   4.987   6.898   4.357  6.6268  0.8879 -0.6550
  356MOL0     H48003   5.119   7.002   4.546  1.5094 -0.3462  1.9353
  356MOL0     H48004   5.106   6.845   4.632 -0.6376 -0.3774 -0.3873
  356MOL0     H48005   5.214   6.729   4.453 -1.4214  0.3749  0.0277
  356MOL0     H48006   5.230   6.878   4.358 -0.6492 -1.8336 -0.6945
  356MOL0     H48007   5.379   6.978   4.517  0.2852  0.2964 -3.8968
  356MOL0     H48008   5.447   6.829   4.466  0.6825 -0.6478  2.1558
  356MOL0     H48009   5.339   6.888   4.748  3.1123  0.1837  2.1253
  356MOL0     H48010   5.324   6.724   4.694 -1.7278  0.7593 -1.4262
  356MOL0     H48011   5.573   6.609   4.598 -0.4287 -1.2660  1.8978
  356MOL0     H48012   5.930   6.685   4.758 -0.3397 -0.2161  0.1830
  356MOL0     H48013   5.828   6.557   4.794  0.9525  1.5538  0.2908
  356MOL0     H48014   5.974   6.520   4.609 -0.3905  0.4863  0.7625
  356MOL0     H48015   5.808   6.495   4.553 -1.4353  0.2709  2.2956
  356MOL0     H48016   5.900   6.783   4.534  0.0433  0.2853  0.1118
  356MOL0     H48017   5.809   6.694   4.420 -0.8029 -1.2579  1.6782
  356MOL0     H48018   6.017   6.754   4.326 -0.3877  1.6826 -0.0210
  356MOL0     H48019   6.046   6.580   4.356  0.5830 -0.4017 -0.0251
  356MOL0     H48020   6.355   6.733   4.616  1.5313 -1.6208 -0.0319
  356MOL0     H48021   6.572   6.713   4.554  0.4984 -1.6503  1.0676
  356MOL0     H48022   6.890   6.948   4.366 -0.2363  0.5933 -1.3386
  356MOL0     H48023   7.098   6.986   4.263  0.4250  0.1589 -1.5049
  356MOL0     H48024   7.199   6.908   4.036 -1.9853 -0.4306  1.3357
  356MOL0     H48025   7.306   6.993   4.142 -0.5829 -0.2140  0.4488
  356MOL0     H48026   7.502   6.836   4.066 -0.6835 -2.1758  0.9325
  356MOL0     H48027   7.405   6.757   3.963  0.6887 -0.7947  2.7054
  356MOL0     H48028   7.391   6.950   3.805  1.6553  2.9566 -2.0040
  356MOL0     H48029   7.446   7.068   3.931  2.7424  0.2747 -0.8600
  356MOL0     H48030   7.620   6.842   3.830  2.8937  0.9314 -1.4019
  356MOL0     H48031   7.660   6.968   3.948 -1.1521 -0.5799  1.3738
  356MOL0     H48032   7.610   7.143   3.793 -1.2930 -0.9090 -0.8944
  356MOL0     H48033   7.597   7.024   3.662 -0.2246 -4.2370  1.4797
  356MOL0     H48034   7.811   7.131   3.661  1.7553 -0.8585 -0.3956
  356MOL0     H48035   7.849   7.076   3.824  1.1897 -1.7541 -0.5691
  356MOL0     H48036   7.823   6.919   3.573 -0.2337  1.9046 -0.3307
  356MOL0     H48037   7.798   6.837   3.730  0.2751  0.8430  1.8613
  356MOL0     H48038   8.020   6.924   3.798 -1.5212 -3.6812  0.6129
  356MOL0     H48039   8.031   6.813   3.661  0.2221 -0.6126  0.2320
  356MOL0     H48040   7.172   6.564   4.233  0.2662  0.4034  3.4249
  356MOL0     H48041   6.932   6.520   4.305 -1.8556 -0.1660  0.9858
  356MOL0     H48042   6.443   6.665   4.138  1.6901  0.4846  0.5739
  356MOL0     H48043   6.201   6.672   4.213  0.4344 -0.3240 -2.2584
  356MOL0     H48044   4.397   7.099   4.553  2.2090 -0.8669  1.0875
  356MOL0     H48045   4.200   7.179   4.675  1.2227  0.2773 -1.6534
  356MOL0     H48046   3.780   7.039   4.958  1.5512  0.0912 -1.0711
  356MOL0     H48047   3.608   7.100   5.114  0.1002 -0.3420 -0.5926
  356MOL0     H48048   3.654   7.486   5.260 -1.5103 -0.5091 -1.4235
  356MOL0     H48049   3.686   7.442   5.431  1.8009 -2.3834 -0.4847
  356MOL0     H48050   3.482   7.562   5.399  0.8205 -0.0270  0.0828
  356MOL0     H48051   3.467   7.404   5.478 -1.1553  0.5897 -0.2474
  356MOL0     H48052   3.274   7.452   5.309  1.0075  0.6275  2.3131
  356MOL0     H48053   3.357   7.303   5.291  0.3667  1.2896  2.3415
  356MOL0     H48054   3.501   7.408   5.109 -0.6581 -1.4077 -0.6501
  356MOL0     H48055   3.332   7.422   5.065 -1.3251  0.9368  2.2977
  356MOL0     H48056   3.409   7.836   5.115 -2.5984  0.6858 -1.3580
  356MOL0     H48057   3.877   7.372   5.313 -1.8591  0.8156 -0.4465
  356MOL0     H48058   4.123   7.349   5.277 -3.9352  1.6341 -0.3669
  356MOL0     H48059   4.178   7.220   5.189  2.0485  1.7328  0.4019
  356MOL0     H48060   4.161   7.370   5.108  0.4612  2.0024  1.3085
  357MOL0     O48061   4.248   8.108   0.582 -0.1588 -0.0361  0.4648
  357MOL0     C48062   4.269   8.014   0.503 -0.0377  0.0769  0.5470
  357MOL0     O48063   4.381   8.003   0.418 -0.6369 -0.0780 -0.9338
  357MOL0     C48064   4.470   8.102   0.421 -0.2002  0.7081  0.3991
  357MOL0     C48065   4.426   8.228   0.396  0.3626 -0.6087 -0.1332
  357MOL0     C48066   4.512   8.340   0.407 -0.1473 -0.0707 -0.1845
  357MOL0     C48067   4.649   8.324   0.444 -0.1120  0.0552  0.0099
  357MOL0     O48068   4.740   8.428   0.453  0.6797 -0.1513  0.5192
  357MOL0     C48069   4.700   8.563   0.471  0.7574 -0.1843  0.2053
  357MOL0     C48070   4.817   8.654   0.489 -0.2956 -0.3336 -0.1792
  357MOL0     C48071   4.925   8.606   0.389 -0.3668  0.0621  0.0731
  357MOL0     C48072   5.052   8.685   0.383  0.2386 -0.4693 -0.0408
  357MOL0     C48073   5.169   8.623   0.314 -0.0611  0.5160  0.0361
  357MOL0     C48074   5.298   8.705   0.333  1.2140  1.0755  0.1987
  357MOL0     C48075   5.418   8.638   0.284 -1.1398 -0.6859  0.1394
  357MOL0     C48076   5.411   8.631   0.129  0.0360 -0.3855 -0.5452
  357MOL0     N48077   5.522   8.564   0.063  0.2771  1.0226  0.0067
  357MOL0     C48078   5.538   8.426   0.064 -0.4843 -0.1363 -0.4186
  357MOL0     C48079   5.658   8.407   0.007 -0.3543 -0.5993  1.3370
  357MOL0     C48080   5.709   8.269  -0.017 -0.6956  0.6540 -0.2353
  357MOL0     C48081   5.862   8.266   0.012 -0.1815 -0.2994  0.4184
  357MOL0     C48082   5.928   8.130  -0.017  0.3306 -0.0157 -0.3255
  357MOL0     C48083   6.080   8.136  -0.028 -0.4699 -0.3598 -0.0640
  357MOL0     O48084   6.131   8.111   0.103  0.3338 -0.1022  0.2059
  357MOL0     C48085   6.271   8.095   0.104  0.3193 -0.0030  0.3076
  357MOL0     C48086   6.357   8.070  -0.001  0.2721  0.1063  0.8499
  357MOL0     C48087   6.491   8.045   0.027  0.1897  0.3521 -0.0890
  357MOL0     C48088   6.543   8.057   0.153 -0.6189 -0.1195  0.4951
  357MOL0     C48089   6.682   8.026   0.193  0.4855  1.0571  0.1121
  357MOL0     O48090   6.765   7.973   0.100  0.6039 -0.3276 -0.0825
  357MOL0     C48091   6.898   7.985   0.115 -0.9528 -0.1730 -0.1235
  357MOL0     C48092   6.964   8.100   0.171  0.5970 -0.0882 -0.0784
  357MOL0     C48093   7.100   8.091   0.171 -1.0195  0.2152  0.9118
  357MOL0     C48094   7.186   7.982   0.152  0.0689 -0.1000  0.0604
  357MOL0     O48095   7.323   8.008   0.156  0.7180 -0.3095 -0.2284
  357MOL0     C48096   7.414   7.900   0.179  0.4639 -0.6769 -0.1510
  357MOL0     C48097   7.558   7.935   0.153  0.1566  0.0127 -0.2563
  357MOL0     C48098   7.624   8.039   0.244 -0.2379 -0.4013  0.0135
  357MOL0     C48099   7.749   8.098   0.161  0.3173  0.2083 -0.1354
  357MOL0     C48100   7.842   8.175   0.253 -0.6697  0.2940  0.3785
  357MOL0     C48101   7.945   8.232   0.164  0.0822 -0.4125  0.1745
  357MOL0     C48102   8.043   8.325   0.240 -0.3439 -0.4730 -0.7436
  357MOL0     C48103   8.129   8.390   0.139 -0.1495  1.1051  0.1309
  357MOL0    Cl48104   8.259   8.274   0.081  0.2501  0.2614 -0.1968
  357MOL0     C48105   7.117   7.866   0.105  0.2918 -0.5411 -0.6986
  357MOL0     C48106   6.982   7.870   0.081  0.5134  0.2194 -0.4738
  357MOL0     O48107   6.707   8.032   0.313  0.2444  0.4532 -0.0285
  357MOL0     C48108   6.458   8.082   0.260 -0.4108 -0.1434  0.0612
  357MOL0     C48109   6.319   8.092   0.238 -0.1667 -0.5815 -0.9026
  357MOL0     N48110   5.715   8.526  -0.028  0.4277 -0.6022  0.1538
  357MOL0     N48111   5.633   8.616   0.012 -0.3530 -0.4497 -0.2566
  357MOL0     C48112   4.696   8.189   0.459  0.1931  0.4905 -0.1491
  357MOL0     C48113   4.607   8.081   0.443 -0.1082 -0.8860  0.0156
  357MOL0     C48114   4.163   7.907   0.483 -0.8821 -0.4127 -0.5137
  357MOL0     C48115   4.197   7.797   0.400 -0.0936  1.0337 -0.5145
  357MOL0     C48116   4.116   7.698   0.359 -0.0565 -0.2950 -0.8143
  357MOL0     C48117   3.979   7.715   0.389 -0.5280 -0.4811 -0.5819
  357MOL0     O48118   3.878   7.642   0.329 -0.0084  0.0509 -0.4258
  357MOL0     C48119   3.905   7.570   0.205 -0.7287  0.1595 -0.5208
  357MOL0     C48120   3.897   7.672   0.096 -0.4037 -0.7057  0.2334
  357MOL0     C48121   3.914   7.605  -0.042  0.7275  0.7280  0.7041
  357MOL0     C48122   3.914   7.709  -0.154  0.1213  0.1534  0.8800
  357MOL0     C48123   4.044   7.775  -0.148  0.5522  0.4166 -1.4233
  357MOL0     C48124   4.148   7.834  -0.140  0.4068  0.1923  0.3624
  357MOL0     C48125   3.949   7.816   0.485  0.1731 -0.2884  1.4355
  357MOL0     C48126   4.037   7.907   0.534  0.9823 -0.3709  0.2046
  357MOL0     C48127   3.982   8.013   0.628 -0.7060 -0.0424 -0.7820
  357MOL0     H48128   4.324   8.258   0.373  1.0104  0.2221 -2.1262
  357MOL0     H48129   4.479   8.442   0.388  2.8862  0.6631 -2.2572
  357MOL0     H48130   4.649   8.597   0.381 -0.0903 -1.1487  0.3066
  357MOL0     H48131   4.629   8.565   0.555  1.4756  0.1045  0.8228
  357MOL0     H48132   4.858   8.655   0.590  0.8641  2.2839 -0.6062
  357MOL0     H48133   4.791   8.760   0.482  1.5022  0.2353  1.1400
  357MOL0     H48134   4.873   8.608   0.293 -0.6431 -3.1708  0.0630
  357MOL0     H48135   4.957   8.505   0.416  0.8376 -0.2616 -2.2657
  357MOL0     H48136   5.040   8.790   0.358 -1.2372 -0.9799 -1.7249
  357MOL0     H48137   5.088   8.695   0.486 -0.4329 -0.1607  0.1744
  357MOL0     H48138   5.185   8.524   0.358 -0.5888  0.3590 -0.1061
  357MOL0     H48139   5.147   8.622   0.207 -1.6296 -1.8033  0.2856
  357MOL0     H48140   5.282   8.806   0.292 -0.0596  0.9185  0.2478
  357MOL0     H48141   5.307   8.723   0.440 -0.9386  2.4425  0.2347
  357MOL0     H48142   5.442   8.543   0.330 -0.0852  0.1412  1.3577
  357MOL0     H48143   5.511   8.693   0.301 -0.5616 -1.3563 -0.7836
  357MOL0     H48144   5.320   8.580   0.098 -0.0017  0.7116 -2.4396
  357MOL0     H48145   5.398   8.725   0.074  1.0874 -1.4765 -2.8061
  357MOL0     H48146   5.473   8.346   0.099 -2.0587 -0.3290 -3.4873
  357MOL0     H48147   5.659   8.197   0.049  2.2841 -0.7299  0.6533
  357MOL0     H48148   5.686   8.240  -0.120 -1.8746 -0.9335  0.4353
  357MOL0     H48149   5.905   8.345  -0.050 -1.0340 -0.4564 -0.4122
  357MOL0     H48150   5.868   8.294   0.117 -3.7805 -1.2384  1.0033
  357MOL0     H48151   5.889   8.095  -0.113 -2.0582 -0.6138  0.7876
  357MOL0     H48152   5.900   8.057   0.059 -0.7192  0.4074 -0.2933
  357MOL0     H48153   6.115   8.224  -0.082 -1.0477 -0.7874 -1.1708
  357MOL0     H48154   6.099   8.049  -0.091  1.1497 -1.0635  1.3199
  357MOL0     H48155   6.330   8.060  -0.106  3.4279 -1.1171  0.0267
  357MOL0     H48156   6.559   8.016  -0.052  1.6141  1.6489  0.6164
  357MOL0     H48157   6.906   8.188   0.198 -1.0966 -1.5932  1.4935
  357MOL0     H48158   7.145   8.185   0.201  0.4247 -0.6081  1.4319
  357MOL0     H48159   7.399   7.864   0.281  1.5212  0.9880  0.6350
  357MOL0     H48160   7.383   7.809   0.127  3.0280 -1.4445 -0.4710
  357MOL0     H48161   7.624   7.848   0.163  0.4294  0.1180 -1.0517
  357MOL0     H48162   7.566   7.961   0.047 -1.1499 -1.4362 -0.7553
  357MOL0     H48163   7.549   8.110   0.279 -2.7375 -3.6176  1.8107
  357MOL0     H48164   7.665   7.986   0.330 -0.1886 -1.7504 -0.8037
  357MOL0     H48165   7.712   8.175   0.092  0.4485  2.1343  1.8303
  357MOL0     H48166   7.804   8.016   0.114  1.3991 -0.5968  2.3671
  357MOL0     H48167   7.899   8.106   0.316  0.7379 -0.5479 -1.7207
  357MOL0     H48168   7.792   8.249   0.317  1.2726 -1.2881  4.0462
  357MOL0     H48169   8.000   8.152   0.112 -1.0914 -0.3040 -1.3066
  357MOL0     H48170   7.907   8.302   0.089  2.2190  1.4793  0.7463
  357MOL0     H48171   8.096   8.266   0.316  0.2573 -2.1620 -2.3919
  357MOL0     H48172   7.992   8.405   0.294  0.3417 -1.4197  1.4652
  357MOL0     H48173   8.080   8.434   0.052  0.1699  0.2559 -0.4943
  357MOL0     H48174   8.176   8.473   0.191 -0.2067  1.5026 -0.4410
  357MOL0     H48175   7.171   7.780   0.068  0.9263 -0.0155 -1.0158
  357MOL0     H48176   6.940   7.788   0.024 -0.6516  2.1309 -2.5192
  357MOL0     H48177   6.491   8.088   0.363 -1.9916  2.2911  0.5133
  357MOL0     H48178   6.251   8.116   0.319 -1.2391  0.8767 -2.1649
  357MOL0     H48179   4.803   8.173   0.460  0.1234 -0.3051  2.9750
  357MOL0     H48180   4.647   7.980   0.448 -0.9238 -1.1580  3.0634
  357MOL0     H48181   4.299   7.787   0.364 -0.4487 -3.0663 -0.7706
  357MOL0     H48182   4.160   7.615   0.306 -0.4648 -1.7400  1.0007
  357MOL0     H48183   3.820   7.504   0.186 -0.0748 -0.3604 -1.7495
  357MOL0     H48184   3.993   7.505   0.205 -2.0802 -2.1063 -4.7988
  357MOL0     H48185   3.970   7.753   0.110  0.0071 -1.4078  2.7247
  357MOL0     H48186   3.805   7.730   0.104  0.7210  1.1242  0.6152
  357MOL0     H48187   3.842   7.530  -0.076  2.6780  0.5678 -3.7004
  357MOL0     H48188   4.003   7.543  -0.031 -0.7670 -1.2416  2.7402
  357MOL0     H48189   3.928   7.660  -0.251 -2.1617  1.7201 -0.3591
  357MOL0     H48190   3.823   7.767  -0.175 -0.8868 -1.9827 -1.1806
  357MOL0     H48191   4.242   7.886  -0.145  0.6524 -0.2018  0.7847
  357MOL0     H48192   3.846   7.833   0.517  0.2262  0.6739  1.1314
  357MOL0     H48193   3.983   8.111   0.578 -0.7395  0.4292  0.1194
  357MOL0     H48194   3.882   7.985   0.663 -0.4382  1.2158  1.1181
  357MOL0     H48195   4.049   8.022   0.714  0.6827 -4.5030 -1.1328
  358MOL0     O48196   5.287  10.396   2.383 -0.2261 -0.0313  0.4762
  358MOL0     C48197   5.228  10.424   2.276  0.4893 -0.3526 -0.1773
  358MOL0     O48198   5.279  10.507   2.185  0.0288  0.7565 -0.5160
  358MOL0     C48199   5.392  10.575   2.211  0.0368  0.5315  0.6918
  358MOL0     C48200   5.513  10.551   2.130 -0.4648  0.4631  0.3755
  358MOL0     C48201   5.636  10.624   2.163  0.2380  0.5805 -1.0337
  358MOL0     C48202   5.639  10.720   2.266  0.2244  0.6283 -0.7447
  358MOL0     O48203   5.760  10.783   2.296  0.1064  0.8356  0.6659
  358MOL0     C48204   5.779  10.868   2.414 -0.4116  0.6757  0.4313
  358MOL0     C48205   5.908  10.936   2.413  0.5143 -0.6103  0.6381
  358MOL0     C48206   6.021  10.850   2.473  0.6957 -0.9037  0.4252
  358MOL0     C48207   6.158  10.872   2.411 -0.0694  0.3459  0.0503
  358MOL0     C48208   6.260  10.803   2.499  0.1760  0.4395  0.0658
  358MOL0     C48209   6.401  10.814   2.438  0.3475 -0.5297 -0.3697
  358MOL0     C48210   6.466  10.958   2.445  0.8229 -0.3853  1.1473
  358MOL0     C48211   6.619  10.956   2.409 -0.7853 -0.8004  0.2487
  358MOL0     N48212   6.677  11.088   2.397  0.3940 -0.6214 -0.1815
  358MOL0     C48213   6.700  11.162   2.514 -0.3750 -0.0551 -0.0518
  358MOL0     C48214   6.772  11.266   2.461  0.7002  0.7344 -0.0303
  358MOL0     C48215   6.835  11.378   2.547  0.5326  0.4547  0.6315
  358MOL0     C48216   6.972  11.314   2.593 -0.2442  0.8220  0.0682
  358MOL0     C48217   6.990  11.323   2.744 -0.2355  0.2635 -0.5974
  358MOL0     C48218   6.998  11.459   2.817  0.1224 -0.2772  0.6195
  358MOL0     O48219   7.113  11.536   2.770  0.0994  0.1507 -0.1600
  358MOL0     C48220   7.241  11.512   2.818 -0.1350  0.5832 -0.1308
  358MOL0     C48221   7.265  11.440   2.933 -0.1951  0.5237 -0.7459
  358MOL0     C48222   7.391  11.396   2.973 -0.1942 -0.3349  0.2795
  358MOL0     C48223   7.508  11.420   2.897  0.2767 -0.1337  0.0072
  358MOL0     C48224   7.641  11.374   2.938 -0.3524 -0.7117  0.3150
  358MOL0     O48225   7.730  11.346   2.838 -0.4946  0.4708 -0.3485
  358MOL0     C48226   7.841  11.260   2.867 -0.0130 -0.4154  0.1913
  358MOL0     C48227   7.953  11.285   2.788 -0.2242  0.8694 -0.2273
  358MOL0     C48228   8.068  11.214   2.810 -0.3174  0.5008  0.4753
  358MOL0     C48229   8.069  11.103   2.899  0.1545  0.0657 -0.4305
  358MOL0     O48230   8.180  11.016   2.911  0.2607  0.5161  0.2735
  358MOL0     C48231   8.300  11.053   2.849 -0.0926 -0.8015  0.2554
  358MOL0     C48232   8.417  10.972   2.895 -0.1478  0.2174 -0.4933
  358MOL0     C48233   8.545  11.052   2.885  0.1776 -0.2515 -0.3871
  358MOL0     C48234   8.676  10.978   2.930 -0.2591 -0.1838 -0.7744
  358MOL0     C48235   8.765  11.072   3.010 -0.5559 -0.3204 -1.1515
  358MOL0     C48236   8.883  11.002   3.080  0.8690  0.3523  0.8329
  358MOL0     C48237   8.970  10.925   2.981 -0.2892 -0.0825 -1.1415
  358MOL0     C48238   9.121  10.964   2.997  0.1902 -0.2340  0.0541
  358MOL0    Cl48239   9.126  11.124   2.917 -0.2163 -0.3375  0.6605
  358MOL0     C48240   7.958  11.080   2.976  0.0778 -1.0538 -0.8929
  358MOL0     C48241   7.836  11.151   2.960 -0.5868  0.1849  0.0327
  358MOL0     O48242   7.657  11.349   3.053  0.2648  0.4303 -0.2122
  358MOL0     C48243   7.482  11.495   2.774  0.1478 -0.1591  0.3701
  358MOL0     C48244   7.353  11.547   2.741  0.0262  0.2284  0.6334
  358MOL0     N48245   6.794  11.251   2.326 -0.5835 -0.7119  0.8703
  358MOL0     N48246   6.726  11.148   2.286  0.0097 -0.0756 -0.1182
  358MOL0     C48247   5.523  10.741   2.330  0.1639  1.1332  0.8013
  358MOL0     C48248   5.400  10.668   2.310 -0.3520  0.4218 -0.1868
  358MOL0     C48249   5.096  10.374   2.247 -0.1626  0.0223 -0.8573
  358MOL0     C48250   5.057  10.345   2.110 -0.2082 -0.1366 -0.7679
  358MOL0     C48251   4.936  10.283   2.073  0.3378 -0.2297  0.1436
  358MOL0     C48252   4.850  10.236   2.181  0.0435 -0.3079 -0.2902
  358MOL0     O48253   4.735  10.169   2.151  0.5115  0.3576  0.7016
  358MOL0     C48254   4.624  10.170   2.246  0.3938  0.0968  0.5946
  358MOL0     C48255   4.501  10.107   2.173 -0.0758 -0.3720 -0.5708
  358MOL0     C48256   4.529   9.954   2.162 -0.1293 -0.8972  0.9249
  358MOL0     C48257   4.396   9.882   2.132  0.1322  0.2109  0.5639
  358MOL0     C48258   4.361   9.876   1.982 -0.2568  0.5826  0.3000
  358MOL0     C48259   4.330   9.893   1.861  0.0701  0.0920 -0.0697
  358MOL0     C48260   4.883  10.269   2.317 -0.1314 -0.4557  0.4737
  358MOL0     C48261   5.000  10.337   2.351 -0.8509  0.9504 -0.3791
  358MOL0     C48262   5.021  10.362   2.502 -1.0112  0.1660  0.4847
  358MOL0     H48263   5.525  10.480   2.049 -0.0791 -0.3077  1.0959
  358MOL0     H48264   5.723  10.595   2.104  1.1646 -0.0293  0.5582
  358MOL0     H48265   5.705  10.949   2.415 -0.8408  0.2904  0.5157
  358MOL0     H48266   5.766  10.797   2.496  0.5326 -2.2993 -1.8314
  358MOL0     H48267   5.895  11.027   2.473 -0.5208 -1.6176  2.0026
  358MOL0     H48268   5.931  10.963   2.309 -3.3589 -0.6743 -0.4081
  358MOL0     H48269   5.995  10.744   2.462 -1.3141 -0.7752  2.9691
  358MOL0     H48270   6.007  10.865   2.580 -0.5408  0.1788  0.1389
  358MOL0     H48271   6.156  10.823   2.313  0.9461  1.1316 -0.3915
  358MOL0     H48272   6.195  10.974   2.392  1.1489 -0.3522 -1.5987
  358MOL0     H48273   6.252  10.845   2.600  0.7424  0.4234  0.1219
  358MOL0     H48274   6.231  10.698   2.507 -1.1837  0.8356  0.5821
  358MOL0     H48275   6.461  10.754   2.508  1.2758  0.0575 -0.6343
  358MOL0     H48276   6.411  10.760   2.343  0.2869 -1.7545  0.3052
  358MOL0     H48277   6.457  10.994   2.547 -0.0723 -1.0769  1.3230
  358MOL0     H48278   6.413  11.031   2.384 -1.5047 -3.0228 -0.2186
  358MOL0     H48279   6.661  10.890   2.485 -2.4978 -2.4751 -0.1697
  358MOL0     H48280   6.631  10.917   2.307  0.1694  1.3813 -0.5425
  358MOL0     H48281   6.671  11.143   2.617  0.9943 -2.2168 -0.0035
  358MOL0     H48282   6.855  11.471   2.492  0.3219 -0.5075 -1.1775
  358MOL0     H48283   6.775  11.405   2.634 -2.9317 -2.2335 -0.6635
  358MOL0     H48284   6.983  11.210   2.562 -1.1523 -0.0683  2.4981
  358MOL0     H48285   7.058  11.359   2.543  0.9117  0.8202  1.9459
  358MOL0     H48286   7.088  11.277   2.758 -0.8528 -1.5202 -1.7874
  358MOL0     H48287   6.909  11.262   2.784 -0.7073  0.5872 -1.0398
  358MOL0     H48288   6.996  11.442   2.925  0.7679 -0.1917  0.6438
  358MOL0     H48289   6.903  11.502   2.783  0.2791  0.2539  0.8515
  358MOL0     H48290   7.187  11.406   3.000 -1.0695  1.8334 -1.0752
  358MOL0     H48291   7.404  11.335   3.062  1.9624  3.7889  3.0970
  358MOL0     H48292   7.959  11.380   2.736  2.6263  1.3334  0.8128
  358MOL0     H48293   8.161  11.251   2.769  1.2864 -0.8674  2.6669
  358MOL0     H48294   8.273  11.042   2.743 -1.6155  3.0746  0.0580
  358MOL0     H48295   8.325  11.158   2.868  2.7977 -1.0319 -1.5089
  358MOL0     H48296   8.402  10.935   2.997  0.6382  1.8488  0.2589
  358MOL0     H48297   8.433  10.879   2.840 -0.7404 -0.8672  1.0809
  358MOL0     H48298   8.546  11.093   2.784 -0.9409  0.0506 -0.2909
  358MOL0     H48299   8.539  11.139   2.951 -0.0702 -1.1347  0.7828
  358MOL0     H48300   8.731  10.944   2.841  0.2849 -0.3798 -0.3720
  358MOL0     H48301   8.659  10.894   2.997 -0.4378  0.4441 -0.0221
  358MOL0     H48302   8.709  11.116   3.093  1.3255  2.5950 -1.2772
  358MOL0     H48303   8.793  11.160   2.953 -4.7605  2.8173  1.0332
  358MOL0     H48304   8.940  11.077   3.136  3.2466  0.0669 -1.0233
  358MOL0     H48305   8.840  10.929   3.149  0.4770 -1.9952 -1.6979
  358MOL0     H48306   8.943  10.954   2.879  0.8093  1.9281 -0.9175
  358MOL0     H48307   8.952  10.818   2.995  1.0737 -0.5445 -2.4854
  358MOL0     H48308   9.147  10.976   3.103 -1.8989  1.3045  0.4521
  358MOL0     H48309   9.185  10.886   2.955 -1.3747 -1.8513  0.5275
  358MOL0     H48310   7.982  11.013   3.058  0.6930 -1.3702 -1.3157
  358MOL0     H48311   7.746  11.131   3.018  0.3783  0.3816  1.6464
  358MOL0     H48312   7.566  11.505   2.706 -0.1600 -4.2642 -0.8603
  358MOL0     H48313   7.334  11.600   2.648  1.7040 -2.0810 -1.1276
  358MOL0     H48314   5.520  10.816   2.409  0.3646  2.4110 -0.3594
  358MOL0     H48315   5.317  10.693   2.375  1.0766 -2.0422  2.8730
  358MOL0     H48316   5.133  10.374   2.038  2.2711 -0.8747  1.4164
  358MOL0     H48317   4.909  10.252   1.973  0.5025 -4.1046  1.1203
  358MOL0     H48318   4.599  10.267   2.289  0.6719  0.2667  0.3687
  358MOL0     H48319   4.652  10.107   2.331 -1.3753 -1.9749 -0.2303
  358MOL0     H48320   4.500  10.153   2.074 -0.0183  2.8873  0.8216
  358MOL0     H48321   4.408  10.120   2.230  0.6798 -5.0173  2.2841
  358MOL0     H48322   4.568   9.924   2.259 -0.1127  0.3090  1.3183
  358MOL0     H48323   4.598   9.931   2.081 -0.6011 -1.8339  0.7781
  358MOL0     H48324   4.411   9.780   2.170 -0.0088  0.0306  0.1515
  358MOL0     H48325   4.313   9.927   2.187 -1.8342 -2.0224 -0.3801
  358MOL0     H48326   4.292   9.880   1.762 -0.3392 -2.7180  0.3747
  358MOL0     H48327   4.826  10.240   2.405  1.3273 -0.0800  1.5739
  358MOL0     H48328   5.052  10.467   2.505 -0.0441 -0.0221 -1.4120
  358MOL0     H48329   4.930  10.336   2.558 -1.2384  0.6609  0.3507
  358MOL0     H48330   5.106  10.300   2.531 -1.1869  0.0892  0.8500
  359MOL0     O48331   5.402   9.961   7.713  0.2126 -0.0030 -0.0823
  359MOL0     C48332   5.312  10.039   7.685  0.1953  1.0990 -0.3897
  359MOL0     O48333   5.335  10.174   7.661 -0.3846  0.0319 -0.0155
  359MOL0     C48334   5.473  10.193   7.662  0.1787 -0.0365 -0.6736
  359MOL0     C48335   5.542  10.206   7.543 -0.2905 -0.4598  0.3671
  359MOL0     C48336   5.679  10.243   7.539  0.2142 -0.0794  0.4952
  359MOL0     C48337   5.751  10.272   7.662 -0.5759 -0.4958 -0.2718
  359MOL0     O48338   5.878  10.315   7.680  0.0187 -0.0854  0.2822
  359MOL0     C48339   5.947  10.364   7.558  0.4393 -0.1944  0.0030
  359MOL0     C48340   6.078  10.409   7.622 -0.5013 -0.0026  0.2070
  359MOL0     C48341   6.172  10.448   7.511  0.1609  0.1405 -0.1232
  359MOL0     C48342   6.308  10.466   7.558  0.7857  0.3207 -0.8747
  359MOL0     C48343   6.407  10.469   7.449  0.2987 -1.0210 -0.4917
  359MOL0     C48344   6.547  10.460   7.519  0.0643 -0.2736  0.9424
  359MOL0     C48345   6.667  10.474   7.420 -0.2422  1.0680 -0.6643
  359MOL0     C48346   6.797  10.468   7.504 -0.1848  0.1646  0.2223
  359MOL0     N48347   6.922  10.481   7.429 -0.2997 -0.5662  0.1447
  359MOL0     C48348   6.965  10.591   7.354 -0.5031 -0.2975  0.9149
  359MOL0     C48349   7.088  10.565   7.325 -0.3538  1.3305  0.4121
  359MOL0     C48350   7.182  10.659   7.260  0.1772 -0.0722 -0.8420
  359MOL0     C48351   7.250  10.753   7.366  0.3109  0.7388 -0.2620
  359MOL0     C48352   7.382  10.705   7.421  1.0669 -1.0277 -0.2547
  359MOL0     C48353   7.459  10.820   7.510 -0.8432 -0.7437  0.0812
  359MOL0     O48354   7.590  10.762   7.553  0.6449 -0.5190  0.9656
  359MOL0     C48355   7.684  10.846   7.611 -0.3572 -0.0957 -0.7223
  359MOL0     C48356   7.660  10.977   7.650  0.6425 -0.2931 -0.6007
  359MOL0     C48357   7.755  11.054   7.715  0.3239  0.6641 -1.0602
  359MOL0     C48358   7.879  10.994   7.747 -0.6109  0.3304 -0.5180
  359MOL0     C48359   7.997  11.075   7.798  1.1694 -0.2519  0.3548
  359MOL0     O48360   8.098  11.006   7.860 -0.0069  0.1769  0.4924
  359MOL0     C48361   8.215  11.066   7.854  0.1794 -0.0756 -0.0017
  359MOL0     C48362   8.319  10.996   7.786  0.0175  0.5471  0.0232
  359MOL0     C48363   8.449  11.039   7.814  0.0065 -0.5605 -0.0932
  359MOL0     C48364   8.473  11.138   7.909 -0.3284  0.2756  0.8377
  359MOL0     O48365   8.604  11.173   7.936  0.3769 -0.2746  0.1151
  359MOL0     C48366   8.634  11.308   7.970  0.5896  1.0725 -0.1977
  359MOL0     C48367   8.772  11.347   7.933  0.7272  0.1313  0.2201
  359MOL0     C48368   8.877  11.302   8.029 -0.1353 -0.3909  0.4498
  359MOL0     C48369   9.014  11.360   7.996 -0.4026 -0.0919 -1.3456
  359MOL0     C48370   9.102  11.320   8.115  0.0450 -0.6207 -0.0916
  359MOL0     C48371   9.237  11.395   8.120  0.4065  0.8517  0.4721
  359MOL0     C48372   9.305  11.396   7.989 -0.1842 -0.8019  0.7483
  359MOL0     C48373   9.436  11.469   7.985  0.9324 -0.2983 -0.5090
  359MOL0    Cl48374   9.534  11.434   8.131  0.0298 -0.0457 -0.3247
  359MOL0     C48375   8.369  11.190   7.980 -0.2829 -0.5999  0.3518
  359MOL0     C48376   8.245  11.160   7.955 -0.4232  0.5261  0.1339
  359MOL0     O48377   7.984  11.195   7.778 -0.3002 -0.2187 -0.2522
  359MOL0     C48378   7.904  10.855   7.721  0.5085  0.6520  0.2614
  359MOL0     C48379   7.805  10.785   7.656  0.0908 -0.7723  0.7865
  359MOL0     N48380   7.131  10.440   7.379  0.7618  0.1598  0.7147
  359MOL0     N48381   7.029  10.395   7.443 -0.0951 -1.4293 -0.3156
  359MOL0     C48382   5.680  10.263   7.779 -0.1234  0.1794 -0.3426
  359MOL0     C48383   5.540  10.224   7.785  0.5158 -0.3085 -0.0022
  359MOL0     C48384   5.176   9.985   7.660  0.5275 -0.1092  0.2617
  359MOL0     C48385   5.075  10.081   7.643 -0.6565 -0.1162 -0.0522
  359MOL0     C48386   4.945  10.037   7.621 -0.5626 -0.1342 -0.2386
  359MOL0     C48387   4.902   9.907   7.623 -0.2635  0.1825  0.5670
  359MOL0     O48388   4.769   9.874   7.605 -0.2771 -0.3009  0.3055
  359MOL0     C48389   4.700   9.826   7.722  0.0919  0.6902  0.2580
  359MOL0     C48390   4.549   9.858   7.715  0.4517  0.1431  0.2907
  359MOL0     C48391   4.488   9.818   7.580 -0.2124 -0.3218  0.1629
  359MOL0     C48392   4.331   9.845   7.587  0.1849  0.0206  0.0142
  359MOL0     C48393   4.285   9.815   7.454 -0.3262  0.4955 -0.1625
  359MOL0     C48394   4.234   9.800   7.346  0.0245 -0.3143  0.6400
  359MOL0     C48395   5.000   9.811   7.635  0.0688  0.6963  0.0205
  359MOL0     C48396   5.139   9.841   7.651  0.4019  0.0152 -0.0191
  359MOL0     C48397   5.245   9.734   7.657  0.1164 -0.2335  0.0029
  359MOL0     H48398   5.474  10.194   7.459 -0.5222 -0.4304  0.5524
  359MOL0     H48399   5.737  10.251   7.448 -1.0659  1.5496 -0.2320
  359MOL0     H48400   5.965  10.296   7.475  3.2024  1.2187 -0.6513
  359MOL0     H48401   5.890  10.452   7.525 -0.8262 -0.3190  1.7162
  359MOL0     H48402   6.123  10.323   7.673  0.0648  0.3446  0.3040
  359MOL0     H48403   6.062  10.493   7.690  1.4929  0.2070  0.4827
  359MOL0     H48404   6.131  10.544   7.478 -0.4641 -0.0464  0.0917
  359MOL0     H48405   6.171  10.372   7.433  0.7637 -0.0476  0.0503
  359MOL0     H48406   6.323  10.552   7.624 -3.5974 -1.1929  2.6534
  359MOL0     H48407   6.331  10.386   7.630  2.3758  1.3427 -0.1808
  359MOL0     H48408   6.394  10.390   7.374 -0.2908 -0.7721 -0.6596
  359MOL0     H48409   6.401  10.571   7.410 -0.2614 -0.8623 -0.0063
  359MOL0     H48410   6.548  10.541   7.592  0.5792  2.1089 -1.5248
  359MOL0     H48411   6.563  10.364   7.568 -0.0236 -0.6625  0.2135
  359MOL0     H48412   6.655  10.571   7.372 -3.2193  0.0792 -2.1935
  359MOL0     H48413   6.668  10.392   7.347  1.8742 -0.1341  0.5861
  359MOL0     H48414   6.786  10.548   7.578 -0.3061  0.9919 -0.6782
  359MOL0     H48415   6.797  10.369   7.551  1.9399  0.3620  0.7252
  359MOL0     H48416   6.927  10.692   7.343 -0.4453 -0.3769 -0.0224
  359MOL0     H48417   7.258  10.602   7.206  0.7266  0.0101 -0.1857
  359MOL0     H48418   7.123  10.716   7.188 -2.1316 -3.4659 -1.8650
  359MOL0     H48419   7.264  10.849   7.316 -1.6239 -0.3689 -3.1710
  359MOL0     H48420   7.178  10.761   7.448  1.2095 -0.5733  0.7014
  359MOL0     H48421   7.445  10.690   7.333 -1.8254  2.5671 -3.3079
  359MOL0     H48422   7.375  10.614   7.481  1.9755 -0.6754  0.4116
  359MOL0     H48423   7.399  10.845   7.598 -0.0721 -0.8155  0.6399
  359MOL0     H48424   7.473  10.907   7.447 -2.3611 -1.4695 -1.3345
  359MOL0     H48425   7.564  11.024   7.632  1.3400  1.4703  0.0855
  359MOL0     H48426   7.731  11.156   7.744  1.3962  0.8536 -0.8109
  359MOL0     H48427   8.306  10.918   7.712  0.6479  1.9927 -1.6572
  359MOL0     H48428   8.543  10.998   7.777 -0.3743 -0.4178 -1.2542
  359MOL0     H48429   8.554  11.373   7.935 -2.0670 -1.7967  0.0921
  359MOL0     H48430   8.629  11.313   8.079 -1.6076 -1.7090 -0.0571
  359MOL0     H48431   8.799  11.308   7.835 -0.8524 -1.5691  0.4110
  359MOL0     H48432   8.778  11.456   7.926 -1.0283  0.3844  1.7742
  359MOL0     H48433   8.851  11.317   8.134  1.2030 -0.2438  0.7794
  359MOL0     H48434   8.883  11.193   8.020 -1.3576 -0.4506  0.2100
  359MOL0     H48435   9.004  11.468   8.004  0.1195 -0.1862  1.4483
  359MOL0     H48436   9.054  11.327   7.899 -0.3018  0.4969 -1.5093
  359MOL0     H48437   9.120  11.213   8.128 -2.5057 -0.9110  1.6571
  359MOL0     H48438   9.055  11.346   8.210 -3.0636  0.7344 -1.8687
  359MOL0     H48439   9.210  11.495   8.154  0.3902  0.1196  2.8573
  359MOL0     H48440   9.300  11.359   8.202  0.7403 -0.5887 -0.3823
  359MOL0     H48441   9.241  11.449   7.918  0.4222  0.0559  0.8283
  359MOL0     H48442   9.315  11.292   7.955 -1.0674 -0.5921 -0.2055
  359MOL0     H48443   9.484  11.430   7.895 -1.1825 -1.9625 -1.0199
  359MOL0     H48444   9.405  11.573   7.976  3.9687  0.5164 -4.3813
  359MOL0     H48445   8.394  11.257   8.062  0.3829  0.0410 -0.3607
  359MOL0     H48446   8.168  11.202   8.020 -0.0965 -1.0548  1.6221
  359MOL0     H48447   7.996  10.802   7.747  1.1124  0.8430 -1.3913
  359MOL0     H48448   7.820  10.683   7.621  0.8233 -0.4068  0.0218
  359MOL0     H48449   5.747  10.289   7.861  0.8155 -1.4390 -0.5535
  359MOL0     H48450   5.489  10.238   7.879  0.3930  2.4609 -0.3870
  359MOL0     H48451   5.104  10.186   7.640  3.3177 -1.0317 -2.8321
  359MOL0     H48452   4.877  10.121   7.610  0.9772  0.9214 -2.4480
  359MOL0     H48453   4.738   9.881   7.809  2.5828  0.5544 -0.6575
  359MOL0     H48454   4.702   9.717   7.727  0.2316  0.5553 -1.8556
  359MOL0     H48455   4.532   9.965   7.733  0.2392  0.5008 -1.8390
  359MOL0     H48456   4.494   9.804   7.792  1.8662 -0.7187  0.7485
  359MOL0     H48457   4.512   9.712   7.570  3.0606  0.4255 -1.2115
  359MOL0     H48458   4.526   9.870   7.492  0.8050  0.8395  1.2419
  359MOL0     H48459   4.278   9.774   7.651 -2.3272  2.4906  0.8556
  359MOL0     H48460   4.306   9.947   7.619  0.0362  0.2226 -0.7227
  359MOL0     H48461   4.199   9.797   7.244  2.4293 -1.7414 -0.2337
  359MOL0     H48462   4.978   9.705   7.633  0.3266  0.4221  3.8879
  359MOL0     H48463   5.300   9.739   7.562 -0.1532 -0.4137 -0.1652
  359MOL0     H48464   5.306   9.742   7.747 -1.8677  1.2284  1.2896
  359MOL0     H48465   5.199   9.635   7.658  0.4178 -0.4175 -1.5410
  360MOL0     O48466   6.500   3.639   3.024 -0.7692 -0.1126 -0.3846
  360MOL0     C48467   6.525   3.558   2.937 -0.4670 -0.4070  0.1606
  360MOL0     O48468   6.648   3.551   2.879  0.2006  0.4266  0.3062
  360MOL0     C48469   6.735   3.660   2.883  0.5803  0.4430 -0.1155
  360MOL0     C48470   6.751   3.759   2.792  0.3940 -0.6837 -0.1936
  360MOL0     C48471   6.838   3.857   2.800 -0.1839 -0.6918 -0.3580
  360MOL0     C48472   6.931   3.863   2.906 -0.3587 -0.5099 -0.3518
  360MOL0     O48473   7.036   3.948   2.926 -0.0263 -0.1000 -0.7191
  360MOL0     C48474   7.070   4.029   2.811 -0.9709 -0.1831  0.4110
  360MOL0     C48475   7.200   4.114   2.826 -0.6129 -0.5710  0.0032
  360MOL0     C48476   7.325   4.019   2.811  0.0167 -1.3481  0.9749
  360MOL0     C48477   7.449   4.104   2.822 -0.5005  0.2035 -0.7134
  360MOL0     C48478   7.576   4.027   2.812  0.0861  0.4428  0.0909
  360MOL0     C48479   7.596   3.894   2.902 -0.3747  0.1814  0.1833
  360MOL0     C48480   7.734   3.834   2.880  0.2755 -1.0804 -0.1473
  360MOL0     C48481   7.758   3.704   2.948 -0.1971  0.2422  0.6160
  360MOL0     N48482   7.887   3.641   2.914 -0.0820  0.2804  0.4261
  360MOL0     C48483   8.009   3.711   2.913 -1.0545 -0.4756  0.1195
  360MOL0     C48484   8.110   3.628   2.878  0.6262 -0.2151  0.0635
  360MOL0     C48485   8.258   3.662   2.879  0.2472 -0.1377  0.1725
  360MOL0     C48486   8.343   3.644   2.759 -0.0679 -0.3507 -0.7695
  360MOL0     C48487   8.483   3.682   2.793 -0.5806 -0.7315 -0.1820
  360MOL0     C48488   8.577   3.682   2.668  0.3704 -0.2655 -0.6802
  360MOL0     O48489   8.707   3.710   2.721  0.3320  0.4934  0.0317
  360MOL0     C48490   8.823   3.678   2.658  0.4504 -0.3528  0.7864
  360MOL0     C48491   8.827   3.611   2.534  0.4993 -0.2113 -0.4591
  360MOL0     C48492   8.945   3.577   2.478 -0.0174 -0.2226 -0.2007
  360MOL0     C48493   9.071   3.621   2.533  1.0859 -0.0655 -0.1624
  360MOL0     C48494   9.195   3.593   2.462 -1.0092  0.8164  0.1332
  360MOL0     O48495   9.311   3.584   2.534  0.4337  0.0390  0.0911
  360MOL0     C48496   9.432   3.563   2.485 -0.0379 -0.2968  0.3403
  360MOL0     C48497   9.531   3.558   2.580 -0.3259  0.5832  0.4220
  360MOL0     C48498   9.667   3.528   2.548  0.4357  0.9980 -0.4161
  360MOL0     C48499   9.707   3.511   2.414 -0.0605  0.1285 -0.0028
  360MOL0     O48500   9.845   3.481   2.396 -0.2850 -0.4641 -0.9037
  360MOL0     C48501   9.873   3.394   2.290  0.6944  0.3568 -0.1820
  360MOL0     C48502  10.010   3.341   2.291 -0.5218 -0.2325 -0.6478
  360MOL0     C48503  10.111   3.440   2.355  0.3229 -0.1745  0.1843
  360MOL0     C48504  10.243   3.378   2.314  0.0983  1.0588 -0.6143
  360MOL0     C48505  10.362   3.416   2.407 -0.5938 -0.0233 -0.4264
  360MOL0     C48506  10.500   3.380   2.354 -0.6118 -0.3660  0.4279
  360MOL0     C48507  10.613   3.465   2.428 -0.4206 -0.4059 -0.7467
  360MOL0     C48508  10.749   3.451   2.365 -0.0417  0.4732  0.6594
  360MOL0    Cl48509  10.735   3.500   2.189  0.3517 -0.0981  0.0183
  360MOL0     C48510   9.612   3.535   2.310  0.4517  0.7868 -0.4668
  360MOL0     C48511   9.477   3.559   2.350  0.8937 -0.1302 -0.2229
  360MOL0     O48512   9.181   3.563   2.348 -0.3551  0.1609 -0.6051
  360MOL0     C48513   9.061   3.697   2.653  1.1931  0.6087 -0.4769
  360MOL0     C48514   8.944   3.718   2.715  0.0594  0.2492  0.2475
  360MOL0     N48515   8.051   3.511   2.854  0.3873  0.0909 -0.4184
  360MOL0     N48516   7.919   3.517   2.872 -0.0939  0.2254  0.5536
  360MOL0     C48517   6.915   3.767   3.005  0.0704 -0.6807  0.0994
  360MOL0     C48518   6.807   3.676   3.001  0.3038  0.3700  1.2265
  360MOL0     C48519   6.413   3.463   2.891  0.3866  0.2017 -0.2891
  360MOL0     C48520   6.451   3.357   2.821  0.2990  0.0549  0.2170
  360MOL0     C48521   6.356   3.268   2.769 -0.4431  0.3533  0.0813
  360MOL0     C48522   6.226   3.268   2.803 -0.4521  0.0483  0.6365
  360MOL0     O48523   6.135   3.183   2.744  0.1746 -1.2814  0.3949
  360MOL0     C48524   6.072   3.089   2.835 -0.2042 -0.7613  0.3252
  360MOL0     C48525   6.181   2.986   2.875  0.2615 -0.9062 -0.8633
  360MOL0     C48526   6.213   2.894   2.764  0.9814  0.8485  0.2713
  360MOL0     C48527   6.194   2.751   2.814 -0.6153 -0.8084  0.2128
  360MOL0     C48528   6.202   2.662   2.698  0.4723 -1.1534  0.2779
  360MOL0     C48529   6.180   2.580   2.609 -0.1664 -0.0959 -0.3917
  360MOL0     C48530   6.184   3.371   2.893 -0.2220 -0.1158  0.4130
  360MOL0     C48531   6.272   3.472   2.925 -0.8635  0.1795 -0.8949
  360MOL0     C48532   6.218   3.595   2.997 -0.2213 -0.0185 -0.3352
  360MOL0     H48533   6.690   3.751   2.703  1.5598 -1.5590 -0.9589
  360MOL0     H48534   6.846   3.927   2.717  1.3350 -1.0011 -0.5079
  360MOL0     H48535   7.072   3.964   2.723 -0.2615  0.5115 -0.1043
  360MOL0     H48536   6.997   4.109   2.793 -0.1618  1.0887  2.4309
  360MOL0     H48537   7.198   4.141   2.931 -2.4569 -1.1481  0.1456
  360MOL0     H48538   7.204   4.202   2.762  0.4209 -0.0704  0.7364
  360MOL0     H48539   7.312   3.967   2.716  0.2413 -0.5448  0.5052
  360MOL0     H48540   7.322   3.942   2.889 -2.0790 -2.3728 -0.0231
  360MOL0     H48541   7.443   4.185   2.749 -1.9833  0.3788 -0.4175
  360MOL0     H48542   7.450   4.156   2.918  1.6159  1.6778 -1.4630
  360MOL0     H48543   7.576   3.997   2.707 -0.8722  3.3926 -0.8543
  360MOL0     H48544   7.653   4.101   2.838 -1.1329  2.0236 -0.6252
  360MOL0     H48545   7.585   3.919   3.008  0.1341 -0.6208  0.4360
  360MOL0     H48546   7.516   3.829   2.867 -3.4536  2.7523  1.8479
  360MOL0     H48547   7.806   3.907   2.919 -0.2797  0.2165 -1.4425
  360MOL0     H48548   7.757   3.822   2.774  2.1558  1.3649 -0.1052
  360MOL0     H48549   7.760   3.707   3.057  2.1679  0.3444  0.6125
  360MOL0     H48550   7.686   3.626   2.920 -1.0503  0.2016  2.7242
  360MOL0     H48551   8.034   3.809   2.953  0.9847 -0.3363 -1.3433
  360MOL0     H48552   8.263   3.767   2.908 -1.9824 -0.2579  1.2005
  360MOL0     H48553   8.304   3.596   2.953 -2.0056 -3.5987 -1.2359
  360MOL0     H48554   8.332   3.538   2.739 -0.9618 -0.2481 -0.8451
  360MOL0     H48555   8.299   3.701   2.677  0.1524 -0.0431 -0.6796
  360MOL0     H48556   8.520   3.620   2.875  0.5998 -0.6981 -0.6800
  360MOL0     H48557   8.468   3.784   2.830  0.6961 -0.2272 -0.9912
  360MOL0     H48558   8.566   3.760   2.593  1.5403  0.7555  0.1842
  360MOL0     H48559   8.559   3.586   2.617 -0.6588 -2.7832  3.8385
  360MOL0     H48560   8.738   3.569   2.489  0.3648  3.0895 -3.7094
  360MOL0     H48561   8.938   3.515   2.388  1.2802 -1.3779  0.4523
  360MOL0     H48562   9.513   3.589   2.682 -0.6523  3.8208 -0.4921
  360MOL0     H48563   9.745   3.525   2.623 -0.0645  0.2493  0.0952
  360MOL0     H48564   9.805   3.308   2.283 -0.8573  1.5649 -0.6688
  360MOL0     H48565   9.863   3.451   2.197  1.5354  1.7962  0.5893
  360MOL0     H48566  10.007   3.257   2.361 -0.5676  2.1947  2.5265
  360MOL0     H48567  10.041   3.310   2.191  0.8032 -1.4069  0.0885
  360MOL0     H48568  10.101   3.543   2.319 -1.2472 -0.0907  0.7475
  360MOL0     H48569  10.097   3.440   2.464 -3.2521 -1.0688 -0.1414
  360MOL0     H48570  10.258   3.404   2.209 -0.1359 -3.1443 -1.8640
  360MOL0     H48571  10.239   3.268   2.308 -0.4024  1.0397  0.0393
  360MOL0     H48572  10.354   3.367   2.504  1.6783 -0.4655 -0.3879
  360MOL0     H48573  10.355   3.523   2.430 -2.4694 -0.3703  0.7813
  360MOL0     H48574  10.525   3.276   2.376 -1.3932  0.0691  4.0051
  360MOL0     H48575  10.495   3.397   2.246 -1.1918 -1.7862  0.2123
  360MOL0     H48576  10.622   3.434   2.532 -1.6791 -1.2796 -0.8838
  360MOL0     H48577  10.593   3.572   2.439 -0.2292 -0.5961  2.4387
  360MOL0     H48578  10.825   3.509   2.419  1.5740 -2.3642  1.6798
  360MOL0     H48579  10.786   3.349   2.384  0.9695  0.7089  0.0410
  360MOL0     H48580   9.644   3.534   2.207 -1.0904 -2.0712 -1.0238
  360MOL0     H48581   9.409   3.581   2.268  2.7936  0.6707 -1.6627
  360MOL0     H48582   9.147   3.751   2.690  1.0828 -0.0124  0.7767
  360MOL0     H48583   8.941   3.766   2.812 -4.0320 -0.6139  0.7591
  360MOL0     H48584   6.974   3.753   3.095  2.2418 -1.2700 -1.3165
  360MOL0     H48585   6.773   3.615   3.084 -0.6545  1.1059  1.3902
  360MOL0     H48586   6.551   3.323   2.797 -0.6713 -2.0073 -1.1412
  360MOL0     H48587   6.394   3.187   2.707 -0.1509 -0.6750  1.5433
  360MOL0     H48588   5.987   3.038   2.790 -2.2098  0.8230  2.1088
  360MOL0     H48589   6.028   3.148   2.916  0.2752  2.2704 -1.4514
  360MOL0     H48590   6.148   2.926   2.959 -0.4940 -0.8040 -1.0752
  360MOL0     H48591   6.271   3.039   2.905 -1.3008  2.8148 -2.0389
  360MOL0     H48592   6.308   2.907   2.713 -0.0915 -0.2920 -2.1659
  360MOL0     H48593   6.154   2.912   2.674  6.2110  1.4126 -3.5074
  360MOL0     H48594   6.275   2.727   2.883  0.8021  0.7595 -0.8265
  360MOL0     H48595   6.090   2.740   2.847 -1.5099 -2.5841 -2.7663
  360MOL0     H48596   6.146   2.508   2.538  0.2856  1.4073 -2.2185
  360MOL0     H48597   6.078   3.378   2.916 -0.2402  0.7625  0.0867
  360MOL0     H48598   6.110   3.609   2.982 -0.0847 -0.2241 -1.5432
  360MOL0     H48599   6.237   3.585   3.104  1.8355  0.7500 -0.5818
  360MOL0     H48600   6.262   3.683   2.949  0.1990 -0.2066 -0.2957
  361MOL0     O48601   6.717   0.667   5.115  0.0455 -0.4799 -0.8273
  361MOL0     C48602   6.634   0.689   5.029 -0.2950 -0.3427 -0.5292
  361MOL0     O48603   6.672   0.732   4.903  0.1154 -0.0558 -0.3656
  361MOL0     C48604   6.809   0.747   4.880  0.4362 -1.1246  0.3567
  361MOL0     C48605   6.878   0.629   4.870  0.9289  0.2266 -0.5909
  361MOL0     C48606   7.011   0.629   4.841 -0.1756 -0.2709 -0.2736
  361MOL0     C48607   7.084   0.744   4.819  0.2754 -0.8226 -0.1443
  361MOL0     O48608   7.216   0.737   4.789 -0.1263 -0.7030  0.4256
  361MOL0     C48609   7.291   0.856   4.747 -0.2407  0.5893  0.2552
  361MOL0     C48610   7.429   0.789   4.728  0.3314  0.4396 -0.5032
  361MOL0     C48611   7.539   0.896   4.730  0.2153 -0.4684 -0.0140
  361MOL0     C48612   7.678   0.839   4.748  0.8577  0.2203  0.4344
  361MOL0     C48613   7.778   0.947   4.719 -0.0765 -0.7748 -0.1887
  361MOL0     C48614   7.914   0.908   4.767  0.6871  0.3384 -0.3218
  361MOL0     C48615   8.024   1.000   4.721  0.2991 -0.5031 -0.7086
  361MOL0     C48616   8.159   0.989   4.803 -0.0457 -0.4465  0.7816
  361MOL0     N48617   8.245   1.106   4.788  1.1386  0.2867  0.0401
  361MOL0     C48618   8.219   1.230   4.844 -0.3362 -1.0468  0.5127
  361MOL0     C48619   8.326   1.307   4.814  0.6091 -0.5363  0.2031
  361MOL0     C48620   8.344   1.451   4.848  0.5702  0.3718 -0.4492
  361MOL0     C48621   8.347   1.542   4.721  0.3901  0.4440  0.3870
  361MOL0     C48622   8.452   1.499   4.621 -0.9248 -0.3373  0.6586
  361MOL0     C48623   8.590   1.499   4.684 -1.4223 -0.5074 -0.8309
  361MOL0     O48624   8.697   1.478   4.592 -0.1445 -0.4494  0.2400
  361MOL0     C48625   8.825   1.481   4.624 -0.6762 -0.1718  0.2203
  361MOL0     C48626   8.878   1.544   4.734  0.0173  0.7657 -0.6178
  361MOL0     C48627   9.019   1.532   4.760 -0.0480 -0.0897 -0.0173
  361MOL0     C48628   9.100   1.457   4.678  0.2516 -0.4062  0.1491
  361MOL0     C48629   9.243   1.449   4.701  0.2072  0.4308 -0.0112
  361MOL0     O48630   9.314   1.386   4.602 -0.1371  0.0860  0.0891
  361MOL0     C48631   9.449   1.361   4.622  0.6669  0.6107 -0.3710
  361MOL0     C48632   9.498   1.225   4.624 -0.0495  0.3885 -0.0577
  361MOL0     C48633   9.632   1.197   4.634  0.2269  0.7008  0.2384
  361MOL0     C48634   9.719   1.303   4.651 -0.5634 -0.0762  1.0457
  361MOL0     O48635   9.854   1.293   4.665 -1.1796  0.4052 -0.9150
  361MOL0     C48636   9.921   1.183   4.602  0.8519  0.3105  0.2045
  361MOL0     C48637   9.942   1.069   4.705  0.2838 -0.6652  0.0814
  361MOL0     C48638   9.935   0.941   4.627 -0.2382  0.1282 -0.4512
  361MOL0     C48639   9.932   0.830   4.725 -0.0083  0.0657  0.4794
  361MOL0     C48640   9.983   0.697   4.657 -0.2376  0.5393  0.2304
  361MOL0     C48641   9.910   0.577   4.726 -0.1658 -0.5422  0.3757
  361MOL0     C48642   9.990   0.443   4.705 -0.5898  0.1460  0.0016
  361MOL0     C48643   9.893   0.335   4.707  0.4340  0.4066  0.4140
  361MOL0    Cl48644   9.768   0.326   4.573 -0.6620 -0.0482 -0.0086
  361MOL0     C48645   9.677   1.442   4.653  0.2523 -0.4923  0.4526
  361MOL0     C48646   9.538   1.467   4.645 -0.7267  0.0967 -0.0371
  361MOL0     O48647   9.293   1.493   4.803  0.8256  0.1826  0.0311
  361MOL0     C48648   9.054   1.405   4.556  0.7059 -0.3013 -0.4981
  361MOL0     C48649   8.915   1.420   4.535 -0.5897 -0.5088  0.8707
  361MOL0     N48650   8.413   1.221   4.750 -0.2529 -0.2378  0.1107
  361MOL0     N48651   8.367   1.105   4.730  0.6113  0.3766  0.5070
  361MOL0     C48652   7.016   0.865   4.849  0.4498  0.0130  0.5997
  361MOL0     C48653   6.883   0.867   4.883  0.8027 -0.2199 -0.2084
  361MOL0     C48654   6.484   0.668   5.052 -0.2911 -0.4117  0.0646
  361MOL0     C48655   6.400   0.730   4.957  1.1559 -0.0637 -0.8556
  361MOL0     C48656   6.263   0.709   4.963  0.2297  0.5376 -0.0133
  361MOL0     C48657   6.203   0.623   5.059  0.0552  0.0837  0.2731
  361MOL0     O48658   6.068   0.594   5.059 -0.5085  0.8092  0.5395
  361MOL0     C48659   5.985   0.639   4.952 -0.2549 -0.0195  0.2545
  361MOL0     C48660   5.836   0.620   4.993  0.1369 -0.2621  0.0153
  361MOL0     C48661   5.763   0.633   4.859 -0.3821  0.2642  0.2106
  361MOL0     C48662   5.613   0.645   4.878 -0.3024  0.4284  0.0275
  361MOL0     C48663   5.559   0.641   4.745 -0.4106  0.0155 -0.8447
  361MOL0     C48664   5.508   0.668   4.642 -0.4802 -0.0936  0.3334
  361MOL0     C48665   6.288   0.558   5.146 -0.4841 -0.3084 -0.2031
  361MOL0     C48666   6.423   0.583   5.147 -1.1220  0.1484  1.1616
  361MOL0     C48667   6.497   0.521   5.255  1.2275  0.3825 -0.0653
  361MOL0     H48668   6.834   0.530   4.879  2.5540 -0.4998 -0.4389
  361MOL0     H48669   7.057   0.533   4.823  2.5188  0.8716 -0.0311
  361MOL0     H48670   7.264   0.893   4.648 -1.1355  0.1434  0.3186
  361MOL0     H48671   7.285   0.938   4.820  1.3336 -1.3771  2.7492
  361MOL0     H48672   7.440   0.722   4.642 -1.5372 -0.3772 -0.1695
  361MOL0     H48673   7.447   0.730   4.819 -0.6523  2.0358  0.7882
  361MOL0     H48674   7.518   0.970   4.808 -2.5579 -2.2014  1.0159
  361MOL0     H48675   7.528   0.946   4.633  0.7135  0.1344  0.2296
  361MOL0     H48676   7.678   0.795   4.849  0.4441  3.4892  1.9875
  361MOL0     H48677   7.689   0.761   4.673 -0.1840  0.8865 -0.4375
  361MOL0     H48678   7.769   0.963   4.611  0.7784  2.0773  0.0892
  361MOL0     H48679   7.747   1.036   4.772  1.3460 -1.6282  2.2292
  361MOL0     H48680   7.917   0.902   4.877 -2.7402  1.4980 -0.0485
  361MOL0     H48681   7.936   0.805   4.736  0.4518 -0.4937  2.0298
  361MOL0     H48682   7.983   1.097   4.753 -1.1068 -1.8387  1.8826
  361MOL0     H48683   8.037   1.003   4.613 -0.7539  1.1201 -0.8315
  361MOL0     H48684   8.141   0.972   4.909 -1.9068 -1.8822  0.2932
  361MOL0     H48685   8.212   0.906   4.756 -0.4446  1.5801 -3.7832
  361MOL0     H48686   8.134   1.261   4.905  0.8506  0.8505  1.2866
  361MOL0     H48687   8.254   1.475   4.904  1.5155 -2.4056  2.5572
  361MOL0     H48688   8.431   1.476   4.909  1.1191 -0.7052 -0.7539
  361MOL0     H48689   8.244   1.542   4.682  0.4118  0.6870  0.3281
  361MOL0     H48690   8.372   1.646   4.743  0.5010  0.3166  0.8767
  361MOL0     H48691   8.451   1.569   4.537 -1.0480  1.4712  2.1077
  361MOL0     H48692   8.431   1.400   4.579  0.4771 -0.5729  0.4811
  361MOL0     H48693   8.590   1.418   4.757 -0.6148  0.0929 -0.1470
  361MOL0     H48694   8.600   1.592   4.740  1.0595 -1.0262 -0.2788
  361MOL0     H48695   8.818   1.605   4.802 -1.9579 -1.3396 -0.3526
  361MOL0     H48696   9.059   1.576   4.851 -1.7260 -2.0171  1.7832
  361MOL0     H48697   9.431   1.141   4.618  1.1948 -0.6495  0.1317
  361MOL0     H48698   9.674   1.097   4.632 -2.1609 -0.3951 -2.2887
  361MOL0     H48699   9.849   1.148   4.528 -0.1254  1.2247  0.6942
  361MOL0     H48700  10.011   1.199   4.541  0.6407  0.7118 -0.0110
  361MOL0     H48701  10.035   1.088   4.759  1.3884  0.0026 -1.9472
  361MOL0     H48702   9.863   1.073   4.782  1.8606  1.5612  1.7181
  361MOL0     H48703   9.841   0.926   4.572  0.0648 -1.9410 -0.4735
  361MOL0     H48704  10.028   0.945   4.571  1.7952  0.5362  2.6900
  361MOL0     H48705   9.832   0.818   4.766  0.4035 -0.6553  1.3324
  361MOL0     H48706  10.002   0.854   4.806 -0.6427 -0.6884  1.2731
  361MOL0     H48707  10.092   0.696   4.665 -0.2030  1.3389 -0.0335
  361MOL0     H48708   9.961   0.681   4.551 -0.2367 -1.3482  0.4704
  361MOL0     H48709   9.894   0.592   4.833 -0.9971 -2.4007  0.5527
  361MOL0     H48710   9.810   0.577   4.681 -1.5617 -0.6545  3.2821
  361MOL0     H48711  10.067   0.439   4.782 -2.3081 -1.1171  1.7390
  361MOL0     H48712  10.033   0.440   4.605 -3.0250  0.0361 -1.1180
  361MOL0     H48713   9.942   0.237   4.709 -1.5010 -0.6087  1.1977
  361MOL0     H48714   9.838   0.344   4.802 -1.5497 -1.9837 -0.3951
  361MOL0     H48715   9.752   1.520   4.658  0.1559 -0.2998 -0.8009
  361MOL0     H48716   9.519   1.574   4.647  1.5563  0.6891 -3.0754
  361MOL0     H48717   9.114   1.358   4.479  1.1659 -0.7781  0.1483
  361MOL0     H48718   8.885   1.380   4.439  1.4965 -1.5412  0.5990
  361MOL0     H48719   7.077   0.954   4.853  2.1477 -0.9062 -2.0209
  361MOL0     H48720   6.838   0.963   4.905  0.4305 -0.2528 -0.8127
  361MOL0     H48721   6.429   0.802   4.880  1.7669  0.9493  0.2869
  361MOL0     H48722   6.204   0.759   4.887 -1.7142 -1.5540  0.0214
  361MOL0     H48723   6.011   0.596   4.855  1.0283 -0.1477  0.6300
  361MOL0     H48724   6.003   0.745   4.934  1.2728 -0.3051 -0.0597
  361MOL0     H48725   5.810   0.698   5.065 -1.2783  0.1276 -0.8621
  361MOL0     H48726   5.827   0.520   5.037 -0.4961 -0.9268 -1.5557
  361MOL0     H48727   5.792   0.542   4.805 -0.9963 -0.1638  0.5914
  361MOL0     H48728   5.804   0.724   4.813 -1.7374  1.1933  0.7897
  361MOL0     H48729   5.565   0.569   4.940 -0.4380  0.0678 -0.5094
  361MOL0     H48730   5.595   0.744   4.920 -0.8318 -0.6139  2.4075
  361MOL0     H48731   5.456   0.704   4.555 -2.2455  3.0346  2.5034
  361MOL0     H48732   6.247   0.493   5.223 -1.6402  0.5193 -0.1012
  361MOL0     H48733   6.434   0.460   5.320  1.1417 -1.0383 -1.4262
  361MOL0     H48734   6.564   0.451   5.205 -0.3199 -0.7850 -0.6079
  361MOL0     H48735   6.545   0.598   5.316 -0.9150  1.7974 -0.0371
  362MOL0     O48736   4.184  10.993   8.196 -0.3801  0.1970 -0.0905
  362MOL0     C48737   4.185  11.078   8.104 -0.2990  0.0963 -0.1872
  362MOL0     O48738   4.296  11.157   8.074 -0.4850  0.3473  0.5000
  362MOL0     C48739   4.412  11.144   8.147 -0.0543 -0.1978  0.0072
  362MOL0     C48740   4.500  11.037   8.135 -0.5569  0.4983 -0.2742
  362MOL0     C48741   4.624  11.035   8.198 -0.0667 -0.7215  0.0785
  362MOL0     C48742   4.667  11.152   8.267 -0.5418 -0.0187 -0.0164
  362MOL0     O48743   4.793  11.141   8.318 -0.0613  0.1369  0.3249
  362MOL0     C48744   4.841  11.258   8.387 -0.4409  0.0598  0.5461
  362MOL0     C48745   4.987  11.240   8.430 -0.2767 -0.2616  1.1165
  362MOL0     C48746   4.998  11.139   8.553 -0.1340  0.5454 -0.7893
  362MOL0     C48747   5.123  11.145   8.641  0.0751 -0.3647 -0.6070
  362MOL0     C48748   5.140  11.021   8.729  0.2101 -0.2395 -0.2561
  362MOL0     C48749   5.256  11.030   8.829  0.0812 -0.5264 -0.5925
  362MOL0     C48750   5.277  10.892   8.891  0.4576  0.4366  0.1354
  362MOL0     C48751   5.388  10.899   8.992  0.1069 -1.1351 -0.1988
  362MOL0     N48752   5.511  10.845   8.941  0.3445  0.4145  0.0815
  362MOL0     C48753   5.585  10.893   8.832  0.0506  0.3036 -0.1970
  362MOL0     C48754   5.694  10.808   8.815 -0.4892  0.7417 -0.1583
  362MOL0     C48755   5.805  10.816   8.716 -0.0649 -0.4832  0.0048
  362MOL0     C48756   5.939  10.840   8.793  0.6717 -0.0676 -0.4334
  362MOL0     C48757   6.010  10.719   8.832  0.3862  0.6424  0.3680
  362MOL0     C48758   6.129  10.742   8.919  0.1620  0.0561 -0.1075
  362MOL0     O48759   6.251  10.758   8.842  0.4591  0.8382 -0.0355
  362MOL0     C48760   6.362  10.822   8.895 -0.7824  0.0102  0.6950
  362MOL0     C48761   6.472  10.747   8.924 -1.0648 -0.5895 -0.1389
  362MOL0     C48762   6.580  10.803   8.987 -0.3277  0.3901 -0.2777
  362MOL0     C48763   6.592  10.940   9.007 -0.0802 -0.5788 -0.4901
  362MOL0     C48764   6.716  10.992   9.070  0.5585 -0.9947  0.2199
  362MOL0     O48765   6.727  11.127   9.084  0.3048 -0.5021  0.3085
  362MOL0     C48766   6.810  11.173   9.187  0.0413  0.4196  0.5083
  362MOL0     C48767   6.950  11.153   9.183  0.3272 -0.1874 -0.3203
  362MOL0     C48768   7.030  11.219   9.281  0.0829  0.1379 -0.2244
  362MOL0     C48769   6.972  11.295   9.391 -0.6489  0.3810  0.7189
  362MOL0     O48770   7.035  11.362   9.486  0.3053 -1.0995  0.6891
  362MOL0     C48771   7.160  11.313   9.540  0.3299  0.0182  0.5252
  362MOL0     C48772   7.290  11.374   9.480  0.0410  0.2861 -0.4381
  362MOL0     C48773   7.404  11.342   9.583  0.0525 -1.1857  0.5852
  362MOL0     C48774   7.434  11.204   9.605  0.3577  0.3444  0.0758
  362MOL0     C48775   7.562  11.179   9.676  0.4211  0.1161 -0.0822
  362MOL0     C48776   7.686  11.213   9.609 -0.1974 -0.5844 -0.8765
  362MOL0     C48777   7.815  11.148   9.666 -0.8402 -0.8852  0.3156
  362MOL0     C48778   7.810  10.998   9.690 -0.8881  0.8244 -0.1497
  362MOL0    Cl48779   7.991  10.946   9.709  0.1864  0.0468  0.4160
  362MOL0     C48780   6.835  11.309   9.393 -0.0782 -0.3465 -0.1259
  362MOL0     C48781   6.755  11.245   9.297  0.5626 -0.0962 -0.1418
  362MOL0     O48782   6.792  10.907   9.123 -0.3787  0.0911 -0.2917
  362MOL0     C48783   6.476  11.021   8.972 -0.1575  0.5264  0.1830
  362MOL0     C48784   6.362  10.955   8.922 -0.1217  0.1697 -0.4076
  362MOL0     N48785   5.688  10.710   8.914 -0.5114  0.0021 -0.4908
  362MOL0     N48786   5.583  10.742   8.987  0.3638  0.8779 -0.0848
  362MOL0     C48787   4.574  11.262   8.287 -1.4036 -0.2464 -0.1486
  362MOL0     C48788   4.445  11.251   8.227  0.3670  0.4753 -0.3846
  362MOL0     C48789   4.046  11.109   8.033 -0.4446 -0.0451  0.0966
  362MOL0     C48790   4.037  11.227   7.956 -0.1088 -0.1290  0.5327
  362MOL0     C48791   3.920  11.258   7.883  0.5113 -0.0872 -0.4143
  362MOL0     C48792   3.811  11.166   7.885 -0.2223 -0.4457  0.0918
  362MOL0     O48793   3.694  11.200   7.823  0.3953 -0.0774 -0.4195
  362MOL0     C48794   3.564  11.134   7.875  0.0609  0.3403  0.2616
  362MOL0     C48795   3.525  11.168   8.021  0.3064  0.3600 -0.4598
  362MOL0     C48796   3.491  11.311   8.046 -0.6588 -0.1399  0.2269
  362MOL0     C48797   3.466  11.351   8.190  0.5764  0.4491  0.7281
  362MOL0     C48798   3.332  11.298   8.224  0.2600 -0.4248  0.6823
  362MOL0     C48799   3.219  11.253   8.236 -0.4366 -0.3892 -0.9051
  362MOL0     C48800   3.825  11.045   7.948  0.0978  0.4534 -0.4907
  362MOL0     C48801   3.931  11.019   8.029 -0.7902  0.1604  0.0297
  362MOL0     C48802   3.948  10.878   8.085  0.0675 -0.1699  0.6738
  362MOL0     H48803   4.472  10.948   8.079 -2.7494 -0.1591  1.6972
  362MOL0     H48804   4.686  10.946   8.209  0.1833 -0.6481 -0.7011
  362MOL0     H48805   4.825  11.351   8.332 -2.6306 -0.3183  0.4270
  362MOL0     H48806   4.782  11.266   8.478  0.4039 -1.4790  1.2704
  362MOL0     H48807   5.027  11.334   8.470 -2.2660  0.9488  0.4340
  362MOL0     H48808   5.048  11.209   8.345 -0.2024  0.5070  0.8788
  362MOL0     H48809   4.984  11.038   8.513  0.4863 -0.6599  1.8010
  362MOL0     H48810   4.909  11.154   8.614 -0.8091  0.5198 -1.7543
  362MOL0     H48811   5.208  11.153   8.573  0.0358 -0.2671 -0.6444
  362MOL0     H48812   5.123  11.234   8.703 -3.2205 -2.2642  2.5504
  362MOL0     H48813   5.057  10.991   8.793  1.3051 -1.4104  0.6650
  362MOL0     H48814   5.155  10.937   8.661 -2.4759  1.5860 -3.4441
  362MOL0     H48815   5.350  11.062   8.784 -0.2976 -0.0568 -1.0614
  362MOL0     H48816   5.219  11.085   8.916  0.0400 -1.4988  0.0242
  362MOL0     H48817   5.303  10.828   8.806 -1.0152 -0.7802  0.5499
  362MOL0     H48818   5.189  10.844   8.935  1.0390 -1.8015 -0.9874
  362MOL0     H48819   5.415  11.002   9.020 -1.7852 -1.0829  1.7008
  362MOL0     H48820   5.373  10.837   9.081  1.4339 -0.2103  0.7063
  362MOL0     H48821   5.569  10.984   8.775 -1.4045  1.5767  2.0880
  362MOL0     H48822   5.798  10.716   8.674  1.6599 -1.2061  1.3417
  362MOL0     H48823   5.787  10.890   8.637  1.9913 -0.6263 -0.6513
  362MOL0     H48824   6.004  10.890   8.721 -1.2141  1.9750 -0.8567
  362MOL0     H48825   5.919  10.901   8.882 -1.5561 -1.8716  0.4239
  362MOL0     H48826   6.031  10.657   8.744 -1.2694  0.5567  0.0030
  362MOL0     H48827   5.935  10.661   8.887 -1.6894  3.3012  0.5371
  362MOL0     H48828   6.129  10.650   8.979  1.9153  0.7163  0.9796
  362MOL0     H48829   6.107  10.820   8.991  1.9878 -0.4767  1.0891
  362MOL0     H48830   6.477  10.640   8.902 -1.0500 -0.0402 -3.2689
  362MOL0     H48831   6.661  10.734   9.010 -0.5668  0.2141  0.0459
  362MOL0     H48832   6.987  11.104   9.094  0.3936 -3.0730  1.1459
  362MOL0     H48833   7.137  11.203   9.271  0.1514 -2.2788  2.8058
  362MOL0     H48834   7.155  11.324   9.649  1.6841 -4.2038  1.1739
  362MOL0     H48835   7.161  11.205   9.525 -0.6075  0.1514 -0.6969
  362MOL0     H48836   7.307  11.332   9.381 -0.3108 -0.3948 -0.2140
  362MOL0     H48837   7.281  11.483   9.469 -1.9513  0.1317 -0.8029
  362MOL0     H48838   7.490  11.400   9.546  0.0895 -0.0021  2.3846
  362MOL0     H48839   7.396  11.402   9.675 -2.2788  1.6871 -1.3099
  362MOL0     H48840   7.433  11.150   9.510 -0.1291 -2.5645  1.6383
  362MOL0     H48841   7.357  11.161   9.669  0.4380 -4.7624 -2.7767
  362MOL0     H48842   7.561  11.071   9.693  1.8715  0.5138  3.4500
  362MOL0     H48843   7.558  11.236   9.769  0.0029  0.5161 -0.3474
  362MOL0     H48844   7.683  11.184   9.504  1.2308  0.7684 -1.3296
  362MOL0     H48845   7.697  11.322   9.605 -2.0605 -0.3129  0.2136
  362MOL0     H48846   7.838  11.196   9.762 -0.5050 -1.7663  0.6793
  362MOL0     H48847   7.896  11.165   9.594 -1.7285  1.2359 -0.2539
  362MOL0     H48848   7.768  10.969   9.787  4.6209 -1.6271  1.9204
  362MOL0     H48849   7.756  10.951   9.607  1.5460 -1.5278 -0.5232
  362MOL0     H48850   6.780  11.370   9.463 -0.8614  1.0089 -1.8329
  362MOL0     H48851   6.647  11.255   9.307  0.5087 -0.1868 -0.6090
  362MOL0     H48852   6.495  11.127   8.988  2.7638  0.1763 -0.3384
  362MOL0     H48853   6.277  11.019   8.900  1.1853  2.0686 -0.1780
  362MOL0     H48854   4.597  11.350   8.347  0.2508  1.1970 -2.7045
  362MOL0     H48855   4.370  11.327   8.250  0.4164  0.2528  0.5856
  362MOL0     H48856   4.127  11.288   7.959  0.4145 -0.9205  1.7124
  362MOL0     H48857   3.911  11.355   7.834 -2.2015  0.6968  1.4262
  362MOL0     H48858   3.551  11.027   7.856 -1.2292  0.4468  0.4774
  362MOL0     H48859   3.494  11.186   7.808  0.9897  0.4206 -0.6732
  362MOL0     H48860   3.609  11.152   8.089  0.5500 -0.6458 -0.9765
  362MOL0     H48861   3.446  11.099   8.050  0.4737 -0.5476 -2.0539
  362MOL0     H48862   3.402  11.328   7.984 -1.8146 -1.2145  1.5177
  362MOL0     H48863   3.581  11.364   8.016  0.9547 -2.7147  0.1523
  362MOL0     H48864   3.548  11.311   8.250 -0.0517 -0.3744  1.0662
  362MOL0     H48865   3.470  11.460   8.193 -1.7026  0.5670  1.4164
  362MOL0     H48866   3.120  11.213   8.230 -1.3548  1.8899 -2.9218
  362MOL0     H48867   3.764  10.957   7.931  1.1242 -0.0602 -1.6517
  362MOL0     H48868   3.864  10.814   8.054 -0.5648 -0.9793  3.7444
  362MOL0     H48869   4.042  10.842   8.043  0.4040  1.0515  0.3443
  362MOL0     H48870   3.943  10.887   8.194 -1.8691  1.8569  0.4859
  363MOL0     O48871   5.920   2.471   0.050  0.6851 -0.7607  0.1959
  363MOL0     C48872   5.895   2.587   0.022 -0.2029 -0.3346  0.6952
  363MOL0     O48873   5.973   2.690   0.055  0.8068 -0.8245 -0.2488
  363MOL0     C48874   6.103   2.669   0.091 -0.9037 -0.0102  0.1273
  363MOL0     C48875   6.182   2.556   0.046  0.2788  0.8549  0.5003
  363MOL0     C48876   6.313   2.544   0.072 -0.0422  0.5711 -0.0685
  363MOL0     C48877   6.375   2.641   0.148  0.1789 -0.7570  0.6759
  363MOL0     O48878   6.517   2.629   0.148 -0.3260 -0.0758  0.3491
  363MOL0     C48879   6.604   2.727   0.212  0.2762  0.2323  0.3000
  363MOL0     C48880   6.744   2.714   0.155 -0.4723 -0.6729  0.3430
  363MOL0     C48881   6.845   2.803   0.227 -0.2346  0.0745  0.3861
  363MOL0     C48882   6.989   2.784   0.172 -0.0872 -0.8503  0.0625
  363MOL0     C48883   7.089   2.884   0.232 -0.1265 -0.3543 -0.2295
  363MOL0     C48884   7.217   2.908   0.143  0.5785 -0.6223 -0.4947
  363MOL0     C48885   7.349   2.839   0.180 -0.4871 -0.8047 -0.1684
  363MOL0     C48886   7.407   2.896   0.310 -0.2891 -0.0029 -0.5480
  363MOL0     N48887   7.554   2.880   0.309 -0.1120  0.3388 -0.3977
  363MOL0     C48888   7.651   2.971   0.260  0.9460  0.0551 -0.0620
  363MOL0     C48889   7.762   2.906   0.258 -0.4179  0.2255  0.0518
  363MOL0     C48890   7.890   2.958   0.201 -0.6470  0.2067  0.1991
  363MOL0     C48891   8.010   2.945   0.297 -0.1002  0.1055 -0.2761
  363MOL0     C48892   7.981   3.001   0.437  0.3880  0.2116 -0.4446
  363MOL0     C48893   8.104   2.987   0.518 -0.7852  1.0307 -0.8503
  363MOL0     O48894   8.204   3.086   0.482 -0.1154 -0.0831  0.8804
  363MOL0     C48895   8.338   3.065   0.526 -0.2222 -0.2932 -0.2486
  363MOL0     C48896   8.381   2.994   0.639 -0.1442 -0.4138  0.0821
  363MOL0     C48897   8.517   3.001   0.676 -0.0212 -1.1258 -1.1432
  363MOL0     C48898   8.612   3.065   0.603 -0.5055  0.0682 -0.0380
  363MOL0     C48899   8.758   3.053   0.650 -0.3531 -0.4379 -0.3706
  363MOL0     O48900   8.852   3.129   0.584  0.1230 -0.5624 -0.0400
  363MOL0     C48901   8.984   3.104   0.606  0.5209 -0.8684  0.0092
  363MOL0     C48902   9.035   2.973   0.613  0.0751  0.1063  0.4736
  363MOL0     C48903   9.172   2.957   0.624 -0.1285  0.2493  0.2879
  363MOL0     C48904   9.260   3.065   0.639 -0.0148 -0.1554  0.4018
  363MOL0     O48905   9.390   3.035   0.653 -0.2763  0.4146  0.2179
  363MOL0     C48906   9.488   3.135   0.668 -0.2616  0.2809 -0.6768
  363MOL0     C48907   9.619   3.057   0.680  0.9694  0.0578  0.3327
  363MOL0     C48908   9.740   3.160   0.684  0.7913 -0.1301  0.0998
  363MOL0     C48909   9.875   3.090   0.714 -0.0846 -0.7963 -1.2256
  363MOL0     C48910   9.984   3.200   0.735  1.3456  0.4029  0.1325
  363MOL0     C48911  10.124   3.134   0.726 -0.2199 -0.2055 -0.0784
  363MOL0     C48912  10.239   3.228   0.742  0.2623 -0.3472  0.1892
  363MOL0     C48913  10.366   3.170   0.687 -0.2270  0.1776  0.0229
  363MOL0    Cl48914  10.390   3.009   0.776 -0.3265  0.1331  0.4810
  363MOL0     C48915   9.205   3.196   0.622 -0.2591  0.0125 -0.3207
  363MOL0     C48916   9.067   3.207   0.620  0.3490  0.6996  0.1021
  363MOL0     O48917   8.781   2.978   0.746 -0.6002  0.0568  0.1168
  363MOL0     C48918   8.578   3.130   0.484 -0.2907 -0.0875 -0.2905
  363MOL0     C48919   8.438   3.123   0.443 -0.2555 -0.2664 -0.4660
  363MOL0     N48920   7.738   2.769   0.285  0.3451 -0.6988  0.2794
  363MOL0     N48921   7.610   2.759   0.324 -0.1998 -0.1051  0.1307
  363MOL0     C48922   6.299   2.756   0.195  0.0474  0.1643 -0.5777
  363MOL0     C48923   6.167   2.775   0.159 -0.0495  0.9909 -1.0782
  363MOL0     C48924   5.762   2.631  -0.027  0.3122  0.0350 -0.1189
  363MOL0     C48925   5.727   2.768  -0.016  0.2405 -0.3253  0.0765
  363MOL0     C48926   5.603   2.819  -0.048  0.2223 -0.3641  0.8115
  363MOL0     C48927   5.500   2.734  -0.089 -0.7887 -0.2548  0.3939
  363MOL0     O48928   5.384   2.794  -0.112 -0.4106 -0.0448 -1.1475
  363MOL0     C48929   5.323   2.761  -0.227  0.7843 -0.1495  0.0503
  363MOL0     C48930   5.219   2.870  -0.268  0.8364 -0.4250  0.0730
  363MOL0     C48931   5.295   3.000  -0.266 -0.1337 -0.1623 -0.5296
  363MOL0     C48932   5.202   3.120  -0.318 -0.1104  1.1951  0.1159
  363MOL0     C48933   5.121   3.078  -0.435 -0.1893 -0.4388  1.0848
  363MOL0     C48934   5.045   3.055  -0.531  0.9780  0.5905 -0.2575
  363MOL0     C48935   5.536   2.600  -0.116 -0.2629 -0.1289 -0.4297
  363MOL0     C48936   5.662   2.550  -0.079 -0.2708 -0.3759 -0.3012
  363MOL0     C48937   5.682   2.404  -0.102 -0.4251 -1.1576 -0.3191
  363MOL0     H48938   6.145   2.480  -0.022  2.7759 -0.3153  0.3395
  363MOL0     H48939   6.358   2.452   0.037 -0.9273 -0.3136  1.0317
  363MOL0     H48940   6.561   2.824   0.185  1.5829  0.0731 -2.7871
  363MOL0     H48941   6.607   2.712   0.320 -2.5699  1.1322  0.5652
  363MOL0     H48942   6.744   2.751   0.052  1.2769  1.0202  0.9033
  363MOL0     H48943   6.769   2.607   0.150 -0.4768 -0.6594 -0.0458
  363MOL0     H48944   6.828   2.766   0.328  0.5862  1.6881  1.1412
  363MOL0     H48945   6.821   2.909   0.215 -1.9107 -0.1744  1.3650
  363MOL0     H48946   7.025   2.680   0.179 -0.9143 -1.1415  0.1426
  363MOL0     H48947   6.987   2.804   0.065  1.8951  1.5825  0.3859
  363MOL0     H48948   7.037   2.978   0.253  1.0297  0.2648 -0.0637
  363MOL0     H48949   7.112   2.843   0.331 -1.6584  0.8656  0.6937
  363MOL0     H48950   7.198   2.867   0.044  0.1959  1.4290 -1.3214
  363MOL0     H48951   7.234   3.015   0.127 -0.2508 -0.4348 -0.2186
  363MOL0     H48952   7.418   2.844   0.095  1.4337 -3.4915  1.0919
  363MOL0     H48953   7.328   2.732   0.186 -0.1960 -0.8229  0.5579
  363MOL0     H48954   7.389   3.003   0.322 -3.0648 -0.6272  2.4903
  363MOL0     H48955   7.357   2.850   0.397  0.1360  0.9300  0.2033
  363MOL0     H48956   7.626   3.073   0.232 -0.8375  0.1150  1.5231
  363MOL0     H48957   7.920   2.896   0.117 -0.6030  1.0115 -0.3953
  363MOL0     H48958   7.882   3.063   0.170  0.8982  0.9889  2.1735
  363MOL0     H48959   8.030   2.838   0.300 -0.6004  0.0157  0.0985
  363MOL0     H48960   8.099   2.981   0.244 -0.7976  0.4464 -1.2608
  363MOL0     H48961   7.892   2.962   0.487 -2.0363  3.4936 -1.8178
  363MOL0     H48962   7.958   3.107   0.424 -0.8681 -0.1324 -1.2029
  363MOL0     H48963   8.140   2.885   0.501 -0.0613  0.9644  0.9097
  363MOL0     H48964   8.094   3.017   0.623  0.0965  2.3841 -1.1247
  363MOL0     H48965   8.310   2.948   0.708  1.2452 -0.3752  1.5890
  363MOL0     H48966   8.532   2.957   0.774  0.4917  3.0194  0.8256
  363MOL0     H48967   8.962   2.893   0.621 -3.9221  3.5156  2.4429
  363MOL0     H48968   9.209   2.855   0.628  0.5320  0.5347  2.5024
  363MOL0     H48969   9.482   3.201   0.581  2.7666  1.1835 -0.3238
  363MOL0     H48970   9.471   3.199   0.756 -1.9594  1.0334 -1.5145
  363MOL0     H48971   9.626   2.999   0.772 -0.5406  2.4477  2.0895
  363MOL0     H48972   9.616   2.994   0.591 -0.2124  1.6978 -0.8680
  363MOL0     H48973   9.734   3.207   0.585 -1.4126 -1.8499 -0.6591
  363MOL0     H48974   9.723   3.232   0.765  2.5634 -0.9293  1.2434
  363MOL0     H48975   9.907   3.019   0.637  3.4318 -0.3237 -0.3399
  363MOL0     H48976   9.865   3.025   0.801  0.0905  1.4977  0.5917
  363MOL0     H48977   9.965   3.248   0.832 -1.5408  0.4604 -0.3669
  363MOL0     H48978   9.968   3.279   0.661 -2.5302  0.1055  0.4435
  363MOL0     H48979  10.143   3.057   0.802 -0.9802  0.7352  1.0932
  363MOL0     H48980  10.132   3.096   0.623  0.1519  3.2127 -1.4217
  363MOL0     H48981  10.247   3.261   0.846  1.5714  1.7174 -0.5072
  363MOL0     H48982  10.215   3.316   0.682 -0.8942 -1.3430 -0.9023
  363MOL0     H48983  10.350   3.164   0.579 -2.6791  0.9657  0.2861
  363MOL0     H48984  10.450   3.237   0.707  0.4395 -0.7156  0.2503
  363MOL0     H48985   9.272   3.280   0.636 -0.2092  0.2242 -1.6995
  363MOL0     H48986   9.025   3.306   0.639 -1.4953 -0.2459  1.2899
  363MOL0     H48987   8.655   3.183   0.428 -0.0026 -0.1607  0.0318
  363MOL0     H48988   8.400   3.179   0.359 -2.0660  0.2120  0.6226
  363MOL0     H48989   6.351   2.835   0.247  2.0645 -2.5802  1.9218
  363MOL0     H48990   6.100   2.858   0.176  1.4812  2.0426  0.1510
  363MOL0     H48991   5.803   2.839   0.016 -1.0078  0.1018  2.3537
  363MOL0     H48992   5.573   2.924  -0.043  1.5410  0.1842 -1.4591
  363MOL0     H48993   5.263   2.670  -0.220 -0.1484  0.4958  0.6647
  363MOL0     H48994   5.394   2.748  -0.309  0.1060 -1.0481 -0.4099
  363MOL0     H48995   5.136   2.868  -0.196 -1.0947 -0.4957 -2.0508
  363MOL0     H48996   5.171   2.848  -0.364 -0.6101  2.1880  0.0997
  363MOL0     H48997   5.391   2.988  -0.315 -1.0974 -2.5731 -2.0222
  363MOL0     H48998   5.326   3.032  -0.166 -2.5230  2.0555 -0.3616
  363MOL0     H48999   5.139   3.159  -0.238  0.9064  1.2780  0.9029
  363MOL0     H49000   5.268   3.201  -0.351  0.0564  0.9470 -0.1649
  363MOL0     H49001   4.987   3.044  -0.620 -0.2494 -0.6402  0.6580
  363MOL0     H49002   5.462   2.531  -0.156  0.2089 -1.8025  1.4076
  363MOL0     H49003   5.785   2.387  -0.134  0.3610  0.8940  0.9602
  363MOL0     H49004   5.657   2.360  -0.005 -1.8367 -1.2929 -0.7190
  363MOL0     H49005   5.611   2.364  -0.176  0.8438 -1.8711 -1.1829
  364MOL0     O49006   1.382   7.119  11.001  0.1251  0.2163  0.1324
  364MOL0     C49007   1.317   7.197  10.929 -0.2873 -0.0093 -0.1875
  364MOL0     O49008   1.368   7.292  10.847 -0.4607  0.4402  0.5811
  364MOL0     C49009   1.500   7.310  10.826  0.1251  0.9597 -0.1694
  364MOL0     C49010   1.548   7.357  10.706 -0.7505 -0.3266 -0.0474
  364MOL0     C49011   1.687   7.383  10.693  0.4389 -0.0686 -0.0124
  364MOL0     C49012   1.781   7.344  10.793 -0.5557  0.0873 -0.2458
  364MOL0     O49013   1.917   7.361  10.778 -0.6466  0.9653  0.2375
  364MOL0     C49014   1.976   7.368  10.647 -0.5607 -0.0079  0.3006
  364MOL0     C49015   2.127   7.310  10.655  0.7477 -0.6457 -0.1004
  364MOL0     C49016   2.170   7.314  10.509 -0.3477  0.0358  0.4718
  364MOL0     C49017   2.291   7.219  10.473 -0.6733  0.0020  0.0559
  364MOL0     C49018   2.410   7.301  10.507 -0.5233  0.2890 -0.5163
  364MOL0     C49019   2.532   7.218  10.527 -1.0566 -0.2191  0.2245
  364MOL0     C49020   2.662   7.305  10.517 -0.0975 -0.0043 -0.9154
  364MOL0     C49021   2.779   7.212  10.547 -0.1497  0.5747  0.1372
  364MOL0     N49022   2.896   7.275  10.599  0.2311  0.8706  1.0151
  364MOL0     C49023   2.998   7.335  10.535 -0.2539 -0.8108 -0.2404
  364MOL0     C49024   3.092   7.371  10.627  0.0914 -0.5557  0.1874
  364MOL0     C49025   3.220   7.453  10.596 -0.0859  0.0022 -0.6630
  364MOL0     C49026   3.333   7.353  10.563 -0.3695 -0.1943  0.2281
  364MOL0     C49027   3.464   7.420  10.523  0.1990 -0.1292  0.1007
  364MOL0     C49028   3.557   7.420  10.641  0.1945  0.7205  0.9130
  364MOL0     O49029   3.606   7.281  10.661  0.9289 -0.5498  0.6446
  364MOL0     C49030   3.727   7.282  10.728 -0.1564 -0.1464  0.0555
  364MOL0     C49031   3.719   7.302  10.867  0.1180 -0.0492 -0.3402
  364MOL0     C49032   3.836   7.322  10.941 -0.4186 -0.3014 -0.5453
  364MOL0     C49033   3.963   7.313  10.876 -0.0416  0.2459 -0.6834
  364MOL0     C49034   4.085   7.335  10.953  0.4510  1.0792 -0.6534
  364MOL0     O49035   4.067   7.364  11.080  0.4895 -0.4284  0.2988
  364MOL0     C49036   4.180   7.393  11.150 -0.4218  0.3557 -0.1615
  364MOL0     C49037   4.213   7.348  11.284 -0.3538 -0.0546 -0.0139
  364MOL0     C49038   4.327   7.393  11.353 -0.1516 -0.3226 -0.4269
  364MOL0     C49039   4.403   7.489  11.298  0.1316  0.2213  0.5942
  364MOL0     O49040   4.506   7.538  11.375 -0.4992 -0.0535  0.9030
  364MOL0     C49041   4.482   7.670  11.441 -0.6158  0.0625 -0.0026
  364MOL0     C49042   4.602   7.742  11.509  0.2668 -0.1328  0.0054
  364MOL0     C49043   4.734   7.696  11.450 -0.9460 -0.3773  0.3985
  364MOL0     C49044   4.839   7.783  11.509  0.5711 -0.2623 -0.1647
  364MOL0     C49045   4.991   7.743  11.462  0.6012  0.2484  0.0245
  364MOL0     C49046   5.087   7.857  11.500 -0.5740  0.4830 -0.0103
  364MOL0     C49047   5.092   7.893  11.654  0.4141  0.4234  0.1487
  364MOL0     C49048   5.129   7.775  11.748 -0.3754 -0.0306  0.1998
  364MOL0    Cl49049   5.302   7.748  11.754  0.1547 -0.2589  0.0852
  364MOL0     C49050   4.382   7.534  11.170  0.0558  1.0947  0.2108
  364MOL0     C49051   4.273   7.494  11.096 -0.3893 -0.1204 -0.6339
  364MOL0     O49052   4.191   7.307  10.904 -0.2862 -0.5582  0.0613
  364MOL0     C49053   3.965   7.287  10.741  1.0183  0.2912  0.9089
  364MOL0     C49054   3.848   7.271  10.662  0.4194  0.7588 -0.2034
  364MOL0     N49055   3.042   7.325  10.749 -0.4853  0.1120 -0.6048
  364MOL0     N49056   2.927   7.269  10.724  0.0456 -0.2919 -0.1249
  364MOL0     C49057   1.732   7.308  10.916 -0.6318  0.5879 -0.4681
  364MOL0     C49058   1.594   7.284  10.931 -0.0896  0.4359  0.7654
  364MOL0     C49059   1.169   7.190  10.929  0.7506  0.1601  1.1141
  364MOL0     C49060   1.104   7.142  11.042 -0.8657 -0.2465  0.1251
  364MOL0     C49061   0.967   7.138  11.057 -0.0985  0.3944  0.1198
  364MOL0     C49062   0.891   7.179  10.956  0.3957 -0.1909  0.4883
  364MOL0     O49063   0.754   7.149  10.970 -0.0910 -0.4512  0.0871
  364MOL0     C49064   0.662   7.189  10.873  0.3345 -0.0165  0.3193
  364MOL0     C49065   0.515   7.164  10.905  0.0943 -0.5486  0.5824
  364MOL0     C49066   0.475   7.019  10.931  0.2436  0.1832 -0.0826
  364MOL0     C49067   0.326   7.005  10.977 -0.1822 -0.6208 -0.9330
  364MOL0     C49068   0.267   6.876  10.934  0.6451  0.7399  0.2776
  364MOL0     C49069   0.237   6.756  10.921 -1.2146 -0.1892 -1.4493
  364MOL0     C49070   0.941   7.235  10.840  0.1351 -0.0798  0.4562
  364MOL0     C49071   1.084   7.241  10.822  0.3780  0.6405  0.1414
  364MOL0     C49072   1.135   7.301  10.695 -0.2225 -0.7992  0.1595
  364MOL0     H49073   1.475   7.372  10.627 -5.4579 -2.4098  3.3906
  364MOL0     H49074   1.726   7.425  10.601  1.0513  0.5591  0.5197
  364MOL0     H49075   1.921   7.306  10.576  0.7080 -1.4288  0.5230
  364MOL0     H49076   1.979   7.477  10.637  0.2966 -0.1370 -0.9539
  364MOL0     H49077   2.135   7.206  10.688  0.4472 -0.5094  0.4241
  364MOL0     H49078   2.189   7.371  10.721  0.9704  0.4652 -1.3013
  364MOL0     H49079   2.188   7.416  10.474 -0.0786 -0.9717 -2.5801
  364MOL0     H49080   2.083   7.292  10.447 -2.2154  0.3453  2.8263
  364MOL0     H49081   2.294   7.128  10.534 -0.1311  1.3785  2.1715
  364MOL0     H49082   2.294   7.198  10.365  0.5176 -0.2829  0.1304
  364MOL0     H49083   2.431   7.374  10.428 -0.1144  0.6445 -0.0884
  364MOL0     H49084   2.392   7.362  10.596  0.0104 -2.3591  1.5153
  364MOL0     H49085   2.533   7.176  10.628 -0.2912 -0.7275  0.0186
  364MOL0     H49086   2.535   7.134  10.456  0.6087  0.1411 -0.1869
  364MOL0     H49087   2.653   7.385  10.591  0.5512 -0.5041 -0.2766
  364MOL0     H49088   2.670   7.354  10.420 -1.3355  1.0844 -0.4880
  364MOL0     H49089   2.752   7.136  10.621 -0.8274 -0.2307 -0.8940
  364MOL0     H49090   2.806   7.159  10.455 -1.2524  1.8682 -0.9706
  364MOL0     H49091   2.999   7.372  10.433 -2.0842  0.3436  0.1064
  364MOL0     H49092   3.197   7.515  10.509 -3.5857  0.6554  0.5437
  364MOL0     H49093   3.245   7.519  10.679 -1.3312 -2.0090  1.4398
  364MOL0     H49094   3.343   7.284  10.648 -0.7411 -1.2117 -0.5275
  364MOL0     H49095   3.309   7.295  10.473  1.7059 -0.1028 -0.4455
  364MOL0     H49096   3.444   7.520  10.484 -2.5381 -1.3528 -1.9715
  364MOL0     H49097   3.514   7.360  10.447  1.3136 -2.4908  2.4955
  364MOL0     H49098   3.506   7.459  10.729 -1.4563  0.7711 -0.0295
  364MOL0     H49099   3.638   7.489  10.615 -0.8059  1.4606 -0.2965
  364MOL0     H49100   3.617   7.306  10.903  0.3623  0.5755  0.2950
  364MOL0     H49101   3.836   7.326  11.049 -0.9251 -1.1569 -0.5060
  364MOL0     H49102   4.148   7.274  11.329 -0.1770 -0.4434 -0.3858
  364MOL0     H49103   4.351   7.361  11.454  2.0739 -2.1763 -1.4611
  364MOL0     H49104   4.440   7.741  11.370 -1.1376  0.6612  0.8961
  364MOL0     H49105   4.406   7.656  11.518  0.4768 -0.8043  0.9524
  364MOL0     H49106   4.592   7.851  11.513 -1.7891 -0.3294  1.8513
  364MOL0     H49107   4.594   7.706  11.611 -2.2296 -1.5810 -0.6122
  364MOL0     H49108   4.753   7.590  11.470 -1.2681 -0.4665  0.2470
  364MOL0     H49109   4.739   7.697  11.340 -0.4784 -5.7336  0.1097
  364MOL0     H49110   4.823   7.762  11.615 -2.5846 -2.9223 -1.0203
  364MOL0     H49111   4.822   7.890  11.491 -2.4187 -0.8084 -1.1938
  364MOL0     H49112   4.988   7.732  11.353  1.2470  3.1327 -0.3636
  364MOL0     H49113   5.024   7.652  11.514  1.5588  0.9281  0.6316
  364MOL0     H49114   5.180   7.816  11.458 -1.9839 -1.8274 -1.1205
  364MOL0     H49115   5.054   7.946  11.446 -2.5690 -1.0242 -1.4673
  364MOL0     H49116   4.997   7.934  11.691 -0.8150 -4.2163  2.9455
  364MOL0     H49117   5.171   7.967  11.663  1.3489 -0.6760  1.2825
  364MOL0     H49118   5.108   7.793  11.854  2.2065  1.5447  0.5236
  364MOL0     H49119   5.074   7.684  11.722 -2.6443  0.8810  1.5310
  364MOL0     H49120   4.451   7.599  11.117  1.5089 -1.3590 -1.0805
  364MOL0     H49121   4.271   7.527  10.993  2.0362  0.9308 -0.4173
  364MOL0     H49122   4.065   7.289  10.699  1.1234 -0.7252  1.0916
  364MOL0     H49123   3.857   7.256  10.555 -1.2852  2.2166 -0.5925
  364MOL0     H49124   1.793   7.291  11.004 -0.8606 -3.5654 -0.8937
  364MOL0     H49125   1.562   7.246  11.027 -2.1518 -3.4841 -1.2414
  364MOL0     H49126   1.167   7.105  11.122  2.3248  1.0032 -1.6581
  364MOL0     H49127   0.929   7.099  11.151  0.8154 -0.8630 -0.0008
  364MOL0     H49128   0.681   7.119  10.791 -2.3580  0.2348 -0.6167
  364MOL0     H49129   0.684   7.285  10.825  1.7533 -0.6101 -0.2637
  364MOL0     H49130   0.473   7.200  10.811  3.3819  2.6793  0.1284
  364MOL0     H49131   0.473   7.240  10.972 -1.3723  0.8508 -1.7956
  364MOL0     H49132   0.542   6.988  11.011 -0.4802 -0.9726  0.0969
  364MOL0     H49133   0.481   6.961  10.839 -3.6132 -0.4552 -0.0720
  364MOL0     H49134   0.313   7.010  11.085  3.0299  1.6780 -0.5164
  364MOL0     H49135   0.272   7.093  10.941 -0.5994  0.0369  1.2121
  364MOL0     H49136   0.240   6.651  10.903  5.9506 -0.5766 -1.1369
  364MOL0     H49137   0.868   7.267  10.766  0.2069  0.8336  0.7719
  364MOL0     H49138   1.150   7.409  10.706 -1.1016 -0.6488  0.0128
  364MOL0     H49139   1.226   7.250  10.662  0.9017  0.4292  1.2758
  364MOL0     H49140   1.054   7.282  10.623  1.4330 -2.4613 -1.3981
  365MOL0     O49141   1.226  10.034   6.993  0.1264  0.2206  0.2452
  365MOL0     C49142   1.213  10.141   6.937 -0.2399  0.1631 -0.4178
  365MOL0     O49143   1.311  10.235   6.897 -0.6863 -0.4979  0.5103
  365MOL0     C49144   1.442  10.220   6.926  0.7517  0.2890 -0.3201
  365MOL0     C49145   1.503  10.094   6.890 -0.4824 -1.2632 -0.1986
  365MOL0     C49146   1.633  10.065   6.916 -0.9103  0.3151  0.3582
  365MOL0     C49147   1.714  10.172   6.973  0.2162 -0.3005  0.8521
  365MOL0     O49148   1.849  10.162   6.991  0.2423 -0.0063 -0.6130
  365MOL0     C49149   1.891  10.039   7.052  0.8469  0.3038 -0.7210
  365MOL0     C49150   2.038  10.056   7.099 -0.1275  0.9530  0.4253
  365MOL0     C49151   2.146  10.037   6.991 -0.0481 -0.6438  0.4741
  365MOL0     C49152   2.143  10.169   6.898 -0.8500  0.3111  0.8883
  365MOL0     C49153   2.257  10.182   6.796  0.6344  0.1039 -0.0745
  365MOL0     C49154   2.394  10.166   6.855 -1.6362 -0.4081 -0.0946
  365MOL0     C49155   2.500  10.170   6.744  0.8639 -0.0903  0.0073
  365MOL0     C49156   2.632  10.121   6.804  0.3893  0.5863  0.2166
  365MOL0     N49157   2.742  10.101   6.709 -0.5476 -0.1806  0.2240
  365MOL0     C49158   2.820  10.192   6.637 -0.5177 -0.0475  0.8641
  365MOL0     C49159   2.891  10.115   6.551 -0.5674  0.4687  0.2002
  365MOL0     C49160   2.990  10.169   6.449 -0.1414  0.0026  0.2945
  365MOL0     C49161   2.961  10.120   6.310 -0.2724 -0.2627  0.7021
  365MOL0     C49162   3.084  10.140   6.217 -0.2420 -0.6538  0.6860
  365MOL0     C49163   3.171  10.009   6.224 -0.5331  0.0886 -0.3769
  365MOL0     O49164   3.285  10.020   6.139  0.1725  0.0485 -0.4966
  365MOL0     C49165   3.404  10.044   6.200  0.2457 -0.0683  0.7313
  365MOL0     C49166   3.500   9.950   6.199 -0.3440 -0.4524  0.3274
  365MOL0     C49167   3.634   9.981   6.226  0.5046  0.1711  0.1126
  365MOL0     C49168   3.670  10.115   6.250  0.9344  0.5418  0.2866
  365MOL0     C49169   3.809  10.150   6.266 -0.1538  1.1914 -1.2924
  365MOL0     O49170   3.832  10.279   6.297  0.1049 -0.2414 -0.1895
  365MOL0     C49171   3.959  10.333   6.287 -0.4185  0.3324  0.0557
  365MOL0     C49172   4.006  10.425   6.390  0.8071  0.4878  0.0448
  365MOL0     C49173   4.138  10.467   6.386  0.0033  1.0044  0.2846
  365MOL0     C49174   4.222  10.429   6.286 -0.3838  0.4541 -0.4355
  365MOL0     O49175   4.348  10.463   6.291 -0.2243 -0.7045 -0.3774
  365MOL0     C49176   4.412  10.487   6.164 -0.4213 -0.3461 -0.1189
  365MOL0     C49177   4.545  10.545   6.202 -0.1518 -0.4935 -0.1513
  365MOL0     C49178   4.616  10.610   6.082 -0.4230 -0.3598 -0.2359
  365MOL0     C49179   4.769  10.604   6.106 -0.1155 -1.0364  0.1956
  365MOL0     C49180   4.861  10.643   5.989  0.8187 -0.4975  0.1108
  365MOL0     C49181   5.006  10.615   6.029 -0.2967  0.4893  0.5858
  365MOL0     C49182   5.098  10.621   5.899  0.3899  0.2120 -0.1048
  365MOL0     C49183   5.137  10.758   5.850 -1.2620  0.2740  0.4397
  365MOL0    Cl49184   5.261  10.817   5.970 -0.1927 -0.3612 -0.0473
  365MOL0     C49185   4.172  10.352   6.185  0.1493  0.5541 -0.1232
  365MOL0     C49186   4.040  10.299   6.182 -0.1307  0.0626  0.3710
  365MOL0     O49187   3.895  10.065   6.245  0.1493 -0.1588 -0.2345
  365MOL0     C49188   3.566  10.213   6.243  0.1262  0.5232  0.0467
  365MOL0     C49189   3.436  10.172   6.221 -1.0915  0.1475  0.7054
  365MOL0     N49190   2.864   9.984   6.575  0.2181 -0.6915  0.1341
  365MOL0     N49191   2.777   9.981   6.662  0.0321  1.0562  0.0096
  365MOL0     C49192   1.659  10.297   7.009 -0.3319  1.0150 -0.0120
  365MOL0     C49193   1.516  10.321   6.990 -0.1334  0.9386  0.1648
  365MOL0     C49194   1.077  10.190   6.896  0.4419  0.9489  0.4708
  365MOL0     C49195   1.063  10.328   6.869  0.1574  0.6059 -0.2830
  365MOL0     C49196   0.941  10.377   6.822  0.5069  0.5939 -0.2648
  365MOL0     C49197   0.828  10.298   6.809  0.7623  0.7553 -0.2134
  365MOL0     O49198   0.718  10.364   6.770  0.7927  0.2203 -0.1671
  365MOL0     C49199   0.594  10.306   6.729  0.4118  0.4688  0.5763
  365MOL0     C49200   0.506  10.243   6.835 -0.7308  0.6054 -0.7755
  365MOL0     C49201   0.485  10.343   6.951 -0.3891 -0.3881 -0.1664
  365MOL0     C49202   0.421  10.476   6.924 -0.4734  0.3317  0.3239
  365MOL0     C49203   0.305  10.448   6.840 -0.1104 -0.3579 -0.0481
  365MOL0     C49204   0.210  10.422   6.773  0.0940 -0.3013 -0.4595
  365MOL0     C49205   0.836  10.161   6.840 -0.1374  0.1977 -0.6433
  365MOL0     C49206   0.959  10.104   6.876 -0.0973  0.5277  0.6721
  365MOL0     C49207   0.966   9.954   6.877  0.3904  0.1182  0.1391
  365MOL0     H49208   1.445  10.016   6.841  0.0643 -2.3247  0.7758
  365MOL0     H49209   1.667   9.963   6.896  0.4311  0.9694 -0.9421
  365MOL0     H49210   1.835  10.020   7.144 -1.7278 -2.0687 -2.5925
  365MOL0     H49211   1.869   9.954   6.988  0.1332  1.7516 -2.4937
  365MOL0     H49212   2.042   9.971   7.168 -1.4236  1.3871  1.0639
  365MOL0     H49213   2.058  10.141   7.165  1.7446 -0.6086  2.0066
  365MOL0     H49214   2.133   9.953   6.923  1.0315  0.0600 -0.6420
  365MOL0     H49215   2.244  10.029   7.038  0.8542  4.6938  0.1882
  365MOL0     H49216   2.051  10.162   6.841 -0.3867 -1.4095  0.3005
  365MOL0     H49217   2.141  10.250   6.972 -4.2887 -1.4135  2.9553
  365MOL0     H49218   2.235  10.115   6.712 -2.0721 -1.2551  1.6085
  365MOL0     H49219   2.258  10.286   6.762  1.4764  0.8857  2.1574
  365MOL0     H49220   2.415  10.246   6.926  0.7219 -0.8947 -0.1745
  365MOL0     H49221   2.391  10.071   6.909 -2.2987  0.4366  1.4053
  365MOL0     H49222   2.499  10.268   6.695  0.6922 -0.2680 -0.3484
  365MOL0     H49223   2.472  10.093   6.671 -2.2717 -0.2347  1.2037
  365MOL0     H49224   2.673  10.188   6.880  0.9061  0.7242 -0.1728
  365MOL0     H49225   2.616  10.032   6.865  0.5745  2.4097  3.0896
  365MOL0     H49226   2.836  10.297   6.663  0.8362  0.1725 -0.7029
  365MOL0     H49227   2.993  10.278   6.451  0.2006  0.0714 -1.6248
  365MOL0     H49228   3.090  10.139   6.483 -0.1838  1.4575  1.7909
  365MOL0     H49229   2.940  10.013   6.301  0.6722 -0.3540 -0.7715
  365MOL0     H49230   2.876  10.171   6.264  0.3863 -0.1178 -0.3966
  365MOL0     H49231   3.136  10.226   6.260 -0.6266 -1.2649  2.4843
  365MOL0     H49232   3.057  10.166   6.114  0.8233  1.3559  0.8653
  365MOL0     H49233   3.120   9.920   6.186  0.6659 -0.1513 -1.5012
  365MOL0     H49234   3.183  10.002   6.332 -2.9034 -1.6158 -0.1371
  365MOL0     H49235   3.478   9.850   6.164  0.0755 -1.1580  1.9802
  365MOL0     H49236   3.704   9.899   6.218  0.4662  0.1708 -0.2060
  365MOL0     H49237   3.939  10.457   6.469  0.6339 -0.1527  0.1664
  365MOL0     H49238   4.180  10.519   6.471 -1.1476  0.6043  1.1108
  365MOL0     H49239   4.419  10.398   6.100 -1.0121  0.4168 -1.2699
  365MOL0     H49240   4.355  10.560   6.107  1.1601  1.0291 -0.0024
  365MOL0     H49241   4.535  10.617   6.284 -0.2325  1.2794 -1.6464
  365MOL0     H49242   4.606  10.461   6.236  1.3189  0.6687  0.2106
  365MOL0     H49243   4.596  10.555   5.990 -0.8617  1.0841 -1.0453
  365MOL0     H49244   4.578  10.711   6.064  1.2652  0.8049  2.2287
  365MOL0     H49245   4.798  10.500   6.124  1.0239 -1.0205 -1.3013
  365MOL0     H49246   4.781  10.659   6.200 -3.4436 -0.4531  0.3960
  365MOL0     H49247   4.841  10.745   5.955  0.1967 -0.3170  0.9689
  365MOL0     H49248   4.828  10.572   5.912 -1.0153 -0.4290  0.7957
  365MOL0     H49249   5.048  10.694   6.092  1.2490 -1.4527  2.0817
  365MOL0     H49250   5.021  10.521   6.083 -0.8000 -0.0395 -0.1737
  365MOL0     H49251   5.045  10.576   5.814 -2.6481  1.1854  1.1374
  365MOL0     H49252   5.194  10.570   5.905  1.7342  2.1057 -3.1400
  365MOL0     H49253   5.170  10.755   5.746 -2.0480 -2.1121  0.2019
  365MOL0     H49254   5.047  10.820   5.846  1.2305  4.1699 -1.3777
  365MOL0     H49255   4.235  10.315   6.104  0.1918 -1.6495  0.8435
  365MOL0     H49256   4.003  10.233   6.104 -2.6267 -1.1189  2.3977
  365MOL0     H49257   3.597  10.316   6.257 -0.8304  0.7702  0.5011
  365MOL0     H49258   3.356  10.245   6.223 -0.1507  1.1882  0.8362
  365MOL0     H49259   1.723  10.377   7.045 -0.0764  2.4840 -3.3089
  365MOL0     H49260   1.478  10.416   7.025  1.1468  1.7052 -0.4269
  365MOL0     H49261   1.141  10.397   6.898 -0.8254  0.2350  3.8721
  365MOL0     H49262   0.929  10.484   6.814  0.1856  0.4990 -1.0919
  365MOL0     H49263   0.598  10.233   6.647 -1.4668  2.4081 -1.4015
  365MOL0     H49264   0.539  10.383   6.674  0.8977  0.7465  0.4702
  365MOL0     H49265   0.552  10.151   6.871  0.8911 -0.6798 -5.4130
  365MOL0     H49266   0.413  10.219   6.783 -0.2293  0.3867 -1.5882
  365MOL0     H49267   0.581  10.358   7.002 -0.3920 -4.4853  1.4253
  365MOL0     H49268   0.418  10.298   7.025  0.2777 -0.0534  0.6624
  365MOL0     H49269   0.379  10.529   7.010 -1.3747 -0.1295  0.1780
  365MOL0     H49270   0.486  10.533   6.857 -2.2943 -2.5895 -4.3360
  365MOL0     H49271   0.119  10.418   6.716  1.0756 -0.3824 -2.0917
  365MOL0     H49272   0.743  10.108   6.829 -0.3755  0.5281 -0.2654
  365MOL0     H49273   1.065   9.928   6.839  0.9170  3.0947 -0.7644
  365MOL0     H49274   0.964   9.913   6.979 -0.6333 -0.7859 -0.2228
  365MOL0     H49275   0.892   9.910   6.809 -1.0522  0.0266  1.6783
  366MOL0     O49276   0.413   1.679   8.585 -0.4428 -0.2823  0.3157
  366MOL0     C49277   0.441   1.571   8.637  0.6000 -0.4326 -0.0950
  366MOL0     O49278   0.567   1.538   8.690  1.1303  0.0931 -0.5967
  366MOL0     C49279   0.672   1.619   8.657  0.2430 -0.0359 -0.0231
  366MOL0     C49280   0.711   1.725   8.740 -0.5603 -0.3654  0.5552
  366MOL0     C49281   0.819   1.802   8.697 -0.2266 -0.4050 -0.4423
  366MOL0     C49282   0.886   1.785   8.578 -0.2878 -0.4262  0.7007
  366MOL0     O49283   0.982   1.862   8.523  0.2413  0.1415  0.2107
  366MOL0     C49284   1.040   1.960   8.608  0.0523  0.0289  0.2517
  366MOL0     C49285   1.168   2.015   8.531 -0.1317 -0.2482 -0.2659
  366MOL0     C49286   1.278   1.908   8.518  0.5472  0.6101  0.3340
  366MOL0     C49287   1.379   1.952   8.408  0.0181 -0.0076  0.4505
  366MOL0     C49288   1.477   1.840   8.370 -0.9192  0.6473 -0.0551
  366MOL0     C49289   1.580   1.863   8.265 -0.7835 -0.1839 -0.0591
  366MOL0     C49290   1.616   1.751   8.176 -0.4626 -0.2844 -0.1907
  366MOL0     C49291   1.521   1.713   8.063  0.2331  0.2077  0.7667
  366MOL0     N49292   1.564   1.590   7.996  0.4437  0.2698  0.3359
  366MOL0     C49293   1.640   1.586   7.887 -0.1577 -0.6464 -0.3178
  366MOL0     C49294   1.692   1.465   7.873  0.4829  0.5037  0.8694
  366MOL0     C49295   1.778   1.416   7.760 -0.0220  0.0052  0.4769
  366MOL0     C49296   1.912   1.369   7.818  0.3454 -0.3204 -0.2480
  366MOL0     C49297   2.005   1.310   7.712 -0.4803  0.0525 -0.4199
  366MOL0     C49298   2.135   1.263   7.777  0.3999 -0.6045  0.2023
  366MOL0     O49299   2.214   1.216   7.671 -0.0900  0.2568  0.2865
  366MOL0     C49300   2.352   1.193   7.704 -0.3237 -0.0830  0.0249
  366MOL0     C49301   2.401   1.168   7.833  0.8602  0.0417 -0.6937
  366MOL0     C49302   2.543   1.143   7.860  0.9149  0.4418 -0.7152
  366MOL0     C49303   2.631   1.121   7.755  0.5804  0.4745  0.2871
  366MOL0     C49304   2.763   1.073   7.774 -1.0210  0.1604 -0.1554
  366MOL0     O49305   2.794   1.012   7.896 -0.1520  0.5203  0.1083
  366MOL0     C49306   2.922   0.973   7.924 -1.2387 -0.0409 -0.1680
  366MOL0     C49307   3.031   1.062   7.932  0.3833  0.6226 -0.0626
  366MOL0     C49308   3.155   1.011   7.967 -0.0486  0.6282 -0.2066
  366MOL0     C49309   3.179   0.870   7.985  0.3453  0.2928  0.0532
  366MOL0     O49310   3.292   0.814   8.024  0.0021 -0.8753 -0.3999
  366MOL0     C49311   3.400   0.904   8.067  0.0809 -0.0775 -0.0815
  366MOL0     C49312   3.522   0.835   8.119  0.2230 -0.2313 -0.2580
  366MOL0     C49313   3.653   0.912   8.137 -0.7235 -0.1664  0.8036
  366MOL0     C49314   3.763   0.813   8.186 -0.5851 -0.2810  0.8671
  366MOL0     C49315   3.898   0.892   8.197 -0.7128 -0.5653 -1.0103
  366MOL0     C49316   4.010   0.798   8.253 -0.1824  0.4412 -0.4657
  366MOL0     C49317   4.105   0.774   8.135 -0.0987 -0.2791 -0.6288
  366MOL0     C49318   4.255   0.823   8.152 -0.8847  0.3965 -0.3488
  366MOL0    Cl49319   4.329   0.766   8.302 -0.0263 -0.0711 -0.3238
  366MOL0     C49320   3.070   0.781   7.965  0.0897 -0.4458  1.4669
  366MOL0     C49321   2.942   0.839   7.949  0.6847  0.6615  0.0687
  366MOL0     O49322   2.839   1.094   7.679  0.0237 -0.2350 -0.7504
  366MOL0     C49323   2.578   1.157   7.626 -1.3448 -0.4606 -0.9846
  366MOL0     C49324   2.449   1.187   7.606  0.5880 -0.1332  0.4535
  366MOL0     N49325   1.642   1.393   7.975  0.0495  0.0265 -0.2541
  366MOL0     N49326   1.571   1.464   8.051  0.0309  0.7614  0.4885
  366MOL0     C49327   0.841   1.683   8.490 -0.1928 -0.4535  0.3438
  366MOL0     C49328   0.734   1.604   8.533  0.2498 -0.2903  0.8611
  366MOL0     C49329   0.339   1.460   8.633  0.0898 -0.3518 -0.9101
  366MOL0     C49330   0.380   1.341   8.699  0.1275 -1.0119 -0.3039
  366MOL0     C49331   0.285   1.237   8.724  0.0038  0.5546  1.2303
  366MOL0     C49332   0.157   1.236   8.671  0.3799  0.0033 -0.0982
  366MOL0     O49333   0.080   1.119   8.678  0.5406  0.2805 -0.3709
  366MOL0     C49334  -0.051   1.114   8.620 -0.3223 -0.2986 -0.1520
  366MOL0     C49335  -0.117   0.977   8.640 -1.5120  0.9171  0.4700
  366MOL0     C49336  -0.187   0.967   8.767 -0.0658 -0.3705 -0.2539
  366MOL0     C49337  -0.266   0.835   8.780 -1.0260 -0.4087 -0.2519
  366MOL0     C49338  -0.347   0.807   8.662 -0.0718 -0.4731 -0.7738
  366MOL0     C49339  -0.422   0.778   8.576  0.0195 -0.1702  0.0829
  366MOL0     C49340   0.123   1.350   8.595  0.2923  0.2034  0.2731
  366MOL0     C49341   0.206   1.459   8.581  0.5602  0.0512  0.1678
  366MOL0     C49342   0.139   1.571   8.506 -0.6285 -0.1932 -0.5481
  366MOL0     H49343   0.669   1.735   8.840  0.0480 -2.4037  1.0711
  366MOL0     H49344   0.857   1.875   8.768 -1.3475  2.8890 -2.9711
  366MOL0     H49345   0.962   2.032   8.636 -0.7045 -1.2096  1.4413
  366MOL0     H49346   1.076   1.906   8.696  2.9588 -0.1343 -0.9403
  366MOL0     H49347   1.205   2.092   8.599  0.4810 -1.2770  0.5974
  366MOL0     H49348   1.129   2.059   8.439 -1.0444  1.9171  1.0672
  366MOL0     H49349   1.219   1.819   8.491 -0.0093  0.9345  0.4658
  366MOL0     H49350   1.328   1.880   8.611  1.7177  1.3205 -0.0641
  366MOL0     H49351   1.314   1.967   8.321 -0.1747 -0.3660  0.5292
  366MOL0     H49352   1.429   2.039   8.451  2.5674 -1.3832  0.4570
  366MOL0     H49353   1.527   1.808   8.461  1.5757  2.2233 -0.7871
  366MOL0     H49354   1.426   1.750   8.336  1.5947  0.1710 -2.9669
  366MOL0     H49355   1.529   1.941   8.207 -1.9192 -0.0462  1.0705
  366MOL0     H49356   1.668   1.907   8.312  0.6248 -1.6814 -1.2027
  366MOL0     H49357   1.639   1.659   8.231  1.4687 -0.0392 -0.5070
  366MOL0     H49358   1.712   1.765   8.125  0.5644 -0.4733  1.6156
  366MOL0     H49359   1.425   1.700   8.114  0.5829  0.3413  1.4689
  366MOL0     H49360   1.502   1.789   7.987 -0.9258 -1.1756 -0.4026
  366MOL0     H49361   1.658   1.670   7.820 -1.8811 -0.8474 -1.0884
  366MOL0     H49362   1.739   1.336   7.697  1.5939  0.5148 -1.2636
  366MOL0     H49363   1.808   1.503   7.700 -1.8044 -0.5770 -1.3857
  366MOL0     H49364   1.953   1.463   7.855 -0.4622  1.7978 -4.2397
  366MOL0     H49365   1.903   1.306   7.907  3.3602  0.8423  1.0140
  366MOL0     H49366   2.034   1.384   7.636 -1.9380  0.0421 -1.0053
  366MOL0     H49367   1.957   1.234   7.651  2.5818  1.0591 -4.5196
  366MOL0     H49368   2.118   1.185   7.852 -2.5874  1.0544  1.3906
  366MOL0     H49369   2.184   1.344   7.831 -1.3512  0.3527  0.4139
  366MOL0     H49370   2.335   1.164   7.919 -0.4850 -0.7455 -1.7100
  366MOL0     H49371   2.573   1.104   7.957 -1.1762 -1.7516 -0.8594
  366MOL0     H49372   3.022   1.169   7.913 -0.9014  1.0605  2.6071
  366MOL0     H49373   3.238   1.077   7.986  1.7810 -1.7883  0.6231
  366MOL0     H49374   3.426   0.968   7.983 -0.4274  0.8046  0.4229
  366MOL0     H49375   3.370   0.969   8.150  1.4274 -1.4404  1.5800
  366MOL0     H49376   3.487   0.788   8.212  0.2361 -1.6616 -0.9520
  366MOL0     H49377   3.542   0.748   8.056  0.7651 -0.7479  0.5955
  366MOL0     H49378   3.678   0.956   8.040 -0.3310 -1.0538  0.4903
  366MOL0     H49379   3.648   0.987   8.217  1.6817  1.8007 -0.7291
  366MOL0     H49380   3.769   0.721   8.128 -0.0199  0.5284 -0.4202
  366MOL0     H49381   3.729   0.775   8.283 -0.0509 -0.9369  0.8045
  366MOL0     H49382   3.886   0.980   8.260  0.5989 -0.8244 -0.3594
  366MOL0     H49383   3.916   0.936   8.099  0.5614  0.2205 -0.4442
  366MOL0     H49384   4.069   0.833   8.338  3.3809 -3.2763 -1.1055
  366MOL0     H49385   3.972   0.700   8.282  0.8477  0.4637  1.0838
  366MOL0     H49386   4.060   0.791   8.036 -1.9263 -0.8491  0.0589
  366MOL0     H49387   4.115   0.665   8.144  1.6287 -0.0335  1.0382
  366MOL0     H49388   4.309   0.795   8.062 -1.0489 -3.7195  0.6151
  366MOL0     H49389   4.252   0.932   8.157 -0.7225  0.5922 -3.0385
  366MOL0     H49390   3.075   0.673   7.977  2.4711 -0.7099 -0.9533
  366MOL0     H49391   2.855   0.774   7.949  0.6467  0.6873 -0.9422
  366MOL0     H49392   2.644   1.163   7.540 -0.4274  0.4410 -0.2389
  366MOL0     H49393   2.403   1.223   7.515  1.3285  2.2757  0.9808
  366MOL0     H49394   0.890   1.665   8.395 -0.2011 -1.7773  0.5740
  366MOL0     H49395   0.691   1.529   8.467 -0.5631 -2.8825  4.0647
  366MOL0     H49396   0.484   1.332   8.729  0.2116 -0.8877 -0.5544
  366MOL0     H49397   0.306   1.144   8.775  1.1463  1.4816  2.5468
  366MOL0     H49398  -0.042   1.137   8.514 -0.6380  0.5680 -0.0002
  366MOL0     H49399  -0.110   1.196   8.662  0.2093  0.9471 -1.7495
  366MOL0     H49400  -0.036   0.902   8.644 -2.6330 -0.3586  0.0099
  366MOL0     H49401  -0.167   0.954   8.545  0.3452 -2.0545  0.0617
  366MOL0     H49402  -0.252   1.054   8.780 -0.2188 -0.3502 -1.1202
  366MOL0     H49403  -0.112   0.981   8.846  0.2327  1.5998 -0.8429
  366MOL0     H49404  -0.187   0.761   8.799  1.1468  1.7000 -0.4880
  366MOL0     H49405  -0.320   0.847   8.874 -0.0157  1.1753  0.1831
  366MOL0     H49406  -0.498   0.734   8.516  0.4590 -3.6916  1.8365
  366MOL0     H49407   0.031   1.344   8.539  0.9807  2.7103 -1.2621
  366MOL0     H49408   0.114   1.659   8.565 -0.8411  0.9868 -2.3205
  366MOL0     H49409   0.207   1.610   8.430  1.3342 -1.6271  0.3954
  366MOL0     H49410   0.047   1.534   8.459 -0.6736 -3.3334  1.7175
  367MOL0     O49411  10.344   7.029   4.884 -0.6549  0.6553  0.3329
  367MOL0     C49412  10.382   7.126   4.814  0.2759  0.1029 -0.3151
  367MOL0     O49413  10.507   7.143   4.748  0.7931 -0.4295  0.3457
  367MOL0     C49414  10.595   7.041   4.756  0.7117  0.2404 -1.3568
  367MOL0     C49415  10.646   6.990   4.640 -0.1577  0.5280  0.2305
  367MOL0     C49416  10.725   6.868   4.643 -0.4398  0.6176 -0.9336
  367MOL0     C49417  10.763   6.813   4.768 -0.9215  0.2780  0.0237
  367MOL0     O49418  10.842   6.703   4.773 -0.2469  0.2609 -0.4591
  367MOL0     C49419  10.921   6.669   4.878 -0.3592  0.1279  0.2248
  367MOL0     C49420  11.016   6.562   4.827  0.6633  0.0831  0.1988
  367MOL0     C49421  11.112   6.530   4.934 -0.4237  0.3879 -0.9318
  367MOL0     C49422  11.223   6.424   4.902  0.3214  0.2876 -0.1942
  367MOL0     C49423  11.343   6.416   4.998  0.6285  0.8596  0.1819
  367MOL0     C49424  11.449   6.319   4.950 -0.1768  0.0995  0.2073
  367MOL0     C49425  11.569   6.327   5.056 -0.7119 -0.7552  0.2972
  367MOL0     C49426  11.679   6.224   5.028 -0.5017  0.6332 -0.2162
  367MOL0     N49427  11.805   6.272   5.080  0.6445  0.5086 -0.1102
  367MOL0     C49428  11.888   6.202   5.162  0.2801  0.6784 -0.3414
  367MOL0     C49429  12.003   6.277   5.187 -0.2221  1.3636  0.7461
  367MOL0     C49430  12.131   6.252   5.263  0.4150  0.8896  0.1876
  367MOL0     C49431  12.262   6.275   5.180  0.1792 -0.1095  0.3611
  367MOL0     C49432  12.377   6.288   5.276 -0.1764 -0.0265 -0.2920
  367MOL0     C49433  12.503   6.303   5.201 -0.3216  0.0055 -0.8932
  367MOL0     O49434  12.603   6.324   5.304  0.0941 -0.4723  0.5087
  367MOL0     C49435  12.723   6.278   5.270 -0.4785  0.2593  0.4149
  367MOL0     C49436  12.752   6.141   5.303  0.2594  0.5992  0.4229
  367MOL0     C49437  12.883   6.090   5.285  0.5099 -0.1382  1.1771
  367MOL0     C49438  12.979   6.179   5.241 -0.2677 -0.2828  0.3082
  367MOL0     C49439  13.122   6.138   5.230 -0.2210 -0.1329  0.4372
  367MOL0     O49440  13.151   6.011   5.224 -0.9722 -0.2840 -0.2550
  367MOL0     C49441  13.274   5.978   5.177  0.5699 -0.8714  0.2735
  367MOL0     C49442  13.303   5.983   5.041  0.6027 -0.4671  0.3600
  367MOL0     C49443  13.426   5.951   4.990 -0.8826 -0.0392 -0.2702
  367MOL0     C49444  13.533   5.932   5.076  0.6463 -0.1823 -0.0166
  367MOL0     O49445  13.654   5.920   5.018 -0.1140 -0.1025 -0.5001
  367MOL0     C49446  13.761   5.988   5.080  0.5116 -0.6892  0.5336
  367MOL0     C49447  13.894   5.940   5.015  0.5275 -0.0608  0.7601
  367MOL0     C49448  13.999   6.051   5.068 -0.1083  0.1387 -0.3347
  367MOL0     C49449  14.129   6.022   4.994 -0.8428  0.3895  0.1105
  367MOL0     C49450  14.243   6.095   5.081  0.1481  0.2476  0.4121
  367MOL0     C49451  14.383   6.107   5.010  0.5238 -0.2438 -0.1915
  367MOL0     C49452  14.467   5.983   4.982 -0.7007 -0.3702  0.0403
  367MOL0     C49453  14.475   5.895   5.113  0.4954  0.1505 -0.1442
  367MOL0    Cl49454  14.599   5.778   5.094  0.4623 -0.3824 -0.0406
  367MOL0     C49455  13.512   5.935   5.215 -0.9625  0.6587 -0.1313
  367MOL0     C49456  13.378   5.958   5.266 -0.2304  0.0279  1.3339
  367MOL0     O49457  13.207   6.234   5.230 -0.0250  0.4566 -0.6615
  367MOL0     C49458  12.944   6.308   5.204  0.4159  0.0212 -0.7582
  367MOL0     C49459  12.819   6.365   5.223 -0.2941 -0.2481 -0.3919
  367MOL0     N49460  11.979   6.395   5.114  0.1964  0.9609  0.0493
  367MOL0     N49461  11.869   6.382   5.050  0.3377  0.3696  0.9897
  367MOL0     C49462  10.723   6.873   4.888 -0.1674 -1.0847  0.3586
  367MOL0     C49463  10.636   6.990   4.888 -0.9516 -0.1059  0.3187
  367MOL0     C49464  10.291   7.246   4.797 -0.1170 -0.2210  0.8237
  367MOL0     C49465  10.357   7.377   4.775  0.7115  0.7739 -0.5815
  367MOL0     C49466  10.281   7.484   4.751 -0.4964  0.0710  0.3300
  367MOL0     C49467  10.145   7.483   4.747  0.4334  0.3483  0.8566
  367MOL0     O49468  10.072   7.592   4.723  0.8891 -0.2717 -0.0896
  367MOL0     C49469   9.931   7.594   4.759  0.3011  0.1953  1.0054
  367MOL0     C49470   9.880   7.738   4.769  0.2141 -0.4533 -0.4262
  367MOL0     C49471   9.829   7.795   4.642  0.6154  0.7158 -0.4026
  367MOL0     C49472   9.943   7.851   4.543  0.4423  0.1817  0.4391
  367MOL0     C49473   9.981   7.989   4.570  0.1577  0.0404 -0.0874
  367MOL0     C49474   9.999   8.099   4.610  0.0368  0.1832  0.0278
  367MOL0     C49475  10.081   7.360   4.772 -0.3113 -0.2690 -0.2990
  367MOL0     C49476  10.148   7.243   4.798  0.6662 -0.2739 -0.5310
  367MOL0     C49477  10.068   7.118   4.824  0.4099  0.2556 -0.3683
  367MOL0     H49478  10.621   7.032   4.543 -0.2797  0.6451  0.3135
  367MOL0     H49479  10.752   6.818   4.550 -0.5400  2.6521 -2.1117
  367MOL0     H49480  10.990   6.749   4.907  1.6863 -1.0785 -1.0219
  367MOL0     H49481  10.867   6.632   4.966  1.1609  0.2294  1.2411
  367MOL0     H49482  11.069   6.601   4.740  0.1823  0.1317 -0.0714
  367MOL0     H49483  10.950   6.478   4.804 -0.8027  0.5115  2.5289
  367MOL0     H49484  11.059   6.489   5.020  1.3540  0.1042  0.0646
  367MOL0     H49485  11.161   6.615   4.982 -0.3378 -1.0299  1.6195
  367MOL0     H49486  11.173   6.327   4.908  1.3160 -0.2009  0.6162
  367MOL0     H49487  11.253   6.437   4.798 -0.3215 -1.9332 -0.6983
  367MOL0     H49488  11.383   6.513   5.027  1.2929  0.4237  0.7478
  367MOL0     H49489  11.316   6.369   5.093  0.3927  1.9592  0.6777
  367MOL0     H49490  11.427   6.212   4.945 -0.1515 -0.2153  4.0302
  367MOL0     H49491  11.491   6.350   4.854  1.8963  0.0090  1.0236
  367MOL0     H49492  11.529   6.319   5.158 -1.1662 -2.4920  0.0192
  367MOL0     H49493  11.614   6.425   5.038  1.0837 -1.9417 -2.0696
  367MOL0     H49494  11.661   6.130   5.081  0.9582  2.3474  3.6357
  367MOL0     H49495  11.704   6.211   4.922  1.9708  1.6113  0.1723
  367MOL0     H49496  11.866   6.098   5.182 -1.1397  0.8154 -1.0990
  367MOL0     H49497  12.129   6.318   5.350 -5.4439 -0.1079  1.2420
  367MOL0     H49498  12.133   6.149   5.301 -0.2662  1.1608  0.9978
  367MOL0     H49499  12.288   6.192   5.113 -1.3686  0.7912 -1.4456
  367MOL0     H49500  12.246   6.361   5.114 -2.5479  0.8768  2.1369
  367MOL0     H49501  12.387   6.202   5.343 -1.6891  1.2037  1.6209
  367MOL0     H49502  12.357   6.371   5.345 -1.9642 -1.7027  1.3453
  367MOL0     H49503  12.506   6.394   5.140 -1.1638 -0.2266 -1.2907
  367MOL0     H49504  12.524   6.212   5.145 -2.0598 -0.9818 -0.0254
  367MOL0     H49505  12.672   6.071   5.324 -1.8428  1.9878 -2.2812
  367MOL0     H49506  12.889   5.983   5.300  0.3623 -0.1492  1.1582
  367MOL0     H49507  13.215   6.009   4.982  0.9227  0.5924  0.3217
  367MOL0     H49508  13.439   5.934   4.883  0.6956  0.7899 -0.2282
  367MOL0     H49509  13.751   6.091   5.044  0.7590 -1.0530 -0.6298
  367MOL0     H49510  13.768   5.981   5.189  2.7158 -2.8650  0.3334
  367MOL0     H49511  13.931   5.844   5.051 -2.9247 -2.4194 -1.4131
  367MOL0     H49512  13.884   5.939   4.906  1.0152 -2.7742  0.6797
  367MOL0     H49513  13.967   6.153   5.045 -0.0075  0.0566 -0.8388
  367MOL0     H49514  14.015   6.043   5.176 -1.2117 -2.2001 -0.2882
  367MOL0     H49515  14.129   6.062   4.893  1.4088 -2.5113 -1.1711
  367MOL0     H49516  14.144   5.914   4.985  1.1187  0.5496  0.8743
  367MOL0     H49517  14.260   6.030   5.168  3.4182  0.0267 -0.2504
  367MOL0     H49518  14.221   6.199   5.107 -0.1589  1.2382 -3.2801
  367MOL0     H49519  14.355   6.146   4.912  0.7404 -1.8713 -0.9476
  367MOL0     H49520  14.451   6.182   5.051  3.1714 -1.8365 -1.3099
  367MOL0     H49521  14.569   6.011   4.954 -0.0101 -2.0153  0.7791
  367MOL0     H49522  14.427   5.927   4.896  1.2767 -0.5218 -0.8242
  367MOL0     H49523  14.495   5.960   5.199  3.7737  1.6553 -1.8372
  367MOL0     H49524  14.379   5.846   5.129 -0.6751  2.5631  0.5956
  367MOL0     H49525  13.598   5.913   5.278  0.2542 -0.6711 -2.1370
  367MOL0     H49526  13.355   5.967   5.372  0.4840 -2.1423  1.7267
  367MOL0     H49527  13.019   6.375   5.161 -1.4619  0.8641 -2.9429
  367MOL0     H49528  12.786   6.466   5.198 -0.2911 -0.1770 -0.1111
  367MOL0     H49529  10.762   6.839   4.984  0.4555  0.3385  0.6406
  367MOL0     H49530  10.604   7.039   4.979  3.1418  3.9206 -0.0192
  367MOL0     H49531  10.464   7.396   4.768  0.6688  1.7174  0.8669
  367MOL0     H49532  10.338   7.573   4.726  0.5038 -0.3328  1.0970
  367MOL0     H49533   9.929   7.552   4.860  1.1266 -0.2038  0.8739
  367MOL0     H49534   9.868   7.537   4.691  1.5048 -0.9951  0.8343
  367MOL0     H49535   9.948   7.803   4.825 -1.7801  0.8032  0.6735
  367MOL0     H49536   9.795   7.734   4.838  1.6368 -1.4779  1.3618
  367MOL0     H49537   9.762   7.879   4.667 -1.3771 -0.8045 -0.3714
  367MOL0     H49538   9.772   7.714   4.596  3.1905 -1.0885 -0.6116
  367MOL0     H49539  10.034   7.791   4.552  0.1501 -0.1455  1.4303
  367MOL0     H49540   9.909   7.837   4.440 -1.3268 -0.4595  1.0863
  367MOL0     H49541  10.002   8.200   4.645 -1.6874 -0.0870  1.0770
  367MOL0     H49542   9.973   7.346   4.776 -0.0787 -2.4826 -0.1101
  367MOL0     H49543  10.091   7.080   4.924 -2.4455 -0.4802  0.1024
  367MOL0     H49544   9.962   7.145   4.817 -0.1095 -1.4271  0.4929
  367MOL0     H49545  10.094   7.046   4.746 -3.1626  1.7297 -3.2497
  368MOL0     O49546   1.098  10.872   5.812 -0.3581 -0.0541 -0.2982
  368MOL0     C49547   1.003  10.795   5.831  0.2982 -0.1751  0.2356
  368MOL0     O49548   1.003  10.671   5.889 -0.7155  0.3333  0.1640
  368MOL0     C49549   1.110  10.591   5.885 -0.1208 -0.1531 -0.1009
  368MOL0     C49550   1.132  10.492   5.982 -0.2489 -0.0954  0.4006
  368MOL0     C49551   1.250  10.423   6.002 -0.7270 -0.1361  0.3902
  368MOL0     C49552   1.357  10.445   5.909  0.2430  0.8253 -0.3828
  368MOL0     O49553   1.474  10.367   5.912  0.5558 -0.1802 -0.4996
  368MOL0     C49554   1.503  10.290   6.030  0.2368 -0.9172 -0.5364
  368MOL0     C49555   1.645  10.232   6.028 -0.0582  0.1002 -0.9494
  368MOL0     C49556   1.688  10.136   6.132 -0.3561  0.5059 -0.2552
  368MOL0     C49557   1.837  10.141   6.181 -0.0558  0.6124  0.2526
  368MOL0     C49558   1.934  10.069   6.092 -0.8455  0.0650 -0.5283
  368MOL0     C49559   1.944   9.918   6.099  0.4564  0.0439 -0.2365
  368MOL0     C49560   2.015   9.875   6.233  0.0868  0.1025 -0.6001
  368MOL0     C49561   2.164   9.910   6.231 -0.6146 -0.1683 -0.5723
  368MOL0     N49562   2.224   9.843   6.349  0.5664  0.0804  0.7166
  368MOL0     C49563   2.202   9.895   6.481  0.7416 -0.3836 -0.0579
  368MOL0     C49564   2.292   9.817   6.541  0.3671 -0.3493 -0.6383
  368MOL0     C49565   2.321   9.825   6.683 -0.3745  1.1203 -0.2820
  368MOL0     C49566   2.331   9.684   6.745  0.4671  0.4405 -0.2458
  368MOL0     C49567   2.380   9.688   6.886 -0.2367  0.1089 -0.2871
  368MOL0     C49568   2.530   9.730   6.890  0.2209 -0.7771 -1.3576
  368MOL0     O49569   2.608   9.665   6.992 -0.3393  0.3379 -0.4732
  368MOL0     C49570   2.744   9.659   6.989 -0.7706 -0.2502 -0.8615
  368MOL0     C49571   2.809   9.594   7.092 -0.2303 -0.5256  0.4711
  368MOL0     C49572   2.952   9.600   7.101 -0.2626 -0.0136 -0.1360
  368MOL0     C49573   3.032   9.662   7.007 -0.1726  0.4541 -0.2012
  368MOL0     C49574   3.176   9.655   7.016 -0.4161  0.6611 -0.5916
  368MOL0     O49575   3.242   9.691   6.901  0.3532  0.5571 -0.4160
  368MOL0     C49576   3.379   9.691   6.898 -0.2378  0.9283 -0.1695
  368MOL0     C49577   3.455   9.780   6.976 -0.2047  0.2082  0.1548
  368MOL0     C49578   3.592   9.764   6.983 -0.6863 -0.1700  0.4306
  368MOL0     C49579   3.654   9.665   6.921 -0.0843  0.1453  0.2502
  368MOL0     O49580   3.790   9.646   6.946  0.5699  0.1217  0.9351
  368MOL0     C49581   3.824   9.612   7.077 -0.6920 -0.5835 -0.5065
  368MOL0     C49582   3.960   9.544   7.063 -0.0662 -0.2999  0.4029
  368MOL0     C49583   3.974   9.427   7.163 -1.1805  1.1472  0.1308
  368MOL0     C49584   4.112   9.364   7.165  0.2700 -0.5916  0.3816
  368MOL0     C49585   4.121   9.246   7.255  0.2295 -0.9273  0.4345
  368MOL0     C49586   4.258   9.188   7.251 -0.3418  0.4776  0.4988
  368MOL0     C49587   4.301   9.077   7.353  0.9227  0.1185 -0.2647
  368MOL0     C49588   4.436   9.034   7.329 -1.0398  0.2405  0.1566
  368MOL0    Cl49589   4.569   9.160   7.357 -0.3956 -0.1078  0.1594
  368MOL0     C49590   3.587   9.584   6.830 -0.3318 -0.2264 -0.8911
  368MOL0     C49591   3.444   9.589   6.828  0.2476 -0.2798  0.2940
  368MOL0     O49592   3.225   9.618   7.124 -0.5661 -0.3472 -0.2870
  368MOL0     C49593   2.965   9.728   6.911 -0.0673  0.1100  0.0314
  368MOL0     C49594   2.822   9.724   6.890 -0.2391  0.2467 -0.6504
  368MOL0     N49595   2.364   9.732   6.456  0.0493  0.2597 -0.9691
  368MOL0     N49596   2.307   9.738   6.345  0.3312  0.4998  0.0583
  368MOL0     C49597   1.330  10.531   5.800 -0.6099 -0.3518 -0.2550
  368MOL0     C49598   1.216  10.608   5.794 -0.7941  0.4585 -0.5633
  368MOL0     C49599   0.875  10.847   5.777 -0.2489  0.0483 -0.4862
  368MOL0     C49600   0.764  10.759   5.786  0.4075 -0.0764 -0.7588
  368MOL0     C49601   0.633  10.806   5.756 -0.7816 -0.1460  0.1245
  368MOL0     C49602   0.613  10.934   5.702  0.7162  1.6977  0.7214
  368MOL0     O49603   0.488  10.986   5.668 -0.4845  0.9174 -0.0918
  368MOL0     C49604   0.374  10.922   5.726  0.1431  0.3670  0.3779
  368MOL0     C49605   0.243  10.993   5.694  0.0975 -0.4903 -0.7471
  368MOL0     C49606   0.243  11.134   5.763 -0.4467  0.6377 -0.5806
  368MOL0     C49607   0.105  11.189   5.755 -0.0597  0.1165 -0.6201
  368MOL0     C49608   0.098  11.320   5.816 -0.1346  1.1539 -0.4542
  368MOL0     C49609   0.109  11.415   5.887  0.0210  0.7932 -0.0434
  368MOL0     C49610   0.719  11.019   5.679  0.6817 -0.4930  0.5037
  368MOL0     C49611   0.850  10.972   5.714 -1.0166 -0.1862  0.3286
  368MOL0     C49612   0.956  11.073   5.680  0.0357 -0.2442 -0.2775
  368MOL0     H49613   1.054  10.470   6.055  0.5638  0.8956  1.6037
  368MOL0     H49614   1.255  10.352   6.084 -3.3957 -0.5021  0.3188
  368MOL0     H49615   1.481  10.342   6.124  0.7471 -2.3513  0.4007
  368MOL0     H49616   1.428  10.211   6.031 -0.4324 -0.3516  2.2392
  368MOL0     H49617   1.714  10.317   6.036 -0.0067 -0.1468  2.0775
  368MOL0     H49618   1.662  10.169   5.939  0.7492 -1.8478  0.5078
  368MOL0     H49619   1.674  10.036   6.089 -0.9555  1.3341 -2.1079
  368MOL0     H49620   1.628  10.145   6.223  1.8534  0.0864  1.3259
  368MOL0     H49621   1.862  10.247   6.178 -1.8258  1.0678  0.3009
  368MOL0     H49622   1.835  10.102   6.283 -0.3902 -0.2769 -0.0872
  368MOL0     H49623   1.919  10.097   5.987  2.6127  0.7011 -0.9653
  368MOL0     H49624   2.034  10.102   6.121 -1.0163  0.0049  0.1427
  368MOL0     H49625   1.843   9.878   6.105  0.7177 -0.5184  0.5894
  368MOL0     H49626   1.998   9.874   6.014 -0.1982 -2.8985  0.7452
  368MOL0     H49627   1.997   9.768   6.242 -2.6087  0.4747 -0.7188
  368MOL0     H49628   1.961   9.920   6.317  0.1542  0.6522 -0.8440
  368MOL0     H49629   2.214   9.874   6.141  2.9491 -2.7944  2.1315
  368MOL0     H49630   2.180  10.017   6.244 -2.3118  0.2707 -1.8980
  368MOL0     H49631   2.137   9.967   6.529  5.1288  5.4785 -1.7750
  368MOL0     H49632   2.424   9.861   6.686  0.1610 -0.4351  1.5785
  368MOL0     H49633   2.253   9.889   6.741 -0.1883 -0.2933  1.5851
  368MOL0     H49634   2.230   9.642   6.749  1.2312 -1.4271  1.6175
  368MOL0     H49635   2.395   9.622   6.682  2.7868  2.6338 -0.1993
  368MOL0     H49636   2.362   9.591   6.933 -3.9947  2.3805  3.5594
  368MOL0     H49637   2.317   9.757   6.941 -3.5003 -1.4561 -1.8099
  368MOL0     H49638   2.545   9.837   6.906  2.1388 -1.5262  4.3567
  368MOL0     H49639   2.568   9.702   6.792  0.3715 -0.6107 -1.3472
  368MOL0     H49640   2.742   9.535   7.155  0.3469 -0.2082  1.4083
  368MOL0     H49641   3.001   9.536   7.173 -0.7682  1.0581  1.2201
  368MOL0     H49642   3.404   9.856   7.034 -0.5796  0.3074 -0.3050
  368MOL0     H49643   3.645   9.827   7.054  0.5644 -0.9850  0.2512
  368MOL0     H49644   3.832   9.702   7.138  0.9638 -1.5413  0.7903
  368MOL0     H49645   3.747   9.548   7.121 -2.3453  0.4737 -1.7498
  368MOL0     H49646   3.986   9.513   6.961 -2.3810  3.4154 -1.5612
  368MOL0     H49647   4.037   9.616   7.093 -2.5494  1.7299  2.2645
  368MOL0     H49648   3.953   9.459   7.265 -0.1876 -0.4304  0.8715
  368MOL0     H49649   3.897   9.357   7.128 -0.9701  1.6111 -1.3449
  368MOL0     H49650   4.193   9.434   7.187 -0.2112  0.1303 -0.0816
  368MOL0     H49651   4.129   9.324   7.065 -1.8937 -0.2910 -0.1789
  368MOL0     H49652   4.045   9.176   7.220 -1.4364 -0.4815  2.8770
  368MOL0     H49653   4.098   9.263   7.361  1.1927  1.5601  0.3295
  368MOL0     H49654   4.279   9.147   7.152  1.1802 -2.7541  2.0135
  368MOL0     H49655   4.320   9.276   7.271  3.1260 -1.4911 -0.6887
  368MOL0     H49656   4.227   8.997   7.358  1.9313 -0.7583  0.9412
  368MOL0     H49657   4.300   9.116   7.455 -2.4638  0.5517 -0.3231
  368MOL0     H49658   4.458   8.945   7.388  0.2309  1.0550  0.9561
  368MOL0     H49659   4.444   9.016   7.221 -0.7716  4.2678 -0.6490
  368MOL0     H49660   3.636   9.510   6.767 -2.5536 -0.4429 -2.4725
  368MOL0     H49661   3.382   9.532   6.760  1.4274  1.8263 -2.7256
  368MOL0     H49662   3.024   9.774   6.833 -0.2649 -0.7230 -0.6295
  368MOL0     H49663   2.786   9.765   6.797  0.4540  0.9979 -0.5985
  368MOL0     H49664   1.410  10.541   5.727 -0.5633  0.6734 -0.0747
  368MOL0     H49665   1.216  10.685   5.718 -4.0135  2.3363  1.1308
  368MOL0     H49666   0.775  10.661   5.832  1.0925  1.0602  1.6007
  368MOL0     H49667   0.555  10.730   5.763  0.6114 -1.6709 -0.4065
  368MOL0     H49668   0.381  10.921   5.835 -1.0262  0.9099  0.4806
  368MOL0     H49669   0.351  10.821   5.690 -2.2790  0.5224  1.2958
  368MOL0     H49670   0.170  10.927   5.742  1.7602 -1.7574  0.1531
  368MOL0     H49671   0.236  11.009   5.586  3.4822  2.7311 -0.6838
  368MOL0     H49672   0.313  11.203   5.715  0.3471 -0.6894 -1.4196
  368MOL0     H49673   0.278  11.121   5.866  1.0704  0.9345 -1.0376
  368MOL0     H49674   0.101  11.205   5.647  1.2108 -0.7321 -0.8187
  368MOL0     H49675   0.036  11.114   5.795  0.4873  0.6274  1.3880
  368MOL0     H49676   0.130  11.494   5.957  1.4642 -0.9231  1.5561
  368MOL0     H49677   0.708  11.113   5.626 -2.6966 -0.6899  0.6547
  368MOL0     H49678   1.044  11.021   5.641  2.7595  2.5891  1.5757
  368MOL0     H49679   0.926  11.150   5.609  2.1871 -1.3291 -2.5141
  368MOL0     H49680   0.990  11.115   5.775  1.1101  2.0266 -1.5956
  369MOL0     O49681   1.690   8.296   8.240  0.0660  0.6215 -0.1737
  369MOL0     C49682   1.660   8.247   8.350  0.7884 -0.1494 -1.0970
  369MOL0     O49683   1.755   8.215   8.446  0.8227 -0.1975 -0.1652
  369MOL0     C49684   1.883   8.254   8.433  0.7790  0.7354 -0.1494
  369MOL0     C49685   1.924   8.380   8.407 -0.6554  0.4545 -0.6399
  369MOL0     C49686   2.057   8.402   8.408 -0.0535 -0.9469 -0.2738
  369MOL0     C49687   2.157   8.299   8.436  0.3405 -0.2464 -1.7501
  369MOL0     O49688   2.280   8.357   8.428 -0.4692  1.2860 -1.0063
  369MOL0     C49689   2.389   8.261   8.434 -0.1096 -0.5247 -0.2468
  369MOL0     C49690   2.514   8.339   8.407  0.7076  0.2622 -0.0338
  369MOL0     C49691   2.635   8.282   8.470  1.4286  0.9594 -0.0619
  369MOL0     C49692   2.762   8.331   8.396 -0.3484  0.6232 -0.2585
  369MOL0     C49693   2.894   8.276   8.454  0.8960  0.0883 -0.1945
  369MOL0     C49694   2.913   8.326   8.597  0.3481  0.6369 -0.7106
  369MOL0     C49695   3.059   8.314   8.637 -1.5042  0.1254 -0.4811
  369MOL0     C49696   3.090   8.357   8.784 -0.3614 -0.0214 -0.0058
  369MOL0     N49697   3.212   8.292   8.827 -1.0197  0.9131  0.0642
  369MOL0     C49698   3.331   8.344   8.799 -0.4526  0.0481  0.0962
  369MOL0     C49699   3.418   8.253   8.836 -0.7508  0.1189 -0.1746
  369MOL0     C49700   3.560   8.283   8.834 -0.2661  0.2115  0.4901
  369MOL0     C49701   3.614   8.378   8.942 -0.5003 -0.2314  0.2900
  369MOL0     C49702   3.769   8.388   8.936  0.2723  0.2752  0.7886
  369MOL0     C49703   3.833   8.432   9.067 -0.1747  0.0229  0.6472
  369MOL0     O49704   3.971   8.443   9.057 -0.5188 -0.1209 -0.4600
  369MOL0     C49705   4.037   8.486   9.171  0.0854  0.0122  0.3220
  369MOL0     C49706   4.177   8.495   9.161  0.0375 -0.0837  0.4714
  369MOL0     C49707   4.247   8.530   9.277  0.1273  0.4122  0.8385
  369MOL0     C49708   4.188   8.551   9.399 -0.7592 -0.0632 -0.4790
  369MOL0     C49709   4.281   8.568   9.523 -0.4068 -0.6275  0.2575
  369MOL0     O49710   4.411   8.564   9.495 -0.5423  0.7911 -0.1222
  369MOL0     C49711   4.506   8.606   9.585  0.2336  0.4935  0.4527
  369MOL0     C49712   4.631   8.550   9.571 -0.3138 -0.6699 -0.2866
  369MOL0     C49713   4.732   8.594   9.655  0.5000  0.8481 -0.9945
  369MOL0     C49714   4.710   8.691   9.756 -0.2874  0.5409  0.5419
  369MOL0     O49715   4.817   8.723   9.844  0.2300  0.3405  0.1388
  369MOL0     C49716   4.935   8.649   9.840 -0.9968 -0.2578 -0.0355
  369MOL0     C49717   5.029   8.707   9.940 -0.1962  0.0733 -0.0663
  369MOL0     C49718   5.170   8.669   9.913 -0.6530 -0.0917 -0.5211
  369MOL0     C49719   5.252   8.729  10.030  0.0964  0.6319  0.0677
  369MOL0     C49720   5.402   8.697  10.012  0.0295  0.0995 -0.7418
  369MOL0     C49721   5.494   8.736  10.123  0.2489  0.4198 -0.4784
  369MOL0     C49722   5.630   8.672  10.095 -0.3096  0.8304 -0.1782
  369MOL0     C49723   5.729   8.677  10.225 -0.4669 -0.3416  0.6169
  369MOL0    Cl49724   5.806   8.834  10.224 -0.1386  0.2506 -0.3057
  369MOL0     C49725   4.589   8.760   9.757  0.3180 -0.4154 -0.5784
  369MOL0     C49726   4.487   8.710   9.676  0.4140  0.0352 -1.0692
  369MOL0     O49727   4.230   8.573   9.630  0.0904  0.4187 -0.2999
  369MOL0     C49728   4.057   8.550   9.410  0.3134  0.5279  0.6267
  369MOL0     C49729   3.981   8.516   9.292 -0.1283 -0.8774  0.3253
  369MOL0     N49730   3.355   8.139   8.893  0.5029  0.6813  0.3135
  369MOL0     N49731   3.217   8.168   8.895 -0.2105 -0.4156  0.3588
  369MOL0     C49732   2.107   8.174   8.477 -0.8018 -0.5165  0.0445
  369MOL0     C49733   1.974   8.148   8.459  0.3338 -0.1149 -0.3039
  369MOL0     C49734   1.517   8.215   8.378 -0.2857  0.4158  0.0564
  369MOL0     C49735   1.422   8.297   8.321 -0.0546  0.0248 -0.6694
  369MOL0     C49736   1.280   8.267   8.327  0.1976 -0.0742 -0.1227
  369MOL0     C49737   1.235   8.145   8.366 -0.3185 -0.6408 -0.2127
  369MOL0     O49738   1.114   8.091   8.360 -0.1483 -0.7662  0.3222
  369MOL0     C49739   1.009   8.174   8.294  0.2198 -0.4661 -0.4345
  369MOL0     C49740   0.880   8.099   8.264 -0.2618  0.1120  0.4152
  369MOL0     C49741   0.764   8.197   8.261  0.6974 -0.4239 -0.2376
  369MOL0     C49742   0.644   8.114   8.219  0.1723  0.5453  0.8528
  369MOL0     C49743   0.544   8.199   8.157  0.0696  0.1108  0.8586
  369MOL0     C49744   0.448   8.260   8.106 -0.2304  0.0727 -0.0708
  369MOL0     C49745   1.335   8.060   8.411 -1.3905 -0.3810  0.5271
  369MOL0     C49746   1.469   8.085   8.426 -0.1302  0.6437  0.3433
  369MOL0     C49747   1.563   7.975   8.474 -0.0837  0.2551  0.0026
  369MOL0     H49748   1.849   8.447   8.365 -1.8121 -1.0833 -1.1409
  369MOL0     H49749   2.105   8.497   8.385  1.2831 -1.2800  1.0217
  369MOL0     H49750   2.397   8.217   8.534 -0.3271 -0.4994 -0.2181
  369MOL0     H49751   2.376   8.183   8.359  0.9411 -0.5891 -0.3755
  369MOL0     H49752   2.504   8.441   8.446 -0.5160  0.4153 -0.7082
  369MOL0     H49753   2.528   8.335   8.299  0.7330 -1.3279  0.0013
  369MOL0     H49754   2.631   8.174   8.455  0.6315  1.2100 -2.0143
  369MOL0     H49755   2.643   8.309   8.575  0.1142 -0.8562  0.5392
  369MOL0     H49756   2.768   8.315   8.288  0.2501 -2.7213  0.1629
  369MOL0     H49757   2.761   8.440   8.409 -0.7800  0.7749 -1.4761
  369MOL0     H49758   2.902   8.167   8.445  3.5738  0.1821  0.3258
  369MOL0     H49759   2.982   8.306   8.396  1.7813 -0.7231  0.6856
  369MOL0     H49760   2.880   8.428   8.617  0.0189 -0.0180  2.6755
  369MOL0     H49761   2.855   8.265   8.667 -0.4987  2.3607  0.1579
  369MOL0     H49762   3.115   8.370   8.562 -1.7753  2.0098  0.6347
  369MOL0     H49763   3.082   8.208   8.633  4.3187  0.9232  2.0123
  369MOL0     H49764   3.084   8.465   8.798 -0.7013 -0.1644  1.0524
  369MOL0     H49765   3.003   8.316   8.837 -2.2427  0.7705 -2.2774
  369MOL0     H49766   3.359   8.436   8.750  1.0740 -0.1131  0.6011
  369MOL0     H49767   3.608   8.187   8.854  1.7770  0.8396 -1.0081
  369MOL0     H49768   3.593   8.308   8.733 -1.9469 -0.7834 -0.3454
  369MOL0     H49769   3.572   8.479   8.933 -1.0141 -0.3453  1.2895
  369MOL0     H49770   3.586   8.329   9.036  1.4488  1.0464  1.6260
  369MOL0     H49771   3.795   8.455   8.853  0.1909 -0.7052 -0.0442
  369MOL0     H49772   3.819   8.297   8.901 -0.3643  0.9928 -2.3767
  369MOL0     H49773   3.803   8.361   9.144  0.5406 -1.3251 -0.2801
  369MOL0     H49774   3.794   8.534   9.076 -1.8438 -0.5449  0.3256
  369MOL0     H49775   4.231   8.471   9.069  0.2919 -0.5002  0.7269
  369MOL0     H49776   4.354   8.547   9.270  0.3054 -0.2995  1.7090
  369MOL0     H49777   4.633   8.473   9.494  0.5814  0.3679 -1.3241
  369MOL0     H49778   4.830   8.547   9.661  0.0155 -0.2215 -1.1316
  369MOL0     H49779   4.909   8.547   9.869 -1.9118  0.4202  1.6565
  369MOL0     H49780   4.988   8.650   9.745  0.9571 -2.9599  0.9005
  369MOL0     H49781   5.010   8.815   9.934 -1.6665 -0.1910 -0.5436
  369MOL0     H49782   5.005   8.669  10.040  2.9992 -0.0960  0.7387
  369MOL0     H49783   5.180   8.560   9.911 -2.4965 -0.2998 -0.2191
  369MOL0     H49784   5.206   8.723   9.825  0.0338 -0.0309 -0.2137
  369MOL0     H49785   5.222   8.691  10.128  3.9797 -0.2317  1.1197
  369MOL0     H49786   5.229   8.836  10.039 -1.3125  0.2801  0.7793
  369MOL0     H49787   5.431   8.738   9.915  1.0056 -1.5265 -1.1880
  369MOL0     H49788   5.410   8.588  10.004 -0.0119  0.1771 -2.1762
  369MOL0     H49789   5.508   8.842  10.145 -0.0278  0.4505 -0.4502
  369MOL0     H49790   5.471   8.684  10.217  1.2555 -0.7026 -0.8190
  369MOL0     H49791   5.672   8.721  10.007 -0.8023 -0.6248 -1.2600
  369MOL0     H49792   5.625   8.568  10.060  1.0041  0.2726  1.1978
  369MOL0     H49793   5.669   8.656  10.314  0.4341  0.6580  1.4975
  369MOL0     H49794   5.805   8.598  10.218  4.0642  3.5165  1.0548
  369MOL0     H49795   4.569   8.846   9.820  1.8078 -0.2434 -0.2964
  369MOL0     H49796   4.387   8.749   9.691  0.2264  0.0790 -2.3176
  369MOL0     H49797   4.000   8.564   9.502  1.6768 -0.1689  1.6013
  369MOL0     H49798   3.873   8.505   9.302 -0.0591 -0.6423  1.3343
  369MOL0     H49799   2.173   8.094   8.509 -1.3722 -1.7675 -1.7306
  369MOL0     H49800   1.942   8.053   8.501  0.2705  1.0220  2.4117
  369MOL0     H49801   1.465   8.384   8.272 -1.2856  0.8207 -0.4077
  369MOL0     H49802   1.216   8.348   8.293 -0.6894 -0.2988  0.9699
  369MOL0     H49803   1.054   8.215   8.203 -1.3001  0.9062 -0.6145
  369MOL0     H49804   0.983   8.259   8.357  0.6976  0.2415 -1.1647
  369MOL0     H49805   0.871   8.032   8.350 -0.3466  0.3485  0.5911
  369MOL0     H49806   0.888   8.047   8.168 -2.0883 -0.1990  0.3975
  369MOL0     H49807   0.788   8.283   8.198  0.8333  0.4733  1.0182
  369MOL0     H49808   0.743   8.240   8.359  1.4799  0.8683 -0.6192
  369MOL0     H49809   0.676   8.039   8.146  1.8487  0.2396  1.8382
  369MOL0     H49810   0.600   8.060   8.302 -1.7506 -2.8388 -2.0937
  369MOL0     H49811   0.359   8.309   8.071  0.2272  0.6845 -0.4085
  369MOL0     H49812   1.304   7.961   8.444 -3.5806 -0.1803 -0.7721
  369MOL0     H49813   1.508   7.883   8.497  1.9985 -1.0611  0.0157
  369MOL0     H49814   1.632   7.952   8.392 -0.7261  0.0802 -0.4947
  369MOL0     H49815   1.623   8.011   8.558 -0.4899  0.8788  0.0324
  370MOL0     O49816   7.840   7.757   5.464 -0.2305  0.3624 -0.0241
  370MOL0     C49817   7.879   7.669   5.536  0.0293 -0.2524 -0.3862
  370MOL0     O49818   7.991   7.679   5.613 -0.1550 -0.1581  0.0766
  370MOL0     C49819   8.063   7.794   5.593  0.0137  0.4350  0.2196
  370MOL0     C49820   8.052   7.891   5.696  0.2550 -0.0755  0.2374
  370MOL0     C49821   8.134   8.007   5.696 -0.4391 -0.6410  0.7050
  370MOL0     C49822   8.229   8.020   5.602  0.2486 -0.5518 -0.3998
  370MOL0     O49823   8.319   8.128   5.595 -0.3054  0.3723 -0.5809
  370MOL0     C49824   8.344   8.200   5.713  0.0559 -0.2708 -0.0729
  370MOL0     C49825   8.453   8.306   5.699  0.0626  0.4734  0.2638
  370MOL0     C49826   8.462   8.378   5.840  0.4702  0.1410  0.2856
  370MOL0     C49827   8.608   8.424   5.876 -0.2572 -0.0975  0.1198
  370MOL0     C49828   8.607   8.571   5.916 -0.3539  0.5945 -0.3655
  370MOL0     C49829   8.746   8.631   5.906  0.7610  0.0967  0.0160
  370MOL0     C49830   8.756   8.780   5.948  0.2608 -0.2548  0.7325
  370MOL0     C49831   8.898   8.813   5.992 -0.2291  0.1888  0.1505
  370MOL0     N49832   9.018   8.825   5.896 -0.0300 -0.4191 -0.2455
  370MOL0     C49833   9.028   8.925   5.800  0.1467 -0.5892 -0.0107
  370MOL0     C49834   9.148   8.912   5.742 -0.2957 -0.2711 -0.4167
  370MOL0     C49835   9.202   8.986   5.630 -0.8625 -0.6731  0.5462
  370MOL0     C49836   9.324   9.068   5.661 -0.6289 -0.0612  0.8730
  370MOL0     C49837   9.297   9.176   5.758 -0.4415 -0.2567 -0.3114
  370MOL0     C49838   9.213   9.300   5.712  0.6281  0.3127 -0.4360
  370MOL0     O49839   9.269   9.334   5.588  0.0420 -0.0207  0.8534
  370MOL0     C49840   9.343   9.445   5.581 -0.5036 -1.0695  0.3334
  370MOL0     C49841   9.473   9.454   5.629  0.3282 -0.3600 -0.1457
  370MOL0     C49842   9.543   9.579   5.606 -0.6854  0.4110  0.6956
  370MOL0     C49843   9.481   9.687   5.538 -0.2806  0.1884  0.5403
  370MOL0     C49844   9.560   9.812   5.522  0.6496  0.3650 -0.2842
  370MOL0     O49845   9.694   9.810   5.550  0.1550 -1.1856 -0.4347
  370MOL0     C49846   9.771   9.918   5.505 -0.1903 -0.1091 -0.3595
  370MOL0     C49847   9.899   9.898   5.458 -0.1198 -0.4906  0.0901
  370MOL0     C49848   9.984  10.003   5.435 -0.1706 -0.3195 -1.4552
  370MOL0     C49849   9.951  10.130   5.454 -0.0108 -0.3146 -0.4115
  370MOL0     O49850  10.053  10.228   5.435  0.3790  0.3813 -0.4700
  370MOL0     C49851  10.041  10.352   5.507 -0.5763  0.4350  0.0654
  370MOL0     C49852  10.177  10.434   5.499  0.5280  0.2166 -0.1977
  370MOL0     C49853  10.259  10.397   5.624 -0.3936  0.3022 -0.1010
  370MOL0     C49854  10.403  10.360   5.583 -0.3966  0.0462 -0.8791
  370MOL0     C49855  10.427  10.230   5.509 -0.3373 -0.5528  0.1633
  370MOL0     C49856  10.380  10.105   5.578 -0.3673 -0.2072  0.0688
  370MOL0     C49857  10.404   9.983   5.488  0.4269 -0.3156 -1.1445
  370MOL0     C49858  10.389   9.862   5.565  0.0031  0.7218 -0.0747
  370MOL0    Cl49859  10.222   9.837   5.634 -0.3566  0.4342 -0.1550
  370MOL0     C49860   9.825  10.154   5.499  0.1885  0.2292 -0.2321
  370MOL0     C49861   9.737  10.051   5.531 -0.0170  0.1252 -0.1662
  370MOL0     O49862   9.498   9.907   5.470  0.2271  0.0474  0.3743
  370MOL0     C49863   9.349   9.674   5.490  1.0155  1.1523 -0.3032
  370MOL0     C49864   9.283   9.553   5.513 -0.1685 -0.1980  0.9414
  370MOL0     N49865   9.222   8.817   5.816  0.4448 -0.7202 -0.4940
  370MOL0     N49866   9.138   8.759   5.898  0.3928  0.2538 -0.0577
  370MOL0     C49867   8.229   7.931   5.496  0.8212  0.4315 -0.2103
  370MOL0     C49868   8.151   7.811   5.492 -0.0241  0.1127 -0.2413
  370MOL0     C49869   7.826   7.531   5.511 -0.2610 -0.2930  0.7834
  370MOL0     C49870   7.910   7.424   5.529 -0.6548  0.0081  0.3757
  370MOL0     C49871   7.864   7.285   5.533 -0.2520 -1.8708 -0.2747
  370MOL0     C49872   7.732   7.253   5.499  0.8857  0.1559 -0.1744
  370MOL0     O49873   7.685   7.117   5.499  0.1599  0.0772 -0.0545
  370MOL0     C49874   7.542   7.092   5.465 -0.3774  0.1445 -0.7852
  370MOL0     C49875   7.523   6.933   5.441  0.4069  1.1909  0.3613
  370MOL0     C49876   7.371   6.895   5.412 -0.2781 -0.2028 -1.1396
  370MOL0     C49877   7.278   6.908   5.533  1.0164  0.1401  0.6764
  370MOL0     C49878   7.137   6.892   5.485 -0.2213 -0.3303  0.3631
  370MOL0     C49879   7.018   6.895   5.453  0.8355 -0.6495  0.0698
  370MOL0     C49880   7.653   7.359   5.480 -0.3876 -0.3738 -0.1368
  370MOL0     C49881   7.691   7.499   5.475 -0.4093  0.1898 -0.0718
  370MOL0     C49882   7.581   7.609   5.471 -0.3320 -0.3512  0.3621
  370MOL0     H49883   7.987   7.884   5.782 -1.3751  3.1728 -0.6062
  370MOL0     H49884   8.119   8.081   5.773  3.8678  1.2430 -0.0186
  370MOL0     H49885   8.254   8.252   5.747  0.5198 -0.1511  1.0081
  370MOL0     H49886   8.379   8.131   5.790  0.1420 -1.6202 -1.2684
  370MOL0     H49887   8.423   8.386   5.630  3.6215  2.3509  0.6658
  370MOL0     H49888   8.541   8.249   5.668 -1.4658 -1.8839 -0.0278
  370MOL0     H49889   8.405   8.328   5.919 -0.2265  0.2756 -0.1313
  370MOL0     H49890   8.402   8.466   5.815  1.0231  0.3516 -0.3144
  370MOL0     H49891   8.648   8.365   5.959 -3.1977  0.0103  1.7518
  370MOL0     H49892   8.669   8.406   5.787  1.4714 -0.7753  1.3951
  370MOL0     H49893   8.540   8.632   5.854  0.0731  1.7719  0.2933
  370MOL0     H49894   8.568   8.571   6.019 -0.7233 -3.0153 -0.3865
  370MOL0     H49895   8.812   8.567   5.965 -2.2197 -1.9010  1.4111
  370MOL0     H49896   8.769   8.628   5.799 -2.1245 -3.0131 -0.6972
  370MOL0     H49897   8.698   8.787   6.040  1.2968 -1.5286  1.5172
  370MOL0     H49898   8.731   8.854   5.871  2.6235 -1.4801 -1.4041
  370MOL0     H49899   8.895   8.903   6.053 -0.6860 -0.8153  1.6507
  370MOL0     H49900   8.943   8.736   6.055  2.2287 -0.2446 -1.9425
  370MOL0     H49901   8.951   8.995   5.769  0.7056  0.2260  0.4250
  370MOL0     H49902   9.223   8.922   5.544  3.0292  1.3976 -0.2841
  370MOL0     H49903   9.124   9.059   5.606 -1.0160 -0.5881  1.2761
  370MOL0     H49904   9.388   8.997   5.715 -1.1453 -0.7834  0.5600
  370MOL0     H49905   9.383   9.091   5.572  0.3686 -0.9305  1.2894
  370MOL0     H49906   9.395   9.206   5.797 -1.3755  0.4522  1.6619
  370MOL0     H49907   9.257   9.128   5.848  3.2081 -1.1975  0.9827
  370MOL0     H49908   9.213   9.386   5.781 -0.0627 -0.5480  0.6852
  370MOL0     H49909   9.110   9.277   5.684  0.2544  0.8122  0.4670
  370MOL0     H49910   9.521   9.371   5.681 -1.2293 -2.1906 -1.4730
  370MOL0     H49911   9.641   9.586   5.652 -0.4682 -2.1894  0.8296
  370MOL0     H49912   9.933   9.795   5.448  1.1344 -0.0443 -0.5140
  370MOL0     H49913  10.085   9.993   5.396  1.0317  1.1453  1.0212
  370MOL0     H49914   9.960  10.405   5.457  2.2594  2.6598 -2.5726
  370MOL0     H49915  10.017  10.354   5.614 -0.2947  1.1947  0.1224
  370MOL0     H49916  10.223  10.425   5.401  1.0499  0.5476  0.0158
  370MOL0     H49917  10.155  10.540   5.511 -2.4873 -0.5934  3.6859
  370MOL0     H49918  10.258  10.485   5.689 -1.8474 -1.5419  2.5872
  370MOL0     H49919  10.216  10.316   5.685 -2.2957  0.1184 -1.6120
  370MOL0     H49920  10.454  10.357   5.679 -2.0021 -2.0459  0.0099
  370MOL0     H49921  10.439  10.440   5.518  0.2665 -0.2832 -0.9238
  370MOL0     H49922  10.534  10.219   5.489 -0.4802 -0.8873 -0.4317
  370MOL0     H49923  10.375  10.233   5.413  0.3667  0.2334 -0.2024
  370MOL0     H49924  10.440  10.097   5.669 -1.5592  1.2432  1.0336
  370MOL0     H49925  10.274  10.106   5.608 -0.9277 -3.4849 -1.3827
  370MOL0     H49926  10.500   9.984   5.435  1.4308 -1.2854  0.5743
  370MOL0     H49927  10.323   9.978   5.415 -1.3905 -1.1082  0.8205
  370MOL0     H49928  10.419   9.778   5.501  1.6521  1.7964 -0.7445
  370MOL0     H49929  10.456   9.869   5.650 -2.1153  1.5576  1.6274
  370MOL0     H49930   9.794  10.257   5.503  1.7531  0.7057  0.8196
  370MOL0     H49931   9.643  10.075   5.580  0.7419  1.5477  0.6600
  370MOL0     H49932   9.298   9.759   5.447  1.2146  1.4629  0.0658
  370MOL0     H49933   9.178   9.531   5.494  0.0007 -1.2150  1.1369
  370MOL0     H49934   8.297   7.946   5.413  4.0869 -0.7365  2.0486
  370MOL0     H49935   8.172   7.738   5.414 -0.0642 -0.1984  0.0363
  370MOL0     H49936   8.012   7.429   5.566 -0.0744 -4.3803 -0.0619
  370MOL0     H49937   7.928   7.202   5.560 -1.4296 -2.5030  0.6649
  370MOL0     H49938   7.516   7.147   5.374 -1.3511  4.2397  1.7069
  370MOL0     H49939   7.477   7.126   5.546  1.6781 -0.0237  1.0397
  370MOL0     H49940   7.555   6.873   5.527 -2.0253 -1.2178 -0.2863
  370MOL0     H49941   7.574   6.894   5.353  2.2211  0.8667  1.4986
  370MOL0     H49942   7.359   6.796   5.366  0.4618 -0.2913 -1.1458
  370MOL0     H49943   7.341   6.968   5.337  1.5791  0.0608 -1.6608
  370MOL0     H49944   7.298   6.840   5.617 -0.6958  0.9714  1.8272
  370MOL0     H49945   7.287   7.010   5.572 -0.3131  0.6978 -0.3860
  370MOL0     H49946   6.914   6.920   5.440  1.3173  0.3019 -2.5949
  370MOL0     H49947   7.546   7.344   5.472 -0.3423 -1.9781  1.7244
  370MOL0     H49948   7.622   7.697   5.419  0.1557 -1.4330 -1.1743
  370MOL0     H49949   7.496   7.578   5.408 -0.2279 -1.6324  0.8306
  370MOL0     H49950   7.538   7.642   5.566 -1.9785  4.4795 -1.7291
  371MOL0     O49951   0.569  10.726   8.798  0.0264  0.0815  0.2901
  371MOL0     C49952   0.499  10.750   8.896 -0.3531 -0.1822 -0.2419
  371MOL0     O49953   0.540  10.747   9.027 -0.6889  0.3405  0.2161
  371MOL0     C49954   0.675  10.736   9.046  0.8447  1.0680 -0.4029
  371MOL0     C49955   0.718  10.630   9.127  0.6113  0.5241 -0.9730
  371MOL0     C49956   0.853  10.608   9.146  0.5183  0.3403 -0.1050
  371MOL0     C49957   0.945  10.682   9.083  0.1008 -0.5430  1.0525
  371MOL0     O49958   1.078  10.650   9.097  0.1329  0.2963  0.1960
  371MOL0     C49959   1.159  10.662   8.982  0.4337  0.2532  1.5497
  371MOL0     C49960   1.282  10.559   8.977 -0.3675  0.2294 -0.2993
  371MOL0     C49961   1.385  10.577   9.087  0.7995  0.0579 -0.1394
  371MOL0     C49962   1.498  10.477   9.075  0.2841 -0.2157  0.1372
  371MOL0     C49963   1.601  10.514   9.182  0.1574 -0.0022 -0.1932
  371MOL0     C49964   1.688  10.393   9.204  0.4378  0.3628  0.7928
  371MOL0     C49965   1.815  10.418   9.285  0.2788 -0.6017 -0.3672
  371MOL0     C49966   1.920  10.498   9.204  0.5268 -0.3077 -0.4264
  371MOL0     N49967   2.008  10.414   9.116 -0.2234  0.8535 -0.5845
  371MOL0     C49968   2.124  10.344   9.148 -0.2922 -0.4398 -0.6582
  371MOL0     C49969   2.158  10.277   9.031  0.3689  0.5989  0.1924
  371MOL0     C49970   2.278  10.193   8.989  0.1093 -0.5256  0.0496
  371MOL0     C49971   2.402  10.198   9.074  0.0215  0.5198 -0.5395
  371MOL0     C49972   2.458  10.336   9.070 -0.9145 -0.0122  0.5235
  371MOL0     C49973   2.605  10.343   9.121  1.0174 -0.1714  0.1304
  371MOL0     O49974   2.616  10.283   9.255  0.2215 -0.0300  0.2019
  371MOL0     C49975   2.748  10.275   9.287 -0.7115  0.7412 -0.6608
  371MOL0     C49976   2.817  10.156   9.272 -0.4574  0.3528 -0.5867
  371MOL0     C49977   2.954  10.151   9.311  0.1561 -0.0598  0.2692
  371MOL0     C49978   3.017  10.263   9.374  0.1731  0.3347  0.3601
  371MOL0     C49979   3.160  10.261   9.390  0.4846 -0.1279  0.3484
  371MOL0     O49980   3.225  10.143   9.404 -0.2455  0.1225  0.0904
  371MOL0     C49981   3.362  10.146   9.420  0.0494  0.3036 -0.2885
  371MOL0     C49982   3.423  10.210   9.523 -0.6037  0.4172 -0.1830
  371MOL0     C49983   3.563  10.207   9.543  0.2262  0.6301 -0.5267
  371MOL0     C49984   3.648  10.142   9.445  0.0364  1.1195  0.7828
  371MOL0     O49985   3.781  10.138   9.441 -0.7218  0.3439 -0.3798
  371MOL0     C49986   3.859  10.138   9.562 -0.4250 -0.4967  0.3676
  371MOL0     C49987   3.985  10.062   9.528  0.1959  0.0307  0.0305
  371MOL0     C49988   4.077  10.039   9.648  0.1470  0.2896 -0.0995
  371MOL0     C49989   4.194   9.949   9.629 -0.6368  0.1966  0.4536
  371MOL0     C49990   4.284   9.959   9.746 -0.4684  0.3797 -0.6942
  371MOL0     C49991   4.418   9.885   9.740  0.3355 -1.2999 -0.5861
  371MOL0     C49992   4.487   9.901   9.878  0.1748 -0.2960 -0.5501
  371MOL0     C49993   4.630   9.845   9.886  0.8422  0.0139 -0.1233
  371MOL0    Cl49994   4.697   9.893  10.040 -0.5156 -0.3226 -0.1494
  371MOL0     C49995   3.588  10.073   9.340 -0.4699 -0.3012 -0.9694
  371MOL0     C49996   3.444  10.076   9.332  1.0592  0.5775  0.6678
  371MOL0     O49997   3.218  10.374   9.388 -0.1062  0.8402 -0.0585
  371MOL0     C49998   2.944  10.376   9.400  1.4951  0.1000 -0.6015
  371MOL0     C49999   2.810  10.386   9.345 -0.0897 -0.2938  0.2120
  371MOL0     N50000   2.075  10.323   8.932  0.2143 -0.0306  0.2688
  371MOL0     N50001   1.972  10.384   8.987 -0.2450  0.1291 -0.6276
  371MOL0     C50002   0.898  10.783   8.994 -0.0561  0.3913  0.0026
  371MOL0     C50003   0.764  10.815   8.981  0.3479  0.3619  0.3616
  371MOL0     C50004   0.360  10.784   8.859  0.3444  0.4705 -0.7214
  371MOL0     C50005   0.263  10.743   8.955 -0.2602  1.0348  0.4423
  371MOL0     C50006   0.131  10.737   8.913  0.4485  0.1471  0.4266
  371MOL0     C50007   0.093  10.787   8.786 -0.2101  0.5428 -0.3663
  371MOL0     O50008  -0.044  10.780   8.752  0.0079  0.3676  0.0671
  371MOL0     C50009  -0.083  10.822   8.618  1.1828  0.0337 -0.4503
  371MOL0     C50010  -0.229  10.827   8.610  0.4412 -0.0779  0.2425
  371MOL0     C50011  -0.280  10.823   8.463 -0.0900  0.0580  0.5421
  371MOL0     C50012  -0.420  10.884   8.456  0.3914  0.2664  0.0255
  371MOL0     C50013  -0.512  10.834   8.558  0.5685 -0.3429 -0.1297
  371MOL0     C50014  -0.587  10.799   8.645 -0.2534  0.9168  0.6675
  371MOL0     C50015   0.190  10.847   8.713  0.2914 -0.1607  0.4428
  371MOL0     C50016   0.327  10.840   8.738  0.6028  0.1322  0.2533
  371MOL0     C50017   0.416  10.910   8.638 -0.8645  1.1101 -0.1624
  371MOL0     H50018   0.641  10.577   9.183 -1.0387  0.3701 -3.2258
  371MOL0     H50019   0.886  10.524   9.205  2.2734  1.5420  0.6920
  371MOL0     H50020   1.103  10.662   8.888  0.8598  0.5072  1.2930
  371MOL0     H50021   1.195  10.765   8.981  0.3239  0.5036 -3.7965
  371MOL0     H50022   1.334  10.570   8.882  0.7308 -0.9221  0.1269
  371MOL0     H50023   1.238  10.459   8.986 -3.7824  1.6078 -0.1726
  371MOL0     H50024   1.335  10.563   9.183  0.9106  3.4027  0.5393
  371MOL0     H50025   1.426  10.678   9.095  0.9298 -0.0908  1.3394
  371MOL0     H50026   1.455  10.378   9.096  0.3809 -0.1560  0.6307
  371MOL0     H50027   1.552  10.476   8.980 -0.9183 -0.8013 -0.5636
  371MOL0     H50028   1.657  10.603   9.151 -1.3694  1.2512  0.5231
  371MOL0     H50029   1.549  10.542   9.274  0.6964 -0.0068  0.1236
  371MOL0     H50030   1.643  10.315   9.266 -0.7379 -0.9829 -1.6052
  371MOL0     H50031   1.712  10.349   9.106  0.6891  1.6510  0.2538
  371MOL0     H50032   1.868  10.326   9.310  3.7486  1.4830  0.6342
  371MOL0     H50033   1.793  10.468   9.380  0.2316  0.5691 -0.9739
  371MOL0     H50034   1.873  10.575   9.143  0.1047 -0.3197 -0.1225
  371MOL0     H50035   1.987  10.548   9.275 -0.8866  1.4894 -0.2926
  371MOL0     H50036   2.169  10.347   9.247 -1.6943 -0.6162  0.0049
  371MOL0     H50037   2.248  10.087   8.987  2.5471 -1.3649  2.1584
  371MOL0     H50038   2.300  10.230   8.888  1.0434  1.6779  1.0176
  371MOL0     H50039   2.373  10.174   9.177 -0.5837 -3.1738 -1.4474
  371MOL0     H50040   2.473  10.119   9.052 -0.6470 -0.3740  0.4291
  371MOL0     H50041   2.403  10.413   9.124  0.7782  2.3553 -0.9737
  371MOL0     H50042   2.457  10.365   8.965  1.3361  0.5191  0.6026
  371MOL0     H50043   2.635  10.448   9.130 -0.0459 -0.0100  2.4707
  371MOL0     H50044   2.677  10.303   9.049  2.6016 -0.9106  2.0602
  371MOL0     H50045   2.762  10.075   9.225 -0.1601 -0.2581  0.0866
  371MOL0     H50046   3.013  10.068   9.273 -1.8447 -1.4016 -0.0720
  371MOL0     H50047   3.354  10.262   9.590 -2.5067 -0.9096 -1.0198
  371MOL0     H50048   3.610  10.263   9.624 -1.0089  2.7288 -1.1685
  371MOL0     H50049   3.884  10.239   9.597  1.0922 -0.0943 -1.6519
  371MOL0     H50050   3.811  10.097   9.651  1.0922 -1.2483  0.8693
  371MOL0     H50051   3.963   9.963   9.488 -1.3856 -0.0174  0.9323
  371MOL0     H50052   4.040  10.116   9.450  0.9533  0.7781  1.0448
  371MOL0     H50053   4.112  10.141   9.667  0.0182  1.1110 -3.4956
  371MOL0     H50054   4.010  10.019   9.732  1.0194  1.3427  0.8740
  371MOL0     H50055   4.240   9.980   9.535  1.8956 -0.9485  1.2162
  371MOL0     H50056   4.154   9.848   9.618  1.8196 -1.0981  2.2604
  371MOL0     H50057   4.230   9.920   9.833  2.7360 -3.0806  0.0098
  371MOL0     H50058   4.308  10.065   9.760 -1.0326  0.1712  2.6212
  371MOL0     H50059   4.409   9.781   9.708  1.6528 -1.6962  0.2538
  371MOL0     H50060   4.480   9.935   9.666 -0.1082 -1.3707 -1.0098
  371MOL0     H50061   4.435   9.861   9.965 -0.6433 -1.8766 -1.6962
  371MOL0     H50062   4.498  10.010   9.884  1.3886 -0.1332 -3.7383
  371MOL0     H50063   4.614   9.737   9.889 -1.0592  0.1364 -2.5066
  371MOL0     H50064   4.694   9.882   9.806  1.2592 -0.0943  0.1568
  371MOL0     H50065   3.648  10.029   9.261 -0.7949  0.6354 -1.7660
  371MOL0     H50066   3.399  10.011   9.257  1.5403 -2.8365  3.0843
  371MOL0     H50067   2.994  10.458   9.450  1.8588 -0.6200  0.2449
  371MOL0     H50068   2.755  10.479   9.335  0.4577  0.1652  1.3362
  371MOL0     H50069   0.958  10.842   8.925  2.4190 -1.8610  0.0911
  371MOL0     H50070   0.724  10.899   8.927  0.1595 -0.5757 -0.9928
  371MOL0     H50071   0.295  10.717   9.055 -0.0877 -0.6763 -0.0335
  371MOL0     H50072   0.057  10.700   8.983  1.3580 -2.2091  0.2486
  371MOL0     H50073  -0.030  10.766   8.541  2.0635 -2.0040  1.5426
  371MOL0     H50074  -0.047  10.925   8.617 -0.2280  0.6143  1.6945
  371MOL0     H50075  -0.269  10.918   8.657 -1.9212  1.8803 -4.7899
  371MOL0     H50076  -0.268  10.743   8.668 -0.7872  0.5744  0.4088
  371MOL0     H50077  -0.287  10.715   8.444 -0.3995  0.0949  0.4345
  371MOL0     H50078  -0.212  10.862   8.386 -0.5653 -0.3906 -0.1155
  371MOL0     H50079  -0.415  10.989   8.488  1.0883  0.1557  0.3065
  371MOL0     H50080  -0.462  10.872   8.356  1.5835  1.8106 -0.7013
  371MOL0     H50081  -0.659  10.762   8.714  0.4171 -1.6317  0.1239
  371MOL0     H50082   0.161  10.882   8.614 -1.8039  1.8591  1.6695
  371MOL0     H50083   0.511  10.950   8.676  0.9113 -2.1822 -0.8168
  371MOL0     H50084   0.449  10.839   8.562 -0.0192 -0.3117  1.4466
  371MOL0     H50085   0.354  10.992   8.601 -0.4078  3.3228  3.4287
  372MOL0     O50086   5.794   6.151   0.505  0.5621 -0.0086  0.0493
  372MOL0     C50087   5.733   6.205   0.411 -0.4800  0.0015 -0.0746
  372MOL0     O50088   5.783   6.304   0.333 -0.4524  0.4112  0.0316
  372MOL0     C50089   5.916   6.330   0.345  0.7634 -0.1436 -0.2566
  372MOL0     C50090   6.017   6.234   0.342 -0.0219  0.2392 -0.0182
  372MOL0     C50091   6.151   6.280   0.332 -0.2125 -0.0101  0.6143
  372MOL0     C50092   6.187   6.412   0.346  1.2686  0.2660  0.4300
  372MOL0     O50093   6.314   6.456   0.356  0.2578 -0.4039 -0.1649
  372MOL0     C50094   6.355   6.576   0.290  0.4874  0.6180 -0.3124
  372MOL0     C50095   6.492   6.556   0.231 -0.3556  0.5995 -1.2100
  372MOL0     C50096   6.618   6.558   0.329  0.3879  0.4591  0.2138
  372MOL0     C50097   6.749   6.518   0.248  0.4274 -0.7794 -0.1906
  372MOL0     C50098   6.874   6.516   0.329  0.9747 -0.0821  0.3205
  372MOL0     C50099   6.994   6.487   0.246  0.4760  1.0721  1.0721
  372MOL0     C50100   7.132   6.490   0.311  0.3095 -0.5633 -0.0994
  372MOL0     C50101   7.152   6.378   0.412  0.3029 -0.7213  0.3261
  372MOL0     N50102   7.283   6.426   0.469  0.1953 -0.2337 -0.3797
  372MOL0     C50103   7.414   6.411   0.419  0.2005 -0.3422  0.2233
  372MOL0     C50104   7.491   6.446   0.524 -0.0097  0.7829 -0.6086
  372MOL0     C50105   7.637   6.436   0.528 -0.4563  0.6108  0.2299
  372MOL0     C50106   7.682   6.310   0.614  0.2107  0.1582 -0.2281
  372MOL0     C50107   7.831   6.278   0.597  0.0119  0.1583 -0.1757
  372MOL0     C50108   7.872   6.166   0.698 -0.5961  0.1542 -0.3563
  372MOL0     O50109   7.875   6.223   0.825  0.2616  0.1293  0.1336
  372MOL0     C50110   8.004   6.253   0.863 -0.5082  0.0824  0.0984
  372MOL0     C50111   8.088   6.149   0.916 -0.1451  0.1095  0.4387
  372MOL0     C50112   8.215   6.187   0.952 -0.4075  0.5662  0.5868
  372MOL0     C50113   8.259   6.319   0.940  0.1946 -0.3093  0.2111
  372MOL0     C50114   8.399   6.348   0.972 -0.3005  0.8956  1.0712
  372MOL0     O50115   8.484   6.236   0.973  0.1385  0.0209 -0.3272
  372MOL0     C50116   8.612   6.237   1.016 -0.6840  0.8885 -0.0292
  372MOL0     C50117   8.679   6.338   1.090  0.1665  0.0597  0.1132
  372MOL0     C50118   8.818   6.325   1.108  0.1741 -0.5129 -0.1082
  372MOL0     C50119   8.888   6.214   1.063 -0.2947 -0.1055  1.1144
  372MOL0     O50120   9.024   6.210   1.069  0.0977 -0.7394  0.1402
  372MOL0     C50121   9.099   6.288   1.159  0.6956  0.6491 -0.0225
  372MOL0     C50122   9.248   6.252   1.163 -0.4203  0.2329  0.0384
  372MOL0     C50123   9.322   6.308   1.041  0.4033  0.1874 -0.4108
  372MOL0     C50124   9.467   6.333   1.082 -0.5863  0.3018  0.2891
  372MOL0     C50125   9.509   6.484   1.046  0.1369  0.0104  0.4458
  372MOL0     C50126   9.663   6.507   1.056 -1.4065 -0.0862 -0.2192
  372MOL0     C50127   9.689   6.649   1.109  1.0565  0.0019  0.0382
  372MOL0     C50128   9.831   6.672   1.165  0.5906  0.4019  0.0495
  372MOL0    Cl50129   9.941   6.590   1.059 -0.2869 -0.8366 -0.1415
  372MOL0     C50130   8.826   6.108   1.008  0.6932  0.7298  0.2783
  372MOL0     C50131   8.688   6.117   0.978  0.4441 -0.4719  0.3459
  372MOL0     O50132   8.431   6.468   0.980 -0.5251  0.2470 -0.3854
  372MOL0     C50133   8.176   6.417   0.892  0.6883 -0.6331 -0.7758
  372MOL0     C50134   8.046   6.383   0.853 -0.0524  0.3027 -0.2190
  372MOL0     N50135   7.410   6.486   0.634 -0.2790  0.3273 -0.1751
  372MOL0     N50136   7.289   6.474   0.600  0.4100  0.7258  0.8457
  372MOL0     C50137   6.083   6.509   0.341 -0.6049  0.1407 -1.1141
  372MOL0     C50138   5.946   6.467   0.334 -0.6920  0.1749 -0.0855
  372MOL0     C50139   5.598   6.159   0.385  0.6890  0.0259  0.5738
  372MOL0     C50140   5.516   6.136   0.497  0.1088 -0.6410 -0.0736
  372MOL0     C50141   5.381   6.129   0.482  0.2023 -0.5253 -1.1959
  372MOL0     C50142   5.320   6.137   0.360  0.2512 -0.0316 -0.3981
  372MOL0     O50143   5.188   6.121   0.341 -1.1236  0.1386  0.3845
  372MOL0     C50144   5.097   6.150   0.454 -0.5820  0.3846  0.9661
  372MOL0     C50145   4.952   6.147   0.410 -0.5825 -0.5524  0.3014
  372MOL0     C50146   4.852   6.169   0.522 -0.5305 -0.3039 -0.5065
  372MOL0     C50147   4.711   6.187   0.448  1.2251  0.7711 -0.8692
  372MOL0     C50148   4.616   6.236   0.548 -0.0627  0.8938 -0.8993
  372MOL0     C50149   4.540   6.283   0.627  0.1100 -0.8289 -1.0004
  372MOL0     C50150   5.404   6.122   0.252 -0.1062 -0.3520  0.4364
  372MOL0     C50151   5.542   6.141   0.262 -0.4675  0.2318  0.1525
  372MOL0     C50152   5.622   6.152   0.136  0.0052  0.1194  0.4446
  372MOL0     H50153   5.984   6.131   0.341 -2.2450  0.8528 -2.6621
  372MOL0     H50154   6.233   6.211   0.320 -0.1684  0.2546 -0.7646
  372MOL0     H50155   6.292   6.583   0.201  1.4413  1.2844 -0.9657
  372MOL0     H50156   6.348   6.670   0.347  2.3347  1.2564 -1.0629
  372MOL0     H50157   6.510   6.646   0.172 -1.9385  0.4569 -1.9633
  372MOL0     H50158   6.504   6.471   0.163  0.4297 -0.3752  0.0895
  372MOL0     H50159   6.594   6.486   0.408 -0.2202 -1.5199 -1.6814
  372MOL0     H50160   6.640   6.658   0.368 -1.4965  1.0988 -0.2788
  372MOL0     H50161   6.737   6.412   0.224 -0.8264 -0.3271 -1.6553
  372MOL0     H50162   6.763   6.565   0.150  1.6115 -1.3081 -0.2984
  372MOL0     H50163   6.884   6.604   0.394 -1.4895  0.9688 -0.5732
  372MOL0     H50164   6.856   6.441   0.406 -0.5965  1.8298  1.9312
  372MOL0     H50165   6.975   6.390   0.199 -1.2879  1.0490  1.7316
  372MOL0     H50166   6.998   6.562   0.167 -0.5371  0.2231  0.1792
  372MOL0     H50167   7.151   6.583   0.367 -0.6176 -0.5292  0.1913
  372MOL0     H50168   7.204   6.484   0.229 -0.5588  2.2954 -1.2180
  372MOL0     H50169   7.077   6.368   0.491  1.2552  0.6213  1.4643
  372MOL0     H50170   7.159   6.284   0.358 -1.7542 -2.0280  2.1769
  372MOL0     H50171   7.445   6.363   0.327 -0.1092 -1.3061  0.6155
  372MOL0     H50172   7.667   6.421   0.424 -2.2726  1.2053 -0.4194
  372MOL0     H50173   7.687   6.524   0.570  0.1747 -0.2395  1.3364
  372MOL0     H50174   7.662   6.329   0.720 -1.1943  0.5326 -0.5463
  372MOL0     H50175   7.627   6.231   0.563  0.9578  0.0491 -0.8770
  372MOL0     H50176   7.887   6.370   0.614  0.5356 -0.0813 -0.5693
  372MOL0     H50177   7.861   6.248   0.496  3.5668 -1.1322  1.1069
  372MOL0     H50178   7.964   6.111   0.678  0.1579  0.6916  1.5029
  372MOL0     H50179   7.799   6.084   0.704  0.1532 -0.4236  2.2638
  372MOL0     H50180   8.049   6.048   0.913  1.0566 -0.3401 -0.6349
  372MOL0     H50181   8.282   6.111   0.990  1.2487  0.2490 -2.6386
  372MOL0     H50182   8.631   6.434   1.102  1.7995  1.8010 -4.9184
  372MOL0     H50183   8.875   6.412   1.140 -0.2505 -0.2701  0.0126
  372MOL0     H50184   9.098   6.396   1.140  2.9560  0.7924  0.4456
  372MOL0     H50185   9.058   6.274   1.260  1.3658 -1.1866  0.0219
  372MOL0     H50186   9.288   6.291   1.258 -0.4175  1.4140 -0.4276
  372MOL0     H50187   9.258   6.143   1.172 -1.5578  0.2204  1.6633
  372MOL0     H50188   9.329   6.226   0.970  1.5624 -1.0546  1.0605
  372MOL0     H50189   9.268   6.397   1.006  0.2005  0.1305 -0.2476
  372MOL0     H50190   9.534   6.268   1.026 -0.4522 -0.3161  1.1493
  372MOL0     H50191   9.487   6.312   1.187  0.9725 -4.0031 -0.6597
  372MOL0     H50192   9.462   6.550   1.119  0.6130 -0.7130  1.4239
  372MOL0     H50193   9.471   6.523   0.951  1.6900 -0.0122 -0.2285
  372MOL0     H50194   9.703   6.438   1.131 -2.0120 -1.1912 -0.8810
  372MOL0     H50195   9.720   6.489   0.965 -2.3156 -4.0079 -0.1778
  372MOL0     H50196   9.610   6.689   1.173  1.5468 -1.0100  1.3178
  372MOL0     H50197   9.687   6.703   1.014 -1.1573 -1.6560 -0.9375
  372MOL0     H50198   9.857   6.778   1.172 -2.0112  1.4819 -3.7424
  372MOL0     H50199   9.830   6.630   1.266  0.0946  0.6697  0.1555
  372MOL0     H50200   8.886   6.026   0.970 -0.4623  0.4082 -0.9324
  372MOL0     H50201   8.643   6.034   0.924 -1.4810  1.5499 -1.3933
  372MOL0     H50202   8.209   6.519   0.878 -0.4989 -0.0046  0.6103
  372MOL0     H50203   7.979   6.466   0.830 -0.4740  0.6159  1.8913
  372MOL0     H50204   6.102   6.615   0.350  1.5723 -0.2134 -1.0312
  372MOL0     H50205   5.862   6.534   0.319 -2.7559 -2.7433 -2.8945
  372MOL0     H50206   5.554   6.127   0.598 -1.5000  0.8250  0.7078
  372MOL0     H50207   5.329   6.116   0.577 -0.1138 -1.7403 -1.5156
  372MOL0     H50208   5.126   6.251   0.482  0.5656  1.2442 -2.7753
  372MOL0     H50209   5.114   6.083   0.539 -2.2857  0.9082  1.7596
  372MOL0     H50210   4.935   6.052   0.360  0.3286  0.2434 -1.6404
  372MOL0     H50211   4.932   6.227   0.338 -1.1036 -2.8200 -2.2177
  372MOL0     H50212   4.881   6.260   0.576 -1.5163  0.4530 -1.2082
  372MOL0     H50213   4.862   6.084   0.589  0.6809 -0.1367 -0.4575
  372MOL0     H50214   4.722   6.261   0.368  0.4928  4.0487  1.8364
  372MOL0     H50215   4.681   6.087   0.414  1.1809  0.3780  0.2746
  372MOL0     H50216   4.471   6.312   0.703  1.3862 -0.3515  0.0244
  372MOL0     H50217   5.359   6.104   0.155  1.7216  1.3167 -0.8001
  372MOL0     H50218   5.581   6.087   0.059 -0.6613  1.9598 -0.8202
  372MOL0     H50219   5.617   6.254   0.096 -3.5508 -0.0470  0.1750
  372MOL0     H50220   5.726   6.120   0.147  0.8550  1.3216 -2.9911
  373MOL0     O50221   6.567   5.980   2.545  0.7260  0.5281 -0.2054
  373MOL0     C50222   6.486   5.906   2.483  0.1878 -0.4317  0.1410
  373MOL0     O50223   6.523   5.799   2.413  0.8239 -0.1344 -0.3655
  373MOL0     C50224   6.656   5.766   2.415  0.0165  0.2349 -0.4238
  373MOL0     C50225   6.695   5.666   2.504 -0.1734  0.0550 -0.9624
  373MOL0     C50226   6.830   5.628   2.513 -0.1461  0.3024 -0.2674
  373MOL0     C50227   6.922   5.697   2.431 -0.2320 -0.0056  0.0120
  373MOL0     O50228   7.051   5.654   2.448 -0.4030 -0.0730  0.6067
  373MOL0     C50229   7.146   5.683   2.353 -0.0366 -0.8274  0.4249
  373MOL0     C50230   7.286   5.641   2.372  0.7312 -0.0346  0.3930
  373MOL0     C50231   7.373   5.692   2.257 -0.5910  0.5289 -0.3213
  373MOL0     C50232   7.509   5.657   2.282 -0.0317 -0.3398 -0.2904
  373MOL0     C50233   7.612   5.743   2.202 -0.3510  0.7941 -0.7940
  373MOL0     C50234   7.608   5.694   2.061  0.0013  0.7617  0.6111
  373MOL0     C50235   7.709   5.775   1.974  0.9787  0.2259 -0.5962
  373MOL0     C50236   7.662   5.916   1.959  0.0195 -0.1145  0.0598
  373MOL0     N50237   7.751   6.004   1.880  0.5242  0.0073  0.4893
  373MOL0     C50238   7.882   6.009   1.901  0.3181  0.1208 -0.0225
  373MOL0     C50239   7.936   6.054   1.787  0.2697  0.3290 -0.2345
  373MOL0     C50240   8.072   6.072   1.753  0.7613 -0.0531  0.3088
  373MOL0     C50241   8.124   5.941   1.694 -0.0324 -0.3313 -0.5290
  373MOL0     C50242   8.270   5.913   1.708 -0.4328  0.1288 -0.9551
  373MOL0     C50243   8.316   5.790   1.631  0.5111  0.7155 -0.6312
  373MOL0     O50244   8.458   5.784   1.662 -0.1876  0.4695 -0.0673
  373MOL0     C50245   8.524   5.688   1.591 -0.3287  0.1529  0.1116
  373MOL0     C50246   8.468   5.594   1.493  0.4877  1.1732 -0.2892
  373MOL0     C50247   8.557   5.502   1.436  0.5763  1.0181  0.0469
  373MOL0     C50248   8.694   5.503   1.472 -0.1638 -0.2176 -0.7779
  373MOL0     C50249   8.784   5.407   1.415 -1.2242  0.0350 -0.1017
  373MOL0     O50250   8.903   5.394   1.483 -0.0633 -0.1839 -0.1895
  373MOL0     C50251   8.998   5.307   1.439 -0.2730 -0.3163 -0.3819
  373MOL0     C50252   9.046   5.306   1.306  0.4132 -0.1279  0.4508
  373MOL0     C50253   9.160   5.232   1.259 -0.5409  0.1065 -0.2801
  373MOL0     C50254   9.222   5.142   1.351  0.3780 -0.3682 -0.2955
  373MOL0     O50255   9.320   5.066   1.306 -0.1689 -0.1837  0.5821
  373MOL0     C50256   9.406   5.003   1.406 -0.0064 -0.1732 -0.3301
  373MOL0     C50257   9.503   4.924   1.329  0.6620  0.8402 -0.1936
  373MOL0     C50258   9.627   4.874   1.408 -0.4510  0.5453 -0.2665
  373MOL0     C50259   9.709   4.779   1.316 -0.1350  0.2819 -0.2678
  373MOL0     C50260   9.841   4.732   1.383  0.6446 -0.4588  0.3096
  373MOL0     C50261   9.951   4.839   1.376 -0.4012  0.6892 -0.4646
  373MOL0     C50262  10.061   4.801   1.472 -0.2750 -0.1029  0.2619
  373MOL0     C50263  10.188   4.853   1.415 -0.0091  0.0686 -0.0614
  373MOL0    Cl50264  10.249   4.748   1.279 -0.1558 -0.4203  0.1015
  373MOL0     C50265   9.167   5.132   1.475  0.2862  0.4621  0.0291
  373MOL0     C50266   9.059   5.218   1.522  0.1962  0.3523  0.0467
  373MOL0     O50267   8.755   5.357   1.308 -0.2527 -0.8779  0.3801
  373MOL0     C50268   8.747   5.597   1.557  0.4414  0.4720 -0.8504
  373MOL0     C50269   8.660   5.697   1.613 -0.6084 -0.1470 -0.3003
  373MOL0     N50270   7.836   6.076   1.698 -0.3827 -0.0672 -0.5432
  373MOL0     N50271   7.725   6.056   1.754  0.0110 -0.9018  0.1077
  373MOL0     C50272   6.880   5.803   2.346 -0.1358  0.5457 -0.7035
  373MOL0     C50273   6.752   5.834   2.336  0.0003 -0.6337  0.0178
  373MOL0     C50274   6.337   5.933   2.486 -1.0696  0.5554 -0.1214
  373MOL0     C50275   6.264   5.887   2.371  0.2220 -0.1276 -0.7372
  373MOL0     C50276   6.124   5.913   2.369  0.3151  0.4440  0.5851
  373MOL0     C50277   6.056   5.971   2.482 -0.5589  0.2243 -0.0930
  373MOL0     O50278   5.917   5.983   2.474 -0.3617  0.2879 -0.6936
  373MOL0     C50279   5.850   6.035   2.587  1.4403 -0.2098 -1.2733
  373MOL0     C50280   5.706   6.060   2.550  0.1169  0.2542  0.1434
  373MOL0     C50281   5.636   6.119   2.675 -0.2163  0.1168  0.4296
  373MOL0     C50282   5.490   6.154   2.646  0.1630  0.0192  0.3605
  373MOL0     C50283   5.416   6.034   2.624 -0.0598  0.1590 -0.6616
  373MOL0     C50284   5.351   5.931   2.606 -0.6827  0.1524  0.0864
  373MOL0     C50285   6.136   6.008   2.590 -0.3113 -0.6942 -0.1907
  373MOL0     C50286   6.274   5.988   2.596 -0.1918  0.1381 -0.6550
  373MOL0     C50287   6.352   6.010   2.724  0.0603 -0.2179 -0.8719
  373MOL0     H50288   6.623   5.619   2.569 -0.2966  0.8791 -0.4887
  373MOL0     H50289   6.861   5.541   2.571  0.8200  0.4360 -0.5604
  373MOL0     H50290   7.106   5.643   2.259 -0.4503 -2.1278  1.1211
  373MOL0     H50291   7.139   5.792   2.351  0.2376 -0.7257  2.5529
  373MOL0     H50292   7.271   5.532   2.371 -3.1479  0.3118 -2.6151
  373MOL0     H50293   7.322   5.679   2.468  1.2527 -2.6379  1.3041
  373MOL0     H50294   7.363   5.801   2.247  1.2145  0.7309 -0.2826
  373MOL0     H50295   7.336   5.639   2.169 -1.9858  2.1375 -0.7482
  373MOL0     H50296   7.526   5.670   2.389  1.0537 -1.2065 -0.3324
  373MOL0     H50297   7.523   5.551   2.260  4.2281  0.0136 -0.1116
  373MOL0     H50298   7.591   5.848   2.226  1.9238  0.4202  3.9885
  373MOL0     H50299   7.712   5.723   2.239 -1.0536 -1.9808 -0.1912
  373MOL0     H50300   7.636   5.588   2.063 -1.0084  0.4666 -0.0318
  373MOL0     H50301   7.509   5.713   2.018 -0.0082  1.1092  0.7820
  373MOL0     H50302   7.714   5.720   1.879 -1.8074 -1.4573  0.0920
  373MOL0     H50303   7.803   5.771   2.029 -0.8813 -0.8499  2.7797
  373MOL0     H50304   7.566   5.913   1.908  0.6616 -2.1329 -1.1358
  373MOL0     H50305   7.662   5.959   2.060 -2.3146 -0.0109  0.0677
  373MOL0     H50306   7.938   5.962   1.982 -0.2827 -2.4049 -0.9650
  373MOL0     H50307   8.073   6.152   1.678  0.6811  0.1887  0.5671
  373MOL0     H50308   8.132   6.102   1.839 -0.4674  2.7543  0.2803
  373MOL0     H50309   8.073   5.857   1.742  0.2823  0.6708  1.6579
  373MOL0     H50310   8.094   5.937   1.589 -1.3049  1.5396 -0.2890
  373MOL0     H50311   8.295   5.903   1.815  3.1623  0.6578 -1.6242
  373MOL0     H50312   8.322   6.000   1.668 -0.0168 -0.5467 -1.9131
  373MOL0     H50313   8.288   5.805   1.527 -1.8142 -2.3339 -0.5577
  373MOL0     H50314   8.267   5.699   1.667 -2.2186  1.4408 -2.2355
  373MOL0     H50315   8.362   5.592   1.472  0.2159 -1.2958  1.0199
  373MOL0     H50316   8.516   5.430   1.366  1.7806  0.1015  0.2579
  373MOL0     H50317   8.999   5.365   1.228 -2.3201 -2.0636  0.4880
  373MOL0     H50318   9.191   5.241   1.156  3.0025  3.4360  0.8536
  373MOL0     H50319   9.459   5.075   1.469 -2.9123 -0.1680  2.3725
  373MOL0     H50320   9.352   4.938   1.475  1.5524  1.3385  2.5328
  373MOL0     H50321   9.450   4.838   1.286 -1.3506  1.7831  0.2534
  373MOL0     H50322   9.540   4.985   1.246  3.0264  1.1400  1.0081
  373MOL0     H50323   9.697   4.951   1.443 -0.8054  0.8306 -0.1820
  373MOL0     H50324   9.586   4.819   1.493 -0.0536  0.5831 -0.0451
  373MOL0     H50325   9.733   4.832   1.224  0.0698  0.1508 -0.2920
  373MOL0     H50326   9.662   4.685   1.284  2.0119 -1.2641  0.8187
  373MOL0     H50327   9.879   4.640   1.338  1.5819 -0.1718  0.4875
  373MOL0     H50328   9.804   4.706   1.483  2.4081 -0.9751  0.8585
  373MOL0     H50329   9.980   4.854   1.271 -1.3892  1.4728 -0.6435
  373MOL0     H50330   9.912   4.936   1.406  0.7603  0.3504  2.4899
  373MOL0     H50331  10.077   4.697   1.500  1.2459  0.4959  1.8543
  373MOL0     H50332  10.043   4.847   1.570 -1.0008 -0.5476  0.3392
  373MOL0     H50333  10.176   4.956   1.379  0.8972  1.0033  2.1179
  373MOL0     H50334  10.258   4.846   1.499 -1.4529 -1.9457  1.0364
  373MOL0     H50335   9.209   5.069   1.552 -0.9625 -1.5392 -0.8522
  373MOL0     H50336   9.015   5.211   1.621  0.2387 -2.0199 -0.0441
  373MOL0     H50337   8.850   5.604   1.590  0.7820  1.9142 -2.1467
  373MOL0     H50338   8.694   5.767   1.689 -0.8225 -0.3543 -0.0134
  373MOL0     H50339   6.947   5.853   2.276  2.1023  0.5399  1.3033
  373MOL0     H50340   6.726   5.923   2.279  0.2953 -0.1496  0.6271
  373MOL0     H50341   6.311   5.850   2.280  1.3244 -0.9894  0.1597
  373MOL0     H50342   6.077   5.878   2.278  0.9591  0.7479  0.1290
  373MOL0     H50343   5.889   6.128   2.627 -1.3037  1.0663 -1.3414
  373MOL0     H50344   5.868   5.955   2.659  1.3394 -1.0222 -2.1210
  373MOL0     H50345   5.655   5.968   2.519  1.1284  0.7740 -3.4422
  373MOL0     H50346   5.712   6.122   2.460 -1.3606 -1.1585 -0.9845
  373MOL0     H50347   5.688   6.209   2.706  1.4562 -0.8234  0.4854
  373MOL0     H50348   5.631   6.044   2.755 -0.2702  0.1766  0.4827
  373MOL0     H50349   5.452   6.195   2.740  1.0101 -0.7205  1.0399
  373MOL0     H50350   5.480   6.223   2.561  1.0941  0.7120  0.8017
  373MOL0     H50351   5.293   5.847   2.574  0.5939 -0.8914  0.4292
  373MOL0     H50352   6.089   6.038   2.683  0.4633 -1.5447  0.4974
  373MOL0     H50353   6.400   6.107   2.710 -4.1109  2.3729  0.6292
  373MOL0     H50354   6.286   6.008   2.811  2.6787 -0.3732  1.1927
  373MOL0     H50355   6.425   5.930   2.734 -1.3625 -1.3199  1.5025
  374MOL0     O50356   2.080   0.684   6.058  0.2094 -0.3998 -0.5160
  374MOL0     C50357   2.039   0.774   6.137 -0.8711  0.1646  0.1885
  374MOL0     O50358   2.117   0.816   6.245 -0.4883 -0.7482 -0.6012
  374MOL0     C50359   2.252   0.798   6.233  0.3248 -0.1273 -0.1079
  374MOL0     C50360   2.332   0.823   6.118  1.0977 -0.5630 -1.2595
  374MOL0     C50361   2.476   0.801   6.120  0.7233 -0.4526 -0.0710
  374MOL0     C50362   2.534   0.747   6.231  0.1340 -0.0158 -0.4039
  374MOL0     O50363   2.672   0.718   6.223  0.5091  0.1168  0.5179
  374MOL0     C50364   2.734   0.660   6.338  0.2095  0.3943  0.3561
  374MOL0     C50365   2.881   0.699   6.332 -1.5099 -0.8004 -0.1681
  374MOL0     C50366   2.965   0.625   6.445  0.2080 -1.1114  0.2340
  374MOL0     C50367   3.116   0.647   6.427  1.0024  1.2274 -0.3035
  374MOL0     C50368   3.150   0.776   6.509  0.6718  0.2293 -0.2405
  374MOL0     C50369   3.299   0.803   6.505  0.2682  0.6156  0.3274
  374MOL0     C50370   3.323   0.935   6.568 -0.8225 -0.4219  0.3219
  374MOL0     C50371   3.454   0.996   6.518 -0.4464  0.5007 -0.6373
  374MOL0     N50372   3.577   0.920   6.559  0.3474 -0.3419  0.4658
  374MOL0     C50373   3.674   0.882   6.470 -0.3185  0.0569  0.3585
  374MOL0     C50374   3.767   0.816   6.553 -0.6302 -0.2133 -0.0604
  374MOL0     C50375   3.895   0.763   6.503 -0.0987 -0.6812 -0.6591
  374MOL0     C50376   3.913   0.615   6.540 -0.4754 -0.0875  0.0713
  374MOL0     C50377   4.052   0.556   6.489  0.2765  0.2825  0.1745
  374MOL0     C50378   4.173   0.577   6.584  0.1934 -0.3748  0.2028
  374MOL0     O50379   4.293   0.526   6.512  1.6049  0.5038 -0.5762
  374MOL0     C50380   4.414   0.571   6.542  0.4492 -0.1177  0.1500
  374MOL0     C50381   4.448   0.657   6.642  0.1345 -0.3915  0.5844
  374MOL0     C50382   4.572   0.710   6.662  0.0447  0.0626  0.2129
  374MOL0     C50383   4.678   0.657   6.584  0.1575  0.3853 -0.2509
  374MOL0     C50384   4.817   0.709   6.607 -0.0488  0.3054  0.0859
  374MOL0     O50385   4.922   0.639   6.550 -0.2698  0.1463  0.1788
  374MOL0     C50386   5.056   0.664   6.569  0.2042  0.0347  0.3158
  374MOL0     C50387   5.107   0.695   6.692 -0.7359  0.0590  0.1999
  374MOL0     C50388   5.249   0.733   6.705  0.0957 -0.3997  0.4771
  374MOL0     C50389   5.329   0.720   6.585 -0.2051  0.0985 -1.0806
  374MOL0     O50390   5.466   0.729   6.575 -0.2974 -0.3215 -0.1899
  374MOL0     C50391   5.540   0.760   6.685 -0.6436  0.0734 -0.1799
  374MOL0     C50392   5.683   0.787   6.634 -0.2462 -0.4932 -0.0561
  374MOL0     C50393   5.765   0.877   6.735  0.1374  0.4672 -0.4202
  374MOL0     C50394   5.921   0.878   6.697 -0.2065  0.1068 -0.3712
  374MOL0     C50395   5.997   0.942   6.824  0.1868 -1.0825 -0.5057
  374MOL0     C50396   6.139   0.980   6.781 -0.2160  0.1584 -0.5236
  374MOL0     C50397   6.203   1.087   6.879 -1.5387  0.2440  0.2321
  374MOL0     C50398   6.359   1.078   6.880  0.0187 -0.0566 -0.5987
  374MOL0    Cl50399   6.440   1.209   6.976 -0.1428 -0.0957  0.2745
  374MOL0     C50400   5.277   0.674   6.464  0.2463  0.5523 -0.6360
  374MOL0     C50401   5.140   0.643   6.462  0.0263  0.1667  0.0585
  374MOL0     O50402   4.832   0.811   6.664  0.3695  0.1599 -0.1725
  374MOL0     C50403   4.648   0.556   6.491  0.6539  0.2536 -0.8478
  374MOL0     C50404   4.520   0.514   6.475  0.3047 -0.9108 -0.3846
  374MOL0     N50405   3.726   0.831   6.682 -0.4999 -0.1066 -0.7709
  374MOL0     N50406   3.615   0.892   6.681 -0.0531  0.2447  0.1426
  374MOL0     C50407   2.455   0.721   6.346  0.7677 -0.7598 -0.5450
  374MOL0     C50408   2.316   0.748   6.349 -0.5723 -0.0605 -1.0654
  374MOL0     C50409   1.918   0.847   6.095  0.7985  0.5258  0.0205
  374MOL0     C50410   1.848   0.787   5.980  0.5499  0.0453 -0.0470
  374MOL0     C50411   1.742   0.849   5.916 -0.3956  0.7271  0.3584
  374MOL0     C50412   1.697   0.969   5.973  0.2529  0.6871  0.0195
  374MOL0     O50413   1.603   1.043   5.907 -0.6856  0.3046  0.0263
  374MOL0     C50414   1.527   1.003   5.789 -0.8748  0.4807 -0.1111
  374MOL0     C50415   1.438   0.881   5.798  0.1855 -0.5978  0.4482
  374MOL0     C50416   1.350   0.893   5.676  0.6236 -0.6069  0.1914
  374MOL0     C50417   1.237   0.781   5.677 -0.2618  0.1150  0.2670
  374MOL0     C50418   1.109   0.840   5.648 -0.5352 -0.4168  0.4327
  374MOL0     C50419   1.010   0.894   5.605 -0.2999 -0.7097  0.1409
  374MOL0     C50420   1.747   1.020   6.094  0.2490 -0.2182 -0.8302
  374MOL0     C50421   1.858   0.956   6.152  0.2411 -0.5612  0.3624
  374MOL0     C50422   1.918   1.021   6.272  0.9462 -0.0259 -0.5378
  374MOL0     H50423   2.271   0.860   6.036 -0.7036 -1.1082 -0.2339
  374MOL0     H50424   2.526   0.808   6.024  1.6753 -2.8279  0.1740
  374MOL0     H50425   2.696   0.695   6.435  0.3359 -2.2904  1.4687
  374MOL0     H50426   2.719   0.552   6.351  1.8211  0.0553 -0.4247
  374MOL0     H50427   2.889   0.807   6.350  2.8398 -1.1405  0.8727
  374MOL0     H50428   2.924   0.664   6.238  5.2450 -0.5021  2.3082
  374MOL0     H50429   2.956   0.516   6.438  0.3524 -1.1175  0.1436
  374MOL0     H50430   2.929   0.666   6.540  0.7595 -2.7072  1.1742
  374MOL0     H50431   3.179   0.563   6.457  0.2007  0.6572 -0.1924
  374MOL0     H50432   3.151   0.664   6.325  3.9663  2.3240  0.7836
  374MOL0     H50433   3.098   0.862   6.466  0.2548  0.2336  0.2641
  374MOL0     H50434   3.122   0.761   6.613  1.3761  4.4989  0.7702
  374MOL0     H50435   3.350   0.723   6.560  1.0275  2.0617  1.7842
  374MOL0     H50436   3.329   0.797   6.400 -3.6817  0.2469 -0.9356
  374MOL0     H50437   3.330   0.923   6.676  0.3988  0.5436  0.3748
  374MOL0     H50438   3.246   1.008   6.539 -0.0623 -0.2582 -1.4766
  374MOL0     H50439   3.452   1.015   6.411  1.8940 -1.8088 -1.1739
  374MOL0     H50440   3.459   1.091   6.573 -0.2634  0.4806 -0.6217
  374MOL0     H50441   3.681   0.881   6.362 -1.7253  1.5965  0.2175
  374MOL0     H50442   3.904   0.778   6.395 -0.9679  2.5082 -0.3831
  374MOL0     H50443   3.972   0.824   6.551  0.7608 -3.3765  1.7134
  374MOL0     H50444   3.901   0.610   6.649  3.2473 -1.6477  0.5673
  374MOL0     H50445   3.838   0.554   6.489 -0.1072  1.1559 -2.1048
  374MOL0     H50446   4.071   0.599   6.391 -1.4633 -1.2608 -0.8942
  374MOL0     H50447   4.039   0.450   6.469 -0.8765  0.4294  0.0765
  374MOL0     H50448   4.165   0.520   6.676 -0.1621  1.2238  1.1995
  374MOL0     H50449   4.190   0.682   6.610  0.1360 -1.0500  3.2912
  374MOL0     H50450   4.384   0.695   6.722 -0.5864  2.8555 -1.3373
  374MOL0     H50451   4.581   0.782   6.743 -1.5406 -0.4979  0.9118
  374MOL0     H50452   5.041   0.705   6.778 -3.7527 -0.7200 -1.8805
  374MOL0     H50453   5.289   0.766   6.800  0.5094 -1.2517  0.6152
  374MOL0     H50454   5.508   0.847   6.744 -0.5846  0.2940 -0.4692
  374MOL0     H50455   5.556   0.674   6.750  0.4617  0.8182  0.5815
  374MOL0     H50456   5.733   0.694   6.608 -0.9386 -0.4608 -1.6019
  374MOL0     H50457   5.675   0.842   6.540  1.6539 -3.3248 -2.0268
  374MOL0     H50458   5.720   0.977   6.739  0.3394  0.6331 -1.7064
  374MOL0     H50459   5.746   0.823   6.828  1.4977 -1.4080 -1.1742
  374MOL0     H50460   5.932   0.942   6.610 -1.3635 -0.7926 -1.2091
  374MOL0     H50461   5.966   0.781   6.676 -2.5652 -1.3211  0.6294
  374MOL0     H50462   6.002   0.871   6.907  1.1355 -1.8185 -1.1719
  374MOL0     H50463   5.951   1.038   6.848  3.9547  1.1322 -1.2150
  374MOL0     H50464   6.202   0.891   6.774 -0.7677 -0.2340 -0.5488
  374MOL0     H50465   6.133   1.026   6.682 -2.2848  3.3126  0.8948
  374MOL0     H50466   6.157   1.073   6.977 -3.0376  1.0059 -0.3445
  374MOL0     H50467   6.177   1.183   6.833  0.4544  1.0086  0.6063
  374MOL0     H50468   6.385   0.981   6.923  1.0582  0.6468  0.4200
  374MOL0     H50469   6.399   1.081   6.779 -0.3852 -0.5159 -0.7773
  374MOL0     H50470   5.329   0.658   6.371  1.5486  0.0454  0.1557
  374MOL0     H50471   5.096   0.605   6.371 -2.0605 -0.7899  1.4024
  374MOL0     H50472   4.730   0.502   6.446 -0.1864 -2.5774  0.7640
  374MOL0     H50473   4.494   0.430   6.411  2.2749 -2.8431  1.1810
  374MOL0     H50474   2.487   0.669   6.436 -0.8566 -0.8673  0.0058
  374MOL0     H50475   2.265   0.731   6.444 -1.3716  1.6945 -1.1395
  374MOL0     H50476   1.890   0.700   5.931  1.3179  1.0426 -1.2144
  374MOL0     H50477   1.702   0.814   5.822  1.7206 -0.2917 -0.2358
  374MOL0     H50478   1.606   0.995   5.713  1.9853  2.8181  2.3270
  374MOL0     H50479   1.464   1.089   5.766  0.0379  0.6436 -2.2014
  374MOL0     H50480   1.386   0.892   5.894  0.0341  0.1558  0.2900
  374MOL0     H50481   1.496   0.789   5.811 -3.3011 -2.8392  1.5661
  374MOL0     H50482   1.416   0.883   5.590 -0.3918 -0.9183 -0.5772
  374MOL0     H50483   1.300   0.991   5.669  1.1048 -0.1469  2.5005
  374MOL0     H50484   1.253   0.702   5.602 -0.7217 -2.2067  2.4681
  374MOL0     H50485   1.233   0.732   5.775 -0.4595  0.6363  0.5210
  374MOL0     H50486   0.941   0.959   5.556  0.2276 -0.3440 -0.1349
  374MOL0     H50487   1.705   1.108   6.141 -0.6147 -0.0009 -1.9616
  374MOL0     H50488   1.946   0.945   6.346  0.1748  0.2783  0.0725
  374MOL0     H50489   2.011   1.075   6.251  0.5632  0.1739 -1.7607
  374MOL0     H50490   1.843   1.088   6.315 -1.3202 -2.0163 -1.1587
  375MOL0     O50491  10.896   6.004   0.277 -0.3489  0.3385  0.4488
  375MOL0     C50492  10.866   5.908   0.216 -0.4270  0.7156 -0.3225
  375MOL0     O50493  10.943   5.798   0.204  0.2401 -0.3343 -0.0578
  375MOL0     C50494  11.082   5.796   0.218 -0.1012  0.1692  0.1656
  375MOL0     C50495  11.166   5.753   0.112 -0.6103 -0.7582  0.6591
  375MOL0     C50496  11.310   5.758   0.128 -0.0037 -0.1758 -0.2786
  375MOL0     C50497  11.371   5.792   0.254  0.2173  0.1727 -0.8031
  375MOL0     O50498  11.504   5.797   0.267 -0.1489 -0.3747  0.0324
  375MOL0     C50499  11.566   5.781   0.395  0.1912 -0.3429  0.3121
  375MOL0     C50500  11.687   5.692   0.386 -0.0693  0.4991  0.1047
  375MOL0     C50501  11.755   5.640   0.518 -0.0824  0.4337  0.1771
  375MOL0     C50502  11.885   5.566   0.492 -0.8594  0.5464  0.8344
  375MOL0     C50503  11.955   5.531   0.623 -0.9432 -0.5769  0.6154
  375MOL0     C50504  12.105   5.488   0.608  0.9122  0.1864  0.4815
  375MOL0     C50505  12.138   5.378   0.704 -0.1985 -0.0808  0.3814
  375MOL0     C50506  12.268   5.308   0.655  0.2860  0.4271  0.2377
  375MOL0     N50507  12.375   5.354   0.745 -0.0303  0.1553  0.0189
  375MOL0     C50508  12.463   5.457   0.726  0.0207  0.0140  0.3996
  375MOL0     C50509  12.528   5.469   0.845 -0.1793  0.8296  0.3478
  375MOL0     C50510  12.644   5.569   0.865 -0.1554 -0.0143  0.7292
  375MOL0     C50511  12.787   5.519   0.821 -0.3303 -0.2505  0.7659
  375MOL0     C50512  12.892   5.627   0.847  0.1844 -0.4290  0.6214
  375MOL0     C50513  13.024   5.587   0.783 -0.1762 -0.1454  0.6926
  375MOL0     O50514  13.073   5.459   0.817  0.2450 -0.1115  0.2479
  375MOL0     C50515  13.199   5.425   0.765 -0.2153 -0.2795 -0.1321
  375MOL0     C50516  13.284   5.505   0.694 -0.1405  0.2497 -0.0630
  375MOL0     C50517  13.411   5.460   0.655 -0.9847  0.0392  1.2599
  375MOL0     C50518  13.443   5.321   0.682  0.2044 -0.6825  0.5225
  375MOL0     C50519  13.577   5.268   0.640 -0.7972  0.1121 -0.3793
  375MOL0     O50520  13.669   5.364   0.594 -0.1656  0.2562  0.5388
  375MOL0     C50521  13.802   5.338   0.607  0.4095  0.8644  0.6266
  375MOL0     C50522  13.891   5.378   0.503  0.1860 -0.2901 -0.8274
  375MOL0     C50523  14.032   5.363   0.496  0.8913 -0.3123  0.6214
  375MOL0     C50524  14.086   5.304   0.614 -0.0403 -0.0766 -0.2126
  375MOL0     O50525  14.222   5.313   0.609  0.1613 -0.6439 -0.1110
  375MOL0     C50526  14.287   5.232   0.503  0.3867 -0.5852 -0.2687
  375MOL0     C50527  14.409   5.304   0.451 -0.1289 -0.7010  0.0454
  375MOL0     C50528  14.489   5.209   0.361 -0.7402 -0.3824  1.0031
  375MOL0     C50529  14.604   5.300   0.307  0.7631  0.2656  0.7454
  375MOL0     C50530  14.724   5.217   0.253 -0.4062 -0.7820 -0.6121
  375MOL0     C50531  14.812   5.160   0.361  0.2053 -0.0712  0.0937
  375MOL0     C50532  14.932   5.098   0.309  0.1395  0.3283 -0.1668
  375MOL0     C50533  15.031   5.057   0.415  0.4813 -0.3882 -0.0493
  375MOL0    Cl50534  15.184   5.022   0.332 -0.1554 -0.1751  0.5215
  375MOL0     C50535  14.006   5.259   0.716  0.2702  0.1706  0.0975
  375MOL0     C50536  13.869   5.278   0.717 -0.0413  0.4214 -0.4121
  375MOL0     O50537  13.600   5.150   0.656 -0.0234  0.2995  0.2502
  375MOL0     C50538  13.360   5.238   0.753 -0.5293  0.2638 -0.0878
  375MOL0     C50539  13.234   5.287   0.793 -0.7513 -0.7279 -0.2634
  375MOL0     N50540  12.475   5.370   0.934  0.5698  0.3883 -0.4460
  375MOL0     N50541  12.371   5.318   0.877 -0.5608  0.5647 -0.4147
  375MOL0     C50542  11.283   5.826   0.361  0.4603  0.7921 -0.5049
  375MOL0     C50543  11.144   5.823   0.342  1.2327 -0.6786 -0.0755
  375MOL0     C50544  10.725   5.902   0.174  0.0803 -0.9718  0.7360
  375MOL0     C50545  10.668   5.777   0.178 -0.3012  0.2177  0.0867
  375MOL0     C50546  10.534   5.757   0.168 -0.2757 -0.6867  0.4004
  375MOL0     C50547  10.446   5.864   0.143 -0.5312 -0.6875  0.1152
  375MOL0     O50548  10.313   5.827   0.126 -0.3951  0.1309  0.1729
  375MOL0     C50549  10.203   5.917   0.116 -0.2326  0.3233 -0.9111
  375MOL0     C50550  10.067   5.845   0.148  0.6363 -0.2773  0.6081
  375MOL0     C50551  10.084   5.701   0.217  0.2508 -0.8862 -0.1026
  375MOL0     C50552   9.983   5.673   0.332  0.9165 -0.5654 -1.0911
  375MOL0     C50553   9.968   5.788   0.427 -0.4341 -0.1945  0.3874
  375MOL0     C50554   9.937   5.880   0.500  0.1951  0.3879 -0.8019
  375MOL0     C50555  10.500   5.992   0.139 -0.0782 -0.3521 -0.3990
  375MOL0     C50556  10.635   6.007   0.143  0.4527 -0.6192 -0.0204
  375MOL0     C50557  10.699   6.148   0.124 -1.1292  0.4060 -0.2674
  375MOL0     H50558  11.123   5.730   0.015 -0.3325  0.2382  0.2803
  375MOL0     H50559  11.377   5.727   0.048 -0.9072 -2.8289 -0.0766
  375MOL0     H50560  11.596   5.879   0.432  2.8779 -0.8968 -0.1775
  375MOL0     H50561  11.508   5.727   0.471  0.4365  0.7998  1.3338
  375MOL0     H50562  11.759   5.744   0.322  0.2879 -0.0238  0.0716
  375MOL0     H50563  11.667   5.604   0.323  0.6194  2.3444 -2.8844
  375MOL0     H50564  11.686   5.577   0.574 -0.8043 -0.4722 -1.6276
  375MOL0     H50565  11.779   5.730   0.575 -1.0104  0.0923  1.1292
  375MOL0     H50566  11.874   5.472   0.438  0.8097  0.7092  0.1602
  375MOL0     H50567  11.950   5.635   0.438 -1.0179  0.6491  0.7750
  375MOL0     H50568  11.953   5.615   0.692  1.5951  0.7469 -0.7837
  375MOL0     H50569  11.892   5.450   0.664 -0.2418 -0.2568  2.4098
  375MOL0     H50570  12.121   5.450   0.506  0.4826 -2.3997  1.3090
  375MOL0     H50571  12.173   5.571   0.627  1.2233 -0.4631  2.3655
  375MOL0     H50572  12.062   5.300   0.705 -0.4224  0.1371  0.4381
  375MOL0     H50573  12.150   5.421   0.804  2.1224  0.3883 -0.0525
  375MOL0     H50574  12.262   5.201   0.675  1.1936  0.3796  0.3244
  375MOL0     H50575  12.286   5.326   0.549 -3.2390 -1.1266 -0.7418
  375MOL0     H50576  12.482   5.520   0.640 -0.1923 -1.1310 -0.5159
  375MOL0     H50577  12.620   5.666   0.819  1.0456 -0.7085 -1.5357
  375MOL0     H50578  12.642   5.589   0.972 -1.6745  0.2591  0.6760
  375MOL0     H50579  12.816   5.431   0.880  0.1289 -2.7650 -2.8738
  375MOL0     H50580  12.786   5.492   0.715 -1.2248 -2.7550  1.3547
  375MOL0     H50581  12.896   5.669   0.948  3.1973  3.3278 -0.8114
  375MOL0     H50582  12.859   5.719   0.797  1.1693 -1.4802 -2.1511
  375MOL0     H50583  13.096   5.668   0.798 -0.1183  0.4423 -2.3060
  375MOL0     H50584  13.026   5.583   0.674 -1.3043  1.0581  0.6110
  375MOL0     H50585  13.270   5.613   0.695  0.2474  0.3039  0.6169
  375MOL0     H50586  13.471   5.523   0.589  0.9688 -1.6123  1.3755
  375MOL0     H50587  13.843   5.423   0.416 -0.8141  1.0620  0.3805
  375MOL0     H50588  14.086   5.400   0.409 -0.3801  2.7363  1.0095
  375MOL0     H50589  14.322   5.144   0.558 -0.0762 -0.5690  0.0583
  375MOL0     H50590  14.219   5.193   0.427  0.8589 -1.6466 -0.1630
  375MOL0     H50591  14.379   5.400   0.408 -1.1535 -1.1927 -0.3518
  375MOL0     H50592  14.483   5.323   0.530  1.6328 -0.2540 -1.6184
  375MOL0     H50593  14.515   5.125   0.426 -3.8540 -2.1799  0.1451
  375MOL0     H50594  14.436   5.158   0.281  1.1295  0.2069 -0.6876
  375MOL0     H50595  14.639   5.372   0.382  0.0650  3.3919 -1.6989
  375MOL0     H50596  14.568   5.361   0.223  1.1833  0.0766  0.4274
  375MOL0     H50597  14.785   5.286   0.193  2.2460 -1.8515  0.6735
  375MOL0     H50598  14.688   5.131   0.196  0.6168 -0.0845 -2.3708
  375MOL0     H50599  14.821   5.241   0.434 -1.9127 -1.9848  2.7219
  375MOL0     H50600  14.761   5.073   0.404  0.9196 -2.1233 -2.9132
  375MOL0     H50601  14.977   5.172   0.242 -0.7840  1.3155  0.2820
  375MOL0     H50602  14.911   5.013   0.243  0.3457  0.1362  0.0109
  375MOL0     H50603  15.036   5.142   0.484 -1.4542 -0.8688  0.7416
  375MOL0     H50604  14.990   4.972   0.470 -0.8488  0.3625  0.1643
  375MOL0     H50605  14.054   5.213   0.802  0.1978 -1.5405 -0.7439
  375MOL0     H50606  13.808   5.255   0.804  1.0724 -1.4233 -0.0551
  375MOL0     H50607  13.405   5.149   0.795 -2.0945 -0.4639  0.0754
  375MOL0     H50608  13.180   5.223   0.862 -0.2762 -2.2171 -1.2336
  375MOL0     H50609  11.325   5.866   0.453 -0.2825  1.1396 -0.3081
  375MOL0     H50610  11.082   5.833   0.430  1.2714 -2.9485  0.2584
  375MOL0     H50611  10.727   5.686   0.187  2.1622  1.8992  2.3539
  375MOL0     H50612  10.486   5.660   0.172 -1.9376 -0.0407 -1.6412
  375MOL0     H50613  10.207   5.958   0.015  1.6233  2.7889  0.0463
  375MOL0     H50614  10.210   5.996   0.192 -2.2243 -0.1211 -0.1985
  375MOL0     H50615  10.005   5.830   0.059 -1.5805  2.8484  1.4434
  375MOL0     H50616  10.005   5.916   0.203 -1.3968  0.3514 -2.2451
  375MOL0     H50617  10.178   5.698   0.274 -1.8460 -1.5624  3.6521
  375MOL0     H50618  10.080   5.616   0.149 -1.9826 -2.4821  1.8736
  375MOL0     H50619   9.889   5.643   0.287  0.9017 -0.1050 -1.3762
  375MOL0     H50620  10.007   5.582   0.388  0.7741 -0.3179 -0.6231
  375MOL0     H50621   9.913   5.962   0.565  1.8251 -1.0296  1.7498
  375MOL0     H50622  10.446   6.082   0.112  0.5050 -0.9057 -3.8268
  375MOL0     H50623  10.775   6.141   0.045 -0.5787  0.7361  0.2213
  375MOL0     H50624  10.622   6.219   0.093 -0.8553  0.5300 -0.6720
  375MOL0     H50625  10.751   6.190   0.211  2.5147  0.8431 -2.4259
  376MOL0     O50626   8.859   2.125   9.769 -0.2042  0.2886 -0.5603
  376MOL0     C50627   8.878   2.131   9.896  0.9103 -0.1189 -0.0703
  376MOL0     O50628   8.993   2.166   9.954  0.0323  0.1436 -0.7203
  376MOL0     C50629   9.105   2.189   9.877  0.2083 -1.2919 -0.6029
  376MOL0     C50630   9.140   2.116   9.764  0.5510  1.1032  0.4201
  376MOL0     C50631   9.255   2.156   9.695 -0.1547  0.7045 -0.0663
  376MOL0     C50632   9.337   2.261   9.743  0.3944  0.0462 -0.5039
  376MOL0     O50633   9.459   2.303   9.699  0.9069 -0.1167 -0.2233
  376MOL0     C50634   9.560   2.208   9.705  0.4904  0.2242  0.3655
  376MOL0     C50635   9.642   2.234   9.587 -0.1783 -0.2656  0.4257
  376MOL0     C50636   9.702   2.375   9.594 -0.1785  0.6559 -0.4335
  376MOL0     C50637   9.840   2.382   9.526  0.6629 -0.1876  0.0859
  376MOL0     C50638   9.905   2.518   9.542  0.6629 -0.8491 -0.1048
  376MOL0     C50639  10.045   2.512   9.500 -0.2732  0.5490 -0.6226
  376MOL0     C50640  10.143   2.430   9.575 -0.8581  0.3318 -0.1566
  376MOL0     C50641  10.284   2.482   9.576  0.0147 -0.1459  0.2382
  376MOL0     N50642  10.349   2.448   9.454  0.4154  0.4729  0.5458
  376MOL0     C50643  10.400   2.323   9.433 -0.0394  0.0765  0.0870
  376MOL0     C50644  10.448   2.328   9.300  0.8818  0.0856 -0.3144
  376MOL0     C50645  10.506   2.212   9.225 -0.5421 -0.2630 -0.7368
  376MOL0     C50646  10.642   2.241   9.179 -0.8749  0.1151  0.4369
  376MOL0     C50647  10.712   2.113   9.121 -0.6518  0.4759 -0.1311
  376MOL0     C50648  10.857   2.142   9.075  0.6424  0.4681 -0.4616
  376MOL0     O50649  10.930   2.187   9.185  0.1179 -0.2638  0.0412
  376MOL0     C50650  11.066   2.152   9.189  0.7778 -0.1774  0.4116
  376MOL0     C50651  11.140   2.081   9.081 -0.1515  0.1313  0.9413
  376MOL0     C50652  11.263   2.040   9.105 -0.3811 -0.1591  0.0299
  376MOL0     C50653  11.325   2.056   9.229  0.1633 -0.5054 -0.0201
  376MOL0     C50654  11.467   2.030   9.237  0.7780 -0.0791  0.4466
  376MOL0     O50655  11.529   2.087   9.338  0.8680 -1.3735  0.1473
  376MOL0     C50656  11.661   2.069   9.356 -0.4048  0.3838 -0.7067
  376MOL0     C50657  11.713   1.949   9.400  0.5088 -0.2309 -0.5418
  376MOL0     C50658  11.834   1.932   9.449 -0.4970 -0.3961  0.5679
  376MOL0     C50659  11.928   2.038   9.454  0.7953  0.9409 -0.3386
  376MOL0     O50660  12.042   2.006   9.515 -0.3023  0.4523  0.2120
  376MOL0     C50661  12.147   2.105   9.507 -0.0255 -0.7779  0.0120
  376MOL0     C50662  12.147   2.221   9.608 -0.7077  0.0440 -0.2985
  376MOL0     C50663  12.267   2.322   9.580  0.8194  0.0539  0.6685
  376MOL0     C50664  12.405   2.267   9.610  0.3257 -0.8675  0.6221
  376MOL0     C50665  12.512   2.372   9.570  0.3407  0.7794 -0.3569
  376MOL0     C50666  12.656   2.316   9.585 -0.2624  0.4335  0.2022
  376MOL0     C50667  12.741   2.351   9.460 -0.2462 -0.1309 -0.3420
  376MOL0     C50668  12.769   2.228   9.378 -0.6269  0.9075 -0.9300
  376MOL0    Cl50669  12.878   2.117   9.462  0.3352 -0.4280 -0.1548
  376MOL0     C50670  11.881   2.164   9.410  0.1513  0.5695 -0.3817
  376MOL0     C50671  11.753   2.177   9.360 -0.0875 -0.0599 -0.1008
  376MOL0     O50672  11.523   1.959   9.156 -0.2208 -0.1717  0.1331
  376MOL0     C50673  11.258   2.113   9.334  0.5975 -0.0327  0.1199
  376MOL0     C50674  11.133   2.161   9.311  1.0422  0.1009  0.2878
  376MOL0     N50675  10.403   2.449   9.245 -0.3765  0.1987 -0.1615
  376MOL0     N50676  10.351   2.522   9.335 -0.4086  0.5299  0.0325
  376MOL0     C50677   9.289   2.334   9.852 -0.3158 -0.1871 -0.1899
  376MOL0     C50678   9.180   2.297   9.919 -0.6287 -0.3558  0.4307
  376MOL0     C50679   8.761   2.099   9.988  0.0661 -0.2920 -0.1591
  376MOL0     C50680   8.779   2.070  10.124 -0.5291  0.9849  0.7521
  376MOL0     C50681   8.679   2.036  10.209  0.0101 -0.3670  1.1459
  376MOL0     C50682   8.545   2.042  10.170 -0.5808 -0.2706 -0.1323
  376MOL0     O50683   8.450   2.013  10.263  0.3675 -0.3078 -0.0454
  376MOL0     C50684   8.377   1.889  10.231  0.3314 -0.7334 -0.6194
  376MOL0     C50685   8.276   1.851  10.339  0.1341 -0.6589 -0.4173
  376MOL0     C50686   8.210   1.975  10.398 -0.3300 -0.1937  0.6157
  376MOL0     C50687   8.109   2.044  10.310  0.2247 -0.0826 -0.0923
  376MOL0     C50688   7.996   1.955  10.269  0.3424 -0.2094  0.3610
  376MOL0     C50689   7.897   1.893  10.241  0.0201 -0.4512 -1.3649
  376MOL0     C50690   8.522   2.072  10.043 -0.0633 -0.8234 -0.6025
  376MOL0     C50691   8.625   2.103   9.951 -0.5169  0.2334  0.6575
  376MOL0     C50692   8.585   2.123   9.808 -0.2852  0.0231 -0.0308
  376MOL0     H50693   9.074   2.034   9.737  1.7384  0.5442 -0.8775
  376MOL0     H50694   9.292   2.107   9.605  0.5052 -0.0933  0.6207
  376MOL0     H50695   9.632   2.228   9.785  2.3062 -1.4800 -0.7542
  376MOL0     H50696   9.538   2.101   9.705  0.6356  0.1732 -1.1641
  376MOL0     H50697   9.595   2.223   9.489  1.3347 -3.4105 -0.0757
  376MOL0     H50698   9.724   2.162   9.583  0.2245  0.1482 -4.4386
  376MOL0     H50699   9.720   2.404   9.698 -0.4122  2.7926 -0.9610
  376MOL0     H50700   9.635   2.449   9.549  1.5112  1.5135 -1.6408
  376MOL0     H50701   9.899   2.302   9.572  0.3491  0.3666  1.5079
  376MOL0     H50702   9.834   2.357   9.420  3.5651  0.2019 -0.2567
  376MOL0     H50703   9.847   2.592   9.486 -1.7926 -1.0265  1.9938
  376MOL0     H50704   9.918   2.546   9.647 -2.3161 -0.2363  0.1847
  376MOL0     H50705  10.051   2.481   9.395 -1.4906  1.4374 -0.9752
  376MOL0     H50706  10.078   2.617   9.506  2.0353 -0.1967  2.0825
  376MOL0     H50707  10.138   2.325   9.547  2.9301  0.4154 -1.7589
  376MOL0     H50708  10.108   2.426   9.679  1.1710  0.5119  0.5826
  376MOL0     H50709  10.278   2.589   9.598  1.5970 -0.0889  0.5440
  376MOL0     H50710  10.333   2.435   9.662  1.8716  1.8310  0.3556
  376MOL0     H50711  10.431   2.253   9.510  0.4701  2.0660  1.7497
  376MOL0     H50712  10.506   2.124   9.291  0.0928  1.0098  1.0394
  376MOL0     H50713  10.449   2.202   9.133 -2.9489 -2.6349  0.8459
  376MOL0     H50714  10.632   2.328   9.114  2.2402  0.8990  0.7999
  376MOL0     H50715  10.702   2.275   9.264  1.4562 -0.6100 -0.8298
  376MOL0     H50716  10.665   2.081   9.028  0.9121  0.3114 -0.8935
  376MOL0     H50717  10.702   2.030   9.192  0.0523 -0.2528 -0.8521
  376MOL0     H50718  10.853   2.219   8.997  1.8045  0.6440 -0.3619
  376MOL0     H50719  10.891   2.045   9.038  0.7314  0.9435 -1.6753
  376MOL0     H50720  11.107   2.070   8.978  1.4848 -2.0121  0.5564
  376MOL0     H50721  11.313   1.993   9.021 -1.2989 -1.6948  0.3162
  376MOL0     H50722  11.642   1.866   9.393  2.2993 -1.6940 -3.0280
  376MOL0     H50723  11.869   1.838   9.490  1.0447 -0.1940 -0.1997
  376MOL0     H50724  12.245   2.057   9.517  0.6920  0.8907  1.4331
  376MOL0     H50725  12.139   2.147   9.407  0.2065 -1.1213 -0.1529
  376MOL0     H50726  12.053   2.277   9.616 -0.3874  0.4215  1.0327
  376MOL0     H50727  12.164   2.177   9.707 -0.6582  1.1205  0.1786
  376MOL0     H50728  12.263   2.342   9.472  1.3611 -1.7617  0.2826
  376MOL0     H50729  12.244   2.407   9.645 -0.3143 -2.1135  3.2827
  376MOL0     H50730  12.424   2.179   9.548 -0.4226 -0.1513 -0.6712
  376MOL0     H50731  12.417   2.232   9.713  0.1849  2.1505  1.7646
  376MOL0     H50732  12.502   2.462   9.632 -1.0489  1.4935 -1.5636
  376MOL0     H50733  12.499   2.408   9.468  0.8910  2.6528  0.1911
  376MOL0     H50734  12.710   2.361   9.668  2.0118 -1.1262 -0.3338
  376MOL0     H50735  12.666   2.208   9.600  0.9214  0.7177  1.6362
  376MOL0     H50736  12.836   2.376   9.509 -1.7539  2.6172  1.3775
  376MOL0     H50737  12.702   2.437   9.405 -0.2984  1.1222  1.5791
  376MOL0     H50738  12.678   2.179   9.342 -1.1094 -1.4207  2.8738
  376MOL0     H50739  12.823   2.261   9.289 -2.1206 -0.6036 -2.4788
  376MOL0     H50740  11.946   2.251   9.411  0.6640  0.1940 -0.4150
  376MOL0     H50741  11.718   2.277   9.334  0.6982 -0.2848 -2.3191
  376MOL0     H50742  11.309   2.146   9.424  0.3735  0.8441 -0.0583
  376MOL0     H50743  11.077   2.212   9.390  0.5516  0.1511 -0.0877
  376MOL0     H50744   9.339   2.426   9.882 -2.1663  1.9569 -3.1749
  376MOL0     H50745   9.158   2.353  10.009 -0.1604  3.2807 -1.5320
  376MOL0     H50746   8.878   2.042  10.160 -0.5868 -1.3466 -0.6764
  376MOL0     H50747   8.709   1.997  10.306 -0.2843  2.5348  2.5009
  376MOL0     H50748   8.446   1.805  10.221  1.9939  0.4811  0.1437
  376MOL0     H50749   8.321   1.892  10.137 -0.1196  0.0908 -0.3344
  376MOL0     H50750   8.328   1.799  10.420  1.1852  1.0462  0.0559
  376MOL0     H50751   8.203   1.783  10.295 -3.0790  0.3668  2.8822
  376MOL0     H50752   8.283   2.049  10.433  2.2870 -2.5423  0.4820
  376MOL0     H50753   8.155   1.933  10.482 -0.4558  0.8440  1.0650
  376MOL0     H50754   8.083   2.139  10.358  1.1614  0.3447 -0.4047
  376MOL0     H50755   8.154   2.080  10.217 -1.4512  3.8708  0.4326
  376MOL0     H50756   7.806   1.839  10.222  0.8209 -1.4465 -2.5645
  376MOL0     H50757   8.416   2.072  10.022 -0.6552 -0.5985  2.0520
  376MOL0     H50758   8.598   2.042   9.735 -1.5503  0.1027 -0.3650
  376MOL0     H50759   8.478   2.141   9.800 -0.8120 -3.3194 -4.3900
  376MOL0     H50760   8.641   2.209   9.772 -0.6175  2.2083  4.1190
  377MOL0     O50761   8.680   4.097   6.144  0.4350 -0.5249 -0.6027
  377MOL0     C50762   8.645   4.209   6.099  0.2586  0.8195  0.5244
  377MOL0     O50763   8.696   4.254   5.976  0.6759 -0.3822  0.2718
  377MOL0     C50764   8.812   4.190   5.934 -0.5498  0.0045 -0.0846
  377MOL0     C50765   8.807   4.111   5.819  0.9129  0.4750 -0.2793
  377MOL0     C50766   8.926   4.041   5.783  0.3406 -0.0745  0.8084
  377MOL0     C50767   9.049   4.055   5.856  0.8889  0.9863  0.3232
  377MOL0     O50768   9.161   3.980   5.845  0.1836 -0.5362 -0.0534
  377MOL0     C50769   9.142   3.854   5.789 -0.0168  0.0027  0.7670
  377MOL0     C50770   9.264   3.761   5.810 -0.5325  0.0947  0.3626
  377MOL0     C50771   9.367   3.788   5.693  0.2617  0.2508 -0.6843
  377MOL0     C50772   9.483   3.677   5.684 -0.5749 -0.0216 -0.4806
  377MOL0     C50773   9.593   3.720   5.584  0.4123  0.1857 -0.0904
  377MOL0     C50774   9.693   3.606   5.576 -0.0917  0.1949 -0.3114
  377MOL0     C50775   9.823   3.656   5.513 -0.1073 -0.0548 -0.7880
  377MOL0     C50776   9.923   3.551   5.558  0.1370 -0.0754  1.2731
  377MOL0     N50777  10.056   3.581   5.497  0.6114 -0.0008  0.6166
  377MOL0     C50778  10.153   3.494   5.459 -0.2545 -0.3388  1.6032
  377MOL0     C50779  10.263   3.564   5.438  0.4636 -0.4503  0.2017
  377MOL0     C50780  10.391   3.499   5.393  0.1250  0.0704 -0.3383
  377MOL0     C50781  10.503   3.597   5.364  0.6270 -0.1113 -0.3294
  377MOL0     C50782  10.648   3.531   5.360 -0.3136  0.7875 -0.5221
  377MOL0     C50783  10.755   3.640   5.357  0.1075  0.2940  0.2582
  377MOL0     O50784  10.879   3.577   5.340  0.3216  0.2360  0.0848
  377MOL0     C50785  10.980   3.659   5.289 -0.3457  0.7338 -0.0737
  377MOL0     C50786  10.974   3.789   5.250  0.1473 -0.6972 -0.0434
  377MOL0     C50787  11.083   3.863   5.207 -0.3589 -1.0647 -0.0462
  377MOL0     C50788  11.211   3.805   5.210 -0.9216 -0.2615 -0.3047
  377MOL0     C50789  11.323   3.884   5.158 -0.0571  0.2502  0.0973
  377MOL0     O50790  11.298   4.012   5.108 -0.0924  0.8918  0.4555
  377MOL0     C50791  11.404   4.072   5.055 -0.5833 -0.7440  0.0142
  377MOL0     C50792  11.460   4.037   4.936  1.0004  0.2861 -0.9270
  377MOL0     C50793  11.576   4.093   4.882  0.5032  0.3873 -0.3677
  377MOL0     C50794  11.641   4.185   4.957 -0.1439 -0.4758 -0.4602
  377MOL0     O50795  11.765   4.222   4.908  0.1818  0.2062 -0.1830
  377MOL0     C50796  11.817   4.348   4.964  0.0425 -0.1701  0.9140
  377MOL0     C50797  11.908   4.331   5.088 -0.9886 -0.5285  0.0612
  377MOL0     C50798  11.937   4.460   5.162 -0.3666 -0.2529 -0.6873
  377MOL0     C50799  12.060   4.531   5.103  1.1307 -0.2707 -0.0353
  377MOL0     C50800  12.026   4.674   5.068  1.1319 -0.1314  0.1184
  377MOL0     C50801  12.149   4.742   5.005  0.4351 -0.4014 -0.1436
  377MOL0     C50802  12.119   4.875   4.922 -0.1849  0.7636  0.0112
  377MOL0     C50803  12.244   4.949   4.893 -0.0015  0.2741  0.7988
  377MOL0    Cl50804  12.367   4.851   4.802 -0.0488 -0.3498 -0.2652
  377MOL0     C50805  11.581   4.232   5.077  0.7736 -1.0367  0.1680
  377MOL0     C50806  11.460   4.182   5.122 -0.3706  0.5354  0.0699
  377MOL0     O50807  11.435   3.835   5.166  0.7057 -0.2757 -0.1860
  377MOL0     C50808  11.225   3.667   5.252  0.4956 -1.1777  0.3865
  377MOL0     C50809  11.105   3.602   5.283  0.1248  0.0397  0.5010
  377MOL0     N50810  10.230   3.702   5.465 -1.0702 -0.0032  0.0061
  377MOL0     N50811  10.103   3.708   5.499 -0.3731  0.8910 -0.3074
  377MOL0     C50812   9.050   4.145   5.960 -0.6897  0.6108  0.3495
  377MOL0     C50813   8.936   4.209   6.003 -0.2183  0.1422 -0.3688
  377MOL0     C50814   8.559   4.296   6.188  1.4894  0.4648 -0.2586
  377MOL0     C50815   8.490   4.229   6.294 -0.0763 -0.6225  0.3631
  377MOL0     C50816   8.398   4.288   6.381 -0.0811  0.2648 -0.0421
  377MOL0     C50817   8.368   4.424   6.358 -0.4356  1.2271  0.0021
  377MOL0     O50818   8.298   4.510   6.437  0.2818 -0.4353  0.7569
  377MOL0     C50819   8.245   4.471   6.568 -0.2123  0.8518  0.5201
  377MOL0     C50820   8.348   4.443   6.676 -0.3295  0.7915  0.6110
  377MOL0     C50821   8.283   4.404   6.812  0.3939 -0.8430 -0.0155
  377MOL0     C50822   8.384   4.349   6.912 -0.6539  0.0576 -0.1250
  377MOL0     C50823   8.444   4.461   6.983 -0.2084  0.2531 -0.6386
  377MOL0     C50824   8.487   4.556   7.041  0.4961 -0.7196 -0.0337
  377MOL0     C50825   8.424   4.492   6.255 -0.4931 -0.3670  0.3225
  377MOL0     C50826   8.521   4.435   6.166 -0.1615  0.1389  0.1595
  377MOL0     C50827   8.560   4.520   6.047  0.0787  0.4538 -0.0319
  377MOL0     H50828   8.714   4.090   5.768  0.0190  0.5207  1.2659
  377MOL0     H50829   8.925   3.975   5.697  1.8326 -0.3417  0.9741
  377MOL0     H50830   9.049   3.811   5.827 -1.6358  2.1548 -0.5571
  377MOL0     H50831   9.127   3.862   5.681  1.0651 -4.3279  0.0935
  377MOL0     H50832   9.237   3.655   5.816  2.3783 -0.6629  1.3492
  377MOL0     H50833   9.309   3.771   5.909 -1.6101 -0.0489  0.8912
  377MOL0     H50834   9.406   3.889   5.710  1.9350 -0.5396  0.5516
  377MOL0     H50835   9.312   3.785   5.599 -0.6576 -1.6536 -0.1375
  377MOL0     H50836   9.526   3.680   5.784 -0.1004  1.8765 -0.6857
  377MOL0     H50837   9.447   3.581   5.647  2.2255 -0.4792 -2.3326
  377MOL0     H50838   9.556   3.741   5.483 -1.4511 -3.1577 -0.2476
  377MOL0     H50839   9.645   3.812   5.612  3.1703 -0.9091 -1.2937
  377MOL0     H50840   9.704   3.565   5.677 -2.3035  1.3195  0.4333
  377MOL0     H50841   9.654   3.517   5.525  0.9500 -1.5418  1.7534
  377MOL0     H50842   9.853   3.756   5.546  0.1534 -1.3652  3.5024
  377MOL0     H50843   9.812   3.652   5.404  1.9394 -2.5403 -0.9936
  377MOL0     H50844   9.933   3.550   5.667 -0.3539  0.2325  1.3203
  377MOL0     H50845   9.888   3.456   5.516 -1.6133  1.4892 -1.0352
  377MOL0     H50846  10.140   3.388   5.439 -0.8449  0.1207 -0.8211
  377MOL0     H50847  10.429   3.440   5.477  1.1130  2.7949  1.2239
  377MOL0     H50848  10.367   3.444   5.301  0.0805 -1.9821  0.8316
  377MOL0     H50849  10.490   3.645   5.267  0.7626 -0.4833 -0.5299
  377MOL0     H50850  10.499   3.663   5.452  0.2740  1.1129 -1.2304
  377MOL0     H50851  10.650   3.460   5.276  0.7592  0.3343 -0.1325
  377MOL0     H50852  10.665   3.467   5.447 -4.0483  0.1705 -0.0582
  377MOL0     H50853  10.750   3.715   5.436  1.6507  1.0619 -0.3371
  377MOL0     H50854  10.727   3.695   5.267  1.7037  0.1855 -0.3402
  377MOL0     H50855  10.889   3.857   5.254 -0.1128 -1.0067 -0.2607
  377MOL0     H50856  11.081   3.971   5.198  1.0932 -0.9954  0.1576
  377MOL0     H50857  11.405   3.963   4.879  0.0166 -1.0772  1.6267
  377MOL0     H50858  11.605   4.051   4.787 -3.7334 -1.4303 -1.0798
  377MOL0     H50859  11.874   4.398   4.885 -2.2480 -0.5826 -1.1537
  377MOL0     H50860  11.735   4.420   4.975  0.1887  0.2669 -0.5966
  377MOL0     H50861  11.854   4.262   5.154 -2.7855 -0.4066 -1.2364
  377MOL0     H50862  12.003   4.283   5.060 -0.1308  2.3504 -2.4550
  377MOL0     H50863  11.845   4.520   5.159 -0.3888 -0.2159  0.3698
  377MOL0     H50864  11.951   4.436   5.268 -2.8775 -2.0098 -0.6385
  377MOL0     H50865  12.086   4.483   5.008 -1.7480  0.4152 -1.2813
  377MOL0     H50866  12.145   4.536   5.172  2.1745  3.1340 -1.3636
  377MOL0     H50867  11.987   4.733   5.152  0.9195  1.7404 -1.2191
  377MOL0     H50868  11.940   4.686   5.001  1.4032 -0.6733 -0.3267
  377MOL0     H50869  12.228   4.753   5.079 -0.1848 -1.9284  0.7850
  377MOL0     H50870  12.192   4.674   4.931 -0.7264 -0.6426 -0.6214
  377MOL0     H50871  12.049   4.937   4.978  0.7182  0.0611  2.0358
  377MOL0     H50872  12.077   4.852   4.824 -1.5857 -2.4892  1.2426
  377MOL0     H50873  12.215   5.035   4.831  0.8499 -0.2220 -0.3245
  377MOL0     H50874  12.294   4.990   4.981 -1.4135  1.5155  1.0730
  377MOL0     H50875  11.623   4.310   5.140 -1.3560 -1.4420  2.2192
  377MOL0     H50876  11.424   4.212   5.220 -1.8732 -0.4465 -0.1433
  377MOL0     H50877  11.324   3.624   5.259 -0.0214 -2.9847 -2.0542
  377MOL0     H50878  11.103   3.497   5.312 -1.2303  0.0231  0.4176
  377MOL0     H50879   9.149   4.166   6.000 -0.3318  0.0376 -0.2297
  377MOL0     H50880   8.933   4.289   6.077  0.6105 -1.0616  1.0175
  377MOL0     H50881   8.505   4.124   6.315  0.4711 -0.1638  2.5179
  377MOL0     H50882   8.348   4.231   6.459 -0.8179 -2.4655 -2.3404
  377MOL0     H50883   8.186   4.380   6.556 -0.2985  0.8627  0.8542
  377MOL0     H50884   8.179   4.547   6.611 -2.7467 -0.1986 -1.2580
  377MOL0     H50885   8.408   4.534   6.688  3.1516 -1.0461 -1.3882
  377MOL0     H50886   8.411   4.360   6.642 -0.0528  0.6380  1.4918
  377MOL0     H50887   8.218   4.319   6.788  2.1325 -1.6356 -2.5005
  377MOL0     H50888   8.231   4.494   6.846  1.8573  0.6503 -1.5305
  377MOL0     H50889   8.329   4.297   6.991  0.5284 -2.9964 -1.1478
  377MOL0     H50890   8.452   4.275   6.868  1.8203  1.8566  0.4839
  377MOL0     H50891   8.519   4.649   7.084  2.0282 -1.3482  0.2214
  377MOL0     H50892   8.394   4.594   6.234  1.0091 -0.2297 -1.4066
  377MOL0     H50893   8.668   4.537   6.047 -0.1960  2.5576 -0.8996
  377MOL0     H50894   8.539   4.470   5.953  3.4288 -1.1904 -0.0415
  377MOL0     H50895   8.502   4.613   6.045 -0.1221  0.3475  0.6355
  378MOL0     O50896   5.227   4.211   6.954 -0.2654  0.3906 -0.1906
  378MOL0     C50897   5.161   4.292   7.018  0.3133  0.2047 -0.8867
  378MOL0     O50898   5.210   4.373   7.123 -0.2354  0.3877  0.2849
  378MOL0     C50899   5.343   4.386   7.129 -0.4960 -0.3011 -0.3031
  378MOL0     C50900   5.391   4.522   7.119 -0.0268 -0.1889 -0.3267
  378MOL0     C50901   5.522   4.553   7.125  0.3958 -0.8677  0.1220
  378MOL0     C50902   5.614   4.452   7.120  0.6653 -0.9618 -0.6670
  378MOL0     O50903   5.749   4.476   7.119  0.1563 -0.8043  0.0114
  378MOL0     C50904   5.835   4.404   7.221  0.0170 -0.2385  0.2029
  378MOL0     C50905   5.982   4.443   7.211  0.1259  0.8300 -0.3828
  378MOL0     C50906   6.062   4.360   7.309 -0.1257  0.5213  0.0139
  378MOL0     C50907   6.183   4.446   7.362 -0.5999 -0.2355 -0.1381
  378MOL0     C50908   6.257   4.382   7.478 -0.4476 -0.0087  0.1843
  378MOL0     C50909   6.350   4.490   7.549 -0.0832  0.5195 -0.0483
  378MOL0     C50910   6.484   4.486   7.487  0.2872  0.6888  0.2467
  378MOL0     C50911   6.566   4.582   7.571 -0.0190 -0.7960  0.0206
  378MOL0     N50912   6.705   4.594   7.524 -0.2635  0.3550 -0.0449
  378MOL0     C50913   6.758   4.661   7.416  0.1909 -0.0408  0.3179
  378MOL0     C50914   6.887   4.630   7.409 -0.1068 -0.2118 -0.8235
  378MOL0     C50915   6.994   4.685   7.322 -0.4152  0.0277  0.3765
  378MOL0     C50916   7.049   4.576   7.234  0.8377 -0.2854 -0.6730
  378MOL0     C50917   7.145   4.629   7.123  0.3169  1.1762  0.4931
  378MOL0     C50918   7.211   4.516   7.034 -0.4318 -0.2956 -0.3947
  378MOL0     O50919   7.283   4.585   6.928  0.8404  0.4727  0.5647
  378MOL0     C50920   7.357   4.526   6.837  0.4827  1.2084 -0.4210
  378MOL0     C50921   7.358   4.388   6.810 -0.4009 -0.4564 -0.5882
  378MOL0     C50922   7.449   4.333   6.712 -0.0648  0.1507  0.5402
  378MOL0     C50923   7.535   4.419   6.636  0.8295  0.1033  0.4003
  378MOL0     C50924   7.618   4.372   6.531  0.0848 -0.4092 -0.3108
  378MOL0     O50925   7.707   4.461   6.476 -0.4555  0.1961  0.3810
  378MOL0     C50926   7.779   4.425   6.368 -0.0603  0.0464 -0.0727
  378MOL0     C50927   7.906   4.486   6.360 -1.3011  0.8023 -0.8216
  378MOL0     C50928   8.003   4.441   6.256  0.7509 -0.1363 -0.2371
  378MOL0     C50929   7.965   4.342   6.166 -0.4819 -0.4616  0.2000
  378MOL0     O50930   8.050   4.299   6.064 -0.0648  0.1844  0.0676
  378MOL0     C50931   8.189   4.325   6.069  0.1728 -0.2210 -0.7039
  378MOL0     C50932   8.257   4.265   5.943 -0.9018  0.0769  1.0380
  378MOL0     C50933   8.286   4.110   5.953  0.5508 -0.2610  0.0293
  378MOL0     C50934   8.372   4.060   5.833 -0.0213  0.6698  0.7946
  378MOL0     C50935   8.380   3.910   5.827  0.4336 -0.6847  0.6219
  378MOL0     C50936   8.471   3.851   5.936 -0.0229 -0.2698 -0.4234
  378MOL0     C50937   8.505   3.703   5.905  0.1482  0.0034 -0.4458
  378MOL0     C50938   8.598   3.645   6.009  0.6555 -0.3831 -0.0104
  378MOL0    Cl50939   8.717   3.546   5.920 -0.2390 -0.5540 -0.0122
  378MOL0     C50940   7.836   4.299   6.167  0.0167  0.5297 -0.3837
  378MOL0     C50941   7.740   4.338   6.268 -0.2367 -0.5106  0.2866
  378MOL0     O50942   7.599   4.259   6.487  0.1771  0.2485 -0.5179
  378MOL0     C50943   7.518   4.556   6.663  0.3283  0.0820  0.2202
  378MOL0     C50944   7.431   4.612   6.760  0.1881  0.1718  0.2496
  378MOL0     N50945   6.909   4.534   7.504 -1.0131 -0.0986  0.1483
  378MOL0     N50946   6.808   4.516   7.573  0.0906 -0.6597  0.0612
  378MOL0     C50947   5.569   4.323   7.131 -0.1863  0.2190 -0.2836
  378MOL0     C50948   5.433   4.289   7.126  0.5250  0.0520  0.1166
  378MOL0     C50949   5.011   4.293   7.002 -0.0469 -0.4374 -0.1277
  378MOL0     C50950   4.938   4.343   7.112 -0.3910  0.2792  0.8123
  378MOL0     C50951   4.801   4.352   7.105  0.0731  0.1445  0.5135
  378MOL0     C50952   4.726   4.325   6.990  0.3447  0.1753  0.3307
  378MOL0     O50953   4.593   4.365   6.994 -0.1752  0.3361  0.4217
  378MOL0     C50954   4.504   4.321   6.890 -0.5609 -0.4694  0.9984
  378MOL0     C50955   4.367   4.388   6.902 -0.0047 -0.0326 -0.0537
  378MOL0     C50956   4.291   4.356   7.027  0.1417 -0.6571 -0.3986
  378MOL0     C50957   4.240   4.209   7.033  0.3094  0.2688  0.0524
  378MOL0     C50958   4.199   4.179   7.178  0.1693 -0.2136 -0.7800
  378MOL0     C50959   4.169   4.172   7.293  0.2370 -0.5649 -0.9414
  378MOL0     C50960   4.791   4.260   6.888  0.2737  0.0690 -0.2403
  378MOL0     C50961   4.935   4.245   6.891  0.2268  0.9601  0.3100
  378MOL0     C50962   4.992   4.172   6.774  0.0519  0.7626 -0.5968
  378MOL0     H50963   5.314   4.599   7.109  1.2550  0.8829 -2.8722
  378MOL0     H50964   5.545   4.659   7.121 -2.8926 -0.0526 -0.3492
  378MOL0     H50965   5.802   4.438   7.319  1.8331 -0.4633  0.9179
  378MOL0     H50966   5.824   4.296   7.216  2.0872 -0.7757  4.0767
  378MOL0     H50967   6.000   4.547   7.238  1.0041  0.9078 -1.2199
  378MOL0     H50968   6.017   4.433   7.108 -0.9830  3.5478 -1.0952
  378MOL0     H50969   6.101   4.270   7.261 -1.0734  0.9479 -1.6177
  378MOL0     H50970   6.002   4.331   7.396 -1.4699  0.2890 -0.9553
  378MOL0     H50971   6.246   4.464   7.274  0.1063 -0.3661  0.3291
  378MOL0     H50972   6.147   4.538   7.409 -0.1128  0.6695 -1.4821
  378MOL0     H50973   6.189   4.350   7.558  0.3536 -0.2093  0.7897
  378MOL0     H50974   6.303   4.290   7.443 -2.0740 -0.0125 -2.2393
  378MOL0     H50975   6.302   4.588   7.548  0.3141  0.7490  1.3539
  378MOL0     H50976   6.359   4.459   7.654 -0.4732 -2.1437 -0.7157
  378MOL0     H50977   6.489   4.543   7.393  1.2334  1.9389  1.0321
  378MOL0     H50978   6.530   4.387   7.478 -2.2796 -0.4257 -2.1526
  378MOL0     H50979   6.512   4.677   7.573  1.5925  0.1720 -0.4599
  378MOL0     H50980   6.556   4.547   7.675 -2.1176 -0.5900 -0.0738
  378MOL0     H50981   6.701   4.726   7.351  1.6491  2.2664  1.2512
  378MOL0     H50982   6.951   4.758   7.253 -1.1581 -0.3445  0.4291
  378MOL0     H50983   7.077   4.731   7.377 -0.7692  1.7593 -0.4542
  378MOL0     H50984   7.102   4.493   7.283 -2.4533 -3.7642 -2.4654
  378MOL0     H50985   6.965   4.528   7.183 -1.4105 -1.1600  3.4533
  378MOL0     H50986   7.229   4.686   7.165  1.8001 -0.2629 -0.4035
  378MOL0     H50987   7.101   4.705   7.057 -1.7892 -0.7034 -0.4110
  378MOL0     H50988   7.131   4.455   6.990 -0.2101  0.7368 -2.3790
  378MOL0     H50989   7.285   4.451   7.081 -0.5710 -2.2242 -2.6370
  378MOL0     H50990   7.309   4.323   6.883 -1.7203  0.9058 -0.2117
  378MOL0     H50991   7.455   4.228   6.686 -3.8797  0.3619 -2.0066
  378MOL0     H50992   7.937   4.551   6.441 -0.9442 -0.3372 -0.0017
  378MOL0     H50993   8.099   4.490   6.244 -0.4180  2.4487  0.2754
  378MOL0     H50994   8.214   4.432   6.062  0.6660 -0.3656 -1.2504
  378MOL0     H50995   8.226   4.276   6.159 -1.3392  0.6340  0.4365
  378MOL0     H50996   8.189   4.275   5.858  0.2648  1.4074  0.2055
  378MOL0     H50997   8.355   4.311   5.925 -0.3374 -0.0457  3.4673
  378MOL0     H50998   8.338   4.090   6.047  1.1845  2.3036  0.3069
  378MOL0     H50999   8.188   4.061   5.950 -0.4773  1.7356 -2.7620
  378MOL0     H51000   8.465   4.116   5.840 -1.5768  3.3433  1.5662
  378MOL0     H51001   8.323   4.089   5.740  2.9177  0.5583 -0.9226
  378MOL0     H51002   8.421   3.884   5.729 -0.5903  0.2082 -0.0683
  378MOL0     H51003   8.280   3.869   5.844  0.1240 -0.4752 -0.5709
  378MOL0     H51004   8.568   3.900   5.947  0.6839 -1.8045  0.3850
  378MOL0     H51005   8.406   3.860   6.023 -1.1375 -0.8926 -1.1690
  378MOL0     H51006   8.561   3.696   5.811 -1.2446  0.2976 -1.3393
  378MOL0     H51007   8.408   3.651   5.910  0.0914 -0.0416 -1.6554
  378MOL0     H51008   8.657   3.723   6.058  2.2975 -0.9287 -1.0559
  378MOL0     H51009   8.549   3.592   6.092  0.6326 -2.8941 -1.5296
  378MOL0     H51010   7.796   4.233   6.091  2.2758  0.1280 -1.2917
  378MOL0     H51011   7.642   4.294   6.251 -0.1726 -1.2548  1.7501
  378MOL0     H51012   7.589   4.615   6.606 -1.1016  3.5462  1.7437
  378MOL0     H51013   7.442   4.719   6.778 -1.0818  0.7631 -2.0941
  378MOL0     H51014   5.642   4.243   7.132  0.9336  1.2044  0.9662
  378MOL0     H51015   5.398   4.187   7.128  2.0909 -0.5065  0.3711
  378MOL0     H51016   4.990   4.379   7.200  1.7164 -1.2691  0.3022
  378MOL0     H51017   4.763   4.415   7.185  0.9741  0.8118  0.4382
  378MOL0     H51018   4.492   4.212   6.887 -0.6350 -0.5006  1.9885
  378MOL0     H51019   4.549   4.351   6.795  0.4150  1.3227  1.9754
  378MOL0     H51020   4.307   4.359   6.814  0.1747  0.7323 -0.4347
  378MOL0     H51021   4.379   4.496   6.906 -1.5560  0.1244  1.2855
  378MOL0     H51022   4.206   4.425   7.037  1.7213  1.1725  1.2417
  378MOL0     H51023   4.357   4.365   7.113  0.5878  1.0357 -0.8797
  378MOL0     H51024   4.155   4.205   6.964 -0.1218  0.6772  0.5514
  378MOL0     H51025   4.314   4.139   6.993  2.1534  2.1792 -0.0211
  378MOL0     H51026   4.148   4.167   7.398  0.3822  2.2041 -0.7282
  378MOL0     H51027   4.734   4.215   6.808 -0.2392 -2.1333  1.2859
  378MOL0     H51028   4.922   4.193   6.693 -1.2166 -1.8725 -0.2970
  378MOL0     H51029   5.095   4.204   6.756  0.7710 -0.7478  0.6176
  378MOL0     H51030   5.004   4.065   6.793  1.8738  1.4834  3.2648
  379MOL0     O51031   0.161   5.449   5.967  0.5125  0.3577  0.1645
  379MOL0     C51032   0.108   5.427   5.858 -0.8261  0.5304  0.6468
  379MOL0     O51033   0.175   5.368   5.750 -0.2044 -0.1755  0.2559
  379MOL0     C51034   0.313   5.363   5.765 -0.0113 -0.0241 -0.3673
  379MOL0     C51035   0.378   5.483   5.738  0.4697 -0.0932  1.3605
  379MOL0     C51036   0.513   5.484   5.713  0.1405 -0.4514 -0.0038
  379MOL0     C51037   0.591   5.362   5.745  0.6248 -0.6494  0.3883
  379MOL0     O51038   0.729   5.354   5.757 -0.2153 -0.0622  0.1951
  379MOL0     C51039   0.816   5.441   5.679 -0.0761  0.1685  0.1132
  379MOL0     C51040   0.851   5.385   5.545 -0.2949 -0.9664 -0.1493
  379MOL0     C51041   0.865   5.230   5.526  0.4568  0.8346 -0.3874
  379MOL0     C51042   0.940   5.143   5.626  0.6454 -0.0566 -0.3868
  379MOL0     C51043   0.902   4.998   5.611  0.3124  0.1374  0.1573
  379MOL0     C51044   0.993   4.920   5.704 -0.6048  0.4523 -0.1612
  379MOL0     C51045   0.967   4.765   5.700 -0.3900 -0.4678  0.2884
  379MOL0     C51046   1.004   4.705   5.564  0.8936 -0.2392  0.4185
  379MOL0     N51047   1.149   4.711   5.530 -0.5708  0.3993 -0.3297
  379MOL0     C51048   1.200   4.635   5.422 -0.5371  0.0878  0.2194
  379MOL0     C51049   1.332   4.619   5.449 -0.4447  0.3742 -0.0021
  379MOL0     C51050   1.435   4.559   5.358  0.0055 -0.4191 -0.1337
  379MOL0     C51051   1.541   4.492   5.433 -0.5255  0.0477 -0.2521
  379MOL0     C51052   1.653   4.455   5.338 -0.2303 -0.4788 -0.7771
  379MOL0     C51053   1.736   4.344   5.403  0.0034 -0.3628 -0.4479
  379MOL0     O51054   1.861   4.339   5.330 -0.0000  0.6483 -0.3557
  379MOL0     C51055   1.959   4.249   5.367  0.2401  0.3945 -0.1805
  379MOL0     C51056   2.082   4.252   5.313 -0.0819 -0.0206 -0.1933
  379MOL0     C51057   2.185   4.165   5.351  0.5546  0.5291  0.3132
  379MOL0     C51058   2.157   4.069   5.452 -0.4023  0.0051 -0.4401
  379MOL0     C51059   2.258   3.967   5.493 -0.6716  0.5279 -0.0075
  379MOL0     O51060   2.385   3.980   5.435 -0.9454 -0.2024 -0.0685
  379MOL0     C51061   2.473   3.874   5.440 -0.5975  0.0850  0.2509
  379MOL0     C51062   2.607   3.892   5.489 -0.7611 -0.3596  0.1353
  379MOL0     C51063   2.700   3.788   5.496  0.2024  0.0001 -0.2423
  379MOL0     C51064   2.663   3.665   5.451  0.0861  0.3849  0.0415
  379MOL0     O51065   2.753   3.558   5.444 -0.4766 -0.0859  0.0704
  379MOL0     C51066   2.715   3.461   5.548 -1.6148  0.1060 -0.3966
  379MOL0     C51067   2.819   3.351   5.570 -0.1673  0.1712  1.1320
  379MOL0     C51068   2.955   3.411   5.618  0.2105  0.1065  0.6808
  379MOL0     C51069   3.054   3.459   5.506 -0.3804  0.8927 -1.2668
  379MOL0     C51070   3.177   3.532   5.566  0.4284 -0.3348  0.9777
  379MOL0     C51071   3.144   3.674   5.621 -0.0501 -0.5187  0.4432
  379MOL0     C51072   3.273   3.735   5.677  0.5959 -0.3350  1.1980
  379MOL0     C51073   3.254   3.884   5.695  0.1749 -0.7573  0.2688
  379MOL0    Cl51074   3.385   3.932   5.798 -0.0108 -0.1242 -0.0625
  379MOL0     C51075   2.529   3.641   5.404  0.3772  0.7113 -0.2374
  379MOL0     C51076   2.435   3.751   5.398  1.0682  0.1423  0.4302
  379MOL0     O51077   2.225   3.885   5.580  0.0149 -0.1865 -0.6623
  379MOL0     C51078   2.033   4.070   5.517  0.6727  0.4245  0.6849
  379MOL0     C51079   1.933   4.159   5.470 -0.5585  0.5264  0.1048
  379MOL0     N51080   1.369   4.671   5.570 -0.3337  0.3625  0.1944
  379MOL0     N51081   1.261   4.730   5.623 -0.1773  0.2631 -0.3519
  379MOL0     C51082   0.528   5.245   5.785  0.3980  0.1480 -1.1875
  379MOL0     C51083   0.385   5.242   5.792 -0.3951 -0.4645  0.6484
  379MOL0     C51084  -0.038   5.449   5.834 -0.6188  0.3342  0.8377
  379MOL0     C51085  -0.088   5.462   5.700  0.0281  0.2718 -1.1432
  379MOL0     C51086  -0.224   5.470   5.675 -0.5369  0.1039  0.2561
  379MOL0     C51087  -0.323   5.459   5.770 -0.2672 -1.1710  0.1719
  379MOL0     O51088  -0.456   5.440   5.729 -0.9479 -0.4614  0.3669
  379MOL0     C51089  -0.514   5.511   5.619 -0.3016  0.5501  0.2431
  379MOL0     C51090  -0.662   5.497   5.617  0.0354  0.3870  0.4423
  379MOL0     C51091  -0.721   5.544   5.749 -0.0507 -0.4418 -0.0247
  379MOL0     C51092  -0.878   5.543   5.744  0.1153 -1.1926 -0.0201
  379MOL0     C51093  -0.929   5.653   5.652 -0.2425  0.3304 -0.1628
  379MOL0     C51094  -0.969   5.734   5.576 -0.4168 -0.1460 -0.2620
  379MOL0     C51095  -0.279   5.454   5.901  0.0536  0.6401  0.6547
  379MOL0     C51096  -0.139   5.434   5.932 -0.0591 -0.3167  0.8749
  379MOL0     C51097  -0.111   5.427   6.084  0.1875  0.6698  0.2162
  379MOL0     H51098   0.321   5.572   5.713  0.5383 -0.8464 -2.0036
  379MOL0     H51099   0.555   5.576   5.674 -0.1884  0.0579  0.8279
  379MOL0     H51100   0.765   5.537   5.664 -1.1487 -0.3389  0.4090
  379MOL0     H51101   0.911   5.451   5.733 -0.0884  0.7395  0.0355
  379MOL0     H51102   0.948   5.428   5.519 -0.3337 -0.1665  0.9792
  379MOL0     H51103   0.779   5.418   5.469  0.0875 -1.9666 -0.9738
  379MOL0     H51104   0.897   5.211   5.423  0.5473  1.3311 -0.4561
  379MOL0     H51105   0.762   5.194   5.538  0.7175  0.5432  1.1140
  379MOL0     H51106   1.048   5.158   5.626  1.0077 -2.3046  0.6400
  379MOL0     H51107   0.897   5.180   5.720 -2.9914 -0.0445 -1.8913
  379MOL0     H51108   0.796   4.982   5.633  0.4743 -0.6021  0.4100
  379MOL0     H51109   0.913   4.976   5.504  0.3019  0.2524  0.1317
  379MOL0     H51110   1.097   4.942   5.682 -0.9363 -0.5918 -3.2162
  379MOL0     H51111   0.979   4.954   5.807  0.8530  4.2341 -1.0567
  379MOL0     H51112   0.862   4.736   5.711 -0.3290 -1.4135 -1.2767
  379MOL0     H51113   1.029   4.719   5.778  0.4295  1.3919  0.7955
  379MOL0     H51114   0.971   4.600   5.563 -2.7839  0.7686 -0.0956
  379MOL0     H51115   0.953   4.760   5.484  3.0546  1.1321 -0.1008
  379MOL0     H51116   1.155   4.591   5.334  1.3501 -0.7783 -0.3823
  379MOL0     H51117   1.395   4.488   5.285 -0.8132  0.9005 -1.0232
  379MOL0     H51118   1.480   4.630   5.288 -1.3690  0.2017 -0.4278
  379MOL0     H51119   1.590   4.565   5.497  0.0171 -0.8665  0.4112
  379MOL0     H51120   1.493   4.409   5.486  0.9808 -0.9170 -0.3095
  379MOL0     H51121   1.718   4.542   5.329 -1.9497  1.3564  2.4484
  379MOL0     H51122   1.621   4.416   5.241  0.7402 -0.9892 -0.8958
  379MOL0     H51123   1.678   4.251   5.402 -0.2362 -0.2405 -2.9252
  379MOL0     H51124   1.756   4.370   5.508 -0.5497  1.3631 -0.7443
  379MOL0     H51125   2.090   4.339   5.249 -1.3618  0.3564  0.1278
  379MOL0     H51126   2.285   4.160   5.309  1.0910  2.4275  1.2420
  379MOL0     H51127   2.631   3.991   5.527  1.2892 -0.1020 -1.6068
  379MOL0     H51128   2.800   3.802   5.536 -0.2147 -0.8677  1.1585
  379MOL0     H51129   2.703   3.511   5.644 -0.4421  1.9725 -1.1738
  379MOL0     H51130   2.624   3.413   5.512  0.4789 -2.4811 -2.6901
  379MOL0     H51131   2.769   3.282   5.639 -1.3566 -1.8760 -1.5609
  379MOL0     H51132   2.835   3.303   5.473 -1.0818  2.6410 -0.2985
  379MOL0     H51133   2.933   3.495   5.684  0.9189 -0.0889  1.1744
  379MOL0     H51134   3.012   3.342   5.681 -0.4495 -0.9668  0.1491
  379MOL0     H51135   3.012   3.519   5.425  0.2851 -0.1622 -2.4329
  379MOL0     H51136   3.107   3.374   5.462  0.6431  0.5154  0.5869
  379MOL0     H51137   3.231   3.539   5.471 -1.3867 -0.0165 -0.0809
  379MOL0     H51138   3.223   3.472   5.645 -0.6537 -4.6209 -1.3435
  379MOL0     H51139   3.093   3.727   5.539  0.2541 -0.2210  0.4441
  379MOL0     H51140   3.063   3.675   5.695 -0.7951  2.3384 -0.2898
  379MOL0     H51141   3.356   3.712   5.609 -0.6356  2.4110 -1.4627
  379MOL0     H51142   3.295   3.687   5.774  0.9688 -0.6131  0.9820
  379MOL0     H51143   3.256   3.923   5.593  2.1837  1.3971  1.0412
  379MOL0     H51144   3.158   3.908   5.742  0.2383 -2.0176  1.0844
  379MOL0     H51145   2.501   3.539   5.382  0.1921  0.3668  1.5119
  379MOL0     H51146   2.339   3.732   5.351  0.5538  2.0177  0.6753
  379MOL0     H51147   2.007   3.999   5.595 -0.2725  0.4544  0.4121
  379MOL0     H51148   1.839   4.145   5.523  0.1251 -0.5024  1.0901
  379MOL0     H51149   0.578   5.152   5.809 -0.9356 -0.1316  0.8224
  379MOL0     H51150   0.326   5.156   5.823 -3.0466  0.9896 -0.0781
  379MOL0     H51151  -0.016   5.467   5.619 -1.0623  2.2679 -2.0604
  379MOL0     H51152  -0.247   5.491   5.572  1.0638  2.4962  0.2880
  379MOL0     H51153  -0.480   5.461   5.527 -1.0811 -1.2020  0.8722
  379MOL0     H51154  -0.477   5.614   5.616 -0.2474  0.5333 -2.5076
  379MOL0     H51155  -0.688   5.393   5.599 -1.6840  0.6829  0.9912
  379MOL0     H51156  -0.708   5.539   5.527 -1.1446  0.0526  0.8786
  379MOL0     H51157  -0.689   5.642   5.786 -0.5716 -0.0715 -0.5170
  379MOL0     H51158  -0.695   5.474   5.827 -0.5580  0.7861  1.2973
  379MOL0     H51159  -0.915   5.445   5.713 -0.3540 -0.6019 -1.3951
  379MOL0     H51160  -0.916   5.559   5.845 -3.2446 -0.2597 -1.3067
  379MOL0     H51161  -0.995   5.812   5.508 -0.9503 -0.9895 -1.0483
  379MOL0     H51162  -0.359   5.447   5.974 -0.5917  3.2397  0.3142
  379MOL0     H51163  -0.040   5.346   6.099  0.7200  1.4229  2.1393
  379MOL0     H51164  -0.078   5.526   6.117  0.5270  1.2047 -1.6314
  379MOL0     H51165  -0.199   5.398   6.142  0.6030 -3.0957 -0.8038
  380MOL0     O51166   5.689   3.017   9.104  0.5619 -0.5348 -0.0298
  380MOL0     C51167   5.618   2.974   9.193  0.5750 -0.0358  0.4150
  380MOL0     O51168   5.478   2.976   9.190  0.3658 -0.2471 -0.6713
  380MOL0     C51169   5.433   2.980   9.067 -0.6151 -0.1568 -0.6083
  380MOL0     C51170   5.459   2.864   8.993 -0.4624 -0.1842 -0.3775
  380MOL0     C51171   5.394   2.852   8.878  0.2817 -0.0463  0.4200
  380MOL0     C51172   5.311   2.953   8.817 -0.1271 -0.2318 -0.6745
  380MOL0     O51173   5.255   2.930   8.693  0.1847  0.3748  0.1309
  380MOL0     C51174   5.223   3.042   8.608  0.0586  0.0191 -0.0054
  380MOL0     C51175   5.126   2.988   8.503  0.2047  0.6978 -0.1914
  380MOL0     C51176   5.208   2.936   8.379 -0.3254 -0.3151 -0.7225
  380MOL0     C51177   5.115   2.872   8.278 -0.3050 -0.3332  0.1396
  380MOL0     C51178   5.077   2.727   8.317 -0.0910 -0.0953  0.2381
  380MOL0     C51179   5.198   2.629   8.334  0.4015 -1.3645  0.2076
  380MOL0     C51180   5.161   2.489   8.289  0.0388  0.0068 -0.3037
  380MOL0     C51181   5.066   2.422   8.380  0.0101 -0.6694 -0.4848
  380MOL0     N51182   4.985   2.321   8.319  0.0946  0.1552 -0.0820
  380MOL0     C51183   4.857   2.332   8.258  0.2621  0.8836  0.4614
  380MOL0     C51184   4.817   2.210   8.235  0.0983  0.2637  0.5420
  380MOL0     C51185   4.706   2.168   8.155 -0.4945 -0.3641  0.4603
  380MOL0     C51186   4.719   2.228   8.009 -0.7131  0.3854  0.2665
  380MOL0     C51187   4.803   2.128   7.922  0.4225 -1.0075  0.1826
  380MOL0     C51188   4.822   2.209   7.792  0.3386 -0.2973  0.7862
  380MOL0     O51189   4.947   2.172   7.731 -0.8234  0.3347 -0.2410
  380MOL0     C51190   5.066   2.219   7.783 -0.2381  0.5917  0.0170
  380MOL0     C51191   5.092   2.274   7.905 -0.5245 -0.1398  0.0343
  380MOL0     C51192   5.217   2.310   7.939 -0.4866 -0.3156  0.9359
  380MOL0     C51193   5.332   2.283   7.855  0.1055  0.4413  0.5191
  380MOL0     C51194   5.467   2.311   7.902  1.1200 -0.2862 -0.9458
  380MOL0     O51195   5.480   2.393   8.014  0.1460 -0.0748 -0.3055
  380MOL0     C51196   5.594   2.410   8.085  0.3644 -0.6772  0.6927
  380MOL0     C51197   5.602   2.524   8.160 -0.5416  0.6706 -0.2101
  380MOL0     C51198   5.714   2.551   8.246  0.1033 -0.1002  0.1359
  380MOL0     C51199   5.827   2.468   8.244 -0.1968  0.3794 -0.7987
  380MOL0     O51200   5.935   2.485   8.327  0.3689 -0.0582  0.0508
  380MOL0     C51201   5.967   2.619   8.351  0.1579  0.4676  0.6165
  380MOL0     C51202   6.102   2.626   8.411  0.1730 -0.5918 -0.5770
  380MOL0     C51203   6.160   2.766   8.403 -0.4851 -1.0201 -0.3115
  380MOL0     C51204   6.302   2.760   8.464 -0.1797 -0.5830  0.3369
  380MOL0     C51205   6.335   2.890   8.541  0.2908 -0.0998  0.2677
  380MOL0     C51206   6.477   2.909   8.593  0.8873  0.4285  0.2295
  380MOL0     C51207   6.575   2.955   8.486  0.6948  0.0575  0.3289
  380MOL0     C51208   6.721   2.956   8.551 -1.4459  0.0813 -0.1331
  380MOL0    Cl51209   6.775   2.804   8.628  0.4136  0.1244 -0.3735
  380MOL0     C51210   5.801   2.349   8.179 -0.2904  1.5704 -0.0482
  380MOL0     C51211   5.696   2.327   8.095  0.1476 -0.2399  0.3074
  380MOL0     O51212   5.558   2.258   7.842  0.4871 -0.2038  0.2863
  380MOL0     C51213   5.304   2.203   7.744  0.3764 -0.9966  0.5195
  380MOL0     C51214   5.169   2.177   7.705 -0.3003  0.6616 -0.3188
  380MOL0     N51215   4.923   2.120   8.279 -0.2571 -0.4336  0.6707
  380MOL0     N51216   5.023   2.190   8.320 -0.3368 -0.4124  0.0441
  380MOL0     C51217   5.283   3.065   8.899 -0.7985 -0.4633 -0.2529
  380MOL0     C51218   5.351   3.081   9.023 -0.3887 -0.6596  0.3392
  380MOL0     C51219   5.683   2.945   9.322  0.8501 -0.3798  0.4104
  380MOL0     C51220   5.602   2.898   9.426  0.2786  0.4824  0.5475
  380MOL0     C51221   5.655   2.860   9.554  0.6974  0.4159 -0.0071
  380MOL0     C51222   5.791   2.885   9.580 -0.4090 -0.6213 -1.3842
  380MOL0     O51223   5.860   2.860   9.696 -0.1535  0.3865  0.3709
  380MOL0     C51224   5.801   2.789   9.813 -0.7351 -0.4090 -0.0383
  380MOL0     C51225   5.767   2.640   9.785 -0.1941 -0.3595  1.2657
  380MOL0     C51226   5.894   2.558   9.750  0.1827  0.3240 -0.3689
  380MOL0     C51227   6.008   2.552   9.848  0.6523 -0.8355  0.1470
  380MOL0     C51228   6.097   2.665   9.830  0.3967 -0.3031 -0.7364
  380MOL0     C51229   6.165   2.760   9.797 -0.1287 -0.0426 -0.6404
  380MOL0     C51230   5.870   2.932   9.480  0.0889  0.0447  1.0789
  380MOL0     C51231   5.822   2.968   9.352 -0.0984 -0.5429 -0.6294
  380MOL0     C51232   5.918   3.024   9.250  0.1854  0.4410  0.1448
  380MOL0     H51233   5.510   2.778   9.037 -1.4704  0.3327  1.9955
  380MOL0     H51234   5.403   2.756   8.828  0.5136 -0.1000  0.5682
  380MOL0     H51235   5.165   3.120   8.658 -1.7751 -0.4465 -1.2839
  380MOL0     H51236   5.315   3.078   8.560  0.7432 -1.2615  0.2990
  380MOL0     H51237   5.059   3.069   8.470 -0.0254  0.5351 -0.1242
  380MOL0     H51238   5.063   2.907   8.539 -0.4688  0.4257 -1.8703
  380MOL0     H51239   5.278   2.859   8.414  2.5301  0.0636 -4.8640
  380MOL0     H51240   5.267   3.015   8.332  2.8100 -1.3567  1.1457
  380MOL0     H51241   5.031   2.941   8.266  1.4430  1.5393 -2.2407
  380MOL0     H51242   5.167   2.869   8.182  0.8539  0.5346  0.7209
  380MOL0     H51243   5.016   2.720   8.407 -0.4054  0.1556  0.0497
  380MOL0     H51244   5.009   2.697   8.237 -1.8547  1.0709  1.2462
  380MOL0     H51245   5.281   2.672   8.277  0.1666  0.0718  0.8944
  380MOL0     H51246   5.233   2.626   8.438  1.6369  1.4134 -0.0474
  380MOL0     H51247   5.251   2.430   8.270  0.4106  1.1353 -2.2967
  380MOL0     H51248   5.113   2.500   8.192  2.1433 -1.4126 -1.5755
  380MOL0     H51249   5.124   2.377   8.462 -1.8495 -1.7800  0.2880
  380MOL0     H51250   4.996   2.488   8.431  0.1775 -1.0895  0.3050
  380MOL0     H51251   4.811   2.427   8.234  1.9553  1.1035 -2.4678
  380MOL0     H51252   4.711   2.059   8.157  3.1636 -0.3134  1.5241
  380MOL0     H51253   4.613   2.200   8.202 -0.5845 -1.8850  1.3891
  380MOL0     H51254   4.622   2.223   7.960  0.1222 -0.7395 -1.3446
  380MOL0     H51255   4.760   2.329   8.018  1.2441 -0.3122 -0.2427
  380MOL0     H51256   4.762   2.029   7.901 -1.3409 -0.6951  1.9075
  380MOL0     H51257   4.897   2.110   7.976  1.1024  0.7775 -0.3408
  380MOL0     H51258   4.810   2.317   7.807 -0.2465 -0.2956  0.3491
  380MOL0     H51259   4.735   2.184   7.730  0.6045  0.2675  0.1691
  380MOL0     H51260   5.020   2.292   7.983  2.5896  1.3712  2.8106
  380MOL0     H51261   5.227   2.334   8.044 -0.3781 -1.3614  1.1818
  380MOL0     H51262   5.520   2.595   8.149  0.3816  1.9065  0.5609
  380MOL0     H51263   5.704   2.642   8.305 -1.3219 -1.1815  1.6564
  380MOL0     H51264   5.970   2.670   8.254 -0.9948 -0.0396  0.2995
  380MOL0     H51265   5.888   2.663   8.412  0.2166  1.1671  0.2038
  380MOL0     H51266   6.082   2.606   8.517 -1.5500  3.3014  0.0312
  380MOL0     H51267   6.170   2.554   8.365  1.0115  0.2565 -0.6944
  380MOL0     H51268   6.173   2.808   8.303 -1.3149  2.4664  0.9050
  380MOL0     H51269   6.089   2.828   8.459 -0.3451 -0.3301 -0.8879
  380MOL0     H51270   6.382   2.773   8.390 -1.2187  1.8619 -0.4791
  380MOL0     H51271   6.331   2.677   8.529 -0.5824 -1.5096 -0.6409
  380MOL0     H51272   6.270   2.877   8.628 -0.0912  1.5178  0.2481
  380MOL0     H51273   6.300   2.979   8.489 -0.2638 -0.4170  0.0842
  380MOL0     H51274   6.459   2.993   8.662 -0.6790  0.4580 -0.1874
  380MOL0     H51275   6.512   2.820   8.646  0.2986 -0.0281 -0.1410
  380MOL0     H51276   6.552   3.057   8.454  0.9749  0.0006 -0.0654
  380MOL0     H51277   6.568   2.891   8.397 -2.3605  0.2354  0.3359
  380MOL0     H51278   6.795   2.979   8.473  1.1595  3.4359  2.9663
  380MOL0     H51279   6.722   3.029   8.633  1.3422 -1.4624  1.3208
  380MOL0     H51280   5.870   2.265   8.181 -1.7432  0.3386  1.2498
  380MOL0     H51281   5.682   2.233   8.043 -0.4376 -0.4809  0.8979
  380MOL0     H51282   5.378   2.172   7.672  0.5510 -2.3189  1.2334
  380MOL0     H51283   5.151   2.119   7.615  0.4532 -0.1510  0.0355
  380MOL0     H51284   5.225   3.152   8.872 -0.2474  0.5540  1.6458
  380MOL0     H51285   5.341   3.158   9.099  0.1875  0.6103 -0.8392
  380MOL0     H51286   5.496   2.876   9.420  0.2005  0.3754  2.0552
  380MOL0     H51287   5.588   2.811   9.624 -0.7974 -0.1808 -1.7945
  380MOL0     H51288   5.713   2.848   9.839 -1.8831 -1.6638 -0.9498
  380MOL0     H51289   5.872   2.802   9.895  0.3337  1.6057 -1.2096
  380MOL0     H51290   5.698   2.635   9.700 -0.4711 -2.9003  1.5831
  380MOL0     H51291   5.714   2.603   9.873  0.1287  0.1642  1.6924
  380MOL0     H51292   5.924   2.584   9.648  1.9143  1.6875  0.4368
  380MOL0     H51293   5.871   2.452   9.735 -0.5578 -0.0089  2.4890
  380MOL0     H51294   5.971   2.558   9.950 -0.1937 -0.1208 -0.1894
  380MOL0     H51295   6.069   2.464   9.825  0.8649 -0.4355 -0.9188
  380MOL0     H51296   6.214   2.843   9.749  0.0100  1.4418  1.9133
  380MOL0     H51297   5.977   2.940   9.502 -0.1472 -0.3132  2.4808
  380MOL0     H51298   5.895   3.128   9.223 -2.3006 -0.5075 -1.8535
  380MOL0     H51299   6.014   3.021   9.301 -0.2348 -2.6417  0.9535
  380MOL0     H51300   5.927   2.959   9.162  1.3625  1.3133 -0.4088
  381MOL0     O51301   3.652   9.084   1.823  0.5648  0.3110 -0.5965
  381MOL0     C51302   3.628   9.183   1.878  0.0716 -1.0730  0.4675
  381MOL0     O51303   3.717   9.262   1.949  0.2372 -0.5481  0.3690
  381MOL0     C51304   3.852   9.238   1.944 -0.1924  0.1968 -0.1277
  381MOL0     C51305   3.919   9.125   1.995  0.8754 -0.1612 -0.2857
  381MOL0     C51306   4.056   9.114   1.992  0.3535 -0.1184 -0.1272
  381MOL0     C51307   4.134   9.215   1.943  0.6671 -0.0131  0.0463
  381MOL0     O51308   4.274   9.205   1.929  0.0230  0.8376  0.3144
  381MOL0     C51309   4.349   9.135   2.030  1.0487 -0.0730  0.4489
  381MOL0     C51310   4.493   9.189   2.025  0.4350  1.0023 -0.7647
  381MOL0     C51311   4.581   9.122   1.926  0.2276 -0.9003  0.1834
  381MOL0     C51312   4.732   9.161   1.942 -0.0331 -0.3721  0.5434
  381MOL0     C51313   4.825   9.125   1.824  0.0310 -0.5400  0.0144
  381MOL0     C51314   4.971   9.154   1.858 -0.1518 -0.0252  0.5375
  381MOL0     C51315   5.048   9.196   1.729 -0.1077 -0.6817  0.3923
  381MOL0     C51316   5.082   9.075   1.649  0.1974 -0.0751 -0.9886
  381MOL0     N51317   5.186   9.094   1.543 -0.2406  1.0685  0.2499
  381MOL0     C51318   5.153   9.111   1.413 -0.1747 -0.1547 -0.2499
  381MOL0     C51319   5.270   9.107   1.342  0.3652 -0.3447  0.7792
  381MOL0     C51320   5.296   9.105   1.190 -0.2017  0.7028  0.7357
  381MOL0     C51321   5.422   9.197   1.147  0.5618  0.5943  0.3860
  381MOL0     C51322   5.442   9.218   0.999  0.5505 -0.3547 -0.3169
  381MOL0     C51323   5.554   9.318   0.949 -0.4743 -0.3474  0.0698
  381MOL0     O51324   5.512   9.438   0.997  0.8690 -0.4982 -0.1026
  381MOL0     C51325   5.594   9.550   0.993 -0.4818  0.7705  1.0222
  381MOL0     C51326   5.550   9.670   1.054  0.4140 -0.4560 -0.4839
  381MOL0     C51327   5.619   9.784   1.051  0.9072 -0.0198  0.0937
  381MOL0     C51328   5.747   9.792   0.990  0.4287  0.3472 -1.0543
  381MOL0     C51329   5.834   9.907   1.016 -0.3161 -0.1529 -0.0254
  381MOL0     O51330   5.959   9.906   0.962 -0.2134 -0.3816  0.1208
  381MOL0     C51331   6.030  10.020   0.960 -0.7415 -0.4601  0.9773
  381MOL0     C51332   6.166  10.005   0.996 -0.5921  0.5400  0.1547
  381MOL0     C51333   6.262  10.110   0.977 -0.1256 -0.0857  0.4434
  381MOL0     C51334   6.218  10.232   0.927 -0.6536 -0.0978 -0.4503
  381MOL0     O51335   6.315  10.332   0.923  0.1203  0.0642  0.5517
  381MOL0     C51336   6.319  10.433   1.025 -0.8463 -0.0906 -0.8670
  381MOL0     C51337   6.436  10.529   1.005 -0.1697 -0.6502  0.0260
  381MOL0     C51338   6.566  10.448   0.997 -0.2081 -0.6683  0.5819
  381MOL0     C51339   6.684  10.544   0.982 -0.4633 -0.7888 -0.7756
  381MOL0     C51340   6.801  10.487   0.897  0.1274  0.0636 -0.0339
  381MOL0     C51341   6.909  10.593   0.867 -0.3228  0.2278 -0.7663
  381MOL0     C51342   7.024  10.546   0.780 -0.0064  0.3340 -0.0511
  381MOL0     C51343   7.143  10.643   0.775  0.3740 -0.0152  0.6333
  381MOL0    Cl51344   7.086  10.805   0.714  0.2097  0.3941  0.2183
  381MOL0     C51345   6.080  10.256   0.900  0.2459 -0.2750  0.2029
  381MOL0     C51346   5.990  10.149   0.913  0.7565 -0.7010  0.3847
  381MOL0     O51347   5.787   9.989   1.101 -0.5104  0.2641 -0.5470
  381MOL0     C51348   5.794   9.679   0.924  0.1850  0.0627  0.0960
  381MOL0     C51349   5.715   9.559   0.918 -0.0345  0.1910  1.1085
  381MOL0     N51350   5.376   9.113   1.432 -0.8126 -0.6044 -0.6021
  381MOL0     N51351   5.324   9.116   1.552  0.5841  0.1975  0.5551
  381MOL0     C51352   4.076   9.328   1.885  0.1701  0.1064 -0.4181
  381MOL0     C51353   3.934   9.339   1.886 -0.0175 -0.2660 -0.7263
  381MOL0     C51354   3.485   9.226   1.887  0.0063 -0.2221  0.1345
  381MOL0     C51355   3.403   9.134   1.959 -0.1792  0.3142  0.9085
  381MOL0     C51356   3.273   9.166   1.991 -0.3316  0.2484  0.2714
  381MOL0     C51357   3.218   9.292   1.956 -0.1075  0.0098  0.2424
  381MOL0     O51358   3.086   9.306   1.986  0.0294  0.2541 -0.2451
  381MOL0     C51359   3.025   9.424   1.938  0.4695  0.9155 -0.2523
  381MOL0     C51360   3.056   9.543   2.031 -0.3792 -0.2634  0.4776
  381MOL0     C51361   2.999   9.679   1.978 -0.9421  0.1247 -0.5770
  381MOL0     C51362   3.036   9.788   2.085 -0.4772 -0.2082  0.4324
  381MOL0     C51363   3.179   9.815   2.091 -0.1748  0.1965  0.2242
  381MOL0     C51364   3.295   9.821   2.087 -0.5695  0.2575  0.2796
  381MOL0     C51365   3.309   9.379   1.887  0.3601  0.0197  0.2292
  381MOL0     C51366   3.448   9.357   1.867 -0.5908  0.1235 -1.5009
  381MOL0     C51367   3.534   9.468   1.808  0.7723  0.6700 -0.0488
  381MOL0     H51368   3.855   9.057   2.050 -5.8139  3.3882 -2.6287
  381MOL0     H51369   4.114   9.034   2.036 -0.4839  0.1023  1.4457
  381MOL0     H51370   4.308   9.149   2.130  0.3166 -0.5361  0.2266
  381MOL0     H51371   4.345   9.029   2.003 -0.0796 -0.3424  1.5775
  381MOL0     H51372   4.543   9.172   2.122  0.5954  1.4944 -0.7566
  381MOL0     H51373   4.469   9.295   2.015 -2.4384  0.8026  2.2571
  381MOL0     H51374   4.546   9.149   1.826 -4.6227 -2.5737  1.1561
  381MOL0     H51375   4.569   9.013   1.931  3.6286 -1.6134 -2.7944
  381MOL0     H51376   4.743   9.269   1.953 -0.3314  0.1450 -3.0776
  381MOL0     H51377   4.783   9.112   2.026  1.5543  2.8843  1.6624
  381MOL0     H51378   4.817   9.017   1.803 -1.2207 -0.7800  1.5246
  381MOL0     H51379   4.787   9.175   1.735 -1.4024 -1.3865  0.1059
  381MOL0     H51380   4.986   9.236   1.928 -2.3165  1.2186 -0.3594
  381MOL0     H51381   5.011   9.061   1.901  1.2649  0.5677  0.5458
  381MOL0     H51382   5.142   9.248   1.749 -0.4556  0.6407 -1.2700
  381MOL0     H51383   4.980   9.260   1.673  0.2767 -1.4512 -0.9913
  381MOL0     H51384   5.122   8.997   1.714  1.7543  1.2105 -0.3634
  381MOL0     H51385   4.992   9.045   1.594  1.6368 -2.1793 -2.3653
  381MOL0     H51386   5.048   9.116   1.385 -0.9649  1.9217  2.6177
  381MOL0     H51387   5.299   8.998   1.166 -1.2260  1.0457 -1.0835
  381MOL0     H51388   5.215   9.140   1.126  0.9240 -0.3040 -1.3553
  381MOL0     H51389   5.404   9.297   1.187 -0.9799  1.6162 -2.5400
  381MOL0     H51390   5.513   9.152   1.187 -0.3779 -2.4619 -0.6305
  381MOL0     H51391   5.345   9.242   0.954  0.6714 -0.7197 -0.7826
  381MOL0     H51392   5.466   9.121   0.954  0.5126  0.2839 -1.7584
  381MOL0     H51393   5.576   9.313   0.842  0.9026 -0.4478  0.3392
  381MOL0     H51394   5.648   9.300   1.001  0.1237 -0.3455 -0.9920
  381MOL0     H51395   5.454   9.677   1.103  0.3679 -0.1697 -0.6156
  381MOL0     H51396   5.578   9.865   1.110 -2.2140 -2.6798  1.9111
  381MOL0     H51397   6.192   9.909   1.039  0.8169 -0.0906 -1.9205
  381MOL0     H51398   6.369  10.102   0.995  0.1337 -0.7826 -1.2433
  381MOL0     H51399   6.231  10.497   1.017 -0.1311  0.9113 -0.7855
  381MOL0     H51400   6.320  10.400   1.129 -2.4776 -0.2860 -0.8903
  381MOL0     H51401   6.419  10.581   0.910  1.3443 -1.4466 -0.7258
  381MOL0     H51402   6.450  10.606   1.081 -0.4704  2.7088 -3.0622
  381MOL0     H51403   6.581  10.396   1.092  3.5575 -1.3772 -0.2536
  381MOL0     H51404   6.563  10.373   0.918  0.5029 -1.7316  1.5196
  381MOL0     H51405   6.725  10.587   1.074 -0.9087  2.2265 -1.8601
  381MOL0     H51406   6.649  10.630   0.924  1.8104  1.0406  0.3877
  381MOL0     H51407   6.767  10.445   0.802  1.6490 -1.3004 -0.0203
  381MOL0     H51408   6.837  10.406   0.961 -1.3441 -0.2893  0.3721
  381MOL0     H51409   6.866  10.683   0.821  1.9887  2.9290  1.8790
  381MOL0     H51410   6.953  10.624   0.962  0.2163 -0.5987 -0.7428
  381MOL0     H51411   6.994  10.518   0.678 -1.0638  0.7104  0.1420
  381MOL0     H51412   7.059  10.455   0.830 -1.8738 -0.0625  0.6368
  381MOL0     H51413   7.189  10.664   0.872  1.5539  0.6544 -0.0426
  381MOL0     H51414   7.235  10.610   0.725  1.9932  2.8428  1.4676
  381MOL0     H51415   6.040  10.356   0.885  0.9672  0.1112  0.7805
  381MOL0     H51416   5.889  10.161   0.875  0.9145  0.1492  0.1985
  381MOL0     H51417   5.891   9.680   0.876 -0.5732 -1.4119 -1.5850
  381MOL0     H51418   5.768   9.474   0.876  1.2808  0.6759  1.7131
  381MOL0     H51419   4.150   9.400   1.851  1.7352 -1.2607 -0.0274
  381MOL0     H51420   3.887   9.431   1.852 -1.7796 -0.4163  1.1173
  381MOL0     H51421   3.440   9.040   1.999  2.0591 -1.6064 -4.6448
  381MOL0     H51422   3.213   9.093   2.044  0.1797 -1.4411 -1.3893
  381MOL0     H51423   2.916   9.413   1.931  0.3962  0.1950  1.4651
  381MOL0     H51424   3.062   9.444   1.837 -0.2370  3.4574 -0.0783
  381MOL0     H51425   3.163   9.563   2.043 -0.6738  3.0379 -1.3294
  381MOL0     H51426   2.999   9.526   2.123 -4.5975  1.6046 -1.5565
  381MOL0     H51427   2.890   9.677   1.971 -1.1700  0.5767  1.9282
  381MOL0     H51428   3.043   9.695   1.879  0.5470  1.1492  0.2121
  381MOL0     H51429   2.974   9.872   2.051 -2.9404 -2.4324 -1.0411
  381MOL0     H51430   2.997   9.754   2.181 -2.1594  1.2343  0.3261
  381MOL0     H51431   3.402   9.824   2.073 -0.7247  0.4353 -0.9238
  381MOL0     H51432   3.276   9.479   1.861 -0.9208 -0.2129  0.9264
  381MOL0     H51433   3.642   9.453   1.824  0.4866 -1.1320  0.4200
  381MOL0     H51434   3.510   9.470   1.702 -2.3491 -1.6864  0.4632
  381MOL0     H51435   3.494   9.561   1.849 -1.4126 -1.7667  4.1568
  382MOL0     O51436   2.394   1.651   1.588  0.5812  0.1514 -0.4716
  382MOL0     C51437   2.362   1.771   1.572 -0.1877  0.5699  0.6404
  382MOL0     O51438   2.417   1.879   1.639 -0.0747  0.6879  0.1883
  382MOL0     C51439   2.530   1.867   1.721  0.1836 -0.1821  0.2895
  382MOL0     C51440   2.641   1.785   1.686 -0.1938  0.8404 -0.2870
  382MOL0     C51441   2.753   1.781   1.761 -0.2908 -0.6081 -0.0373
  382MOL0     C51442   2.769   1.875   1.860 -0.2875  0.0658  0.2229
  382MOL0     O51443   2.895   1.890   1.926  0.8140  0.0458  0.0463
  382MOL0     C51444   2.951   1.767   1.965 -0.7637 -0.0552 -0.3336
  382MOL0     C51445   2.970   1.784   2.112 -0.2146  0.0367  0.2244
  382MOL0     C51446   3.065   1.905   2.145  0.1274 -0.4979 -0.4264
  382MOL0     C51447   2.996   1.996   2.255 -0.3240 -0.8312  0.2658
  382MOL0     C51448   3.088   2.064   2.353 -0.5187  0.0321  0.5862
  382MOL0     C51449   3.210   2.133   2.286  1.3325 -0.2957 -0.7824
  382MOL0     C51450   3.270   2.242   2.387 -1.4471  0.4566 -0.1246
  382MOL0     C51451   3.355   2.327   2.295 -0.7249 -0.2734 -0.3115
  382MOL0     N51452   3.446   2.422   2.368 -0.1152 -0.5692 -0.1135
  382MOL0     C51453   3.393   2.536   2.433 -0.2707  0.2725  0.2370
  382MOL0     C51454   3.495   2.623   2.434 -0.0098  0.0788  0.3764
  382MOL0     C51455   3.473   2.757   2.497 -0.6132 -0.0009  0.2212
  382MOL0     C51456   3.603   2.840   2.522  0.5732  0.2347  0.1720
  382MOL0     C51457   3.689   2.779   2.631 -0.5266  0.4623 -1.3863
  382MOL0     C51458   3.826   2.839   2.607 -0.0962  0.2597  0.2420
  382MOL0     O51459   3.900   2.785   2.721  0.3367  0.0802 -0.2351
  382MOL0     C51460   4.017   2.839   2.766 -0.8837 -0.6903  0.6471
  382MOL0     C51461   4.073   2.789   2.881 -0.5550  1.3528  0.4624
  382MOL0     C51462   4.198   2.830   2.927  0.7266 -0.0390 -0.4494
  382MOL0     C51463   4.257   2.943   2.860 -0.9123  0.5121  0.4613
  382MOL0     C51464   4.385   2.992   2.922  1.3175  0.3390 -0.0994
  382MOL0     O51465   4.417   2.941   3.040 -0.5233  0.0243 -0.2742
  382MOL0     C51466   4.544   2.957   3.091 -0.1448  0.4952  0.8903
  382MOL0     C51467   4.579   3.053   3.186  0.1484 -0.8043 -0.2065
  382MOL0     C51468   4.716   3.061   3.229 -0.7376 -0.4453  0.1670
  382MOL0     C51469   4.811   2.974   3.183 -0.2455 -0.5211  0.1300
  382MOL0     O51470   4.926   2.974   3.253  0.3714 -0.7092 -0.5324
  382MOL0     C51471   5.035   2.884   3.208 -0.4895 -0.3815  0.2598
  382MOL0     C51472   5.162   2.920   3.292 -0.0991 -0.4768  0.8126
  382MOL0     C51473   5.276   2.822   3.278 -0.1155  1.2141 -0.1405
  382MOL0     C51474   5.409   2.894   3.294  0.2007  0.2077 -0.1580
  382MOL0     C51475   5.519   2.805   3.252  0.5023  0.5843 -0.7150
  382MOL0     C51476   5.663   2.845   3.292 -0.5772  1.0793  0.4903
  382MOL0     C51477   5.715   2.980   3.233 -0.5170 -0.3949  0.8343
  382MOL0     C51478   5.875   2.992   3.224  0.4336  0.3107  0.1637
  382MOL0    Cl51479   5.923   2.889   3.083  0.1715 -0.0277 -0.4002
  382MOL0     C51480   4.775   2.889   3.079  0.4871  0.4442 -0.0674
  382MOL0     C51481   4.642   2.873   3.041 -0.4993  0.3710 -1.1906
  382MOL0     O51482   4.444   3.066   2.858  0.3770 -0.3701 -0.1162
  382MOL0     C51483   4.191   3.006   2.748  0.4657  0.2607 -0.4009
  382MOL0     C51484   4.073   2.952   2.700 -0.4782 -0.7030 -0.6412
  382MOL0     N51485   3.600   2.575   2.366 -0.3823  0.0032  0.1792
  382MOL0     N51486   3.574   2.455   2.331  0.4738  0.9473  0.3462
  382MOL0     C51487   2.662   1.957   1.899 -0.7441  0.3975 -0.0662
  382MOL0     C51488   2.541   1.958   1.823 -1.0469 -0.2210 -0.1679
  382MOL0     C51489   2.232   1.790   1.494 -0.7216  0.0499  0.1648
  382MOL0     C51490   2.131   1.857   1.557 -0.0540 -0.5341  0.9282
  382MOL0     C51491   2.009   1.881   1.498  0.0803  0.1255 -0.4924
  382MOL0     C51492   1.983   1.838   1.369  0.0766 -0.2043  0.7103
  382MOL0     O51493   1.871   1.855   1.291  0.2119 -0.1655  0.4596
  382MOL0     C51494   1.739   1.886   1.347 -0.9651  0.1092  0.4875
  382MOL0     C51495   1.713   2.029   1.339 -0.2949  0.1092 -0.2372
  382MOL0     C51496   1.730   2.099   1.201 -0.6625  0.3111 -0.3428
  382MOL0     C51497   1.633   2.215   1.193  0.1115 -0.2348  0.3528
  382MOL0     C51498   1.659   2.309   1.081 -0.5965 -0.0343  0.6294
  382MOL0     C51499   1.680   2.400   1.001 -0.0867 -0.0881 -0.2873
  382MOL0     C51500   2.078   1.758   1.307 -0.1903 -0.1415  0.3142
  382MOL0     C51501   2.208   1.747   1.363  0.2183  0.2990 -0.0954
  382MOL0     C51502   2.325   1.683   1.282  0.2420 -0.1975 -0.6776
  382MOL0     H51503   2.641   1.713   1.604 -0.0154 -1.0217  1.2808
  382MOL0     H51504   2.825   1.704   1.734  0.5427 -0.2177  0.9738
  382MOL0     H51505   2.887   1.680   1.949  0.0650 -1.1730  1.9738
  382MOL0     H51506   3.041   1.744   1.907 -1.4299  1.4579 -2.0823
  382MOL0     H51507   3.018   1.694   2.152  0.4293  0.9066  1.4824
  382MOL0     H51508   2.865   1.785   2.143 -0.1303 -0.5823  0.5487
  382MOL0     H51509   3.076   1.970   2.058 -1.1896 -0.6013 -0.6954
  382MOL0     H51510   3.159   1.872   2.191  1.9786  1.3710 -2.6461
  382MOL0     H51511   2.936   2.075   2.209 -1.3312 -0.3574  2.2712
  382MOL0     H51512   2.927   1.941   2.320 -1.7977  2.3858  1.6092
  382MOL0     H51513   3.029   2.131   2.416 -0.7633 -1.1743  1.6757
  382MOL0     H51514   3.122   1.986   2.422 -0.8796 -1.7877 -1.2019
  382MOL0     H51515   3.280   2.059   2.245 -0.5765 -3.4949  1.3488
  382MOL0     H51516   3.160   2.185   2.203  1.5508 -0.8826 -1.2886
  382MOL0     H51517   3.339   2.199   2.460  1.2438  3.0156 -0.9789
  382MOL0     H51518   3.190   2.296   2.438 -1.5773 -0.0026  0.1653
  382MOL0     H51519   3.422   2.268   2.233  0.9473 -1.1513  2.2028
  382MOL0     H51520   3.294   2.379   2.220 -1.3272 -0.6316 -0.0738
  382MOL0     H51521   3.293   2.562   2.468 -0.3154  1.4733 -0.7132
  382MOL0     H51522   3.415   2.822   2.432 -0.5711  0.1949  0.3781
  382MOL0     H51523   3.413   2.752   2.588 -2.4880  1.6596 -0.8539
  382MOL0     H51524   3.653   2.856   2.426  0.8411  2.6046  0.6535
  382MOL0     H51525   3.569   2.941   2.548 -0.2640 -0.1160  0.4965
  382MOL0     H51526   3.687   2.669   2.628 -0.3944  0.3519  0.6644
  382MOL0     H51527   3.655   2.805   2.732  1.3702  0.9898 -0.8378
  382MOL0     H51528   3.826   2.949   2.602 -1.2839  0.3349  1.2218
  382MOL0     H51529   3.868   2.800   2.514 -0.7463  0.0098  0.0466
  382MOL0     H51530   4.038   2.703   2.937  2.6256  0.0016  0.5797
  382MOL0     H51531   4.248   2.782   3.011  1.1952  2.2882  0.6995
  382MOL0     H51532   4.502   3.124   3.215  2.2258  1.2082  0.7102
  382MOL0     H51533   4.735   3.137   3.303 -0.3854  0.6845 -1.0347
  382MOL0     H51534   5.004   2.780   3.223 -0.8131 -0.5532 -1.4855
  382MOL0     H51535   5.059   2.894   3.102  0.8282  2.4613  0.7134
  382MOL0     H51536   5.202   3.017   3.261  1.8214 -0.6525  2.5701
  382MOL0     H51537   5.137   2.938   3.396  0.3209  1.4071  0.6156
  382MOL0     H51538   5.264   2.741   3.350 -1.4970  2.1423  0.7204
  382MOL0     H51539   5.274   2.771   3.181 -4.4953  0.0474  0.3182
  382MOL0     H51540   5.426   2.926   3.398  0.0472 -1.7635  0.5143
  382MOL0     H51541   5.404   2.980   3.226  3.5407 -0.1669 -1.0427
  382MOL0     H51542   5.524   2.794   3.143  2.8782  1.5957 -0.7855
  382MOL0     H51543   5.511   2.704   3.294  1.1653 -0.0053 -1.9433
  382MOL0     H51544   5.680   2.860   3.399  0.3087  1.1462  0.3455
  382MOL0     H51545   5.732   2.767   3.259  0.7360  1.6408  1.7841
  382MOL0     H51546   5.687   3.061   3.301  1.2192  1.0500 -0.0931
  382MOL0     H51547   5.675   3.015   3.137 -0.9103 -0.4819  0.9634
  382MOL0     H51548   5.916   3.093   3.215  2.1609 -0.2068  1.5754
  382MOL0     H51549   5.921   2.962   3.318 -1.0030  1.1624  1.1696
  382MOL0     H51550   4.848   2.824   3.032 -0.1303  0.5217 -1.1653
  382MOL0     H51551   4.619   2.796   2.968  0.0969 -3.0661  1.9525
  382MOL0     H51552   4.237   3.094   2.703 -1.9076  1.9316  0.2518
  382MOL0     H51553   4.044   2.992   2.603  0.2383  0.3246 -0.4369
  382MOL0     H51554   2.684   2.017   1.987  0.5893 -1.2296  0.7634
  382MOL0     H51555   2.454   2.015   1.855 -0.9767 -1.0197  1.5768
  382MOL0     H51556   2.136   1.898   1.658 -0.5817  0.5037  0.5480
  382MOL0     H51557   1.928   1.929   1.552  0.8620  0.3540  0.4931
  382MOL0     H51558   1.751   1.861   1.452  1.6377 -2.3363 -0.2474
  382MOL0     H51559   1.659   1.827   1.302  0.2143 -1.5122  0.4268
  382MOL0     H51560   1.788   2.090   1.391 -0.0557  1.8895 -2.5399
  382MOL0     H51561   1.615   2.042   1.387 -0.9465 -1.8942 -0.9086
  382MOL0     H51562   1.711   2.031   1.118  0.1831  2.5698 -2.4936
  382MOL0     H51563   1.832   2.139   1.191  0.2153 -2.0544 -1.6172
  382MOL0     H51564   1.538   2.164   1.175  0.8930 -1.9354  0.7972
  382MOL0     H51565   1.630   2.277   1.283  3.2633  0.1540  0.3039
  382MOL0     H51566   1.711   2.479   0.935 -3.2259 -0.1674 -2.0582
  382MOL0     H51567   2.057   1.721   1.208  0.3604 -1.2005  0.5781
  382MOL0     H51568   2.351   1.589   1.332 -2.4006 -0.8715 -0.3919
  382MOL0     H51569   2.295   1.651   1.182 -0.7370  0.4167 -0.6009
  382MOL0     H51570   2.409   1.753   1.278 -2.4748  3.4181 -0.0421
  383MOL0     O51571   4.565   0.019   2.704  0.2541  0.6246  0.5424
  383MOL0     C51572   4.493   0.074   2.619  0.0441 -0.1593  0.2783
  383MOL0     O51573   4.526   0.170   2.519 -0.0077 -0.1370 -0.6706
  383MOL0     C51574   4.654   0.203   2.498 -0.0566 -1.2668  0.1933
  383MOL0     C51575   4.724   0.162   2.382 -0.2154  0.0650 -0.2948
  383MOL0     C51576   4.857   0.203   2.357 -0.2933  0.3440 -0.3088
  383MOL0     C51577   4.930   0.288   2.446  0.4959  0.0254 -0.0387
  383MOL0     O51578   5.064   0.318   2.436  0.3315 -0.3244  0.5651
  383MOL0     C51579   5.154   0.216   2.389 -0.4370 -0.0257 -0.7575
  383MOL0     C51580   5.169   0.224   2.233 -0.4817  0.1269  0.0812
  383MOL0     C51581   5.315   0.188   2.199  0.1602 -1.0202  0.4328
  383MOL0     C51582   5.346   0.045   2.137  0.1259  0.5426 -0.9628
  383MOL0     C51583   5.501   0.040   2.107  0.4768  0.9400 -0.0989
  383MOL0     C51584   5.580   0.021   2.232  0.9250  0.5818  0.0429
  383MOL0     C51585   5.724   0.059   2.177 -0.4094  0.2044 -0.2246
  383MOL0     C51586   5.822   0.021   2.289 -0.1449  0.3303 -0.1135
  383MOL0     N51587   5.954   0.058   2.241  0.1119  0.8423  0.0427
  383MOL0     C51588   6.047  -0.021   2.177  0.4226 -0.7625 -0.1223
  383MOL0     C51589   6.161   0.046   2.184  0.0841  0.4701  0.4279
  383MOL0     C51590   6.293  -0.034   2.171 -0.6483  0.1079  0.7111
  383MOL0     C51591   6.351  -0.045   2.026  0.3217  0.1700  0.1999
  383MOL0     C51592   6.383   0.098   1.974 -0.0660  0.0298  0.2513
  383MOL0     C51593   6.455   0.096   1.835 -0.4296 -0.3667 -0.1244
  383MOL0     O51594   6.550   0.211   1.818  0.1938  0.2481 -0.0424
  383MOL0     C51595   6.675   0.203   1.872  1.3712  0.6690  0.6460
  383MOL0     C51596   6.718   0.098   1.953  0.6798  0.2255  1.1315
  383MOL0     C51597   6.853   0.081   1.992 -0.6350 -0.3936 -0.0981
  383MOL0     C51598   6.945   0.189   1.964 -0.0281  0.2957  0.0600
  383MOL0     C51599   7.084   0.185   2.015 -0.4230 -0.1538  0.0445
  383MOL0     O51600   7.100   0.114   2.128  0.0371  1.1803  0.5397
  383MOL0     C51601   7.213   0.119   2.207  0.4161 -0.3612  0.2077
  383MOL0     C51602   7.226   0.020   2.308  0.5630 -0.2832  0.4973
  383MOL0     C51603   7.333   0.016   2.397 -0.6979 -0.5862  0.6492
  383MOL0     C51604   7.450   0.106   2.383 -0.9726  0.0775 -0.4762
  383MOL0     O51605   7.567   0.098   2.455  0.1911  0.5464 -0.9954
  383MOL0     C51606   7.688   0.135   2.400 -0.3411 -0.1735  0.8257
  383MOL0     C51607   7.802   0.092   2.494 -0.1311 -1.1402  0.4599
  383MOL0     C51608   7.935   0.130   2.423  0.7401 -0.1239 -0.1745
  383MOL0     C51609   7.984   0.279   2.453 -0.2012 -0.9034 -0.4730
  383MOL0     C51610   8.116   0.313   2.379  0.0716 -0.2365 -0.7243
  383MOL0     C51611   8.240   0.231   2.418  0.1856  0.0110  0.3204
  383MOL0     C51612   8.276   0.201   2.560 -0.3938  0.0945  0.2540
  383MOL0     C51613   8.369   0.085   2.582  1.0001  0.7856  0.0247
  383MOL0    Cl51614   8.288  -0.062   2.525  0.2651  0.2511  0.4403
  383MOL0     C51615   7.429   0.209   2.287  0.3839  0.5131  0.3089
  383MOL0     C51616   7.310   0.219   2.208  0.1887  0.1449 -0.6699
  383MOL0     O51617   7.171   0.249   1.953 -0.0818 -0.1430  0.4887
  383MOL0     C51618   6.898   0.299   1.887 -1.0004  1.0322  0.0346
  383MOL0     C51619   6.763   0.308   1.843  0.4265  0.3583 -0.0791
  383MOL0     N51620   6.137   0.172   2.237 -0.6282 -0.4659 -0.1329
  383MOL0     N51621   6.014   0.177   2.265 -0.4026 -0.0681  0.0840
  383MOL0     C51622   4.856   0.335   2.553  0.6449  0.4595  1.0153
  383MOL0     C51623   4.719   0.303   2.573 -0.8923 -0.0009 -0.8845
  383MOL0     C51624   4.352   0.034   2.623  0.1981 -0.4217 -0.6347
  383MOL0     C51625   4.290   0.004   2.744  0.3322 -0.3051 -0.7147
  383MOL0     C51626   4.154  -0.010   2.748  0.5103 -0.0289 -0.1523
  383MOL0     C51627   4.079  -0.035   2.634  0.3844  0.2507  0.2670
  383MOL0     O51628   3.950  -0.081   2.652 -0.3948 -0.0533 -0.0206
  383MOL0     C51629   3.857  -0.109   2.543  0.4039  0.8842  0.0906
  383MOL0     C51630   3.752   0.004   2.551  0.6203  0.0185  0.7535
  383MOL0     C51631   3.799   0.134   2.485  0.3348 -0.5432  0.1945
  383MOL0     C51632   3.792   0.141   2.334  0.4575 -0.0002 -0.4886
  383MOL0     C51633   3.653   0.113   2.287 -1.3075  0.3403  0.1649
  383MOL0     C51634   3.549   0.081   2.233  0.3369  1.1282 -0.1655
  383MOL0     C51635   4.147  -0.020   2.512 -0.1212  0.3589  0.6420
  383MOL0     C51636   4.280   0.005   2.510  0.1518  0.2266 -0.0797
  383MOL0     C51637   4.345  -0.004   2.383  0.1317 -1.0360 -0.0395
  383MOL0     H51638   4.668   0.104   2.309  1.7741  1.2533 -2.9590
  383MOL0     H51639   4.907   0.168   2.267  0.4899  1.3383 -0.2857
  383MOL0     H51640   5.251   0.250   2.428 -0.0418 -0.0958 -1.6458
  383MOL0     H51641   5.122   0.116   2.420 -0.5864  0.3057  0.1765
  383MOL0     H51642   5.155   0.327   2.197  1.1055  0.2464 -0.2671
  383MOL0     H51643   5.098   0.158   2.182 -0.7673 -1.3377  2.2622
  383MOL0     H51644   5.382   0.217   2.280  1.0407 -1.8682  0.0379
  383MOL0     H51645   5.337   0.260   2.119 -3.4756  2.6861  2.3570
  383MOL0     H51646   5.323  -0.033   2.210  4.3394  0.3448  0.4346
  383MOL0     H51647   5.300   0.018   2.042  1.7723 -0.2786 -1.5650
  383MOL0     H51648   5.518  -0.037   2.030 -2.5488  0.1989 -0.1664
  383MOL0     H51649   5.528   0.132   2.055  1.2831  1.2404  0.8263
  383MOL0     H51650   5.563   0.088   2.317 -1.0469  1.0886 -0.6990
  383MOL0     H51651   5.573  -0.084   2.262 -2.6795  0.3915 -1.0080
  383MOL0     H51652   5.734   0.163   2.145 -3.2687  1.4398  2.3643
  383MOL0     H51653   5.744  -0.004   2.090 -0.3583  0.1322 -0.1618
  383MOL0     H51654   5.812   0.083   2.379  3.1206 -0.6149  1.0445
  383MOL0     H51655   5.813  -0.079   2.331  2.7744  1.0959  2.7167
  383MOL0     H51656   6.040  -0.121   2.136 -1.5290 -0.6644 -0.0993
  383MOL0     H51657   6.373   0.004   2.236 -0.0588  0.7697 -0.3766
  383MOL0     H51658   6.286  -0.139   2.200  2.6359 -0.4394 -0.0982
  383MOL0     H51659   6.438  -0.111   2.028  1.3560  1.4332  3.5163
  383MOL0     H51660   6.276  -0.099   1.966  0.9616 -0.9755  0.3983
  383MOL0     H51661   6.439   0.144   2.056 -0.1684  0.6950 -0.0379
  383MOL0     H51662   6.295   0.160   1.956  1.1003  1.0168 -2.7865
  383MOL0     H51663   6.372   0.105   1.764 -2.1373 -1.6628  1.6064
  383MOL0     H51664   6.514   0.005   1.823  1.0495  0.2665  1.8966
  383MOL0     H51665   6.658   0.016   1.990  2.1191 -0.9826  0.8919
  383MOL0     H51666   6.874  -0.006   2.053  0.8115  0.5073  0.7592
  383MOL0     H51667   7.147  -0.053   2.319  1.6808 -1.2617  2.4533
  383MOL0     H51668   7.329  -0.056   2.477  0.6527 -0.0562  1.2119
  383MOL0     H51669   7.688   0.088   2.301  2.5452  2.2578 -0.5091
  383MOL0     H51670   7.689   0.243   2.383 -1.8697  0.0103  1.6893
  383MOL0     H51671   7.784   0.137   2.592 -2.9973 -0.9222 -0.0832
  383MOL0     H51672   7.800  -0.017   2.508  0.2795 -1.1279  0.6298
  383MOL0     H51673   8.001   0.051   2.459 -0.1147  0.5395  3.1236
  383MOL0     H51674   7.918   0.130   2.315 -0.7044  0.1393  0.0288
  383MOL0     H51675   7.990   0.298   2.561  0.8861  1.7173 -0.9032
  383MOL0     H51676   7.906   0.342   2.409 -2.1856 -1.5903  1.8410
  383MOL0     H51677   8.157   0.413   2.393 -1.8814  0.7297 -1.6255
  383MOL0     H51678   8.096   0.290   2.274 -1.3601  1.7994 -0.9442
  383MOL0     H51679   8.231   0.139   2.359  1.1807 -0.4220  0.8270
  383MOL0     H51680   8.329   0.282   2.379  1.6863 -1.6921  1.3521
  383MOL0     H51681   8.180   0.178   2.608 -0.6536  0.0482 -0.2835
  383MOL0     H51682   8.303   0.298   2.603 -3.7030 -0.5161  4.4239
  383MOL0     H51683   8.463   0.088   2.526  0.9599  2.8095  0.0184
  383MOL0     H51684   8.396   0.067   2.687  0.0763 -0.8281  0.0337
  383MOL0     H51685   7.503   0.285   2.265 -0.2784  1.4644  1.2520
  383MOL0     H51686   7.310   0.299   2.135  1.1125 -0.1558 -1.0087
  383MOL0     H51687   6.981   0.357   1.850 -0.0303 -0.6105 -0.4717
  383MOL0     H51688   6.729   0.382   1.771 -0.7618  0.2503  0.3490
  383MOL0     H51689   4.893   0.411   2.620 -1.1826  0.9839  1.4985
  383MOL0     H51690   4.672   0.326   2.668 -0.7458 -1.6807 -0.3651
  383MOL0     H51691   4.349   0.014   2.835  0.0762  1.8283 -0.7329
  383MOL0     H51692   4.101  -0.016   2.843 -0.3203  1.2823 -0.5181
  383MOL0     H51693   3.816  -0.209   2.560  2.4588  0.0945  0.8395
  383MOL0     H51694   3.905  -0.128   2.446  0.0523 -2.3780  0.4241
  383MOL0     H51695   3.727   0.020   2.656 -1.9304 -0.4208  0.2911
  383MOL0     H51696   3.659  -0.020   2.499 -0.2843  5.5922 -0.9711
  383MOL0     H51697   3.903   0.140   2.519  0.6553 -1.5349 -0.5766
  383MOL0     H51698   3.738   0.215   2.526  1.0903 -1.1040  2.6143
  383MOL0     H51699   3.828   0.234   2.290  0.2954  0.1819 -0.2392
  383MOL0     H51700   3.850   0.055   2.300 -0.8079 -0.7588 -0.8336
  383MOL0     H51701   3.452   0.045   2.205  1.2325 -1.9893  0.3682
  383MOL0     H51702   4.089  -0.044   2.423 -0.2404 -3.1823  1.5501
  383MOL0     H51703   4.445  -0.044   2.402  0.3462 -0.0855  0.9699
  383MOL0     H51704   4.287  -0.062   2.311 -0.6633  0.5678 -0.7515
  383MOL0     H51705   4.361   0.097   2.346  0.0144 -0.4651  1.3903
  384MOL0     O51706   8.993   6.098   6.759 -0.5162 -0.1250 -0.8009
  384MOL0     C51707   9.012   6.079   6.878 -0.0167  0.4328 -0.0578
  384MOL0     O51708   9.136   6.082   6.933 -0.8349  0.2981  0.5991
  384MOL0     C51709   9.241   6.101   6.844  0.2765 -0.2217 -0.2606
  384MOL0     C51710   9.317   5.991   6.817  0.0232 -0.4117  0.1163
  384MOL0     C51711   9.435   6.003   6.734  0.3871  0.5129 -0.4512
  384MOL0     C51712   9.479   6.131   6.697  0.0981  0.4408 -0.0525
  384MOL0     O51713   9.588   6.159   6.620 -0.1463 -0.1271 -0.0486
  384MOL0     C51714   9.704   6.116   6.685  0.0017 -0.5826  0.3891
  384MOL0     C51715   9.829   6.150   6.606 -0.2518 -1.0678  0.2879
  384MOL0     C51716   9.845   6.303   6.604 -0.6428 -0.3999  0.0211
  384MOL0     C51717   9.980   6.338   6.548 -0.5595  0.5813 -0.5184
  384MOL0     C51718   9.995   6.483   6.528  1.0838  0.4179  0.6546
  384MOL0     C51719  10.125   6.509   6.446  0.2495 -0.2792  0.0833
  384MOL0     C51720  10.146   6.659   6.433  0.2330  0.5284 -0.3814
  384MOL0     C51721  10.296   6.688   6.383  0.8361 -0.1812  0.0749
  384MOL0     N51722  10.318   6.821   6.332 -0.1942  0.2327  0.1191
  384MOL0     C51723  10.359   6.849   6.201  0.1339 -0.0904 -0.1374
  384MOL0     C51724  10.362   6.981   6.202  0.2115 -0.6665  0.6066
  384MOL0     C51725  10.399   7.076   6.083  0.0189  0.0506 -0.8470
  384MOL0     C51726  10.503   7.173   6.127  0.3666  0.3245  0.7770
  384MOL0     C51727  10.626   7.111   6.195  0.6110 -0.6291 -0.7225
  384MOL0     C51728  10.763   7.178   6.169  0.5453  0.1359  0.4078
  384MOL0     O51729  10.852   7.100   6.248 -0.1982 -0.7993 -0.0506
  384MOL0     C51730  10.984   7.124   6.259  0.5539 -0.2590  0.2563
  384MOL0     C51731  11.053   7.220   6.186 -0.8721  0.5118 -0.3377
  384MOL0     C51732  11.192   7.240   6.223  0.1912  1.0022  0.5649
  384MOL0     C51733  11.259   7.154   6.316 -0.7894  0.1696  0.8739
  384MOL0     C51734  11.404   7.163   6.339  0.2918  0.2671  0.4833
  384MOL0     O51735  11.452   7.280   6.290  0.1914 -0.2946 -0.1939
  384MOL0     C51736  11.572   7.336   6.305  0.0575 -0.2501 -0.1754
  384MOL0     C51737  11.673   7.305   6.401  0.7122  0.6474 -0.0702
  384MOL0     C51738  11.792   7.374   6.394 -0.7854  0.0556 -0.8425
  384MOL0     C51739  11.824   7.475   6.305  0.1525 -0.0070  0.7033
  384MOL0     O51740  11.938   7.552   6.324  0.2861  0.2879 -0.9080
  384MOL0     C51741  11.926   7.691   6.291  0.5905 -0.2842  0.3083
  384MOL0     C51742  12.033   7.773   6.348 -0.6953 -0.0961  0.0043
  384MOL0     C51743  12.180   7.724   6.314 -0.2980  0.0967 -0.4332
  384MOL0     C51744  12.275   7.836   6.357  0.8696 -0.0464 -0.1151
  384MOL0     C51745  12.321   7.921   6.239 -0.5832 -0.3900  0.0151
  384MOL0     C51746  12.453   7.870   6.170  0.3617 -0.3353  0.0193
  384MOL0     C51747  12.431   7.772   6.062 -0.6283  0.6898  0.2818
  384MOL0     C51748  12.551   7.692   5.996 -0.0364  0.6022 -0.0716
  384MOL0    Cl51749  12.657   7.804   5.901 -0.1273  0.4156 -0.2131
  384MOL0     C51750  11.718   7.497   6.212  0.2789 -0.7728 -0.0957
  384MOL0     C51751  11.600   7.430   6.209 -0.6327 -0.0139 -0.0167
  384MOL0     O51752  11.468   7.077   6.397  0.3636  0.5343  0.1183
  384MOL0     C51753  11.185   7.059   6.376  0.8322 -0.0475 -0.0048
  384MOL0     C51754  11.046   7.048   6.358 -0.3932  0.6196 -0.2188
  384MOL0     N51755  10.309   7.030   6.317  0.0128 -0.7342  0.0124
  384MOL0     N51756  10.283   6.933   6.400  0.1777 -0.5788 -0.2385
  384MOL0     C51757   9.403   6.241   6.731 -0.5378  0.2615  0.4585
  384MOL0     C51758   9.282   6.227   6.796 -0.5408  0.1315  0.1502
  384MOL0     C51759   8.899   6.008   6.956 -0.7748  0.2671 -0.2724
  384MOL0     C51760   8.932   5.941   7.076  0.2345  1.0948  0.2548
  384MOL0     C51761   8.834   5.888   7.151  0.1116  0.1924  0.4750
  384MOL0     C51762   8.703   5.894   7.114  0.1048 -0.1209 -0.1040
  384MOL0     O51763   8.595   5.846   7.190 -0.1841 -0.1330  0.1909
  384MOL0     C51764   8.617   5.756   7.303  0.2649 -0.3680  0.6426
  384MOL0     C51765   8.478   5.735   7.362 -0.2033 -0.8639  0.3714
  384MOL0     C51766   8.449   5.856   7.457  0.8773  0.1975  0.1651
  384MOL0     C51767   8.333   5.822   7.544 -0.4163  0.1054  0.3880
  384MOL0     C51768   8.211   5.808   7.456  0.9675 -0.1014 -0.2061
  384MOL0     C51769   8.109   5.804   7.388  0.3961 -0.0303 -0.0923
  384MOL0     C51770   8.667   5.946   6.985 -0.4200  0.2178 -0.0107
  384MOL0     C51771   8.767   5.997   6.903 -0.6546 -0.4772  0.9038
  384MOL0     C51772   8.725   6.033   6.764  0.6046 -0.4285 -0.1835
  384MOL0     H51773   9.305   5.895   6.867 -3.6693  0.2565  0.8146
  384MOL0     H51774   9.490   5.914   6.706 -1.0218 -0.6918  0.4428
  384MOL0     H51775   9.717   6.162   6.784 -1.4495  0.8371 -0.0491
  384MOL0     H51776   9.696   6.007   6.688  1.6562 -0.7626 -0.3558
  384MOL0     H51777   9.819   6.099   6.510 -3.0243 -3.8878  1.8983
  384MOL0     H51778   9.920   6.113   6.655 -0.1240  1.3806  2.1080
  384MOL0     H51779   9.848   6.345   6.705  1.0694 -0.2759 -0.0422
  384MOL0     H51780   9.771   6.347   6.537 -0.7372 -0.2609  0.2139
  384MOL0     H51781  10.053   6.307   6.624 -2.8921 -3.2878  0.3825
  384MOL0     H51782  10.001   6.284   6.455 -0.2221 -0.2384  0.0261
  384MOL0     H51783   9.916   6.537   6.475  0.2992 -1.7771 -0.5211
  384MOL0     H51784   9.995   6.536   6.624 -0.7358  1.7262  0.0045
  384MOL0     H51785  10.215   6.469   6.493  0.9625  1.0691 -0.0729
  384MOL0     H51786  10.123   6.468   6.344 -1.3687 -2.2310  0.8467
  384MOL0     H51787  10.138   6.699   6.534 -0.0333  1.0651 -0.6111
  384MOL0     H51788  10.066   6.713   6.381  0.1908  1.2453  0.4123
  384MOL0     H51789  10.363   6.677   6.469  0.3712 -1.7564  0.2555
  384MOL0     H51790  10.324   6.622   6.301  0.2376 -0.4158  0.0578
  384MOL0     H51791  10.387   6.784   6.118  1.6130  0.0033  0.2565
  384MOL0     H51792  10.432   7.015   5.999 -0.4742 -1.0595 -0.2631
  384MOL0     H51793  10.309   7.131   6.054 -0.1330  2.2802  3.1286
  384MOL0     H51794  10.530   7.227   6.036 -2.5225  1.2586  0.3727
  384MOL0     H51795  10.448   7.245   6.188 -1.2916  2.1179 -2.5281
  384MOL0     H51796  10.637   7.005   6.173 -2.5984 -1.7706  2.2612
  384MOL0     H51797  10.612   7.118   6.303  3.9967  0.9319 -0.2434
  384MOL0     H51798  10.766   7.281   6.204 -3.1131 -0.3553  2.7625
  384MOL0     H51799  10.778   7.176   6.061 -4.0301  0.5119 -0.4371
  384MOL0     H51800  11.006   7.292   6.120 -1.0446  1.4995  0.8218
  384MOL0     H51801  11.242   7.318   6.166 -0.2273  2.1906  1.7513
  384MOL0     H51802  11.662   7.230   6.478 -1.3899  0.8473 -0.1302
  384MOL0     H51803  11.863   7.357   6.474  0.5234  0.2115 -1.9305
  384MOL0     H51804  11.930   7.701   6.182  1.6762 -1.3814  0.2215
  384MOL0     H51805  11.832   7.727   6.334  0.7567 -1.9091  2.2092
  384MOL0     H51806  12.023   7.876   6.314 -1.8448  0.9063  3.0245
  384MOL0     H51807  12.022   7.767   6.457  2.1702  0.5987  0.4116
  384MOL0     H51808  12.202   7.633   6.371 -1.0460  1.1462  1.6416
  384MOL0     H51809  12.189   7.699   6.208  2.2374 -2.3599  0.2540
  384MOL0     H51810  12.368   7.807   6.407  1.0300  1.2920  0.3841
  384MOL0     H51811  12.216   7.901   6.422 -0.6227 -0.5840 -0.8735
  384MOL0     H51812  12.357   8.015   6.282  0.9338 -0.4315 -1.0957
  384MOL0     H51813  12.245   7.944   6.164 -0.9698 -0.0389  0.5039
  384MOL0     H51814  12.498   7.959   6.126 -0.6383 -1.1861 -2.9306
  384MOL0     H51815  12.516   7.826   6.248  2.1630  0.7519 -0.7635
  384MOL0     H51816  12.364   7.818   5.989 -0.2022  1.1963  0.2012
  384MOL0     H51817  12.369   7.689   6.099  0.0836 -0.5182 -1.1636
  384MOL0     H51818  12.606   7.656   6.083 -1.1312  1.9581  1.2426
  384MOL0     H51819  12.514   7.612   5.931 -0.5625 -2.6382  3.7967
  384MOL0     H51820  11.725   7.587   6.152 -0.9195 -0.6942 -0.1334
  384MOL0     H51821  11.530   7.462   6.132  2.0618 -0.1018 -2.6920
  384MOL0     H51822  11.234   7.008   6.459  1.9409 -1.2462 -1.3482
  384MOL0     H51823  10.985   6.984   6.421 -0.3690 -1.5287 -2.2186
  384MOL0     H51824   9.454   6.329   6.691 -0.2632 -0.6584 -1.3488
  384MOL0     H51825   9.219   6.311   6.826 -0.7635  1.5195 -3.7450
  384MOL0     H51826   9.034   5.917   7.100  0.7595  2.2714 -0.6756
  384MOL0     H51827   8.864   5.838   7.242  0.1442 -0.5648  0.0554
  384MOL0     H51828   8.693   5.794   7.372 -0.3644 -0.2224  1.2729
  384MOL0     H51829   8.649   5.657   7.270 -3.0122 -1.1866 -0.5735
  384MOL0     H51830   8.470   5.637   7.411  1.5672 -0.3151  1.8456
  384MOL0     H51831   8.399   5.739   7.287 -0.9942 -0.0585  1.2093
  384MOL0     H51832   8.425   5.942   7.394 -2.5561 -0.5586  0.2631
  384MOL0     H51833   8.537   5.875   7.520  0.4814  2.0811  0.1818
  384MOL0     H51834   8.355   5.736   7.608 -2.3995 -0.8136 -0.1056
  384MOL0     H51835   8.309   5.902   7.615 -0.7575 -0.4913  0.9570
  384MOL0     H51836   8.021   5.806   7.326  0.3378 -1.6555 -0.1011
  384MOL0     H51837   8.562   5.939   6.959 -0.8032 -0.1757  1.5757
  384MOL0     H51838   8.736   6.140   6.747 -0.1551 -0.7368 -3.1150
  384MOL0     H51839   8.795   5.988   6.692 -0.8095 -1.2518 -1.0848
  384MOL0     H51840   8.624   6.001   6.740  0.4005  0.3270 -0.3590
  385MOL0     O51841   9.928   1.854   9.600 -0.4097  0.5517 -0.7013
  385MOL0     C51842   9.837   1.796   9.542  0.4039 -0.7193  0.1570
  385MOL0     O51843   9.853   1.706   9.440 -0.3192  0.2817 -0.1736
  385MOL0     C51844   9.984   1.667   9.405  0.2659  0.1980  0.5851
  385MOL0     C51845  10.056   1.595   9.496 -0.3064  0.5567 -0.4203
  385MOL0     C51846  10.191   1.560   9.472  0.1454  0.4777 -0.0817
  385MOL0     C51847  10.260   1.605   9.363 -0.5570 -0.4776  0.1919
  385MOL0     O51848  10.396   1.590   9.349  0.4360  0.2456  0.9333
  385MOL0     C51849  10.460   1.624   9.229 -0.4952 -0.2872 -0.2252
  385MOL0     C51850  10.579   1.530   9.206  0.1531  0.9557 -0.2461
  385MOL0     C51851  10.676   1.521   9.329  0.4163 -0.4848 -0.6521
  385MOL0     C51852  10.784   1.636   9.354 -0.2631  0.2281 -0.1157
  385MOL0     C51853  10.833   1.691   9.216 -0.0347  0.3716  0.3118
  385MOL0     C51854  10.938   1.806   9.242 -0.4178  0.4152  0.0512
  385MOL0     C51855  11.069   1.743   9.311  0.5608  0.7359  0.1569
  385MOL0     C51856  11.155   1.676   9.208 -0.6171  0.3977 -0.4811
  385MOL0     N51857  11.259   1.593   9.276  0.3447 -0.1905 -0.0656
  385MOL0     C51858  11.371   1.653   9.326  0.0954  0.0388 -0.4557
  385MOL0     C51859  11.444   1.560   9.388 -0.4746  0.8338 -0.2892
  385MOL0     C51860  11.572   1.583   9.464 -0.1144  0.7563 -1.1457
  385MOL0     C51861  11.645   1.450   9.508 -1.1543 -0.3897  0.1012
  385MOL0     C51862  11.785   1.475   9.566 -0.1401  0.4534 -0.2001
  385MOL0     C51863  11.863   1.345   9.594 -0.2238 -0.1738  0.4873
  385MOL0     O51864  11.951   1.301   9.483 -0.4608  0.0485  0.4049
  385MOL0     C51865  12.074   1.357   9.451  0.3633  0.0616  0.5949
  385MOL0     C51866  12.129   1.459   9.523  0.8460 -0.0505 -0.2175
  385MOL0     C51867  12.260   1.500   9.489 -0.3540  0.0952 -0.1830
  385MOL0     C51868  12.330   1.445   9.375 -1.0137  0.3871  0.4034
  385MOL0     C51869  12.462   1.488   9.326  0.4818  0.2124  0.3920
  385MOL0     O51870  12.524   1.590   9.394 -0.4455 -0.0848 -0.0004
  385MOL0     C51871  12.639   1.649   9.348 -0.0462 -0.6370  0.1568
  385MOL0     C51872  12.762   1.566   9.359  0.2349 -0.1375  0.0580
  385MOL0     C51873  12.886   1.624   9.334  0.6969 -0.4277  0.2442
  385MOL0     C51874  12.900   1.749   9.271  0.4774 -0.1409  0.1808
  385MOL0     O51875  13.032   1.790   9.239  0.7278 -0.6277 -0.2373
  385MOL0     C51876  13.022   1.914   9.155  0.2278 -0.6417 -0.1074
  385MOL0     C51877  13.162   1.959   9.142  0.8774  0.3862  0.0304
  385MOL0     C51878  13.210   2.013   9.275  0.1192 -0.6101 -0.1696
  385MOL0     C51879  13.359   2.049   9.274 -0.4873 -0.1319  0.1307
  385MOL0     C51880  13.445   2.006   9.397 -0.8186  0.8772  0.2015
  385MOL0     C51881  13.596   2.011   9.365 -0.5033 -0.2627  0.5735
  385MOL0     C51882  13.681   1.988   9.484  0.1406  0.8335  0.4222
  385MOL0     C51883  13.693   2.108   9.574  0.3951  0.1087  0.8680
  385MOL0    Cl51884  13.830   2.083   9.691 -0.0418  0.0243 -0.0313
  385MOL0     C51885  12.772   1.816   9.245  2.0907 -0.4204 -0.5516
  385MOL0     C51886  12.638   1.775   9.293 -0.5701 -0.3668  0.1695
  385MOL0     O51887  12.503   1.437   9.221 -0.6274 -0.7374  0.3237
  385MOL0     C51888  12.268   1.333   9.309 -0.3916 -0.3212  0.2653
  385MOL0     C51889  12.142   1.294   9.349 -0.9332  1.0014 -0.8673
  385MOL0     N51890  11.391   1.435   9.367 -0.2669  0.2769  0.4562
  385MOL0     N51891  11.273   1.455   9.305 -0.3760 -1.5469 -0.3459
  385MOL0     C51892  10.180   1.677   9.266  0.3894  0.7636  0.2450
  385MOL0     C51893  10.039   1.694   9.285 -0.5132  0.7051  0.6400
  385MOL0     C51894   9.699   1.789   9.595  0.3522 -0.0343  0.3171
  385MOL0     C51895   9.592   1.752   9.505  0.6882 -0.7156 -0.1980
  385MOL0     C51896   9.461   1.768   9.552 -0.1499  0.6748  0.0334
  385MOL0     C51897   9.432   1.796   9.677  0.1486 -0.9757  0.5243
  385MOL0     O51898   9.305   1.812   9.718  0.7043 -0.0022  0.3769
  385MOL0     C51899   9.226   1.697   9.761  0.5213  0.2203 -0.4185
  385MOL0     C51900   9.102   1.755   9.836  0.1226  0.1442 -0.7120
  385MOL0     C51901   9.139   1.833   9.963 -0.5056  0.2591  0.1191
  385MOL0     C51902   9.187   1.741  10.069  0.1902 -0.5005  0.3745
  385MOL0     C51903   9.091   1.655  10.136  0.9792  0.3683  0.0373
  385MOL0     C51904   9.016   1.580  10.208 -0.1064  0.0180 -0.4138
  385MOL0     C51905   9.531   1.820   9.767 -0.1326 -0.0376 -0.1730
  385MOL0     C51906   9.667   1.807   9.732  0.5355 -0.6964 -0.1453
  385MOL0     C51907   9.773   1.816   9.835  0.2283  0.1452 -0.2325
  385MOL0     H51908  10.017   1.568   9.593 -1.8174  2.6589 -0.3669
  385MOL0     H51909  10.243   1.508   9.552 -2.7025 -1.2211  0.8135
  385MOL0     H51910  10.402   1.609   9.137  0.7234  0.3273 -1.1288
  385MOL0     H51911  10.488   1.730   9.226  0.7552 -0.6259 -1.7841
  385MOL0     H51912  10.629   1.560   9.113 -1.2261  0.0999 -1.3088
  385MOL0     H51913  10.541   1.433   9.173 -1.2397  1.5259 -0.3653
  385MOL0     H51914  10.748   1.441   9.312  4.7811  2.1410  3.1515
  385MOL0     H51915  10.620   1.502   9.421 -0.5021  0.4272 -0.9979
  385MOL0     H51916  10.743   1.722   9.408  1.3364  1.2335 -0.4472
  385MOL0     H51917  10.860   1.600   9.424  1.1842  4.2153  0.6270
  385MOL0     H51918  10.876   1.610   9.157 -0.8786  1.8701 -2.5583
  385MOL0     H51919  10.755   1.738   9.155  1.2977  1.8902 -0.3003
  385MOL0     H51920  10.975   1.846   9.147 -1.0206  0.8003 -0.0291
  385MOL0     H51921  10.894   1.884   9.304  2.9832 -1.1745  5.0753
  385MOL0     H51922  11.046   1.674   9.392 -2.9692 -0.1668 -1.4207
  385MOL0     H51923  11.126   1.819   9.365  0.2949 -0.7145  2.6286
  385MOL0     H51924  11.102   1.605   9.144  0.3183 -1.6703  0.8932
  385MOL0     H51925  11.210   1.755   9.157  0.9746 -0.2237  0.2085
  385MOL0     H51926  11.398   1.758   9.330  0.6055 -0.0610 -1.1042
  385MOL0     H51927  11.635   1.636   9.392 -0.4731  0.7541 -1.4587
  385MOL0     H51928  11.539   1.637   9.554 -0.4039  0.4475 -1.0656
  385MOL0     H51929  11.590   1.404   9.591  1.3588 -2.9682  0.5156
  385MOL0     H51930  11.639   1.386   9.419 -1.4646 -0.3988  0.1274
  385MOL0     H51931  11.778   1.535   9.658  0.6111  0.8839 -0.4186
  385MOL0     H51932  11.835   1.541   9.496 -0.8138 -0.7451 -1.8700
  385MOL0     H51933  11.792   1.263   9.605  1.5907 -2.4907 -3.1804
  385MOL0     H51934  11.925   1.350   9.685 -1.7710  0.1829  1.5671
  385MOL0     H51935  12.075   1.502   9.608  0.2727 -0.9700 -0.1042
  385MOL0     H51936  12.302   1.580   9.548 -2.1102 -0.1205  1.4681
  385MOL0     H51937  12.761   1.467   9.402 -0.7690 -0.4933 -0.7530
  385MOL0     H51938  12.959   1.546   9.355 -0.3700 -0.8785  2.5925
  385MOL0     H51939  12.976   1.897   9.057 -0.3524 -1.7512  0.3415
  385MOL0     H51940  12.971   1.987   9.219  2.5663 -0.5833  1.8134
  385MOL0     H51941  13.229   1.879   9.109 -0.4682 -0.7117 -0.1439
  385MOL0     H51942  13.175   2.041   9.071 -1.6167 -1.8547 -3.3207
  385MOL0     H51943  13.155   2.102   9.307  3.0511  2.1044 -2.0131
  385MOL0     H51944  13.192   1.941   9.355  0.3531  1.2875  1.6990
  385MOL0     H51945  13.364   2.158   9.263 -0.5961 -0.0084  1.1986
  385MOL0     H51946  13.404   2.002   9.186 -1.2171 -2.0533  0.7465
  385MOL0     H51947  13.419   1.905   9.430  2.3271 -0.7388 -1.7825
  385MOL0     H51948  13.424   2.066   9.486 -3.3803  0.9434 -0.3849
  385MOL0     H51949  13.627   1.933   9.295  1.2399  1.9707 -1.2961
  385MOL0     H51950  13.615   2.107   9.318 -1.3316 -0.9095 -1.1653
  385MOL0     H51951  13.785   1.964   9.459  0.0652  0.4043  0.5107
  385MOL0     H51952  13.641   1.897   9.530 -3.0252  1.3812 -0.9795
  385MOL0     H51953  13.698   2.207   9.526  0.2871  0.1907  1.0262
  385MOL0     H51954  13.601   2.113   9.633  0.2224  0.8392  0.5479
  385MOL0     H51955  12.768   1.912   9.194 -3.8091 -0.8547 -1.6786
  385MOL0     H51956  12.550   1.834   9.269 -1.8176 -2.0110  0.4608
  385MOL0     H51957  12.316   1.277   9.230 -2.0734 -1.1668 -0.1946
  385MOL0     H51958  12.089   1.217   9.295 -2.2550  0.1303  1.5259
  385MOL0     H51959  10.221   1.713   9.172  0.0778 -0.5953 -0.4355
  385MOL0     H51960   9.984   1.739   9.203 -0.9130  3.6854  2.3794
  385MOL0     H51961   9.600   1.722   9.401 -0.0582 -2.0510  0.1070
  385MOL0     H51962   9.381   1.739   9.486  1.0232 -0.1822 -1.0460
  385MOL0     H51963   9.290   1.629   9.819  0.3673  0.2822 -0.1749
  385MOL0     H51964   9.187   1.648   9.672 -0.0362 -1.2168  0.5716
  385MOL0     H51965   9.031   1.677   9.866 -1.0865  0.8767 -1.5930
  385MOL0     H51966   9.048   1.827   9.775 -0.6601  1.1133  1.0309
  385MOL0     H51967   9.053   1.890  10.000 -0.7941 -0.9727  1.4394
  385MOL0     H51968   9.216   1.905   9.935  0.8732 -1.5527 -0.9789
  385MOL0     H51969   9.258   1.670  10.027 -0.2391 -0.6802 -0.0515
  385MOL0     H51970   9.236   1.798  10.149  0.9327 -0.7785  0.1256
  385MOL0     H51971   8.970   1.513  10.278 -1.1730  0.4674 -0.6577
  385MOL0     H51972   9.501   1.837   9.869 -2.9870 -0.6730 -0.8242
  385MOL0     H51973   9.843   1.733   9.825 -0.7182 -0.5309 -1.5533
  385MOL0     H51974   9.837   1.904   9.824  2.7885 -1.1911  2.5981
  385MOL0     H51975   9.726   1.807   9.933 -2.4986  0.0672 -1.4552
  386MOL0     O51976   4.370  11.064   5.858 -0.1857 -0.5895 -0.5669
  386MOL0     C51977   4.328  11.111   5.747  0.1765  0.1149 -1.1211
  386MOL0     O51978   4.406  11.174   5.660 -0.1631  0.1457 -0.2496
  386MOL0     C51979   4.542  11.190   5.683 -0.5404  0.4710  1.0103
  386MOL0     C51980   4.590  11.259   5.790 -0.3866 -0.2545  0.2623
  386MOL0     C51981   4.726  11.275   5.809 -0.3102 -0.0165 -0.3921
  386MOL0     C51982   4.815  11.201   5.733 -0.4828  1.1067 -0.1340
  386MOL0     O51983   4.954  11.209   5.731 -0.1340 -0.5349 -0.2460
  386MOL0     C51984   5.023  11.253   5.852 -0.4542 -0.2828 -0.0456
  386MOL0     C51985   5.170  11.218   5.829  0.1481  0.1712 -0.0453
  386MOL0     C51986   5.263  11.226   5.962 -0.0993  0.5962  0.0564
  386MOL0     C51987   5.405  11.182   5.931 -0.1167  1.1803 -0.0408
  386MOL0     C51988   5.493  11.166   6.056  0.4949 -0.5870  0.1012
  386MOL0     C51989   5.638  11.177   6.007  0.2516 -0.3836  0.9558
  386MOL0     C51990   5.746  11.158   6.115 -0.1410  0.8170 -0.2727
  386MOL0     C51991   5.879  11.133   6.039 -0.3227  0.0819  0.5994
  386MOL0     N51992   5.999  11.145   6.127 -0.3098  0.2906 -0.4570
  386MOL0     C51993   6.051  11.048   6.217 -0.3606 -0.3405  0.9947
  386MOL0     C51994   6.176  11.088   6.248 -0.5800 -0.1459  0.0386
  386MOL0     C51995   6.261  11.010   6.342  0.0407  0.7642 -0.6897
  386MOL0     C51996   6.403  11.042   6.314  0.6102 -0.0316 -0.5206
  386MOL0     C51997   6.491  10.939   6.397  0.0508 -0.3982  0.0460
  386MOL0     C51998   6.642  10.974   6.390  0.6596 -0.0509 -0.3283
  386MOL0     O51999   6.664  11.099   6.455 -0.1785  0.1034 -0.2376
  386MOL0     C52000   6.788  11.142   6.477  0.2742  0.6998 -0.1017
  386MOL0     C52001   6.902  11.082   6.427 -0.3788 -0.2072  0.0959
  386MOL0     C52002   7.028  11.129   6.451 -0.0605  0.1156 -0.5882
  386MOL0     C52003   7.037  11.228   6.552 -0.0181 -0.6268 -0.0998
  386MOL0     C52004   7.167  11.269   6.607  0.7488  0.4737 -0.5342
  386MOL0     O52005   7.169  11.316   6.739  0.6768  0.4494  0.6642
  386MOL0     C52006   7.280  11.338   6.812  0.8849  0.2987  0.0507
  386MOL0     C52007   7.263  11.396   6.938 -0.2252  0.1961 -0.4697
  386MOL0     C52008   7.368  11.432   7.022 -0.7986 -0.4855 -0.3188
  386MOL0     C52009   7.503  11.406   6.988  0.7742  0.5102  0.2486
  386MOL0     O52010   7.623  11.434   7.056  0.0290 -0.0188 -0.2520
  386MOL0     C52011   7.609  11.501   7.187 -0.3677  0.0568 -0.4475
  386MOL0     C52012   7.728  11.596   7.195 -0.0520  0.0187  0.3711
  386MOL0     C52013   7.858  11.515   7.192 -0.6874  0.5441  0.0553
  386MOL0     C52014   7.989  11.601   7.162 -0.5486  0.9430 -0.1638
  386MOL0     C52015   8.105  11.514   7.180  0.2156  0.6921 -0.8279
  386MOL0     C52016   8.235  11.581   7.129 -0.0033  0.9100  0.6324
  386MOL0     C52017   8.357  11.481   7.124  0.3027  0.1502 -0.0753
  386MOL0     C52018   8.489  11.542   7.081  0.4120 -0.2922 -1.4955
  386MOL0    Cl52019   8.616  11.545   7.210 -0.0377 -0.2765  0.4654
  386MOL0     C52020   7.518  11.355   6.864 -0.4914  0.2918  0.2975
  386MOL0     C52021   7.417  11.329   6.778  0.2075  0.0422  0.3052
  386MOL0     O52022   7.258  11.272   6.532 -0.0226  0.3069 -0.2368
  386MOL0     C52023   6.923  11.290   6.604  0.1807  0.7366 -0.5585
  386MOL0     C52024   6.799  11.243   6.568  0.5404 -0.0292 -1.1142
  386MOL0     N52025   6.205  11.208   6.186 -0.2202  0.2049  0.2612
  386MOL0     N52026   6.094  11.242   6.116 -0.0465 -0.7782 -0.9179
  386MOL0     C52027   4.762  11.118   5.627 -0.1581 -0.6798 -0.5672
  386MOL0     C52028   4.629  11.120   5.598  0.0729 -0.1370 -0.4202
  386MOL0     C52029   4.189  11.083   5.696 -0.7595  0.6891  0.6795
  386MOL0     C52030   4.160  11.104   5.560  0.3630  0.8504  0.2888
  386MOL0     C52031   4.036  11.076   5.508  0.2879  0.2028 -0.1457
  386MOL0     C52032   3.942  11.020   5.589 -0.5791  0.2149 -0.1914
  386MOL0     O52033   3.821  10.982   5.528  0.5053 -0.1822 -0.0982
  386MOL0     C52034   3.709  10.928   5.604 -1.0391 -0.0090 -0.7395
  386MOL0     C52035   3.585  10.941   5.512  0.0442 -0.5112 -0.4036
  386MOL0     C52036   3.469  10.875   5.571  1.0030 -0.3647 -0.9413
  386MOL0     C52037   3.332  10.910   5.501  0.9761 -0.0680  0.5175
  386MOL0     C52038   3.326  10.851   5.367  0.0263 -0.9453 -0.5181
  386MOL0     C52039   3.311  10.815   5.250 -0.0169 -0.3184  0.0438
  386MOL0     C52040   3.969  10.995   5.719  0.2125  0.0323  0.1928
  386MOL0     C52041   4.088  11.025   5.777  0.4415  0.2332  0.3469
  386MOL0     C52042   4.110  10.987   5.919  0.3435  0.2458 -0.3344
  386MOL0     H52043   4.511  11.300   5.852 -0.4443 -3.6608  2.7900
  386MOL0     H52044   4.766  11.349   5.877 -0.0909  2.2039 -2.7999
  386MOL0     H52045   5.019  11.360   5.875 -2.2934  0.0459 -1.6197
  386MOL0     H52046   4.987  11.199   5.940 -1.0522 -0.7233 -0.5458
  386MOL0     H52047   5.210  11.289   5.756  1.3056  0.1450  0.5423
  386MOL0     H52048   5.172  11.121   5.778 -0.5632 -0.0436  0.3229
  386MOL0     H52049   5.225  11.166   6.045  2.5003  0.3399  1.1535
  386MOL0     H52050   5.265  11.329   5.999 -0.3929  1.2058 -1.5175
  386MOL0     H52051   5.412  11.093   5.869 -0.8421 -0.3331  1.9413
  386MOL0     H52052   5.436  11.267   5.870  0.5570 -0.7844 -2.6148
  386MOL0     H52053   5.478  11.242   6.133  0.9784 -0.7953  0.4121
  386MOL0     H52054   5.479  11.065   6.097 -0.6558 -1.2339 -1.7638
  386MOL0     H52055   5.643  11.106   5.924  0.0922  1.2847 -0.5317
  386MOL0     H52056   5.646  11.280   5.973  0.2908 -0.6468  0.1366
  386MOL0     H52057   5.719  11.071   6.176  2.8927  0.1307  0.2753
  386MOL0     H52058   5.751  11.243   6.184 -0.1171 -0.3147  1.1891
  386MOL0     H52059   5.870  11.035   5.990  1.0017  0.7822 -1.1471
  386MOL0     H52060   5.876  11.202   5.954 -2.4321 -0.8899 -0.2003
  386MOL0     H52061   5.999  10.958   6.244  0.5276 -1.1726  0.0251
  386MOL0     H52062   6.234  11.035   6.445  0.6600  2.2800 -0.8701
  386MOL0     H52063   6.248  10.904   6.319  0.7519  0.5219 -0.0302
  386MOL0     H52064   6.414  11.022   6.207 -0.0967 -0.3008 -0.5442
  386MOL0     H52065   6.419  11.145   6.347  2.1284 -0.6605  0.8367
  386MOL0     H52066   6.468  10.835   6.374  0.4026 -0.2071 -1.2149
  386MOL0     H52067   6.454  10.942   6.500 -0.0102  0.1368  0.0116
  386MOL0     H52068   6.663  10.966   6.284 -3.0927 -0.4800 -1.2003
  386MOL0     H52069   6.703  10.896   6.437  0.0610 -1.1546 -1.3436
  386MOL0     H52070   6.890  10.993   6.365 -1.6105 -0.5113  0.7430
  386MOL0     H52071   7.115  11.084   6.406  0.0870 -1.1842  0.9116
  386MOL0     H52072   7.165  11.424   6.975  0.1455 -0.6425  1.2571
  386MOL0     H52073   7.352  11.482   7.117  4.3640 -1.2099  1.2484
  386MOL0     H52074   7.521  11.562   7.209  0.3267  0.2571  2.1357
  386MOL0     H52075   7.616  11.434   7.273 -1.4703  3.9591  3.0047
  386MOL0     H52076   7.723  11.658   7.106 -3.2836  0.7538  0.9269
  386MOL0     H52077   7.704  11.659   7.282  0.6029  0.1788  0.4366
  386MOL0     H52078   7.877  11.474   7.292  0.5755  3.7355  1.2928
  386MOL0     H52079   7.856  11.431   7.122 -1.3984 -0.2144  0.9582
  386MOL0     H52080   8.007  11.686   7.228  1.4387  1.9401 -1.8611
  386MOL0     H52081   7.977  11.635   7.059 -2.3691 -1.5043 -0.8421
  386MOL0     H52082   8.098  11.426   7.115  0.9285 -1.8190  2.2190
  386MOL0     H52083   8.113  11.480   7.284  1.9444 -0.1342 -1.1921
  386MOL0     H52084   8.209  11.616   7.028  1.4007 -0.3155 -0.1838
  386MOL0     H52085   8.257  11.667   7.193  1.1105 -0.3688  2.0250
  386MOL0     H52086   8.331  11.407   7.048 -2.3873  1.8680 -0.9453
  386MOL0     H52087   8.366  11.433   7.222 -1.8274  0.8034  0.4851
  386MOL0     H52088   8.521  11.489   6.991  1.7637 -1.2998 -0.4399
  386MOL0     H52089   8.472  11.645   7.047  1.1990 -0.0310 -1.1171
  386MOL0     H52090   7.618  11.332   6.828 -1.1097 -1.3555 -0.4184
  386MOL0     H52091   7.452  11.299   6.680  0.4581  2.3119 -0.3495
  386MOL0     H52092   6.934  11.366   6.680  0.6854 -2.2118  2.5602
  386MOL0     H52093   6.712  11.283   6.619 -0.3825 -2.4990 -0.6263
  386MOL0     H52094   4.818  11.049   5.564  0.2841 -1.1177  0.2862
  386MOL0     H52095   4.592  11.067   5.511  2.3446  0.0416 -1.5468
  386MOL0     H52096   4.225  11.153   5.488 -1.0025  0.6016 -1.1956
  386MOL0     H52097   4.021  11.101   5.404  2.8867 -3.0413 -1.4806
  386MOL0     H52098   3.689  10.982   5.696  0.5290 -0.3116 -0.1870
  386MOL0     H52099   3.742  10.827   5.630  0.0040 -0.0265 -1.9856
  386MOL0     H52100   3.615  10.898   5.416  0.3919 -0.1527 -0.4572
  386MOL0     H52101   3.575  11.050   5.507  1.9469  0.0021  3.1915
  386MOL0     H52102   3.461  10.900   5.677  0.4128  1.9956 -1.4897
  386MOL0     H52103   3.494  10.769   5.571  1.2853 -0.4611  2.9404
  386MOL0     H52104   3.249  10.872   5.561 -0.5714  0.6117 -1.0599
  386MOL0     H52105   3.322  11.019   5.494 -1.0499 -0.2029  0.6523
  386MOL0     H52106   3.304  10.801   5.144  1.2557 -0.1138 -0.0801
  386MOL0     H52107   3.898  10.944   5.782  1.6441  0.4395  2.2490
  386MOL0     H52108   4.113  11.062   5.999 -1.4382  1.5876 -1.4424
  386MOL0     H52109   4.031  10.921   5.956  0.1067  0.5528 -0.2904
  386MOL0     H52110   4.198  10.922   5.909 -1.2907 -1.9887 -1.0936
  387MOL0     O52111   9.315   2.464  10.861 -0.2638  0.1846  0.0872
  387MOL0     C52112   9.224   2.386  10.847  0.4487 -0.3718  0.6647
  387MOL0     O52113   9.233   2.258  10.820  1.0669  0.3536 -0.1295
  387MOL0     C52114   9.359   2.199  10.812  0.3929  0.0924 -0.1735
  387MOL0     C52115   9.431   2.196  10.693 -0.5513 -0.9765  0.2520
  387MOL0     C52116   9.553   2.124  10.678 -0.0916  0.0396 -0.0665
  387MOL0     C52117   9.615   2.066  10.781  0.2271  0.9442  0.1433
  387MOL0     O52118   9.741   2.012  10.764 -0.0664 -0.0452  0.1258
  387MOL0     C52119   9.790   1.922  10.863 -0.4085 -0.5134  0.1096
  387MOL0     C52120   9.932   1.875  10.836  0.5311 -0.7201 -0.1953
  387MOL0     C52121   9.981   1.753  10.920 -0.7594 -0.5190 -0.1591
  387MOL0     C52122  10.135   1.737  10.899  0.0524  0.5103 -0.1528
  387MOL0     C52123  10.178   1.607  10.968  0.0880 -0.2866 -0.6186
  387MOL0     C52124  10.330   1.589  10.955  0.1061 -0.0367 -0.4838
  387MOL0     C52125  10.385   1.439  10.961  0.3119 -0.3601  0.0173
  387MOL0     C52126  10.383   1.378  11.103 -0.0205 -0.4515 -0.2129
  387MOL0     N52127  10.489   1.441  11.186  0.1453 -0.0273  0.1436
  387MOL0     C52128  10.622   1.414  11.198  0.7999  0.0946 -0.2874
  387MOL0     C52129  10.658   1.486  11.311  0.0711 -0.3470 -0.7242
  387MOL0     C52130  10.803   1.493  11.360  0.0973 -0.1824 -0.2427
  387MOL0     C52131  10.859   1.349  11.363  1.3305  0.4327 -0.3731
  387MOL0     C52132  10.991   1.341  11.439 -0.2451 -0.2841 -0.5368
  387MOL0     C52133  11.105   1.328  11.334 -0.0581 -0.6467  0.8208
  387MOL0     O52134  11.232   1.296  11.402  0.1502  0.3708  0.2261
  387MOL0     C52135  11.300   1.180  11.364 -0.2841 -0.4124 -0.3393
  387MOL0     C52136  11.237   1.059  11.323 -0.2188 -0.2846  0.5279
  387MOL0     C52137  11.310   0.949  11.269 -0.0637 -0.1178  0.6673
  387MOL0     C52138  11.453   0.957  11.268 -0.2665  0.2901  0.5034
  387MOL0     C52139  11.543   0.846  11.227  0.1501  1.0708 -0.1324
  387MOL0     O52140  11.671   0.872  11.194 -0.0154  0.3597 -0.0578
  387MOL0     C52141  11.762   0.782  11.133 -0.1135 -0.4194 -0.7209
  387MOL0     C52142  11.732   0.664  11.070  0.1882 -1.6666  0.2099
  387MOL0     C52143  11.822   0.583  11.000  0.1353 -0.0369  0.6105
  387MOL0     C52144  11.960   0.630  10.989  0.6593  1.4176 -0.3038
  387MOL0     O52145  12.051   0.564  10.906 -0.6592 -0.6582 -0.2980
  387MOL0     C52146  12.157   0.636  10.845  0.1267 -0.0099 -0.7128
  387MOL0     C52147  12.283   0.600  10.923 -0.2103  0.3164 -0.7584
  387MOL0     C52148  12.415   0.665  10.870 -0.0196  0.3397  0.1844
  387MOL0     C52149  12.498   0.582  10.769 -0.9018 -0.2579  0.6462
  387MOL0     C52150  12.625   0.655  10.728  0.2375  0.2385 -0.0095
  387MOL0     C52151  12.724   0.551  10.669 -0.2476  0.2102 -0.3499
  387MOL0     C52152  12.686   0.495  10.535 -0.4979  0.1558 -0.4423
  387MOL0     C52153  12.795   0.397  10.489 -0.2651 -0.1907  0.2163
  387MOL0    Cl52154  12.967   0.459  10.470  0.4410 -0.3257  0.1210
  387MOL0     C52155  11.996   0.744  11.061 -0.9228  1.0694  0.1380
  387MOL0     C52156  11.901   0.821  11.127  0.2835  0.3014  0.6502
  387MOL0     O52157  11.495   0.730  11.234 -0.3366  0.1048 -0.5599
  387MOL0     C52158  11.512   1.074  11.321  0.4689 -0.9346  0.7620
  387MOL0     C52159  11.438   1.180  11.369  0.2571 -0.3918 -0.3669
  387MOL0     N52160  10.545   1.542  11.370 -0.2236  0.5222 -0.3409
  387MOL0     N52161  10.450   1.528  11.283  0.6587  0.3884 -0.0088
  387MOL0     C52162   9.540   2.059  10.901 -0.0700 -0.1057 -0.4378
  387MOL0     C52163   9.410   2.122  10.918 -0.1597 -0.9055  0.3491
  387MOL0     C52164   9.087   2.443  10.856 -0.7898 -0.4066 -0.4397
  387MOL0     C52165   8.980   2.349  10.837 -0.6613  0.0995  0.3320
  387MOL0     C52166   8.849   2.383  10.836 -0.4471  0.0316 -0.4944
  387MOL0     C52167   8.811   2.518  10.849  0.4245 -0.0780 -0.4228
  387MOL0     O52168   8.678   2.549  10.838  0.4795 -0.0492 -0.2600
  387MOL0     C52169   8.632   2.684  10.833 -0.5200  0.4809  0.2994
  387MOL0     C52170   8.503   2.697  10.750 -1.0627  0.9857  0.9144
  387MOL0     C52171   8.375   2.652  10.824 -1.0019 -0.9503  0.1147
  387MOL0     C52172   8.237   2.674  10.754  0.3679 -0.2418  0.6924
  387MOL0     C52173   8.129   2.669  10.850 -0.0322 -0.3926  0.6476
  387MOL0     C52174   8.031   2.651  10.914  0.5054  0.9265  0.2670
  387MOL0     C52175   8.910   2.613  10.881 -0.9047  0.6662 -0.4559
  387MOL0     C52176   9.050   2.578  10.883  0.6128  0.1156  0.6941
  387MOL0     C52177   9.150   2.679  10.928  0.4293  0.3541  0.6393
  387MOL0     H52178   9.409   2.265  10.612 -0.8504  1.4043  2.2292
  387MOL0     H52179   9.611   2.129  10.586  1.2514 -2.2866  0.5601
  387MOL0     H52180   9.806   1.977  10.956 -0.6076 -0.9538  0.4086
  387MOL0     H52181   9.723   1.836  10.876  1.7950 -2.3124  0.2669
  387MOL0     H52182   9.987   1.960  10.876 -2.1888  1.2482 -0.3630
  387MOL0     H52183   9.949   1.868  10.728  0.5319 -1.5278 -0.1541
  387MOL0     H52184   9.930   1.658  10.902 -0.9525 -0.2578 -1.0198
  387MOL0     H52185   9.968   1.766  11.028  2.5857 -0.0486  0.2797
  387MOL0     H52186  10.164   1.737  10.794 -0.6575  0.9996 -0.3584
  387MOL0     H52187  10.176   1.826  10.948 -0.5430  2.0976 -2.3985
  387MOL0     H52188  10.155   1.609  11.075  0.0679  1.3213 -0.6377
  387MOL0     H52189  10.132   1.519  10.921  1.2620 -0.8762 -0.7294
  387MOL0     H52190  10.359   1.628  10.857  1.5578  1.8834  0.6417
  387MOL0     H52191  10.379   1.656  11.025  3.1881 -2.7085  0.1599
  387MOL0     H52192  10.486   1.421  10.924 -0.3869 -0.3465 -2.0117
  387MOL0     H52193  10.325   1.372  10.898 -2.9658 -0.9925  3.3810
  387MOL0     H52194  10.282   1.394  11.142 -0.2495 -0.4935 -0.7863
  387MOL0     H52195  10.409   1.272  11.099  1.0405 -0.1698 -1.5177
  387MOL0     H52196  10.698   1.375  11.131  1.5147 -0.0816  0.6036
  387MOL0     H52197  10.861   1.540  11.280 -3.1697 -0.9145 -3.3060
  387MOL0     H52198  10.801   1.554  11.451 -1.8559 -0.4206 -0.0899
  387MOL0     H52199  10.780   1.301  11.421 -2.0381  1.2023 -3.9518
  387MOL0     H52200  10.855   1.307  11.263  3.8885 -0.1399 -0.3201
  387MOL0     H52201  11.004   1.261  11.512  0.8112  1.1561  0.9453
  387MOL0     H52202  11.008   1.432  11.498 -2.0027 -0.4673  0.2986
  387MOL0     H52203  11.113   1.420  11.276  2.1859 -1.8725 -1.0043
  387MOL0     H52204  11.079   1.253  11.259  0.5459  0.3642 -0.4376
  387MOL0     H52205  11.129   1.055  11.327 -0.2838  0.7412  0.2250
  387MOL0     H52206  11.259   0.860  11.233  0.7322  0.2352 -1.4978
  387MOL0     H52207  11.628   0.639  11.057 -0.6682  1.5874  0.0054
  387MOL0     H52208  11.786   0.496  10.946  1.3308  0.5596 -1.2398
  387MOL0     H52209  12.175   0.594  10.746 -2.3886 -1.7906 -0.5127
  387MOL0     H52210  12.135   0.743  10.835 -1.9847 -0.0353  2.3451
  387MOL0     H52211  12.289   0.645  11.023 -1.6514  0.5294 -0.7435
  387MOL0     H52212  12.298   0.492  10.926 -0.5616  0.2840  0.4875
  387MOL0     H52213  12.384   0.760  10.827 -0.4774 -0.6836 -1.8914
  387MOL0     H52214  12.494   0.684  10.943  1.6778 -0.7935 -1.2583
  387MOL0     H52215  12.439   0.556  10.680  1.8059 -1.0257 -1.0643
  387MOL0     H52216  12.534   0.485  10.806 -1.9289 -1.0317 -0.3129
  387MOL0     H52217  12.678   0.687  10.818  2.7923 -0.2273 -1.2590
  387MOL0     H52218  12.607   0.743  10.665  1.2126  0.9411  0.6667
  387MOL0     H52219  12.822   0.600  10.669  0.3789 -1.0143 -0.6224
  387MOL0     H52220  12.728   0.469  10.741 -1.2582  1.3378  1.0525
  387MOL0     H52221  12.681   0.577  10.462 -1.2288  0.5715  0.0553
  387MOL0     H52222  12.589   0.446  10.547 -1.9245  3.0762  0.8893
  387MOL0     H52223  12.793   0.308  10.552 -0.6066 -1.0262 -0.9447
  387MOL0     H52224  12.761   0.368  10.389  0.0510  1.9692 -0.5714
  387MOL0     H52225  12.102   0.769  11.062 -0.4544 -0.7985  0.9200
  387MOL0     H52226  11.924   0.914  11.177 -2.9577  0.2223  2.6195
  387MOL0     H52227  11.618   1.095  11.325  0.1975  1.2401 -1.5262
  387MOL0     H52228  11.486   1.273  11.398  0.0741 -0.1877 -0.7075
  387MOL0     H52229   9.577   1.996  10.981  0.9904  1.3363  0.2421
  387MOL0     H52230   9.355   2.122  11.012 -2.1682 -0.0576 -0.7467
  387MOL0     H52231   8.998   2.243  10.819 -1.6241  0.2322 -1.6345
  387MOL0     H52232   8.774   2.307  10.816  0.4480 -0.5101 -1.9185
  387MOL0     H52233   8.699   2.743  10.770  0.8893 -2.0939 -0.7515
  387MOL0     H52234   8.613   2.725  10.932 -0.2933 -0.2705  0.6567
  387MOL0     H52235   8.506   2.629  10.664  0.4442  0.9296  0.9794
  387MOL0     H52236   8.485   2.800  10.719 -3.5119 -0.1326 -1.8812
  387MOL0     H52237   8.386   2.698  10.923  3.6955  0.9987 -1.0397
  387MOL0     H52238   8.368   2.544  10.840 -0.1661 -0.7347  2.2671
  387MOL0     H52239   8.231   2.774  10.708 -0.8885  0.1068  1.5857
  387MOL0     H52240   8.227   2.602  10.672  0.2631  0.0091  0.4841
  387MOL0     H52241   7.943   2.637  10.974 -0.1067 -0.0931 -0.8311
  387MOL0     H52242   8.875   2.714  10.902 -2.1333  0.3866 -1.1104
  387MOL0     H52243   9.233   2.703  10.860 -0.1631  3.6455  0.9126
  387MOL0     H52244   9.099   2.774  10.946  0.2040  0.2738  0.4304
  387MOL0     H52245   9.181   2.639  11.024 -2.0570  0.3405  1.4995
  388MOL0     O52246   9.331   0.658  10.759 -0.5479 -0.0495  0.1276
  388MOL0     C52247   9.278   0.756  10.711  0.1048 -0.6873 -0.0364
  388MOL0     O52248   9.328   0.817  10.594 -0.4066 -0.3104  0.0657
  388MOL0     C52249   9.466   0.816  10.575  0.0415  0.0841 -0.2702
  388MOL0     C52250   9.567   0.810  10.675  0.9879 -0.3896 -0.1556
  388MOL0     C52251   9.704   0.814  10.645  0.2749 -0.1918 -0.6461
  388MOL0     C52252   9.751   0.817  10.512 -0.2778 -0.9917 -0.3083
  388MOL0     O52253   9.882   0.796  10.476 -0.1210  0.4110 -0.5649
  388MOL0     C52254   9.925   0.833  10.344  0.3425  0.7875 -0.3151
  388MOL0     C52255  10.075   0.835  10.341 -0.8551 -0.2967  0.0121
  388MOL0     C52256  10.132   0.943  10.436  0.6697 -0.6224 -0.2279
  388MOL0     C52257  10.287   0.951  10.422 -0.0798  0.2967  0.5528
  388MOL0     C52258  10.328   1.053  10.528  1.2099  0.1456  0.4483
  388MOL0     C52259  10.471   1.096  10.499  0.4493 -0.2319  0.3796
  388MOL0     C52260  10.538   1.144  10.632 -0.1204 -0.5536 -0.1867
  388MOL0     C52261  10.670   1.226  10.615  0.0993  0.2803 -0.3761
  388MOL0     N52262  10.743   1.251  10.737  0.4449 -0.9400 -0.2107
  388MOL0     C52263  10.881   1.268  10.739 -0.2416 -0.5218  0.4335
  388MOL0     C52264  10.917   1.240  10.866  1.1259  0.4736 -0.3892
  388MOL0     C52265  11.048   1.240  10.929  0.2047 -0.2563 -0.2735
  388MOL0     C52266  11.154   1.180  10.852 -0.5560 -0.1494  0.1312
  388MOL0     C52267  11.292   1.155  10.924  0.6152 -0.0862 -0.0118
  388MOL0     C52268  11.414   1.124  10.833  0.1186  0.1731 -0.1160
  388MOL0     O52269  11.531   1.108  10.919 -0.4022  0.2465  0.4090
  388MOL0     C52270  11.647   1.085  10.840  0.0929  0.4128  0.0751
  388MOL0     C52271  11.705   1.187  10.757 -0.0147 -0.5954 -0.8614
  388MOL0     C52272  11.819   1.151  10.682 -0.3571  0.0705 -0.6307
  388MOL0     C52273  11.877   1.020  10.690  0.4282  0.5154  0.1597
  388MOL0     C52274  12.005   0.979  10.623  0.8930  0.3907  0.2569
  388MOL0     O52275  12.075   1.067  10.557 -0.8533 -0.4496 -0.0104
  388MOL0     C52276  12.196   1.036  10.497 -0.0314  0.3296  0.2082
  388MOL0     C52277  12.304   0.982  10.575 -0.4772 -0.1375  0.6390
  388MOL0     C52278  12.417   0.929  10.505  0.5530  0.5014 -0.2585
  388MOL0     C52279  12.434   0.955  10.368 -0.5117 -0.2110 -0.9117
  388MOL0     O52280  12.553   0.907  10.322  0.8747  0.6187  0.6131
  388MOL0     C52281  12.620   0.979  10.218 -0.0039  0.4261  0.2427
  388MOL0     C52282  12.764   1.015  10.258  0.1496  0.2332 -0.3306
  388MOL0     C52283  12.845   1.071  10.138  1.1877 -0.6193 -0.3278
  388MOL0     C52284  12.972   1.132  10.194 -0.5048  0.8290 -0.6882
  388MOL0     C52285  13.057   1.179  10.073  0.2593  0.6163  0.0820
  388MOL0     C52286  13.198   1.234  10.111  0.3530 -0.1496 -0.4216
  388MOL0     C52287  13.282   1.276   9.995 -1.2460 -0.1662 -0.7657
  388MOL0     C52288  13.428   1.309  10.037  0.5975 -0.8646  0.0826
  388MOL0    Cl52289  13.452   1.439  10.156 -0.2588  0.3133  0.0510
  388MOL0     C52290  12.337   1.026  10.297  0.4265  0.7093 -0.3363
  388MOL0     C52291  12.215   1.057  10.360  0.0709  0.4448 -0.0708
  388MOL0     O52292  12.033   0.861  10.632 -0.3195  0.3936  0.7277
  388MOL0     C52293  11.806   0.929  10.775 -0.5289  0.5866  0.8653
  388MOL0     C52294  11.691   0.953  10.842 -0.6031  0.4352  0.1094
  388MOL0     N52295  10.798   1.228  10.943 -0.3612  0.2281  0.0240
  388MOL0     N52296  10.699   1.229  10.860  0.7432  0.3804 -0.7917
  388MOL0     C52297   9.649   0.826  10.412 -0.6498 -0.4263  0.0975
  388MOL0     C52298   9.509   0.828  10.443  0.2789  0.2894 -0.3534
  388MOL0     C52299   9.148   0.794  10.761 -0.2155 -0.4390 -0.2182
  388MOL0     C52300   9.065   0.876  10.673 -0.3742  1.1743  0.2886
  388MOL0     C52301   8.933   0.912  10.699  0.2415 -0.0068 -0.6628
  388MOL0     C52302   8.877   0.879  10.822 -0.7390 -1.2387 -0.1103
  388MOL0     O52303   8.753   0.896  10.859  0.2181  0.1168 -0.8140
  388MOL0     C52304   8.680   0.980  10.769  0.7089  0.4837 -0.7382
  388MOL0     C52305   8.559   1.042  10.837  0.2809 -0.2748  0.2542
  388MOL0     C52306   8.458   0.949  10.908  0.6339  0.1200 -0.0414
  388MOL0     C52307   8.329   1.015  10.951 -0.3334  0.5100  0.0329
  388MOL0     C52308   8.245   0.914  11.015 -0.1053 -0.2861  0.0326
  388MOL0     C52309   8.171   0.837  11.073 -0.2518  0.3086 -0.0697
  388MOL0     C52310   8.964   0.809  10.915  0.4772  0.3501  0.3068
  388MOL0     C52311   9.092   0.758  10.886  0.2847  0.8787  1.0609
  388MOL0     C52312   9.169   0.677  10.985  0.1926  0.4251  0.0718
  388MOL0     H52313   9.543   0.803  10.780  0.5458  1.9282 -0.0633
  388MOL0     H52314   9.787   0.810  10.715  3.2493  1.9939 -3.7390
  388MOL0     H52315   9.888   0.762  10.270 -0.4105  0.1911  0.6087
  388MOL0     H52316   9.899   0.937  10.322  0.5904  0.7045 -1.0337
  388MOL0     H52317  10.108   0.857  10.240  0.9085 -2.4004  0.0525
  388MOL0     H52318  10.106   0.732  10.364  1.2786  0.2324 -0.2433
  388MOL0     H52319  10.110   0.922  10.541  1.3530  2.5998  0.6772
  388MOL0     H52320  10.082   1.039  10.419  1.0832 -0.5258 -0.9319
  388MOL0     H52321  10.334   0.852  10.421  0.7746  0.6710  1.6176
  388MOL0     H52322  10.305   1.004  10.328  0.3234  1.3545  1.2159
  388MOL0     H52323  10.257   1.136  10.519 -1.2701 -1.8504  0.4957
  388MOL0     H52324  10.315   1.004  10.625 -2.2382  2.8354  1.5587
  388MOL0     H52325  10.520   1.015  10.446 -2.2306  0.0714 -2.9554
  388MOL0     H52326  10.460   1.178  10.427  0.9734 -0.3403  0.1739
  388MOL0     H52327  10.564   1.049  10.679  0.7809  0.2889  1.1033
  388MOL0     H52328  10.465   1.198  10.693 -2.2062 -1.7522 -1.5201
  388MOL0     H52329  10.727   1.158  10.550 -2.1940 -0.8588 -1.3303
  388MOL0     H52330  10.657   1.321  10.563  2.5381  0.1612 -1.3284
  388MOL0     H52331  10.937   1.298  10.652 -1.2235 -1.7098 -0.6589
  388MOL0     H52332  11.075   1.345  10.942 -2.1059  0.3080  0.2938
  388MOL0     H52333  11.046   1.194  11.028  3.7583 -0.5962 -0.2236
  388MOL0     H52334  11.110   1.088  10.813  1.3685 -0.9073 -0.3674
  388MOL0     H52335  11.170   1.244  10.764 -3.2328 -0.1165 -0.4447
  388MOL0     H52336  11.271   1.065  10.982  0.0834 -0.3844 -0.6487
  388MOL0     H52337  11.313   1.238  10.992 -1.0048 -1.9704  3.0148
  388MOL0     H52338  11.421   1.209  10.765 -0.0407 -1.1676 -1.8514
  388MOL0     H52339  11.397   1.030  10.781  0.8663 -1.3091  2.1865
  388MOL0     H52340  11.659   1.284  10.741 -0.5692 -0.7771 -0.3988
  388MOL0     H52341  11.867   1.219  10.612 -0.9788 -0.7526 -1.9071
  388MOL0     H52342  12.292   0.967  10.682 -0.3015 -2.0352  0.4230
  388MOL0     H52343  12.506   0.894  10.557  1.1482  1.3445 -0.6846
  388MOL0     H52344  12.619   0.910  10.134  2.2517  0.5163  0.0700
  388MOL0     H52345  12.567   1.070  10.188 -3.2790 -1.2964  0.4526
  388MOL0     H52346  12.764   1.093  10.335  1.4138 -0.2903  0.2367
  388MOL0     H52347  12.812   0.924  10.295 -0.3623 -0.0163 -0.2848
  388MOL0     H52348  12.858   0.990  10.066  0.2650 -0.2078 -0.9842
  388MOL0     H52349  12.785   1.142  10.081  0.9731 -0.8060 -0.3367
  388MOL0     H52350  13.027   1.059  10.254  0.2370  1.6792 -0.3207
  388MOL0     H52351  12.938   1.214  10.257 -2.3335  0.6191 -1.3363
  388MOL0     H52352  12.997   1.258  10.026 -4.8155 -2.3684  0.8625
  388MOL0     H52353  13.064   1.104   9.994 -1.1775  1.5684 -1.0001
  388MOL0     H52354  13.183   1.321  10.177  1.5342 -0.5568  0.4378
  388MOL0     H52355  13.244   1.162  10.180 -0.7036  0.7473  1.3123
  388MOL0     H52356  13.252   1.371   9.951  0.7121  2.1593  2.4419
  388MOL0     H52357  13.278   1.196   9.921 -1.5026  0.9157 -1.9561
  388MOL0     H52358  13.470   1.213  10.071 -0.5717 -1.3102  0.2954
  388MOL0     H52359  13.486   1.349   9.953  1.6159 -0.2699  1.0294
  388MOL0     H52360  12.359   1.052  10.194  0.7859 -1.7121 -0.9179
  388MOL0     H52361  12.138   1.112  10.308  0.6011  0.5416 -0.7784
  388MOL0     H52362  11.838   0.826  10.788  0.9029  1.1475  2.0447
  388MOL0     H52363  11.633   0.883  10.901 -1.6504 -0.0743 -1.4478
  388MOL0     H52364   9.668   0.814  10.306 -0.2382 -0.7385  0.2059
  388MOL0     H52365   9.440   0.829  10.359 -2.0648 -1.9063  1.3925
  388MOL0     H52366   9.098   0.903  10.573 -2.6307  1.7244 -0.3683
  388MOL0     H52367   8.885   0.951  10.610  0.0505  2.8561  0.5855
  388MOL0     H52368   8.651   0.919  10.683 -0.7451  0.1225 -0.0110
  388MOL0     H52369   8.736   1.063  10.725  0.7231 -0.2653 -2.2033
  388MOL0     H52370   8.505   1.079  10.749 -2.1309  1.5423  2.3590
  388MOL0     H52371   8.605   1.121  10.896 -0.7801 -0.3779  1.2627
  388MOL0     H52372   8.504   0.896  10.993  0.9860 -0.0391 -0.3288
  388MOL0     H52373   8.426   0.866  10.845  3.1493 -1.1449  0.1966
  388MOL0     H52374   8.338   1.108  11.007 -2.4028  0.9054 -0.1798
  388MOL0     H52375   8.292   1.059  10.858 -1.4222  3.8004  1.8655
  388MOL0     H52376   8.108   0.770  11.127  0.9192 -0.1702  0.7338
  388MOL0     H52377   8.913   0.786  11.008 -1.2661  0.4721 -0.5923
  388MOL0     H52378   9.114   0.691  11.078 -2.3839 -0.8740 -1.1557
  388MOL0     H52379   9.157   0.572  10.956 -1.7175 -0.3113  3.1297
  388MOL0     H52380   9.277   0.695  10.990  0.5626 -1.2301 -0.9643
  389MOL0     O52381   7.441   2.270   9.871  0.1399  0.3835 -0.8415
  389MOL0     C52382   7.353   2.351   9.882 -0.0929  0.4391 -0.3579
  389MOL0     O52383   7.376   2.492   9.904 -0.3288  0.6866  0.2476
  389MOL0     C52384   7.503   2.526   9.937  0.0975 -0.2272  0.0599
  389MOL0     C52385   7.530   2.548  10.074  0.3213  0.2316  0.3245
  389MOL0     C52386   7.663   2.576  10.114  0.1706 -0.3923 -1.0543
  389MOL0     C52387   7.753   2.577  10.011 -0.3223 -0.7900 -0.5612
  389MOL0     O52388   7.871   2.625  10.061 -0.5535 -0.2980  0.1080
  389MOL0     C52389   7.936   2.731   9.985 -0.3979  0.2054 -0.4773
  389MOL0     C52390   8.002   2.826  10.082 -0.0944  0.1683  0.0712
  389MOL0     C52391   8.111   2.916  10.013  0.7796  0.2193  0.0796
  389MOL0     C52392   8.247   2.823  10.000  0.0662  0.3224  0.2971
  389MOL0     C52393   8.319   2.867   9.872 -0.3651 -0.0570 -0.4793
  389MOL0     C52394   8.367   3.012   9.878  0.1547  0.7415  0.5510
  389MOL0     C52395   8.468   3.036   9.771 -0.8216  0.3938  0.7065
  389MOL0     C52396   8.577   3.137   9.823 -0.2926 -0.2132 -0.1705
  389MOL0     N52397   8.670   3.073   9.923  0.1321  0.5643 -0.0497
  389MOL0     C52398   8.749   2.964   9.900 -0.7210  0.1892 -0.0129
  389MOL0     C52399   8.799   2.924  10.024  0.1719  0.0253 -0.0561
  389MOL0     C52400   8.895   2.810  10.063 -0.9399  0.0306 -0.4170
  389MOL0     C52401   9.030   2.826   9.997  0.2110  0.6879 -0.9610
  389MOL0     C52402   9.119   2.718  10.067 -0.5527  0.5707  0.6411
  389MOL0     C52403   9.256   2.703  10.004  0.1757 -0.0567 -0.1774
  389MOL0     O52404   9.333   2.635  10.102  0.1453  0.7823 -0.0570
  389MOL0     C52405   9.464   2.599  10.067 -0.7668 -0.5108  0.1011
  389MOL0     C52406   9.543   2.671   9.974  0.6134  0.3055 -0.0007
  389MOL0     C52407   9.679   2.645   9.961 -0.6352  0.2420  0.5499
  389MOL0     C52408   9.738   2.538  10.009 -0.7644  0.4438 -0.3872
  389MOL0     C52409   9.868   2.503   9.963 -0.1486 -0.6418 -0.1059
  389MOL0     O52410   9.903   2.378  10.000  0.4810 -0.4951 -0.3112
  389MOL0     C52411  10.004   2.320   9.932 -0.3166  0.3884  0.3794
  389MOL0     C52412   9.978   2.234   9.823  0.1853 -0.0674 -0.0952
  389MOL0     C52413  10.080   2.157   9.773 -0.2643  0.2003 -0.1180
  389MOL0     C52414  10.219   2.176   9.814 -0.1018  1.0299  1.3994
  389MOL0     O52415  10.323   2.108   9.753 -0.8354  0.7710  0.4660
  389MOL0     C52416  10.282   1.989   9.681 -0.1622  0.5230 -0.3527
  389MOL0     C52417  10.402   1.902   9.656  1.1576 -0.6388  0.8451
  389MOL0     C52418  10.455   1.819   9.776 -0.4907  1.1267 -0.1986
  389MOL0     C52419  10.532   1.692   9.723 -0.9328 -0.1884 -0.2988
  389MOL0     C52420  10.628   1.649   9.829 -0.1878 -0.5797 -0.0148
  389MOL0     C52421  10.671   1.511   9.810 -0.0625  0.2443 -0.6376
  389MOL0     C52422  10.770   1.473   9.919 -0.0272 -0.0076  0.3276
  389MOL0     C52423  10.828   1.333   9.904 -0.8414  0.2883  0.2143
  389MOL0    Cl52424  10.970   1.322  10.003  0.7048  0.0502  0.4738
  389MOL0     C52425  10.249   2.259   9.918  0.4960  0.3414 -0.1259
  389MOL0     C52426  10.144   2.334   9.974  0.2298  0.1761  0.6711
  389MOL0     O52427   9.937   2.582   9.899  0.1949 -0.3484 -0.7332
  389MOL0     C52428   9.660   2.458  10.093 -0.1936 -0.1034  0.3712
  389MOL0     C52429   9.532   2.493  10.131  0.1860  0.2954 -0.5671
  389MOL0     N52430   8.760   3.031  10.111  0.1001 -0.1075  0.4238
  389MOL0     N52431   8.688   3.119  10.053 -0.1458  0.3336  0.1149
  389MOL0     C52432   7.722   2.572   9.873 -0.3286  0.0738  0.5900
  389MOL0     C52433   7.597   2.545   9.833  0.0272  0.1014  0.3354
  389MOL0     C52434   7.220   2.308   9.846  0.2249 -0.1730  0.0371
  389MOL0     C52435   7.169   2.193   9.917 -0.3497  0.0610  0.7984
  389MOL0     C52436   7.039   2.148   9.876 -0.8382  0.0771  0.9582
  389MOL0     C52437   6.952   2.223   9.801 -0.6859 -0.2185 -0.5274
  389MOL0     O52438   6.825   2.180   9.786 -0.1191  0.3236 -0.3727
  389MOL0     C52439   6.780   2.038   9.802  1.2107  0.2472 -0.3879
  389MOL0     C52440   6.838   1.949   9.687 -0.1350 -0.6579 -0.2132
  389MOL0     C52441   6.784   1.809   9.694  0.0991 -0.0944  0.2932
  389MOL0     C52442   6.634   1.796   9.706  1.2620 -0.4037  0.4750
  389MOL0     C52443   6.595   1.656   9.709  0.0761  0.3610  0.2566
  389MOL0     C52444   6.580   1.533   9.714  0.0786  0.8862 -0.4497
  389MOL0     C52445   6.999   2.337   9.736  0.2718  0.0198  0.4669
  389MOL0     C52446   7.136   2.374   9.752 -0.5572  0.1124 -0.0621
  389MOL0     C52447   7.173   2.503   9.681 -0.7795 -0.1778  0.0758
  389MOL0     H52448   7.448   2.552  10.145  1.3760 -2.0940  1.8189
  389MOL0     H52449   7.689   2.611  10.213 -2.0012 -1.4883 -0.0293
  389MOL0     H52450   8.012   2.688   9.919  0.3455  3.8095 -2.2179
  389MOL0     H52451   7.872   2.793   9.922 -1.3173  1.2356  1.4004
  389MOL0     H52452   8.044   2.766  10.163  0.5907 -2.3054 -1.9830
  389MOL0     H52453   7.931   2.891  10.134 -1.4501 -2.8669  2.2862
  389MOL0     H52454   8.138   2.997  10.081 -1.0367 -0.2073  1.3841
  389MOL0     H52455   8.080   2.952   9.914 -2.7812 -1.2526  0.5254
  389MOL0     H52456   8.315   2.834  10.085  0.9148  1.8366 -0.5366
  389MOL0     H52457   8.226   2.716   9.989 -1.0216  0.1995  2.8822
  389MOL0     H52458   8.411   2.809   9.860  1.2607  2.1162  0.6485
  389MOL0     H52459   8.252   2.846   9.789 -1.6185 -1.0092  0.7312
  389MOL0     H52460   8.281   3.073   9.851  0.1851 -0.2853 -2.2162
  389MOL0     H52461   8.413   3.042   9.973  0.6032  1.3249  0.1503
  389MOL0     H52462   8.410   3.073   9.685  1.7925 -1.2879 -1.9678
  389MOL0     H52463   8.513   2.946   9.728 -2.3919  0.7554 -1.9307
  389MOL0     H52464   8.642   3.165   9.740  1.2942 -1.7919  0.4804
  389MOL0     H52465   8.533   3.228   9.865  1.3383  0.2269  0.6370
  389MOL0     H52466   8.777   2.925   9.803 -1.4799  0.5042 -0.3732
  389MOL0     H52467   8.903   2.810  10.172 -2.0033 -0.5673 -0.3352
  389MOL0     H52468   8.855   2.712  10.038 -0.2387 -0.3723  0.0054
  389MOL0     H52469   9.025   2.809   9.889  0.9695  1.4276 -1.1257
  389MOL0     H52470   9.073   2.923  10.023  2.5680 -0.6769  0.5636
  389MOL0     H52471   9.078   2.616  10.060  4.4778 -1.6157 -1.6071
  389MOL0     H52472   9.131   2.740  10.173  0.8933  0.6346  0.4830
  389MOL0     H52473   9.292   2.803   9.978 -2.2558  1.4872  1.9577
  389MOL0     H52474   9.265   2.642   9.913  0.3297  1.7260 -1.4023
  389MOL0     H52475   9.509   2.764   9.929 -2.5718 -0.2501  1.0420
  389MOL0     H52476   9.738   2.725   9.916 -1.2860  1.3707  1.6285
  389MOL0     H52477   9.875   2.222   9.788  0.2464  0.5644 -0.5180
  389MOL0     H52478  10.054   2.095   9.688 -0.1639  1.7911 -1.3610
  389MOL0     H52479  10.207   1.930   9.734 -0.0578  0.6867 -0.0197
  389MOL0     H52480  10.243   2.031   9.588  0.6437  2.1326  0.0116
  389MOL0     H52481  10.380   1.843   9.566  1.8218  2.6897 -1.7199
  389MOL0     H52482  10.475   1.977   9.622 -1.6361  0.9701 -2.1835
  389MOL0     H52483  10.518   1.884   9.837  0.0048 -0.9219  1.5943
  389MOL0     H52484  10.376   1.787   9.845  0.2128  2.4989  1.3016
  389MOL0     H52485  10.584   1.729   9.634 -1.5059 -0.3852 -0.7260
  389MOL0     H52486  10.453   1.617   9.708 -0.4546 -0.2301 -3.0925
  389MOL0     H52487  10.588   1.664   9.930  0.3234 -0.4022  0.1607
  389MOL0     H52488  10.715   1.714   9.823 -0.6142 -0.1088 -1.2980
  389MOL0     H52489  10.589   1.441   9.827  0.7628 -0.0407  3.2069
  389MOL0     H52490  10.699   1.494   9.706 -2.1467  1.9655 -1.5496
  389MOL0     H52491  10.732   1.484  10.021  3.8116 -2.4567  2.2499
  389MOL0     H52492  10.852   1.543   9.901  0.0275 -0.1799 -0.1228
  389MOL0     H52493  10.756   1.256   9.933 -0.0890 -1.2837 -1.8454
  389MOL0     H52494  10.859   1.315   9.801  1.1387 -2.5170  1.1600
  389MOL0     H52495  10.351   2.271   9.953 -0.0296  5.1619  0.4042
  389MOL0     H52496  10.170   2.399  10.057  1.8638  1.0692 -0.4766
  389MOL0     H52497   9.700   2.363  10.127  0.2885  0.0581  0.2614
  389MOL0     H52498   9.493   2.422  10.204  2.0469  1.9178  2.2171
  389MOL0     H52499   7.799   2.575   9.796 -0.2216 -2.0655  0.5397
  389MOL0     H52500   7.576   2.547   9.727 -1.0037  1.9990  0.5392
  389MOL0     H52501   7.236   2.137   9.981  3.5767  0.9317 -2.1314
  389MOL0     H52502   7.004   2.063   9.934 -0.2458 -0.9481 -0.1396
  389MOL0     H52503   6.671   2.046   9.801  0.8551 -2.7853  1.9904
  389MOL0     H52504   6.803   2.001   9.902  1.7149  1.5791  0.0093
  389MOL0     H52505   6.947   1.947   9.699 -0.0967  0.7024 -0.1108
  389MOL0     H52506   6.811   1.996   9.592 -2.3978 -1.4589 -0.0211
  389MOL0     H52507   6.821   1.766   9.788  1.0805  0.3009  0.0985
  389MOL0     H52508   6.819   1.758   9.604 -0.3789  2.8447 -1.7012
  389MOL0     H52509   6.598   1.841   9.799 -1.3370  0.8572 -1.0309
  389MOL0     H52510   6.570   1.837   9.628  1.3119 -1.7244 -0.2861
  389MOL0     H52511   6.570   1.427   9.727 -0.5086  1.0676  0.7900
  389MOL0     H52512   6.945   2.392   9.660  0.8010 -1.2996 -0.9190
  389MOL0     H52513   7.124   2.594   9.716  1.6463  0.6622  1.5192
  389MOL0     H52514   7.277   2.538   9.684 -1.4332  2.0905 -1.2054
  389MOL0     H52515   7.152   2.488   9.574 -0.1374  1.5971 -0.3376
  390MOL0     O52516   2.598   4.309   4.275 -0.4161  0.5652  0.6950
  390MOL0     C52517   2.557   4.325   4.388 -0.4266  0.0898 -0.4143
  390MOL0     O52518   2.603   4.257   4.493 -0.0602  0.4638  0.3979
  390MOL0     C52519   2.724   4.196   4.468 -0.0277 -0.5870 -0.7712
  390MOL0     C52520   2.837   4.268   4.509  0.5476 -0.0501 -0.1561
  390MOL0     C52521   2.963   4.209   4.493  0.2329  0.4098  0.2789
  390MOL0     C52522   2.975   4.077   4.449  0.1235 -0.7385  0.5908
  390MOL0     O52523   3.094   4.017   4.446 -0.2587  0.6748  0.0604
  390MOL0     C52524   3.206   4.074   4.518 -0.0286 -0.4770 -0.6965
  390MOL0     C52525   3.322   3.971   4.511  0.3104  0.4430 -0.4676
  390MOL0     C52526   3.443   4.000   4.600 -0.7289 -0.8216  0.0460
  390MOL0     C52527   3.551   3.893   4.580  0.1482  0.3066 -0.0299
  390MOL0     C52528   3.697   3.914   4.626 -0.3908 -0.5332 -0.2166
  390MOL0     C52529   3.757   3.777   4.661  0.4106 -0.2619 -0.2168
  390MOL0     C52530   3.907   3.771   4.706  0.8073  0.3394  0.4504
  390MOL0     C52531   4.010   3.837   4.619  0.1940 -0.7568  0.3922
  390MOL0     N52532   4.142   3.799   4.663  0.2797  0.2714  0.3647
  390MOL0     C52533   4.182   3.671   4.653  0.6863  1.1714 -0.3289
  390MOL0     C52534   4.273   3.660   4.748 -0.4042 -1.0337  0.3550
  390MOL0     C52535   4.342   3.534   4.792 -0.0509 -0.7154  0.8413
  390MOL0     C52536   4.436   3.477   4.695 -0.4058 -0.6539  0.1362
  390MOL0     C52537   4.548   3.571   4.648 -0.9134  0.2112  0.5897
  390MOL0     C52538   4.644   3.597   4.761  0.4632  0.3820 -0.3338
  390MOL0     O52539   4.721   3.482   4.799 -0.2246  0.4325  0.1752
  390MOL0     C52540   4.857   3.485   4.793 -0.1794 -0.1262 -0.3060
  390MOL0     C52541   4.935   3.566   4.710 -0.1151 -0.1432 -0.4956
  390MOL0     C52542   5.073   3.572   4.724 -0.0759  0.3800  0.6137
  390MOL0     C52543   5.139   3.491   4.819 -0.6467 -0.9174  0.7399
  390MOL0     C52544   5.287   3.477   4.819  0.0286  0.0583 -0.4801
  390MOL0     O52545   5.338   3.388   4.915  0.4931  0.1294  0.1096
  390MOL0     C52546   5.474   3.381   4.920  0.3478  0.2187 -0.2571
  390MOL0     C52547   5.542   3.466   5.006 -0.5917 -0.3925 -0.5701
  390MOL0     C52548   5.677   3.481   5.001  1.1582  0.0458  0.5238
  390MOL0     C52549   5.744   3.428   4.897 -0.2267  0.5422 -0.6789
  390MOL0     O52550   5.877   3.448   4.890 -0.4022 -0.4652  0.0573
  390MOL0     C52551   5.966   3.336   4.916 -0.4631  0.4065 -0.3130
  390MOL0     C52552   6.108   3.384   4.902 -1.0549 -0.0593  0.3142
  390MOL0     C52553   6.215   3.273   4.904  0.5274  0.7364  0.4445
  390MOL0     C52554   6.349   3.335   4.884 -0.9917 -0.8130 -0.0574
  390MOL0     C52555   6.463   3.229   4.887  0.3315 -0.1042  0.3712
  390MOL0     C52556   6.597   3.287   4.901 -0.1211 -0.4358  0.4900
  390MOL0     C52557   6.703   3.190   4.860  0.7700  0.0342 -0.7195
  390MOL0     C52558   6.854   3.245   4.878  0.5297  0.5337  0.2897
  390MOL0    Cl52559   6.992   3.127   4.830 -0.1833 -0.1081 -0.2298
  390MOL0     C52560   5.684   3.343   4.804  0.1003  0.2680  0.5042
  390MOL0     C52561   5.545   3.318   4.823  0.3913 -0.0208  0.1004
  390MOL0     O52562   5.359   3.551   4.745  0.2368  0.6266  0.2339
  390MOL0     C52563   5.062   3.403   4.902 -0.1533  0.2297  0.0496
  390MOL0     C52564   4.929   3.406   4.881  0.0111 -0.1920 -0.1771
  390MOL0     N52565   4.302   3.784   4.801 -0.1886  0.4229  0.0230
  390MOL0     N52566   4.216   3.864   4.759  0.0904  0.5075  0.7113
  390MOL0     C52567   2.866   4.005   4.398 -0.1702 -0.0910  0.5103
  390MOL0     C52568   2.737   4.064   4.416  0.0395  0.1467 -0.6555
  390MOL0     C52569   2.479   4.448   4.417 -0.7350 -0.4118 -0.4829
  390MOL0     C52570   2.481   4.510   4.553  0.4333  0.2540  0.2603
  390MOL0     C52571   2.407   4.624   4.588 -0.8023 -0.6004 -0.2614
  390MOL0     C52572   2.345   4.699   4.484 -0.9870 -0.6895 -0.2136
  390MOL0     O52573   2.282   4.822   4.501  0.4239  0.6232  0.1732
  390MOL0     C52574   2.279   4.887   4.630 -0.4099 -0.4040  0.3224
  390MOL0     C52575   2.174   4.827   4.734  0.2203  0.6832  0.2491
  390MOL0     C52576   2.031   4.862   4.682  0.4873  0.2167  0.0592
  390MOL0     C52577   1.925   4.811   4.786 -0.2325 -0.8651  0.1530
  390MOL0     C52578   1.789   4.816   4.737  0.2918 -0.2732 -0.4641
  390MOL0     C52579   1.674   4.815   4.702  1.4458 -0.5587 -0.5794
  390MOL0     C52580   2.366   4.657   4.354 -0.4842  0.3339 -0.2064
  390MOL0     C52581   2.417   4.528   4.320 -0.0082 -0.5108  0.4591
  390MOL0     C52582   2.397   4.489   4.173  0.3778 -0.1172 -0.2467
  390MOL0     H52583   2.826   4.370   4.543  1.3693  0.3034 -0.8909
  390MOL0     H52584   3.047   4.273   4.520  0.2056 -0.7125  3.4234
  390MOL0     H52585   3.251   4.165   4.475  1.3477  0.3778  2.2620
  390MOL0     H52586   3.177   4.097   4.621  3.2060  0.5868  0.1037
  390MOL0     H52587   3.354   3.977   4.406 -0.0002  0.0702 -0.5871
  390MOL0     H52588   3.294   3.869   4.539 -0.5611  0.8331  0.1229
  390MOL0     H52589   3.417   4.026   4.703  0.3494  0.3105  0.0500
  390MOL0     H52590   3.483   4.093   4.558 -1.8346 -0.0719  0.5861
  390MOL0     H52591   3.511   3.815   4.646  3.5529  0.1006  2.0356
  390MOL0     H52592   3.552   3.854   4.478 -2.4480  2.6071 -1.0669
  390MOL0     H52593   3.748   3.945   4.534  0.0154 -1.7981 -0.4407
  390MOL0     H52594   3.714   3.990   4.702 -0.4987  2.3039 -2.8391
  390MOL0     H52595   3.702   3.724   4.739 -0.2756 -1.3965 -1.4267
  390MOL0     H52596   3.750   3.710   4.574 -4.0640 -0.8856  0.3991
  390MOL0     H52597   3.919   3.664   4.728 -1.1680  0.7585  4.4619
  390MOL0     H52598   3.904   3.815   4.806 -2.3504  1.2491  0.0644
  390MOL0     H52599   3.993   3.794   4.519 -1.5039 -3.6484  1.8073
  390MOL0     H52600   4.005   3.945   4.633  1.3834 -0.7725  1.0026
  390MOL0     H52601   4.142   3.584   4.604  0.2158  0.4463  1.2906
  390MOL0     H52602   4.399   3.551   4.884  1.9895 -2.6908  0.0376
  390MOL0     H52603   4.268   3.455   4.801 -1.8970  0.6475 -1.2751
  390MOL0     H52604   4.482   3.383   4.729 -0.5616 -0.5812  0.5600
  390MOL0     H52605   4.378   3.453   4.605  0.8595  0.9677 -1.1709
  390MOL0     H52606   4.501   3.659   4.603  1.3622  0.3149 -1.8284
  390MOL0     H52607   4.593   3.518   4.564 -0.1766  0.6502  0.6978
  390MOL0     H52608   4.597   3.631   4.853 -2.2389 -2.6239 -0.4430
  390MOL0     H52609   4.700   3.686   4.730 -1.4440  1.9175  0.4439
  390MOL0     H52610   4.886   3.635   4.641  0.0883  1.8859  1.3056
  390MOL0     H52611   5.128   3.645   4.666 -1.0401 -0.0892 -0.9669
  390MOL0     H52612   5.473   3.518   5.071 -1.7986 -1.3365 -1.0661
  390MOL0     H52613   5.729   3.547   5.070 -0.3329  1.3004  0.5211
  390MOL0     H52614   5.953   3.303   5.019  1.8740  1.8843  0.5490
  390MOL0     H52615   5.945   3.253   4.848  4.4457  0.3166 -2.1402
  390MOL0     H52616   6.120   3.435   4.806 -1.0500  0.1117  0.4057
  390MOL0     H52617   6.133   3.456   4.980 -5.1601  0.1420  1.6837
  390MOL0     H52618   6.212   3.219   4.999 -1.2231 -3.5950 -1.7979
  390MOL0     H52619   6.190   3.200   4.826 -1.0463  1.0286  0.6429
  390MOL0     H52620   6.373   3.402   4.967 -1.6918  0.0062 -0.5039
  390MOL0     H52621   6.366   3.399   4.797  0.5947  2.1919  2.2449
  390MOL0     H52622   6.460   3.160   4.802  0.3077 -0.9303  1.0271
  390MOL0     H52623   6.450   3.168   4.977 -1.6504  0.4457  0.5162
  390MOL0     H52624   6.607   3.377   4.839 -0.0901  0.8752  2.3056
  390MOL0     H52625   6.605   3.314   5.007 -2.7998 -1.2898  0.9871
  390MOL0     H52626   6.684   3.158   4.757 -1.0908  1.9984 -1.0516
  390MOL0     H52627   6.693   3.100   4.921 -1.3582  0.2509 -0.6969
  390MOL0     H52628   6.866   3.343   4.831  0.4659 -0.2532 -1.4702
  390MOL0     H52629   6.875   3.271   4.982  0.3825  1.1258  0.1696
  390MOL0     H52630   5.739   3.318   4.714  0.1255  0.9912  0.3112
  390MOL0     H52631   5.483   3.247   4.767  0.3797  0.3962 -0.4263
  390MOL0     H52632   5.110   3.328   4.964  0.6739  0.3227 -0.4600
  390MOL0     H52633   4.872   3.339   4.945  2.0290 -0.4277  1.4799
  390MOL0     H52634   2.868   3.900   4.371 -1.1292  0.0465 -0.1259
  390MOL0     H52635   2.641   4.020   4.389 -0.5412  0.4009  0.8997
  390MOL0     H52636   2.537   4.480   4.641 -0.9968 -1.7768  0.5550
  390MOL0     H52637   2.403   4.655   4.692  0.0446 -4.1820  1.0013
  390MOL0     H52638   2.277   4.996   4.622 -1.3873 -0.2670  1.9615
  390MOL0     H52639   2.372   4.877   4.688  0.2794 -0.3762 -0.7523
  390MOL0     H52640   2.181   4.862   4.837  1.9245 -1.5795  1.0062
  390MOL0     H52641   2.186   4.718   4.733  0.1827  0.6178 -2.8878
  390MOL0     H52642   2.007   4.812   4.588 -0.7983 -1.6864  1.3291
  390MOL0     H52643   2.019   4.969   4.662 -0.6715  0.1741  0.4494
  390MOL0     H52644   1.948   4.705   4.801 -0.5709 -0.7321  1.7540
  390MOL0     H52645   1.929   4.868   4.880  0.3737 -3.2462  1.6660
  390MOL0     H52646   1.570   4.829   4.681  1.3889  0.8609  0.4716
  390MOL0     H52647   2.329   4.721   4.276 -1.1826 -0.9955 -1.0090
  390MOL0     H52648   2.302   4.529   4.136  0.2745 -1.3173 -1.3865
  390MOL0     H52649   2.486   4.531   4.126  0.0283  2.8152  1.5052
  390MOL0     H52650   2.377   4.382   4.160 -3.1603  0.5592 -1.2804
  391MOL0     O52651   8.901   8.094   2.761 -0.4080 -0.0265  0.5496
  391MOL0     C52652   8.864   8.132   2.651 -0.0449 -0.2192 -0.3489
  391MOL0     O52653   8.926   8.211   2.562 -0.0833  0.1943  0.0634
  391MOL0     C52654   9.050   8.258   2.597 -0.7518 -0.4596  0.2034
  391MOL0     C52655   9.077   8.388   2.562  0.9026 -0.5196  0.5651
  391MOL0     C52656   9.207   8.438   2.582 -0.1862  0.4403  0.3333
  391MOL0     C52657   9.313   8.352   2.630 -0.0729 -0.0398 -0.1927
  391MOL0     O52658   9.438   8.405   2.644 -0.0385 -0.3226  0.3737
  391MOL0     C52659   9.553   8.323   2.623 -0.4710 -0.6013  0.1473
  391MOL0     C52660   9.678   8.403   2.618  0.5488  0.0111  0.1874
  391MOL0     C52661   9.800   8.337   2.561  0.2484 -0.0732 -0.6217
  391MOL0     C52662   9.917   8.438   2.575 -0.6030 -0.1723 -0.7964
  391MOL0     C52663  10.050   8.377   2.530  0.4224 -0.5266 -0.5625
  391MOL0     C52664  10.161   8.475   2.525 -0.0963  1.0526  0.0234
  391MOL0     C52665  10.154   8.588   2.426 -0.0668 -0.6714  0.0914
  391MOL0     C52666  10.142   8.539   2.286 -0.0576 -0.3875  0.1427
  391MOL0     N52667  10.139   8.654   2.189 -0.1878 -0.2431  0.4470
  391MOL0     C52668  10.253   8.714   2.150  0.2560 -0.2158  0.0820
  391MOL0     C52669  10.212   8.801   2.054  0.2922 -0.2743  0.0219
  391MOL0     C52670  10.289   8.902   1.963 -0.7786  0.1088  0.5557
  391MOL0     C52671  10.393   8.976   2.036 -1.3361  0.0218 -0.5925
  391MOL0     C52672  10.503   9.021   1.939  0.7510 -0.0099 -1.2152
  391MOL0     C52673  10.588   9.130   2.015 -0.1949 -0.0421  0.1493
  391MOL0     O52674  10.673   9.184   1.909 -0.5622 -0.2458 -0.2984
  391MOL0     C52675  10.793   9.230   1.952 -0.4597  0.2682 -0.0758
  391MOL0     C52676  10.902   9.232   1.861  0.4449  1.3144  0.0392
  391MOL0     C52677  11.027   9.284   1.894 -0.1553 -0.5531  0.1822
  391MOL0     C52678  11.049   9.323   2.025 -0.6808  0.0516 -0.5014
  391MOL0     C52679  11.183   9.360   2.074  0.7947 -0.9787 -0.4713
  391MOL0     O52680  11.200   9.370   2.207 -0.8009  0.1225 -0.1111
  391MOL0     C52681  11.320   9.370   2.275 -0.3018 -0.1898 -0.4933
  391MOL0     C52682  11.453   9.363   2.229  0.0143 -0.2849 -0.0308
  391MOL0     C52683  11.559   9.371   2.315 -0.8220 -0.0427 -0.9039
  391MOL0     C52684  11.547   9.403   2.451  0.2007 -0.4093 -0.0795
  391MOL0     O52685  11.658   9.417   2.527 -0.0072  0.2211 -0.4723
  391MOL0     C52686  11.654   9.495   2.650  0.7358 -0.3791  0.0372
  391MOL0     C52687  11.783   9.543   2.703 -0.6746  1.2791  0.1725
  391MOL0     C52688  11.867   9.641   2.625  0.0571 -0.1342 -0.3479
  391MOL0     C52689  11.992   9.656   2.707  0.7099  0.2482 -0.1446
  391MOL0     C52690  12.093   9.756   2.648 -0.6247 -0.4774 -1.0760
  391MOL0     C52691  12.236   9.739   2.691  0.1338  0.3320  0.9002
  391MOL0     C52692  12.311   9.599   2.669 -0.0487 -0.2049 -0.4101
  391MOL0     C52693  12.454   9.599   2.717  0.3704  0.8466  1.0562
  391MOL0    Cl52694  12.530   9.433   2.701  0.0977  0.3058  0.6404
  391MOL0     C52695  11.413   9.423   2.494 -0.1819  0.1491  0.3313
  391MOL0     C52696  11.306   9.411   2.406  0.0995 -0.2399  0.2959
  391MOL0     O52697  11.263   9.380   1.985 -0.3324  0.0363  0.3502
  391MOL0     C52698  10.946   9.314   2.123  0.1314 -0.1841  0.0207
  391MOL0     C52699  10.822   9.269   2.079  0.2145  0.4075 -0.2498
  391MOL0     N52700  10.073   8.804   2.056  0.2286 -0.1735 -0.2781
  391MOL0     N52701  10.035   8.716   2.137 -0.2679 -0.2018  0.3881
  391MOL0     C52702   9.286   8.217   2.667  0.1224  0.5428  0.2244
  391MOL0     C52703   9.151   8.175   2.648  1.1130  0.3199 -0.3868
  391MOL0     C52704   8.728   8.090   2.610 -0.5105 -0.7816 -0.5577
  391MOL0     C52705   8.659   8.166   2.515  0.7440 -0.2110 -0.4651
  391MOL0     C52706   8.528   8.152   2.472 -0.4499 -0.0599 -0.7842
  391MOL0     C52707   8.452   8.042   2.514 -0.4974  0.6673  0.2030
  391MOL0     O52708   8.334   8.019   2.441  0.1947 -0.2837 -0.2236
  391MOL0     C52709   8.270   7.890   2.446  0.1933  0.0066  0.4415
  391MOL0     C52710   8.175   7.876   2.567  0.3905  0.3805 -0.2709
  391MOL0     C52711   8.079   7.756   2.541  0.1415 -0.0505  0.0879
  391MOL0     C52712   8.150   7.624   2.488 -0.0508  0.5484 -0.0911
  391MOL0     C52713   8.058   7.504   2.472  0.2652 -0.6726  0.8782
  391MOL0     C52714   8.007   7.398   2.455 -0.9088  0.3445  0.1855
  391MOL0     C52715   8.514   7.957   2.616  0.0692 -0.4406  0.5826
  391MOL0     C52716   8.647   7.986   2.669 -0.2272  0.6671  1.5647
  391MOL0     C52717   8.691   7.884   2.767 -0.2289 -0.3129  0.1856
  391MOL0     H52718   9.007   8.449   2.506  0.2563 -0.7103  1.1537
  391MOL0     H52719   9.220   8.542   2.554 -1.7422  1.0196  1.5878
  391MOL0     H52720   9.557   8.251   2.705 -1.1886  1.5400  2.1807
  391MOL0     H52721   9.548   8.271   2.527  0.2935 -0.9996  0.3087
  391MOL0     H52722   9.688   8.435   2.722  1.1117  0.7528 -0.0804
  391MOL0     H52723   9.655   8.495   2.562 -0.4080  1.7597  3.2273
  391MOL0     H52724   9.785   8.323   2.453  0.0810 -0.8008 -0.5086
  391MOL0     H52725   9.835   8.245   2.607  0.9663 -1.6082 -3.9342
  391MOL0     H52726   9.897   8.532   2.522  1.6008  2.8739  3.1590
  391MOL0     H52727   9.926   8.470   2.679 -0.4391  1.4136 -1.2693
  391MOL0     H52728  10.071   8.299   2.604 -0.5515 -1.4701 -1.2492
  391MOL0     H52729  10.036   8.330   2.432 -0.5080  3.4115 -2.5378
  391MOL0     H52730  10.164   8.522   2.624 -1.0479 -0.4112  0.7753
  391MOL0     H52731  10.257   8.424   2.512 -0.2271  0.4149  1.3529
  391MOL0     H52732  10.243   8.652   2.433  0.8348 -1.9198  0.2655
  391MOL0     H52733  10.064   8.644   2.454  1.0526  0.8293  0.8148
  391MOL0     H52734  10.238   8.489   2.275 -0.0947 -1.4442  3.4904
  391MOL0     H52735  10.064   8.465   2.270 -0.9688  0.2900  1.2776
  391MOL0     H52736  10.354   8.692   2.183  0.6387 -1.0761 -1.5918
  391MOL0     H52737  10.332   8.849   1.878 -0.4764  0.8690  0.2304
  391MOL0     H52738  10.228   8.979   1.915 -1.2530 -1.8178 -2.1760
  391MOL0     H52739  10.356   9.050   2.108  2.4796  0.6283  0.9760
  391MOL0     H52740  10.438   8.901   2.103 -1.7203 -0.3711 -0.7687
  391MOL0     H52741  10.457   9.056   1.846  2.3967  1.6517 -1.4621
  391MOL0     H52742  10.561   8.935   1.905 -2.5934 -2.6679 -0.8187
  391MOL0     H52743  10.652   9.081   2.089 -0.4044 -3.3757 -1.6936
  391MOL0     H52744  10.524   9.213   2.046 -0.1451 -0.1838  0.6335
  391MOL0     H52745  10.871   9.192   1.765 -0.2362 -1.3603  1.2936
  391MOL0     H52746  11.116   9.288   1.832 -1.5693  0.9565 -1.8854
  391MOL0     H52747  11.487   9.325   2.133  1.2103 -0.1675  0.3321
  391MOL0     H52748  11.653   9.335   2.275  0.4038  1.8427  0.1351
  391MOL0     H52749  11.599   9.585   2.621 -1.0903 -1.7100 -0.8476
  391MOL0     H52750  11.606   9.430   2.723  3.6658 -1.3897  1.2149
  391MOL0     H52751  11.767   9.580   2.805  1.3495 -2.2168  1.9740
  391MOL0     H52752  11.834   9.448   2.719 -1.8654  0.8305  1.5943
  391MOL0     H52753  11.894   9.597   2.528  0.8257  0.7253 -0.5318
  391MOL0     H52754  11.821   9.740   2.618  0.9829  0.4170  1.0683
  391MOL0     H52755  12.036   9.556   2.716 -0.6202 -0.6220 -2.4881
  391MOL0     H52756  11.973   9.689   2.809  1.0955 -1.1667  0.4117
  391MOL0     H52757  12.075   9.860   2.679  2.7127 -0.2873  0.6955
  391MOL0     H52758  12.092   9.758   2.539 -0.4190  1.2110 -1.0808
  391MOL0     H52759  12.286   9.817   2.632 -0.4367 -0.3080 -0.4830
  391MOL0     H52760  12.229   9.768   2.796  0.9146 -0.2587  1.1212
  391MOL0     H52761  12.315   9.574   2.562  2.2050  0.0810 -0.4403
  391MOL0     H52762  12.255   9.529   2.733 -2.9279  2.5460  0.3595
  391MOL0     H52763  12.506   9.667   2.650  2.5096 -0.7739  0.9472
  391MOL0     H52764  12.456   9.641   2.818 -1.2791 -0.1657  1.5358
  391MOL0     H52765  11.394   9.459   2.595 -0.5938  3.4701 -0.8234
  391MOL0     H52766  11.201   9.420   2.435  0.5208  0.6632  1.6432
  391MOL0     H52767  10.970   9.340   2.226 -2.2752 -0.0526  0.6025
  391MOL0     H52768  10.737   9.259   2.145  0.0411 -2.6332 -0.8208
  391MOL0     H52769   9.346   8.147   2.725 -1.7689  0.4382  2.1785
  391MOL0     H52770   9.121   8.072   2.664  0.3064  0.7286  0.9991
  391MOL0     H52771   8.706   8.252   2.468  1.4786 -0.7199 -0.6920
  391MOL0     H52772   8.489   8.219   2.396 -2.8987  1.9809  2.0804
  391MOL0     H52773   8.343   7.810   2.435 -1.2362 -1.1042 -1.8037
  391MOL0     H52774   8.218   7.883   2.350  2.9021 -1.4563 -1.0110
  391MOL0     H52775   8.128   7.972   2.589  0.6496  1.4934 -4.0241
  391MOL0     H52776   8.233   7.863   2.659 -0.1383 -0.5865 -0.0587
  391MOL0     H52777   8.025   7.794   2.453 -2.1767  0.5004  1.6669
  391MOL0     H52778   8.010   7.739   2.624  0.9582 -0.5678  0.6664
  391MOL0     H52779   8.198   7.632   2.390 -0.2525 -0.5539 -0.2962
  391MOL0     H52780   8.224   7.596   2.564 -0.2921 -0.4609 -0.2125
  391MOL0     H52781   7.967   7.300   2.435  2.3101 -1.6925  2.7770
  391MOL0     H52782   8.467   7.868   2.655  0.0920 -0.7236 -0.0324
  391MOL0     H52783   8.665   7.784   2.733  2.8611 -0.9003 -0.6472
  391MOL0     H52784   8.797   7.885   2.792 -0.8748 -0.4079  3.4742
  391MOL0     H52785   8.643   7.905   2.864 -0.8009  1.0023 -0.3521
  392MOL0     O52786   3.400   9.623  10.555  0.0557  1.0588 -0.2605
  392MOL0     C52787   3.390   9.522  10.624  0.2287  0.5313 -0.2808
  392MOL0     O52788   3.498   9.439  10.651  0.4628  0.3498 -0.2130
  392MOL0     C52789   3.623   9.467  10.594 -0.3104  0.1676 -0.7690
  392MOL0     C52790   3.705   9.357  10.562  0.5716  0.2492 -0.3010
  392MOL0     C52791   3.835   9.367  10.515  0.1590 -0.4282  0.3624
  392MOL0     C52792   3.897   9.502  10.503 -0.4992 -0.3353  0.0907
  392MOL0     O52793   4.031   9.540  10.469 -0.1661 -0.0940 -0.0471
  392MOL0     C52794   4.129   9.433  10.482  0.5962 -0.1268 -0.4910
  392MOL0     C52795   4.269   9.487  10.463 -0.2156  0.7966 -0.7415
  392MOL0     C52796   4.369   9.366  10.482  0.6580  0.6827 -0.0421
  392MOL0     C52797   4.396   9.266  10.359  0.6648 -0.2015  0.3244
  392MOL0     C52798   4.481   9.151  10.416 -0.3857  0.9921 -0.4050
  392MOL0     C52799   4.397   9.033  10.461  0.5093 -0.6774 -0.2182
  392MOL0     C52800   4.478   8.925  10.532 -0.1104 -0.4780 -0.9452
  392MOL0     C52801   4.486   8.947  10.691  0.3994 -0.5104  0.1470
  392MOL0     N52802   4.518   8.829  10.765  0.2821 -0.0451 -0.4967
  392MOL0     C52803   4.432   8.720  10.787 -0.0748  0.1929 -0.9773
  392MOL0     C52804   4.501   8.633  10.860  0.1671  0.1933 -0.2924
  392MOL0     C52805   4.432   8.524  10.946 -0.2095  0.1370 -0.3821
  392MOL0     C52806   4.511   8.392  10.944  0.2352 -0.4309 -0.0126
  392MOL0     C52807   4.450   8.285  11.034  0.0951  0.4321 -0.2923
  392MOL0     C52808   4.341   8.193  10.953 -0.1881 -0.1034 -0.1269
  392MOL0     O52809   4.231   8.266  10.890 -0.0626  0.1123 -0.2649
  392MOL0     C52810   4.108   8.221  10.926  0.1396  0.0826 -0.2136
  392MOL0     C52811   4.063   8.088  10.924 -0.4826 -0.6275  0.3036
  392MOL0     C52812   3.935   8.069  10.978 -0.5129 -0.0587 -0.3824
  392MOL0     C52813   3.854   8.173  11.024 -0.2926  0.3937 -0.7716
  392MOL0     C52814   3.709   8.148  11.075 -0.0744  0.4570 -0.4553
  392MOL0     O52815   3.652   8.024  11.041 -0.0881 -0.0249  0.5044
  392MOL0     C52816   3.536   7.994  11.111 -0.0687  0.1885  0.9439
  392MOL0     C52817   3.413   8.052  11.072 -0.2915 -0.4435 -0.1536
  392MOL0     C52818   3.299   8.030  11.153  0.3777  0.5279  0.0970
  392MOL0     C52819   3.302   7.964  11.279  0.1957 -0.2093  0.0901
  392MOL0     O52820   3.184   7.947  11.348  0.4750 -0.2424  0.1656
  392MOL0     C52821   3.118   8.065  11.397 -0.1396 -0.0924  0.5688
  392MOL0     C52822   2.993   8.016  11.484 -0.1058 -0.2657 -0.2552
  392MOL0     C52823   2.904   8.148  11.515 -1.6323 -0.5556 -0.9737
  392MOL0     C52824   2.782   8.124  11.602 -1.2729 -0.1537 -0.2175
  392MOL0     C52825   2.698   8.245  11.641 -1.0376 -1.2300 -0.1013
  392MOL0     C52826   2.579   8.210  11.734 -0.2494  0.5025 -0.4646
  392MOL0     C52827   2.611   8.169  11.883  0.1762  0.9372  0.2883
  392MOL0     C52828   2.479   8.134  11.956 -0.4547  0.2339 -0.8316
  392MOL0    Cl52829   2.418   7.981  11.894 -0.1086  0.1467  0.1876
  392MOL0     C52830   3.421   7.900  11.314 -0.4252  0.3632  0.3671
  392MOL0     C52831   3.532   7.908  11.222  0.1332  0.8120 -0.0825
  392MOL0     O52832   3.660   8.234  11.146  0.0076 -0.6679 -0.3428
  392MOL0     C52833   3.900   8.303  11.030 -0.7202 -0.1090  0.9407
  392MOL0     C52834   4.030   8.329  10.978 -0.1266 -0.4866  0.2614
  392MOL0     N52835   4.626   8.677  10.882 -0.3563 -0.1752 -0.2339
  392MOL0     N52836   4.635   8.797  10.822  0.2530  0.6625 -0.1039
  392MOL0     C52837   3.815   9.613  10.524 -0.1316 -1.2409 -0.4692
  392MOL0     C52838   3.683   9.597  10.569 -0.9747  0.7953  0.0144
  392MOL0     C52839   3.258   9.474  10.682  0.0215 -0.1839  0.0224
  392MOL0     C52840   3.265   9.377  10.779 -0.2596  0.6311 -0.1593
  392MOL0     C52841   3.153   9.317  10.843  0.1841 -0.2088  0.6678
  392MOL0     C52842   3.026   9.359  10.811  0.5037  0.1793  0.1623
  392MOL0     O52843   2.916   9.316  10.874 -0.2087  0.0204  0.1023
  392MOL0     C52844   2.926   9.224  10.991 -0.3926  0.1700 -0.3498
  392MOL0     C52845   2.790   9.222  11.060  0.1237 -0.6833  0.6878
  392MOL0     C52846   2.786   9.123  11.185 -0.1806 -0.5167 -0.1345
  392MOL0     C52847   2.655   9.087  11.238  0.7445 -0.1651  0.3632
  392MOL0     C52848   2.571   9.025  11.135 -0.2319  0.4056 -0.8503
  392MOL0     C52849   2.516   8.976  11.038  0.1337  0.6128  0.3664
  392MOL0     C52850   3.016   9.455  10.713 -0.1909 -0.7601  0.5455
  392MOL0     C52851   3.127   9.517  10.644  0.6056  0.0931 -0.2151
  392MOL0     C52852   3.105   9.622  10.538 -0.6467  0.4099  0.6951
  392MOL0     H52853   3.673   9.256  10.583  0.6258  0.2729 -0.0988
  392MOL0     H52854   3.898   9.283  10.487  0.1553  0.1286 -1.4001
  392MOL0     H52855   4.125   9.393  10.584 -4.1209 -0.8007 -0.7132
  392MOL0     H52856   4.105   9.353  10.413  3.2584  1.3412 -3.4001
  392MOL0     H52857   4.297   9.572  10.527  0.8101 -0.6250  0.7807
  392MOL0     H52858   4.284   9.523  10.361  1.1089 -0.9945 -1.2207
  392MOL0     H52859   4.342   9.306  10.570 -1.0762 -0.2607 -1.1690
  392MOL0     H52860   4.464   9.413  10.509 -0.2062  1.4259  1.9682
  392MOL0     H52861   4.301   9.222  10.326  2.6233 -4.0914 -0.7820
  392MOL0     H52862   4.449   9.326  10.285 -1.0759 -0.5409 -1.2764
  392MOL0     H52863   4.552   9.107  10.345 -0.5706  0.4656 -0.2669
  392MOL0     H52864   4.556   9.177  10.492 -1.0109  0.5161  0.3973
  392MOL0     H52865   4.323   9.072  10.531  3.1075 -0.5346  2.6715
  392MOL0     H52866   4.356   8.981  10.374 -0.2458 -1.5938  0.6635
  392MOL0     H52867   4.578   8.919  10.486  0.3935  0.4012 -0.0037
  392MOL0     H52868   4.424   8.831  10.520 -0.7507 -0.1280 -0.8068
  392MOL0     H52869   4.557   9.029  10.703  0.2489 -0.3821  0.1588
  392MOL0     H52870   4.389   8.988  10.721 -0.0209 -1.2635 -0.1341
  392MOL0     H52871   4.326   8.703  10.775 -0.4335  1.7520 -0.2555
  392MOL0     H52872   4.425   8.562  11.048 -1.3521 -1.0996  0.0311
  392MOL0     H52873   4.330   8.505  10.911 -0.0135 -0.9736 -0.3730
  392MOL0     H52874   4.528   8.365  10.839 -1.4919  2.0810 -1.0245
  392MOL0     H52875   4.609   8.404  10.991 -0.9878 -1.5101  3.0855
  392MOL0     H52876   4.401   8.335  11.118 -0.8756  1.1589 -1.2551
  392MOL0     H52877   4.532   8.223  11.072  0.5562  2.0465  1.4998
  392MOL0     H52878   4.302   8.115  11.020  0.7637 -1.2782 -0.8844
  392MOL0     H52879   4.398   8.142  10.875 -0.3177  0.8103 -0.8304
  392MOL0     H52880   4.127   8.004  10.899  0.2911 -0.9562  3.0169
  392MOL0     H52881   3.899   7.966  10.980 -1.4857  0.2718 -0.4960
  392MOL0     H52882   3.415   8.118  10.986  2.0225  1.6251  1.3480
  392MOL0     H52883   3.198   8.058  11.125  1.1235  2.9900 -0.4005
  392MOL0     H52884   3.194   8.124  11.450 -1.1858  0.6137  1.3171
  392MOL0     H52885   3.074   8.117  11.312  0.3313 -1.3665 -0.4806
  392MOL0     H52886   2.933   7.945  11.427 -1.6225  2.1193 -1.7954
  392MOL0     H52887   3.044   7.968  11.568  3.1568 -1.3688 -2.6308
  392MOL0     H52888   2.979   8.213  11.562 -0.5716 -2.4487  0.0899
  392MOL0     H52889   2.863   8.208  11.433 -2.1409  0.1950 -0.1820
  392MOL0     H52890   2.819   8.070  11.690  1.3745 -0.3639 -1.3828
  392MOL0     H52891   2.713   8.053  11.555 -2.0231 -0.7102  1.5962
  392MOL0     H52892   2.678   8.303  11.550  2.6347 -0.0582 -0.3093
  392MOL0     H52893   2.760   8.311  11.702 -1.5951  0.4944 -1.3047
  392MOL0     H52894   2.509   8.293  11.722 -1.1858 -0.5591 -3.5632
  392MOL0     H52895   2.531   8.123  11.687 -0.8813 -0.5857  2.0371
  392MOL0     H52896   2.665   8.246  11.939 -0.8079  0.0202  2.6029
  392MOL0     H52897   2.675   8.081  11.895 -1.7845 -0.5121  0.6344
  392MOL0     H52898   2.508   8.112  12.060  1.6455 -0.5406 -1.5221
  392MOL0     H52899   2.404   8.213  11.958 -0.0309  0.7030 -2.4579
  392MOL0     H52900   3.410   7.840  11.404 -2.0404  1.4979  0.9838
  392MOL0     H52901   3.621   7.855  11.256  1.4257  0.9992 -2.8826
  392MOL0     H52902   3.839   8.388  11.059 -0.2831  0.5915 -0.1732
  392MOL0     H52903   4.059   8.432  10.960  2.3518 -1.4804 -2.2824
  392MOL0     H52904   3.853   9.714  10.519 -0.0101 -1.2773 -0.3067
  392MOL0     H52905   3.624   9.687  10.583 -5.5018 -1.2156 -3.5652
  392MOL0     H52906   3.358   9.332  10.815  0.7494  0.7593 -2.4645
  392MOL0     H52907   3.171   9.243  10.920  2.2175 -0.7659 -0.2653
  392MOL0     H52908   3.004   9.250  11.062  1.6718 -0.4619 -2.2632
  392MOL0     H52909   2.963   9.126  10.958 -0.9005  0.3235 -1.4363
  392MOL0     H52910   2.710   9.199  10.989  0.4506 -4.1269  1.2613
  392MOL0     H52911   2.791   9.325  11.098  0.8593 -0.8352  1.0970
  392MOL0     H52912   2.848   9.168  11.263  2.7747  0.1592 -2.6795
  392MOL0     H52913   2.834   9.029  11.158 -2.5955 -2.0506  0.6231
  392MOL0     H52914   2.665   9.025  11.328  2.2487  1.6708  1.5389
  392MOL0     H52915   2.596   9.171  11.276  0.4233  0.0457 -0.5719
  392MOL0     H52916   2.479   8.929  10.949 -3.1489  2.9569  0.3077
  392MOL0     H52917   2.919   9.495  10.685  0.9500  0.6712 -1.6165
  392MOL0     H52918   3.161   9.591  10.449  0.1753  2.6340  0.3650
  392MOL0     H52919   3.004   9.634  10.499 -0.1121 -1.2784 -1.3697
  392MOL0     H52920   3.141   9.721  10.567 -0.2518  0.6449 -0.5546
  393MOL0     O52921   7.917  10.087   3.495 -0.5984 -0.0250  0.6476
  393MOL0     C52922   7.886   9.988   3.559 -0.9124 -0.3006 -0.3314
  393MOL0     O52923   7.944   9.961   3.681 -0.2937 -0.2122 -0.1267
  393MOL0     C52924   8.069  10.016   3.713  0.7162  0.2796 -0.5147
  393MOL0     C52925   8.086  10.087   3.831  0.5256 -0.7516  0.3373
  393MOL0     C52926   8.211  10.146   3.847  0.8975 -0.8139  0.8076
  393MOL0     C52927   8.325  10.126   3.769  0.4202 -0.4275 -0.9450
  393MOL0     O52928   8.441  10.195   3.797  0.3489 -0.8294 -0.3916
  393MOL0     C52929   8.552  10.155   3.717  0.4418 -0.3692 -1.0464
  393MOL0     C52930   8.673  10.245   3.751  0.6298  0.4000 -0.0499
  393MOL0     C52931   8.803  10.181   3.696 -0.5157  0.3932 -0.1529
  393MOL0     C52932   8.929  10.242   3.754  1.0041  0.4333 -0.3861
  393MOL0     C52933   9.049  10.189   3.683  0.1568  0.5014  0.1081
  393MOL0     C52934   9.180  10.247   3.746  0.4608 -0.2166  0.4739
  393MOL0     C52935   9.293  10.260   3.647 -0.5463 -0.8619  0.0040
  393MOL0     C52936   9.418  10.291   3.725 -0.8091  0.8130 -0.0539
  393MOL0     N52937   9.536  10.312   3.639  0.4235  0.3535  0.4379
  393MOL0     C52938   9.595  10.210   3.565  0.1241  0.3281  0.1597
  393MOL0     C52939   9.660  10.277   3.459 -0.4092 -0.3636  0.4921
  393MOL0     C52940   9.762  10.216   3.364 -0.7357 -0.3426  0.0254
  393MOL0     C52941   9.882  10.315   3.347  0.2009  0.3454  0.5716
  393MOL0     C52942   9.971  10.315   3.462 -0.7169 -0.2361  0.4533
  393MOL0     C52943  10.099  10.395   3.434 -0.3305  0.0968 -0.6447
  393MOL0     O52944  10.197  10.323   3.354 -0.4918 -0.7202  0.2386
  393MOL0     C52945  10.307  10.269   3.424  0.0772 -0.1464  0.4965
  393MOL0     C52946  10.408  10.209   3.345  0.5371  0.0767 -0.4123
  393MOL0     C52947  10.509  10.136   3.399 -0.6809 -1.0626 -0.1980
  393MOL0     C52948  10.515  10.117   3.542  0.6043  0.0298 -0.0946
  393MOL0     C52949  10.627  10.037   3.607  0.2806  0.2973 -0.2366
  393MOL0     O52950  10.719   9.992   3.520 -0.2368 -0.4018 -0.1094
  393MOL0     C52951  10.802   9.896   3.575  0.7857  0.3445 -0.0408
  393MOL0     C52952  10.760   9.776   3.630 -0.0833  1.0158 -0.4517
  393MOL0     C52953  10.846   9.673   3.676 -0.8540  0.2479 -1.2147
  393MOL0     C52954  10.984   9.703   3.690  0.0945  0.2784  0.3256
  393MOL0     O52955  11.065   9.599   3.727 -0.1242  0.6147 -0.9980
  393MOL0     C52956  11.183   9.636   3.806 -0.0706 -0.4206  0.2001
  393MOL0     C52957  11.234   9.524   3.899  0.4148  0.0300 -0.0091
  393MOL0     C52958  11.348   9.451   3.837  0.3443  0.5536  0.9049
  393MOL0     C52959  11.392   9.330   3.912  0.1547  0.4356 -0.7579
  393MOL0     C52960  11.491   9.256   3.830 -0.7352 -0.7107  0.1476
  393MOL0     C52961  11.545   9.130   3.910  0.2559 -0.0886 -0.1933
  393MOL0     C52962  11.684   9.155   3.954 -0.2515  0.1930 -0.2655
  393MOL0     C52963  11.749   9.025   4.004  0.2875  0.5954 -0.3888
  393MOL0    Cl52964  11.756   8.888   3.876 -0.0528  0.1497 -0.3541
  393MOL0     C52965  11.032   9.825   3.647  0.4202  0.0644 -0.2248
  393MOL0     C52966  10.938   9.918   3.587  0.7940  0.0768  1.1765
  393MOL0     O52967  10.622  10.008   3.730 -0.6654  0.8328  0.1747
  393MOL0     C52968  10.415  10.182   3.619  0.2096 -0.1528  0.9135
  393MOL0     C52969  10.314  10.257   3.564  0.5415  0.0077 -0.3177
  393MOL0     N52970   9.643  10.415   3.471  0.5434 -0.4233  0.1948
  393MOL0     N52971   9.565  10.431   3.566  0.2872  0.6263  0.3340
  393MOL0     C52972   8.301  10.041   3.662 -0.4552  0.6400 -0.1984
  393MOL0     C52973   8.175   9.991   3.631  0.3766  0.0753  0.0365
  393MOL0     C52974   7.782   9.890   3.503  0.6688 -0.0234 -0.7754
  393MOL0     C52975   7.672   9.859   3.586 -0.2220  0.0035  0.3373
  393MOL0     C52976   7.590   9.756   3.556  0.4654 -0.4762  0.1279
  393MOL0     C52977   7.606   9.690   3.436 -0.5182  0.0473 -0.4344
  393MOL0     O52978   7.506   9.603   3.407 -0.1336  0.2752 -0.2617
  393MOL0     C52979   7.500   9.561   3.268  0.2226  0.5235 -0.5167
  393MOL0     C52980   7.382   9.465   3.253  0.4380  0.4116 -0.9312
  393MOL0     C52981   7.342   9.440   3.105 -0.9252  0.5857  0.6324
  393MOL0     C52982   7.242   9.320   3.097  0.2424  0.0076 -0.4879
  393MOL0     C52983   7.188   9.322   2.958 -0.0193 -0.6620  0.4624
  393MOL0     C52984   7.133   9.322   2.848  0.2407  0.9026 -0.2113
  393MOL0     C52985   7.706   9.732   3.348 -0.1774  1.1397  0.3731
  393MOL0     C52986   7.799   9.827   3.385  0.1934 -0.5822  0.4805
  393MOL0     C52987   7.903   9.849   3.280  0.4302 -0.5324  0.0551
  393MOL0     H52988   8.008  10.122   3.897 -0.0021  2.6341 -1.8188
  393MOL0     H52989   8.225  10.217   3.928  0.7360  1.4091 -1.0234
  393MOL0     H52990   8.579  10.055   3.753 -3.0606 -0.3679  2.1841
  393MOL0     H52991   8.517  10.158   3.613 -4.2807  0.5284  0.3547
  393MOL0     H52992   8.691  10.259   3.858  1.6038  2.0520 -0.3979
  393MOL0     H52993   8.664  10.344   3.704  2.9627 -0.5278 -2.7594
  393MOL0     H52994   8.802  10.204   3.589 -0.6657  1.8856  0.1404
  393MOL0     H52995   8.814  10.073   3.709  0.3990  0.3938 -0.8410
  393MOL0     H52996   8.919  10.350   3.738 -1.5909  0.3370  0.3242
  393MOL0     H52997   8.939  10.224   3.861 -0.1099 -0.4005 -0.4023
  393MOL0     H52998   9.044  10.079   3.682 -0.7870  0.4805  1.9345
  393MOL0     H52999   9.040  10.217   3.577  1.6423 -2.4862 -0.9375
  393MOL0     H53000   9.165  10.339   3.804  1.0961  1.3807 -1.7741
  393MOL0     H53001   9.214  10.174   3.820  3.6170  0.6201  0.0045
  393MOL0     H53002   9.277  10.348   3.583  1.5441 -1.4807 -1.4636
  393MOL0     H53003   9.312  10.170   3.589  1.3202  0.4256 -1.5159
  393MOL0     H53004   9.406  10.376   3.792 -0.5796  0.8497 -0.0587
  393MOL0     H53005   9.445  10.206   3.789  2.3388  0.3408 -1.8253
  393MOL0     H53006   9.579  10.103   3.575  1.4628  0.0996  0.1250
  393MOL0     H53007   9.779  10.111   3.388  1.3220 -0.4218 -1.5089
  393MOL0     H53008   9.711  10.204   3.269 -2.1223  1.1924  0.5214
  393MOL0     H53009   9.934  10.283   3.256  1.0252 -1.2373  1.5483
  393MOL0     H53010   9.852  10.417   3.323  0.0189  0.1469 -0.0564
  393MOL0     H53011  10.003  10.218   3.502 -2.0762 -1.3862 -1.1090
  393MOL0     H53012   9.922  10.358   3.550  1.3794 -3.1418  3.3010
  393MOL0     H53013  10.138  10.430   3.530  0.6689  0.3183 -1.1166
  393MOL0     H53014  10.079  10.488   3.379 -0.7511 -0.3837 -1.3146
  393MOL0     H53015  10.389  10.219   3.238 -0.6926 -0.5819 -0.2707
  393MOL0     H53016  10.577  10.081   3.335  2.0786  0.8094  0.9394
  393MOL0     H53017  10.653   9.756   3.631 -0.2750  1.6384 -2.7017
  393MOL0     H53018  10.804   9.588   3.730 -0.0575  0.2308 -0.6011
  393MOL0     H53019  11.256   9.669   3.731 -0.0386 -0.1620  0.3431
  393MOL0     H53020  11.153   9.718   3.872 -1.2465 -0.3996 -0.3484
  393MOL0     H53021  11.264   9.567   3.995 -3.6756  0.6666  1.1792
  393MOL0     H53022  11.157   9.452   3.928 -0.6218  0.3658 -1.7485
  393MOL0     H53023  11.324   9.423   3.735  3.0769 -1.7005  0.7732
  393MOL0     H53024  11.431   9.522   3.828 -0.2344  1.0284 -0.9917
  393MOL0     H53025  11.305   9.267   3.935 -0.8932  1.6858 -1.2319
  393MOL0     H53026  11.430   9.367   4.008 -0.2691  0.9396 -0.7803
  393MOL0     H53027  11.575   9.323   3.811 -2.0122  0.8448 -0.2412
  393MOL0     H53028  11.450   9.223   3.734 -0.8882  2.2200 -0.8808
  393MOL0     H53029  11.484   9.121   4.000  0.4578  1.3916  0.1202
  393MOL0     H53030  11.531   9.037   3.854  5.4372 -1.7816  0.7644
  393MOL0     H53031  11.678   9.223   4.040  0.1574 -1.6420  1.2807
  393MOL0     H53032  11.742   9.207   3.876  0.7167  1.1629  1.0493
  393MOL0     H53033  11.849   9.050   4.040 -0.8270 -0.1530  3.7379
  393MOL0     H53034  11.706   8.993   4.099 -1.7392  0.9735 -1.1293
  393MOL0     H53035  11.136   9.853   3.656  0.7173 -0.5498 -1.4502
  393MOL0     H53036  10.968  10.011   3.539 -1.3933 -0.5634 -1.7417
  393MOL0     H53037  10.406  10.170   3.726  0.4913  0.1250  0.9697
  393MOL0     H53038  10.256  10.317   3.633 -1.1808  0.4154 -2.0331
  393MOL0     H53039   8.379  10.014   3.592  1.1903  0.3354  1.6497
  393MOL0     H53040   8.167   9.916   3.553  1.3637  0.2172 -0.2102
  393MOL0     H53041   7.641   9.914   3.675  0.7838  0.3043  0.5165
  393MOL0     H53042   7.505   9.750   3.624 -1.4264 -0.0142 -2.0749
  393MOL0     H53043   7.593   9.513   3.237  0.5862  0.7779  0.1343
  393MOL0     H53044   7.485   9.646   3.201  1.0992 -0.5868 -2.1763
  393MOL0     H53045   7.293   9.497   3.309 -1.4850 -2.1549 -2.3053
  393MOL0     H53046   7.400   9.369   3.303 -1.2235  0.5118 -0.0586
  393MOL0     H53047   7.435   9.416   3.051  0.3596  1.5740  2.3185
  393MOL0     H53048   7.301   9.537   3.075  0.5783  1.2297  0.5794
  393MOL0     H53049   7.288   9.228   3.135  1.1091  0.2098 -1.0243
  393MOL0     H53050   7.167   9.352   3.170 -0.2816  1.4976 -1.6280
  393MOL0     H53051   7.090   9.336   2.751 -1.7102 -1.3121  0.2536
  393MOL0     H53052   7.708   9.691   3.247 -1.5460  0.0504  0.7577
  393MOL0     H53053   7.998   9.818   3.325 -0.2309  0.0931  1.9743
  393MOL0     H53054   7.899   9.798   3.184 -0.6009  1.5886 -1.0945
  393MOL0     H53055   7.908   9.957   3.263  2.9048 -0.6003  0.0047
  394MOL0     O53056   2.880   0.507   7.477 -0.2349  0.2494 -0.2299
  394MOL0     C53057   2.828   0.541   7.372 -0.2045  0.7190  0.6917
  394MOL0     O53058   2.871   0.514   7.250 -0.1333  0.2313 -0.7160
  394MOL0     C53059   2.976   0.425   7.245  0.0684  0.1067 -0.2169
  394MOL0     C53060   3.113   0.474   7.228  1.5055 -0.1597  0.2038
  394MOL0     C53061   3.219   0.380   7.241 -0.1089 -0.4204  1.3316
  394MOL0     C53062   3.202   0.242   7.255  0.4621 -0.8108  0.7849
  394MOL0     O53063   3.299   0.143   7.264  0.5145  0.9888 -0.4327
  394MOL0     C53064   3.429   0.169   7.215 -0.0646 -0.6649  0.6507
  394MOL0     C53065   3.524   0.043   7.220  0.3590 -0.1162  0.4269
  394MOL0     C53066   3.657   0.074   7.151  0.2223  0.1574 -0.5779
  394MOL0     C53067   3.736  -0.057   7.158  1.0566 -0.7259 -0.2634
  394MOL0     C53068   3.878  -0.047   7.102 -0.3492  0.3653  0.1114
  394MOL0     C53069   3.975   0.028   7.190  0.9556 -0.0870 -0.2002
  394MOL0     C53070   4.114   0.048   7.120 -0.1838 -0.4467  0.8018
  394MOL0     C53071   4.217   0.137   7.187  0.4510  0.3682 -0.5326
  394MOL0     N53072   4.326   0.164   7.092 -0.1990  0.4950  0.2034
  394MOL0     C53073   4.340   0.261   6.997 -0.3539  0.5395  0.2283
  394MOL0     C53074   4.465   0.252   6.944  0.4624 -0.2075 -0.7628
  394MOL0     C53075   4.527   0.335   6.831  0.0046 -0.4112  0.0321
  394MOL0     C53076   4.616   0.450   6.886 -0.0009 -0.1660 -0.1506
  394MOL0     C53077   4.741   0.387   6.951  0.3502  0.2896 -0.0889
  394MOL0     C53078   4.831   0.494   7.005 -0.2331 -0.2053  0.2716
  394MOL0     O53079   4.956   0.430   7.045 -0.0181 -0.4681 -0.8316
  394MOL0     C53080   5.067   0.510   7.060 -0.1725 -0.6414  0.4054
  394MOL0     C53081   5.177   0.437   7.104  0.6521 -0.2868 -0.7712
  394MOL0     C53082   5.293   0.506   7.128  0.4491  0.0343 -0.4713
  394MOL0     C53083   5.304   0.641   7.115  0.1010 -0.0706  0.8701
  394MOL0     C53084   5.439   0.700   7.117  0.0399 -1.0881  0.8957
  394MOL0     O53085   5.529   0.633   7.189 -0.5228 -0.1605 -0.2616
  394MOL0     C53086   5.656   0.674   7.181 -0.2147 -0.1588 -0.4318
  394MOL0     C53087   5.708   0.755   7.281  1.4085  1.0118  0.2904
  394MOL0     C53088   5.845   0.780   7.275 -0.1097  0.0513 -0.1336
  394MOL0     C53089   5.932   0.735   7.170 -0.2737 -0.7964 -0.6086
  394MOL0     O53090   6.064   0.758   7.157 -0.1614 -0.4396  0.9699
  394MOL0     C53091   6.125   0.843   7.257 -0.0361 -0.7024  0.6755
  394MOL0     C53092   6.284   0.829   7.243 -0.2808  0.3898  0.3168
  394MOL0     C53093   6.356   0.916   7.343 -0.8621 -0.3644  0.8520
  394MOL0     C53094   6.326   1.066   7.330 -0.8114  0.0221 -0.2312
  394MOL0     C53095   6.417   1.142   7.428  0.0228  0.0367  0.0884
  394MOL0     C53096   6.375   1.291   7.444 -0.4614 -1.0876  0.0007
  394MOL0     C53097   6.434   1.372   7.560  1.0634  0.3851  0.2449
  394MOL0     C53098   6.581   1.343   7.575  0.2461  0.4020 -0.8592
  394MOL0    Cl53099   6.616   1.456   7.709 -0.5369  0.3006 -0.1068
  394MOL0     C53100   5.876   0.649   7.079 -0.8377 -0.6276  0.3163
  394MOL0     C53101   5.740   0.606   7.094  0.1684 -0.1301  0.6937
  394MOL0     O53102   5.462   0.798   7.052 -0.1209 -0.7184  0.8047
  394MOL0     C53103   5.194   0.719   7.077 -0.5284  0.6627 -0.6315
  394MOL0     C53104   5.068   0.655   7.056 -0.6800 -0.2856  0.2898
  394MOL0     N53105   4.519   0.146   7.010  0.3744  0.3006 -0.2371
  394MOL0     N53106   4.438   0.096   7.097  0.0414  0.5326 -0.2659
  394MOL0     C53107   3.073   0.200   7.267 -0.2559  0.4002  0.1722
  394MOL0     C53108   2.961   0.283   7.260  0.5478 -0.7176 -0.7409
  394MOL0     C53109   2.692   0.599   7.379  0.2813 -0.9658  0.1733
  394MOL0     C53110   2.604   0.564   7.272  0.6576 -0.1451  0.8969
  394MOL0     C53111   2.479   0.606   7.270  0.4427  0.3265 -0.0704
  394MOL0     C53112   2.427   0.684   7.372  0.1184 -0.2928  0.0976
  394MOL0     O53113   2.306   0.742   7.372 -0.0136  0.1151 -0.6985
  394MOL0     C53114   2.216   0.713   7.266 -0.6135  0.3191 -0.3853
  394MOL0     C53115   2.085   0.764   7.292  0.1982  0.5265  0.2100
  394MOL0     C53116   2.079   0.914   7.286 -0.6283 -0.6580  0.2914
  394MOL0     C53117   1.947   0.967   7.237  0.2649 -0.1499  0.6768
  394MOL0     C53118   1.837   0.957   7.335  0.3484  0.5330  0.3169
  394MOL0     C53119   1.750   0.981   7.412  0.4786 -0.1257 -0.5417
  394MOL0     C53120   2.516   0.727   7.466  0.1457 -0.5107  0.2103
  394MOL0     C53121   2.648   0.685   7.481 -0.6905 -0.5836  0.2377
  394MOL0     C53122   2.736   0.744   7.589 -0.4550 -0.5158 -0.1046
  394MOL0     H53123   3.135   0.578   7.207  2.0519  0.0242  1.5498
  394MOL0     H53124   3.317   0.419   7.217  0.7853 -2.2906  1.8101
  394MOL0     H53125   3.422   0.199   7.110 -0.0480 -0.7828  0.6161
  394MOL0     H53126   3.461   0.248   7.284 -1.6207 -2.5550  3.7258
  394MOL0     H53127   3.479  -0.044   7.172  1.4317  0.7351 -2.2745
  394MOL0     H53128   3.541   0.011   7.323 -1.9872  1.6095  1.4536
  394MOL0     H53129   3.712   0.154   7.201  2.8027 -2.3059  0.8687
  394MOL0     H53130   3.645   0.117   7.052  0.7293  2.0654  0.1585
  394MOL0     H53131   3.744  -0.088   7.263  0.2339 -3.5587 -0.9522
  394MOL0     H53132   3.682  -0.133   7.101 -2.6865  1.9480 -0.5673
  394MOL0     H53133   3.909  -0.150   7.080 -0.3404  0.5913 -0.9842
  394MOL0     H53134   3.870   0.003   7.005  0.1845  2.2931  1.0300
  394MOL0     H53135   3.928   0.123   7.217 -4.2227 -2.6561  1.2110
  394MOL0     H53136   3.985  -0.033   7.281 -0.7315  0.0479  0.1040
  394MOL0     H53137   4.086   0.093   7.024 -1.3070  2.3294  2.3150
  394MOL0     H53138   4.156  -0.050   7.097 -2.1796 -1.7562  2.3385
  394MOL0     H53139   4.167   0.227   7.224 -2.2129 -0.6110 -1.4768
  394MOL0     H53140   4.247   0.077   7.273  1.8277  2.1932  0.3290
  394MOL0     H53141   4.260   0.328   6.966 -0.7924  0.5558  1.3665
  394MOL0     H53142   4.587   0.269   6.767 -0.1532  0.1399 -0.7011
  394MOL0     H53143   4.455   0.386   6.767  1.5009  1.4884 -0.2338
  394MOL0     H53144   4.648   0.508   6.799 -2.5852  1.0551 -0.3761
  394MOL0     H53145   4.565   0.513   6.959  2.1065  1.3236  0.1183
  394MOL0     H53146   4.796   0.333   6.874  1.6453  3.0768 -1.2507
  394MOL0     H53147   4.702   0.316   7.025 -0.9846  0.0777 -0.9735
  394MOL0     H53148   4.784   0.546   7.089 -0.5703 -0.5853  0.3206
  394MOL0     H53149   4.859   0.569   6.931  3.3504  0.0095  1.6584
  394MOL0     H53150   5.173   0.329   7.096 -0.6736 -0.3754  0.6211
  394MOL0     H53151   5.378   0.448   7.160  1.4102  2.3683  1.5093
  394MOL0     H53152   5.649   0.805   7.357 -2.1682 -0.0303 -1.5464
  394MOL0     H53153   5.885   0.853   7.344  3.5836 -3.0033  1.3300
  394MOL0     H53154   6.087   0.941   7.229  0.9797 -1.4508 -4.0451
  394MOL0     H53155   6.101   0.806   7.358  2.2813 -3.7285  0.2636
  394MOL0     H53156   6.311   0.725   7.261 -0.6226 -0.1416 -1.8910
  394MOL0     H53157   6.315   0.848   7.139 -1.3435  1.1809  0.1182
  394MOL0     H53158   6.329   0.887   7.445  2.8029  1.6945  2.6102
  394MOL0     H53159   6.465   0.906   7.345 -0.9783 -1.8697  0.6221
  394MOL0     H53160   6.223   1.091   7.359 -0.6378 -0.4924  0.8740
  394MOL0     H53161   6.340   1.096   7.226  2.6422  1.6183  0.5885
  394MOL0     H53162   6.520   1.138   7.391 -1.1205 -1.0368 -3.3510
  394MOL0     H53163   6.416   1.116   7.534 -0.0033  2.4990  0.7433
  394MOL0     H53164   6.398   1.354   7.357 -0.4707 -1.0128  0.0518
  394MOL0     H53165   6.267   1.298   7.460 -0.2383  1.0299  0.9986
  394MOL0     H53166   6.372   1.347   7.646 -1.5873 -0.7132 -1.8328
  394MOL0     H53167   6.412   1.477   7.537 -1.2993 -0.2606 -0.7406
  394MOL0     H53168   6.606   1.244   7.613 -0.4142  0.3974 -0.4259
  394MOL0     H53169   6.633   1.373   7.484 -0.5667 -0.4541 -1.6315
  394MOL0     H53170   5.937   0.604   7.002 -0.4192 -0.1689  0.3773
  394MOL0     H53171   5.717   0.510   7.047  1.1290  0.9142 -2.1254
  394MOL0     H53172   5.208   0.827   7.084  1.5803  0.5428 -2.1874
  394MOL0     H53173   4.976   0.712   7.044 -0.0350  0.4527 -1.4610
  394MOL0     H53174   3.059   0.092   7.269  0.5752  0.1259 -3.3329
  394MOL0     H53175   2.865   0.239   7.281  0.8659 -2.1976 -2.1741
  394MOL0     H53176   2.636   0.494   7.195 -2.0531 -0.3968 -0.1534
  394MOL0     H53177   2.408   0.570   7.196  1.4664 -1.5162 -0.2112
  394MOL0     H53178   2.199   0.606   7.250 -3.4443  0.8898 -1.9211
  394MOL0     H53179   2.255   0.766   7.178 -0.2593  1.6383  0.5288
  394MOL0     H53180   2.060   0.727   7.392 -0.4257  1.8138  0.5534
  394MOL0     H53181   2.008   0.715   7.232  0.4061 -0.1234  0.4633
  394MOL0     H53182   2.161   0.950   7.223 -2.0326  2.0397 -0.1491
  394MOL0     H53183   2.106   0.958   7.383 -1.1727  0.5304 -0.0682
  394MOL0     H53184   1.961   1.071   7.206 -1.7134 -0.6052 -2.0853
  394MOL0     H53185   1.915   0.910   7.149  0.3009  1.2818 -0.3037
  394MOL0     H53186   1.667   0.994   7.478  2.7319  1.9948  2.1050
  394MOL0     H53187   2.481   0.808   7.528 -1.0854  0.2199 -1.3697
  394MOL0     H53188   2.749   0.670   7.669 -0.9023 -0.2564  0.2125
  394MOL0     H53189   2.833   0.767   7.545 -0.6033  0.5660  0.1228
  394MOL0     H53190   2.715   0.841   7.634  2.9106 -0.0139  0.6153
  395MOL0     O53191  10.434  10.288   2.007  0.8501  0.7201  0.1119
  395MOL0     C53192  10.319  10.330   2.027  0.1992 -0.4978 -0.1251
  395MOL0     O53193  10.288  10.416   2.128 -0.6127  0.4949  0.2928
  395MOL0     C53194  10.391  10.469   2.202  0.6800 -0.1589 -0.2095
  395MOL0     C53195  10.512  10.510   2.158  0.8553  1.0512  1.0305
  395MOL0     C53196  10.596  10.564   2.249  0.1726  0.4639 -0.0928
  395MOL0     C53197  10.570  10.582   2.380  0.6956  0.8558 -0.8388
  395MOL0     O53198  10.672  10.615   2.463  0.2277 -0.4374 -0.0163
  395MOL0     C53199  10.662  10.584   2.601 -0.0591  0.5650 -0.1021
  395MOL0     C53200  10.790  10.605   2.684 -0.2114 -0.4086  0.5086
  395MOL0     C53201  10.821  10.758   2.681  0.7415 -0.4661  0.2832
  395MOL0     C53202  10.961  10.781   2.734 -0.3361 -0.2705 -0.4297
  395MOL0     C53203  11.010  10.918   2.688 -0.1652 -0.2764 -0.3511
  395MOL0     C53204  11.056  10.910   2.545 -0.2888 -0.2498 -0.0564
  395MOL0     C53205  11.205  10.849   2.542 -0.1623 -0.2411 -0.2972
  395MOL0     C53206  11.255  10.848   2.406 -0.6749 -0.7400  1.2069
  395MOL0     N53207  11.322  10.978   2.367  0.2270  0.1013 -0.1030
  395MOL0     C53208  11.444  11.022   2.415 -0.2189  0.2396  0.1449
  395MOL0     C53209  11.448  11.151   2.376 -0.2469  0.8216  0.0265
  395MOL0     C53210  11.550  11.253   2.425  0.3998 -0.1001  0.1638
  395MOL0     C53211  11.686  11.193   2.413 -0.0998  0.1904  0.9230
  395MOL0     C53212  11.805  11.290   2.439  1.3167  0.4940 -0.8068
  395MOL0     C53213  11.939  11.229   2.431 -0.6938  0.5856 -0.1347
  395MOL0     O53214  11.950  11.132   2.536 -0.1463 -0.1119  0.1746
  395MOL0     C53215  12.074  11.085   2.563 -0.6690  0.9314 -0.0290
  395MOL0     C53216  12.107  11.028   2.686  0.2176  0.0611  0.6017
  395MOL0     C53217  12.236  10.986   2.720  0.0648 -0.8438  0.6790
  395MOL0     C53218  12.333  10.973   2.623 -0.5449 -0.1806 -0.1035
  395MOL0     C53219  12.466  10.907   2.652 -0.4528 -0.1486  0.0604
  395MOL0     O53220  12.525  10.841   2.549 -0.3673  0.4959  0.6564
  395MOL0     C53221  12.650  10.781   2.567 -0.8633 -0.4622  0.5598
  395MOL0     C53222  12.668  10.641   2.587 -0.1506 -0.9802 -1.3639
  395MOL0     C53223  12.798  10.595   2.600  0.2556 -0.3233 -0.0824
  395MOL0     C53224  12.913  10.677   2.573 -0.2534  0.0250 -0.3118
  395MOL0     O53225  13.040  10.621   2.561 -0.2574  0.4075  0.0011
  395MOL0     C53226  13.075  10.491   2.602 -0.4556  1.1685 -0.0650
  395MOL0     C53227  13.225  10.481   2.614 -0.2523 -0.0234  0.3281
  395MOL0     C53228  13.303  10.504   2.481  0.5195  0.2218 -0.8913
  395MOL0     C53229  13.285  10.389   2.389  0.6867  0.8136  0.1514
  395MOL0     C53230  13.377  10.399   2.261  0.1279 -0.5345 -0.0717
  395MOL0     C53231  13.414  10.263   2.187  0.8513  0.0645 -0.3630
  395MOL0     C53232  13.439  10.142   2.275  0.3578 -0.6743  0.2257
  395MOL0     C53233  13.547  10.051   2.223  0.0898 -0.3765 -0.1292
  395MOL0    Cl53234  13.531   9.965   2.062  0.1600  0.2165 -0.4207
  395MOL0     C53235  12.897  10.820   2.549 -0.1703  0.9099 -0.2452
  395MOL0     C53236  12.762  10.865   2.551 -0.0572  0.7587  0.3568
  395MOL0     O53237  12.516  10.912   2.763 -0.0342 -0.2583 -0.0382
  395MOL0     C53238  12.309  11.032   2.498 -0.6501 -0.8833  0.3958
  395MOL0     C53239  12.185  11.086   2.467  0.1104 -0.4766 -1.1749
  395MOL0     N53240  11.345  11.175   2.290  0.3696  0.4419  0.7344
  395MOL0     N53241  11.264  11.071   2.291 -0.3468 -0.2394  0.0779
  395MOL0     C53242  10.446  10.537   2.427  0.1930 -0.1854 -0.0631
  395MOL0     C53243  10.350  10.488   2.338 -0.1912 -0.3417  0.2660
  395MOL0     C53244  10.205  10.291   1.940  0.4168  0.3058 -0.3870
  395MOL0     C53245  10.080  10.364   1.945 -0.4669  1.0121 -0.9357
  395MOL0     C53246   9.973  10.332   1.860  0.7750 -0.3581  0.2631
  395MOL0     C53247   9.976  10.227   1.779 -0.5229 -0.3790  0.6360
  395MOL0     O53248   9.874  10.206   1.694 -0.9577  0.2262 -0.1657
  395MOL0     C53249   9.911  10.176   1.558  0.5395 -0.3632 -0.6489
  395MOL0     C53250   9.956  10.303   1.494  0.6753 -0.1758  0.3232
  395MOL0     C53251   9.876  10.431   1.513  0.4942  0.4054  0.5951
  395MOL0     C53252   9.723  10.409   1.512  0.0195 -0.9915 -0.4474
  395MOL0     C53253   9.680  10.371   1.382 -0.6694 -0.3512  0.2556
  395MOL0     C53254   9.654  10.318   1.277 -0.6027 -0.6752 -0.1245
  395MOL0     C53255  10.095  10.153   1.775 -0.2343  0.1381 -0.1919
  395MOL0     C53256  10.206  10.184   1.851 -0.0051  0.2662 -0.2116
  395MOL0     C53257  10.315  10.077   1.847  0.0499 -0.3654 -0.0764
  395MOL0     H53258  10.541  10.508   2.054  1.8216 -0.3656  1.2960
  395MOL0     H53259  10.691  10.604   2.215  1.2482 -1.4141  0.5470
  395MOL0     H53260  10.583  10.641   2.651 -0.8091 -1.8702  1.6954
  395MOL0     H53261  10.650  10.475   2.609 -0.0636  0.6851  2.2010
  395MOL0     H53262  10.878  10.552   2.647  0.9449  1.2550  0.7657
  395MOL0     H53263  10.770  10.561   2.782 -0.1410 -3.6184 -0.7879
  395MOL0     H53264  10.740  10.802   2.739 -2.2737 -3.6478 -1.1492
  395MOL0     H53265  10.820  10.797   2.579  0.6774  0.8155  0.7506
  395MOL0     H53266  10.946  10.786   2.843 -1.6385 -0.8827 -0.5679
  395MOL0     H53267  11.028  10.700   2.704  2.5955  3.1903 -4.2714
  395MOL0     H53268  10.931  10.993   2.686 -0.2676 -0.3492  0.4765
  395MOL0     H53269  11.087  10.950   2.758 -0.8828 -1.1511  0.8809
  395MOL0     H53270  10.997  10.848   2.477 -0.1829  0.5178 -0.8667
  395MOL0     H53271  11.055  11.010   2.501 -0.9698 -1.0886 -2.0430
  395MOL0     H53272  11.214  10.748   2.583  1.9893  0.4328  1.0723
  395MOL0     H53273  11.271  10.910   2.604 -0.8388  2.0978 -1.7289
  395MOL0     H53274  11.331  10.771   2.385 -0.2444 -1.1447  3.8957
  395MOL0     H53275  11.174  10.825   2.336  1.7055 -1.4093 -1.5194
  395MOL0     H53276  11.508  10.978   2.490 -1.2327 -0.5102  0.6005
  395MOL0     H53277  11.543  11.341   2.360 -0.2268 -0.1075  0.2120
  395MOL0     H53278  11.526  11.284   2.528 -0.8535 -2.0410  0.4979
  395MOL0     H53279  11.694  11.113   2.487 -0.5215  3.0819  4.3303
  395MOL0     H53280  11.705  11.157   2.311  0.9653  1.2029  0.7506
  395MOL0     H53281  11.791  11.341   2.534 -4.3058 -0.1691 -0.9518
  395MOL0     H53282  11.802  11.374   2.368 -0.3163  1.4953  0.3871
  395MOL0     H53283  12.015  11.307   2.434  0.2494 -0.3284  1.0280
  395MOL0     H53284  11.944  11.169   2.339 -0.2431 -1.4781  1.1781
  395MOL0     H53285  12.024  11.019   2.756  0.2089 -1.0827  0.4522
  395MOL0     H53286  12.253  10.961   2.824 -2.4087 -0.3263  1.2678
  395MOL0     H53287  12.591  10.565   2.595  0.0017 -0.9579  0.7667
  395MOL0     H53288  12.813  10.489   2.617 -0.2864  0.0877  4.1187
  395MOL0     H53289  13.015  10.475   2.692 -0.3959  1.2072 -0.0173
  395MOL0     H53290  13.039  10.411   2.537 -2.0415  2.6741 -1.1127
  395MOL0     H53291  13.262  10.556   2.685 -0.6657 -1.3195  1.9726
  395MOL0     H53292  13.243  10.380   2.654 -0.7053 -0.6529 -1.0052
  395MOL0     H53293  13.276  10.600   2.435 -0.1108  0.8079  0.6511
  395MOL0     H53294  13.408  10.518   2.509  0.1210  0.9271  0.3256
  395MOL0     H53295  13.180  10.379   2.361  0.5339  0.0758  0.9634
  395MOL0     H53296  13.322  10.306   2.449 -2.7932 -0.4889  0.7152
  395MOL0     H53297  13.475  10.445   2.275  0.9354 -2.0918 -0.4231
  395MOL0     H53298  13.329  10.476   2.200  1.0965  1.0586  1.1048
  395MOL0     H53299  13.326  10.227   2.133  1.8902 -1.4711 -1.0933
  395MOL0     H53300  13.500  10.281   2.121  0.2548 -0.0308 -1.1919
  395MOL0     H53301  13.343  10.092   2.292  0.1189  0.2017  1.7170
  395MOL0     H53302  13.473  10.176   2.374  1.8711 -1.9543  0.1809
  395MOL0     H53303  13.631  10.116   2.195  0.4312 -0.8371 -0.1854
  395MOL0     H53304  13.572   9.983   2.305  0.4683  0.5704  0.5547
  395MOL0     H53305  12.978  10.890   2.529  1.4201 -0.7297  0.1352
  395MOL0     H53306  12.748  10.971   2.535 -1.2416  0.2839 -2.1972
  395MOL0     H53307  12.380  11.025   2.416 -0.6578  2.3362 -0.0038
  395MOL0     H53308  12.152  11.112   2.367 -0.0671  3.4124 -0.2557
  395MOL0     H53309  10.413  10.526   2.530  0.6067  1.4441  0.2571
  395MOL0     H53310  10.266  10.438   2.384  0.7808 -0.5900  1.8719
  395MOL0     H53311  10.068  10.443   2.018  0.4063 -1.4756  2.1079
  395MOL0     H53312   9.888  10.399   1.857  0.7273 -0.4644 -1.4990
  395MOL0     H53313   9.821  10.146   1.503  1.5475 -0.2098 -2.4465
  395MOL0     H53314   9.982  10.097   1.532  1.9954  1.1499 -1.4903
  395MOL0     H53315   9.942  10.289   1.386  1.0781  0.9998  0.1073
  395MOL0     H53316  10.061  10.330   1.503  0.6960  0.2699 -1.0905
  395MOL0     H53317   9.910  10.499   1.435 -0.4415  0.3035  0.0812
  395MOL0     H53318   9.901  10.477   1.609  2.1227  1.4889 -0.3123
  395MOL0     H53319   9.706  10.333   1.589  1.5714 -1.6687 -0.7249
  395MOL0     H53320   9.678  10.503   1.544  1.5354 -0.3892  0.0145
  395MOL0     H53321   9.627  10.277   1.182 -1.7968  0.8197 -0.4723
  395MOL0     H53322  10.115  10.065   1.713 -2.0001 -0.5596  0.1592
  395MOL0     H53323  10.389  10.110   1.773 -1.4036  2.5930 -0.3592
  395MOL0     H53324  10.365  10.078   1.945 -2.1666  1.0281  1.1395
  395MOL0     H53325  10.277   9.976   1.832  1.7237 -1.1128  0.4938
  396MOL0     O53326   2.557   6.232   5.787  0.6774 -0.5740  0.1950
  396MOL0     C53327   2.491   6.180   5.702  0.5237 -0.3071  0.0170
  396MOL0     O53328   2.538   6.124   5.590  0.5930  0.1095  0.3082
  396MOL0     C53329   2.666   6.140   5.561  0.9136 -0.1736 -0.3300
  396MOL0     C53330   2.695   6.229   5.460 -1.3178 -1.7363  0.3527
  396MOL0     C53331   2.830   6.253   5.427 -0.2673  0.0830  0.2278
  396MOL0     C53332   2.931   6.168   5.477 -0.9076  0.1768 -0.6065
  396MOL0     O53333   3.062   6.193   5.444 -0.2978 -0.0052 -0.4165
  396MOL0     C53334   3.159   6.097   5.490 -0.1290  0.3426 -0.0913
  396MOL0     C53335   3.295   6.138   5.438 -0.8181 -0.7948 -0.2060
  396MOL0     C53336   3.351   6.254   5.513  0.3438 -0.8904  0.5804
  396MOL0     C53337   3.486   6.290   5.463 -0.3662 -0.5576  0.6665
  396MOL0     C53338   3.509   6.445   5.470 -0.4350 -0.1694 -0.1396
  396MOL0     C53339   3.642   6.491   5.399  0.5141  0.4968 -0.0451
  396MOL0     C53340   3.660   6.643   5.365  0.0176 -0.2957 -0.3508
  396MOL0     C53341   3.792   6.671   5.294  0.4699 -0.8789 -0.3666
  396MOL0     N53342   3.807   6.680   5.153  0.5132  0.4447 -0.1817
  396MOL0     C53343   3.910   6.630   5.080 -0.8772 -0.5293  0.5767
  396MOL0     C53344   3.899   6.684   4.956  0.1366 -0.2646  0.3383
  396MOL0     C53345   3.982   6.656   4.832 -0.4099  0.1846  0.1183
  396MOL0     C53346   4.135   6.647   4.868  0.0569 -0.5367 -0.2875
  396MOL0     C53347   4.225   6.618   4.747  0.1956  0.8290  0.4790
  396MOL0     C53348   4.375   6.639   4.782 -0.0693  0.3891  0.0484
  396MOL0     O53349   4.450   6.574   4.672  0.0372  0.3211 -0.5347
  396MOL0     C53350   4.584   6.577   4.671 -0.8492  0.8634  0.1485
  396MOL0     C53351   4.667   6.628   4.774  0.9717  0.0033 -0.1897
  396MOL0     C53352   4.800   6.616   4.774 -0.2096 -0.0237  0.1362
  396MOL0     C53353   4.864   6.553   4.670  0.2687  0.1865  0.5416
  396MOL0     C53354   5.011   6.552   4.679  0.3140  0.8845 -0.0240
  396MOL0     O53355   5.066   6.494   4.569  0.3620  0.1742  1.0456
  396MOL0     C53356   5.204   6.467   4.564 -0.1498 -0.7629 -0.1340
  396MOL0     C53357   5.271   6.464   4.439 -0.5728 -0.7190  0.1586
  396MOL0     C53358   5.393   6.398   4.424 -0.5463  0.0647 -1.0291
  396MOL0     C53359   5.462   6.338   4.525 -0.2504  0.1947 -0.6899
  396MOL0     O53360   5.583   6.272   4.499 -0.6251  0.2261  0.2406
  396MOL0     C53361   5.615   6.236   4.363  0.1137  1.0440  0.8067
  396MOL0     C53362   5.719   6.138   4.360 -0.1626  0.3924 -0.0172
  396MOL0     C53363   5.792   6.116   4.229 -0.5795 -0.3080  0.0469
  396MOL0     C53364   5.694   6.088   4.110  0.2234 -0.0508  0.0543
  396MOL0     C53365   5.759   6.027   3.984 -0.3392  0.6416 -0.3921
  396MOL0     C53366   5.642   5.995   3.892 -1.3395  0.0394  0.0842
  396MOL0     C53367   5.699   5.910   3.772  0.9161 -0.1856 -0.4585
  396MOL0     C53368   5.764   5.996   3.660 -0.5527  0.4029 -0.1323
  396MOL0    Cl53369   5.622   6.070   3.577 -0.3608 -0.5906  0.1616
  396MOL0     C53370   5.409   6.352   4.654 -0.2414  0.7515 -0.4913
  396MOL0     C53371   5.282   6.414   4.676  0.0980 -0.5259  0.1955
  396MOL0     O53372   5.075   6.602   4.771 -0.1450  0.0716  0.5340
  396MOL0     C53373   4.789   6.493   4.571 -0.0786 -0.2345 -0.4053
  396MOL0     C53374   4.647   6.511   4.566 -0.1362 -0.6086  0.4895
  396MOL0     N53375   3.793   6.765   4.964  0.2592  0.2613 -0.6882
  396MOL0     N53376   3.740   6.768   5.076 -0.2789 -0.3531 -0.3525
  396MOL0     C53377   2.889   6.064   5.572  0.0575 -0.3201 -0.0321
  396MOL0     C53378   2.760   6.053   5.620  0.3376  0.5637  0.0657
  396MOL0     C53379   2.345   6.206   5.707  0.1103  0.5674  0.2104
  396MOL0     C53380   2.272   6.193   5.587 -0.1585  0.3964 -0.6167
  396MOL0     C53381   2.134   6.201   5.585  1.1134 -0.2013 -0.3595
  396MOL0     C53382   2.061   6.229   5.695  0.0999 -0.2038  0.0097
  396MOL0     O53383   1.926   6.230   5.703  0.3623  0.2178  0.2394
  396MOL0     C53384   1.862   6.349   5.659  0.4239 -0.3738  0.1886
  396MOL0     C53385   1.807   6.447   5.774 -0.2649 -1.2585 -0.8499
  396MOL0     C53386   1.724   6.376   5.890 -0.0114  0.3206  0.0590
  396MOL0     C53387   1.637   6.257   5.858 -0.4152 -0.0690  0.2985
  396MOL0     C53388   1.557   6.296   5.741 -0.4052  0.7576 -0.6639
  396MOL0     C53389   1.490   6.332   5.649 -0.5443 -0.4442  0.6260
  396MOL0     C53390   2.136   6.266   5.806  0.7511  0.1835  0.1220
  396MOL0     C53391   2.271   6.252   5.820  0.4487 -0.7064 -0.6769
  396MOL0     C53392   2.337   6.288   5.952 -0.6536 -0.2377 -0.6018
  396MOL0     H53393   2.617   6.290   5.415  0.9805  1.3393  0.2213
  396MOL0     H53394   2.855   6.324   5.349 -1.6016  0.4566  0.1149
  396MOL0     H53395   3.164   6.086   5.598  0.4792 -2.7782 -0.3167
  396MOL0     H53396   3.128   6.003   5.442  1.3358 -0.1315 -0.1579
  396MOL0     H53397   3.279   6.160   5.333  1.5864  2.8754  0.0221
  396MOL0     H53398   3.371   6.060   5.431  1.9822  1.5741  1.3307
  396MOL0     H53399   3.355   6.240   5.621  1.2719  0.2974  0.7157
  396MOL0     H53400   3.276   6.330   5.493  1.0247 -0.3575 -0.0083
  396MOL0     H53401   3.567   6.234   5.513 -1.7055 -1.1236  2.2971
  396MOL0     H53402   3.500   6.260   5.358 -3.4303  0.4120 -0.0998
  396MOL0     H53403   3.421   6.485   5.420 -1.0545 -1.6037 -0.2483
  396MOL0     H53404   3.503   6.480   5.574 -0.8699 -3.6233  1.1315
  396MOL0     H53405   3.723   6.453   5.462 -1.4842 -3.0694  0.6490
  396MOL0     H53406   3.656   6.443   5.302  0.3457  0.8483 -0.2446
  396MOL0     H53407   3.646   6.710   5.451  0.3651  0.7582 -1.1027
  396MOL0     H53408   3.585   6.673   5.291 -1.2315 -2.8082 -0.2458
  396MOL0     H53409   3.811   6.774   5.327 -2.0429 -0.6878  0.7176
  396MOL0     H53410   3.868   6.605   5.337  0.1704 -1.5246 -0.8316
  396MOL0     H53411   3.978   6.556   5.120 -1.4286 -0.7255  1.1651
  396MOL0     H53412   3.951   6.559   4.794  0.5030 -1.2293  2.6986
  396MOL0     H53413   3.966   6.736   4.760  2.0348  0.7532  0.1235
  396MOL0     H53414   4.181   6.742   4.897  1.3704 -1.1284 -0.3737
  396MOL0     H53415   4.148   6.569   4.944  1.2467 -1.2343 -1.1781
  396MOL0     H53416   4.195   6.684   4.665 -2.4118 -2.2255 -1.2163
  396MOL0     H53417   4.207   6.516   4.715  0.1974  0.3521  1.9330
  396MOL0     H53418   4.400   6.591   4.877 -0.3732 -1.6415 -0.8678
  396MOL0     H53419   4.415   6.741   4.783  0.1688  0.3168 -0.9649
  396MOL0     H53420   4.627   6.677   4.862  1.7970 -0.5235  0.4959
  396MOL0     H53421   4.866   6.666   4.844 -1.3956  3.3880 -0.9471
  396MOL0     H53422   5.213   6.505   4.356 -1.9385 -1.1434  0.8637
  396MOL0     H53423   5.442   6.400   4.326 -0.2935  2.1393 -0.9031
  396MOL0     H53424   5.524   6.190   4.324  0.0199 -2.5418  4.5532
  396MOL0     H53425   5.648   6.317   4.297 -0.9060 -0.3207 -1.4960
  396MOL0     H53426   5.790   6.156   4.441  0.6767  0.9022 -0.8525
  396MOL0     H53427   5.672   6.040   4.376 -1.7161  0.8435 -1.5003
  396MOL0     H53428   5.858   6.194   4.188  0.0776 -2.2453 -2.8786
  396MOL0     H53429   5.857   6.030   4.246 -0.0595  0.3582  1.5982
  396MOL0     H53430   5.652   6.184   4.079  0.3046  0.4710  1.4786
  396MOL0     H53431   5.602   6.035   4.139 -0.2478  0.3556 -0.6585
  396MOL0     H53432   5.817   5.940   4.013  0.4853  0.7788 -1.5491
  396MOL0     H53433   5.823   6.092   3.924 -0.0902 -0.5035 -1.4002
  396MOL0     H53434   5.561   5.947   3.948 -0.1478 -2.5157 -0.2324
  396MOL0     H53435   5.586   6.082   3.856 -0.7618 -0.3981 -1.9956
  396MOL0     H53436   5.626   5.853   3.713  1.9437 -0.4469 -1.5075
  396MOL0     H53437   5.765   5.834   3.816 -1.4471 -1.6904  0.7152
  396MOL0     H53438   5.825   6.083   3.686 -0.0547  0.6359 -1.9883
  396MOL0     H53439   5.816   5.927   3.593 -0.8783  2.0071 -2.1377
  396MOL0     H53440   5.456   6.313   4.743 -2.5607  1.9834  1.3844
  396MOL0     H53441   5.236   6.407   4.775 -2.8869  1.2718 -0.9277
  396MOL0     H53442   4.846   6.437   4.498  2.7106  0.0471  1.3936
  396MOL0     H53443   4.587   6.467   4.488  1.7121 -2.0100 -0.2186
  396MOL0     H53444   2.961   5.997   5.619  0.5990 -0.3777 -0.9161
  396MOL0     H53445   2.733   5.968   5.681  1.6595 -1.4894 -2.0034
  396MOL0     H53446   2.326   6.162   5.498 -0.8335 -0.4047 -0.7570
  396MOL0     H53447   2.083   6.176   5.493 -0.0380  0.4436  0.0816
  396MOL0     H53448   1.771   6.317   5.606 -0.7684  0.0261  1.8910
  396MOL0     H53449   1.920   6.398   5.580  1.5230 -3.6467 -1.2005
  396MOL0     H53450   1.739   6.522   5.734  2.0202  0.2633 -2.1134
  396MOL0     H53451   1.893   6.502   5.814 -0.7029 -0.8461 -0.4673
  396MOL0     H53452   1.656   6.439   5.948 -1.0048  1.0122 -1.7855
  396MOL0     H53453   1.803   6.347   5.959 -0.1591  0.0670  0.1225
  396MOL0     H53454   1.696   6.172   5.823 -3.0821 -1.2038 -1.7765
  396MOL0     H53455   1.587   6.232   5.951 -1.0346  0.1536  0.0319
  396MOL0     H53456   1.421   6.373   5.578 -2.5090 -1.0106  2.1070
  396MOL0     H53457   2.080   6.298   5.893 -0.6346  0.3211 -0.7782
  396MOL0     H53458   2.377   6.390   5.955 -0.8126 -0.1579 -1.2071
  396MOL0     H53459   2.267   6.282   6.036  0.3508  0.1341  0.2840
  396MOL0     H53460   2.423   6.222   5.970  1.6841  2.5465 -0.8497
  397MOL0     O53461   9.030   9.638   4.275 -0.2737 -0.1629  0.2142
  397MOL0     C53462   8.974   9.530   4.262 -1.1684 -0.0016  0.0322
  397MOL0     O53463   9.035   9.408   4.284 -0.5811 -0.2917  0.0809
  397MOL0     C53464   9.172   9.391   4.299 -0.5227  0.1773 -0.2944
  397MOL0     C53465   9.220   9.287   4.378 -0.3197  0.4355  0.0336
  397MOL0     C53466   9.358   9.257   4.382 -0.1640  0.1631  0.5440
  397MOL0     C53467   9.449   9.326   4.303 -0.1415 -0.1036 -0.2448
  397MOL0     O53468   9.580   9.293   4.310  0.1814  0.0492 -0.5027
  397MOL0     C53469   9.690   9.352   4.240  0.7524  0.5848 -1.1187
  397MOL0     C53470   9.810   9.273   4.283 -0.1709 -0.6277  0.0768
  397MOL0     C53471   9.864   9.310   4.419 -1.0389 -0.8695 -0.8231
  397MOL0     C53472  10.021   9.299   4.412  0.1154  0.0873  0.1084
  397MOL0     C53473  10.092   9.416   4.348  0.5968  0.0152  0.2992
  397MOL0     C53474  10.247   9.387   4.343 -0.1890  0.6470 -0.8659
  397MOL0     C53475  10.336   9.506   4.309 -0.1006 -0.1783 -1.0079
  397MOL0     C53476  10.479   9.460   4.285  0.7653 -0.4016  0.1652
  397MOL0     N53477  10.546   9.414   4.402 -0.3380  0.0031 -0.5842
  397MOL0     C53478  10.627   9.497   4.477  0.3613 -0.6868  0.7051
  397MOL0     C53479  10.680   9.422   4.574  0.1974  0.0361 -0.7015
  397MOL0     C53480  10.778   9.460   4.679  0.4266 -0.3467  0.5840
  397MOL0     C53481  10.914   9.487   4.629 -0.3957 -0.3590  0.3826
  397MOL0     C53482  11.011   9.527   4.746  0.2741  0.1491  0.9608
  397MOL0     C53483  11.145   9.555   4.673 -0.9845  0.1086  0.2942
  397MOL0     O53484  11.249   9.576   4.770  0.0039 -0.1847  0.3054
  397MOL0     C53485  11.369   9.523   4.743  0.1400  0.3034 -0.1489
  397MOL0     C53486  11.453   9.579   4.641  0.5268  0.2410 -0.3638
  397MOL0     C53487  11.574   9.524   4.607  0.8929  0.2945 -0.5395
  397MOL0     C53488  11.630   9.424   4.690  0.4031 -0.1503 -0.1807
  397MOL0     C53489  11.764   9.374   4.665 -0.5873  0.4862 -0.6730
  397MOL0     O53490  11.815   9.282   4.761 -0.3925  0.6096  0.3888
  397MOL0     C53491  11.935   9.223   4.748 -0.1014 -0.0107 -0.3009
  397MOL0     C53492  12.048   9.268   4.683  0.2429  0.1410  0.4359
  397MOL0     C53493  12.166   9.193   4.682  0.1276  0.3725  0.5180
  397MOL0     C53494  12.173   9.065   4.746  0.0024 -0.5105 -0.0667
  397MOL0     O53495  12.285   8.982   4.754 -0.1202  0.1760 -0.6044
  397MOL0     C53496  12.387   8.982   4.659  0.1331 -0.4442  0.0399
  397MOL0     C53497  12.427   8.837   4.637 -0.0793 -0.1902  0.4808
  397MOL0     C53498  12.486   8.823   4.484 -0.0116 -0.6882 -1.2792
  397MOL0     C53499  12.613   8.913   4.476 -0.5827  0.8213  0.0755
  397MOL0     C53500  12.744   8.829   4.500  0.2119  0.2293 -0.2117
  397MOL0     C53501  12.859   8.922   4.468  0.5841  0.5152  0.3203
  397MOL0     C53502  12.995   8.861   4.483 -0.0630 -0.0665  0.4701
  397MOL0     C53503  13.103   8.950   4.427 -0.1365  0.3262 -0.6055
  397MOL0    Cl53504  13.155   9.079   4.549  0.3927 -0.0395  0.1044
  397MOL0     C53505  12.065   9.026   4.816  0.2074 -0.2816  1.1709
  397MOL0     C53506  11.952   9.107   4.820 -0.3022  0.2202  0.3335
  397MOL0     O53507  11.824   9.420   4.564  0.1151 -0.6780 -0.2023
  397MOL0     C53508  11.540   9.363   4.788 -0.4403  0.4457  0.4514
  397MOL0     C53509  11.416   9.417   4.815 -0.6324  0.4704 -0.6446
  397MOL0     N53510  10.623   9.291   4.554 -0.8165 -0.9136 -0.7458
  397MOL0     N53511  10.547   9.291   4.449 -0.5961  0.1388 -0.2339
  397MOL0     C53512   9.400   9.427   4.223 -0.4192 -0.2090 -0.9620
  397MOL0     C53513   9.267   9.454   4.222  0.2647  0.5410 -0.5463
  397MOL0     C53514   8.832   9.530   4.233  0.3820 -0.1587  0.1035
  397MOL0     C53515   8.783   9.433   4.149  0.2269  0.1277  0.3750
  397MOL0     C53516   8.652   9.429   4.110  0.3601  0.3361  0.6027
  397MOL0     C53517   8.561   9.517   4.169 -0.2127  0.1205  0.4012
  397MOL0     O53518   8.425   9.493   4.149 -0.2016 -0.0935 -0.0180
  397MOL0     C53519   8.322   9.581   4.205 -0.9577 -0.7996 -0.2576
  397MOL0     C53520   8.301   9.526   4.345 -0.3820  0.4151  0.2985
  397MOL0     C53521   8.187   9.587   4.431 -0.6404 -0.2362 -0.0424
  397MOL0     C53522   8.208   9.585   4.582  0.3228 -0.8185  0.0383
  397MOL0     C53523   8.148   9.461   4.620  0.2139 -0.9536  0.6266
  397MOL0     C53524   8.096   9.356   4.654 -0.1264  0.5037 -0.1023
  397MOL0     C53525   8.611   9.621   4.242 -0.4225 -1.0652  0.0902
  397MOL0     C53526   8.748   9.636   4.275 -0.2248 -0.3841  0.2192
  397MOL0     C53527   8.789   9.744   4.366  0.4799 -0.1792 -0.0448
  397MOL0     H53528   9.150   9.228   4.436  1.7962 -0.9240  1.3292
  397MOL0     H53529   9.397   9.178   4.446  1.3173  1.5232  1.3745
  397MOL0     H53530   9.672   9.332   4.134 -1.1410  0.6413 -0.8322
  397MOL0     H53531   9.698   9.459   4.258 -2.2919  0.4577  2.2102
  397MOL0     H53532   9.886   9.284   4.205 -1.0971  2.1045 -0.5678
  397MOL0     H53533   9.777   9.169   4.279 -0.8004 -0.4013 -1.4325
  397MOL0     H53534   9.836   9.246   4.503  1.7205 -1.5958 -0.3494
  397MOL0     H53535   9.845   9.412   4.451  1.0967 -1.1918  1.8748
  397MOL0     H53536  10.069   9.284   4.509  1.0358  0.8352 -0.2287
  397MOL0     H53537  10.039   9.213   4.347 -0.6447 -0.0062  0.0071
  397MOL0     H53538  10.047   9.443   4.251  0.2485  1.9584  0.9453
  397MOL0     H53539  10.075   9.508   4.405  0.1183 -0.7532  1.4378
  397MOL0     H53540  10.292   9.355   4.437  1.9807  0.5921 -1.8550
  397MOL0     H53541  10.254   9.301   4.276 -1.5291 -1.0726  1.0777
  397MOL0     H53542  10.325   9.577   4.392  0.7836 -1.5855  0.3613
  397MOL0     H53543  10.304   9.563   4.221 -3.3006  0.1750  0.2718
  397MOL0     H53544  10.472   9.374   4.218  1.9913  0.9896 -1.8615
  397MOL0     H53545  10.539   9.533   4.231  1.3433 -0.3727  0.8376
  397MOL0     H53546  10.655   9.598   4.447  2.3628 -0.2764  3.5385
  397MOL0     H53547  10.745   9.546   4.738  1.5363 -0.1423  0.9307
  397MOL0     H53548  10.789   9.375   4.747  0.7139 -0.7794  0.0125
  397MOL0     H53549  10.943   9.395   4.576 -0.3360  0.4566 -1.0662
  397MOL0     H53550  10.902   9.563   4.551 -0.9167  0.8699  1.6194
  397MOL0     H53551  11.026   9.447   4.821 -0.8452 -1.7291 -0.7144
  397MOL0     H53552  10.966   9.618   4.786 -0.6666  0.2479 -0.2578
  397MOL0     H53553  11.134   9.636   4.600 -2.6838 -0.6648 -0.3485
  397MOL0     H53554  11.169   9.464   4.616 -0.6767 -0.9108  1.9828
  397MOL0     H53555  11.408   9.658   4.581 -3.1654 -0.4436  1.2045
  397MOL0     H53556  11.636   9.564   4.527  2.2832  0.4109  0.5449
  397MOL0     H53557  12.041   9.355   4.618 -1.8488 -0.7014 -0.5393
  397MOL0     H53558  12.253   9.223   4.626  1.3504  1.6974  3.0048
  397MOL0     H53559  12.354   9.010   4.558  1.6687  1.4137  0.0077
  397MOL0     H53560  12.468   9.043   4.698 -0.9299  0.2446  1.2126
  397MOL0     H53561  12.500   8.800   4.710 -1.5805 -2.4370  0.9443
  397MOL0     H53562  12.344   8.768   4.652  0.7371 -1.6568 -1.3037
  397MOL0     H53563  12.510   8.719   4.460 -0.2012 -1.8470  2.7751
  397MOL0     H53564  12.400   8.852   4.423 -1.9290 -0.8747  1.1842
  397MOL0     H53565  12.610   9.003   4.537 -2.3252  0.5344  0.4676
  397MOL0     H53566  12.625   8.941   4.371  0.0067 -0.3463 -0.1893
  397MOL0     H53567  12.742   8.742   4.435  3.0392  0.9987 -1.4343
  397MOL0     H53568  12.748   8.807   4.607  0.4801  1.8046  0.1319
  397MOL0     H53569  12.842   8.965   4.369 -1.2282  0.7884  0.7181
  397MOL0     H53570  12.856   9.004   4.540 -0.0849  2.4481 -1.7991
  397MOL0     H53571  12.994   8.767   4.428  0.4481  0.0118  0.3205
  397MOL0     H53572  13.022   8.835   4.586 -1.2863  0.5638  0.9768
  397MOL0     H53573  13.199   8.908   4.395  0.4905  1.6213 -0.4918
  397MOL0     H53574  13.056   9.009   4.348 -3.7552 -0.1652  0.9650
  397MOL0     H53575  12.061   8.926   4.857 -1.6280 -1.3712 -1.3648
  397MOL0     H53576  11.861   9.083   4.874 -0.2505  2.6086  1.6326
  397MOL0     H53577  11.572   9.276   4.844  0.8713 -0.5478 -1.6812
  397MOL0     H53578  11.356   9.379   4.897  0.5135 -0.3275 -0.1444
  397MOL0     H53579   9.461   9.490   4.161 -1.0741 -1.6573 -3.2165
  397MOL0     H53580   9.243   9.536   4.155  2.5934  0.6400 -1.3541
  397MOL0     H53581   8.838   9.345   4.117 -0.8007  0.0887 -1.4138
  397MOL0     H53582   8.621   9.350   4.043  3.1053 -1.5678  1.4012
  397MOL0     H53583   8.233   9.562   4.145 -1.4517 -2.6893  1.0083
  397MOL0     H53584   8.341   9.689   4.208 -0.9774 -0.6754 -2.4410
  397MOL0     H53585   8.387   9.544   4.410 -0.4797  0.6048  0.3777
  397MOL0     H53586   8.290   9.417   4.336  2.0398 -0.1515  2.5746
  397MOL0     H53587   8.089   9.552   4.399 -0.5437  1.3236 -2.2740
  397MOL0     H53588   8.199   9.692   4.404 -0.6708 -0.5610 -1.3673
  397MOL0     H53589   8.314   9.588   4.608  0.2283 -0.2047  0.3756
  397MOL0     H53590   8.148   9.655   4.642 -0.4127 -1.5964  0.2366
  397MOL0     H53591   8.048   9.263   4.677  0.8496  0.1269  0.4625
  397MOL0     H53592   8.540   9.694   4.279 -0.3908 -0.6845 -0.5788
  397MOL0     H53593   8.832   9.824   4.305 -2.7453 -1.3146 -4.3101
  397MOL0     H53594   8.702   9.793   4.413  1.3298  1.9654 -0.5916
  397MOL0     H53595   8.863   9.716   4.441 -0.5188  1.1433  1.5170
  398MOL0     O53596   5.016   6.007   7.374 -0.0967 -0.7070  0.3667
  398MOL0     C53597   5.023   5.962   7.262 -0.1675  0.1691 -0.1044
  398MOL0     O53598   5.137   5.978   7.189 -0.6245  0.5871  0.5891
  398MOL0     C53599   5.253   6.038   7.242  0.1525  0.4406  0.3349
  398MOL0     C53600   5.310   6.149   7.175  0.0687 -0.2030  0.8752
  398MOL0     C53601   5.430   6.209   7.223  0.3175 -0.6004  0.0337
  398MOL0     C53602   5.490   6.158   7.339  0.0551 -0.2213 -0.3933
  398MOL0     O53603   5.610   6.226   7.369 -0.5257  0.2964 -0.2291
  398MOL0     C53604   5.669   6.218   7.503 -0.2503 -0.1019 -0.0302
  398MOL0     C53605   5.768   6.109   7.503  0.1972  0.5538 -0.0915
  398MOL0     C53606   5.868   6.128   7.393  0.2488  0.3177 -0.3098
  398MOL0     C53607   5.977   6.008   7.405 -0.6655  0.1971 -0.2722
  398MOL0     C53608   6.088   6.033   7.307 -0.4643 -0.9766  0.1373
  398MOL0     C53609   6.207   5.941   7.337  0.4692 -0.5255 -1.2927
  398MOL0     C53610   6.306   5.971   7.230  0.2114  0.1566  0.2780
  398MOL0     C53611   6.396   5.859   7.200 -0.0716 -0.0586 -0.0558
  398MOL0     N53612   6.497   5.832   7.308 -0.3158 -0.4501  0.3292
  398MOL0     C53613   6.484   5.781   7.432 -0.0962  0.0389 -0.2267
  398MOL0     C53614   6.600   5.805   7.498 -0.1147  0.8160  0.4284
  398MOL0     C53615   6.643   5.767   7.638  0.4509  0.4670 -0.9758
  398MOL0     C53616   6.646   5.623   7.667 -0.2601  0.1245 -0.4911
  398MOL0     C53617   6.724   5.551   7.562 -0.1892  0.6781 -0.0852
  398MOL0     C53618   6.872   5.585   7.548 -0.3297  0.0243  0.5103
  398MOL0     O53619   6.929   5.487   7.458 -0.7494 -0.5610 -0.0277
  398MOL0     C53620   7.070   5.513   7.434  0.1265  0.7702 -1.0955
  398MOL0     C53621   7.155   5.402   7.400  0.0938 -0.1579 -0.5044
  398MOL0     C53622   7.296   5.417   7.366  0.1960 -0.2364  0.1872
  398MOL0     C53623   7.352   5.546   7.366 -0.1181 -0.0617 -0.1674
  398MOL0     C53624   7.495   5.568   7.338  1.0710 -0.3923 -0.4065
  398MOL0     O53625   7.567   5.463   7.292  0.3704 -0.1687 -0.0196
  398MOL0     C53626   7.691   5.487   7.244 -0.6503 -0.8474 -0.0452
  398MOL0     C53627   7.806   5.493   7.327  0.7876 -0.1205 -0.7905
  398MOL0     C53628   7.932   5.523   7.267  0.4709 -0.0894 -0.0513
  398MOL0     C53629   7.946   5.548   7.131  0.3081 -0.3622 -0.7502
  398MOL0     O53630   8.070   5.583   7.081 -0.0139  0.4599  0.8275
  398MOL0     C53631   8.078   5.701   6.990  0.9596 -0.7280  0.2270
  398MOL0     C53632   8.223   5.744   6.979 -0.3763 -0.6790 -0.4248
  398MOL0     C53633   8.239   5.879   6.900 -0.3450 -0.3629  0.4885
  398MOL0     C53634   8.278   5.847   6.758  0.2250 -0.3748 -0.1828
  398MOL0     C53635   8.254   5.976   6.677 -0.0651  0.5626  0.0018
  398MOL0     C53636   8.234   5.948   6.527  0.5730  0.4572 -0.9671
  398MOL0     C53637   8.345   5.860   6.471 -0.7180 -0.0479 -0.4123
  398MOL0     C53638   8.333   5.828   6.325 -0.4416  0.0593  0.0275
  398MOL0    Cl53639   8.178   5.736   6.291 -0.1315 -0.6012  0.2537
  398MOL0     C53640   7.828   5.542   7.051 -0.0003 -0.5631  0.1060
  398MOL0     C53641   7.702   5.509   7.110 -0.5844 -0.0566  0.1185
  398MOL0     O53642   7.531   5.684   7.353 -0.8646 -0.1509  0.1205
  398MOL0     C53643   7.264   5.651   7.401  0.1468  0.4094 -0.8186
  398MOL0     C53644   7.128   5.638   7.436 -1.5280 -0.4378  0.0866
  398MOL0     N53645   6.678   5.872   7.407 -0.8399  0.7606  0.5435
  398MOL0     N53646   6.617   5.894   7.292 -0.1923  1.0065 -0.7176
  398MOL0     C53647   5.427   6.051   7.412  0.4563 -0.5797  0.2013
  398MOL0     C53648   5.320   5.979   7.352  0.7287 -0.1270 -1.0771
  398MOL0     C53649   4.910   5.882   7.211 -0.7975  0.1290  0.0296
  398MOL0     C53650   4.781   5.907   7.270 -0.3061 -0.7916  0.3407
  398MOL0     C53651   4.666   5.845   7.222  0.5024  0.9974  0.8060
  398MOL0     C53652   4.671   5.760   7.107 -0.5741 -0.3164 -0.3260
  398MOL0     O53653   4.564   5.691   7.050  0.7898 -0.2040 -0.3641
  398MOL0     C53654   4.437   5.744   7.086 -0.4455 -0.3973 -0.3458
  398MOL0     C53655   4.320   5.689   7.000 -0.7024  0.7751  0.3138
  398MOL0     C53656   4.273   5.769   6.873 -0.3718  0.1043 -0.0753
  398MOL0     C53657   4.389   5.777   6.771 -0.8110 -0.2770  0.1930
  398MOL0     C53658   4.468   5.661   6.731 -0.9264 -0.5371  0.8030
  398MOL0     C53659   4.526   5.569   6.671 -0.8562 -0.5915 -0.4475
  398MOL0     C53660   4.797   5.725   7.061 -0.2303 -0.9108  0.3309
  398MOL0     C53661   4.914   5.788   7.109 -0.1482  0.2550 -0.1616
  398MOL0     C53662   5.042   5.747   7.039  0.3038  0.6027 -0.1150
  398MOL0     H53663   5.255   6.198   7.095  0.5384 -3.4840 -1.6826
  398MOL0     H53664   5.478   6.294   7.176  2.1179 -0.8402  1.2922
  398MOL0     H53665   5.709   6.313   7.536  0.1958 -0.1605 -0.3998
  398MOL0     H53666   5.601   6.194   7.586  0.1660  1.3809  0.7680
  398MOL0     H53667   5.713   6.014   7.498  0.0973  0.5640  0.6506
  398MOL0     H53668   5.826   6.107   7.596 -0.8598  2.2878  0.6546
  398MOL0     H53669   5.907   6.230   7.402 -1.0111  0.9761 -1.7944
  398MOL0     H53670   5.817   6.114   7.297  4.1818 -2.2844 -2.2945
  398MOL0     H53671   6.006   6.003   7.511  1.0903 -0.1614 -0.7436
  398MOL0     H53672   5.929   5.912   7.385 -1.9309  0.3031  1.8747
  398MOL0     H53673   6.046   6.021   7.206 -3.0881  1.3655  0.8159
  398MOL0     H53674   6.122   6.136   7.321 -0.7204 -1.1903  2.6607
  398MOL0     H53675   6.243   5.967   7.437 -2.5922  2.8074 -0.8280
  398MOL0     H53676   6.171   5.838   7.343 -2.4001  0.4133 -0.9601
  398MOL0     H53677   6.366   6.061   7.246  3.7934 -1.9698  0.0272
  398MOL0     H53678   6.249   5.986   7.139  0.2086 -2.4448 -0.2323
  398MOL0     H53679   6.337   5.770   7.179  1.2187 -0.7855 -0.7140
  398MOL0     H53680   6.457   5.879   7.111 -0.2752  0.8152 -0.0131
  398MOL0     H53681   6.401   5.721   7.469 -0.1026  0.3999  0.3563
  398MOL0     H53682   6.739   5.816   7.657  0.2869  0.8631 -1.1483
  398MOL0     H53683   6.571   5.813   7.707  2.4919  2.8493 -0.2630
  398MOL0     H53684   6.691   5.609   7.766  2.5920 -1.2772 -1.8769
  398MOL0     H53685   6.545   5.581   7.667 -0.0597 -0.4902 -2.9265
  398MOL0     H53686   6.678   5.551   7.463  1.3944 -1.6383 -0.9150
  398MOL0     H53687   6.722   5.446   7.590  2.9050 -0.4951 -3.4451
  398MOL0     H53688   6.935   5.595   7.637  2.6028 -1.6574 -1.1979
  398MOL0     H53689   6.875   5.683   7.500 -0.8024 -0.3019 -0.2121
  398MOL0     H53690   7.103   5.306   7.394  0.7560 -0.5760  0.2567
  398MOL0     H53691   7.359   5.332   7.345  2.0930  0.9132  0.9547
  398MOL0     H53692   7.790   5.486   7.434  0.6205  0.8767 -0.7340
  398MOL0     H53693   8.024   5.525   7.323  1.2433 -0.8323 -1.2541
  398MOL0     H53694   8.026   5.686   6.895  0.1140  0.2749  0.5109
  398MOL0     H53695   8.014   5.773   7.042 -0.7321 -1.9348 -0.0785
  398MOL0     H53696   8.272   5.761   7.075 -0.2633  1.9888 -0.8835
  398MOL0     H53697   8.275   5.670   6.918 -1.6846 -0.2285 -2.1777
  398MOL0     H53698   8.146   5.936   6.901 -1.1179 -1.5491  2.3227
  398MOL0     H53699   8.310   5.944   6.952  2.4109 -3.3265  0.7355
  398MOL0     H53700   8.211   5.777   6.707  0.6721  0.7656 -2.5026
  398MOL0     H53701   8.381   5.812   6.759  1.3265  2.5645  1.8490
  398MOL0     H53702   8.344   6.035   6.696 -1.0349  2.1125 -0.0475
  398MOL0     H53703   8.168   6.029   6.718 -0.8273  1.8771 -3.0036
  398MOL0     H53704   8.137   5.898   6.514  0.0594  0.4561  2.1605
  398MOL0     H53705   8.238   6.043   6.472  0.5604  1.1700  0.2423
  398MOL0     H53706   8.357   5.764   6.522 -0.2479  1.4809  2.6514
  398MOL0     H53707   8.433   5.920   6.497 -2.5171  1.4840  2.8676
  398MOL0     H53708   8.332   5.921   6.267 -1.0738 -0.5234 -0.9330
  398MOL0     H53709   8.417   5.766   6.291 -0.1918 -0.1931  1.0805
  398MOL0     H53710   7.838   5.553   6.943  2.5209  0.1176  0.3500
  398MOL0     H53711   7.617   5.509   7.042 -0.0486  1.7004 -0.6189
  398MOL0     H53712   7.302   5.753   7.400 -1.2792  1.2714  4.4044
  398MOL0     H53713   7.075   5.732   7.444  0.8471  1.3504 -3.0547
  398MOL0     H53714   5.448   6.023   7.514  0.8010  0.6782  0.4943
  398MOL0     H53715   5.275   5.898   7.409 -1.5290  0.5496 -1.7737
  398MOL0     H53716   4.762   5.982   7.346 -2.5814 -3.2822  2.4320
  398MOL0     H53717   4.575   5.867   7.276  0.2276  0.6328  0.5007
  398MOL0     H53718   4.426   5.853   7.084 -0.0686 -0.3497 -2.7691
  398MOL0     H53719   4.427   5.703   7.187 -1.5891 -0.8375 -0.6140
  398MOL0     H53720   4.237   5.682   7.071 -3.6612  0.2713 -2.9048
  398MOL0     H53721   4.345   5.586   6.972 -1.7547  1.3987 -3.4975
  398MOL0     H53722   4.233   5.869   6.892 -2.4458 -1.0627  2.1975
  398MOL0     H53723   4.192   5.711   6.829 -1.7968  0.1271  2.3759
  398MOL0     H53724   4.342   5.820   6.682 -2.1681 -1.8386  0.1251
  398MOL0     H53725   4.469   5.845   6.803  0.8783 -0.3656 -3.3008
  398MOL0     H53726   4.597   5.500   6.630  2.2125  1.5268  0.9094
  398MOL0     H53727   4.804   5.646   6.987  1.7820 -0.6476  0.1818
  398MOL0     H53728   5.044   5.813   6.952 -0.2010 -1.2942 -1.6267
  398MOL0     H53729   5.132   5.760   7.098  0.1551  3.5251 -0.3804
  398MOL0     H53730   5.027   5.644   7.007 -0.9053  0.2025  1.5600
  399MOL0     O53731  11.248   7.456   5.186  0.7344  0.1179  0.9981
  399MOL0     C53732  11.267   7.574   5.162  0.3507 -1.2616  0.1616
  399MOL0     O53733  11.394   7.632   5.140  0.4179  0.2203 -0.2202
  399MOL0     C53734  11.503   7.548   5.154 -0.3117 -0.4943 -0.4732
  399MOL0     C53735  11.582   7.519   5.043  0.1503  0.5471 -0.1356
  399MOL0     C53736  11.688   7.430   5.051  0.7919 -0.3866  0.4102
  399MOL0     C53737  11.724   7.374   5.176  0.4389 -0.0573 -0.2248
  399MOL0     O53738  11.840   7.302   5.198  0.3363 -0.4676  0.3857
  399MOL0     C53739  11.886   7.225   5.093  0.8963 -0.3100 -0.0569
  399MOL0     C53740  12.003   7.144   5.117 -0.0241 -0.8552 -0.4270
  399MOL0     C53741  12.121   7.222   5.183  0.4885 -0.2523  0.1356
  399MOL0     C53742  12.213   7.137   5.267  0.3199 -0.0555 -0.4727
  399MOL0     C53743  12.343   7.201   5.313 -0.6263 -0.8791  0.0525
  399MOL0     C53744  12.433   7.108   5.396  0.1553 -0.3962 -0.0689
  399MOL0     C53745  12.572   7.168   5.421  0.0318  0.6265  0.5689
  399MOL0     C53746  12.571   7.254   5.546 -0.0858 -0.2759 -0.0857
  399MOL0     N53747  12.717   7.268   5.577  0.1110  0.2414  0.2116
  399MOL0     C53748  12.776   7.194   5.676 -0.0113 -1.0315 -0.2701
  399MOL0     C53749  12.905   7.246   5.684  0.9484  0.0449 -0.0563
  399MOL0     C53750  13.007   7.197   5.791 -0.2348 -0.1752  0.9914
  399MOL0     C53751  13.125   7.291   5.813 -0.4449  0.2711  0.4788
  399MOL0     C53752  13.219   7.290   5.687 -0.6670  0.7980  0.5721
  399MOL0     C53753  13.337   7.371   5.700 -0.3094 -0.7036 -0.0893
  399MOL0     O53754  13.411   7.327   5.815 -0.0330  0.2587  0.6144
  399MOL0     C53755  13.532   7.391   5.837 -0.1316 -0.6396 -0.4517
  399MOL0     C53756  13.645   7.336   5.780  0.2024  0.2787 -0.5281
  399MOL0     C53757  13.773   7.377   5.804  0.5236 -0.1899  0.2263
  399MOL0     C53758  13.789   7.490   5.882  0.2421  0.9541  0.6341
  399MOL0     C53759  13.918   7.556   5.882 -0.1255  0.3299 -0.0538
  399MOL0     O53760  13.922   7.676   5.951  0.3867 -0.5372  0.2134
  399MOL0     C53761  14.034   7.756   5.965 -0.2659 -0.1880  0.2135
  399MOL0     C53762  14.159   7.747   5.890  0.2400 -0.0111 -0.2717
  399MOL0     C53763  14.273   7.821   5.932  0.6633 -0.7673 -0.2527
  399MOL0     C53764  14.276   7.895   6.045 -0.2171 -0.2582  0.2516
  399MOL0     O53765  14.384   7.973   6.086  0.6521  0.1341  0.0079
  399MOL0     C53766  14.514   7.954   6.032 -0.3854  0.7795  0.1381
  399MOL0     C53767  14.620   8.050   6.083  0.4468 -0.1502  0.9222
  399MOL0     C53768  14.750   8.014   6.014 -0.2612 -0.7088 -0.2964
  399MOL0     C53769  14.783   8.092   5.877 -0.5598 -0.3287  0.4217
  399MOL0     C53770  14.912   8.053   5.805 -0.6832 -0.7133  0.4449
  399MOL0     C53771  15.055   8.065   5.877  0.0384  0.6722  0.2245
  399MOL0     C53772  15.165   8.049   5.767  0.0877 -0.5676 -0.6933
  399MOL0     C53773  15.295   8.105   5.814 -0.1814 -0.0810 -0.2065
  399MOL0    Cl53774  15.283   8.280   5.794  0.2398 -0.2183 -0.5541
  399MOL0     C53775  14.157   7.915   6.112 -0.2199 -0.2467  0.3754
  399MOL0     C53776  14.039   7.847   6.071  0.3595 -0.4764  0.5655
  399MOL0     O53777  14.011   7.503   5.816  0.0505 -0.4070  0.3397
  399MOL0     C53778  13.676   7.553   5.946  0.7820  1.3786 -0.0349
  399MOL0     C53779  13.543   7.497   5.926 -0.2029  0.1961 -0.9121
  399MOL0     N53780  12.916   7.341   5.580  0.0853 -0.2514 -0.4669
  399MOL0     N53781  12.800   7.360   5.520 -0.4359 -0.0334 -0.1270
  399MOL0     C53782  11.645   7.396   5.285  0.7557  0.2875  0.4769
  399MOL0     C53783  11.544   7.487   5.275  0.0363  0.0433  0.0884
  399MOL0     C53784  11.155   7.674   5.144  0.5948 -0.1212 -0.4032
  399MOL0     C53785  11.185   7.787   5.063  0.8835 -0.0299  0.5319
  399MOL0     C53786  11.084   7.887   5.047 -0.8878 -0.0616 -0.0342
  399MOL0     C53787  10.954   7.871   5.104  0.0149  0.2710  0.1927
  399MOL0     O53788  10.859   7.966   5.105  0.0810  0.4635 -0.2593
  399MOL0     C53789  10.885   8.098   5.059  0.2587 -0.4364  0.3868
  399MOL0     C53790  10.775   8.199   5.104 -0.8479  0.6657 -0.2002
  399MOL0     C53791  10.631   8.161   5.053  0.1595  0.2693 -0.2551
  399MOL0     C53792  10.521   8.271   5.078  0.2700 -0.7593 -0.0302
  399MOL0     C53793  10.557   8.400   5.013  0.7607 -0.1457  0.4135
  399MOL0     C53794  10.570   8.510   4.956  0.2215 -0.6419 -0.7264
  399MOL0     C53795  10.926   7.752   5.172 -0.1688  0.1936 -0.5120
  399MOL0     C53796  11.029   7.663   5.198  0.2406  0.0875 -0.1031
  399MOL0     C53797  10.985   7.542   5.282  0.0279 -0.4726 -0.1603
  399MOL0     H53798  11.561   7.565   4.947 -0.0016 -1.2784 -1.0254
  399MOL0     H53799  11.753   7.424   4.964  0.0305  0.0351 -0.1970
  399MOL0     H53800  11.808   7.149   5.077  1.6326 -0.8355 -1.3032
  399MOL0     H53801  11.904   7.286   5.004  1.6047  0.0752  0.3359
  399MOL0     H53802  12.039   7.113   5.018  2.2670  0.0109  0.0676
  399MOL0     H53803  11.979   7.052   5.171 -0.8550  0.4545  1.5475
  399MOL0     H53804  12.081   7.298   5.250  0.3437  1.2373 -1.5788
  399MOL0     H53805  12.177   7.265   5.099  1.0628 -0.6059  0.3292
  399MOL0     H53806  12.147   7.111   5.350 -1.2558  1.1125 -1.2792
  399MOL0     H53807  12.236   7.036   5.231  2.4883 -1.1724  3.5170
  399MOL0     H53808  12.404   7.237   5.229  0.9145 -0.2705  1.3983
  399MOL0     H53809  12.323   7.288   5.376  4.6944 -0.5506  1.7598
  399MOL0     H53810  12.374   7.086   5.486  0.3674  0.5565  0.3124
  399MOL0     H53811  12.439   7.028   5.321 -3.4627 -3.4637  2.5007
  399MOL0     H53812  12.605   7.220   5.331 -1.2491  1.8359  0.7572
  399MOL0     H53813  12.645   7.087   5.425 -0.9658 -0.4123 -1.1337
  399MOL0     H53814  12.524   7.351   5.529 -0.8394 -0.8262 -1.2728
  399MOL0     H53815  12.518   7.197   5.624  1.0839 -1.0611  0.1613
  399MOL0     H53816  12.734   7.119   5.742  1.1424  0.2559  2.0263
  399MOL0     H53817  12.961   7.191   5.890  0.9228  0.9035  1.6235
  399MOL0     H53818  13.039   7.098   5.755 -0.2333  1.1220 -2.9936
  399MOL0     H53819  13.090   7.391   5.839 -2.9434  0.1199 -1.8638
  399MOL0     H53820  13.177   7.243   5.897 -0.2036 -1.2834 -0.5242
  399MOL0     H53821  13.166   7.322   5.597 -0.5479 -0.0718  0.1835
  399MOL0     H53822  13.247   7.185   5.675 -1.6659  0.6451 -0.6815
  399MOL0     H53823  13.303   7.475   5.710  2.1809  0.0688  1.3557
  399MOL0     H53824  13.397   7.366   5.608 -1.3334 -0.8261 -0.7719
  399MOL0     H53825  13.626   7.250   5.716 -2.0718  0.2651  0.0749
  399MOL0     H53826  13.859   7.338   5.752  0.8179 -0.5667  0.9736
  399MOL0     H53827  14.156   7.694   5.796  1.1864  0.8059 -0.7771
  399MOL0     H53828  14.364   7.825   5.872  1.2046 -1.8462  0.4505
  399MOL0     H53829  14.551   7.860   6.072  0.0497  1.5015  1.4982
  399MOL0     H53830  14.507   7.966   5.923 -2.8002 -1.1545 -0.0047
  399MOL0     H53831  14.595   8.154   6.060  2.2128  0.1085  0.0320
  399MOL0     H53832  14.640   8.055   6.191  0.9256 -1.3005  0.8989
  399MOL0     H53833  14.837   8.032   6.078 -0.6598 -0.8576  0.2989
  399MOL0     H53834  14.757   7.906   6.000 -2.0933 -0.5792 -2.8300
  399MOL0     H53835  14.798   8.197   5.904  0.2884 -0.4104  0.3072
  399MOL0     H53836  14.693   8.080   5.815 -1.8471  0.5074  2.0570
  399MOL0     H53837  14.910   8.098   5.705  0.2233 -2.1037 -0.2260
  399MOL0     H53838  14.898   7.948   5.777 -0.7139 -0.7746  0.6906
  399MOL0     H53839  15.062   8.163   5.927 -1.0645 -0.2784  2.4063
  399MOL0     H53840  15.071   7.987   5.951  0.8116  0.9490  0.3614
  399MOL0     H53841  15.129   8.093   5.673  0.2581 -0.6959 -0.8209
  399MOL0     H53842  15.168   7.942   5.746 -0.3151 -0.8528  0.6538
  399MOL0     H53843  15.315   8.072   5.916 -1.3755 -0.2292 -0.0115
  399MOL0     H53844  15.374   8.073   5.744 -3.1161 -3.7343 -2.2408
  399MOL0     H53845  14.167   7.965   6.208 -0.0785  1.6670 -0.5871
  399MOL0     H53846  13.946   7.856   6.125  0.5703 -0.0907  0.8732
  399MOL0     H53847  13.681   7.645   6.004 -0.9105  0.6719  1.2922
  399MOL0     H53848  13.454   7.537   5.974  1.1389  0.6174  1.4036
  399MOL0     H53849  11.678   7.356   5.380 -1.1997 -2.2839  0.1933
  399MOL0     H53850  11.485   7.513   5.363  0.7742 -2.0827  1.2882
  399MOL0     H53851  11.278   7.794   5.008 -0.1067 -4.5079 -2.2608
  399MOL0     H53852  11.107   7.978   4.993  0.7080 -0.6017 -0.2966
  399MOL0     H53853  10.887   8.097   4.950 -2.0681 -0.1651  0.2987
  399MOL0     H53854  10.981   8.136   5.095  1.0369 -0.8714 -1.1335
  399MOL0     H53855  10.797   8.300   5.068 -2.0315  1.1642  0.4207
  399MOL0     H53856  10.775   8.205   5.213 -0.7761  2.2060 -0.2681
  399MOL0     H53857  10.605   8.068   5.103  0.2580 -0.3439 -1.2967
  399MOL0     H53858  10.642   8.141   4.946  2.4127  1.8989 -0.4137
  399MOL0     H53859  10.424   8.236   5.041  0.2653 -0.2373 -0.5280
  399MOL0     H53860  10.513   8.296   5.184  2.4409 -0.5893  0.1364
  399MOL0     H53861  10.588   8.597   4.897 -0.7385  0.8227  1.0374
  399MOL0     H53862  10.825   7.753   5.212  0.9896  2.9476  2.7765
  399MOL0     H53863  10.995   7.447   5.230  1.0287 -3.1662  4.3563
  399MOL0     H53864  11.044   7.528   5.374  0.5477 -0.7857 -0.5376
  399MOL0     H53865  10.878   7.542   5.306  0.0160 -1.9219 -0.1444
  400MOL0     O53866   8.574   2.697   7.156  0.0719  0.3342  0.0291
  400MOL0     C53867   8.584   2.688   7.033  0.2279  0.5391  1.1516
  400MOL0     O53868   8.689   2.735   6.953 -0.2125 -0.2950 -0.5318
  400MOL0     C53869   8.794   2.814   6.988  0.1029  0.0257 -0.0952
  400MOL0     C53870   8.832   2.846   7.122  0.5343 -0.2517 -0.2427
  400MOL0     C53871   8.951   2.911   7.143 -0.2393 -0.5876  1.1968
  400MOL0     C53872   9.032   2.964   7.037 -0.2805  0.9302 -1.0205
  400MOL0     O53873   9.150   3.023   7.079  0.6927 -0.0519  0.8574
  400MOL0     C53874   9.245   3.045   6.974 -0.0991 -0.6627 -1.4615
  400MOL0     C53875   9.341   3.150   7.020  0.1383 -0.5174 -1.3227
  400MOL0     C53876   9.280   3.294   7.036  0.1839 -1.0364  0.2321
  400MOL0     C53877   9.372   3.402   7.072  0.1183 -0.3192 -0.3709
  400MOL0     C53878   9.390   3.504   6.959  0.3250  0.0900 -0.8979
  400MOL0     C53879   9.495   3.594   7.011  1.0114 -0.7183  0.0991
  400MOL0     C53880   9.527   3.712   6.917 -0.2662 -0.0524 -0.8057
  400MOL0     C53881   9.598   3.824   6.995 -0.0370  0.0630  0.2280
  400MOL0     N53882   9.630   3.946   6.917 -0.4789 -0.5768 -0.5074
  400MOL0     C53883   9.546   4.019   6.835  0.0289 -0.6473 -0.3272
  400MOL0     C53884   9.618   4.123   6.786  0.3218 -0.2632 -0.0871
  400MOL0     C53885   9.592   4.247   6.699 -0.6821 -0.0403 -0.5153
  400MOL0     C53886   9.522   4.354   6.779  0.2710 -0.0834 -0.1190
  400MOL0     C53887   9.491   4.472   6.694  0.7404 -0.3292 -0.6303
  400MOL0     C53888   9.448   4.600   6.777 -0.1034 -0.3615 -0.1605
  400MOL0     O53889   9.436   4.699   6.673  1.0331 -0.6658  0.4000
  400MOL0     C53890   9.303   4.734   6.646 -0.0144  0.1636 -0.2707
  400MOL0     C53891   9.274   4.868   6.605  0.0202 -0.5123 -0.2496
  400MOL0     C53892   9.147   4.907   6.565  0.2033 -1.2522  0.5673
  400MOL0     C53893   9.031   4.828   6.585  0.1224  0.5098  0.5491
  400MOL0     C53894   8.890   4.869   6.546 -0.2421  0.0639  0.3488
  400MOL0     O53895   8.793   4.770   6.551 -0.0419 -0.9159 -0.5592
  400MOL0     C53896   8.669   4.810   6.514  0.5403  0.7068  0.4884
  400MOL0     C53897   8.632   4.825   6.377 -0.6217 -0.0132 -0.3887
  400MOL0     C53898   8.511   4.872   6.342  0.5058  0.1753 -1.0060
  400MOL0     C53899   8.406   4.870   6.435  0.2129  0.0366 -0.2758
  400MOL0     O53900   8.282   4.927   6.393  0.1246  0.7154 -0.1282
  400MOL0     C53901   8.169   4.871   6.464 -0.3393 -0.4090 -0.4454
  400MOL0     C53902   8.034   4.892   6.384 -0.5673 -0.1089  0.3651
  400MOL0     C53903   8.012   5.041   6.335  0.1082 -0.3583 -0.8536
  400MOL0     C53904   7.919   5.121   6.427  0.1175 -0.5136  0.0685
  400MOL0     C53905   7.776   5.076   6.424 -0.0972  0.0968 -0.5090
  400MOL0     C53906   7.686   5.192   6.481  0.2590  0.5163  1.2531
  400MOL0     C53907   7.702   5.236   6.626 -0.0674 -0.4938 -0.1321
  400MOL0     C53908   7.569   5.285   6.684 -0.0607 -0.0371 -0.1942
  400MOL0    Cl53909   7.601   5.370   6.843 -0.5407  0.2747  0.4670
  400MOL0     C53910   8.437   4.853   6.577  0.1345  0.4643 -0.5554
  400MOL0     C53911   8.566   4.831   6.613 -0.7089  0.7862  0.3111
  400MOL0     O53912   8.875   4.985   6.510 -0.3987 -0.4566 -0.1878
  400MOL0     C53913   9.056   4.707   6.644 -0.0936  0.8870  0.2491
  400MOL0     C53914   9.186   4.652   6.663 -0.3367 -0.2296 -0.1141
  400MOL0     N53915   9.740   4.105   6.834  0.2785 -0.4654  1.3403
  400MOL0     N53916   9.750   3.997   6.905 -0.5530  0.0624 -0.4173
  400MOL0     C53917   8.990   2.942   6.905  0.4247  0.6171 -0.1840
  400MOL0     C53918   8.873   2.864   6.890  0.7068 -0.1702 -0.0955
  400MOL0     C53919   8.486   2.592   6.963  0.1347 -0.2447 -0.3779
  400MOL0     C53920   8.475   2.600   6.826  0.9435  0.1782  0.5321
  400MOL0     C53921   8.377   2.529   6.758  0.0066 -0.0902 -0.1591
  400MOL0     C53922   8.282   2.450   6.825  0.0455 -0.0831 -0.2725
  400MOL0     O53923   8.185   2.396   6.745  0.1363  0.3589  0.8863
  400MOL0     C53924   8.062   2.340   6.796  0.3778  0.0230  0.1612
  400MOL0     C53925   8.007   2.255   6.679 -0.0325  0.3830 -0.3471
  400MOL0     C53926   7.861   2.214   6.695  0.3988 -0.7393  0.6599
  400MOL0     C53927   7.854   2.100   6.783  0.5683 -0.2171  0.8857
  400MOL0     C53928   7.713   2.088   6.832  0.5178 -0.3113  0.0839
  400MOL0     C53929   7.598   2.074   6.883  0.5439  0.7653 -0.1118
  400MOL0     C53930   8.292   2.436   6.969  0.4493  0.1395 -0.0168
  400MOL0     C53931   8.394   2.507   7.034  0.5647 -0.5113  0.6931
  400MOL0     C53932   8.397   2.493   7.184 -0.8920  0.1781 -0.1448
  400MOL0     H53933   8.772   2.833   7.212 -2.3050  0.7649 -1.8757
  400MOL0     H53934   8.982   2.938   7.244  0.3832 -0.8722  1.0900
  400MOL0     H53935   9.306   2.958   6.948  1.3047  0.4824 -2.0993
  400MOL0     H53936   9.191   3.090   6.890  1.6328  0.8932 -1.7998
  400MOL0     H53937   9.415   3.150   6.940  0.5624  1.3807 -0.9755
  400MOL0     H53938   9.389   3.127   7.116  0.1081 -2.5998 -1.7540
  400MOL0     H53939   9.202   3.286   7.112 -1.0383  3.1348 -0.3396
  400MOL0     H53940   9.225   3.313   6.943  0.5506  1.0247  0.3944
  400MOL0     H53941   9.313   3.454   7.149 -0.4264 -0.9692 -0.3390
  400MOL0     H53942   9.468   3.373   7.116 -0.6065 -0.1296  1.4190
  400MOL0     H53943   9.430   3.449   6.873  4.5157  0.2000  0.7363
  400MOL0     H53944   9.293   3.546   6.932 -2.9019 -3.3694  3.7760
  400MOL0     H53945   9.461   3.634   7.107  1.6665 -3.4349  1.5709
  400MOL0     H53946   9.584   3.545   7.051 -1.0507 -1.5918  4.1653
  400MOL0     H53947   9.426   3.739   6.885 -0.5974  1.3443  1.2634
  400MOL0     H53948   9.594   3.680   6.836  0.3430 -1.7534  0.3045
  400MOL0     H53949   9.536   3.865   7.075  0.7769 -1.6639  1.8082
  400MOL0     H53950   9.686   3.782   7.044 -0.3951 -0.6033  0.3001
  400MOL0     H53951   9.439   4.013   6.820 -0.2949  2.8769 -0.2714
  400MOL0     H53952   9.690   4.288   6.675  1.1694 -3.7972 -0.0327
  400MOL0     H53953   9.539   4.229   6.605  1.1099  1.8204 -1.9941
  400MOL0     H53954   9.431   4.319   6.828  0.1641 -0.2845 -0.4546
  400MOL0     H53955   9.590   4.390   6.856 -0.8218  1.1418  0.2882
  400MOL0     H53956   9.398   4.449   6.641 -0.2404 -0.2331  1.0066
  400MOL0     H53957   9.572   4.495   6.624  2.1343 -0.3848  0.9204
  400MOL0     H53958   9.529   4.637   6.841  0.1642 -2.1376  0.5832
  400MOL0     H53959   9.359   4.584   6.837  1.1500 -2.4876  1.2653
  400MOL0     H53960   9.357   4.934   6.580  1.3545 -1.5167  1.2610
  400MOL0     H53961   9.146   4.998   6.505  0.8840 -2.0285 -0.6719
  400MOL0     H53962   8.708   4.798   6.303  0.8087  1.9410  0.3015
  400MOL0     H53963   8.488   4.898   6.239 -2.9028  0.8588 -0.1949
  400MOL0     H53964   8.185   4.764   6.479 -2.1625 -0.2924  3.7297
  400MOL0     H53965   8.161   4.917   6.563 -0.4484  0.1196 -0.6914
  400MOL0     H53966   8.041   4.832   6.293 -3.6309 -0.1760  0.0402
  400MOL0     H53967   7.951   4.847   6.439 -1.1090  1.9388  1.3399
  400MOL0     H53968   8.103   5.102   6.331 -1.4382  2.0126 -3.7187
  400MOL0     H53969   7.966   5.030   6.236 -1.5151 -2.0287  0.0353
  400MOL0     H53970   7.933   5.225   6.397  0.5499  0.0761  2.2017
  400MOL0     H53971   7.961   5.123   6.528  2.7723 -1.2422 -0.9312
  400MOL0     H53972   7.772   4.986   6.485 -0.3580  1.3208  1.3676
  400MOL0     H53973   7.752   5.049   6.321 -0.0299 -1.5435 -0.1227
  400MOL0     H53974   7.706   5.283   6.423 -1.9903  0.2982  0.0285
  400MOL0     H53975   7.582   5.160   6.468 -0.8051  3.1559  2.3918
  400MOL0     H53976   7.771   5.319   6.649 -0.6308  0.6641 -2.3637
  400MOL0     H53977   7.737   5.143   6.672  1.6980 -2.0510 -4.1665
  400MOL0     H53978   7.541   5.362   6.612  2.0457 -0.0446 -1.1034
  400MOL0     H53979   7.488   5.212   6.687 -0.9829  0.9561  2.6909
  400MOL0     H53980   8.354   4.865   6.646 -0.9367 -0.8539 -1.5402
  400MOL0     H53981   8.602   4.801   6.711  0.4975  2.1991  0.3348
  400MOL0     H53982   8.976   4.644   6.680  1.6709 -1.1256  0.8631
  400MOL0     H53983   9.192   4.547   6.689  2.9355 -0.1925 -0.3368
  400MOL0     H53984   9.031   2.986   6.815 -0.5725  1.2843 -0.3371
  400MOL0     H53985   8.841   2.837   6.790  2.8030  1.7069 -1.3777
  400MOL0     H53986   8.537   2.666   6.767  1.3648  0.7106  1.5425
  400MOL0     H53987   8.362   2.544   6.652  0.9706 -1.6971 -0.5620
  400MOL0     H53988   7.987   2.415   6.822 -0.3902  0.7972 -3.6842
  400MOL0     H53989   8.077   2.267   6.876  0.4788 -2.1933 -1.7924
  400MOL0     H53990   8.072   2.171   6.655 -0.1095  0.3595 -0.4749
  400MOL0     H53991   8.007   2.314   6.587 -4.3021  0.7932 -0.3013
  400MOL0     H53992   7.815   2.191   6.599  0.0878 -0.4871  0.7486
  400MOL0     H53993   7.809   2.300   6.738  2.7492  0.2219  1.7364
  400MOL0     H53994   7.892   2.020   6.720 -0.5066  0.6026 -0.8840
  400MOL0     H53995   7.922   2.119   6.867  1.9627 -1.3745  0.0510
  400MOL0     H53996   7.499   2.070   6.925  1.0177 -0.0714  0.9551
  400MOL0     H53997   8.216   2.382   7.025 -0.2966 -0.5053 -1.5729
  400MOL0     H53998   8.349   2.583   7.222 -2.6109 -0.6083 -0.3858
  400MOL0     H53999   8.342   2.410   7.229  1.3359 -1.7182 -0.7160
  400MOL0     H54000   8.501   2.483   7.216 -1.0971 -0.5388  0.3113
  401MOL0     O54001  11.091   8.283   5.654 -0.5664 -0.1796 -0.0532
  401MOL0     C54002  10.993   8.207   5.653 -0.4360  0.6511  0.0728
  401MOL0     O54003  10.992   8.079   5.598  0.2420 -0.3039 -0.5294
  401MOL0     C54004  11.113   8.029   5.545 -0.1368 -0.0223 -0.0789
  401MOL0     C54005  11.134   8.011   5.408  0.0522  0.3938 -0.6272
  401MOL0     C54006  11.261   7.956   5.374 -0.2604 -0.1082  0.2505
  401MOL0     C54007  11.362   7.921   5.465  0.7841 -0.2888  0.6917
  401MOL0     O54008  11.474   7.858   5.428 -0.0386 -0.1239  0.7872
  401MOL0     C54009  11.549   7.929   5.323 -0.4634  0.6371 -0.8628
  401MOL0     C54010  11.702   7.911   5.345  0.1850  0.0429  0.2056
  401MOL0     C54011  11.747   7.776   5.302  0.1261  1.5081 -0.0500
  401MOL0     C54012  11.902   7.774   5.283 -0.1584 -0.1503  0.2658
  401MOL0     C54013  11.957   7.636   5.264 -0.0746  0.2985  0.5738
  401MOL0     C54014  12.109   7.638   5.251  0.4385  0.0306 -0.0368
  401MOL0     C54015  12.151   7.684   5.108  0.0316  0.0877 -0.6766
  401MOL0     C54016  12.131   7.584   5.000  0.5850 -0.0654  1.3062
  401MOL0     N54017  12.180   7.647   4.877  0.0525 -0.2905  0.3403
  401MOL0     C54018  12.299   7.606   4.817 -0.5583 -0.2944  0.7211
  401MOL0     C54019  12.308   7.697   4.714 -0.2885 -0.1114  0.2282
  401MOL0     C54020  12.427   7.717   4.624  0.4896  0.0105  0.9587
  401MOL0     C54021  12.548   7.657   4.687  0.1239  0.3526  0.0449
  401MOL0     C54022  12.659   7.658   4.588  0.4416  0.0983 -0.0340
  401MOL0     C54023  12.784   7.602   4.658 -0.0347 -0.0208 -0.6186
  401MOL0     O54024  12.814   7.691   4.773 -0.5405 -0.6254 -0.2120
  401MOL0     C54025  12.945   7.699   4.809 -0.1534  0.2808 -0.1256
  401MOL0     C54026  12.982   7.806   4.893 -0.0408  0.7247 -0.2528
  401MOL0     C54027  13.116   7.827   4.932 -0.2826  0.2194 -0.2780
  401MOL0     C54028  13.216   7.738   4.906 -0.7307  0.3686  0.3094
  401MOL0     C54029  13.350   7.763   4.942  0.1979 -0.6189 -0.3050
  401MOL0     O54030  13.375   7.891   4.999 -0.3793 -0.1793 -0.2467
  401MOL0     C54031  13.504   7.934   5.041  0.1993 -0.6930 -0.0520
  401MOL0     C54032  13.539   8.066   4.999  0.3317  0.6449 -0.5703
  401MOL0     C54033  13.655   8.128   5.045  0.9492 -1.0439  0.4029
  401MOL0     C54034  13.752   8.070   5.127  0.4704  0.3960  0.5284
  401MOL0     O54035  13.870   8.123   5.145  0.0907 -0.4342  0.0215
  401MOL0     C54036  13.971   8.042   5.197 -0.2151  0.3081 -0.1286
  401MOL0     C54037  14.107   8.104   5.165 -0.5194 -0.4425 -0.6991
  401MOL0     C54038  14.143   8.223   5.245 -0.5309 -0.2350  0.4702
  401MOL0     C54039  14.278   8.289   5.205  0.2583  0.2888  0.0809
  401MOL0     C54040  14.262   8.428   5.275  0.6156  0.0951 -0.7063
  401MOL0     C54041  14.376   8.539   5.242  0.7831 -0.1268 -0.0137
  401MOL0     C54042  14.505   8.529   5.316 -0.7126  0.6024 -0.4744
  401MOL0     C54043  14.612   8.634   5.274  0.4797  0.1690  0.3751
  401MOL0    Cl54044  14.698   8.582   5.124 -0.4207  0.2018  0.0027
  401MOL0     C54045  13.714   7.934   5.171 -0.3952 -0.4374  0.7004
  401MOL0     C54046  13.586   7.873   5.138 -0.2224  0.5357  0.3869
  401MOL0     O54047  13.438   7.684   4.904  0.5792 -0.7150  0.5861
  401MOL0     C54048  13.178   7.619   4.833 -0.0116 -0.3092  0.4080
  401MOL0     C54049  13.045   7.608   4.778 -0.2750 -0.3083  0.6386
  401MOL0     N54050  12.195   7.778   4.714 -0.2937  0.2960 -0.6892
  401MOL0     N54051  12.126   7.753   4.812 -0.2723  0.6451 -0.3477
  401MOL0     C54052  11.340   7.947   5.599  0.6586  0.0957 -0.8058
  401MOL0     C54053  11.214   7.999   5.638  0.0404 -0.2142 -0.6987
  401MOL0     C54054  10.883   8.253   5.740 -0.5589 -0.8052  0.0381
  401MOL0     C54055  10.752   8.211   5.706 -0.4313 -0.1926 -0.1004
  401MOL0     C54056  10.637   8.248   5.778  0.8207  0.4050 -0.2891
  401MOL0     C54057  10.650   8.312   5.898 -0.3891  0.4470 -0.6922
  401MOL0     O54058  10.555   8.329   5.997 -0.1328  0.4540  0.0849
  401MOL0     C54059  10.438   8.247   5.983  0.0999 -0.2298  0.6980
  401MOL0     C54060  10.357   8.268   6.113 -0.2417  0.0113  0.1813
  401MOL0     C54061  10.265   8.152   6.156 -0.3386  0.4863 -0.1198
  401MOL0     C54062  10.189   8.081   6.037  0.1201 -0.3103  0.7693
  401MOL0     C54063  10.112   7.969   6.092  0.2688  0.2689  0.0820
  401MOL0     C54064  10.063   7.875   6.153  0.2845 -0.4639 -0.1420
  401MOL0     C54065  10.774   8.372   5.922 -0.3717  0.2646 -1.1708
  401MOL0     C54066  10.888   8.348   5.846  0.0026  0.0032  0.3918
  401MOL0     C54067  11.011   8.423   5.894 -1.4861  0.4890 -1.3115
  401MOL0     H54068  11.061   8.037   5.332  0.5497  0.5758 -1.0533
  401MOL0     H54069  11.264   7.926   5.270 -2.8792 -1.2862  0.4445
  401MOL0     H54070  11.511   7.890   5.228  0.4957  0.4250 -1.1689
  401MOL0     H54071  11.529   8.036   5.305 -0.0735  0.2171 -4.7116
  401MOL0     H54072  11.729   7.927   5.450  0.1726  1.8572 -0.0311
  401MOL0     H54073  11.759   7.988   5.293  0.9132 -1.1427 -0.7932
  401MOL0     H54074  11.695   7.756   5.207 -3.3553  2.3180  1.5097
  401MOL0     H54075  11.713   7.709   5.381 -1.3005  1.8683 -0.3249
  401MOL0     H54076  11.919   7.843   5.200 -1.2858 -0.3612 -0.1698
  401MOL0     H54077  11.948   7.821   5.370  1.7454  1.4630 -1.5022
  401MOL0     H54078  11.921   7.564   5.339 -0.2345 -1.0666 -0.7738
  401MOL0     H54079  11.907   7.607   5.172  0.1677  0.1890  0.4752
  401MOL0     H54080  12.144   7.716   5.319 -0.5362 -0.8291  1.4878
  401MOL0     H54081  12.152   7.541   5.275  0.3035  0.4872  2.2183
  401MOL0     H54082  12.257   7.712   5.111 -0.2787  1.2284  1.6988
  401MOL0     H54083  12.106   7.781   5.088  1.7419  0.5812 -2.4259
  401MOL0     H54084  12.172   7.483   5.012  0.7556 -0.2651 -0.6520
  401MOL0     H54085  12.022   7.580   4.994  0.4546 -0.3492  3.1774
  401MOL0     H54086  12.371   7.534   4.855  2.0861  1.9169  0.1947
  401MOL0     H54087  12.409   7.662   4.531 -2.9320  0.7879  1.0178
  401MOL0     H54088  12.434   7.824   4.601  0.7749 -0.3719 -0.9332
  401MOL0     H54089  12.571   7.704   4.782 -0.6775  0.0604  0.3878
  401MOL0     H54090  12.532   7.552   4.714 -2.7318 -0.1068 -2.7226
  401MOL0     H54091  12.670   7.762   4.558 -1.8946  0.2122 -0.6800
  401MOL0     H54092  12.637   7.596   4.501 -0.6663 -1.2681  1.1592
  401MOL0     H54093  12.861   7.599   4.581 -1.6149 -1.0672 -2.2382
  401MOL0     H54094  12.768   7.501   4.698 -0.0677  0.4845  0.7025
  401MOL0     H54095  12.903   7.875   4.922 -1.4954 -1.1328  0.4182
  401MOL0     H54096  13.130   7.925   4.977  1.0269 -0.4460  0.8213
  401MOL0     H54097  13.471   8.124   4.937 -1.7435 -0.6491  0.3970
  401MOL0     H54098  13.684   8.223   4.999 -0.6665 -0.3736  0.7224
  401MOL0     H54099  13.956   8.029   5.305  0.6927  0.9938  0.0900
  401MOL0     H54100  13.964   7.945   5.146  0.4218  1.4699 -2.5393
  401MOL0     H54101  14.190   8.034   5.173  1.0814  1.5182  1.0742
  401MOL0     H54102  14.103   8.143   5.062  1.7570 -0.1681 -0.7316
  401MOL0     H54103  14.072   8.305   5.233  0.7711  0.6740 -1.7149
  401MOL0     H54104  14.149   8.205   5.353 -1.3031  0.6744  0.6738
  401MOL0     H54105  14.307   8.309   5.102  2.5137  2.0437  0.9777
  401MOL0     H54106  14.357   8.233   5.256  0.3868 -0.0230 -0.4610
  401MOL0     H54107  14.253   8.417   5.383 -2.6719  2.3896 -0.6214
  401MOL0     H54108  14.173   8.480   5.239  2.2615  2.1891 -1.9584
  401MOL0     H54109  14.393   8.538   5.134  2.8249 -2.5273  0.2339
  401MOL0     H54110  14.330   8.635   5.267  0.5016  0.3951 -2.3807
  401MOL0     H54111  14.539   8.427   5.299 -0.2547 -0.4399  4.8178
  401MOL0     H54112  14.485   8.547   5.423  0.2559 -1.2574  0.0622
  401MOL0     H54113  14.569   8.731   5.246 -1.0425 -1.1431 -2.2816
  401MOL0     H54114  14.682   8.647   5.356  0.5910  1.1737  0.1356
  401MOL0     H54115  13.778   7.878   5.237 -1.7059 -2.0989  0.6222
  401MOL0     H54116  13.553   7.780   5.183 -2.7034  0.8666 -0.5743
  401MOL0     H54117  13.258   7.550   4.808  4.3951  3.1338  3.5029
  401MOL0     H54118  13.026   7.526   4.708  2.0911 -1.2968  1.0755
  401MOL0     H54119  11.425   7.935   5.666  0.6602  0.0257 -0.8202
  401MOL0     H54120  11.208   8.018   5.745  0.7643 -1.8542 -0.3339
  401MOL0     H54121  10.736   8.138   5.628 -1.0457 -2.3323  1.9306
  401MOL0     H54122  10.543   8.208   5.741  1.3923 -0.7266 -0.5532
  401MOL0     H54123  10.471   8.143   5.979  2.7218  0.5831 -1.4246
  401MOL0     H54124  10.381   8.275   5.894 -0.4292  0.5114  1.2520
  401MOL0     H54125  10.299   8.361   6.105  1.6267  1.0546 -2.8571
  401MOL0     H54126  10.421   8.281   6.201 -0.0165 -1.9004  0.3396
  401MOL0     H54127  10.202   8.187   6.239  0.0997  0.6222  0.1645
  401MOL0     H54128  10.344   8.088   6.196  0.6973  2.1465  0.6278
  401MOL0     H54129  10.120   8.156   5.997  2.3246  2.3259  1.5543
  401MOL0     H54130  10.260   8.059   5.957 -2.6743  0.8167 -2.2595
  401MOL0     H54131  10.011   7.798   6.206 -2.0378 -1.0466 -2.9809
  401MOL0     H54132  10.785   8.433   6.011  1.0965  0.2298 -1.3014
  401MOL0     H54133  11.070   8.455   5.808  1.7387 -0.2699  0.4699
  401MOL0     H54134  10.991   8.521   5.939  0.6208  0.8243 -0.9874
  401MOL0     H54135  11.061   8.348   5.956  1.8092  2.7307 -0.9922
  402MOL0     O54136   9.167   9.647   9.930 -0.5012  0.2971 -0.0474
  402MOL0     C54137   9.103   9.718   9.854 -0.4020  0.0441 -0.0444
  402MOL0     O54138   9.161   9.803   9.761 -0.1074  0.1406  0.0736
  402MOL0     C54139   9.285   9.767   9.720  0.5340 -0.8324  0.3955
  402MOL0     C54140   9.397   9.832   9.769 -0.9372 -0.1992 -0.4038
  402MOL0     C54141   9.527   9.789   9.735 -0.1479 -1.2607  0.5005
  402MOL0     C54142   9.542   9.687   9.641 -0.0670  0.4525  0.4030
  402MOL0     O54143   9.670   9.651   9.622  0.1134  0.0969  0.2875
  402MOL0     C54144   9.712   9.531   9.677  0.8712  0.1393  1.1827
  402MOL0     C54145   9.807   9.465   9.573  0.2443 -0.1969  0.4624
  402MOL0     C54146   9.952   9.528   9.578 -0.0644 -0.5413  0.1464
  402MOL0     C54147  10.025   9.508   9.453  0.2563  0.8268  0.2285
  402MOL0     C54148  10.163   9.575   9.457 -0.1633 -0.1440 -0.0545
  402MOL0     C54149  10.223   9.582   9.315 -0.5292 -0.2810  0.5012
  402MOL0     C54150  10.358   9.650   9.293  0.2701 -1.1870 -0.3235
  402MOL0     C54151  10.389   9.765   9.393 -0.3178  0.2776  0.0211
  402MOL0     N54152  10.529   9.816   9.384  0.2714 -0.1849  0.1881
  402MOL0     C54153  10.579   9.933   9.325 -0.0614  0.7675  0.0039
  402MOL0     C54154  10.718   9.927   9.332 -0.5125 -0.1210 -0.2850
  402MOL0     C54155  10.812  10.037   9.286  0.2500 -0.1748  0.5171
  402MOL0     C54156  10.827  10.039   9.136  0.0289  0.3327  0.4875
  402MOL0     C54157  10.900   9.914   9.087 -0.1777 -0.2607 -0.3901
  402MOL0     C54158  11.042   9.912   9.144  0.7244 -0.2999 -0.0911
  402MOL0     O54159  11.122   9.833   9.058  0.6678 -0.2177  0.2678
  402MOL0     C54160  11.253   9.859   9.068 -0.1452  0.0748 -0.1777
  402MOL0     C54161  11.328   9.913   9.173 -0.5287  0.4446  0.0392
  402MOL0     C54162  11.465   9.947   9.153  0.7198  0.3441 -0.7687
  402MOL0     C54163  11.537   9.911   9.037  0.3164 -0.4166  0.4925
  402MOL0     C54164  11.676   9.948   9.008 -0.6626 -0.0596 -0.5054
  402MOL0     O54165  11.742  10.019   9.104  0.1547  0.1050  0.0696
  402MOL0     C54166  11.870  10.066   9.078 -0.1637  0.8080  0.3491
  402MOL0     C54167  11.907  10.196   9.128 -0.5242  0.1154 -0.3625
  402MOL0     C54168  12.035  10.245   9.107 -1.4517  0.0444 -0.1438
  402MOL0     C54169  12.134  10.169   9.031  0.7148 -1.3274  0.3444
  402MOL0     O54170  12.262  10.227   9.016  0.2902  0.1623  0.5267
  402MOL0     C54171  12.334  10.194   8.902 -0.6182  0.8626  0.6125
  402MOL0     C54172  12.463  10.133   8.937  0.2283  0.7843 -0.4144
  402MOL0     C54173  12.465   9.975   8.927 -0.2034  0.6272  0.4387
  402MOL0     C54174  12.436   9.907   9.062  0.0431 -0.2978  0.2583
  402MOL0     C54175  12.428   9.755   9.054  0.1491  0.5149 -0.1199
  402MOL0     C54176  12.553   9.681   9.010  0.0246 -0.3612  0.4511
  402MOL0     C54177  12.550   9.529   9.048  0.0586 -1.4791  0.1899
  402MOL0     C54178  12.654   9.456   8.966 -0.6352 -0.0435  0.4336
  402MOL0    Cl54179  12.805   9.525   9.037 -0.0067  0.0564 -0.4051
  402MOL0     C54180  12.104  10.043   8.984  0.5770 -0.3159 -0.0593
  402MOL0     C54181  11.978   9.985   9.015  0.5352 -0.3513 -0.3661
  402MOL0     O54182  11.722   9.917   8.902  0.1135  0.4717  0.5490
  402MOL0     C54183  11.460   9.858   8.930 -1.1519 -0.8652  0.1851
  402MOL0     C54184  11.321   9.833   8.943  0.2127 -0.5412 -0.4500
  402MOL0     N54185  10.753   9.803   9.378 -0.4423  0.1785 -0.1126
  402MOL0     N54186  10.643   9.743   9.410  0.1141 -0.1344  0.4561
  402MOL0     C54187   9.431   9.625   9.583 -0.9889 -0.2259  1.1830
  402MOL0     C54188   9.302   9.668   9.625 -0.6089 -0.3476 -0.2940
  402MOL0     C54189   8.962   9.733   9.878  0.0977 -0.9085 -0.2455
  402MOL0     C54190   8.895   9.835   9.814  0.4386 -0.3836 -0.3837
  402MOL0     C54191   8.756   9.864   9.836  0.3281 -0.2729  0.4586
  402MOL0     C54192   8.678   9.779   9.912  0.2716 -0.0937 -0.0769
  402MOL0     O54193   8.551   9.806   9.929 -0.7286 -0.2814 -0.3571
  402MOL0     C54194   8.517   9.866  10.047  0.4762  0.0750 -0.8003
  402MOL0     C54195   8.397   9.797  10.112 -0.3697  0.3754  0.1235
  402MOL0     C54196   8.409   9.642  10.137 -0.3068  0.4175  0.5226
  402MOL0     C54197   8.279   9.598  10.208 -0.3752 -0.1151 -0.6409
  402MOL0     C54198   8.274   9.452  10.237  0.4452  0.3264 -0.4833
  402MOL0     C54199   8.267   9.331  10.261  0.0279 -0.0926  0.7221
  402MOL0     C54200   8.740   9.677   9.977 -0.3017  0.6667  0.2487
  402MOL0     C54201   8.879   9.643   9.952 -0.6216 -0.6153 -0.0093
  402MOL0     C54202   8.945   9.518  10.002  0.3460  0.5594  0.4303
  402MOL0     H54203   9.377   9.921   9.828 -2.3463 -0.5703 -0.2954
  402MOL0     H54204   9.607   9.849   9.776 -2.1000  0.6306  1.7472
  402MOL0     H54205   9.781   9.562   9.756  2.2432 -1.9962  0.9108
  402MOL0     H54206   9.635   9.460   9.709  0.1574 -1.0076 -2.5751
  402MOL0     H54207   9.762   9.485   9.476 -0.4573 -0.6826  0.6789
  402MOL0     H54208   9.805   9.357   9.591  1.5462 -0.4568 -0.8146
  402MOL0     H54209  10.004   9.477   9.659 -0.2894 -0.6000  0.2531
  402MOL0     H54210   9.937   9.635   9.589  2.1748 -0.2408  0.7874
  402MOL0     H54211  10.039   9.402   9.430  2.7301  1.0611  0.4148
  402MOL0     H54212   9.967   9.549   9.370  2.0424 -0.8548 -1.9880
  402MOL0     H54213  10.140   9.673   9.500 -0.4939 -0.7961  1.2980
  402MOL0     H54214  10.241   9.531   9.521  2.4930  1.2136 -2.1447
  402MOL0     H54215  10.227   9.489   9.258  1.7415  0.1244 -0.1098
  402MOL0     H54216  10.156   9.645   9.255  1.4708 -0.9866 -2.7080
  402MOL0     H54217  10.354   9.694   9.193 -0.1468  1.7576  0.8990
  402MOL0     H54218  10.439   9.577   9.290 -0.6428 -2.2060 -1.1580
  402MOL0     H54219  10.327   9.852   9.369 -2.0450 -0.9741 -0.2240
  402MOL0     H54220  10.371   9.735   9.496 -0.0251 -1.0222 -0.2875
  402MOL0     H54221  10.524  10.018   9.287 -1.1889 -0.6968 -1.8082
  402MOL0     H54222  10.784  10.136   9.325  1.8629  0.7571 -0.5432
  402MOL0     H54223  10.905  10.016   9.341 -0.4424 -0.0077  1.7887
  402MOL0     H54224  10.731  10.042   9.083  0.4365  0.3834 -0.2713
  402MOL0     H54225  10.886  10.126   9.105 -1.5976 -0.0359 -4.5422
  402MOL0     H54226  10.911   9.920   8.978 -0.4828  2.5793 -0.3570
  402MOL0     H54227  10.841   9.826   9.111  0.5892  0.1129  3.4854
  402MOL0     H54228  11.047   9.878   9.248 -0.7056  1.8528  0.7561
  402MOL0     H54229  11.079  10.014   9.135  0.8722 -0.3815 -0.4265
  402MOL0     H54230  11.275   9.953   9.259  0.3740 -0.3764  1.0008
  402MOL0     H54231  11.510  10.004   9.234 -1.5733  1.7489 -0.3877
  402MOL0     H54232  11.849  10.240   9.208 -0.0206 -1.3723  0.8759
  402MOL0     H54233  12.068  10.335   9.156 -2.0658  1.8679 -2.8358
  402MOL0     H54234  12.276  10.135   8.830  1.4064 -1.2303  0.5884
  402MOL0     H54235  12.348  10.285   8.843 -0.5554  0.1297 -0.5213
  402MOL0     H54236  12.531  10.170   8.860  2.5809 -4.2541 -1.1786
  402MOL0     H54237  12.498  10.164   9.036 -1.7409  1.3046  0.1519
  402MOL0     H54238  12.400   9.928   8.852  1.8062 -2.3442  0.3604
  402MOL0     H54239  12.564   9.949   8.886 -0.3113  1.5379 -0.4299
  402MOL0     H54240  12.345   9.938   9.114 -1.7418 -3.1329 -0.9778
  402MOL0     H54241  12.511   9.929   9.139 -0.7128  1.6060  0.5154
  402MOL0     H54242  12.344   9.723   8.991 -0.6299 -2.9876  2.3649
  402MOL0     H54243  12.402   9.720   9.155  1.7361  2.6500  1.1021
  402MOL0     H54244  12.569   9.695   8.903  0.4360  2.0496  0.7883
  402MOL0     H54245  12.641   9.724   9.059  0.3449 -0.1466 -0.2894
  402MOL0     H54246  12.452   9.493   9.015 -0.1530 -0.7987  0.0418
  402MOL0     H54247  12.549   9.518   9.156 -3.5612  0.8911  0.5893
  402MOL0     H54248  12.644   9.347   8.974  1.8333 -0.5577 -1.9308
  402MOL0     H54249  12.631   9.477   8.862 -0.4192  0.0287  0.3983
  402MOL0     H54250  12.186   9.982   8.948  0.2513  0.0215 -1.4031
  402MOL0     H54251  11.961   9.885   8.976 -0.6287  0.5057 -2.1826
  402MOL0     H54252  11.511   9.849   8.835 -1.9808 -0.9469 -0.2638
  402MOL0     H54253  11.264   9.795   8.860 -1.2477 -0.3735  0.4338
  402MOL0     H54254   9.444   9.543   9.512  1.9163 -0.5766  1.9670
  402MOL0     H54255   9.215   9.643   9.566 -0.3425  0.7113 -1.1660
  402MOL0     H54256   8.948   9.912   9.759  0.2267 -1.3414 -2.0186
  402MOL0     H54257   8.700   9.948   9.797 -3.2248 -2.9146 -0.6854
  402MOL0     H54258   8.486   9.970  10.032 -0.4342 -0.5219 -3.6617
  402MOL0     H54259   8.596   9.861  10.123  1.2410 -3.0489 -1.6338
  402MOL0     H54260   8.317   9.810  10.039 -0.0128  0.9296 -0.1725
  402MOL0     H54261   8.376   9.853  10.203  0.2404  2.7990 -1.1423
  402MOL0     H54262   8.505   9.625  10.185  0.8695  2.2371 -1.0144
  402MOL0     H54263   8.405   9.608  10.033 -2.7213  1.8944  0.0523
  402MOL0     H54264   8.259   9.646  10.304 -1.6052 -2.1150  0.1712
  402MOL0     H54265   8.200   9.618  10.135 -0.9967 -1.2944 -0.3173
  402MOL0     H54266   8.262   9.224  10.272 -2.4613 -0.1119 -0.0759
  402MOL0     H54267   8.682   9.600  10.027 -4.3384  2.0647 -1.8359
  402MOL0     H54268   8.996   9.475   9.915 -3.3147  2.3028 -2.8875
  402MOL0     H54269   9.012   9.535  10.087 -1.9440 -3.1558  3.2899
  402MOL0     H54270   8.867   9.447  10.033  1.5175  0.4549  3.5043
  403MOL0     O54271   0.235   1.247   6.044  0.0343 -0.5616 -0.1052
  403MOL0     C54272   0.217   1.365   6.068  0.1428  0.3131 -0.1743
  403MOL0     O54273   0.316   1.460   6.089 -0.0033  0.1208  0.0588
  403MOL0     C54274   0.454   1.434   6.098  0.4870  0.4091  1.0145
  403MOL0     C54275   0.517   1.498   6.200 -0.4505 -1.0727 -0.1134
  403MOL0     C54276   0.654   1.492   6.221 -0.5987 -0.3202 -0.3754
  403MOL0     C54277   0.732   1.393   6.153  0.5395  0.1833 -0.2019
  403MOL0     O54278   0.866   1.388   6.191 -0.3269  0.3804 -0.1727
  403MOL0     C54279   0.943   1.278   6.131  0.4113 -0.0993  0.2121
  403MOL0     C54280   0.913   1.145   6.206 -0.3096 -0.6033  0.0758
  403MOL0     C54281   0.874   1.160   6.363 -0.7384  0.1493  0.3451
  403MOL0     C54282   0.863   1.025   6.429  0.1775  0.2924  0.0844
  403MOL0     C54283   0.891   1.051   6.579  0.3722 -0.1391 -0.2748
  403MOL0     C54284   0.821   0.944   6.668 -0.2546 -0.8956 -0.2538
  403MOL0     C54285   0.825   0.982   6.815 -0.3685 -0.9791 -0.1173
  403MOL0     C54286   0.705   1.078   6.845 -0.2738  1.1070 -0.3232
  403MOL0     N54287   0.729   1.153   6.968 -0.6471  0.1728  0.3058
  403MOL0     C54288   0.773   1.283   6.977 -1.3289  0.1525  0.1390
  403MOL0     C54289   0.723   1.332   7.093  0.6977  0.5382  0.1469
  403MOL0     C54290   0.747   1.471   7.156 -0.1594  0.0386  0.7617
  403MOL0     C54291   0.892   1.509   7.141  0.0518  0.4223  0.0700
  403MOL0     C54292   0.970   1.424   7.243 -0.8872  0.3766 -0.4739
  403MOL0     C54293   1.120   1.461   7.236 -0.3741 -0.3429  0.3113
  403MOL0     O54294   1.141   1.600   7.196 -0.4598  0.2477  0.1079
  403MOL0     C54295   1.268   1.649   7.185  0.0858  0.1855  0.6556
  403MOL0     C54296   1.291   1.787   7.202 -0.8924  0.6446 -0.7955
  403MOL0     C54297   1.426   1.843   7.192  1.5476  0.7224  0.3804
  403MOL0     C54298   1.535   1.759   7.168  0.7062 -0.1161 -1.0210
  403MOL0     C54299   1.671   1.810   7.158  0.9149 -0.4454  0.0027
  403MOL0     O54300   1.772   1.725   7.128  0.3081 -0.2894  0.1449
  403MOL0     C54301   1.902   1.772   7.121  0.7395 -0.6192 -0.7605
  403MOL0     C54302   1.965   1.845   7.220  0.0400 -0.6936  0.4824
  403MOL0     C54303   2.094   1.893   7.215  0.3435 -0.5645  0.8802
  403MOL0     C54304   2.174   1.871   7.095 -0.0487  1.1622 -0.7433
  403MOL0     O54305   2.304   1.900   7.076 -0.9959  0.2608 -0.6116
  403MOL0     C54306   2.378   1.944   7.186  0.7075 -0.2625  0.4171
  403MOL0     C54307   2.534   1.942   7.174  0.1420  0.7208 -0.3000
  403MOL0     C54308   2.595   2.004   7.304 -0.0400 -0.2313 -0.1184
  403MOL0     C54309   2.752   1.994   7.303  0.3696  0.2935  0.2533
  403MOL0     C54310   2.831   2.107   7.387  0.3184 -0.5560  0.5933
  403MOL0     C54311   2.984   2.084   7.404 -0.1673  0.2317 -0.7549
  403MOL0     C54312   3.024   1.964   7.506 -0.0235 -0.3453  0.3502
  403MOL0     C54313   3.180   1.944   7.501  0.1169  0.2137 -0.6684
  403MOL0    Cl54314   3.225   1.780   7.563  0.5189 -0.0141  0.0368
  403MOL0     C54315   2.112   1.795   6.999  2.0187 -0.7536 -0.6229
  403MOL0     C54316   1.982   1.738   7.014 -0.6401 -0.6643  0.4607
  403MOL0     O54317   1.680   1.923   7.204 -0.2109 -0.2254  0.5255
  403MOL0     C54318   1.507   1.626   7.137  0.1639  0.4229 -0.1777
  403MOL0     C54319   1.385   1.568   7.152  0.3099  0.2882 -0.3434
  403MOL0     N54320   0.654   1.228   7.154 -0.1101  0.6825 -1.0298
  403MOL0     N54321   0.653   1.127   7.077  0.3440 -0.2944  0.5330
  403MOL0     C54322   0.662   1.309   6.061 -0.7642  0.0674  0.6494
  403MOL0     C54323   0.527   1.336   6.028  0.8280 -0.1307 -0.0077
  403MOL0     C54324   0.083   1.428   6.057  0.3913  0.0582  0.6300
  403MOL0     C54325   0.039   1.460   5.929  0.6225  0.2664 -0.1180
  403MOL0     C54326  -0.086   1.529   5.924 -0.4109 -0.4916 -0.0586
  403MOL0     C54327  -0.156   1.570   6.037  0.4385 -0.0178 -0.6958
  403MOL0     O54328  -0.253   1.654   6.019  0.1061  0.0968  0.4415
  403MOL0     C54329  -0.348   1.679   6.121  0.4422  0.2550 -0.5722
  403MOL0     C54330  -0.309   1.798   6.213 -0.2906 -0.2062  0.2038
  403MOL0     C54331  -0.359   1.776   6.361 -0.4048  0.2051  1.1603
  403MOL0     C54332  -0.509   1.776   6.367 -0.0379 -0.6344 -0.3319
  403MOL0     C54333  -0.553   1.780   6.509 -0.2772  0.4770 -0.1766
  403MOL0     C54334  -0.576   1.802   6.629 -0.6310  0.4483 -0.5228
  403MOL0     C54335  -0.115   1.519   6.159 -0.2375  0.1010 -0.2458
  403MOL0     C54336   0.001   1.445   6.173 -0.8457 -0.0716 -0.0083
  403MOL0     C54337   0.052   1.403   6.313 -0.5489  0.1876  0.8276
  403MOL0     H54338   0.467   1.576   6.257  0.7793  0.4610 -1.0436
  403MOL0     H54339   0.711   1.555   6.288 -0.8880 -1.4461  0.9887
  403MOL0     H54340   0.920   1.256   6.026 -3.2059 -0.6097  0.9774
  403MOL0     H54341   1.050   1.300   6.137  0.5120  0.2479 -1.9481
  403MOL0     H54342   0.997   1.075   6.199 -0.1622 -0.2976 -1.8051
  403MOL0     H54343   0.833   1.093   6.154  0.0517  0.4725 -1.6057
  403MOL0     H54344   0.780   1.212   6.382 -0.4528  0.9137 -0.3063
  403MOL0     H54345   0.953   1.224   6.404  0.0510 -0.3155 -0.4350
  403MOL0     H54346   0.764   0.985   6.410  0.1496 -0.4526  1.6428
  403MOL0     H54347   0.943   0.957   6.398 -0.4181 -0.2745 -0.2225
  403MOL0     H54348   0.998   1.049   6.604 -0.2211 -1.1325  2.5326
  403MOL0     H54349   0.862   1.152   6.608  2.0104  0.7027 -1.3924
  403MOL0     H54350   0.716   0.939   6.637 -0.7124  1.1033  0.8334
  403MOL0     H54351   0.849   0.841   6.644 -2.6853 -2.3636  2.5483
  403MOL0     H54352   0.919   1.028   6.845  0.5318 -2.6156 -0.3135
  403MOL0     H54353   0.812   0.902   6.889 -0.8998  0.2387  1.1672
  403MOL0     H54354   0.713   1.157   6.769  2.1553  2.3992  1.1319
  403MOL0     H54355   0.610   1.024   6.849  0.8261 -0.9274 -0.4011
  403MOL0     H54356   0.825   1.338   6.900 -0.1081 -0.8527  0.2011
  403MOL0     H54357   0.684   1.551   7.115 -0.5402  0.1681  1.5808
  403MOL0     H54358   0.714   1.463   7.260 -2.0924 -3.1392  0.0464
  403MOL0     H54359   0.933   1.507   7.039 -0.6117 -0.6670 -0.1889
  403MOL0     H54360   0.899   1.617   7.154 -0.1377  0.5451 -0.7959
  403MOL0     H54361   0.958   1.320   7.212  1.6343 -0.9008  2.2731
  403MOL0     H54362   0.934   1.425   7.347 -1.1342 -0.7402 -0.5439
  403MOL0     H54363   1.168   1.389   7.169 -3.2152 -0.9519 -1.2699
  403MOL0     H54364   1.157   1.446   7.337 -1.5037 -3.9497  0.3380
  403MOL0     H54365   1.207   1.850   7.229 -0.6981  0.9604 -0.9117
  403MOL0     H54366   1.445   1.949   7.204 -4.0736  2.0714 -0.0965
  403MOL0     H54367   1.894   1.888   7.290 -0.0494  3.1200 -1.6735
  403MOL0     H54368   2.133   1.944   7.303  0.3110  0.0005  0.5735
  403MOL0     H54369   2.349   2.048   7.203 -0.3987 -0.2218 -1.5184
  403MOL0     H54370   2.350   1.882   7.272  2.0734 -1.5277 -0.0028
  403MOL0     H54371   2.568   1.840   7.154 -1.7874 -0.1653  0.6197
  403MOL0     H54372   2.561   2.002   7.086  0.7138  0.9321  0.0155
  403MOL0     H54373   2.573   2.111   7.312  1.9869  0.4105 -2.0217
  403MOL0     H54374   2.554   1.962   7.396  0.0184 -1.2391 -0.5373
  403MOL0     H54375   2.796   2.017   7.205 -0.1704  2.1797  0.4051
  403MOL0     H54376   2.786   1.893   7.325  0.3923  0.0461 -0.8379
  403MOL0     H54377   2.785   2.101   7.487  1.0202  0.3264  0.9889
  403MOL0     H54378   2.818   2.206   7.342  0.5227  0.0016  1.7220
  403MOL0     H54379   3.031   2.066   7.307 -3.8194 -1.7523 -2.3577
  403MOL0     H54380   3.029   2.170   7.453  1.2800 -0.9253  0.0111
  403MOL0     H54381   2.973   1.874   7.471  0.5098 -0.0956 -1.1520
  403MOL0     H54382   2.991   1.980   7.609 -0.6383 -1.4817  0.3355
  403MOL0     H54383   3.219   1.967   7.401 -1.6201  0.3838 -1.3470
  403MOL0     H54384   3.223   2.022   7.564  0.5440 -1.1452  0.7716
  403MOL0     H54385   2.172   1.782   6.909 -0.6726  1.9155 -3.0170
  403MOL0     H54386   1.950   1.675   6.932 -1.6993  1.7294 -1.0803
  403MOL0     H54387   1.590   1.570   7.095 -0.5067  0.1414 -1.1765
  403MOL0     H54388   1.372   1.464   7.121 -0.4705  0.7693 -1.7110
  403MOL0     H54389   0.708   1.229   6.003 -0.8938 -0.0777  0.7468
  403MOL0     H54390   0.464   1.282   5.958  2.8846 -1.4267 -0.9450
  403MOL0     H54391   0.104   1.451   5.843  0.1351  2.3159 -0.7610
  403MOL0     H54392  -0.134   1.555   5.830  1.1266  1.3426 -0.3964
  403MOL0     H54393  -0.366   1.588   6.178  1.8891 -0.2035 -0.8096
  403MOL0     H54394  -0.437   1.711   6.065 -0.4904  0.6302  1.0710
  403MOL0     H54395  -0.344   1.895   6.176 -1.4986  0.3687  2.6987
  403MOL0     H54396  -0.200   1.799   6.219 -0.3498 -0.0275  1.3193
  403MOL0     H54397  -0.316   1.851   6.428  1.3103 -0.5599  0.9867
  403MOL0     H54398  -0.325   1.675   6.386 -0.2293  0.3894  1.6598
  403MOL0     H54399  -0.550   1.867   6.323 -1.9009 -1.0021  0.5361
  403MOL0     H54400  -0.557   1.689   6.320  0.1133 -0.4578 -0.8170
  403MOL0     H54401  -0.609   1.793   6.730  0.5959  0.2078 -0.1237
  403MOL0     H54402  -0.170   1.539   6.250 -0.3215  0.7170 -0.4265
  403MOL0     H54403  -0.024   1.410   6.391 -1.3989  2.0325 -0.1187
  403MOL0     H54404   0.077   1.296   6.311 -3.6909 -0.6477  0.8725
  403MOL0     H54405   0.139   1.467   6.330 -0.4974  1.5593 -3.4335
  404MOL0     O54406  11.227   8.004  10.953 -0.0332 -0.2957 -0.2504
  404MOL0     C54407  11.198   7.904  11.015 -0.1745 -0.3910 -0.8422
  404MOL0     O54408  11.281   7.816  11.074  0.1497 -0.5165 -0.5912
  404MOL0     C54409  11.417   7.847  11.066  0.9018  0.1623 -0.4245
  404MOL0     C54410  11.485   7.802  10.951  0.2284  0.6157 -0.2520
  404MOL0     C54411  11.620   7.818  10.934 -0.6781 -0.4833  0.0318
  404MOL0     C54412  11.692   7.887  11.031 -0.4384  0.0019  0.0497
  404MOL0     O54413  11.828   7.888  11.007  0.0448 -0.0356  0.6660
  404MOL0     C54414  11.909   7.921  11.121  0.1566 -0.9048  0.1708
  404MOL0     C54415  12.043   7.934  11.061 -0.7288  0.2134  0.8086
  404MOL0     C54416  12.158   7.941  11.157 -0.1653  0.4330 -1.1066
  404MOL0     C54417  12.196   8.081  11.194  0.4306  0.4611  0.1256
  404MOL0     C54418  12.335   8.101  11.240  0.5489 -0.7202  0.1044
  404MOL0     C54419  12.456   8.031  11.171  0.2742  0.1213 -0.3105
  404MOL0     C54420  12.480   8.055  11.018 -0.0869  0.4167  0.2806
  404MOL0     C54421  12.500   8.206  10.986  0.2682  0.8022  0.1637
  404MOL0     N54422  12.627   8.254  11.033  0.9044  0.1782  0.5273
  404MOL0     C54423  12.745   8.180  11.026 -0.3869 -0.1751 -0.1416
  404MOL0     C54424  12.839   8.254  11.079  0.1297  0.1905 -0.2419
  404MOL0     C54425  12.977   8.210  11.107 -0.3466  0.3866  0.0693
  404MOL0     C54426  13.056   8.172  10.982 -0.6570 -0.5109 -0.6441
  404MOL0     C54427  13.205   8.173  10.997 -1.5119 -0.1021  0.3189
  404MOL0     C54428  13.253   8.064  11.091 -0.0449 -0.0015 -1.0336
  404MOL0     O54429  13.393   8.098  11.103  0.4784 -0.3414 -0.6244
  404MOL0     C54430  13.479   8.074  10.996  0.0681 -0.7031  0.1255
  404MOL0     C54431  13.455   8.019  10.872 -0.2552 -0.3629 -0.1412
  404MOL0     C54432  13.549   8.019  10.771 -0.8666  0.2109  0.9634
  404MOL0     C54433  13.673   8.081  10.783 -0.0995 -0.1536 -1.2561
  404MOL0     C54434  13.792   8.069  10.690  0.8872 -0.0370  0.2721
  404MOL0     O54435  13.916   8.092  10.742  0.6595  0.0413 -0.2732
  404MOL0     C54436  14.015   8.060  10.657 -0.8643  0.5765  0.0004
  404MOL0     C54437  14.046   8.145  10.544  0.2853 -0.0204 -0.0043
  404MOL0     C54438  14.150   8.105  10.460 -0.0075 -0.1249  1.0645
  404MOL0     C54439  14.222   7.984  10.479 -0.2495 -0.2685  0.7443
  404MOL0     O54440  14.329   7.970  10.398  0.1218  0.2279  0.9078
  404MOL0     C54441  14.418   7.863  10.437  1.3927  0.2806  0.0130
  404MOL0     C54442  14.548   7.874  10.349 -0.1672  0.7881 -0.2064
  404MOL0     C54443  14.647   7.986  10.383  0.0389 -0.6533  0.2870
  404MOL0     C54444  14.789   7.966  10.325  0.1492 -0.2370  0.6885
  404MOL0     C54445  14.880   8.097  10.353  0.6115  0.1367 -0.2019
  404MOL0     C54446  15.025   8.062  10.390 -0.0567 -0.5669 -0.2256
  404MOL0     C54447  15.121   8.174  10.357 -1.5623 -0.2221 -0.3877
  404MOL0     C54448  15.263   8.166  10.419  0.0071  0.0113 -0.1731
  404MOL0    Cl54449  15.342   8.014  10.374  0.1413  0.1924  0.0985
  404MOL0     C54450  14.175   7.897  10.578  0.4198 -0.0611  0.0635
  404MOL0     C54451  14.076   7.941  10.671  0.5903  0.6721 -0.8133
  404MOL0     O54452  13.762   8.017  10.578 -0.0530  0.2530  0.2098
  404MOL0     C54453  13.702   8.141  10.910  0.0264  0.4218 -0.0751
  404MOL0     C54454  13.604   8.144  11.010  0.3115 -0.6897 -0.2531
  404MOL0     N54455  12.776   8.363  11.129 -0.8084 -0.3352  0.0806
  404MOL0     N54456  12.645   8.357  11.112 -0.4804 -0.1448  0.3863
  404MOL0     C54457  11.628   7.923  11.152 -0.0726  0.0311  0.1272
  404MOL0     C54458  11.487   7.911  11.169  0.0849 -0.0142  0.3383
  404MOL0     C54459  11.051   7.862  11.045 -0.7375 -0.4099  0.4208
  404MOL0     C54460  11.027   7.751  11.126 -0.9013 -0.8047  0.3399
  404MOL0     C54461  10.896   7.717  11.153  0.5570  0.4748  0.2009
  404MOL0     C54462  10.785   7.791  11.107  0.2273 -0.7474 -0.1877
  404MOL0     O54463  10.649   7.768  11.135 -0.1774  0.0043  0.0909
  404MOL0     C54464  10.611   7.674  11.230 -0.9190  0.9848 -0.0277
  404MOL0     C54465  10.466   7.655  11.183  0.5000  0.3340  0.0274
  404MOL0     C54466  10.384   7.595  11.292 -0.4220 -0.3345 -0.4632
  404MOL0     C54467  10.340   7.690  11.400  0.0138  0.3310 -0.3318
  404MOL0     C54468  10.284   7.619  11.510  0.1372 -0.0584  0.4461
  404MOL0     C54469  10.251   7.553  11.605  0.7682  0.6752 -0.0323
  404MOL0     C54470  10.819   7.903  11.031 -0.3575 -0.2480 -0.2958
  404MOL0     C54471  10.947   7.939  10.992 -0.1665 -0.0185  0.3184
  404MOL0     C54472  10.957   8.068  10.909 -0.1603  0.1482  0.3239
  404MOL0     H54473  11.427   7.746  10.878  1.4111 -1.4393  0.3117
  404MOL0     H54474  11.667   7.785  10.842 -0.0634  1.0461 -0.2355
  404MOL0     H54475  11.885   8.021  11.158 -0.2269 -1.1602  0.6275
  404MOL0     H54476  11.906   7.846  11.201  1.1655  1.1958  2.2911
  404MOL0     H54477  12.049   8.018  10.992  2.9748 -1.0618 -0.6678
  404MOL0     H54478  12.058   7.837  11.013  1.5891  0.3880  1.0969
  404MOL0     H54479  12.240   7.886  11.110  0.5823  2.6204 -2.5287
  404MOL0     H54480  12.131   7.879  11.243  1.1082 -1.3149 -1.8908
  404MOL0     H54481  12.175   8.152  11.114 -1.1534  0.5626  0.6010
  404MOL0     H54482  12.132   8.121  11.273  2.6002  1.3144  1.5706
  404MOL0     H54483  12.348   8.209  11.242  2.1053 -0.7642 -2.7479
  404MOL0     H54484  12.338   8.063  11.343 -1.3650 -0.5165  0.2699
  404MOL0     H54485  12.548   8.070  11.216  1.2644 -0.7042 -1.5308
  404MOL0     H54486  12.463   7.923  11.187 -0.1829  0.0679 -0.4834
  404MOL0     H54487  12.385   8.031  10.968  0.6001 -0.0935 -0.8149
  404MOL0     H54488  12.561   7.985  10.993  0.1718 -0.8702  4.0428
  404MOL0     H54489  12.501   8.217  10.877  0.3119  0.6617  0.1490
  404MOL0     H54490  12.423   8.276  11.018 -0.0548  1.6859 -2.3240
  404MOL0     H54491  12.754   8.086  10.972  1.0092 -1.1166  1.6402
  404MOL0     H54492  13.035   8.290  11.155  1.6548 -1.8138  1.4994
  404MOL0     H54493  12.981   8.120  11.169 -0.7169  1.2743  1.4399
  404MOL0     H54494  13.024   8.073  10.948 -0.0413 -1.4393  1.3591
  404MOL0     H54495  13.035   8.246  10.904 -2.1132  1.6063  1.6466
  404MOL0     H54496  13.240   8.270  11.032  2.5311 -0.2452 -2.5313
  404MOL0     H54497  13.254   8.170  10.899 -0.8592  1.0605  0.5916
  404MOL0     H54498  13.232   7.966  11.046  0.6716  0.2354 -1.9179
  404MOL0     H54499  13.211   8.076  11.191  1.4333  2.6746 -0.6489
  404MOL0     H54500  13.365   7.960  10.857 -0.2434 -1.2431  2.6486
  404MOL0     H54501  13.527   7.962  10.682 -0.2709  0.9251  0.3423
  404MOL0     H54502  13.998   8.238  10.517  0.3231  0.5149  1.6842
  404MOL0     H54503  14.192   8.166  10.382  2.9621 -0.9872  1.8587
  404MOL0     H54504  14.448   7.865  10.542  0.5075  1.1238  0.2666
  404MOL0     H54505  14.364   7.772  10.411  2.4500  0.3576 -2.7507
  404MOL0     H54506  14.607   7.782  10.346 -0.0021  0.9150 -1.1987
  404MOL0     H54507  14.513   7.888  10.246 -2.3808 -0.2312  0.3428
  404MOL0     H54508  14.617   8.088  10.356 -1.5504 -1.3226 -0.6255
  404MOL0     H54509  14.649   7.995  10.492 -0.8037 -3.4906  0.6129
  404MOL0     H54510  14.795   7.948  10.218 -1.7712  2.6151 -0.0195
  404MOL0     H54511  14.837   7.885  10.380 -0.6821 -0.0394  1.7571
  404MOL0     H54512  14.832   8.165  10.424  1.2559  0.6886 -0.2884
  404MOL0     H54513  14.872   8.162  10.266  1.5326  1.2616  0.5194
  404MOL0     H54514  15.034   8.036  10.496 -1.2347 -1.1129 -0.2496
  404MOL0     H54515  15.050   7.973  10.331  0.0404  0.0881 -1.1985
  404MOL0     H54516  15.082   8.270  10.391  0.1697  0.1661  0.6752
  404MOL0     H54517  15.124   8.190  10.248 -0.8609  1.8696 -0.1008
  404MOL0     H54518  15.321   8.253  10.387  2.1492 -1.1121  0.5109
  404MOL0     H54519  15.258   8.160  10.528 -4.1997  2.4633  0.0126
  404MOL0     H54520  14.218   7.803  10.609 -0.6576 -0.8506 -0.7778
  404MOL0     H54521  14.052   7.876  10.755  1.1005  2.3368  0.6653
  404MOL0     H54522  13.800   8.176  10.943 -0.4759  0.2331  1.7690
  404MOL0     H54523  13.624   8.187  11.107 -0.3085  0.0693 -0.4544
  404MOL0     H54524  11.679   7.973  11.234 -0.1466  1.9864 -0.9313
  404MOL0     H54525  11.442   7.941  11.263  1.5742 -0.4915  1.2469
  404MOL0     H54526  11.110   7.692  11.164  0.5889  0.3895 -0.9285
  404MOL0     H54527  10.867   7.632  11.214 -1.4789  1.2648  0.4161
  404MOL0     H54528  10.626   7.717  11.329  2.9853 -0.5379  0.2203
  404MOL0     H54529  10.665   7.579  11.223 -2.8686 -0.1077 -1.2121
  404MOL0     H54530  10.456   7.576  11.107  0.7711 -0.6008  0.9496
  404MOL0     H54531  10.418   7.749  11.153 -0.7485  0.0424  1.0850
  404MOL0     H54532  10.432   7.512  11.345  0.8786  0.3944 -0.4453
  404MOL0     H54533  10.296   7.556  11.241 -0.5781 -1.2992  0.5024
  404MOL0     H54534  10.421   7.747  11.446  0.4132 -1.0803  0.7996
  404MOL0     H54535  10.278   7.766  11.353  0.1761  0.8536  0.2953
  404MOL0     H54536  10.220   7.498  11.691  0.9031  1.3016  0.4223
  404MOL0     H54537  10.736   7.968  11.006 -1.0250 -1.4252 -1.3125
  404MOL0     H54538  11.008   8.145  10.968 -0.9376  1.4040 -0.5863
  404MOL0     H54539  11.015   8.053  10.818  1.9717  1.9591  1.2919
  404MOL0     H54540  10.858   8.100  10.875  0.0037  0.6084  0.2710
  405MOL0     O54541   8.012   5.867   3.229 -0.1437  0.0940  1.0397
  405MOL0     C54542   7.912   5.833   3.177 -0.3890 -0.1686 -0.8530
  405MOL0     O54543   7.902   5.762   3.060 -0.0085 -0.0528 -0.2848
  405MOL0     C54544   8.020   5.747   2.988 -0.3875  0.1839  0.5577
  405MOL0     C54545   8.064   5.616   2.947 -0.3168  0.5420 -0.6833
  405MOL0     C54546   8.185   5.599   2.876  0.1458 -0.5105  0.4564
  405MOL0     C54547   8.252   5.715   2.827  0.9088 -0.4711  0.8309
  405MOL0     O54548   8.353   5.687   2.733 -0.2876 -0.1708  1.0384
  405MOL0     C54549   8.434   5.798   2.684  0.0959  0.4510  0.4287
  405MOL0     C54550   8.534   5.859   2.782 -0.3860  0.6600 -0.6967
  405MOL0     C54551   8.634   5.749   2.828  0.3476  0.2179  0.6109
  405MOL0     C54552   8.763   5.804   2.891 -0.1889 -0.2445 -0.1893
  405MOL0     C54553   8.881   5.719   2.853 -0.3344  0.0544  0.5793
  405MOL0     C54554   9.015   5.772   2.913  0.2210 -0.2823  0.4355
  405MOL0     C54555   9.131   5.671   2.893 -0.0908  0.0215  0.1092
  405MOL0     C54556   9.156   5.622   2.754  0.1773 -0.0933 -0.3392
  405MOL0     N54557   9.285   5.564   2.726 -0.1984 -0.1331  0.0927
  405MOL0     C54558   9.322   5.437   2.750  1.4141 -0.0812  0.1763
  405MOL0     C54559   9.453   5.430   2.729 -0.8168  0.3945 -0.2961
  405MOL0     C54560   9.539   5.302   2.711 -0.2867 -0.0793 -0.3052
  405MOL0     C54561   9.607   5.287   2.576 -0.4501  0.0053  0.3506
  405MOL0     C54562   9.682   5.156   2.545 -0.6955 -0.0995 -0.4660
  405MOL0     C54563   9.787   5.158   2.429  0.4613 -0.6170 -0.8378
  405MOL0     O54564   9.906   5.218   2.463 -0.0586  0.1415 -0.1278
  405MOL0     C54565  10.016   5.137   2.487 -0.3997  1.0474 -0.8196
  405MOL0     C54566  10.011   5.008   2.540 -0.1390  0.2231  0.2791
  405MOL0     C54567  10.129   4.938   2.559  0.4292  0.3020  0.2605
  405MOL0     C54568  10.258   5.001   2.528  0.2363 -0.4181 -0.3862
  405MOL0     C54569  10.381   4.930   2.556  0.8618 -0.3823 -0.6043
  405MOL0     O54570  10.380   4.796   2.563  0.4716 -0.5092 -0.0404
  405MOL0     C54571  10.498   4.736   2.579  0.2031 -0.5867  0.6077
  405MOL0     C54572  10.555   4.712   2.704 -0.8238  0.3365  0.2679
  405MOL0     C54573  10.669   4.636   2.718 -0.3301 -0.6546  0.1804
  405MOL0     C54574  10.737   4.587   2.605  0.0160 -0.5117  0.6522
  405MOL0     O54575  10.860   4.527   2.608  0.3756 -0.6679  0.0055
  405MOL0     C54576  10.893   4.466   2.733 -0.4800  0.4079  0.4795
  405MOL0     C54577  11.028   4.402   2.723 -0.4742  0.7025 -0.2268
  405MOL0     C54578  11.146   4.494   2.744 -0.6608 -0.0131  0.1236
  405MOL0     C54579  11.273   4.407   2.741  0.3300  0.4493 -0.0346
  405MOL0     C54580  11.407   4.486   2.749  0.9113  0.1340 -0.5466
  405MOL0     C54581  11.533   4.398   2.741  0.5567  0.7291 -0.3433
  405MOL0     C54582  11.653   4.483   2.789 -0.2580  0.1281  0.2031
  405MOL0     C54583  11.782   4.417   2.757  0.0336 -0.8406 -0.5926
  405MOL0    Cl54584  11.897   4.505   2.863  0.1552  0.0708  0.0151
  405MOL0     C54585  10.678   4.611   2.478 -0.0572  0.0220  0.4257
  405MOL0     C54586  10.563   4.691   2.468  0.0153 -0.8878 -0.5747
  405MOL0     O54587  10.480   5.004   2.579  0.5397  0.6003 -0.8542
  405MOL0     C54588  10.265   5.135   2.483  0.0900 -0.9732 -0.4165
  405MOL0     C54589  10.138   5.197   2.456  0.5923  0.6920  0.2363
  405MOL0     N54590   9.490   5.549   2.679 -0.0492 -0.4194  0.6542
  405MOL0     N54591   9.397   5.632   2.694 -0.1043  0.5149  0.2067
  405MOL0     C54592   8.200   5.841   2.850 -0.8419 -0.1119  0.0540
  405MOL0     C54593   8.084   5.860   2.932 -0.0423 -0.0768  0.5981
  405MOL0     C54594   7.787   5.856   3.252 -0.2637 -0.1281 -0.4616
  405MOL0     C54595   7.673   5.859   3.173  0.0909  0.3744  0.9929
  405MOL0     C54596   7.545   5.886   3.229  0.2176  0.0659  0.5009
  405MOL0     C54597   7.532   5.897   3.362  0.0113  0.6262 -0.3785
  405MOL0     O54598   7.407   5.921   3.416 -0.4189  0.0966  0.4969
  405MOL0     C54599   7.334   5.816   3.471  0.5435  0.0827 -0.3317
  405MOL0     C54600   7.205   5.864   3.530 -0.7967  0.3503  0.1584
  405MOL0     C54601   7.107   5.882   3.419 -0.3710 -0.7839 -0.7246
  405MOL0     C54602   6.968   5.893   3.481 -0.0410 -0.1448 -0.2791
  405MOL0     C54603   6.875   5.910   3.374  0.1269 -0.3190  0.6179
  405MOL0     C54604   6.798   5.904   3.276  0.1832 -0.2409 -0.0562
  405MOL0     C54605   7.639   5.883   3.446 -0.1767 -0.6457 -0.2650
  405MOL0     C54606   7.774   5.864   3.389  0.6057  0.0749 -0.3455
  405MOL0     C54607   7.890   5.858   3.486 -0.4331 -0.4582  0.5318
  405MOL0     H54608   8.012   5.531   2.991 -1.3480  0.4993 -1.9235
  405MOL0     H54609   8.204   5.494   2.857 -1.2885 -0.5951 -0.6613
  405MOL0     H54610   8.496   5.764   2.600  1.3331  1.3065  0.9786
  405MOL0     H54611   8.366   5.870   2.637 -1.2057 -1.9051 -1.5200
  405MOL0     H54612   8.482   5.906   2.866 -1.6422 -0.8171 -0.5968
  405MOL0     H54613   8.590   5.938   2.730 -0.1581  1.0504  0.1133
  405MOL0     H54614   8.657   5.700   2.734 -0.3826  1.3325 -0.1801
  405MOL0     H54615   8.582   5.671   2.885  0.8540  0.3392  1.2554
  405MOL0     H54616   8.778   5.908   2.860 -0.6765 -0.2650 -0.5132
  405MOL0     H54617   8.749   5.789   2.998 -1.5311 -0.9130 -0.4249
  405MOL0     H54618   8.866   5.614   2.878 -0.0193 -0.5052 -1.3930
  405MOL0     H54619   8.891   5.717   2.744  3.2663 -0.1488  0.7865
  405MOL0     H54620   9.042   5.870   2.872  0.7639 -0.8775 -0.6753
  405MOL0     H54621   8.985   5.790   3.016 -3.0505 -2.1705 -0.0499
  405MOL0     H54622   9.116   5.578   2.950  2.3378  0.4895  1.6701
  405MOL0     H54623   9.224   5.704   2.940 -1.6215  0.9410  2.7779
  405MOL0     H54624   9.076   5.552   2.728  1.4321 -1.5919 -0.3051
  405MOL0     H54625   9.142   5.704   2.683 -0.7183  0.4851  0.4707
  405MOL0     H54626   9.253   5.354   2.759 -1.8642  2.5090  0.5579
  405MOL0     H54627   9.623   5.305   2.781  1.0552  3.0695 -1.8724
  405MOL0     H54628   9.482   5.211   2.734 -0.7226  0.3082  0.1889
  405MOL0     H54629   9.530   5.293   2.498 -0.1532 -0.1752  0.0409
  405MOL0     H54630   9.683   5.366   2.571  1.9485 -1.7683  4.1642
  405MOL0     H54631   9.602   5.082   2.535 -2.3498  1.4158  0.7686
  405MOL0     H54632   9.737   5.134   2.637 -1.9580 -0.2370  0.2866
  405MOL0     H54633   9.739   5.211   2.347 -1.0181  1.4263  1.2271
  405MOL0     H54634   9.803   5.054   2.400 -2.2815 -1.5641  0.6988
  405MOL0     H54635   9.919   4.960   2.574  0.2092 -0.1545  0.7029
  405MOL0     H54636  10.127   4.836   2.596  1.1796 -0.6070 -2.0115
  405MOL0     H54637  10.486   4.746   2.780 -0.5190 -0.6624  1.0129
  405MOL0     H54638  10.701   4.619   2.820  0.2101  1.1112  0.3426
  405MOL0     H54639  10.897   4.537   2.817 -0.5655 -0.1732  0.9798
  405MOL0     H54640  10.818   4.387   2.741 -0.5796  0.1680 -2.1314
  405MOL0     H54641  11.030   4.325   2.801 -3.0004 -0.9915 -1.6847
  405MOL0     H54642  11.033   4.363   2.621  1.1416 -0.4306  0.2489
  405MOL0     H54643  11.147   4.562   2.658 -2.5231 -1.1019 -0.8317
  405MOL0     H54644  11.134   4.558   2.832 -0.0421  0.4311 -0.1097
  405MOL0     H54645  11.269   4.334   2.660 -0.8330 -0.4340  0.7757
  405MOL0     H54646  11.263   4.343   2.829 -1.1064  0.2269 -0.3275
  405MOL0     H54647  11.409   4.553   2.835  2.6554 -0.5654  0.0080
  405MOL0     H54648  11.412   4.559   2.668 -0.5933  0.6713 -0.1883
  405MOL0     H54649  11.522   4.303   2.794 -0.0315  1.1362  0.2788
  405MOL0     H54650  11.548   4.363   2.639  0.4203 -0.0212 -0.1098
  405MOL0     H54651  11.645   4.501   2.896  1.2685 -0.0040  0.3587
  405MOL0     H54652  11.640   4.583   2.746 -1.7721 -0.5595 -1.0632
  405MOL0     H54653  11.785   4.312   2.787 -0.2545  0.1510  3.5035
  405MOL0     H54654  11.801   4.432   2.650 -1.5088  1.1959 -0.6400
  405MOL0     H54655  10.739   4.594   2.390  0.1721  3.5929 -0.2411
  405MOL0     H54656  10.529   4.718   2.368 -1.4833  0.0344  0.1487
  405MOL0     H54657  10.360   5.184   2.465  0.4308 -0.3629  2.6044
  405MOL0     H54658  10.118   5.293   2.410 -1.2127 -0.6256 -1.9290
  405MOL0     H54659   8.228   5.939   2.812 -3.2799  0.6799  0.0920
  405MOL0     H54660   8.045   5.960   2.941 -2.2406 -0.5370 -2.2806
  405MOL0     H54661   7.688   5.857   3.065 -0.3902  1.0178  0.9138
  405MOL0     H54662   7.462   5.910   3.163 -0.2061  1.1093  1.3715
  405MOL0     H54663   7.403   5.771   3.543 -0.9560  1.3884  2.0491
  405MOL0     H54664   7.315   5.737   3.398 -1.1233 -1.3168  1.5304
  405MOL0     H54665   7.225   5.961   3.576 -0.5796  1.2110 -1.6975
  405MOL0     H54666   7.166   5.788   3.598 -0.5013 -0.5979 -0.7098
  405MOL0     H54667   7.112   5.807   3.339  0.2593 -0.3923 -1.0619
  405MOL0     H54668   7.128   5.977   3.369 -2.0437 -0.1302 -0.2647
  405MOL0     H54669   6.944   5.803   3.538 -1.6148 -0.4537 -1.3789
  405MOL0     H54670   6.952   5.975   3.552  0.9600  0.1624 -0.3916
  405MOL0     H54671   6.744   5.907   3.183  1.6152  4.3043 -1.0123
  405MOL0     H54672   7.638   5.891   3.555  0.7873 -0.2422 -0.2824
  405MOL0     H54673   7.933   5.955   3.510 -1.3127 -0.1444  0.8735
  405MOL0     H54674   7.858   5.810   3.579 -1.1512 -0.5540  0.2417
  405MOL0     H54675   7.963   5.785   3.450  0.6766  0.4471  0.8895
  406MOL0     O54676   8.814   7.375   9.372  0.7808 -0.0376  0.5208
  406MOL0     C54677   8.777   7.301   9.279 -0.5033 -0.1992 -0.1517
  406MOL0     O54678   8.856   7.205   9.216 -0.5468  0.3366  0.4697
  406MOL0     C54679   8.992   7.242   9.197 -0.3533  0.4131 -0.1879
  406MOL0     C54680   9.034   7.352   9.120 -0.0350 -0.5899  0.2650
  406MOL0     C54681   9.175   7.367   9.103 -0.2031 -0.4689 -0.4888
  406MOL0     C54682   9.273   7.285   9.159  0.4470 -0.1603  0.2154
  406MOL0     O54683   9.414   7.309   9.147  0.1522 -0.6516 -0.1499
  406MOL0     C54684   9.457   7.364   9.025  0.0145  0.1280  0.3577
  406MOL0     C54685   9.597   7.304   8.996 -0.4076 -0.8329 -0.5883
  406MOL0     C54686   9.697   7.296   9.119  0.1752 -0.6307  0.3399
  406MOL0     C54687   9.846   7.320   9.081  0.8186  0.3736  0.3602
  406MOL0     C54688   9.905   7.218   8.994 -0.2909  0.7307  0.3492
  406MOL0     C54689   9.887   7.071   9.039  0.2059  0.0366  0.7244
  406MOL0     C54690   9.957   7.058   9.184 -0.5518  0.1174  1.6686
  406MOL0     C54691   9.971   6.911   9.233 -0.8895 -0.6815  0.6272
  406MOL0     N54692  10.084   6.835   9.169 -0.1305 -0.4663  0.1733
  406MOL0     C54693  10.220   6.858   9.174  0.2188 -0.0634  0.1999
  406MOL0     C54694  10.275   6.753   9.112 -0.6081 -0.6384 -0.1183
  406MOL0     C54695  10.421   6.728   9.092  0.9229 -1.1704 -0.6030
  406MOL0     C54696  10.472   6.629   9.193  0.3009  0.5000  0.1646
  406MOL0     C54697  10.630   6.642   9.192  0.0208 -0.3854  0.2050
  406MOL0     C54698  10.708   6.565   9.295  0.6426  0.0681 -0.2050
  406MOL0     O54699  10.686   6.427   9.263 -0.0556 -0.1202  0.3743
  406MOL0     C54700  10.735   6.337   9.348 -0.3064  0.5083  0.5730
  406MOL0     C54701  10.797   6.366   9.474 -0.7211 -0.6516 -0.7380
  406MOL0     C54702  10.854   6.267   9.560  0.6128  0.0586  0.1862
  406MOL0     C54703  10.838   6.132   9.519 -0.0138 -0.5671  0.2470
  406MOL0     C54704  10.896   6.022   9.601  0.7758  0.7323 -0.1409
  406MOL0     O54705  10.936   6.057   9.730 -0.3044  0.2216 -0.3291
  406MOL0     C54706  11.024   5.983   9.808  0.5153 -0.3786  0.1705
  406MOL0     C54707  11.117   5.890   9.761  0.2701  0.5943 -1.0308
  406MOL0     C54708  11.197   5.822   9.856 -0.4541 -0.2922 -0.0584
  406MOL0     C54709  11.187   5.839   9.992  0.3621 -0.0801 -0.6320
  406MOL0     O54710  11.274   5.772  10.082 -0.3862  0.2660  1.0697
  406MOL0     C54711  11.274   5.817  10.223 -0.7461  0.0343  0.0235
  406MOL0     C54712  11.329   5.964  10.236 -0.5418 -0.4163 -0.7565
  406MOL0     C54713  11.475   5.983  10.182  0.1818 -0.3746  0.1667
  406MOL0     C54714  11.587   5.905  10.263  0.0747  0.1220  0.1386
  406MOL0     C54715  11.733   5.952  10.243 -0.6895 -0.7063 -0.4806
  406MOL0     C54716  11.751   6.104  10.271 -0.5818  0.3447  0.3733
  406MOL0     C54717  11.906   6.133  10.265  0.4282  0.2651 -0.1711
  406MOL0     C54718  11.935   6.276  10.219  0.3995  0.1488  0.2419
  406MOL0    Cl54719  11.903   6.284  10.043  0.2749  0.4456  0.1847
  406MOL0     C54720  11.090   5.935  10.034  0.5886  0.2333 -0.5004
  406MOL0     C54721  11.013   6.006   9.945 -0.5338  0.7617 -0.0652
  406MOL0     O54722  10.903   5.912   9.548 -0.9351  0.1642  0.9788
  406MOL0     C54723  10.783   6.107   9.391 -0.2879  0.2367  0.2428
  406MOL0     C54724  10.733   6.206   9.306 -0.1553  0.4072 -0.0697
  406MOL0     N54725  10.175   6.668   9.078 -0.4333  0.2914  0.0304
  406MOL0     N54726  10.063   6.721   9.110 -0.4034 -0.2453 -0.8684
  406MOL0     C54727   9.231   7.177   9.233 -0.5484  1.0031  0.7090
  406MOL0     C54728   9.098   7.157   9.254 -0.1804 -0.4741  0.5612
  406MOL0     C54729   8.631   7.292   9.256  0.3360  0.6548  0.5644
  406MOL0     C54730   8.573   7.165   9.222  0.2362 -0.5279  0.7837
  406MOL0     C54731   8.434   7.153   9.220  0.1598 -0.1224  0.2645
  406MOL0     C54732   8.352   7.258   9.257  0.5277 -0.6569  0.3242
  406MOL0     O54733   8.219   7.226   9.241  0.3935  0.1472 -0.3996
  406MOL0     C54734   8.116   7.326   9.244 -0.6495 -0.0154 -0.3215
  406MOL0     C54735   8.014   7.272   9.142 -0.0017  0.6340  0.2881
  406MOL0     C54736   7.954   7.134   9.172 -0.5671 -0.2969  0.2443
  406MOL0     C54737   7.860   7.086   9.069  0.4627  0.5911 -0.1355
  406MOL0     C54738   7.755   7.002   9.125  0.9220 -0.8903 -0.1579
  406MOL0     C54739   7.673   6.924   9.168 -0.2055 -0.4860 -0.4186
  406MOL0     C54740   8.404   7.386   9.293  0.0597  0.6640  1.0265
  406MOL0     C54741   8.541   7.399   9.283  0.1073 -0.2897 -0.7145
  406MOL0     C54742   8.585   7.543   9.314  0.0585  0.0418  0.7738
  406MOL0     H54743   8.954   7.413   9.078 -0.5971 -1.0977  0.5738
  406MOL0     H54744   9.209   7.453   9.046 -0.8553  0.3542  0.3507
  406MOL0     H54745   9.392   7.336   8.942  0.1167 -2.5932  1.1148
  406MOL0     H54746   9.460   7.473   9.036  4.4958  0.2233  0.1484
  406MOL0     H54747   9.639   7.348   8.905 -0.7035 -1.0360 -0.8247
  406MOL0     H54748   9.588   7.196   8.980 -0.2177 -0.7840 -1.0703
  406MOL0     H54749   9.676   7.201   9.170 -1.7485 -0.2324  0.3479
  406MOL0     H54750   9.668   7.368   9.197 -2.0273 -0.7030 -0.3604
  406MOL0     H54751   9.849   7.426   9.053  0.6545  0.4797  0.7431
  406MOL0     H54752   9.900   7.327   9.175  1.4333  1.7438 -0.0645
  406MOL0     H54753   9.850   7.218   8.899 -2.1491 -0.8284  1.3562
  406MOL0     H54754  10.011   7.242   8.982  0.4406 -1.5380  1.6708
  406MOL0     H54755   9.779   7.056   9.040  0.1227  0.5208 -0.0769
  406MOL0     H54756   9.930   6.994   8.974 -0.7020 -0.2876  0.4898
  406MOL0     H54757   9.902   7.112   9.261 -1.9057  1.9539 -0.4519
  406MOL0     H54758  10.056   7.105   9.180  0.1877 -1.4099 -0.6717
  406MOL0     H54759  10.002   6.920   9.338 -2.8622  0.2875  1.1789
  406MOL0     H54760   9.885   6.844   9.220  0.8139 -2.4097 -3.2164
  406MOL0     H54761  10.261   6.952   9.209 -0.4213 -0.4998  2.2448
  406MOL0     H54762  10.444   6.686   8.993 -0.3535 -1.2251 -0.8980
  406MOL0     H54763  10.480   6.817   9.111 -0.0535 -0.5535 -0.3899
  406MOL0     H54764  10.428   6.640   9.293 -0.1528  1.9523 -0.1643
  406MOL0     H54765  10.439   6.531   9.158  0.5316 -0.4494  2.4678
  406MOL0     H54766  10.648   6.748   9.211 -0.7756 -0.1575 -0.2261
  406MOL0     H54767  10.665   6.617   9.091 -2.5126  1.1027 -1.1527
  406MOL0     H54768  10.669   6.579   9.396 -0.7253 -0.8389 -0.5856
  406MOL0     H54769  10.812   6.600   9.293  0.3962  0.7557 -1.3359
  406MOL0     H54770  10.798   6.463   9.523 -1.1833 -0.9895 -0.0362
  406MOL0     H54771  10.885   6.287   9.662 -0.2048  3.4365 -0.0867
  406MOL0     H54772  11.142   5.872   9.657  2.8995 -1.7763 -0.1046
  406MOL0     H54773  11.258   5.739   9.821  1.0984  0.2003  1.3485
  406MOL0     H54774  11.179   5.808  10.276  0.2117 -2.6041  1.4530
  406MOL0     H54775  11.342   5.750  10.275 -0.3562 -0.0294 -0.5584
  406MOL0     H54776  11.273   6.032  10.172 -2.4304 -2.1072 -0.9863
  406MOL0     H54777  11.335   5.995  10.341  1.6663 -0.6514 -0.7591
  406MOL0     H54778  11.483   5.955  10.076  0.8397  2.3782 -0.5916
  406MOL0     H54779  11.491   6.091  10.188 -0.7133 -0.1702 -0.8396
  406MOL0     H54780  11.574   5.798  10.246  0.7117 -0.0168  0.4763
  406MOL0     H54781  11.566   5.933  10.367 -0.5240  2.4244 -0.5303
  406MOL0     H54782  11.768   5.929  10.142  1.7712 -1.5383  0.4818
  406MOL0     H54783  11.805   5.893  10.300  0.9880 -1.1358 -2.8781
  406MOL0     H54784  11.703   6.155  10.187 -0.8647 -2.1992 -1.0993
  406MOL0     H54785  11.703   6.132  10.365 -1.6592  0.5497 -0.2201
  406MOL0     H54786  11.953   6.062  10.196 -0.6979  0.1843 -0.8971
  406MOL0     H54787  11.949   6.111  10.363  1.3758  0.1855 -0.5987
  406MOL0     H54788  11.873   6.347  10.275 -1.7922 -0.0130 -1.8287
  406MOL0     H54789  12.039   6.302  10.241 -0.6424  5.7796 -0.0359
  406MOL0     H54790  11.080   5.959  10.139  0.1649  0.5112 -0.5998
  406MOL0     H54791  10.938   6.076   9.981  0.3262  1.0368  1.2274
  406MOL0     H54792  10.785   6.003   9.361  2.0376 -0.2772  1.8909
  406MOL0     H54793  10.698   6.191   9.205 -1.1868  0.6007  0.2523
  406MOL0     H54794   9.304   7.115   9.283  2.2483 -0.0387 -4.0256
  406MOL0     H54795   9.081   7.069   9.315 -0.1066  0.0604  1.3755
  406MOL0     H54796   8.634   7.076   9.206 -0.2787 -0.8609  0.6611
  406MOL0     H54797   8.386   7.060   9.191  0.2576  0.3767 -1.6245
  406MOL0     H54798   8.145   7.427   9.215 -1.8015 -0.2177 -2.4037
  406MOL0     H54799   8.072   7.328   9.344  1.0477  0.1446  0.4493
  406MOL0     H54800   8.070   7.270   9.048 -0.7396 -1.0168 -0.1415
  406MOL0     H54801   7.934   7.343   9.120  1.8977  2.8053  0.0068
  406MOL0     H54802   7.906   7.136   9.270 -0.3420  1.4571  0.3563
  406MOL0     H54803   8.035   7.061   9.163 -1.1039 -0.7384 -1.3137
  406MOL0     H54804   7.813   7.166   9.010  1.2907  1.1212 -0.1005
  406MOL0     H54805   7.925   7.028   9.002 -0.0740  1.0340 -1.0650
  406MOL0     H54806   7.589   6.867   9.201 -0.3264 -0.6456 -1.0039
  406MOL0     H54807   8.339   7.468   9.319 -1.2557  0.2170 -0.6177
  406MOL0     H54808   8.570   7.578   9.416  1.7506  3.6064 -0.0262
  406MOL0     H54809   8.687   7.564   9.280 -0.3005 -0.1854 -0.4941
  406MOL0     H54810   8.515   7.598   9.250 -1.5389 -2.3635  0.2892
  407MOL0     O54811   6.088   2.091   6.734  0.0311 -0.2131  0.7736
  407MOL0     C54812   6.111   2.036   6.843  0.5730 -0.0565  0.3940
  407MOL0     O54813   6.225   2.056   6.923  0.1237  0.5839  0.2661
  407MOL0     C54814   6.332   2.124   6.866  0.2298 -0.0271 -0.4830
  407MOL0     C54815   6.357   2.254   6.921 -0.4568 -0.1647 -0.0584
  407MOL0     C54816   6.476   2.320   6.896  0.3019  0.1312  0.4105
  407MOL0     C54817   6.569   2.272   6.808  0.6949  0.2453  0.2072
  407MOL0     O54818   6.671   2.358   6.769 -0.3809  0.7539 -0.0003
  407MOL0     C54819   6.802   2.342   6.832  0.2054 -0.2265  0.1928
  407MOL0     C54820   6.874   2.476   6.836  0.0021 -0.2788 -0.0663
  407MOL0     C54821   7.002   2.466   6.926  0.2245  0.1841 -0.0578
  407MOL0     C54822   7.092   2.592   6.907 -0.6355  0.5814 -0.4374
  407MOL0     C54823   7.226   2.572   6.984 -0.0396 -0.4261  0.2921
  407MOL0     C54824   7.329   2.683   6.963 -0.1538  0.4805  0.2041
  407MOL0     C54825   7.279   2.819   7.011  0.8043  0.0059  0.2026
  407MOL0     C54826   7.292   2.843   7.165  0.3052  0.1004 -0.1273
  407MOL0     N54827   7.189   2.776   7.246 -0.5061  0.4804 -0.1180
  407MOL0     C54828   7.048   2.784   7.225 -0.0321  0.0705 -0.1989
  407MOL0     C54829   6.998   2.679   7.298 -0.0723  0.3847  0.2210
  407MOL0     C54830   6.856   2.626   7.308  0.1143 -0.2863  0.3932
  407MOL0     C54831   6.758   2.686   7.210 -0.4291  0.3102  0.3089
  407MOL0     C54832   6.620   2.622   7.227  0.2808 -0.5181 -1.1186
  407MOL0     C54833   6.620   2.470   7.223  0.0904  0.5531 -0.1575
  407MOL0     O54834   6.482   2.433   7.222 -0.3042  0.2527  0.5047
  407MOL0     C54835   6.449   2.305   7.232  0.1820  0.3205  0.8556
  407MOL0     C54836   6.316   2.269   7.244 -0.1886 -0.2809  0.5856
  407MOL0     C54837   6.274   2.134   7.259  0.4237 -0.4453  0.0389
  407MOL0     C54838   6.363   2.028   7.258  0.2121  0.4814  0.1658
  407MOL0     C54839   6.322   1.884   7.276  0.0675 -0.6550  0.7417
  407MOL0     O54840   6.194   1.875   7.317  0.1696 -0.1223 -0.0853
  407MOL0     C54841   6.141   1.749   7.314 -0.3661 -0.0589  0.9036
  407MOL0     C54842   6.056   1.716   7.419 -0.2337 -0.8301  0.4080
  407MOL0     C54843   5.991   1.593   7.429 -0.2549  0.2019  0.3807
  407MOL0     C54844   6.002   1.494   7.330  0.3655  0.4215 -1.1548
  407MOL0     O54845   5.937   1.382   7.359 -0.4363  1.7831 -0.2494
  407MOL0     C54846   5.950   1.271   7.273 -0.6077  0.5904  0.5612
  407MOL0     C54847   5.865   1.284   7.151 -0.0448 -0.0451  1.4447
  407MOL0     C54848   5.742   1.193   7.145 -0.0798 -0.3842  0.2093
  407MOL0     C54849   5.637   1.230   7.040  0.3582  0.3692  0.7225
  407MOL0     C54850   5.510   1.137   7.036 -0.1471  0.1267 -0.3649
  407MOL0     C54851   5.385   1.216   7.004  0.3824 -0.5915 -1.2704
  407MOL0     C54852   5.261   1.131   7.025  0.8374 -0.1115  0.2493
  407MOL0     C54853   5.137   1.222   6.983 -0.3370  0.3337  0.3408
  407MOL0    Cl54854   4.983   1.126   6.995 -0.1668  0.0728  0.6423
  407MOL0     C54855   6.074   1.529   7.217 -0.2312  0.0995  0.7612
  407MOL0     C54856   6.147   1.649   7.207  0.3131 -1.0599  0.0277
  407MOL0     O54857   6.398   1.793   7.255  0.1072  0.3742  0.1524
  407MOL0     C54858   6.504   2.058   7.249  0.2783 -0.3731  0.2408
  407MOL0     C54859   6.544   2.195   7.230  0.7269 -0.3432 -0.1968
  407MOL0     N54860   7.105   2.618   7.361 -0.6886  0.1817  0.4064
  407MOL0     N54861   7.219   2.681   7.337  0.4903  0.3784  0.3276
  407MOL0     C54862   6.540   2.145   6.748  0.6927  0.0928  0.6905
  407MOL0     C54863   6.427   2.070   6.782 -0.2322 -0.8860  0.6107
  407MOL0     C54864   5.995   1.973   6.905 -0.0527 -1.0206  0.2692
  407MOL0     C54865   5.977   1.989   7.044 -0.0434  0.3119 -0.6176
  407MOL0     C54866   5.871   1.923   7.112 -0.4044  0.2065 -0.4665
  407MOL0     C54867   5.783   1.828   7.048 -0.0861 -0.6601  0.8189
  407MOL0     O54868   5.669   1.786   7.116 -0.5427 -0.2986 -0.0187
  407MOL0     C54869   5.651   1.644   7.102 -0.3688  0.4258 -0.3311
  407MOL0     C54870   5.539   1.598   7.196  0.3866 -0.3643  1.1122
  407MOL0     C54871   5.399   1.634   7.151  0.4436  0.1270  0.3266
  407MOL0     C54872   5.290   1.587   7.256  0.7499  0.5469 -0.4963
  407MOL0     C54873   5.171   1.636   7.187 -0.1699 -0.5324  0.5763
  407MOL0     C54874   5.084   1.692   7.121  0.1066 -0.1473 -0.4099
  407MOL0     C54875   5.804   1.806   6.909  0.0817 -1.2045  0.8041
  407MOL0     C54876   5.913   1.874   6.840 -0.1664  0.0050  0.4719
  407MOL0     C54877   5.927   1.841   6.697  0.0479  0.0502  0.2885
  407MOL0     H54878   6.286   2.290   6.995  3.3927  0.9508  3.4273
  407MOL0     H54879   6.484   2.420   6.938 -1.1959  1.9762 -3.2697
  407MOL0     H54880   6.794   2.312   6.937  2.6422 -1.4452  0.1052
  407MOL0     H54881   6.864   2.267   6.781 -0.7092 -0.2827 -0.8518
  407MOL0     H54882   6.808   2.556   6.869  0.5580  0.7205 -1.3076
  407MOL0     H54883   6.905   2.510   6.737 -1.9477  1.7808 -0.0348
  407MOL0     H54884   7.066   2.380   6.904  0.8811  0.4792  0.6613
  407MOL0     H54885   6.966   2.464   7.029 -0.3664  1.2528 -0.2272
  407MOL0     H54886   7.127   2.603   6.804  0.8129 -0.6408 -0.1086
  407MOL0     H54887   7.036   2.681   6.938 -2.2016 -0.1921 -0.9471
  407MOL0     H54888   7.213   2.550   7.091 -0.7838 -0.5660  0.1790
  407MOL0     H54889   7.275   2.485   6.940  0.4484 -0.5069  0.9725
  407MOL0     H54890   7.430   2.666   7.000 -0.5187 -3.0736 -0.0469
  407MOL0     H54891   7.347   2.694   6.856 -2.5356  2.3816 -0.0853
  407MOL0     H54892   7.178   2.854   6.991  1.3980  0.4563 -2.4209
  407MOL0     H54893   7.345   2.889   6.959 -0.2063  1.3071  0.6315
  407MOL0     H54894   7.387   2.806   7.206 -0.2272  0.6083  1.6707
  407MOL0     H54895   7.273   2.948   7.192  0.2971  0.0772 -0.0406
  407MOL0     H54896   6.996   2.858   7.165 -0.2798 -1.3241 -1.7984
  407MOL0     H54897   6.867   2.518   7.301 -1.5904 -0.4347 -0.6353
  407MOL0     H54898   6.823   2.646   7.410 -0.9170  1.6322 -0.2665
  407MOL0     H54899   6.750   2.794   7.228 -0.1379  0.3886 -0.0153
  407MOL0     H54900   6.804   2.666   7.112 -1.7157 -2.8757  0.2311
  407MOL0     H54901   6.561   2.667   7.146 -3.0956  0.0894  1.4146
  407MOL0     H54902   6.571   2.654   7.320  0.5736  0.6746 -1.3530
  407MOL0     H54903   6.673   2.433   7.311  0.8061 -1.8286 -1.5169
  407MOL0     H54904   6.672   2.434   7.134 -1.0268 -1.0029 -0.2316
  407MOL0     H54905   6.246   2.350   7.259 -1.4990 -1.0691 -0.9798
  407MOL0     H54906   6.169   2.121   7.283  0.3914  1.3105  1.0250
  407MOL0     H54907   6.043   1.790   7.497  0.0674 -0.6941  0.3335
  407MOL0     H54908   5.933   1.574   7.519  4.2051 -0.2082  3.5658
  407MOL0     H54909   6.058   1.271   7.257 -0.5309  0.3931  1.0415
  407MOL0     H54910   5.927   1.178   7.326  1.4684 -0.2848  0.0163
  407MOL0     H54911   5.837   1.389   7.139  0.5038 -0.1308 -1.2043
  407MOL0     H54912   5.936   1.261   7.070 -0.4418 -0.6847  1.2667
  407MOL0     H54913   5.773   1.090   7.126 -0.6453 -0.6490  0.6916
  407MOL0     H54914   5.703   1.198   7.247  0.4306  2.1702  0.3446
  407MOL0     H54915   5.684   1.223   6.942 -1.0583  1.0726 -0.0403
  407MOL0     H54916   5.609   1.334   7.058 -1.5628 -0.0075  0.1118
  407MOL0     H54917   5.499   1.097   7.137 -0.8159  0.6648 -0.2255
  407MOL0     H54918   5.522   1.062   6.957 -2.0881  1.8417 -2.4190
  407MOL0     H54919   5.389   1.302   7.072  0.0158 -2.9419  1.9911
  407MOL0     H54920   5.394   1.256   6.903 -1.1423 -1.2121 -1.6891
  407MOL0     H54921   5.252   1.115   7.133  1.5299  2.5868  0.7782
  407MOL0     H54922   5.266   1.037   6.969  1.3947 -0.9647  1.6700
  407MOL0     H54923   5.136   1.307   7.051 -0.4156  2.8449 -2.6009
  407MOL0     H54924   5.144   1.269   6.884 -0.0232  1.6993  0.9893
  407MOL0     H54925   6.098   1.459   7.138 -0.3793  0.2805  0.5543
  407MOL0     H54926   6.203   1.675   7.117  0.9469  1.1118  0.9920
  407MOL0     H54927   6.576   1.978   7.243 -0.1996 -0.8707  1.0227
  407MOL0     H54928   6.651   2.210   7.217  0.9380 -0.5490  1.1610
  407MOL0     H54929   6.608   2.098   6.677 -0.5574  0.2057 -0.6386
  407MOL0     H54930   6.423   1.965   6.753  3.7824 -1.5647  2.0133
  407MOL0     H54931   6.024   2.064   7.106 -0.2525 -0.7744  0.9042
  407MOL0     H54932   5.852   1.937   7.218 -1.1446 -1.2933 -0.3712
  407MOL0     H54933   5.749   1.598   7.122 -0.8811  0.1449  1.7396
  407MOL0     H54934   5.627   1.620   6.998 -0.1769 -1.4785  0.0217
  407MOL0     H54935   5.546   1.641   7.296 -4.1270  0.8534  1.1370
  407MOL0     H54936   5.546   1.491   7.215  1.1603 -0.0786  2.5675
  407MOL0     H54937   5.383   1.580   7.057  0.2798  0.2605  0.2775
  407MOL0     H54938   5.393   1.742   7.137 -1.6949 -0.0414 -0.4156
  407MOL0     H54939   5.277   1.479   7.266  1.0728  0.4665 -0.9144
  407MOL0     H54940   5.300   1.629   7.356 -2.2375  0.5113 -0.0781
  407MOL0     H54941   5.002   1.731   7.065 -0.1398  0.5535  0.4139
  407MOL0     H54942   5.750   1.735   6.848  0.1353 -0.3770 -0.2476
  407MOL0     H54943   5.892   1.739   6.675 -0.8833  0.4576 -0.1676
  407MOL0     H54944   5.861   1.898   6.631  1.3637 -0.4324 -1.5395
  407MOL0     H54945   6.032   1.848   6.667 -0.6684  4.1280 -1.9107
  408MOL0     O54946   6.301   2.523   1.041 -0.1046  0.3329  1.2048
  408MOL0     C54947   6.310   2.587   1.146  0.4201  0.7200 -0.1822
  408MOL0     O54948   6.420   2.644   1.194 -0.0495  0.3480 -0.7489
  408MOL0     C54949   6.544   2.631   1.147 -0.2765 -0.3389 -0.7577
  408MOL0     C54950   6.633   2.730   1.196  0.3906  0.6503  0.3978
  408MOL0     C54951   6.764   2.729   1.157 -0.5904  0.2105 -0.5748
  408MOL0     C54952   6.824   2.631   1.078  0.0610  1.0111 -1.4444
  408MOL0     O54953   6.964   2.636   1.051  0.8224  0.9042 -0.6250
  408MOL0     C54954   7.003   2.553   0.949 -0.0379  0.1839  0.4656
  408MOL0     C54955   7.143   2.577   0.899  0.4977 -0.8963 -0.3491
  408MOL0     C54956   7.178   2.737   0.913  0.1433  0.2172 -0.1213
  408MOL0     C54957   7.329   2.774   0.894 -0.2729 -0.4418  0.0312
  408MOL0     C54958   7.379   2.738   0.749  0.2109  0.2432 -0.3092
  408MOL0     C54959   7.528   2.744   0.746 -0.1451  0.0435  0.4204
  408MOL0     C54960   7.593   2.886   0.750  1.0425  0.5731  0.2183
  408MOL0     C54961   7.666   2.909   0.879 -0.5614 -0.1691 -0.1016
  408MOL0     N54962   7.805   2.868   0.871 -0.0411 -0.2351 -0.2446
  408MOL0     C54963   7.866   2.763   0.943 -0.1231 -0.5697  0.2542
  408MOL0     C54964   7.998   2.785   0.927 -0.1644  1.2269 -0.1961
  408MOL0     C54965   8.093   2.711   1.008 -0.0927  1.0613  0.1350
  408MOL0     C54966   8.243   2.741   0.978  0.3818  0.4700  0.2382
  408MOL0     C54967   8.282   2.644   0.867 -0.2253 -0.1536  0.5459
  408MOL0     C54968   8.438   2.636   0.858  0.3976  0.0323  0.1157
  408MOL0     O54969   8.476   2.564   0.741 -0.2540  0.2659  0.5452
  408MOL0     C54970   8.612   2.560   0.710 -0.4177  0.0575 -0.1786
  408MOL0     C54971   8.647   2.508   0.581 -0.8486  0.4766  0.7685
  408MOL0     C54972   8.788   2.482   0.549  0.5104  0.6812  0.1211
  408MOL0     C54973   8.888   2.513   0.641  0.8094  0.3527 -0.5038
  408MOL0     C54974   9.032   2.507   0.597  0.2128  0.0247 -0.0227
  408MOL0     O54975   9.060   2.412   0.499 -0.3500 -0.0114  0.0196
  408MOL0     C54976   9.194   2.406   0.457  0.1816 -0.0045 -0.1337
  408MOL0     C54977   9.284   2.354   0.552 -0.3967  0.5078 -0.5524
  408MOL0     C54978   9.417   2.342   0.527 -0.0077  0.6489  0.9366
  408MOL0     C54979   9.472   2.375   0.397  0.1457 -0.4717 -0.8125
  408MOL0     O54980   9.611   2.369   0.371 -0.0669  0.5189  0.8524
  408MOL0     C54981   9.658   2.351   0.237  0.2116  0.0371  0.0099
  408MOL0     C54982   9.802   2.293   0.229  0.4664  0.3930  0.1304
  408MOL0     C54983   9.807   2.141   0.271 -0.7896 -0.2847  0.5366
  408MOL0     C54984   9.816   2.122   0.428  0.2019 -1.5166  0.0452
  408MOL0     C54985   9.844   1.978   0.479 -0.4027 -0.8327 -0.1776
  408MOL0     C54986   9.906   1.977   0.618 -0.4918 -0.0520 -1.1660
  408MOL0     C54987   9.935   1.828   0.665 -0.6532 -0.1383  0.5816
  408MOL0     C54988  10.072   1.774   0.619  0.4495 -0.0691 -0.4792
  408MOL0    Cl54989  10.191   1.880   0.675  0.4054 -0.0533  0.3982
  408MOL0     C54990   9.380   2.430   0.301 -0.3300 -0.9505  0.1181
  408MOL0     C54991   9.239   2.451   0.335  0.3438  0.7892  0.3205
  408MOL0     O54992   9.111   2.583   0.644  0.1067 -0.5348 -0.1438
  408MOL0     C54993   8.854   2.560   0.768 -0.2485 -0.8663 -1.1398
  408MOL0     C54994   8.719   2.590   0.801  0.1194  0.5890  0.6173
  408MOL0     N54995   8.021   2.873   0.832  0.3989 -0.5569  0.0990
  408MOL0     N54996   7.904   2.926   0.803  0.2751  0.2375  0.9590
  408MOL0     C54997   6.730   2.526   1.036  0.0421 -0.7851  0.3893
  408MOL0     C54998   6.597   2.527   1.074  0.0170 -0.1892 -0.7183
  408MOL0     C54999   6.179   2.594   1.215 -0.2805 -0.3946  0.0697
  408MOL0     C55000   6.058   2.578   1.143 -0.1272  0.0484 -0.5139
  408MOL0     C55001   5.933   2.577   1.209 -0.1807 -0.1680 -0.2116
  408MOL0     C55002   5.923   2.603   1.338 -0.0113  0.5680  0.5062
  408MOL0     O55003   5.811   2.610   1.409  0.1977  0.3555  0.8570
  408MOL0     C55004   5.685   2.564   1.356  1.2203  1.0723 -0.3486
  408MOL0     C55005   5.592   2.527   1.468  0.4187 -0.0558  0.2818
  408MOL0     C55006   5.454   2.483   1.405  1.2876  0.2860 -0.0970
  408MOL0     C55007   5.367   2.412   1.514  0.3068  0.1090  0.2486
  408MOL0     C55008   5.268   2.329   1.457  0.2966  0.3253  0.0311
  408MOL0     C55009   5.179   2.270   1.400  0.5610 -0.5904 -0.0252
  408MOL0     C55010   6.034   2.628   1.411  0.4766  0.3425 -0.0556
  408MOL0     C55011   6.166   2.620   1.357  0.2256  0.8778 -0.2143
  408MOL0     C55012   6.277   2.650   1.448 -0.3743  0.4216 -0.3270
  408MOL0     H55013   6.583   2.806   1.255 -1.7756  0.0101 -0.5208
  408MOL0     H55014   6.828   2.814   1.177 -1.1985  1.0575 -2.1349
  408MOL0     H55015   6.995   2.446   0.974  0.2201  0.0253 -0.1019
  408MOL0     H55016   6.937   2.579   0.865  1.5136  0.9170 -0.5735
  408MOL0     H55017   7.147   2.538   0.797  0.0321 -0.3407 -0.5825
  408MOL0     H55018   7.218   2.516   0.950 -0.1740 -1.9318 -0.5711
  408MOL0     H55019   7.141   2.788   1.002 -3.9479  0.8844 -1.9462
  408MOL0     H55020   7.114   2.785   0.838 -2.8851 -0.4619  1.8264
  408MOL0     H55021   7.349   2.880   0.913 -0.8103 -0.1969 -0.7461
  408MOL0     H55022   7.380   2.710   0.967 -0.1825 -1.2910 -0.7610
  408MOL0     H55023   7.345   2.636   0.728 -0.7042  0.4378  0.1784
  408MOL0     H55024   7.336   2.811   0.680 -1.4390 -0.9595 -0.5956
  408MOL0     H55025   7.576   2.677   0.818  1.5795 -1.0971 -1.6786
  408MOL0     H55026   7.562   2.715   0.646  1.2203  3.6571 -0.3164
  408MOL0     H55027   7.516   2.963   0.739  0.5464  0.2329  1.1613
  408MOL0     H55028   7.676   2.904   0.682  0.7481 -1.2781 -0.6958
  408MOL0     H55029   7.650   3.014   0.903 -3.1827 -0.0798 -1.8134
  408MOL0     H55030   7.620   2.849   0.959  0.3142  1.7404  1.9337
  408MOL0     H55031   7.816   2.692   1.009 -0.0046  0.2995  1.3054
  408MOL0     H55032   8.067   2.736   1.112 -1.8252 -3.2274  0.9837
  408MOL0     H55033   8.073   2.603   1.002  1.4835  0.6018  1.9163
  408MOL0     H55034   8.254   2.846   0.948 -2.5689  0.7314 -0.1986
  408MOL0     H55035   8.303   2.726   1.068  1.4965  0.5237 -0.4629
  408MOL0     H55036   8.233   2.683   0.777 -1.0751  0.8545  1.4186
  408MOL0     H55037   8.253   2.541   0.888  0.4218 -0.5059 -0.2316
  408MOL0     H55038   8.467   2.584   0.949 -0.7031  1.4496  1.3345
  408MOL0     H55039   8.478   2.737   0.847 -5.0115  2.4552 -1.1109
  408MOL0     H55040   8.574   2.478   0.506  1.6474  0.0639 -1.6420
  408MOL0     H55041   8.808   2.454   0.446 -1.3892  1.9021 -0.6309
  408MOL0     H55042   9.243   2.330   0.650  1.5761 -1.7829 -0.2049
  408MOL0     H55043   9.486   2.295   0.596  1.9991  1.6498 -0.2652
  408MOL0     H55044   9.590   2.280   0.188  1.2315  0.4285 -2.0792
  408MOL0     H55045   9.665   2.447   0.186  4.7883 -0.0372  0.0782
  408MOL0     H55046   9.849   2.309   0.132  0.8086 -1.2920 -0.0056
  408MOL0     H55047   9.864   2.353   0.296  0.7794 -1.4339  1.5722
  408MOL0     H55048   9.725   2.080   0.233 -2.0140  0.6650  1.5766
  408MOL0     H55049   9.898   2.100   0.226 -0.1741  0.4952  1.0331
  408MOL0     H55050   9.728   2.173   0.467 -0.7524 -1.9154 -1.4811
  408MOL0     H55051   9.897   2.180   0.473  0.5935 -0.8446 -1.4549
  408MOL0     H55052   9.916   1.945   0.404 -2.5023 -2.4270 -1.6281
  408MOL0     H55053   9.760   1.907   0.474 -2.1031  0.9345  1.3798
  408MOL0     H55054   9.991   2.045   0.623 -1.9191  1.8700 -1.6891
  408MOL0     H55055   9.833   2.018   0.689  2.1192  1.2828  0.9228
  408MOL0     H55056   9.861   1.753   0.637  0.5255 -0.6061 -1.4527
  408MOL0     H55057   9.939   1.818   0.774 -1.9165  0.0393  0.6566
  408MOL0     H55058  10.089   1.674   0.660 -0.9342 -0.7769 -1.5943
  408MOL0     H55059  10.078   1.769   0.510  0.1656  0.5873 -0.5252
  408MOL0     H55060   9.420   2.470   0.209  0.0559 -0.0492  0.6617
  408MOL0     H55061   9.175   2.485   0.254  0.4232 -1.0413 -0.5712
  408MOL0     H55062   8.921   2.587   0.848 -1.6026  0.8298 -0.5368
  408MOL0     H55063   8.675   2.615   0.897 -3.3077 -1.3766 -0.2746
  408MOL0     H55064   6.755   2.447   0.966 -0.4498  0.5517 -1.3661
  408MOL0     H55065   6.531   2.447   1.041  0.9976 -0.8773 -1.0407
  408MOL0     H55066   6.047   2.563   1.036 -0.0830  1.5881 -0.7523
  408MOL0     H55067   5.841   2.558   1.155 -1.1665 -1.7824  1.9144
  408MOL0     H55068   5.707   2.470   1.303  0.2595  1.0900 -0.8128
  408MOL0     H55069   5.637   2.630   1.283 -0.2428  1.0232  0.5303
  408MOL0     H55070   5.575   2.615   1.530 -1.1662 -1.1859  1.5486
  408MOL0     H55071   5.642   2.450   1.528 -3.4843 -1.3728  2.2644
  408MOL0     H55072   5.471   2.416   1.321 -0.8128 -1.6553  0.9171
  408MOL0     H55073   5.400   2.567   1.359  1.0465 -0.5828 -1.4339
  408MOL0     H55074   5.431   2.353   1.580 -0.5743 -1.6447 -0.3864
  408MOL0     H55075   5.323   2.484   1.584  1.1396  0.1060  0.7843
  408MOL0     H55076   5.105   2.218   1.343 -1.2933  2.2211 -0.3827
  408MOL0     H55077   6.014   2.648   1.516 -0.4754 -2.7788  0.4586
  408MOL0     H55078   6.246   2.631   1.551 -0.3345  0.1840 -0.3586
  408MOL0     H55079   6.364   2.586   1.433 -0.0358  0.5837  0.8459
  408MOL0     H55080   6.310   2.755   1.447  2.7260 -0.2377  3.9060
  409MOL0     O55081   4.915   3.072   1.983 -0.0787 -0.6408 -0.0750
  409MOL0     C55082   5.007   3.077   1.902 -0.4975  0.1775  0.3078
  409MOL0     O55083   4.992   3.040   1.766 -0.3252  0.4549  0.0635
  409MOL0     C55084   4.882   2.977   1.727  0.3015  0.6575  0.0750
  409MOL0     C55085   4.818   3.035   1.613 -0.9463 -0.2761 -0.2810
  409MOL0     C55086   4.710   2.977   1.549 -0.4089 -0.6697  0.4179
  409MOL0     C55087   4.662   2.858   1.594 -0.1148  0.0984  0.1485
  409MOL0     O55088   4.567   2.782   1.520  0.0628  0.2179  0.0786
  409MOL0     C55089   4.463   2.733   1.600  0.1508 -0.1653 -0.2665
  409MOL0     C55090   4.369   2.641   1.535  0.0174  0.2638  0.0623
  409MOL0     C55091   4.440   2.524   1.469  0.3288  0.1823  0.0038
  409MOL0     C55092   4.335   2.415   1.420  0.5563 -0.4038 -0.2980
  409MOL0     C55093   4.372   2.322   1.307 -0.1521 -0.7152 -0.3323
  409MOL0     C55094   4.514   2.264   1.309 -0.1953  0.3539 -0.3336
  409MOL0     C55095   4.549   2.183   1.185  0.2011 -0.0473  0.2577
  409MOL0     C55096   4.687   2.106   1.201  0.2839 -0.2516  0.0025
  409MOL0     N55097   4.688   1.970   1.256  0.0346 -0.8656  0.1554
  409MOL0     C55098   4.604   1.867   1.208 -0.5782 -0.1400  0.1377
  409MOL0     C55099   4.679   1.752   1.232  0.2865  0.1348 -0.9414
  409MOL0     C55100   4.635   1.614   1.192 -0.9740 -0.8608 -0.7995
  409MOL0     C55101   4.577   1.541   1.309  0.1613  0.5276  0.2791
  409MOL0     C55102   4.574   1.388   1.291 -0.0465 -0.9172 -0.2474
  409MOL0     C55103   4.508   1.303   1.407 -0.2325 -0.1407  0.7051
  409MOL0     O55104   4.568   1.312   1.535 -0.2923  0.1356  0.2389
  409MOL0     C55105   4.701   1.278   1.557 -0.8334  0.6413  1.4265
  409MOL0     C55106   4.766   1.332   1.668 -0.8135 -0.0234 -0.0659
  409MOL0     C55107   4.902   1.306   1.703  0.0651  0.0836  0.1143
  409MOL0     C55108   4.968   1.209   1.618  0.7184  0.1790 -0.2256
  409MOL0     C55109   5.109   1.167   1.654  0.4819 -0.1450 -0.0274
  409MOL0     O55110   5.163   1.067   1.576 -0.0358  0.1241 -0.1211
  409MOL0     C55111   5.299   1.024   1.582 -0.5291  0.0971 -0.3859
  409MOL0     C55112   5.372   1.019   1.702  0.6448  0.7090  0.1549
  409MOL0     C55113   5.506   0.966   1.697  0.8875 -0.5561 -0.8479
  409MOL0     C55114   5.562   0.921   1.575  0.0360 -0.8198 -0.2179
  409MOL0     O55115   5.694   0.879   1.562  0.3864  0.3106 -0.6383
  409MOL0     C55116   5.756   0.825   1.686  0.1750 -1.3727 -0.1429
  409MOL0     C55117   5.872   0.750   1.651 -0.7940 -0.1430  0.0211
  409MOL0     C55118   5.995   0.823   1.611 -0.4699  0.3796  0.3899
  409MOL0     C55119   6.116   0.730   1.592  0.3911 -0.7300 -0.2517
  409MOL0     C55120   6.224   0.819   1.541  0.7680  0.3850 -0.3548
  409MOL0     C55121   6.347   0.736   1.501 -0.7202 -0.2056 -0.5090
  409MOL0     C55122   6.470   0.827   1.464 -0.7985 -1.0825 -0.3994
  409MOL0     C55123   6.584   0.746   1.414  0.2819  0.5102  0.2604
  409MOL0    Cl55124   6.712   0.851   1.348  0.1392  0.5207 -0.0104
  409MOL0     C55125   5.495   0.945   1.455 -0.2643  0.5769 -0.9724
  409MOL0     C55126   5.364   0.992   1.456 -0.2686 -0.8789 -1.3353
  409MOL0     O55127   5.168   1.231   1.739 -0.0884 -0.1962 -0.3156
  409MOL0     C55128   4.900   1.155   1.513  0.0054 -0.2560 -0.3832
  409MOL0     C55129   4.772   1.194   1.473  0.8492  0.8998 -0.0292
  409MOL0     N55130   4.801   1.785   1.294  0.5440 -0.3915  0.0504
  409MOL0     N55131   4.801   1.916   1.314 -0.4762  0.5969  0.4519
  409MOL0     C55132   4.721   2.803   1.712  1.2326 -0.5285  0.3301
  409MOL0     C55133   4.828   2.858   1.776 -0.0500 -0.0876 -0.2557
  409MOL0     C55134   5.136   3.130   1.946 -0.4360 -0.4371  0.7760
  409MOL0     C55135   5.225   3.171   1.844 -0.5991 -1.5015  0.1489
  409MOL0     C55136   5.346   3.238   1.873  0.2265  0.0608 -0.6341
  409MOL0     C55137   5.387   3.261   2.003 -0.6842  0.4341 -0.1517
  409MOL0     O55138   5.507   3.309   2.020  0.2000 -0.7096  1.0626
  409MOL0     C55139   5.565   3.308   2.150 -0.0152 -0.1446 -0.5695
  409MOL0     C55140   5.714   3.341   2.150 -0.1495 -0.4200  0.8427
  409MOL0     C55141   5.789   3.223   2.073 -0.0305 -0.0689 -0.0880
  409MOL0     C55142   5.933   3.274   2.053 -0.4863  0.6816 -0.3656
  409MOL0     C55143   6.022   3.268   2.174  0.0912 -0.1061  0.0031
  409MOL0     C55144   6.087   3.291   2.277 -0.2503  0.5483 -0.4979
  409MOL0     C55145   5.304   3.211   2.100 -0.0173  0.6504 -0.9312
  409MOL0     C55146   5.179   3.152   2.080  0.6419  0.0927  0.1140
  409MOL0     C55147   5.108   3.095   2.204  0.2935  0.1999 -0.6508
  409MOL0     H55148   4.862   3.127   1.576  0.1508  0.0708  1.7862
  409MOL0     H55149   4.675   3.017   1.455 -0.5651 -1.0097  0.3300
  409MOL0     H55150   4.495   2.686   1.693 -2.0062 -2.1606 -0.4462
  409MOL0     H55151   4.409   2.822   1.635  1.3766 -0.0721  1.5145
  409MOL0     H55152   4.304   2.696   1.466  0.8943  2.1792  0.7113
  409MOL0     H55153   4.296   2.594   1.602 -0.1259 -1.2662 -1.1147
  409MOL0     H55154   4.510   2.474   1.537 -0.7189 -2.2257 -0.5810
  409MOL0     H55155   4.487   2.555   1.376  1.0712 -0.6713  0.0776
  409MOL0     H55156   4.308   2.355   1.507  2.0299  0.7318  0.9886
  409MOL0     H55157   4.245   2.472   1.393 -0.3591 -0.7854  1.7252
  409MOL0     H55158   4.298   2.241   1.302 -0.9495 -0.0081 -0.1480
  409MOL0     H55159   4.364   2.386   1.218 -1.4518  1.5841  1.3511
  409MOL0     H55160   4.594   2.335   1.335  3.0941 -3.6032  1.5220
  409MOL0     H55161   4.502   2.189   1.388  1.5036 -0.4007 -0.7429
  409MOL0     H55162   4.574   2.250   1.103 -0.0430  0.5506  0.6670
  409MOL0     H55163   4.474   2.115   1.144  1.3685 -0.5337 -1.1688
  409MOL0     H55164   4.743   2.107   1.107  4.7348 -1.3125  2.4032
  409MOL0     H55165   4.742   2.172   1.269 -0.0433  2.7868 -2.4190
  409MOL0     H55166   4.510   1.871   1.155  0.7685  4.9147 -2.5442
  409MOL0     H55167   4.579   1.622   1.098 -2.5193 -4.4482 -0.3406
  409MOL0     H55168   4.730   1.566   1.164  0.2272  0.3208  1.0200
  409MOL0     H55169   4.630   1.556   1.404  0.8889  0.9423 -0.1866
  409MOL0     H55170   4.474   1.577   1.318 -0.6621 -0.8884 -2.5071
  409MOL0     H55171   4.675   1.348   1.282  0.3003 -0.2158  0.4534
  409MOL0     H55172   4.522   1.373   1.195  0.4020  1.1831 -0.8774
  409MOL0     H55173   4.514   1.199   1.374  1.4251  0.2128 -0.2023
  409MOL0     H55174   4.400   1.319   1.411 -0.2909 -0.2766 -0.1940
  409MOL0     H55175   4.715   1.403   1.733 -1.0425  2.1592 -2.4882
  409MOL0     H55176   4.950   1.354   1.788 -1.0240 -2.6976  2.4759
  409MOL0     H55177   5.316   1.020   1.795 -1.7366  0.2555 -1.1821
  409MOL0     H55178   5.552   0.957   1.795 -0.1864 -0.1922 -0.2899
  409MOL0     H55179   5.785   0.909   1.749 -1.8732 -0.6745 -0.0651
  409MOL0     H55180   5.693   0.761   1.748 -0.4889 -0.1136  0.5275
  409MOL0     H55181   5.904   0.706   1.746  1.1579  1.8408  0.3689
  409MOL0     H55182   5.855   0.673   1.575 -0.1296  1.9322 -2.3642
  409MOL0     H55183   5.975   0.880   1.519 -1.7555  2.7947  2.0596
  409MOL0     H55184   6.025   0.901   1.682 -0.3265  0.6567  0.0317
  409MOL0     H55185   6.092   0.646   1.527 -1.5884 -1.1615  0.9746
  409MOL0     H55186   6.150   0.686   1.686 -1.0584  2.4756  1.9633
  409MOL0     H55187   6.250   0.895   1.616  1.1343  1.1140 -1.2066
  409MOL0     H55188   6.187   0.865   1.449 -2.6045  0.4992  0.9338
  409MOL0     H55189   6.370   0.666   1.582 -0.1651  0.2257 -0.2839
  409MOL0     H55190   6.326   0.679   1.410 -1.4784  1.0023 -1.1146
  409MOL0     H55191   6.508   0.875   1.555  1.2368 -0.8898 -1.2911
  409MOL0     H55192   6.442   0.902   1.390 -1.5163 -1.0455 -0.1007
  409MOL0     H55193   6.627   0.681   1.490  3.0217 -0.4541 -1.9454
  409MOL0     H55194   6.537   0.680   1.341 -2.0309  0.0171  2.0745
  409MOL0     H55195   5.565   0.919   1.377 -0.4204  2.5760 -1.8389
  409MOL0     H55196   5.310   0.982   1.362 -0.5498 -3.1861 -0.9820
  409MOL0     H55197   4.972   1.093   1.460  0.2468 -2.2247  2.0270
  409MOL0     H55198   4.745   1.144   1.380  0.0284 -1.2843  1.3104
  409MOL0     H55199   4.683   2.713   1.759 -0.1804 -0.4041 -0.5021
  409MOL0     H55200   4.866   2.808   1.865  0.6560  0.0885 -0.4497
  409MOL0     H55201   5.203   3.161   1.738  0.3441  0.0723 -0.2296
  409MOL0     H55202   5.410   3.276   1.794  1.6795  1.8810  1.2770
  409MOL0     H55203   5.556   3.208   2.193 -1.6312  0.0179 -0.4710
  409MOL0     H55204   5.510   3.379   2.212  0.9451  1.0759 -1.0753
  409MOL0     H55205   5.761   3.360   2.247  1.0640  0.5662  0.0927
  409MOL0     H55206   5.734   3.433   2.095  1.4949 -2.3068 -2.0045
  409MOL0     H55207   5.742   3.221   1.974  0.5956  3.3324 -0.5800
  409MOL0     H55208   5.775   3.131   2.130 -0.9682 -0.2990 -0.6537
  409MOL0     H55209   5.981   3.210   1.979  1.8572  2.6303 -0.6676
  409MOL0     H55210   5.946   3.372   2.006  3.3923 -0.3867 -1.9017
  409MOL0     H55211   6.147   3.327   2.358 -0.9055 -0.5357  0.4983
  409MOL0     H55212   5.344   3.226   2.200  1.8608  0.2170 -1.5773
  409MOL0     H55213   5.101   2.986   2.195  2.1993  0.0016 -0.3070
  409MOL0     H55214   5.165   3.099   2.297 -0.3377 -1.4232 -0.1444
  409MOL0     H55215   5.008   3.138   2.213  0.5242  0.6698 -0.3264
  410MOL0     O55216   0.984   4.905   6.306  0.2166 -0.1767 -0.1061
  410MOL0     C55217   1.055   4.903   6.207 -0.3513  0.4329 -0.4090
  410MOL0     O55218   1.012   4.873   6.081 -0.1754  0.0350 -0.2413
  410MOL0     C55219   0.879   4.854   6.059  0.1317  0.3689 -0.0454
  410MOL0     C55220   0.790   4.964   6.050  0.9749 -0.8865  0.7297
  410MOL0     C55221   0.653   4.953   6.026 -0.3222  0.5056  0.4551
  410MOL0     C55222   0.599   4.827   6.002 -0.4523  0.1490 -0.1456
  410MOL0     O55223   0.465   4.819   5.969 -1.0583  0.5846 -0.0991
  410MOL0     C55224   0.401   4.686   5.978 -0.7397  0.1542  0.3056
  410MOL0     C55225   0.254   4.701   5.936  0.7354  0.6649 -0.3790
  410MOL0     C55226   0.243   4.723   5.785  0.5159 -1.2717 -0.2931
  410MOL0     C55227   0.154   4.864   5.781 -0.0174 -0.3495 -0.5094
  410MOL0     C55228   0.171   4.928   5.643 -1.4327 -0.4909  0.6286
  410MOL0     C55229   0.074   5.050   5.641  0.7972 -0.0716  0.0067
  410MOL0     C55230  -0.076   5.008   5.620 -0.1430 -0.7592 -1.1479
  410MOL0     C55231  -0.172   5.130   5.615  0.0741  0.0716 -0.3526
  410MOL0     N55232  -0.295   5.073   5.567 -0.3419 -0.4179  0.2176
  410MOL0     C55233  -0.376   4.997   5.641  1.2909  0.7281  0.3699
  410MOL0     C55234  -0.502   5.025   5.587  1.1769 -0.2770  0.5797
  410MOL0     C55235  -0.642   4.975   5.629 -1.4171 -0.7382  0.4412
  410MOL0     C55236  -0.742   5.086   5.669 -0.2874  0.8345 -0.3705
  410MOL0     C55237  -0.717   5.167   5.801 -0.0874  0.2031 -0.4685
  410MOL0     C55238  -0.725   5.084   5.936  0.1404  0.4243 -0.2949
  410MOL0     O55239  -0.642   4.963   5.938  0.8119  0.4928  0.2248
  410MOL0     C55240  -0.519   4.961   5.990  0.3509 -0.2422  0.1428
  410MOL0     C55241  -0.479   4.859   6.071  0.9235  0.3365 -0.5869
  410MOL0     C55242  -0.359   4.861   6.140 -0.1975 -0.7575  0.3564
  410MOL0     C55243  -0.267   4.961   6.120  0.3406  0.5725 -0.1777
  410MOL0     C55244  -0.129   4.960   6.173  0.2522  0.3394 -0.1921
  410MOL0     O55245  -0.027   5.016   6.113 -0.2505 -0.6642  0.6836
  410MOL0     C55246   0.107   5.026   6.166 -0.0653 -0.5135 -0.6889
  410MOL0     C55247   0.176   5.142   6.130  0.1043 -0.5677  0.6168
  410MOL0     C55248   0.301   5.175   6.171  0.0387  0.6730  0.1631
  410MOL0     C55249   0.368   5.097   6.266 -0.4076 -0.4905 -0.3335
  410MOL0     O55250   0.501   5.146   6.289  0.3507  0.1022 -0.9009
  410MOL0     C55251   0.586   5.076   6.386  0.6289 -0.1580 -0.1643
  410MOL0     C55252   0.716   5.154   6.421 -0.5482 -0.2834  0.8539
  410MOL0     C55253   0.774   5.103   6.559  0.3695 -0.2891  0.0025
  410MOL0     C55254   0.903   5.169   6.594 -0.1972 -0.5991  0.1450
  410MOL0     C55255   0.946   5.114   6.731 -0.4073  0.6165  0.0089
  410MOL0     C55256   1.072   5.177   6.781 -0.3711 -0.7812  1.0407
  410MOL0     C55257   1.122   5.127   6.916  0.0224 -0.5801  0.6440
  410MOL0     C55258   1.274   5.165   6.926 -0.4027  0.9854  0.4513
  410MOL0    Cl55259   1.310   5.335   6.912  0.0029 -0.1632 -0.1864
  410MOL0     C55260   0.303   4.983   6.315  0.0928  0.0327  0.4048
  410MOL0     C55261   0.178   4.945   6.263 -0.0724  0.2559  0.1032
  410MOL0     O55262  -0.127   4.897   6.280 -0.1717  0.3870  0.3699
  410MOL0     C55263  -0.308   5.070   6.034 -0.1945  1.1537 -0.9811
  410MOL0     C55264  -0.431   5.067   5.970 -0.2884 -0.4505 -0.4013
  410MOL0     N55265  -0.487   5.093   5.465 -0.0669  0.3469  0.5113
  410MOL0     N55266  -0.364   5.127   5.458  0.4285 -0.4434 -0.4847
  410MOL0     C55267   0.691   4.718   5.998 -0.0766  0.0409 -0.1732
  410MOL0     C55268   0.828   4.730   6.021  0.4578 -0.5781 -0.2377
  410MOL0     C55269   1.202   4.928   6.240  0.0484 -0.0837 -0.6021
  410MOL0     C55270   1.234   5.032   6.325 -0.7613  0.7108  0.4407
  410MOL0     C55271   1.371   5.047   6.353  0.0907 -0.3312 -0.6675
  410MOL0     C55272   1.471   4.979   6.301 -0.2775  0.1906 -0.2265
  410MOL0     O55273   1.599   5.011   6.345 -0.2041  0.1002 -0.4794
  410MOL0     C55274   1.711   4.930   6.310  0.3738 -0.1850 -0.1271
  410MOL0     C55275   1.824   5.018   6.254  0.1650  1.3093  0.7340
  410MOL0     C55276   1.946   4.928   6.231 -0.5584  0.6368 -0.1757
  410MOL0     C55277   2.081   4.998   6.203  0.1575 -1.0964  0.0677
  410MOL0     C55278   2.166   4.910   6.117  0.1152  0.5878 -0.4628
  410MOL0     C55279   2.220   4.860   6.017 -0.0389  0.0516 -0.2578
  410MOL0     C55280   1.438   4.870   6.217 -0.8071 -0.8564  0.4845
  410MOL0     C55281   1.308   4.844   6.187 -0.4282 -0.0124  0.9582
  410MOL0     C55282   1.286   4.723   6.097  0.0208 -0.0211  0.0445
  410MOL0     H55283   0.832   5.062   6.067  2.9985 -1.4205 -0.7871
  410MOL0     H55284   0.590   5.041   6.026 -0.1895  0.7455 -2.8370
  410MOL0     H55285   0.442   4.613   5.907 -0.4749 -1.5338  2.0998
  410MOL0     H55286   0.420   4.647   6.078 -3.2735 -0.5832  0.5845
  410MOL0     H55287   0.206   4.779   5.996  0.3704 -0.1315  0.3811
  410MOL0     H55288   0.206   4.603   5.948 -0.6232  1.2859 -0.5468
  410MOL0     H55289   0.188   4.639   5.742 -0.5541  0.1096 -1.7769
  410MOL0     H55290   0.341   4.744   5.740 -0.2054  0.6135 -1.1133
  410MOL0     H55291   0.049   4.847   5.807 -0.4637  0.9511 -1.3534
  410MOL0     H55292   0.186   4.940   5.853 -1.8361 -0.5091  0.5257
  410MOL0     H55293   0.268   4.976   5.627 -0.6602 -2.7483 -2.2120
  410MOL0     H55294   0.148   4.854   5.566 -0.1198 -0.6979  0.4188
  410MOL0     H55295   0.090   5.104   5.734 -2.9543 -0.3385  0.9799
  410MOL0     H55296   0.096   5.107   5.551 -0.5534 -0.4075 -0.5609
  410MOL0     H55297  -0.109   4.951   5.708  1.6823 -0.3431 -0.1378
  410MOL0     H55298  -0.080   4.940   5.535 -0.3049 -1.0142 -0.9404
  410MOL0     H55299  -0.182   5.175   5.714 -0.8259  0.0688 -0.4306
  410MOL0     H55300  -0.137   5.207   5.545  0.9841  0.4899  0.5377
  410MOL0     H55301  -0.343   4.940   5.727  3.5063  0.0468 -0.8535
  410MOL0     H55302  -0.680   4.917   5.544 -1.6470 -0.3671  0.2858
  410MOL0     H55303  -0.617   4.893   5.696  2.9484  0.2404  0.3395
  410MOL0     H55304  -0.760   5.146   5.579 -1.1059 -0.4895 -1.1285
  410MOL0     H55305  -0.840   5.037   5.677 -0.7707  1.5900 -1.4595
  410MOL0     H55306  -0.802   5.236   5.799 -1.4765 -1.3973  0.2327
  410MOL0     H55307  -0.626   5.226   5.800 -1.1871  2.0452  1.2692
  410MOL0     H55308  -0.824   5.041   5.954 -0.3336  1.0904 -1.2444
  410MOL0     H55309  -0.709   5.144   6.026  0.4374  3.0114 -1.9736
  410MOL0     H55310  -0.536   4.768   6.084  2.5626 -0.4776  1.5420
  410MOL0     H55311  -0.328   4.782   6.208  0.2579 -0.5032  0.4512
  410MOL0     H55312   0.139   5.217   6.060  0.2104  0.1808  1.3378
  410MOL0     H55313   0.343   5.269   6.136  1.3100 -0.0019 -0.1794
  410MOL0     H55314   0.525   5.069   6.477  1.6162 -1.4371  0.4323
  410MOL0     H55315   0.610   4.972   6.360  0.6215 -0.0888 -0.4443
  410MOL0     H55316   0.787   5.137   6.340  0.1375 -1.0812  1.6020
  410MOL0     H55317   0.696   5.260   6.434 -1.2017 -0.4582  1.3301
  410MOL0     H55318   0.699   5.130   6.634  0.1221 -1.9108  0.3768
  410MOL0     H55319   0.783   4.995   6.550  1.6067 -0.0603 -2.1200
  410MOL0     H55320   0.900   5.278   6.596  0.1925 -0.5911  1.1473
  410MOL0     H55321   0.970   5.141   6.512 -1.4595 -0.0385 -1.1065
  410MOL0     H55322   0.969   5.007   6.731  1.4798  0.9805 -1.4527
  410MOL0     H55323   0.865   5.134   6.802 -1.7487 -1.0453 -0.9862
  410MOL0     H55324   1.142   5.151   6.702  0.1638 -1.5023  1.7370
  410MOL0     H55325   1.062   5.286   6.787  1.5892 -0.5052 -0.0164
  410MOL0     H55326   1.103   5.019   6.913 -1.2295 -0.3747  0.2797
  410MOL0     H55327   1.064   5.167   7.000  0.1267 -0.6244  0.7358
  410MOL0     H55328   1.311   5.132   7.023 -1.4394  0.4042  0.6626
  410MOL0     H55329   1.328   5.102   6.855  0.4238  1.5186  0.6007
  410MOL0     H55330   0.356   4.922   6.387  0.3767  0.3379  0.4580
  410MOL0     H55331   0.119   4.861   6.298 -2.5084  2.0877  0.7422
  410MOL0     H55332  -0.241   5.154   6.021  0.4694  0.7965 -0.0022
  410MOL0     H55333  -0.464   5.148   5.905 -2.1271  0.9497  2.1028
  410MOL0     H55334   0.661   4.617   5.974 -0.5437 -0.4420  2.2066
  410MOL0     H55335   0.889   4.642   5.998  0.9966  0.3535 -2.7907
  410MOL0     H55336   1.167   5.086   6.391 -1.2310 -1.5467  1.9451
  410MOL0     H55337   1.398   5.128   6.420  2.2152 -0.5852 -1.1350
  410MOL0     H55338   1.693   4.847   6.241  1.8861 -2.5139  2.0919
  410MOL0     H55339   1.731   4.876   6.403  0.0545 -0.2148 -0.0751
  410MOL0     H55340   1.847   5.099   6.323 -1.1583  0.9332  1.6633
  410MOL0     H55341   1.801   5.057   6.155 -0.1867 -1.4688 -0.3708
  410MOL0     H55342   1.922   4.856   6.153  0.6759 -1.3093  1.1572
  410MOL0     H55343   1.962   4.863   6.318  0.6700 -0.4745 -1.1912
  410MOL0     H55344   2.061   5.096   6.158 -5.2434 -0.3103  3.2685
  410MOL0     H55345   2.126   5.029   6.298 -0.2341 -1.4519  0.3699
  410MOL0     H55346   2.278   4.816   5.939  1.8417 -1.2933  1.7862
  410MOL0     H55347   1.505   4.798   6.170  0.4646  0.6496 -0.0830
  410MOL0     H55348   1.250   4.654   6.173  2.0129 -0.4935  0.6121
  410MOL0     H55349   1.213   4.738   6.016 -0.8812  0.0811  0.8588
  410MOL0     H55350   1.380   4.674   6.074  0.7121  0.1514  2.2870
  411MOL0     O55351   4.545   3.494   5.634 -0.5229 -0.3486  0.4585
  411MOL0     C55352   4.501   3.420   5.540 -0.8645 -0.3057 -0.2875
  411MOL0     O55353   4.553   3.412   5.413  0.0095  0.8266  0.6490
  411MOL0     C55354   4.685   3.448   5.398  1.0629  0.4339 -0.0195
  411MOL0     C55355   4.722   3.509   5.279 -0.5759 -0.1995 -0.1287
  411MOL0     C55356   4.868   3.520   5.250  0.1848 -0.4604  0.7785
  411MOL0     C55357   4.962   3.466   5.332 -0.4389 -0.7646  0.2950
  411MOL0     O55358   5.086   3.466   5.278  0.3444 -0.0458  0.2218
  411MOL0     C55359   5.197   3.413   5.355 -0.6258  1.0876  0.5769
  411MOL0     C55360   5.319   3.432   5.282 -0.9089  0.6876 -0.0547
  411MOL0     C55361   5.442   3.373   5.353 -1.2673 -0.1936 -0.5341
  411MOL0     C55362   5.451   3.217   5.362 -1.4709  0.5936 -0.1422
  411MOL0     C55363   5.598   3.162   5.364 -0.7766  0.0314 -0.2739
  411MOL0     C55364   5.682   3.224   5.483  0.0562  0.5746 -0.3640
  411MOL0     C55365   5.647   3.166   5.619  0.5378  0.0493 -0.5849
  411MOL0     C55366   5.598   3.015   5.615 -0.2470 -0.5398  0.1148
  411MOL0     N55367   5.578   2.952   5.750  0.2054  0.6605  0.5378
  411MOL0     C55368   5.668   2.945   5.855 -0.2069  0.3269  0.5623
  411MOL0     C55369   5.603   2.877   5.955  0.1995  0.0582  0.4866
  411MOL0     C55370   5.658   2.839   6.084 -0.5958 -0.0021 -0.3209
  411MOL0     C55371   5.705   2.959   6.166  0.2123  0.8237  0.5919
  411MOL0     C55372   5.821   2.914   6.261 -0.1606 -0.1917  0.0573
  411MOL0     C55373   5.877   3.043   6.333  0.2201 -0.2484 -0.5933
  411MOL0     O55374   5.954   3.008   6.449  0.1830 -0.0034  1.0826
  411MOL0     C55375   6.050   3.092   6.479  0.2686 -0.2222 -1.2534
  411MOL0     C55376   6.178   3.064   6.454 -1.1571  0.3055  0.1075
  411MOL0     C55377   6.293   3.147   6.497  0.1086 -0.4861  0.2694
  411MOL0     C55378   6.259   3.270   6.560  0.4805 -0.0949  0.0481
  411MOL0     C55379   6.361   3.373   6.573  0.9338  0.3802 -0.7592
  411MOL0     O55380   6.325   3.502   6.597 -0.6372 -0.1137  0.0987
  411MOL0     C55381   6.416   3.592   6.642  0.8016 -0.3925 -0.9279
  411MOL0     C55382   6.377   3.657   6.764  0.3657  0.3944  0.0624
  411MOL0     C55383   6.442   3.774   6.794  0.6104 -0.5248 -0.1842
  411MOL0     C55384   6.560   3.814   6.726 -0.7383  0.4234 -0.1529
  411MOL0     O55385   6.634   3.915   6.786  0.6170  0.8645  0.2435
  411MOL0     C55386   6.770   3.921   6.750 -0.1426 -0.3677  0.2146
  411MOL0     C55387   6.820   4.053   6.806  0.2114 -0.6318  0.1159
  411MOL0     C55388   6.960   4.089   6.736 -0.0140 -0.2900 -0.0604
  411MOL0     C55389   7.072   4.059   6.829  0.2310  0.1487  0.0419
  411MOL0     C55390   7.206   4.104   6.772 -0.3108  0.2787  0.4854
  411MOL0     C55391   7.264   4.015   6.657 -0.4175  0.3875  0.5006
  411MOL0     C55392   7.334   3.896   6.729  0.0761 -0.9189 -0.1258
  411MOL0     C55393   7.409   3.824   6.621  0.1536 -0.0264  0.1811
  411MOL0    Cl55394   7.275   3.743   6.522  0.2740  0.3556  0.1047
  411MOL0     C55395   6.596   3.744   6.610  0.6029  0.2680 -0.5209
  411MOL0     C55396   6.523   3.634   6.570 -0.2459  0.6980 -0.1211
  411MOL0     O55397   6.477   3.329   6.572  0.0377 -0.5825 -0.1232
  411MOL0     C55398   6.127   3.300   6.580 -0.7324 -0.0831  0.8165
  411MOL0     C55399   6.025   3.206   6.548 -0.2376  0.5335  0.0692
  411MOL0     N55400   5.475   2.834   5.902  0.0304 -0.5653 -0.6293
  411MOL0     N55401   5.468   2.877   5.782  0.0821 -0.2260  0.0574
  411MOL0     C55402   4.920   3.403   5.449 -0.9913  0.4664  0.0759
  411MOL0     C55403   4.783   3.389   5.483  0.1125 -0.7510 -0.0803
  411MOL0     C55404   4.382   3.340   5.559  0.4895 -0.1788 -0.0332
  411MOL0     C55405   4.292   3.323   5.452 -0.7660  0.1574  0.0672
  411MOL0     C55406   4.163   3.263   5.466  0.0852  0.9477  0.0097
  411MOL0     C55407   4.121   3.205   5.589 -0.1953  0.0163 -0.4148
  411MOL0     O55408   4.004   3.139   5.607 -0.0009 -0.2239 -0.1430
  411MOL0     C55409   3.893   3.150   5.515 -0.0527  0.4177  0.8738
  411MOL0     C55410   3.806   3.269   5.543  1.3304 -0.4512  0.1755
  411MOL0     C55411   3.714   3.266   5.663 -0.4127  0.6999 -1.0624
  411MOL0     C55412   3.627   3.401   5.654  0.1374 -0.3877  0.4507
  411MOL0     C55413   3.548   3.401   5.774  0.4488  0.1188 -0.2921
  411MOL0     C55414   3.482   3.398   5.875  0.1696  0.3867  0.5516
  411MOL0     C55415   4.210   3.220   5.692  0.1211  0.0536  0.2553
  411MOL0     C55416   4.342   3.278   5.682 -0.4743  0.2048  0.1923
  411MOL0     C55417   4.416   3.280   5.810 -0.3247 -0.9279  0.1282
  411MOL0     H55418   4.649   3.532   5.202  2.3028  1.4632 -2.5896
  411MOL0     H55419   4.895   3.561   5.152 -1.0017 -0.6768  0.3464
  411MOL0     H55420   5.212   3.449   5.457  1.8471  1.3277  0.1840
  411MOL0     H55421   5.183   3.305   5.366  1.1733  0.6004 -1.2515
  411MOL0     H55422   5.331   3.539   5.263 -0.6855  0.9594  1.4824
  411MOL0     H55423   5.310   3.392   5.180 -0.1339  1.6062 -0.4986
  411MOL0     H55424   5.449   3.414   5.454  0.7887 -4.0101  1.0574
  411MOL0     H55425   5.531   3.409   5.301 -0.8998 -0.9502 -0.4384
  411MOL0     H55426   5.401   3.167   5.446 -0.0875 -3.6391 -1.5896
  411MOL0     H55427   5.411   3.181   5.267  0.1758 -2.9488  0.3200
  411MOL0     H55428   5.608   3.054   5.353 -0.8169 -0.0028  0.0284
  411MOL0     H55429   5.654   3.209   5.282 -1.1520  2.9943  1.0409
  411MOL0     H55430   5.789   3.203   5.469  0.6546  2.4307  1.0295
  411MOL0     H55431   5.675   3.333   5.489 -1.0626  0.4716  0.3752
  411MOL0     H55432   5.560   3.217   5.661 -0.8982 -0.6018 -2.6287
  411MOL0     H55433   5.739   3.175   5.677 -0.0869  1.3444  0.2351
  411MOL0     H55434   5.502   3.020   5.564 -1.1416 -0.6153  1.7226
  411MOL0     H55435   5.668   2.962   5.549  0.6754 -1.2570  1.6062
  411MOL0     H55436   5.765   2.992   5.857  1.2482 -2.4101 -0.4430
  411MOL0     H55437   5.584   2.783   6.143 -1.7413  0.4587 -1.2852
  411MOL0     H55438   5.745   2.779   6.057  1.1946  3.0010 -1.7460
  411MOL0     H55439   5.747   3.032   6.097  0.2705  2.5651  2.3569
  411MOL0     H55440   5.627   3.007   6.227  0.6750  2.1449  0.1726
  411MOL0     H55441   5.905   2.872   6.204  1.0283  0.3860  1.3467
  411MOL0     H55442   5.782   2.837   6.329 -1.5116  0.0010 -0.4568
  411MOL0     H55443   5.792   3.104   6.365 -1.2601 -0.6017 -3.4782
  411MOL0     H55444   5.935   3.102   6.263 -1.1188  1.5188 -0.2808
  411MOL0     H55445   6.199   2.981   6.386  1.0672  0.3707  0.6263
  411MOL0     H55446   6.387   3.112   6.457 -0.2107 -1.0729  0.0273
  411MOL0     H55447   6.290   3.626   6.822 -0.2170 -3.7451 -2.5559
  411MOL0     H55448   6.405   3.820   6.884 -2.7555 -1.0091 -1.1721
  411MOL0     H55449   6.833   3.845   6.797  1.2705  1.3429  1.2071
  411MOL0     H55450   6.785   3.921   6.642  0.2234 -1.7229  0.2451
  411MOL0     H55451   6.758   4.134   6.766  2.5718  0.1539 -2.2436
  411MOL0     H55452   6.802   4.067   6.913 -2.7985 -0.3869 -0.3290
  411MOL0     H55453   6.974   4.033   6.643  0.5276  1.3218 -0.9921
  411MOL0     H55454   6.959   4.198   6.723 -0.0081 -0.1646  0.9188
  411MOL0     H55455   7.080   3.951   6.845  0.0108  0.0636 -0.3838
  411MOL0     H55456   7.042   4.093   6.928 -1.8395  1.2366 -0.8815
  411MOL0     H55457   7.275   4.107   6.856 -0.6795 -0.0615  0.8047
  411MOL0     H55458   7.184   4.206   6.739 -0.1143  0.2383  0.2234
  411MOL0     H55459   7.191   3.989   6.580 -1.9428  1.2171  1.6140
  411MOL0     H55460   7.340   4.080   6.612  1.6902 -0.7648  2.1830
  411MOL0     H55461   7.266   3.823   6.774 -0.8224 -0.4128 -0.6335
  411MOL0     H55462   7.404   3.933   6.806 -1.5291 -1.4880  1.6969
  411MOL0     H55463   7.456   3.895   6.553  0.1736 -0.5699 -0.3776
  411MOL0     H55464   7.482   3.753   6.663 -0.2611  1.0006  2.8293
  411MOL0     H55465   6.676   3.771   6.541 -1.9739  0.3518 -3.7347
  411MOL0     H55466   6.545   3.593   6.471 -1.6838 -1.1537  0.2745
  411MOL0     H55467   6.102   3.395   6.625 -0.2680  0.5149 -0.1692
  411MOL0     H55468   5.921   3.221   6.573 -0.6727 -2.6612  0.6454
  411MOL0     H55469   4.997   3.366   5.516  1.6670  2.4002 -1.7431
  411MOL0     H55470   4.741   3.339   5.570 -0.6515 -2.8743 -1.5638
  411MOL0     H55471   4.328   3.342   5.351 -1.4041  2.2547  0.1963
  411MOL0     H55472   4.103   3.248   5.377  0.4893 -1.9823  0.1301
  411MOL0     H55473   3.825   3.066   5.532 -0.9295  0.8581 -0.3011
  411MOL0     H55474   3.925   3.156   5.410 -2.0134  1.0165  0.2722
  411MOL0     H55475   3.738   3.272   5.458 -1.2101 -1.7513  2.0243
  411MOL0     H55476   3.879   3.350   5.537  2.7481 -1.7747 -1.6264
  411MOL0     H55477   3.777   3.263   5.752 -1.0173  0.1976 -0.6476
  411MOL0     H55478   3.663   3.169   5.669 -1.5923  1.3492  4.8852
  411MOL0     H55479   3.699   3.483   5.661  1.7692 -1.5647 -1.2957
  411MOL0     H55480   3.574   3.402   5.558 -1.4430  0.1664  1.3027
  411MOL0     H55481   3.414   3.403   5.958 -3.2230 -0.9240 -1.9070
  411MOL0     H55482   4.170   3.183   5.786 -4.4646  1.6949 -0.7550
  411MOL0     H55483   4.362   3.346   5.878  2.0770  2.2906 -0.8548
  411MOL0     H55484   4.410   3.180   5.855  0.4757 -1.4467 -0.8699
  411MOL0     H55485   4.522   3.307   5.803 -0.0985 -1.4435  1.2333
  412MOL0     O55486   3.912   6.214   5.118  0.5660  0.1727 -0.7490
  412MOL0     C55487   3.840   6.168   5.030  0.3576  0.8956  0.2322
  412MOL0     O55488   3.887   6.084   4.925 -0.2727 -0.6470 -0.2955
  412MOL0     C55489   4.024   6.085   4.913  0.2080  0.3659  0.1076
  412MOL0     C55490   4.096   5.974   4.947  0.2066  0.1641 -0.4838
  412MOL0     C55491   4.236   5.980   4.949 -0.2697  0.0713 -0.7808
  412MOL0     C55492   4.299   6.088   4.902  0.4467  0.2806 -0.3188
  412MOL0     O55493   4.438   6.079   4.895  0.6202 -0.3414  0.5357
  412MOL0     C55494   4.491   6.103   4.766  0.2387 -0.4439  0.8276
  412MOL0     C55495   4.649   6.139   4.773  1.1293  0.7331 -0.3956
  412MOL0     C55496   4.695   6.189   4.636 -0.0500 -0.7201 -0.7777
  412MOL0     C55497   4.709   6.070   4.532 -0.1191 -0.0533 -0.3157
  412MOL0     C55498   4.723   6.109   4.388  0.3379 -0.0392  0.5181
  412MOL0     C55499   4.685   5.994   4.291 -0.1200  0.4723 -0.0708
  412MOL0     C55500   4.788   5.883   4.288 -0.4240  1.1350 -0.3477
  412MOL0     C55501   4.931   5.942   4.255  0.0639  0.5393  0.0724
  412MOL0     N55502   5.022   5.832   4.222 -0.2858  0.0872 -0.4688
  412MOL0     C55503   5.100   5.758   4.308  0.7455  0.3505  0.5361
  412MOL0     C55504   5.178   5.683   4.220 -0.2669  0.2705 -0.2755
  412MOL0     C55505   5.293   5.589   4.257 -0.2836 -0.7374  0.0612
  412MOL0     C55506   5.409   5.662   4.319 -0.4952 -0.2419  0.0302
  412MOL0     C55507   5.525   5.663   4.215 -0.5897  0.2878 -0.8387
  412MOL0     C55508   5.646   5.708   4.289 -0.3370 -0.9483  0.7849
  412MOL0     O55509   5.755   5.703   4.192  0.0942  0.4813  0.8850
  412MOL0     C55510   5.880   5.732   4.240  0.0823 -0.4594  0.4642
  412MOL0     C55511   5.985   5.743   4.147 -0.1933  0.1040 -0.3387
  412MOL0     C55512   6.125   5.747   4.183  0.9168 -0.7591  0.3591
  412MOL0     C55513   6.153   5.762   4.322 -0.1645 -0.5757 -0.1751
  412MOL0     C55514   6.297   5.767   4.369 -0.1961 -0.1345 -0.1579
  412MOL0     O55515   6.395   5.828   4.293  0.3618 -0.1412  0.4891
  412MOL0     C55516   6.526   5.846   4.327 -0.4139  0.9726 -1.1202
  412MOL0     C55517   6.574   5.887   4.451  0.4551 -0.3987  0.9470
  412MOL0     C55518   6.714   5.901   4.487  0.0750  0.3131 -0.4208
  412MOL0     C55519   6.812   5.865   4.390 -0.0093  0.8234  0.2055
  412MOL0     O55520   6.946   5.869   4.407 -0.4129  0.0331  0.3326
  412MOL0     C55521   6.992   5.918   4.533 -0.1578 -1.2227 -0.1182
  412MOL0     C55522   7.142   5.891   4.538  0.5719 -0.9058 -0.4162
  412MOL0     C55523   7.168   5.739   4.572 -0.6140 -0.5294 -0.5598
  412MOL0     C55524   7.320   5.712   4.565  0.0608  0.5830 -0.7901
  412MOL0     C55525   7.334   5.570   4.532 -0.6629  0.0160 -0.7392
  412MOL0     C55526   7.481   5.529   4.521 -0.0027 -0.3353 -0.8550
  412MOL0     C55527   7.516   5.432   4.416 -0.1039 -0.4651  0.0575
  412MOL0     C55528   7.505   5.476   4.270  0.1862  0.1510 -0.4327
  412MOL0    Cl55529   7.603   5.620   4.231  0.3275  0.6499 -0.2237
  412MOL0     C55530   6.761   5.814   4.270 -0.8532 -0.3134  0.2266
  412MOL0     C55531   6.627   5.802   4.235  0.8842 -0.3377  0.5967
  412MOL0     O55532   6.314   5.737   4.488  0.2276 -0.2077  0.3213
  412MOL0     C55533   6.049   5.749   4.410 -0.6607 -0.3814  0.1518
  412MOL0     C55534   5.912   5.743   4.373  0.1718  0.2113  0.5461
  412MOL0     N55535   5.132   5.701   4.090 -0.2721  0.4109  1.6900
  412MOL0     N55536   5.035   5.788   4.097  0.4688 -0.8466  0.4979
  412MOL0     C55537   4.232   6.201   4.862  0.1081 -0.2443 -0.3297
  412MOL0     C55538   4.096   6.195   4.864 -0.0331 -0.6507  0.2749
  412MOL0     C55539   3.700   6.210   5.036 -0.3611 -0.9594 -0.2296
  412MOL0     C55540   3.669   6.331   4.972  0.3042  0.2440 -1.5362
  412MOL0     C55541   3.542   6.384   4.990 -0.3667  0.3258  0.1260
  412MOL0     C55542   3.441   6.322   5.046  0.4664 -0.3689  0.6990
  412MOL0     O55543   3.310   6.369   5.065  0.1601 -0.2858 -0.0518
  412MOL0     C55544   3.253   6.436   4.951 -0.0996  0.7023 -0.0851
  412MOL0     C55545   3.110   6.491   4.982 -0.3372  0.0619 -0.4355
  412MOL0     C55546   3.033   6.484   4.846  0.1912 -0.1639 -0.2202
  412MOL0     C55547   2.893   6.551   4.852 -0.6835  0.2735 -0.4862
  412MOL0     C55548   2.816   6.519   4.732  0.2400  0.2183  0.0853
  412MOL0     C55549   2.741   6.503   4.640 -0.4210 -0.2543 -0.0655
  412MOL0     C55550   3.466   6.200   5.104 -0.2463 -0.1827 -0.4745
  412MOL0     C55551   3.596   6.146   5.108 -0.6854  0.0353  0.4212
  412MOL0     C55552   3.624   6.022   5.185 -0.0252 -0.7699 -0.3825
  412MOL0     H55553   4.040   5.891   4.988 -0.9500  0.9451 -0.4407
  412MOL0     H55554   4.308   5.905   4.983  0.7828  2.0264  1.6213
  412MOL0     H55555   4.477   6.025   4.690 -1.6063 -0.4830  1.1483
  412MOL0     H55556   4.446   6.196   4.731 -4.0550 -2.9399 -1.1065
  412MOL0     H55557   4.710   6.051   4.796  0.2567  0.1353 -0.2899
  412MOL0     H55558   4.658   6.220   4.845  0.3921 -0.0472  0.5928
  412MOL0     H55559   4.791   6.233   4.665 -0.9380 -0.2861  1.8339
  412MOL0     H55560   4.620   6.259   4.598  2.9096  0.4289 -5.1615
  412MOL0     H55561   4.789   6.005   4.569  0.2763  0.5086 -0.1719
  412MOL0     H55562   4.614   6.016   4.527 -0.1945  0.2274 -2.8354
  412MOL0     H55563   4.642   6.182   4.377  1.3396  1.0523  0.1344
  412MOL0     H55564   4.824   6.148   4.371 -0.4527  1.6494 -0.5648
  412MOL0     H55565   4.595   5.936   4.314  1.4017 -1.0676  2.4390
  412MOL0     H55566   4.678   6.031   4.188  0.6503  0.1160 -0.2591
  412MOL0     H55567   4.770   5.814   4.205 -0.1134 -0.5967  0.9694
  412MOL0     H55568   4.795   5.825   4.380 -2.0952  0.2405 -0.7561
  412MOL0     H55569   4.917   6.007   4.168 -1.8836  1.7169  1.1666
  412MOL0     H55570   4.968   6.006   4.336  0.4245  1.4421 -0.7813
  412MOL0     H55571   5.101   5.753   4.416 -0.2986 -2.5033  0.4854
  412MOL0     H55572   5.249   5.514   4.323 -1.8534  0.7979  0.8092
  412MOL0     H55573   5.324   5.534   4.167  0.2948 -0.8967  0.3462
  412MOL0     H55574   5.378   5.762   4.350  0.1898 -0.2033  0.6175
  412MOL0     H55575   5.453   5.611   4.406 -2.4368  0.8577  1.7353
  412MOL0     H55576   5.508   5.727   4.128 -0.6099  1.9213  0.3351
  412MOL0     H55577   5.543   5.559   4.186  0.3297  0.5962 -1.4185
  412MOL0     H55578   5.663   5.640   4.373  0.8532 -0.2412  1.1455
  412MOL0     H55579   5.643   5.813   4.321 -0.5852 -0.1472 -1.6686
  412MOL0     H55580   5.956   5.737   4.042 -0.7892 -1.9596 -0.0918
  412MOL0     H55581   6.213   5.756   4.121  1.1203 -2.6371  0.3173
  412MOL0     H55582   6.497   5.922   4.519 -0.1681 -0.1647  0.1326
  412MOL0     H55583   6.737   5.941   4.585 -3.5402  0.1247  0.6277
  412MOL0     H55584   6.982   6.026   4.545  1.2136 -0.8262 -2.1088
  412MOL0     H55585   6.944   5.870   4.619  0.5435 -1.5878  0.0765
  412MOL0     H55586   7.175   5.925   4.440 -0.2782 -0.1774 -0.4634
  412MOL0     H55587   7.205   5.945   4.610  0.6358 -2.6173  0.8675
  412MOL0     H55588   7.125   5.712   4.669 -1.5271  2.6026  0.0277
  412MOL0     H55589   7.122   5.686   4.488  0.0309  0.0250 -1.2804
  412MOL0     H55590   7.386   5.744   4.647  1.1212 -0.7221 -1.0944
  412MOL0     H55591   7.372   5.757   4.480  4.1622 -1.0462  0.5736
  412MOL0     H55592   7.282   5.553   4.438  1.4203  2.8567 -2.5542
  412MOL0     H55593   7.292   5.515   4.617  2.8590 -1.7570  0.0441
  412MOL0     H55594   7.534   5.623   4.503  0.7254 -1.0363 -2.6249
  412MOL0     H55595   7.515   5.490   4.618  1.3577  1.2461 -0.6506
  412MOL0     H55596   7.443   5.352   4.433 -1.1239  0.3563 -0.3389
  412MOL0     H55597   7.614   5.386   4.434 -0.2822  0.1849  3.1788
  412MOL0     H55598   7.528   5.388   4.210  0.0587 -0.4344  0.3604
  412MOL0     H55599   7.401   5.511   4.262  0.3773  0.8793  0.0633
  412MOL0     H55600   6.827   5.771   4.194 -1.6001  3.8685 -3.1639
  412MOL0     H55601   6.586   5.760   4.144 -3.6096  1.2037  1.6813
  412MOL0     H55602   6.071   5.761   4.516  0.9986  1.8706 -0.3931
  412MOL0     H55603   5.833   5.749   4.448 -2.6258 -2.8638 -1.8657
  412MOL0     H55604   4.287   6.289   4.833  1.3010 -0.7544  0.3208
  412MOL0     H55605   4.038   6.285   4.842  2.9868  0.7859 -2.8293
  412MOL0     H55606   3.745   6.394   4.928  1.0026  1.8884  1.7334
  412MOL0     H55607   3.528   6.485   4.951 -0.2036 -0.4496 -2.0611
  412MOL0     H55608   3.244   6.366   4.868 -2.1866  1.2256 -0.3652
  412MOL0     H55609   3.314   6.515   4.906 -1.1840  1.1885 -0.7396
  412MOL0     H55610   3.114   6.586   5.035  3.0938  0.4856 -1.2134
  412MOL0     H55611   3.054   6.424   5.048 -0.9493  0.9332 -0.0671
  412MOL0     H55612   3.015   6.378   4.826 -0.1462 -0.5829  2.0669
  412MOL0     H55613   3.093   6.515   4.760 -0.0216  2.0743  0.3938
  412MOL0     H55614   2.844   6.517   4.943 -1.0333  0.1627 -0.7116
  412MOL0     H55615   2.906   6.658   4.870  0.0717 -0.3569  3.7053
  412MOL0     H55616   2.656   6.511   4.577 -0.8934  2.6623  0.8147
  412MOL0     H55617   3.387   6.142   5.152  0.5930 -1.2385 -0.3276
  412MOL0     H55618   3.713   6.033   5.248 -2.4551  0.7840  3.1082
  412MOL0     H55619   3.546   6.002   5.259  1.2148 -1.2793  0.8472
  412MOL0     H55620   3.628   5.935   5.119 -1.6537  0.0692 -1.6607
  413MOL0     O55621   1.497  10.261   0.268  0.6888 -0.1998  0.3717
  413MOL0     C55622   1.528  10.234   0.150 -0.0494  1.0671 -0.4568
  413MOL0     O55623   1.441  10.242   0.042 -0.5883  0.4129 -0.1163
  413MOL0     C55624   1.337  10.324   0.051  0.3324  0.2268  0.8522
  413MOL0     C55625   1.214  10.274   0.092 -0.1037  0.5776 -0.2085
  413MOL0     C55626   1.089  10.349   0.075  0.2648  0.2143  0.7142
  413MOL0     C55627   1.103  10.482   0.031  0.5405 -0.1995 -0.0733
  413MOL0     O55628   0.998  10.570   0.013 -0.3738 -0.3687  0.4989
  413MOL0     C55629   0.866  10.541   0.060 -0.3667 -0.0850 -0.3022
  413MOL0     C55630   0.764  10.634  -0.004  0.1427 -1.0062 -0.0379
  413MOL0     C55631   0.788  10.646  -0.155 -0.2259 -0.4833  0.5044
  413MOL0     C55632   0.674  10.718  -0.219  0.2871  0.0001 -0.3322
  413MOL0     C55633   0.699  10.734  -0.364 -0.2829  0.0750 -0.2420
  413MOL0     C55634   0.567  10.776  -0.434  0.2630  0.2747 -0.2720
  413MOL0     C55635   0.579  10.747  -0.585 -0.5910 -0.1729 -0.9656
  413MOL0     C55636   0.696  10.812  -0.662 -0.3191 -0.7197 -0.0300
  413MOL0     N55637   0.706  10.769  -0.805 -0.0546  1.1611 -0.2394
  413MOL0     C55638   0.741  10.641  -0.847  0.8410 -0.6942 -0.1451
  413MOL0     C55639   0.732  10.649  -0.984 -1.5453 -0.1691  0.1545
  413MOL0     C55640   0.749  10.536  -1.090  0.7054 -1.8089 -0.0970
  413MOL0     C55641   0.865  10.544  -1.172 -0.2567  0.0581  0.7740
  413MOL0     C55642   0.860  10.673  -1.257 -0.1407  0.0957  0.1369
  413MOL0     C55643   0.953  10.666  -1.384 -0.1246  0.3988 -0.5036
  413MOL0     O55644   1.078  10.642  -1.325  0.0818  0.2296  0.1616
  413MOL0     C55645   1.196  10.610  -1.396  0.9726 -0.4035  0.3366
  413MOL0     C55646   1.317  10.620  -1.333 -0.5023  0.1262  0.2339
  413MOL0     C55647   1.437  10.609  -1.402  0.2686  0.1238  0.2372
  413MOL0     C55648   1.443  10.559  -1.530  0.4086 -0.7780  0.5852
  413MOL0     C55649   1.581  10.534  -1.580 -0.8167  0.6666  0.0770
  413MOL0     O55650   1.698  10.562  -1.513  0.4864 -0.0165 -0.3162
  413MOL0     C55651   1.823  10.541  -1.573 -0.0454 -0.3028 -0.2742
  413MOL0     C55652   1.843  10.422  -1.642  0.1022 -0.2822  0.0374
  413MOL0     C55653   1.957  10.386  -1.699 -1.4057 -0.0866  0.3327
  413MOL0     C55654   2.068  10.474  -1.690  0.1015  0.0169  0.4900
  413MOL0     O55655   2.178  10.429  -1.765 -0.3589  0.2654 -0.2246
  413MOL0     C55656   2.312  10.454  -1.717 -0.5030  0.1750 -0.8208
  413MOL0     C55657   2.369  10.584  -1.767 -0.2341 -0.9777  0.3950
  413MOL0     C55658   2.409  10.570  -1.914 -0.3198  0.0481 -0.1465
  413MOL0     C55659   2.477  10.696  -1.979  0.1116  1.2206  0.3895
  413MOL0     C55660   2.599  10.729  -1.899 -0.4107 -0.4229 -0.1039
  413MOL0     C55661   2.672  10.834  -1.960 -0.5226 -0.2312 -0.4525
  413MOL0     C55662   2.803  10.889  -1.884  0.8904 -0.6894  0.3736
  413MOL0     C55663   2.775  10.916  -1.729 -0.0393  0.0004 -0.4764
  413MOL0    Cl55664   2.625  11.030  -1.728  0.1414  0.3168  0.2309
  413MOL0     C55665   2.055  10.607  -1.628 -0.5748 -0.2780  0.6214
  413MOL0     C55666   1.925  10.641  -1.571  0.5108  0.0446 -0.6381
  413MOL0     O55667   1.573  10.485  -1.695 -0.2087 -0.7560  0.0702
  413MOL0     C55668   1.321  10.542  -1.596  1.1298 -0.5930 -0.5100
  413MOL0     C55669   1.194  10.572  -1.529 -1.2797 -0.2434  0.3850
  413MOL0     N55670   0.687  10.774  -1.020 -0.0465 -0.1378 -0.2800
  413MOL0     N55671   0.671  10.847  -0.913 -0.5477  0.0168 -0.6162
  413MOL0     C55672   1.235  10.533  -0.000  0.1195  0.2855  0.0938
  413MOL0     C55673   1.348  10.459   0.007  0.7469  0.2696  0.5464
  413MOL0     C55674   1.669  10.186   0.124  0.3245 -0.1701  0.1701
  413MOL0     C55675   1.681  10.084   0.023 -0.4848 -0.8160 -0.9020
  413MOL0     C55676   1.801  10.024  -0.007  0.3473  0.2113 -0.1734
  413MOL0     C55677   1.922  10.065   0.056  0.2579 -0.1086  0.1617
  413MOL0     O55678   2.050  10.033   0.016 -0.5430  0.5630  0.4543
  413MOL0     C55679   2.064   9.947  -0.095  0.3993  0.7982  1.0330
  413MOL0     C55680   2.210   9.912  -0.121 -0.1132 -0.9442  0.5004
  413MOL0     C55681   2.285   9.845  -0.002 -0.4212 -0.2550 -0.0917
  413MOL0     C55682   2.409   9.773  -0.056 -0.5303 -0.0059  0.5132
  413MOL0     C55683   2.505   9.876  -0.110  0.0754 -0.1678 -0.3265
  413MOL0     C55684   2.580   9.948  -0.167  0.1187  0.3400  0.3141
  413MOL0     C55685   1.908  10.150   0.160 -0.2311 -0.0815 -0.0193
  413MOL0     C55686   1.790  10.222   0.192 -0.1512  0.1002 -0.2657
  413MOL0     C55687   1.814  10.343   0.280  0.7228  0.2164  0.7599
  413MOL0     H55688   1.205  10.167   0.109  1.6418 -0.4990 -4.6316
  413MOL0     H55689   1.001  10.319   0.130  0.1349  2.1185  1.6484
  413MOL0     H55690   0.844  10.437   0.034 -2.1739 -0.1867  1.4405
  413MOL0     H55691   0.853  10.561   0.167 -0.2863  0.5754 -0.4131
  413MOL0     H55692   0.776  10.733   0.043  2.5857 -0.4339 -1.7035
  413MOL0     H55693   0.666  10.595   0.023 -0.4148  0.3206 -0.0562
  413MOL0     H55694   0.795  10.549  -0.205 -0.3445  0.9333 -2.5167
  413MOL0     H55695   0.887  10.688  -0.172 -0.3647 -0.2037  0.3672
  413MOL0     H55696   0.582  10.672  -0.184  1.3880 -0.0810  2.7050
  413MOL0     H55697   0.672  10.821  -0.184 -0.6239 -0.3673  0.7389
  413MOL0     H55698   0.787  10.798  -0.372  1.7424 -2.5671 -0.4455
  413MOL0     H55699   0.734  10.634  -0.389  1.1568 -0.1311  2.2184
  413MOL0     H55700   0.492  10.717  -0.382  1.3174  1.2824  2.5893
  413MOL0     H55701   0.542  10.881  -0.418  0.3837  0.2654 -0.0156
  413MOL0     H55702   0.484  10.753  -0.639  0.0967 -2.6860 -2.6721
  413MOL0     H55703   0.597  10.639  -0.580 -2.7560 -0.5701  3.5030
  413MOL0     H55704   0.676  10.920  -0.664 -0.4703 -0.7158 -3.8489
  413MOL0     H55705   0.792  10.797  -0.610 -0.2359  0.1444  0.0930
  413MOL0     H55706   0.754  10.557  -0.779 -1.1185 -0.9038  0.0040
  413MOL0     H55707   0.752  10.437  -1.043  2.4127 -1.0138  1.6515
  413MOL0     H55708   0.660  10.528  -1.153 -1.0259  1.4793  1.6582
  413MOL0     H55709   0.958  10.537  -1.115 -0.0813  0.7079  0.5783
  413MOL0     H55710   0.859  10.458  -1.239 -2.2921  2.4431 -2.4195
  413MOL0     H55711   0.881  10.763  -1.199 -0.6967  0.2996  0.0368
  413MOL0     H55712   0.763  10.695  -1.303 -0.5881  0.6798  1.3097
  413MOL0     H55713   0.940  10.759  -1.439  2.8903  0.0946 -1.9389
  413MOL0     H55714   0.934  10.578  -1.446 -1.2658  0.2905 -0.0312
  413MOL0     H55715   1.322  10.642  -1.227 -1.1434  1.8123 -0.0513
  413MOL0     H55716   1.524  10.641  -1.346 -0.0656  0.6751  0.4420
  413MOL0     H55717   1.771  10.341  -1.640 -1.3605  0.9484  2.3391
  413MOL0     H55718   1.977  10.291  -1.748 -1.1429 -1.0094  2.1139
  413MOL0     H55719   2.312  10.459  -1.608  1.7091  0.6254 -0.7933
  413MOL0     H55720   2.377  10.369  -1.739 -2.3969 -1.3243 -0.9659
  413MOL0     H55721   2.299  10.666  -1.754 -0.9672 -1.5531  0.1929
  413MOL0     H55722   2.453  10.594  -1.698  0.6489 -2.6852 -0.3644
  413MOL0     H55723   2.471  10.481  -1.929 -1.1520 -1.0312  2.2832
  413MOL0     H55724   2.318  10.563  -1.975 -0.6268  2.8026 -0.1005
  413MOL0     H55725   2.404  10.777  -1.976  0.3181  1.4089  0.2513
  413MOL0     H55726   2.504  10.678  -2.083  0.3297  2.6764  0.1748
  413MOL0     H55727   2.661  10.639  -1.895 -1.2295 -1.8112 -6.8338
  413MOL0     H55728   2.566  10.765  -1.801 -0.8170  1.6506 -0.9374
  413MOL0     H55729   2.713  10.806  -2.058 -0.3490  0.1358 -0.4871
  413MOL0     H55730   2.602  10.915  -1.979 -0.8417 -0.2467  0.5875
  413MOL0     H55731   2.839  10.983  -1.925 -3.2546  1.0548  0.3200
  413MOL0     H55732   2.885  10.817  -1.893  0.4852 -0.8802 -3.3748
  413MOL0     H55733   2.747  10.825  -1.675  0.5705  0.6072  0.9330
  413MOL0     H55734   2.862  10.952  -1.672 -1.0028 -1.0385  1.7627
  413MOL0     H55735   2.133  10.680  -1.647 -0.2047 -0.9973 -0.8412
  413MOL0     H55736   1.895  10.733  -1.521  1.4825  0.1810 -0.2739
  413MOL0     H55737   1.324  10.522  -1.703  0.5960 -0.9244 -0.4618
  413MOL0     H55738   1.104  10.561  -1.589  0.1377 -3.0212 -1.4764
  413MOL0     H55739   1.234  10.633  -0.043  2.9178  0.3851  0.0940
  413MOL0     H55740   1.441  10.501  -0.030  0.2826  0.7577 -0.0712
  413MOL0     H55741   1.595  10.041  -0.028  0.5040 -0.5100 -2.9586
  413MOL0     H55742   1.788   9.947  -0.082  0.9506  0.9599 -1.0715
  413MOL0     H55743   2.021  10.001  -0.180  0.4450  1.7339  1.5905
  413MOL0     H55744   2.001   9.858  -0.083  0.2026  0.7632 -0.0988
  413MOL0     H55745   2.252  10.005  -0.161 -3.7710  0.4890 -0.4398
  413MOL0     H55746   2.223   9.843  -0.204  0.9327 -0.9330  0.6405
  413MOL0     H55747   2.226   9.773   0.055  1.2968 -0.4740  1.5376
  413MOL0     H55748   2.311   9.919   0.075 -3.0580 -1.0321  1.6612
  413MOL0     H55749   2.459   9.724   0.028  0.6484 -0.7839 -0.6114
  413MOL0     H55750   2.392   9.693  -0.128  1.9567 -0.2995  0.1743
  413MOL0     H55751   2.649  10.012  -0.219 -1.9224  1.2810 -1.4399
  413MOL0     H55752   2.005  10.175   0.202 -1.1794  2.6874  0.7598
  413MOL0     H55753   1.829  10.435   0.223 -2.1932  1.2511  1.4533
  413MOL0     H55754   1.726  10.369   0.341  1.7194  0.1859  2.2611
  413MOL0     H55755   1.886  10.328   0.361  0.7786 -1.6080  0.4221
  414MOL0     O55756   1.692   1.604   3.912  0.7957 -1.0334 -0.0959
  414MOL0     C55757   1.741   1.537   3.824 -0.6893  0.1979  0.0928
  414MOL0     O55758   1.874   1.534   3.790 -0.3824 -0.1950 -0.1533
  414MOL0     C55759   1.965   1.618   3.848  0.1679 -0.7570 -0.1965
  414MOL0     C55760   2.062   1.571   3.937  0.8683  0.6318  0.3980
  414MOL0     C55761   2.158   1.653   3.995  0.3598  1.1047 -0.3572
  414MOL0     C55762   2.161   1.787   3.970 -0.5334 -0.6519  1.2716
  414MOL0     O55763   2.263   1.852   4.033  0.5008  0.1743 -0.7877
  414MOL0     C55764   2.268   1.986   4.027 -0.0492 -0.1713 -0.6547
  414MOL0     C55765   2.355   2.035   4.146 -0.5275 -0.7345 -1.1437
  414MOL0     C55766   2.310   1.987   4.286 -0.9548  0.2916 -0.4213
  414MOL0     C55767   2.203   2.086   4.345  0.2240 -0.2213  0.8879
  414MOL0     C55768   2.177   2.052   4.491  0.9303  0.3712 -0.3964
  414MOL0     C55769   2.115   1.908   4.507  0.0778  0.5666  0.0604
  414MOL0     C55770   2.070   1.900   4.650  0.1878 -0.4636 -0.6362
  414MOL0     C55771   2.047   1.763   4.722  0.6248 -0.0676  0.3738
  414MOL0     N55772   2.166   1.678   4.728  0.2828 -0.0806  0.2111
  414MOL0     C55773   2.267   1.683   4.826  0.2670 -0.6117  0.9979
  414MOL0     C55774   2.337   1.570   4.807 -0.0563 -1.2940  0.4646
  414MOL0     C55775   2.451   1.514   4.887 -0.3896 -0.2397 -0.3906
  414MOL0     C55776   2.413   1.475   5.036 -0.0132 -0.5796  1.4564
  414MOL0     C55777   2.317   1.357   5.046 -0.1794 -0.2958 -0.3625
  414MOL0     C55778   2.378   1.216   5.021  0.2495  0.9228 -0.0706
  414MOL0     O55779   2.486   1.190   5.113  0.4066 -0.1047  0.1389
  414MOL0     C55780   2.562   1.081   5.086  0.8468  0.4145  0.4049
  414MOL0     C55781   2.667   1.068   5.168 -0.8771 -0.9104  0.2454
  414MOL0     C55782   2.757   0.965   5.143  0.0073  0.9087 -0.1548
  414MOL0     C55783   2.738   0.862   5.045 -0.1788 -0.3941  0.1159
  414MOL0     C55784   2.835   0.755   5.020 -0.2714 -0.1934 -0.5679
  414MOL0     O55785   2.806   0.664   4.919 -0.0509  0.3556  0.0825
  414MOL0     C55786   2.860   0.539   4.935  0.1454  0.6898  0.3867
  414MOL0     C55787   2.996   0.514   4.915 -0.3122  0.0957  0.4337
  414MOL0     C55788   3.053   0.394   4.947  0.7006  0.0412 -0.2381
  414MOL0     C55789   2.976   0.282   4.981  1.1122 -0.2024  0.1430
  414MOL0     O55790   3.019   0.159   5.012  0.0152  0.1827  0.1816
  414MOL0     C55791   3.151   0.147   5.065 -0.6084  0.3117  0.1950
  414MOL0     C55792   3.183  -0.001   5.105 -0.0357  0.4378 -0.3577
  414MOL0     C55793   3.071  -0.072   5.183  0.6497 -0.9034  0.6528
  414MOL0     C55794   3.107  -0.187   5.270 -0.5449  0.1202 -0.2283
  414MOL0     C55795   2.995  -0.251   5.343  0.2673  0.0450  0.0234
  414MOL0     C55796   2.882  -0.306   5.256 -0.4013  0.6946 -0.0344
  414MOL0     C55797   2.930  -0.445   5.193 -0.4375  0.2569 -0.5902
  414MOL0     C55798   2.909  -0.566   5.286 -0.8533 -0.9171  0.2326
  414MOL0    Cl55799   2.750  -0.563   5.353 -0.1484 -0.2065  0.0924
  414MOL0     C55800   2.840   0.309   5.003 -0.1972  0.3792 -0.1343
  414MOL0     C55801   2.777   0.436   4.975 -0.5964  0.2455  0.4006
  414MOL0     O55802   2.923   0.731   5.101  0.1127  0.2686  0.1111
  414MOL0     C55803   2.621   0.878   4.966  0.0755  1.0941 -0.3335
  414MOL0     C55804   2.535   0.987   4.987 -0.7764 -0.6807  0.4221
  414MOL0     N55805   2.274   1.497   4.704  0.2838 -0.9098 -0.1355
  414MOL0     N55806   2.175   1.559   4.656 -0.2096  0.8076  0.0636
  414MOL0     C55807   2.075   1.840   3.873 -0.2767 -0.2840 -0.0262
  414MOL0     C55808   1.974   1.755   3.812 -0.3815  0.0916 -0.3048
  414MOL0     C55809   1.662   1.439   3.750 -0.1027  0.1976  0.1540
  414MOL0     C55810   1.729   1.321   3.703  1.1668 -0.5601 -0.2236
  414MOL0     C55811   1.673   1.231   3.614 -1.0352 -1.0173  0.4063
  414MOL0     C55812   1.532   1.233   3.591 -0.6645  0.8790 -0.9219
  414MOL0     O55813   1.463   1.132   3.528 -0.3897 -0.6985  0.1469
  414MOL0     C55814   1.342   1.071   3.576  0.3972  0.1557 -0.4474
  414MOL0     C55815   1.373   0.986   3.704  0.2260 -0.0766  0.6683
  414MOL0     C55816   1.483   0.873   3.667 -0.5526 -0.7421  0.4127
  414MOL0     C55817   1.495   0.761   3.766 -0.5685 -0.0558  0.5361
  414MOL0     C55818   1.573   0.650   3.711 -0.2326 -0.2560  0.7169
  414MOL0     C55819   1.637   0.562   3.655  0.9391  0.0252 -0.6514
  414MOL0     C55820   1.462   1.333   3.664  0.2875 -0.9396 -0.2322
  414MOL0     C55821   1.520   1.441   3.737 -0.1301 -0.3703 -0.8023
  414MOL0     C55822   1.426   1.548   3.788 -0.3261 -0.2837 -0.5484
  414MOL0     H55823   2.067   1.467   3.969  1.1804  1.4045  3.0320
  414MOL0     H55824   2.242   1.613   4.050  0.4253  3.0251  1.0228
  414MOL0     H55825   2.309   2.012   3.928 -1.6655 -0.0891 -1.3240
  414MOL0     H55826   2.171   2.030   4.051  0.3966 -0.1930  1.3654
  414MOL0     H55827   2.362   2.144   4.149  0.3800 -0.7811 -1.1059
  414MOL0     H55828   2.459   2.001   4.137 -0.8027 -1.2194 -2.8840
  414MOL0     H55829   2.395   1.981   4.353  0.5067  2.4995 -1.9366
  414MOL0     H55830   2.273   1.885   4.267 -0.4731  0.1305 -0.5088
  414MOL0     H55831   2.235   2.189   4.331  1.5414 -1.0776 -5.2304
  414MOL0     H55832   2.107   2.069   4.295  0.2947 -3.1076  1.5457
  414MOL0     H55833   2.272   2.060   4.545  1.2601  1.6998 -1.1210
  414MOL0     H55834   2.113   2.132   4.530 -2.0010 -2.0447  0.0787
  414MOL0     H55835   2.043   1.889   4.427  0.6448  1.7368 -0.7600
  414MOL0     H55836   2.187   1.827   4.498 -0.2553 -0.1821  2.9540
  414MOL0     H55837   1.966   1.935   4.645  0.5584  1.3530  2.3047
  414MOL0     H55838   2.117   1.974   4.715  2.0821 -1.4382 -0.8222
  414MOL0     H55839   2.020   1.793   4.824  1.3424  3.5308 -0.3265
  414MOL0     H55840   1.965   1.714   4.670  0.2151  0.2446  0.7110
  414MOL0     H55841   2.294   1.759   4.900 -1.5842  0.7508  0.3360
  414MOL0     H55842   2.493   1.430   4.830  2.1052  0.8952 -0.3839
  414MOL0     H55843   2.536   1.583   4.886  0.2374 -0.9674  1.1661
  414MOL0     H55844   2.510   1.447   5.077  1.3963 -0.8081 -1.7578
  414MOL0     H55845   2.381   1.561   5.095  0.9685 -0.6601  2.1234
  414MOL0     H55846   2.228   1.384   4.989  0.3308 -0.8277 -1.4393
  414MOL0     H55847   2.273   1.357   5.146 -0.2171  2.5969 -0.3034
  414MOL0     H55848   2.413   1.208   4.918 -1.2506  0.5606 -0.5834
  414MOL0     H55849   2.303   1.136   5.023  0.3446  0.7803 -1.4410
  414MOL0     H55850   2.686   1.137   5.249  1.8850  1.9001 -2.5555
  414MOL0     H55851   2.842   0.946   5.209 -0.4783  0.4915  0.3565
  414MOL0     H55852   3.063   0.595   4.886  1.7775 -0.6999  2.6474
  414MOL0     H55853   3.159   0.383   4.927  0.1594  0.4804 -3.9189
  414MOL0     H55854   3.232   0.169   4.995  0.9278 -2.2388  1.0446
  414MOL0     H55855   3.161   0.210   5.153  2.7117 -0.5659  0.5628
  414MOL0     H55856   3.197  -0.060   5.013 -1.5773 -1.4403  0.5302
  414MOL0     H55857   3.274  -0.028   5.160 -0.6169 -1.2144 -0.1438
  414MOL0     H55858   3.040   0.009   5.250  0.4570 -0.2899 -0.1612
  414MOL0     H55859   2.986  -0.102   5.122  0.2076 -2.7574  2.1153
  414MOL0     H55860   3.183  -0.151   5.340 -1.6567  1.2402  0.4623
  414MOL0     H55861   3.162  -0.255   5.205  2.2873  1.8388  0.1978
  414MOL0     H55862   2.950  -0.174   5.405 -0.4346 -0.3128 -0.0247
  414MOL0     H55863   3.043  -0.323   5.411  1.2881  1.9460  1.3954
  414MOL0     H55864   2.797  -0.313   5.325 -0.3666  3.1011  0.3244
  414MOL0     H55865   2.859  -0.240   5.172 -1.1272  2.9081  1.8048
  414MOL0     H55866   3.035  -0.440   5.162  0.2003  0.3510  1.4462
  414MOL0     H55867   2.871  -0.461   5.103  1.2614 -0.3015 -1.6517
  414MOL0     H55868   2.924  -0.655   5.225 -0.1890  0.3945 -1.6256
  414MOL0     H55869   2.978  -0.564   5.371 -3.1297 -0.9970  2.1642
  414MOL0     H55870   2.790   0.217   5.032  2.6732 -1.2742 -0.0512
  414MOL0     H55871   2.672   0.431   5.000 -0.4430  1.2319  1.2886
  414MOL0     H55872   2.603   0.806   4.887 -1.8016 -2.0248  2.6831
  414MOL0     H55873   2.448   0.992   4.923 -2.0984 -5.5455  1.4378
  414MOL0     H55874   2.067   1.942   3.838 -1.4873 -0.5848 -0.7126
  414MOL0     H55875   1.909   1.803   3.740 -1.2923 -0.9277 -0.1847
  414MOL0     H55876   1.831   1.295   3.729  1.2002  1.0603  1.4556
  414MOL0     H55877   1.742   1.157   3.575  0.0443  0.7674 -1.2429
  414MOL0     H55878   1.303   0.991   3.512 -1.8388  0.2080  0.7658
  414MOL0     H55879   1.262   1.143   3.595 -0.6566 -1.0175 -0.2863
  414MOL0     H55880   1.277   0.947   3.738 -0.2026  0.6683  0.3250
  414MOL0     H55881   1.414   1.051   3.782  1.9348 -0.2849 -0.0094
  414MOL0     H55882   1.585   0.912   3.657 -1.3408  0.9963 -1.8878
  414MOL0     H55883   1.438   0.820   3.582 -0.7802 -1.2322  0.8389
  414MOL0     H55884   1.551   0.796   3.854  0.2291  0.8549 -0.3087
  414MOL0     H55885   1.400   0.721   3.802  0.2699 -1.1666  1.6514
  414MOL0     H55886   1.684   0.477   3.610 -1.9914 -1.3047 -1.4624
  414MOL0     H55887   1.355   1.334   3.652 -0.2887  1.3566  3.4300
  414MOL0     H55888   1.325   1.534   3.749 -2.3579 -1.5653  4.3585
  414MOL0     H55889   1.421   1.543   3.897  2.4830 -1.5483 -0.3829
  414MOL0     H55890   1.471   1.641   3.754 -2.0690  0.1093 -1.9184
  415MOL0     O55891   1.611   4.343  10.480 -0.1197 -0.3299 -0.1002
  415MOL0     C55892   1.612   4.427  10.571 -1.1624 -0.0231  0.4325
  415MOL0     O55893   1.698   4.534  10.579  0.4349  0.0574  1.1734
  415MOL0     C55894   1.816   4.542  10.519 -0.7444  0.0654  0.4688
  415MOL0     C55895   1.894   4.639  10.578  0.4976 -0.3202  0.8134
  415MOL0     C55896   2.021   4.670  10.535  1.1514 -0.2310  0.4878
  415MOL0     C55897   2.075   4.608  10.424  0.1286  1.0051  0.0612
  415MOL0     O55898   2.195   4.640  10.372  0.8717 -0.1333  0.6342
  415MOL0     C55899   2.262   4.750  10.436  0.3551 -0.2893  0.2358
  415MOL0     C55900   2.402   4.772  10.379  0.4204 -0.9937 -0.2255
  415MOL0     C55901   2.501   4.665  10.406  0.2663 -0.2282  0.2314
  415MOL0     C55902   2.481   4.540  10.322  0.1318  0.4864  0.3114
  415MOL0     C55903   2.607   4.448  10.318  0.0688  0.0635  0.2777
  415MOL0     C55904   2.595   4.330  10.215  0.8348  0.1194  0.3723
  415MOL0     C55905   2.613   4.392  10.074 -0.5945 -0.8455 -0.6765
  415MOL0     C55906   2.642   4.289   9.972  0.4223  0.5278 -0.0780
  415MOL0     N55907   2.761   4.210   9.983 -0.6561 -0.1675 -0.3343
  415MOL0     C55908   2.887   4.267   9.979  0.1376 -1.1568  0.0748
  415MOL0     C55909   2.969   4.165  10.004 -0.0438 -1.2472  0.8319
  415MOL0     C55910   3.119   4.175  10.007  0.1733 -0.2482 -0.1421
  415MOL0     C55911   3.159   4.193  10.151 -0.9736 -0.4798 -0.2772
  415MOL0     C55912   3.312   4.174  10.155  0.5041  0.2373  0.4389
  415MOL0     C55913   3.374   4.265  10.261 -0.2025  0.9491 -0.8486
  415MOL0     O55914   3.388   4.395  10.212  0.0118 -0.9399  0.2586
  415MOL0     C55915   3.509   4.446  10.232  0.8204 -0.2247 -0.6009
  415MOL0     C55916   3.532   4.530  10.348  0.3081 -0.1274 -0.9902
  415MOL0     C55917   3.656   4.586  10.369 -0.5685  0.0185 -0.2664
  415MOL0     C55918   3.758   4.565  10.278 -0.3230 -0.1539  0.3550
  415MOL0     C55919   3.890   4.636  10.298 -0.3461  0.2415 -0.5740
  415MOL0     O55920   3.972   4.640  10.184 -0.0452 -0.1251 -0.0326
  415MOL0     C55921   4.081   4.722  10.177  0.4913  1.2962  0.2346
  415MOL0     C55922   4.078   4.832  10.091  0.4407 -0.9618 -0.0808
  415MOL0     C55923   4.192   4.913  10.078  0.5591  0.2203  0.9472
  415MOL0     C55924   4.305   4.887  10.160  0.8328 -0.1872  0.1826
  415MOL0     O55925   4.401   4.983  10.176 -0.0466 -0.1636 -0.6587
  415MOL0     C55926   4.444   5.049  10.054 -0.0720 -0.0341  1.5988
  415MOL0     C55927   4.598   5.082  10.058  0.1635 -0.2375 -0.1464
  415MOL0     C55928   4.652   5.148   9.934  0.1709  0.5097  0.2894
  415MOL0     C55929   4.803   5.158   9.921  0.2065  0.2486  0.4305
  415MOL0     C55930   4.839   5.261   9.814  0.7105  0.1717  0.2144
  415MOL0     C55931   4.993   5.269   9.789 -0.0890 -0.7311  0.1535
  415MOL0     C55932   5.057   5.357   9.893 -0.2101 -0.0468 -0.2904
  415MOL0     C55933   5.205   5.358   9.862 -0.5398 -0.3689  0.2808
  415MOL0    Cl55934   5.266   5.457  10.007 -0.2904  0.2255 -0.5039
  415MOL0     C55935   4.307   4.775  10.249 -0.4881  0.0310  0.5519
  415MOL0     C55936   4.192   4.696  10.265  0.3222 -0.6990  0.5676
  415MOL0     O55937   3.911   4.695  10.405  0.8396  0.2362  0.2732
  415MOL0     C55938   3.743   4.475  10.171 -0.5926  0.5988  0.1975
  415MOL0     C55939   3.619   4.415  10.146  0.7952 -0.5659 -0.1754
  415MOL0     N55940   2.892   4.057  10.036  0.8691 -0.1612 -0.3463
  415MOL0     N55941   2.769   4.082  10.012  0.1376  0.5295  0.8499
  415MOL0     C55942   1.999   4.501  10.367 -0.1066 -1.0367 -0.6570
  415MOL0     C55943   1.872   4.471  10.408 -0.5475  0.4514 -0.1215
  415MOL0     C55944   1.508   4.435  10.665  0.0145  0.5632 -0.5956
  415MOL0     C55945   1.416   4.541  10.664  0.4327  1.2861 -0.2354
  415MOL0     C55946   1.303   4.545  10.753 -0.2125  0.6692  0.0791
  415MOL0     C55947   1.292   4.451  10.853 -0.1293  0.2869 -0.2822
  415MOL0     O55948   1.177   4.452  10.932 -0.2808 -0.0707  0.6048
  415MOL0     C55949   1.149   4.362  11.042 -0.0793 -0.0091  0.6243
  415MOL0     C55950   1.042   4.429  11.134 -0.4063  0.3779  0.2703
  415MOL0     C55951   1.105   4.543  11.218  0.0209 -0.1458  0.5966
  415MOL0     C55952   0.987   4.597  11.298  0.7007 -0.5871  0.8866
  415MOL0     C55953   1.024   4.697  11.392 -0.8232 -0.5179  0.4952
  415MOL0     C55954   1.051   4.794  11.470  0.5678 -0.1061 -0.0636
  415MOL0     C55955   1.392   4.353  10.865  0.0292 -0.0683  0.0272
  415MOL0     C55956   1.493   4.339  10.768 -0.9773  0.0176  0.0006
  415MOL0     C55957   1.599   4.228  10.783  0.1958 -0.4543  0.7001
  415MOL0     H55958   1.844   4.693  10.658 -2.3369  0.1154 -1.1082
  415MOL0     H55959   2.060   4.744  10.604 -1.3666  1.5060  0.1971
  415MOL0     H55960   2.201   4.839  10.419  0.3906 -0.9220 -4.8405
  415MOL0     H55961   2.276   4.730  10.543 -0.3022 -0.8975  0.2146
  415MOL0     H55962   2.444   4.867  10.413  1.0673  0.0844 -3.6594
  415MOL0     H55963   2.401   4.785  10.271  2.0653  1.3381 -0.0124
  415MOL0     H55964   2.506   4.637  10.512 -0.3733 -1.9313 -0.1525
  415MOL0     H55965   2.602   4.696  10.380 -0.2407  0.4972 -0.9587
  415MOL0     H55966   2.394   4.487  10.362 -1.0900  1.5110 -0.8966
  415MOL0     H55967   2.463   4.573  10.220  0.0024  0.7762  0.4255
  415MOL0     H55968   2.699   4.505  10.299 -0.1050 -0.0479 -1.0008
  415MOL0     H55969   2.627   4.399  10.413 -0.8750  1.0253  0.9995
  415MOL0     H55970   2.668   4.250  10.234 -2.1651 -2.7457  0.7260
  415MOL0     H55971   2.495   4.287  10.218  0.2575  1.4544  0.7527
  415MOL0     H55972   2.688   4.471  10.083 -1.6811 -0.0756  3.4252
  415MOL0     H55973   2.518   4.438  10.045  0.7971  2.1116 -0.8460
  415MOL0     H55974   2.555   4.221   9.977  1.6680 -1.1240  0.0070
  415MOL0     H55975   2.630   4.330   9.871  0.8934 -2.8798 -1.6677
  415MOL0     H55976   2.921   4.368   9.964  0.9196 -1.6269 -1.5290
  415MOL0     H55977   3.166   4.087   9.962  0.0778 -0.3027 -0.1339
  415MOL0     H55978   3.149   4.257   9.940  1.8438  0.7998  1.7536
  415MOL0     H55979   3.131   4.290  10.194 -1.1146 -0.1535 -1.0787
  415MOL0     H55980   3.112   4.121  10.217  0.5429 -0.3154  1.0240
  415MOL0     H55981   3.358   4.195  10.058  0.5065 -2.5627 -0.2453
  415MOL0     H55982   3.339   4.070  10.176  0.7621 -0.1080 -1.4107
  415MOL0     H55983   3.473   4.225  10.286  0.7959  2.3784 -2.2933
  415MOL0     H55984   3.321   4.258  10.357  1.7341 -0.9020  0.1946
  415MOL0     H55985   3.452   4.559  10.416  0.3548 -0.2100 -0.9005
  415MOL0     H55986   3.669   4.656  10.451  0.7487  1.4591 -1.6064
  415MOL0     H55987   3.989   4.852  10.033 -0.3592 -0.0504  1.3784
  415MOL0     H55988   4.187   5.008  10.024  1.1071  1.0311  2.2679
  415MOL0     H55989   4.432   4.988   9.964  0.7237  2.9503 -0.6822
  415MOL0     H55990   4.393   5.146  10.050 -0.9382 -0.5121 -1.9436
  415MOL0     H55991   4.607   5.151  10.143  0.1720 -1.9220  1.2705
  415MOL0     H55992   4.647   4.990  10.091  3.0867  0.5608 -1.9036
  415MOL0     H55993   4.620   5.102   9.840  0.0508  2.5813 -0.7577
  415MOL0     H55994   4.617   5.252   9.933  1.0313  0.8118 -0.9362
  415MOL0     H55995   4.850   5.061   9.903  1.4147  0.8161  0.4851
  415MOL0     H55996   4.851   5.187  10.015 -0.0746  0.9155  0.3697
  415MOL0     H55997   4.803   5.357   9.853  0.2067 -1.5052  4.4042
  415MOL0     H55998   4.788   5.229   9.722 -1.2580 -0.6484  1.5243
  415MOL0     H55999   5.025   5.165   9.778 -0.2370 -0.7146 -0.4898
  415MOL0     H56000   5.005   5.312   9.689 -1.1334  0.5731  0.5642
  415MOL0     H56001   5.037   5.316   9.993  1.8354  0.5956  0.4179
  415MOL0     H56002   5.012   5.456   9.884 -0.7934 -0.0431  2.0395
  415MOL0     H56003   5.235   5.253   9.856 -2.5349 -1.1100  2.0874
  415MOL0     H56004   5.226   5.405   9.766 -2.1148 -0.2236 -0.0069
  415MOL0     H56005   4.397   4.756  10.306  1.6367 -0.5660 -2.7550
  415MOL0     H56006   4.175   4.618  10.338 -0.4376  0.7883  2.0697
  415MOL0     H56007   3.836   4.454  10.118 -0.2716  1.7351  0.2680
  415MOL0     H56008   3.598   4.345  10.067  3.0495 -1.9189  0.3367
  415MOL0     H56009   2.051   4.440  10.294  1.5910 -1.4362  0.8028
  415MOL0     H56010   1.823   4.382  10.369  0.4895 -0.3875  0.4414
  415MOL0     H56011   1.433   4.605  10.578  1.9878  0.1418 -0.8157
  415MOL0     H56012   1.230   4.625  10.745 -2.2061 -1.1485 -0.5968
  415MOL0     H56013   1.244   4.333  11.089 -0.1990 -1.1034  0.2151
  415MOL0     H56014   1.103   4.273  10.999 -1.5366  0.2599  1.5579
  415MOL0     H56015   0.994   4.355  11.198  3.5644  0.4688  3.7483
  415MOL0     H56016   0.969   4.473  11.065  2.2779  0.2893 -2.9165
  415MOL0     H56017   1.163   4.621  11.168  1.6783 -0.2920  2.1896
  415MOL0     H56018   1.164   4.505  11.301 -0.5850  1.9838  2.0985
  415MOL0     H56019   0.914   4.642  11.229 -0.9161 -2.7160  1.1134
  415MOL0     H56020   0.937   4.518  11.353 -0.8143  0.8830  1.7189
  415MOL0     H56021   1.078   4.873  11.537 -2.3499 -0.3582  1.5607
  415MOL0     H56022   1.391   4.277  10.942 -0.8799 -0.7360 -0.6201
  415MOL0     H56023   1.589   4.159  10.699  0.1946 -0.1572  0.4557
  415MOL0     H56024   1.700   4.270  10.772  0.0222 -0.3948 -0.8587
  415MOL0     H56025   1.597   4.167  10.874 -2.6146 -1.2922  0.1532
  416MOL0     O56026   1.991  10.937  10.101 -0.4877  0.1002 -0.2663
  416MOL0     C56027   1.901  10.964  10.184 -0.5085  0.1117  0.5325
  416MOL0     O56028   1.914  10.982  10.324  0.4545 -0.1743  0.6073
  416MOL0     C56029   2.026  10.953  10.385 -0.7407 -0.1592 -0.3603
  416MOL0     C56030   2.063  10.830  10.414  0.4288  0.4253  0.3425
  416MOL0     C56031   2.179  10.810  10.475 -0.3213  0.1944 -0.1441
  416MOL0     C56032   2.264  10.909  10.513  0.4980 -0.0653 -0.0576
  416MOL0     O56033   2.388  10.867  10.548 -0.3472 -0.0494  0.0473
  416MOL0     C56034   2.453  10.946  10.639  0.2356 -0.1843 -0.5069
  416MOL0     C56035   2.587  10.878  10.685 -0.7176 -0.3995  0.2451
  416MOL0     C56036   2.697  10.934  10.600 -0.3951  0.2491 -0.0415
  416MOL0     C56037   2.817  10.847  10.623 -0.1536  0.4515  0.0800
  416MOL0     C56038   2.950  10.908  10.576  0.1584 -0.0054 -0.1383
  416MOL0     C56039   3.068  10.820  10.615 -1.0405  0.4186 -0.3945
  416MOL0     C56040   3.192  10.908  10.583 -0.4981  0.4473 -0.4307
  416MOL0     C56041   3.208  10.931  10.430  0.6194 -0.1155  0.1590
  416MOL0     N56042   3.348  10.980  10.410 -0.2879  0.1971  0.5365
  416MOL0     C56043   3.390  11.108  10.448 -0.0463 -0.3489  0.4360
  416MOL0     C56044   3.516  11.108  10.409  0.3446 -0.2147  0.2071
  416MOL0     C56045   3.613  11.211  10.430 -0.3191 -0.7139 -0.2214
  416MOL0     C56046   3.629  11.307  10.310 -0.1555  0.5689 -0.2373
  416MOL0     C56047   3.663  11.247  10.168  0.5802  0.4396  0.6613
  416MOL0     C56048   3.797  11.177  10.171 -0.5430 -0.3346 -0.3584
  416MOL0     O56049   3.898  11.275  10.197 -0.0716 -0.4105  0.3311
  416MOL0     C56050   4.025  11.242  10.148  0.4651  1.1321 -0.6141
  416MOL0     C56051   4.106  11.334  10.081  0.1265 -0.4809  0.6597
  416MOL0     C56052   4.229  11.292  10.019  0.1300 -0.1183 -0.3939
  416MOL0     C56053   4.278  11.160  10.038 -0.2330  0.2360  0.2085
  416MOL0     C56054   4.408  11.106   9.979 -0.6942 -0.5973  0.6690
  416MOL0     O56055   4.463  10.992  10.033 -0.0577  0.0675  0.3742
  416MOL0     C56056   4.579  10.952   9.965  0.5401 -0.5995  1.3181
  416MOL0     C56057   4.566  10.884   9.841 -0.1135 -0.8367  0.4765
  416MOL0     C56058   4.676  10.838   9.775  0.5036 -0.6124 -0.1764
  416MOL0     C56059   4.802  10.859   9.835  0.1324 -0.0400 -0.0814
  416MOL0     O56060   4.906  10.822   9.753 -0.3242  0.3408  0.5218
  416MOL0     C56061   5.039  10.855   9.793 -0.1782  0.4743  0.7296
  416MOL0     C56062   5.139  10.775   9.709 -0.6432  0.4362  0.5665
  416MOL0     C56063   5.122  10.626   9.731 -0.1342 -0.3989 -0.8620
  416MOL0     C56064   5.233  10.545   9.668  0.3077  0.8662 -0.3085
  416MOL0     C56065   5.226  10.391   9.686  0.3281  0.4727 -0.6077
  416MOL0     C56066   5.216  10.337   9.829  0.0497  0.2317  0.0451
  416MOL0     C56067   5.213  10.186   9.831  0.3784 -0.2086 -0.7804
  416MOL0     C56068   5.193  10.130   9.974 -0.3093 -0.0489 -1.0210
  416MOL0    Cl56069   5.154   9.961   9.974 -0.1779 -0.3566 -0.0966
  416MOL0     C56070   4.818  10.912   9.959 -0.2461 -0.5383 -0.6944
  416MOL0     C56071   4.710  10.967  10.026  0.4333  0.1262  0.2582
  416MOL0     O56072   4.459  11.176   9.888  0.3853 -0.0164  0.1338
  416MOL0     C56073   4.193  11.070  10.104  0.4395  0.3244 -0.1755
  416MOL0     C56074   4.072  11.113  10.161 -0.4082  0.0270 -0.1286
  416MOL0     N56075   3.546  10.995  10.333  0.2605  0.3023  1.2008
  416MOL0     N56076   3.439  10.916  10.334 -0.5271 -0.4714  0.0809
  416MOL0     C56077   2.223  11.042  10.490  0.1219  1.3484  0.3820
  416MOL0     C56078   2.099  11.063  10.430  0.2755 -0.3804  0.4998
  416MOL0     C56079   1.756  10.949  10.137 -0.9316 -0.3319 -0.3882
  416MOL0     C56080   1.659  10.901  10.232 -0.3338  0.3853  0.3961
  416MOL0     C56081   1.524  10.896  10.200 -0.2281 -0.4188 -0.0007
  416MOL0     C56082   1.488  10.935  10.073  0.1770  0.5553 -1.3088
  416MOL0     O56083   1.361  10.914  10.019  0.5585 -0.3843 -0.1032
  416MOL0     C56084   1.270  10.971  10.113  0.0717 -1.3865 -0.1245
  416MOL0     C56085   1.143  11.012  10.040  0.3422 -0.2124  0.7854
  416MOL0     C56086   1.153  11.104   9.917 -0.2574 -1.3258 -0.1571
  416MOL0     C56087   1.055  11.078   9.807  0.6458  0.2922 -0.3158
  416MOL0     C56088   0.919  11.081   9.849  0.9986 -1.1520  0.0845
  416MOL0     C56089   0.807  11.078   9.898  0.5194  0.5467  0.1874
  416MOL0     C56090   1.577  10.967   9.980 -0.4021 -0.4240  0.0205
  416MOL0     C56091   1.713  10.990  10.008  1.0259  0.4347 -0.2369
  416MOL0     C56092   1.792  11.032   9.895 -0.7071  0.0938  0.7478
  416MOL0     H56093   2.004  10.753  10.364 -0.9985  1.1453  0.8707
  416MOL0     H56094   2.200  10.705  10.494  1.1313  0.6858  1.2062
  416MOL0     H56095   2.473  11.049  10.609  0.4601  0.8083  2.6323
  416MOL0     H56096   2.401  10.956  10.735  0.6695  2.9626 -0.5221
  416MOL0     H56097   2.590  10.770  10.674 -1.2125 -0.6656  2.2265
  416MOL0     H56098   2.604  10.913  10.788 -0.3492  2.5983 -0.7402
  416MOL0     H56099   2.721  11.033  10.640 -3.9092  1.7573 -1.3162
  416MOL0     H56100   2.672  10.940  10.494  0.7800 -0.6224 -0.3943
  416MOL0     H56101   2.822  10.824  10.730  0.2614 -1.2444 -0.2751
  416MOL0     H56102   2.792  10.751  10.577 -2.1629  0.8506  0.2269
  416MOL0     H56103   2.945  10.926  10.468  0.0332 -1.9155 -0.4943
  416MOL0     H56104   2.957  11.005  10.626 -1.3234  0.2951 -0.4759
  416MOL0     H56105   3.061  10.808  10.724  2.9936  1.0708  0.0942
  416MOL0     H56106   3.080  10.725  10.561  2.8466  0.1170  0.7268
  416MOL0     H56107   3.281  10.859  10.625 -0.8344 -0.9904 -1.2935
  416MOL0     H56108   3.179  11.007  10.628  3.1321  0.3985  1.1694
  416MOL0     H56109   3.184  10.836  10.383  2.5210 -1.2357  1.3013
  416MOL0     H56110   3.133  11.005  10.399  0.6456  0.5779  1.6459
  416MOL0     H56111   3.337  11.192  10.493 -0.7371  1.0483 -2.7227
  416MOL0     H56112   3.583  11.258  10.525  1.7623 -2.9529  1.6675
  416MOL0     H56113   3.705  11.160  10.459 -0.6938 -1.1704  0.1717
  416MOL0     H56114   3.532  11.355  10.295 -0.2853  0.3495 -0.1071
  416MOL0     H56115   3.699  11.382  10.347  1.0113 -1.2431  1.4644
  416MOL0     H56116   3.676  11.331  10.098  2.6179  0.7019  1.2803
  416MOL0     H56117   3.583  11.178  10.140  1.2668 -0.6662  1.3840
  416MOL0     H56118   3.816  11.140  10.070 -1.2201 -1.7867  0.0269
  416MOL0     H56119   3.792  11.092  10.239  0.5396  1.4561  2.1057
  416MOL0     H56120   4.073  11.437  10.071  0.0720 -0.5733 -0.1846
  416MOL0     H56121   4.286  11.374   9.977 -1.2503  2.1412  1.7980
  416MOL0     H56122   4.468  10.858   9.802 -0.5899  0.2005  0.9338
  416MOL0     H56123   4.656  10.785   9.682 -0.3082  1.4810 -1.2817
  416MOL0     H56124   5.051  10.964   9.784 -0.5246  0.4116 -0.7319
  416MOL0     H56125   5.065  10.828   9.896  0.1647 -1.6379  0.1274
  416MOL0     H56126   5.115  10.788   9.603 -1.6710  1.1341  0.8656
  416MOL0     H56127   5.239  10.810   9.735  0.2084 -0.5456 -1.2230
  416MOL0     H56128   5.120  10.593   9.836 -2.3667 -1.7546 -1.2459
  416MOL0     H56129   5.026  10.592   9.690 -0.0325 -2.4481  0.4481
  416MOL0     H56130   5.331  10.576   9.704 -0.0298 -0.5230  2.0220
  416MOL0     H56131   5.231  10.566   9.560  2.8396  1.4450 -0.2998
  416MOL0     H56132   5.312  10.335   9.649 -0.2074 -1.4283  0.8658
  416MOL0     H56133   5.143  10.349   9.628  1.2679 -1.8091 -0.3749
  416MOL0     H56134   5.308  10.359   9.884  1.4001 -0.5370 -1.7932
  416MOL0     H56135   5.131  10.378   9.885  0.8288 -0.8898  2.1329
  416MOL0     H56136   5.308  10.146   9.793 -0.0931 -2.1176 -0.0848
  416MOL0     H56137   5.134  10.150   9.765 -1.4549  0.5052  0.9283
  416MOL0     H56138   5.277  10.141  10.043 -1.6712 -0.6372  0.8285
  416MOL0     H56139   5.114  10.187  10.025 -0.7241 -0.3854 -1.2801
  416MOL0     H56140   4.915  10.918  10.006  1.0080 -2.8078 -2.7420
  416MOL0     H56141   4.716  11.011  10.125 -0.3644 -0.0419  0.3923
  416MOL0     H56142   4.219  10.966  10.119 -0.4622  0.3268  1.7870
  416MOL0     H56143   4.016  11.032  10.207 -0.6189  2.0638  3.5711
  416MOL0     H56144   2.287  11.122  10.524  0.9469 -0.4139  3.3422
  416MOL0     H56145   2.048  11.158  10.416  1.0058 -0.4329 -4.0969
  416MOL0     H56146   1.689  10.867  10.331 -0.8289 -0.0449  0.4009
  416MOL0     H56147   1.455  10.847  10.268  0.7591 -1.2831  0.3919
  416MOL0     H56148   1.311  11.058  10.165  0.6768 -1.2028 -0.8866
  416MOL0     H56149   1.242  10.902  10.194  1.9287  0.5833  2.3545
  416MOL0     H56150   1.082  11.060  10.117 -0.0065 -0.7145  0.8303
  416MOL0     H56151   1.099  10.916  10.011 -0.8825  1.2558 -2.7470
  416MOL0     H56152   1.253  11.103   9.873 -1.1059  3.0702 -2.7482
  416MOL0     H56153   1.129  11.205   9.954  2.4593 -0.1989 -1.2150
  416MOL0     H56154   1.067  11.156   9.731 -0.6094  2.0481  1.2039
  416MOL0     H56155   1.075  10.976   9.771 -1.9449 -0.0023 -1.1953
  416MOL0     H56156   0.707  11.080   9.936  0.0439 -0.0280 -0.9622
  416MOL0     H56157   1.546  10.995   9.879  0.9472 -0.6703 -0.4808
  416MOL0     H56158   1.894  11.058   9.924 -0.0368 -1.0134 -0.4951
  416MOL0     H56159   1.797  10.949   9.823  0.7519  0.1446  0.7605
  416MOL0     H56160   1.749  11.121   9.850 -1.5452 -0.5559  0.2330
  417MOL0     O56161   4.981  10.635   3.885 -0.6316 -0.7781 -0.3023
  417MOL0     C56162   4.929  10.712   3.965 -0.6114 -0.8160 -0.5503
  417MOL0     O56163   4.996  10.781   4.071  0.3229 -0.0418  0.0810
  417MOL0     C56164   5.133  10.746   4.077  0.7119 -1.1134  0.9569
  417MOL0     C56165   5.174  10.680   4.190 -0.2502  0.5260  0.9749
  417MOL0     C56166   5.310  10.647   4.212 -0.3261  0.2385  0.5501
  417MOL0     C56167   5.402  10.694   4.118  0.1440 -0.5132  0.2309
  417MOL0     O56168   5.538  10.671   4.130  0.1663  0.1398  0.2917
  417MOL0     C56169   5.564  10.542   4.187 -0.4772  0.1440  0.3184
  417MOL0     C56170   5.715  10.517   4.176  0.4382 -0.1505 -0.3041
  417MOL0     C56171   5.776  10.495   4.037 -0.0048 -0.4832 -0.1123
  417MOL0     C56172   5.929  10.459   4.055  0.7931 -0.6679  0.3594
  417MOL0     C56173   6.032  10.578   4.036 -0.8991  0.4443 -0.4829
  417MOL0     C56174   6.012  10.638   3.889 -0.3685  0.1620  0.0126
  417MOL0     C56175   6.122  10.736   3.868 -0.2250  0.7069  0.4480
  417MOL0     C56176   6.106  10.795   3.730  0.4710 -0.0561 -0.5363
  417MOL0     N56177   6.213  10.858   3.663  0.3715 -0.5180  0.2921
  417MOL0     C56178   6.342  10.833   3.674  0.2462  0.9311  0.6509
  417MOL0     C56179   6.406  10.901   3.576 -0.1771 -0.9286 -0.3872
  417MOL0     C56180   6.553  10.920   3.554 -0.8343  0.2284  0.3023
  417MOL0     C56181   6.628  11.054   3.589 -0.3662 -0.3622 -0.3310
  417MOL0     C56182   6.604  11.085   3.741 -0.0391  0.1415 -0.3925
  417MOL0     C56183   6.523  11.215   3.766 -0.4050 -0.2280  0.6016
  417MOL0     O56184   6.576  11.324   3.702  0.2134  0.0885  0.6706
  417MOL0     C56185   6.702  11.383   3.721  0.1564  0.7048 -0.9624
  417MOL0     C56186   6.744  11.472   3.626 -0.7246 -0.1481 -0.0961
  417MOL0     C56187   6.869  11.528   3.638  0.0524 -1.4390 -0.2371
  417MOL0     C56188   6.955  11.519   3.751 -0.3039 -0.0524  0.5432
  417MOL0     C56189   7.085  11.597   3.755  0.9805  0.0350 -0.4041
  417MOL0     O56190   7.143  11.624   3.640  0.2287 -0.1386  0.2074
  417MOL0     C56191   7.235  11.725   3.631  0.3485 -0.1416  0.2503
  417MOL0     C56192   7.362  11.711   3.694 -0.4654 -0.1822  0.7317
  417MOL0     C56193   7.450  11.812   3.678  0.1187 -0.1740 -0.0304
  417MOL0     C56194   7.422  11.928   3.597  0.2818  0.3193  0.7598
  417MOL0     O56195   7.514  12.034   3.582  0.7911  0.1703 -0.0169
  417MOL0     C56196   7.607  12.057   3.685 -0.2597  0.1375 -0.5050
  417MOL0     C56197   7.676  12.181   3.656 -0.0715  0.0254  0.6492
  417MOL0     C56198   7.781  12.217   3.757  0.3405 -0.3426  0.4734
  417MOL0     C56199   7.900  12.123   3.757  0.6507 -0.3293  0.1216
  417MOL0     C56200   7.970  12.109   3.621  0.1780  0.3937 -0.4502
  417MOL0     C56201   8.103  12.028   3.631 -0.1960  0.0727  0.5227
  417MOL0     C56202   8.211  12.062   3.520 -0.0956  2.1039  0.4371
  417MOL0     C56203   8.230  12.211   3.493 -0.1971  0.3974  0.2548
  417MOL0    Cl56204   8.387  12.250   3.407  0.0240 -0.2166 -0.1618
  417MOL0     C56205   7.303  11.934   3.526  0.4205  0.4526 -0.4445
  417MOL0     C56206   7.210  11.830   3.542  0.3168  0.9262 -0.8387
  417MOL0     O56207   7.117  11.627   3.869 -0.4041 -0.0362 -0.1509
  417MOL0     C56208   6.910  11.429   3.848  0.4165  0.5173 -0.2258
  417MOL0     C56209   6.780  11.367   3.835 -1.1372 -0.1593 -1.3389
  417MOL0     N56210   6.305  10.974   3.507  0.3708 -0.2459 -0.8666
  417MOL0     N56211   6.193  10.950   3.566 -0.4384  0.1228 -0.0183
  417MOL0     C56212   5.360  10.773   4.015 -0.3415 -0.0092 -0.2641
  417MOL0     C56213   5.227  10.800   3.990 -0.1369  0.2384  0.5108
  417MOL0     C56214   4.781  10.742   3.947 -0.1038 -0.3981 -0.0965
  417MOL0     C56215   4.730  10.868   3.973  0.3639  0.2300  0.6112
  417MOL0     C56216   4.597  10.903   3.947 -0.6259  0.3575 -0.3353
  417MOL0     C56217   4.503  10.814   3.901 -0.5634 -0.1821  0.1221
  417MOL0     O56218   4.376  10.857   3.889 -0.2717 -0.5200  0.1574
  417MOL0     C56219   4.272  10.774   3.843  0.2621  0.4426 -0.4441
  417MOL0     C56220   4.264  10.794   3.693 -0.1705 -0.0239  0.3137
  417MOL0     C56221   4.191  10.688   3.610  0.7351 -0.0179 -0.2598
  417MOL0     C56222   4.045  10.675   3.653  0.2880 -0.4412  0.2692
  417MOL0     C56223   3.968  10.800   3.643 -0.2633 -0.0828  0.1328
  417MOL0     C56224   3.919  10.905   3.655  0.1258 -0.7950  0.3780
  417MOL0     C56225   4.545  10.689   3.873  0.0396  1.1043 -0.2689
  417MOL0     C56226   4.686  10.656   3.894  1.0839  1.1232 -0.0777
  417MOL0     C56227   4.713  10.509   3.861 -0.5533 -0.3065  0.2033
  417MOL0     H56228   5.104  10.641   4.264 -0.8590  1.0952  0.7094
  417MOL0     H56229   5.341  10.588   4.298 -1.8106 -1.0396  0.2529
  417MOL0     H56230   5.542  10.528   4.293  0.4995  1.0182  0.6512
  417MOL0     H56231   5.530  10.458   4.125 -0.2078  0.0946  0.2360
  417MOL0     H56232   5.732  10.423   4.228  0.8219  0.4068  0.6085
  417MOL0     H56233   5.763  10.592   4.239 -0.3413 -1.8042  2.4292
  417MOL0     H56234   5.759  10.585   3.977  1.1640 -1.4760 -2.0052
  417MOL0     H56235   5.721  10.409   4.000 -1.9847  0.2855  0.8645
  417MOL0     H56236   5.951  10.415   4.153  2.2693 -0.5415  0.1088
  417MOL0     H56237   5.945  10.380   3.982 -0.0132  0.2837 -0.8852
  417MOL0     H56238   6.030  10.659   4.110 -0.8074  1.4777 -1.5749
  417MOL0     H56239   6.131  10.532   4.042 -1.9749 -1.8063  1.2473
  417MOL0     H56240   6.019  10.564   3.809  1.0259  1.3967 -1.0850
  417MOL0     H56241   5.917  10.693   3.885 -0.6550 -0.3874 -1.4960
  417MOL0     H56242   6.224  10.699   3.882 -1.6815 -2.9746  2.9064
  417MOL0     H56243   6.119  10.817   3.942  0.1331  0.7192  0.4501
  417MOL0     H56244   6.076  10.704   3.677  0.4093  0.1937 -0.9264
  417MOL0     H56245   6.024  10.867   3.732  1.0763  0.7285 -2.3560
  417MOL0     H56246   6.389  10.767   3.746 -1.1379 -0.4803  0.3066
  417MOL0     H56247   6.607  10.844   3.612  0.9898  1.7894  0.7784
  417MOL0     H56248   6.570  10.898   3.448  0.7991 -0.4662  0.6759
  417MOL0     H56249   6.735  11.050   3.564 -0.9500  1.2181 -3.6001
  417MOL0     H56250   6.591  11.137   3.527  1.4311  0.8671  0.1351
  417MOL0     H56251   6.703  11.112   3.778  0.1506  2.2015 -2.1979
  417MOL0     H56252   6.578  10.999   3.804  1.8115 -0.1177  0.0693
  417MOL0     H56253   6.524  11.234   3.874  0.6677 -3.9263  1.3576
  417MOL0     H56254   6.419  11.201   3.736 -0.2245  0.3462 -0.3590
  417MOL0     H56255   6.691  11.499   3.536 -2.0451 -0.6961  0.4935
  417MOL0     H56256   6.887  11.610   3.569  2.0926 -2.3548 -0.8925
  417MOL0     H56257   7.379  11.621   3.752 -1.1002  0.7426  2.4032
  417MOL0     H56258   7.552  11.802   3.715 -0.9224 -1.8094  2.6442
  417MOL0     H56259   7.556  12.064   3.782 -0.8369 -2.9252 -0.4699
  417MOL0     H56260   7.674  11.970   3.686  1.4711  1.3995 -1.1801
  417MOL0     H56261   7.706  12.172   3.551 -4.0993  0.2494 -0.6834
  417MOL0     H56262   7.599  12.258   3.650 -0.0892 -0.0119  0.4023
  417MOL0     H56263   7.814  12.317   3.728  0.3939 -0.2193  0.9541
  417MOL0     H56264   7.737  12.221   3.857 -2.3591 -1.3539 -0.5823
  417MOL0     H56265   7.861  12.025   3.787 -1.7163  0.2463 -0.8596
  417MOL0     H56266   7.971  12.154   3.834 -1.4911  1.5153  1.4625
  417MOL0     H56267   7.973  12.214   3.592  0.8265  0.0458 -1.7136
  417MOL0     H56268   7.906  12.058   3.548 -2.0576 -0.0574  1.7103
  417MOL0     H56269   8.146  12.035   3.731  0.9962  0.1257  0.0240
  417MOL0     H56270   8.083  11.920   3.620  1.3301 -0.0280 -2.4098
  417MOL0     H56271   8.180  12.018   3.425  1.8239  3.4406 -0.8774
  417MOL0     H56272   8.308  12.015   3.540 -1.1760 -1.8741 -2.3517
  417MOL0     H56273   8.156  12.237   3.417 -0.6883 -0.4399  0.4350
  417MOL0     H56274   8.212  12.267   3.586 -3.9047 -2.0804  1.2539
  417MOL0     H56275   7.285  12.024   3.468  1.6268  1.6939  1.0251
  417MOL0     H56276   7.116  11.824   3.488  0.5992 -2.6332 -1.1248
  417MOL0     H56277   6.971  11.387   3.928 -0.4884 -3.6719 -1.4664
  417MOL0     H56278   6.752  11.297   3.912 -1.1118 -0.6996 -1.8091
  417MOL0     H56279   5.430  10.809   3.940 -1.1142 -0.3762 -1.1845
  417MOL0     H56280   5.186  10.858   3.907  0.3049 -0.7998 -0.4574
  417MOL0     H56281   4.797  10.939   4.019 -1.0859  0.1835  2.9524
  417MOL0     H56282   4.561  11.006   3.952  2.6472  1.6406 -0.2991
  417MOL0     H56283   4.181  10.812   3.890 -0.0406 -0.0919 -0.5824
  417MOL0     H56284   4.284  10.670   3.875 -1.7843  0.8506  1.9645
  417MOL0     H56285   4.370  10.798   3.663  0.0828  0.9574  1.2842
  417MOL0     H56286   4.225  10.894   3.674 -3.9517 -1.3649  0.2531
  417MOL0     H56287   4.241  10.592   3.625  0.4464 -0.2017 -0.4572
  417MOL0     H56288   4.193  10.715   3.504 -0.3400 -1.1689 -0.6020
  417MOL0     H56289   3.998  10.595   3.594 -1.4301  0.4238  0.4114
  417MOL0     H56290   4.043  10.628   3.751 -1.0323 -0.5247  0.2161
  417MOL0     H56291   3.877  11.002   3.672  0.3180 -0.8327  1.0989
  417MOL0     H56292   4.483  10.609   3.832  1.0664 -0.6238  1.3731
  417MOL0     H56293   4.718  10.490   3.754 -0.7204  0.4513  0.0584
  417MOL0     H56294   4.811  10.471   3.892 -0.9169 -0.1064  1.6943
  417MOL0     H56295   4.639  10.447   3.913  1.6711 -1.4318  2.2918
  418MOL0     O56296   9.388   7.097   8.859 -0.2837 -1.0888  0.0706
  418MOL0     C56297   9.341   6.990   8.833 -0.1139 -0.0311  0.4617
  418MOL0     O56298   9.409   6.890   8.761 -0.0476 -0.8275 -0.2867
  418MOL0     C56299   9.537   6.918   8.725 -0.0580  0.1087 -0.7159
  418MOL0     C56300   9.577   7.019   8.639 -0.6108  0.7072  0.2296
  418MOL0     C56301   9.718   7.040   8.625  0.2886  0.1703 -0.0149
  418MOL0     C56302   9.816   6.951   8.670 -0.6374  0.1293 -0.0781
  418MOL0     O56303   9.947   6.978   8.642 -0.0967 -0.5108 -0.1327
  418MOL0     C56304  10.051   6.892   8.698 -0.7591 -0.5160  0.4373
  418MOL0     C56305  10.184   6.963   8.663  0.7680 -0.5750 -0.7481
  418MOL0     C56306  10.294   6.861   8.691  0.0850  0.0347 -0.5161
  418MOL0     C56307  10.435   6.911   8.670 -0.1629 -0.2737 -0.1468
  418MOL0     C56308  10.553   6.837   8.734  0.9545  0.0449  0.1343
  418MOL0     C56309  10.686   6.890   8.670 -0.8183 -0.4704  0.1764
  418MOL0     C56310  10.806   6.818   8.726 -0.1201  0.4192  0.7080
  418MOL0     C56311  10.857   6.878   8.857 -0.1020 -0.7171  0.2581
  418MOL0     N56312  10.976   6.809   8.923  0.0794 -0.1238 -0.2981
  418MOL0     C56313  10.966   6.705   9.007  0.2329 -0.0354 -0.0944
  418MOL0     C56314  11.095   6.665   9.032  0.8872 -0.3623  0.1172
  418MOL0     C56315  11.132   6.542   9.107 -0.0433 -0.3439  0.1713
  418MOL0     C56316  11.052   6.420   9.066 -0.4198 -0.3479  0.2638
  418MOL0     C56317  11.035   6.310   9.166 -0.1278 -0.7469  0.3782
  418MOL0     C56318  11.180   6.262   9.207  0.6955  0.2955 -0.1096
  418MOL0     O56319  11.150   6.138   9.272 -0.1877  0.1914  0.4610
  418MOL0     C56320  11.260   6.064   9.312  0.0451  0.6159  0.0874
  418MOL0     C56321  11.397   6.102   9.315  1.4325 -0.5310 -0.4107
  418MOL0     C56322  11.493   6.016   9.372  0.1070 -0.5864 -0.0446
  418MOL0     C56323  11.459   5.888   9.413  0.2874 -1.0537 -0.0461
  418MOL0     C56324  11.545   5.788   9.474  0.1749 -0.3525 -0.8110
  418MOL0     O56325  11.682   5.824   9.481 -0.4121  0.2117 -0.2715
  418MOL0     C56326  11.779   5.732   9.503 -0.7109  0.0413  0.5659
  418MOL0     C56327  11.785   5.620   9.425  0.8657 -0.5086 -0.3091
  418MOL0     C56328  11.898   5.534   9.430  0.2016 -0.0707  0.7915
  418MOL0     C56329  11.999   5.551   9.526 -0.5961 -0.5782  0.8742
  418MOL0     O56330  12.108   5.465   9.521  0.5284  0.1142  0.3482
  418MOL0     C56331  12.193   5.455   9.639 -0.8758 -0.4464 -0.7544
  418MOL0     C56332  12.301   5.350   9.599 -0.4544  0.2174 -0.2518
  418MOL0     C56333  12.392   5.312   9.721 -0.6753  0.5769 -0.7407
  418MOL0     C56334  12.497   5.220   9.681 -0.3238  0.1950 -0.1756
  418MOL0     C56335  12.612   5.193   9.777 -0.2365 -0.3815 -1.0722
  418MOL0     C56336  12.722   5.114   9.706 -0.0118  0.7452  0.6924
  418MOL0     C56337  12.813   5.037   9.799  0.3069  0.1010  0.4199
  418MOL0     C56338  12.944   4.995   9.724 -0.0741 -0.3926 -0.0062
  418MOL0    Cl56339  13.049   5.127   9.712  0.1110  0.0060  0.1182
  418MOL0     C56340  11.983   5.661   9.608  0.2315  0.2219  0.1002
  418MOL0     C56341  11.877   5.751   9.603  0.4975  0.7041  0.6922
  418MOL0     O56342  11.505   5.680   9.512  0.0270 -0.1536 -0.2079
  418MOL0     C56343  11.323   5.856   9.423  0.1372  0.1584  0.2759
  418MOL0     C56344  11.225   5.940   9.367 -0.1379  0.2819 -0.7474
  418MOL0     N56345  11.180   6.751   8.977 -0.1828  0.7927  0.3267
  418MOL0     N56346  11.105   6.832   8.906 -0.2548 -0.0636 -0.3633
  418MOL0     C56347   9.771   6.841   8.736  0.6461 -0.1529  0.2579
  418MOL0     C56348   9.635   6.830   8.772  1.0451  0.0102  0.2634
  418MOL0     C56349   9.203   6.964   8.872  0.5614 -0.6393  0.4754
  418MOL0     C56350   9.126   7.083   8.873  0.7948 -0.2120  0.0973
  418MOL0     C56351   8.999   7.078   8.910  0.1935  0.9696 -0.4683
  418MOL0     C56352   8.937   6.957   8.935 -0.0536 -0.4665 -1.3823
  418MOL0     O56353   8.812   6.942   8.973  0.0605  0.2786 -0.2389
  418MOL0     C56354   8.716   7.006   8.886 -0.5987 -0.6257  0.0301
  418MOL0     C56355   8.703   6.944   8.753 -0.7633 -0.1237  0.0212
  418MOL0     C56356   8.588   7.012   8.671 -0.2674  0.6261 -0.6089
  418MOL0     C56357   8.555   6.935   8.535  0.4977 -0.0529 -0.7334
  418MOL0     C56358   8.526   6.795   8.556 -0.1652 -0.2197  0.8091
  418MOL0     C56359   8.505   6.681   8.583  0.3609  0.3050 -0.0962
  418MOL0     C56360   9.008   6.842   8.930  0.3452  0.4904 -0.1007
  418MOL0     C56361   9.151   6.841   8.910 -0.5270 -0.4516  0.1860
  418MOL0     C56362   9.234   6.713   8.915 -0.3565  0.5960  0.2975
  418MOL0     H56363   9.502   7.078   8.587 -0.7859 -0.2072 -0.6005
  418MOL0     H56364   9.759   7.125   8.571  2.0472 -1.9373 -2.2487
  418MOL0     H56365  10.041   6.884   8.807 -1.8075 -0.5016  0.3585
  418MOL0     H56366  10.049   6.798   8.641  0.5678 -0.2073 -0.1540
  418MOL0     H56367  10.192   7.055   8.721 -0.2287 -2.0650  1.9030
  418MOL0     H56368  10.193   6.994   8.558 -0.2878 -0.5279 -0.8372
  418MOL0     H56369  10.281   6.776   8.624 -0.1537  0.8406 -1.5240
  418MOL0     H56370  10.298   6.827   8.795 -0.8547  1.9231  0.1891
  418MOL0     H56371  10.445   6.923   8.562 -0.8438  1.8754 -0.0239
  418MOL0     H56372  10.438   7.017   8.695  3.1537 -0.2162 -0.3811
  418MOL0     H56373  10.545   6.854   8.842 -0.0879 -1.4744  0.3199
  418MOL0     H56374  10.536   6.732   8.711 -0.1003  0.2393 -0.0531
  418MOL0     H56375  10.688   6.898   8.561  2.8222  0.6198  0.1982
  418MOL0     H56376  10.697   6.993   8.704  0.9990 -0.7506  0.5269
  418MOL0     H56377  10.880   6.817   8.646 -2.1657 -0.4502 -1.3004
  418MOL0     H56378  10.787   6.712   8.744  1.7787 -0.6997 -3.0194
  418MOL0     H56379  10.874   6.986   8.851  0.0162 -0.5139  3.0957
  418MOL0     H56380  10.774   6.870   8.928  0.1210 -1.0506  0.4817
  418MOL0     H56381  10.875   6.671   9.056 -1.1810  2.6533 -0.6651
  418MOL0     H56382  11.239   6.521   9.105 -0.0416 -0.4244  0.9623
  418MOL0     H56383  11.103   6.572   9.208  3.2470 -0.5111  1.2820
  418MOL0     H56384  10.956   6.462   9.035 -0.3846 -0.7658 -0.4491
  418MOL0     H56385  11.094   6.380   8.973 -1.2195 -4.4679  1.4455
  418MOL0     H56386  10.968   6.233   9.126 -1.9403  0.4876  0.9003
  418MOL0     H56387  10.992   6.344   9.261  1.6535 -0.3338  1.0855
  418MOL0     H56388  11.229   6.331   9.276  2.0901  0.1284 -0.8968
  418MOL0     H56389  11.243   6.243   9.120 -0.6480 -3.0135 -0.5186
  418MOL0     H56390  11.438   6.191   9.269 -0.3142 -1.2198 -3.6029
  418MOL0     H56391  11.592   6.059   9.371  0.5017 -1.2431  3.1302
  418MOL0     H56392  11.704   5.611   9.353 -0.7870  2.3149  1.0312
  418MOL0     H56393  11.920   5.444   9.374  0.7035  1.1889 -1.1631
  418MOL0     H56394  12.242   5.547   9.670  1.7013 -0.4421 -4.2599
  418MOL0     H56395  12.123   5.436   9.722  2.4863  0.3514  2.5180
  418MOL0     H56396  12.247   5.263   9.561 -0.3187  0.0040  0.0386
  418MOL0     H56397  12.358   5.399   9.520  2.5505  0.6893  2.0462
  418MOL0     H56398  12.437   5.405   9.759 -1.8347 -0.1254  2.6913
  418MOL0     H56399  12.338   5.271   9.807  1.6475  1.3494  1.2126
  418MOL0     H56400  12.539   5.234   9.581 -1.3504 -1.6022 -0.9015
  418MOL0     H56401  12.443   5.126   9.667 -1.0549  0.8792 -2.4319
  418MOL0     H56402  12.578   5.133   9.863  2.6866 -1.0361 -0.2718
  418MOL0     H56403  12.649   5.285   9.823  0.8575 -1.6774  0.7869
  418MOL0     H56404  12.679   5.045   9.632  0.6968  0.2240  0.7503
  418MOL0     H56405  12.785   5.192   9.663 -1.0658  0.9916 -0.4400
  418MOL0     H56406  12.758   4.949   9.833 -0.2879  0.4773  0.4473
  418MOL0     H56407  12.843   5.103   9.880  3.4249  0.2291 -0.7134
  418MOL0     H56408  12.991   4.917   9.783  1.1402 -0.6425 -1.2422
  418MOL0     H56409  12.925   4.943   9.629  1.3737 -0.1897 -0.4357
  418MOL0     H56410  12.044   5.669   9.698  0.5740 -2.4025  0.1797
  418MOL0     H56411  11.865   5.836   9.670 -0.2282 -0.0042  1.4935
  418MOL0     H56412  11.298   5.761   9.472  1.5007 -0.2527  0.2148
  418MOL0     H56413  11.120   5.914   9.362 -0.0215 -0.2092 -0.6161
  418MOL0     H56414   9.840   6.775   8.788  0.6482 -0.9081 -0.6674
  418MOL0     H56415   9.599   6.747   8.833 -1.1423  1.2043  0.6988
  418MOL0     H56416   9.166   7.181   8.847 -0.5284  1.1645  2.8504
  418MOL0     H56417   8.938   7.167   8.916  0.8565  1.4163 -0.1139
  418MOL0     H56418   8.751   7.110   8.878  2.2461 -1.5318 -0.6607
  418MOL0     H56419   8.621   7.016   8.940 -0.3080 -0.4856  0.5265
  418MOL0     H56420   8.684   6.837   8.767 -0.9111  0.0934  1.6742
  418MOL0     H56421   8.796   6.959   8.697  0.3482  1.8929  2.2340
  418MOL0     H56422   8.618   7.110   8.633  1.4781  0.9890  1.5328
  418MOL0     H56423   8.498   7.021   8.734 -0.4037  1.3592 -0.8905
  418MOL0     H56424   8.462   6.981   8.498 -0.2366  2.2160  3.2819
  418MOL0     H56425   8.639   6.948   8.466  1.0616 -1.4076 -0.3371
  418MOL0     H56426   8.502   6.579   8.617 -0.0124  0.6533  0.9582
  418MOL0     H56427   8.957   6.749   8.955 -1.6328  2.1948  2.7221
  418MOL0     H56428   9.256   6.672   8.816 -1.4228 -1.6209  0.8979
  418MOL0     H56429   9.329   6.738   8.963  0.0536  1.0262 -0.7009
  418MOL0     H56430   9.179   6.632   8.964  2.8231 -1.5778  0.5384
  419MOL0     O56431   9.126   4.326  11.106  0.1958 -0.1722  0.0566
  419MOL0     C56432   9.010   4.366  11.075  0.0148 -0.2848 -0.6366
  419MOL0     O56433   8.961   4.489  11.098  0.2793 -0.9051 -0.4774
  419MOL0     C56434   9.036   4.602  11.087 -0.0615 -0.7899 -0.8585
  419MOL0     C56435   8.974   4.719  11.121 -0.3560 -0.0684  0.0079
  419MOL0     C56436   9.039   4.841  11.114 -0.0612  0.3934 -0.0306
  419MOL0     C56437   9.165   4.856  11.072  1.0354 -0.5443  0.2446
  419MOL0     O56438   9.229   4.982  11.074  0.3111 -0.0970  0.5737
  419MOL0     C56439   9.335   4.986  11.167  0.6243 -0.1462 -1.1992
  419MOL0     C56440   9.369   5.134  11.182  0.4894 -0.3146  0.0655
  419MOL0     C56441   9.253   5.227  11.222 -0.1595 -0.7225 -0.3289
  419MOL0     C56442   9.303   5.377  11.207 -0.1386 -0.0343 -0.2127
  419MOL0     C56443   9.385   5.422  11.328 -0.0068  0.5334  0.7365
  419MOL0     C56444   9.454   5.554  11.305 -0.6503 -0.7987  0.0110
  419MOL0     C56445   9.537   5.607  11.430 -0.1639 -0.0754  0.2369
  419MOL0     C56446   9.648   5.513  11.469 -0.2269  0.1727  1.1279
  419MOL0     N56447   9.745   5.509  11.359 -0.6456  0.4501  0.4407
  419MOL0     C56448   9.813   5.617  11.304  0.5879 -0.2693 -0.8134
  419MOL0     C56449   9.869   5.572  11.185 -0.0070  0.0225  0.4946
  419MOL0     C56450   9.947   5.656  11.087  0.0342 -0.1960 -0.6176
  419MOL0     C56451  10.101   5.628  11.110  0.2224 -0.8147 -0.8369
  419MOL0     C56452  10.179   5.665  10.986 -0.8700  0.0804 -0.4102
  419MOL0     C56453  10.324   5.677  11.018 -0.2721 -0.6786  0.3162
  419MOL0     O56454  10.386   5.552  11.048 -0.5006 -0.1971 -0.0595
  419MOL0     C56455  10.526   5.551  11.046  0.6561 -0.2242 -0.8150
  419MOL0     C56456  10.599   5.661  11.092 -0.7521 -0.0786  0.3615
  419MOL0     C56457  10.745   5.662  11.100 -0.3273  0.1919  0.3183
  419MOL0     C56458  10.819   5.542  11.060 -0.5370 -1.1209 -0.4543
  419MOL0     C56459  10.966   5.544  11.074  0.5227 -0.3315 -0.2111
  419MOL0     O56460  11.029   5.424  11.042  0.0396  0.4274  0.6299
  419MOL0     C56461  11.164   5.435  11.038 -0.7610  0.1791 -0.1746
  419MOL0     C56462  11.232   5.492  10.928  0.6231 -0.2824  0.0429
  419MOL0     C56463  11.363   5.525  10.941 -0.2508  0.8604  0.6105
  419MOL0     C56464  11.436   5.501  11.055 -0.5279 -0.3410 -0.1582
  419MOL0     O56465  11.567   5.530  11.057 -0.4325  0.0424  0.2849
  419MOL0     C56466  11.623   5.604  11.166 -1.0717  0.5072 -0.6012
  419MOL0     C56467  11.774   5.615  11.131 -0.0958  0.1604 -0.1527
  419MOL0     C56468  11.842   5.484  11.158  1.0756  0.4904  0.4168
  419MOL0     C56469  11.989   5.497  11.190 -0.3984  0.4289 -0.1363
  419MOL0     C56470  12.068   5.359  11.223 -0.3490  0.4231  0.4069
  419MOL0     C56471  12.009   5.261  11.330 -0.0079  0.1256 -0.1832
  419MOL0     C56472  12.096   5.140  11.362  0.0703  0.2454 -0.5476
  419MOL0     C56473  12.247   5.169  11.394 -0.0060 -0.0971 -0.1993
  419MOL0    Cl56474  12.289   5.301  11.521  0.3597  0.3030  0.3290
  419MOL0     C56475  11.373   5.436  11.165 -0.2925 -0.2682  0.2263
  419MOL0     C56476  11.234   5.403  11.156 -0.0686 -0.1405  0.2023
  419MOL0     O56477  11.025   5.645  11.110  0.5980 -0.3152 -0.5762
  419MOL0     C56478  10.744   5.426  11.027  0.5280  0.6510  0.1919
  419MOL0     C56479  10.605   5.436  11.019  0.4709  0.5181  0.3200
  419MOL0     N56480   9.851   5.438  11.182 -0.1987 -0.3141  0.3015
  419MOL0     N56481   9.780   5.398  11.284  0.5835  0.3521 -0.9558
  419MOL0     C56482   9.235   4.739  11.037  0.9100 -0.2744  0.3889
  419MOL0     C56483   9.167   4.609  11.042 -0.7304 -0.3159  0.2993
  419MOL0     C56484   8.909   4.254  11.055 -0.2946 -0.5380  0.4537
  419MOL0     C56485   8.776   4.294  11.036  0.2321 -0.1878 -1.1522
  419MOL0     C56486   8.671   4.211  10.996 -0.1798 -0.3755  0.2040
  419MOL0     C56487   8.707   4.076  10.972 -0.6171  0.0390 -0.1808
  419MOL0     O56488   8.616   3.980  10.943 -0.4666  0.5634 -0.0231
  419MOL0     C56489   8.481   4.021  10.932 -0.5599  0.6290  0.5694
  419MOL0     C56490   8.397   3.891  10.905 -0.1783  0.1505 -0.0087
  419MOL0     C56491   8.250   3.904  10.896  0.6094 -1.2088  1.2226
  419MOL0     C56492   8.189   3.919  10.761  0.1353  0.2729  0.7215
  419MOL0     C56493   8.045   3.931  10.771  0.5003  0.4318  0.4636
  419MOL0     C56494   7.925   3.948  10.765 -0.4046  0.4903  0.4467
  419MOL0     C56495   8.841   4.028  10.992  0.3282 -0.3577  0.8374
  419MOL0     C56496   8.941   4.115  11.033 -0.2118 -0.5391  0.8292
  419MOL0     C56497   9.077   4.056  11.067  0.6043 -0.0858 -0.6946
  419MOL0     H56498   8.878   4.708  11.170  0.3102 -1.7840  1.0468
  419MOL0     H56499   8.976   4.926  11.137 -2.3318 -1.1471 -0.1948
  419MOL0     H56500   9.315   4.951  11.269  2.4841  0.3699 -0.6231
  419MOL0     H56501   9.417   4.928  11.124  0.6519  0.0138 -1.3566
  419MOL0     H56502   9.408   5.169  11.086 -0.1412  1.3765  0.3849
  419MOL0     H56503   9.440   5.146  11.265  2.7589  1.5555 -1.9862
  419MOL0     H56504   9.228   5.204  11.326 -0.0561  0.9085  0.0880
  419MOL0     H56505   9.161   5.216  11.164 -1.0962  1.2747  0.6772
  419MOL0     H56506   9.355   5.386  11.111 -0.2862 -2.1522 -0.5586
  419MOL0     H56507   9.213   5.438  11.197  0.8752  1.9827  2.1117
  419MOL0     H56508   9.321   5.410  11.416 -2.3171 -0.1134 -0.9134
  419MOL0     H56509   9.469   5.353  11.338 -1.4877 -1.5362 -0.3503
  419MOL0     H56510   9.510   5.545  11.211  0.0104  1.3620  0.1369
  419MOL0     H56511   9.385   5.636  11.282 -0.2301 -0.6552 -0.7842
  419MOL0     H56512   9.469   5.615  11.516  1.2756 -1.8191  1.6139
  419MOL0     H56513   9.575   5.708  11.411 -1.3142  0.2142 -0.5918
  419MOL0     H56514   9.701   5.551  11.557  2.1163 -2.5145  1.0208
  419MOL0     H56515   9.617   5.411  11.495  0.0279 -1.0822 -2.8369
  419MOL0     H56516   9.806   5.720  11.336 -2.1847 -0.7315  0.3820
  419MOL0     H56517   9.913   5.617  10.990 -2.1818 -1.0906  0.4621
  419MOL0     H56518   9.914   5.758  11.107  0.9286 -0.4899  3.0639
  419MOL0     H56519  10.139   5.686  11.195 -1.6163 -2.2805  1.0679
  419MOL0     H56520  10.120   5.523  11.133  1.5547 -0.0324  2.1303
  419MOL0     H56521  10.143   5.765  10.961  0.9226  0.8748  0.0724
  419MOL0     H56522  10.158   5.589  10.910  0.5799  2.2106 -3.0942
  419MOL0     H56523  10.328   5.746  11.104 -0.5510  0.1705 -0.3360
  419MOL0     H56524  10.374   5.716  10.929 -1.4578 -2.6489 -1.2810
  419MOL0     H56525  10.553   5.754  11.124 -0.1389  1.5236 -3.0067
  419MOL0     H56526  10.800   5.749  11.135 -0.2145  1.1268 -1.9470
  419MOL0     H56527  11.195   5.522  10.831  4.2859  0.9060 -1.1645
  419MOL0     H56528  11.417   5.549  10.850  0.0026 -0.5941  0.3568
  419MOL0     H56529  11.584   5.706  11.156 -2.1918  0.1227 -0.2692
  419MOL0     H56530  11.612   5.556  11.264  2.4228  1.0074  0.1745
  419MOL0     H56531  11.794   5.657  11.033  2.1418 -1.2808 -0.3776
  419MOL0     H56532  11.807   5.693  11.200 -3.3648  0.8347  0.8521
  419MOL0     H56533  11.791   5.438  11.243 -0.1852 -0.1882 -0.6706
  419MOL0     H56534  11.829   5.411  11.077 -1.5085  0.3661  0.8536
  419MOL0     H56535  11.991   5.555  11.283 -2.7780 -3.0369  2.3404
  419MOL0     H56536  12.039   5.553  11.111  1.8854 -0.6828  0.4328
  419MOL0     H56537  12.169   5.382  11.258 -0.9038 -0.0161  2.4336
  419MOL0     H56538  12.073   5.303  11.129 -4.7298 -0.9424  0.7678
  419MOL0     H56539  12.001   5.322  11.420 -0.8089  0.2048 -0.3025
  419MOL0     H56540  11.907   5.236  11.302  0.5772 -1.1521 -1.3417
  419MOL0     H56541  12.077   5.066  11.284 -4.9724  1.3971 -0.7591
  419MOL0     H56542  12.044   5.094  11.447  2.2366 -1.2421  0.0737
  419MOL0     H56543  12.298   5.081  11.434 -1.2761 -0.8679 -0.2177
  419MOL0     H56544  12.291   5.195  11.298 -0.0713 -2.3320 -0.8832
  419MOL0     H56545  11.424   5.400  11.254 -0.9956 -2.2241 -0.1160
  419MOL0     H56546  11.186   5.352  11.239  2.5561 -0.1875  1.8243
  419MOL0     H56547  10.793   5.332  11.004  2.2017  1.4108  0.4886
  419MOL0     H56548  10.531   5.362  10.989 -0.1865  1.8228 -1.4572
  419MOL0     H56549   9.335   4.748  10.996 -0.0719  3.3930 -1.6308
  419MOL0     H56550   9.225   4.522  11.016  0.7233  0.6816  0.0629
  419MOL0     H56551   8.748   4.398  11.047 -0.7622 -0.5068 -0.5148
  419MOL0     H56552   8.572   4.251  10.981 -0.2632 -0.4761  0.4924
  419MOL0     H56553   8.468   4.093  10.852 -0.2641  1.1561  0.9846
  419MOL0     H56554   8.451   4.076  11.021  0.8808  2.4409 -0.0042
  419MOL0     H56555   8.414   3.828  10.992  0.1729 -1.4997 -1.2121
  419MOL0     H56556   8.433   3.828  10.822  1.0284 -1.2720  1.5285
  419MOL0     H56557   8.217   3.984  10.963  1.0577 -0.5045  0.6179
  419MOL0     H56558   8.207   3.819  10.948 -0.5810 -1.0677  0.5129
  419MOL0     H56559   8.220   4.008  10.706  0.5909 -0.6172 -0.4962
  419MOL0     H56560   8.212   3.829  10.704 -2.1042  0.0799  0.0356
  419MOL0     H56561   7.822   3.977  10.765 -0.4208  0.5562 -1.4365
  419MOL0     H56562   8.854   3.923  10.966  0.5297 -0.3438  0.8796
  419MOL0     H56563   9.072   3.955  11.026  1.6797  0.1431 -1.4338
  419MOL0     H56564   9.164   4.103  11.019  0.5849 -1.4098 -2.0935
  419MOL0     H56565   9.087   4.061  11.176 -2.2425  2.2881 -0.4112
  420MOL0     O56566   1.365   6.283   4.389  0.3494 -0.2075  0.5378
  420MOL0     C56567   1.354   6.393   4.342 -0.3399 -0.4016 -0.1666
  420MOL0     O56568   1.446   6.493   4.350 -0.2264 -0.2061  0.1437
  420MOL0     C56569   1.577   6.474   4.388 -0.0251  1.3552 -0.1694
  420MOL0     C56570   1.642   6.574   4.466  0.3972  0.5687  0.5151
  420MOL0     C56571   1.774   6.571   4.502 -0.1459  0.3266 -0.2328
  420MOL0     C56572   1.858   6.471   4.441  0.4645 -0.4466 -0.4150
  420MOL0     O56573   2.000   6.475   4.439 -0.1576  0.0817  0.1366
  420MOL0     C56574   2.085   6.594   4.465  0.0909 -0.8829  0.5024
  420MOL0     C56575   2.232   6.551   4.453 -0.9800  0.6087 -0.1509
  420MOL0     C56576   2.314   6.681   4.485  0.9315  0.5718  0.2593
  420MOL0     C56577   2.453   6.670   4.421 -0.1650  0.6782  0.3723
  420MOL0     C56578   2.552   6.769   4.497  0.7961  0.0122 -0.7603
  420MOL0     C56579   2.677   6.801   4.410  0.2764 -0.8847  0.0624
  420MOL0     C56580   2.764   6.908   4.476 -0.1083  0.1480  0.7579
  420MOL0     C56581   2.897   6.944   4.407  0.3971 -0.6075 -0.0983
  420MOL0     N56582   2.872   7.000   4.271  0.6452 -0.1946  0.2222
  420MOL0     C56583   2.813   7.116   4.230 -0.9640  0.3170  0.0464
  420MOL0     C56584   2.823   7.111   4.093 -0.4114  0.8142 -0.4705
  420MOL0     C56585   2.777   7.206   3.996 -0.7483  0.4467  0.4865
  420MOL0     C56586   2.630   7.213   3.991  0.0239  0.5326 -0.3398
  420MOL0     C56587   2.573   7.082   3.923  0.1616  0.6506  0.4032
  420MOL0     C56588   2.570   6.952   4.000  0.4436 -0.1628 -0.0465
  420MOL0     O56589   2.499   6.976   4.128  0.1796  0.3379 -0.1967
  420MOL0     C56590   2.359   6.973   4.138  0.9192  0.4932 -0.1485
  420MOL0     C56591   2.273   6.944   4.034 -0.1778  0.6868 -0.1854
  420MOL0     C56592   2.136   6.927   4.061  0.1127 -0.7299  0.5659
  420MOL0     C56593   2.083   6.953   4.191 -1.0213 -0.0189 -0.0762
  420MOL0     C56594   1.940   6.963   4.209  0.0012 -0.3646 -0.0350
  420MOL0     O56595   1.870   6.916   4.102  0.0577 -0.1819  0.4896
  420MOL0     C56596   1.736   6.947   4.094  0.2763 -0.2669 -0.2633
  420MOL0     C56597   1.688   7.033   3.993 -0.2151  0.2477 -0.2391
  420MOL0     C56598   1.554   7.064   3.982  0.7593  0.7632  0.6387
  420MOL0     C56599   1.461   7.007   4.066 -0.0698  0.0764  0.8633
  420MOL0     O56600   1.329   7.038   4.071  0.2605  0.1841 -0.7637
  420MOL0     C56601   1.267   7.049   3.944  0.4079 -0.3706 -0.1341
  420MOL0     C56602   1.115   7.019   3.965 -0.1003 -0.5201  0.3797
  420MOL0     C56603   1.036   7.133   4.022  0.5498  0.7351 -0.4669
  420MOL0     C56604   0.883   7.102   4.003 -0.1001 -0.1568  0.8385
  420MOL0     C56605   0.794   7.211   4.073 -0.1586  0.6265  0.2736
  420MOL0     C56606   0.642   7.196   4.046  0.4098  0.7184 -0.0978
  420MOL0     C56607   0.550   7.267   4.140  0.1634  0.1667 -0.8735
  420MOL0     C56608   0.404   7.284   4.106  0.3169  0.1550 -0.0830
  420MOL0    Cl56609   0.301   7.335   4.259 -0.0696 -0.2234 -0.1999
  420MOL0     C56610   1.501   6.918   4.165 -0.4863  0.1374  0.7213
  420MOL0     C56611   1.637   6.891   4.182 -1.3269 -1.3617  0.4863
  420MOL0     O56612   1.889   7.019   4.310 -0.1278 -0.2856 -0.1742
  420MOL0     C56613   2.176   6.975   4.293  0.1248  0.6497  0.5160
  420MOL0     C56614   2.313   6.993   4.262 -0.5609  0.3101 -1.4269
  420MOL0     N56615   2.900   6.999   4.059  0.1640 -0.4396  0.8769
  420MOL0     N56616   2.922   6.935   4.163  0.2102 -0.0667  0.3852
  420MOL0     C56617   1.796   6.370   4.364 -0.3900  0.5225  0.2727
  420MOL0     C56618   1.661   6.369   4.342  0.6825 -0.4279 -0.1890
  420MOL0     C56619   1.237   6.410   4.245  0.3872 -0.0740  0.0429
  420MOL0     C56620   1.131   6.321   4.242  0.0150  0.0537 -0.0682
  420MOL0     C56621   1.012   6.332   4.168 -0.9094 -0.3612 -0.2967
  420MOL0     C56622   1.000   6.447   4.090  0.3887 -0.4306  0.5872
  420MOL0     O56623   0.900   6.470   3.996  0.7064 -0.4628  0.3650
  420MOL0     C56624   0.803   6.383   3.942  0.1595  0.1108  0.3330
  420MOL0     C56625   0.658   6.402   3.969 -0.1484  0.6338  0.6677
  420MOL0     C56626   0.619   6.404   4.112 -0.8975 -0.1486 -0.0387
  420MOL0     C56627   0.473   6.393   4.131  0.0694 -0.6572 -0.3150
  420MOL0     C56628   0.423   6.253   4.095 -0.1209 -0.2328  0.1351
  420MOL0     C56629   0.367   6.147   4.048  0.2290 -0.5919 -0.2083
  420MOL0     C56630   1.106   6.544   4.093 -0.4554 -0.3561  0.2560
  420MOL0     C56631   1.222   6.527   4.167 -0.0775 -0.0872 -0.0868
  420MOL0     C56632   1.326   6.639   4.140 -0.3257  0.6889 -0.3672
  420MOL0     H56633   1.592   6.661   4.508 -1.1624 -0.0745  0.0552
  420MOL0     H56634   1.817   6.655   4.556  2.7124 -0.4104 -1.1470
  420MOL0     H56635   2.066   6.669   4.388  0.0491 -1.3413  0.0633
  420MOL0     H56636   2.061   6.639   4.562  0.1113 -0.3791  0.2755
  420MOL0     H56637   2.245   6.510   4.352 -0.2621 -3.4127  1.3921
  420MOL0     H56638   2.253   6.480   4.533 -0.5142 -0.9195 -1.5604
  420MOL0     H56639   2.312   6.692   4.594 -0.8377  0.8703  0.2179
  420MOL0     H56640   2.263   6.771   4.450 -0.0813 -1.3377 -3.6950
  420MOL0     H56641   2.496   6.570   4.409 -0.7200  0.6719 -2.1174
  420MOL0     H56642   2.457   6.698   4.315  2.4270 -2.0446 -0.4006
  420MOL0     H56643   2.503   6.866   4.503  0.6608  0.0011 -1.5664
  420MOL0     H56644   2.580   6.739   4.598 -3.2829 -2.0790 -0.0554
  420MOL0     H56645   2.727   6.706   4.388 -1.1678 -1.4438 -1.0331
  420MOL0     H56646   2.638   6.841   4.315  0.3375 -1.0642 -0.0401
  420MOL0     H56647   2.794   6.879   4.577  1.5509 -3.6436 -0.6403
  420MOL0     H56648   2.697   6.995   4.486 -0.7679 -0.0407 -1.3332
  420MOL0     H56649   2.950   7.011   4.476 -1.1385  1.8687 -1.2027
  420MOL0     H56650   2.960   6.856   4.390 -0.4198 -0.6924 -3.3684
  420MOL0     H56651   2.769   7.193   4.293 -1.6784 -0.1963  0.1925
  420MOL0     H56652   2.811   7.301   4.039  0.3259  0.5900 -0.6137
  420MOL0     H56653   2.819   7.184   3.897  0.4205  1.0710  0.8273
  420MOL0     H56654   2.591   7.222   4.093  1.0804 -0.1537  0.1485
  420MOL0     H56655   2.613   7.298   3.924 -3.9534 -0.6483 -1.0420
  420MOL0     H56656   2.641   7.076   3.837  1.5164 -0.5248  1.5253
  420MOL0     H56657   2.472   7.097   3.883  1.3870  1.3210 -2.7970
  420MOL0     H56658   2.672   6.918   4.020  1.3279  0.9790 -2.2744
  420MOL0     H56659   2.523   6.874   3.940 -0.7090  2.0633 -2.2441
  420MOL0     H56660   2.313   6.921   3.935 -1.2066  0.7196 -0.6215
  420MOL0     H56661   2.071   6.909   3.976 -0.5498  1.0064  0.6682
  420MOL0     H56662   1.763   7.075   3.927  1.6661 -1.7477  0.5351
  420MOL0     H56663   1.529   7.128   3.898  0.8546  0.2768  0.2382
  420MOL0     H56664   1.282   7.148   3.899  0.9083  0.6832  2.2126
  420MOL0     H56665   1.310   6.969   3.883 -1.0068 -1.3821  0.1406
  420MOL0     H56666   1.064   7.011   3.869 -0.5838 -0.1536  0.6041
  420MOL0     H56667   1.096   6.929   4.024 -2.5721 -1.1780 -1.2550
  420MOL0     H56668   1.066   7.149   4.126 -1.1607  0.0872  0.1541
  420MOL0     H56669   1.046   7.231   3.973 -0.2564  0.1474 -1.8745
  420MOL0     H56670   0.843   7.008   4.043 -3.7232  1.5474  1.6248
  420MOL0     H56671   0.858   7.098   3.897  0.7723  0.5792  0.5928
  420MOL0     H56672   0.814   7.309   4.028 -0.4535  0.3597 -0.4526
  420MOL0     H56673   0.811   7.216   4.181 -1.3663 -0.2401  0.5177
  420MOL0     H56674   0.616   7.220   3.942  0.8896 -2.2661 -1.0003
  420MOL0     H56675   0.615   7.091   4.057 -0.4373  0.8620 -0.6970
  420MOL0     H56676   0.587   7.370   4.144 -1.3704  0.7223  0.1789
  420MOL0     H56677   0.557   7.216   4.237  2.0787 -2.5577 -2.3365
  420MOL0     H56678   0.390   7.358   4.027 -1.6248 -0.6818 -0.6106
  420MOL0     H56679   0.368   7.189   4.065  0.1793  0.0062  0.3758
  420MOL0     H56680   1.431   6.879   4.238  1.3367  0.3059  2.6587
  420MOL0     H56681   1.683   6.834   4.262 -1.6111  1.2959  2.6583
  420MOL0     H56682   2.135   6.997   4.391  0.1683  3.5438 -0.0138
  420MOL0     H56683   2.382   7.011   4.343 -0.7964 -0.3189 -1.0788
  420MOL0     H56684   1.863   6.294   4.326 -0.1621 -0.1269  1.9165
  420MOL0     H56685   1.631   6.287   4.279  0.0953 -2.4103  2.4716
  420MOL0     H56686   1.125   6.237   4.311 -0.4989  0.5297  0.4820
  420MOL0     H56687   0.946   6.245   4.171  2.0866 -2.7686  1.2837
  420MOL0     H56688   0.825   6.283   3.979  1.1937  0.3073  0.2761
  420MOL0     H56689   0.811   6.386   3.832 -2.1631 -5.8200 -0.3920
  420MOL0     H56690   0.604   6.319   3.921  2.0464 -1.5692  1.7641
  420MOL0     H56691   0.621   6.497   3.931  0.5227  1.3875  1.8350
  420MOL0     H56692   0.654   6.502   4.147 -3.7123  0.3560  1.6847
  420MOL0     H56693   0.680   6.334   4.169  1.0805  1.0368 -0.5537
  420MOL0     H56694   0.459   6.412   4.238  1.8133 -2.4517  0.2962
  420MOL0     H56695   0.435   6.477   4.072 -0.5408 -1.7105 -1.4602
  420MOL0     H56696   0.326   6.059   4.004 -2.5783  0.9064 -0.8527
  420MOL0     H56697   1.086   6.629   4.030 -0.7081 -2.4853 -2.7521
  420MOL0     H56698   1.284   6.696   4.057 -1.3134  2.8964  1.5451
  420MOL0     H56699   1.326   6.698   4.232 -2.2220 -1.3272  1.0252
  420MOL0     H56700   1.422   6.592   4.116  0.2596  1.8883 -0.4132
  421MOL0     O56701   0.125  11.039   5.266 -0.0616 -0.4673  0.0821
  421MOL0     C56702   0.065  11.137   5.216  0.9346 -0.4230 -0.6508
  421MOL0     O56703   0.124  11.227   5.132  0.5426 -0.0582 -0.7719
  421MOL0     C56704   0.251  11.213   5.093 -0.9601 -0.1430  0.4896
  421MOL0     C56705   0.350  11.115   5.099 -0.0026  0.1077  0.0029
  421MOL0     C56706   0.473  11.123   5.030  0.0514 -0.3325 -0.8512
  421MOL0     C56707   0.510  11.233   4.963 -0.2819  0.5463  0.0357
  421MOL0     O56708   0.635  11.252   4.904  0.6911 -0.4221  0.7006
  421MOL0     C56709   0.674  11.142   4.826 -0.1893  0.6698 -0.4202
  421MOL0     C56710   0.782  11.188   4.736 -0.1392 -0.3699  0.5469
  421MOL0     C56711   0.914  11.158   4.810  0.2127 -0.6011 -0.5116
  421MOL0     C56712   1.028  11.211   4.724 -0.3867  0.1761  0.0850
  421MOL0     C56713   1.159  11.192   4.794 -1.0343  0.1710  0.0418
  421MOL0     C56714   1.271  11.275   4.729  0.9183  0.6708  1.1009
  421MOL0     C56715   1.415  11.237   4.772  0.3236  0.9750 -0.6926
  421MOL0     C56716   1.504  11.345   4.723 -0.6533  0.0003 -0.0085
  421MOL0     N56717   1.639  11.334   4.773  0.5939 -0.2308 -0.6643
  421MOL0     C56718   1.724  11.220   4.755  0.9702  0.1719 -0.0088
  421MOL0     C56719   1.836  11.249   4.820  0.6988 -0.1783 -0.4609
  421MOL0     C56720   1.948  11.152   4.814 -0.5810  0.2910  0.6178
  421MOL0     C56721   2.025  11.152   4.685  0.2473 -0.1317 -0.6206
  421MOL0     C56722   2.154  11.087   4.713  0.0721 -0.0332  0.2896
  421MOL0     C56723   2.243  11.072   4.592  0.1405 -0.2241  0.4003
  421MOL0     O56724   2.270  11.202   4.538 -0.3653 -0.0306  0.7746
  421MOL0     C56725   2.359  11.208   4.437  0.1186  0.7201 -0.5402
  421MOL0     C56726   2.434  11.097   4.377 -0.4368 -0.4014  0.1841
  421MOL0     C56727   2.521  11.127   4.268  0.6447 -0.1273  0.0566
  421MOL0     C56728   2.547  11.250   4.215  0.1148 -0.2744  0.7706
  421MOL0     C56729   2.628  11.270   4.095  0.6190  0.6456  0.3531
  421MOL0     O56730   2.718  11.172   4.064 -0.1825  0.4475 -0.4752
  421MOL0     C56731   2.809  11.202   3.958 -0.0584 -0.1354 -0.2390
  421MOL0     C56732   2.935  11.251   3.993 -0.3072  0.1199 -0.0368
  421MOL0     C56733   3.029  11.293   3.897  0.3900  0.8252 -0.2407
  421MOL0     C56734   2.993  11.288   3.766 -0.0625  0.0283  0.0690
  421MOL0     O56735   3.082  11.339   3.680 -0.2304 -0.0052 -0.0254
  421MOL0     C56736   3.055  11.344   3.538 -0.6277  0.6036 -0.5619
  421MOL0     C56737   3.160  11.414   3.452 -0.4149  1.2526  0.0722
  421MOL0     C56738   3.297  11.353   3.468 -0.0005 -0.2355  0.2976
  421MOL0     C56739   3.312  11.216   3.402 -0.8108 -0.4174 -0.2172
  421MOL0     C56740   3.456  11.162   3.397  0.2544  0.0600  0.4153
  421MOL0     C56741   3.461  11.048   3.291  1.0482 -0.4820  0.4666
  421MOL0     C56742   3.600  10.991   3.259  0.6862 -0.3337  0.0571
  421MOL0     C56743   3.670  10.918   3.370  0.3856 -0.1606 -0.7829
  421MOL0    Cl56744   3.613  10.748   3.388 -0.3841  0.3158  0.3617
  421MOL0     C56745   2.867  11.239   3.724  0.1045  0.0155 -0.7069
  421MOL0     C56746   2.782  11.192   3.827  0.1965 -0.5703 -0.1970
  421MOL0     O56747   2.620  11.381   4.043 -0.1492 -0.1894 -0.7079
  421MOL0     C56748   2.472  11.352   4.276 -0.6397  0.1925  0.3798
  421MOL0     C56749   2.389  11.329   4.385  0.6286  0.4484  0.2913
  421MOL0     N56750   1.822  11.375   4.872  0.6131  0.5632  0.3401
  421MOL0     N56751   1.707  11.424   4.849 -0.3623 -0.4480  0.4518
  421MOL0     C56752   0.413  11.338   4.959  0.5525 -0.0182  0.1226
  421MOL0     C56753   0.284  11.323   5.018  0.3208 -1.6164  0.5803
  421MOL0     C56754  -0.073  11.147   5.278 -0.8265  0.0109  0.2180
  421MOL0     C56755  -0.088  11.109   5.409 -0.9096 -0.3469 -0.7698
  421MOL0     C56756  -0.211  11.108   5.468  0.6947 -0.1078  0.8390
  421MOL0     C56757  -0.322  11.153   5.395 -0.2396 -0.1700  0.7300
  421MOL0     O56758  -0.453  11.170   5.443  0.2812 -0.5350  0.3221
  421MOL0     C56759  -0.483  11.118   5.576 -0.7169 -0.9027  0.5278
  421MOL0     C56760  -0.619  11.175   5.623  0.2935  0.1989  0.5737
  421MOL0     C56761  -0.742  11.132   5.550 -0.2978 -0.1783  1.2673
  421MOL0     C56762  -0.880  11.128   5.624 -0.3918 -0.1946  0.7130
  421MOL0     C56763  -0.928  11.252   5.682 -0.1388  0.6474 -0.4064
  421MOL0     C56764  -0.971  11.356   5.731 -0.4082  0.0013 -0.1948
  421MOL0     C56765  -0.302  11.184   5.262  0.6712  0.0328 -0.0693
  421MOL0     C56766  -0.183  11.187   5.204 -0.0271 -0.2014 -0.2929
  421MOL0     C56767  -0.175  11.241   5.069 -0.3875  0.1094  0.5074
  421MOL0     H56768   0.328  11.023   5.151 -0.0942 -0.2295 -0.6197
  421MOL0     H56769   0.543  11.040   5.036 -0.8480 -0.9811  2.4850
  421MOL0     H56770   0.706  11.053   4.880  0.8988  0.0196 -2.0560
  421MOL0     H56771   0.579  11.113   4.780 -0.1138  0.1840 -0.2766
  421MOL0     H56772   0.771  11.296   4.720 -1.3410 -0.6379 -0.5347
  421MOL0     H56773   0.769  11.135   4.641 -0.2353 -0.5397  0.6535
  421MOL0     H56774   0.920  11.050   4.824 -3.4252 -1.0240 -1.1396
  421MOL0     H56775   0.916  11.201   4.911  2.2649  0.6272 -1.0056
  421MOL0     H56776   1.027  11.152   4.632 -1.1872 -0.8529  0.7172
  421MOL0     H56777   1.017  11.317   4.698  1.8144  0.4221  0.0030
  421MOL0     H56778   1.152  11.221   4.899  0.9798 -1.2883  0.6387
  421MOL0     H56779   1.185  11.086   4.787 -2.3369 -0.0653 -3.6243
  421MOL0     H56780   1.260  11.255   4.622  0.2014 -0.1448  1.3114
  421MOL0     H56781   1.250  11.377   4.761  1.2318  0.3942  2.2189
  421MOL0     H56782   1.443  11.140   4.728 -0.1311  1.0687 -1.2006
  421MOL0     H56783   1.425  11.229   4.881  1.3185  1.2807 -0.7563
  421MOL0     H56784   1.512  11.341   4.614  0.8275 -0.6177  0.0902
  421MOL0     H56785   1.467  11.438   4.765 -0.1328 -0.1786  0.8701
  421MOL0     H56786   1.699  11.131   4.697 -1.4153  0.5877  0.2900
  421MOL0     H56787   2.011  11.172   4.901  1.7728  2.0226 -1.3574
  421MOL0     H56788   1.925  11.046   4.826  2.6838 -0.6177 -0.3710
  421MOL0     H56789   1.964  11.094   4.615 -2.0469  0.3963  0.8303
  421MOL0     H56790   2.036  11.246   4.630  0.4240 -0.4493 -1.1361
  421MOL0     H56791   2.138  10.985   4.751 -3.0782  0.1424 -0.2784
  421MOL0     H56792   2.214  11.150   4.779  0.7007 -1.8090  1.5018
  421MOL0     H56793   2.182  11.020   4.518 -0.1598  2.9432 -1.8148
  421MOL0     H56794   2.334  11.018   4.618  0.3735 -0.4949 -0.8903
  421MOL0     H56795   2.429  10.994   4.411  1.0766 -1.2266 -1.8860
  421MOL0     H56796   2.588  11.048   4.236 -1.4794 -2.3694  0.7627
  421MOL0     H56797   2.984  11.259   4.090  0.6323 -1.2189 -0.3803
  421MOL0     H56798   3.132  11.318   3.921  1.0125 -1.2506 -0.5361
  421MOL0     H56799   3.044  11.245   3.494 -0.0711 -1.3788  3.3277
  421MOL0     H56800   2.969  11.408   3.515 -1.0363  0.0667 -0.5407
  421MOL0     H56801   3.136  11.418   3.346  0.3419  1.3678 -0.1050
  421MOL0     H56802   3.180  11.517   3.484  3.6793  0.4123  0.8337
  421MOL0     H56803   3.366  11.425   3.423 -0.2692 -1.4002 -2.1171
  421MOL0     H56804   3.316  11.342   3.575 -0.6573  0.6504  0.5158
  421MOL0     H56805   3.279  11.226   3.298  0.6612 -1.6819 -0.8441
  421MOL0     H56806   3.255  11.137   3.451 -1.0698  0.2372  0.5544
  421MOL0     H56807   3.485  11.127   3.496 -0.9885  2.2110  1.6076
  421MOL0     H56808   3.512  11.253   3.376 -0.6307  1.1898  2.5938
  421MOL0     H56809   3.405  10.961   3.327 -0.4395  0.2930  0.1180
  421MOL0     H56810   3.407  11.078   3.200 -0.4563 -2.2922  0.6942
  421MOL0     H56811   3.669  11.068   3.224 -1.0146  0.8864 -0.7159
  421MOL0     H56812   3.591  10.915   3.181 -0.5414  2.5053 -2.7859
  421MOL0     H56813   3.777  10.931   3.355  0.0630  3.6688 -0.6286
  421MOL0     H56814   3.644  10.974   3.460  0.7421 -3.1511  1.3199
  421MOL0     H56815   2.835  11.236   3.620 -1.9728 -1.1578 -0.0822
  421MOL0     H56816   2.680  11.157   3.811  0.0605 -0.1844 -0.1796
  421MOL0     H56817   2.477  11.451   4.232 -2.8220 -0.9277 -2.7180
  421MOL0     H56818   2.343  11.413   4.436  1.0311  0.1189  1.2324
  421MOL0     H56819   0.435  11.434   4.912  1.9815  0.0585  0.8850
  421MOL0     H56820   0.205  11.395   4.998  2.1965 -0.0294 -1.5442
  421MOL0     H56821  -0.004  11.067   5.463 -1.9014 -0.9777  0.3448
  421MOL0     H56822  -0.232  11.078   5.570 -0.5904  3.3786  1.7749
  421MOL0     H56823  -0.412  11.166   5.643  0.1445  2.3070 -2.3609
  421MOL0     H56824  -0.475  11.009   5.580  0.6759 -0.7870  1.5636
  421MOL0     H56825  -0.601  11.282   5.609 -0.1717  0.4882  2.0058
  421MOL0     H56826  -0.634  11.154   5.730 -1.9001  1.0506  0.4813
  421MOL0     H56827  -0.720  11.028   5.521 -1.7247 -0.0054 -0.6125
  421MOL0     H56828  -0.755  11.195   5.462 -1.2482 -2.4626 -0.3375
  421MOL0     H56829  -0.956  11.097   5.552  0.5651  1.2084 -1.0073
  421MOL0     H56830  -0.862  11.049   5.697 -0.7467 -2.7358 -1.7754
  421MOL0     H56831  -1.003  11.441   5.788 -0.7689 -1.1691  1.4292
  421MOL0     H56832  -0.388  11.219   5.204 -1.3272 -1.8734  1.5813
  421MOL0     H56833  -0.101  11.321   5.064 -0.6003  0.3713  1.3396
  421MOL0     H56834  -0.143  11.158   5.005 -0.1339 -0.0618  0.8503
  421MOL0     H56835  -0.274  11.273   5.035  0.0205  2.3037  1.2677
  422MOL0     O56836   8.992   8.918   7.812 -0.1797 -0.8490  0.2844
  422MOL0     C56837   8.986   8.802   7.767 -0.1554 -0.3422 -0.5769
  422MOL0     O56838   9.095   8.721   7.731 -0.0931 -0.3273  0.1387
  422MOL0     C56839   9.212   8.797   7.715  0.2627 -0.8408  0.0105
  422MOL0     C56840   9.246   8.843   7.593 -0.0108 -0.4485 -0.8972
  422MOL0     C56841   9.365   8.907   7.565  0.3675 -0.9396  0.0136
  422MOL0     C56842   9.459   8.908   7.666  0.4219  0.7970 -0.4690
  422MOL0     O56843   9.578   8.967   7.638  0.0115 -0.1991  0.1860
  422MOL0     C56844   9.689   8.903   7.701 -0.6378  0.3649  0.0519
  422MOL0     C56845   9.819   8.969   7.654 -0.2048 -0.0710  0.1200
  422MOL0     C56846   9.933   8.886   7.720  0.3531  0.5351  0.2474
  422MOL0     C56847  10.075   8.939   7.689 -0.1846  0.1935  0.2692
  422MOL0     C56848  10.170   8.841   7.750  0.1399  0.3361  0.0537
  422MOL0     C56849  10.313   8.874   7.703 -0.5261  0.5789  0.2290
  422MOL0     C56850  10.416   8.757   7.704  0.5715 -0.2108  0.3261
  422MOL0     C56851  10.561   8.800   7.669  0.4389 -0.5988 -0.0577
  422MOL0     N56852  10.660   8.687   7.664 -1.4376 -0.0852  0.9236
  422MOL0     C56853  10.745   8.666   7.552  0.4880 -0.2202  0.1392
  422MOL0     C56854  10.853   8.597   7.606  0.5385  0.0272  0.3907
  422MOL0     C56855  10.979   8.552   7.535 -0.0286  0.6181  0.1926
  422MOL0     C56856  10.967   8.400   7.496  0.0729 -0.8573  0.3464
  422MOL0     C56857  10.993   8.317   7.624  0.1599  0.0814 -0.1248
  422MOL0     C56858  11.133   8.331   7.680 -0.0187 -0.8498  0.4956
  422MOL0     O56859  11.222   8.344   7.569  0.1419  0.7270  0.4774
  422MOL0     C56860  11.350   8.381   7.595 -0.7263 -0.2931 -0.3306
  422MOL0     C56861  11.416   8.448   7.490  0.4600 -0.4412 -0.1589
  422MOL0     C56862  11.544   8.510   7.513  0.8236  0.4813  0.0904
  422MOL0     C56863  11.607   8.505   7.644  0.1310 -0.4483 -0.8121
  422MOL0     C56864  11.728   8.579   7.666  0.1936  0.0547 -0.5835
  422MOL0     O56865  11.812   8.605   7.555 -0.0945 -0.2312 -0.6451
  422MOL0     C56866  11.934   8.656   7.579 -0.9171 -0.3122 -0.4115
  422MOL0     C56867  12.041   8.580   7.544 -0.3682 -0.4797  0.0454
  422MOL0     C56868  12.169   8.633   7.553 -0.4584  0.4366  0.3252
  422MOL0     C56869  12.192   8.770   7.581  0.6232 -0.4339 -0.0052
  422MOL0     O56870  12.309   8.835   7.584 -0.3631  0.3964  0.9057
  422MOL0     C56871  12.423   8.748   7.589 -0.6569 -0.7908  0.2512
  422MOL0     C56872  12.533   8.835   7.636  0.2401 -0.3501 -0.9553
  422MOL0     C56873  12.674   8.776   7.635 -0.0054  0.2717 -0.4819
  422MOL0     C56874  12.778   8.859   7.713 -0.1126 -1.3489  0.7847
  422MOL0     C56875  12.915   8.801   7.692 -0.3095  0.0121 -0.0600
  422MOL0     C56876  13.014   8.905   7.758 -0.2139 -0.7944 -0.5636
  422MOL0     C56877  13.144   8.836   7.799 -0.0200 -0.4266 -0.1240
  422MOL0     C56878  13.236   8.934   7.876  0.9229 -0.1076  0.3188
  422MOL0    Cl56879  13.397   8.863   7.923  0.0678  0.0937 -0.2322
  422MOL0     C56880  12.078   8.846   7.611 -0.2000 -0.0738  0.1435
  422MOL0     C56881  11.949   8.784   7.622 -0.0999 -0.2549 -0.1296
  422MOL0     O56882  11.762   8.598   7.782 -0.4021  0.6197 -0.6270
  422MOL0     C56883  11.534   8.432   7.749 -0.1634 -0.6232 -0.2008
  422MOL0     C56884  11.408   8.377   7.724 -0.4243  0.4685  0.2667
  422MOL0     N56885  10.836   8.585   7.744 -0.6258  0.6090 -0.3246
  422MOL0     N56886  10.715   8.636   7.772 -0.7221  0.5556 -0.5328
  422MOL0     C56887   9.422   8.857   7.792  0.1153 -0.5331  0.2158
  422MOL0     C56888   9.299   8.806   7.823  0.3335  0.3958 -0.1377
  422MOL0     C56889   8.851   8.753   7.737  0.2739  0.5682  0.3053
  422MOL0     C56890   8.834   8.615   7.709 -0.3712  0.5525  0.8013
  422MOL0     C56891   8.718   8.549   7.689  0.1369 -0.1072  0.3294
  422MOL0     C56892   8.599   8.626   7.694 -0.1699 -0.2931 -0.6822
  422MOL0     O56893   8.478   8.574   7.688  0.6012  0.1698 -1.1847
  422MOL0     C56894   8.445   8.438   7.735 -0.5142  0.1758 -0.1585
  422MOL0     C56895   8.299   8.422   7.763  0.2506 -0.4761 -0.0063
  422MOL0     C56896   8.206   8.427   7.636  0.0365 -0.0013 -0.6756
  422MOL0     C56897   8.058   8.459   7.656  0.2567  0.3594 -0.5156
  422MOL0     C56898   8.054   8.593   7.731  0.1212  0.1492 -0.2277
  422MOL0     C56899   8.051   8.701   7.785 -0.0891 -0.1339  0.5008
  422MOL0     C56900   8.607   8.761   7.721 -0.3099 -0.0902  0.9293
  422MOL0     C56901   8.730   8.828   7.744  0.4444 -0.3089  0.2405
  422MOL0     C56902   8.717   8.965   7.792 -0.5110  0.1317 -1.0543
  422MOL0     H56903   9.185   8.818   7.507 -1.7717  0.9314 -0.1193
  422MOL0     H56904   9.387   8.937   7.463  1.2045 -2.7306 -0.3636
  422MOL0     H56905   9.695   8.897   7.810 -0.0601 -3.8327 -0.0302
  422MOL0     H56906   9.687   8.797   7.673 -3.6317  0.5700 -0.9016
  422MOL0     H56907   9.809   9.074   7.683  1.1883  0.3698 -0.8864
  422MOL0     H56908   9.826   8.954   7.546  1.3119  0.1408  0.1777
  422MOL0     H56909   9.926   8.783   7.684 -0.5458  1.1980 -1.5901
  422MOL0     H56910   9.914   8.893   7.827 -0.7001 -1.4064  0.2411
  422MOL0     H56911  10.102   8.958   7.584  2.9073  0.6371  1.0214
  422MOL0     H56912  10.091   9.032   7.745  0.0180  0.0531  0.4488
  422MOL0     H56913  10.162   8.839   7.859 -0.0770  1.4100  0.0712
  422MOL0     H56914  10.141   8.742   7.714 -0.4681  0.7809 -0.6970
  422MOL0     H56915  10.310   8.899   7.597  1.0802  2.2796  0.5361
  422MOL0     H56916  10.350   8.962   7.757  2.5334 -0.2390 -0.3867
  422MOL0     H56917  10.385   8.677   7.636  0.3282 -0.6010  0.8928
  422MOL0     H56918  10.430   8.720   7.806  1.6382 -0.2433  0.1785
  422MOL0     H56919  10.552   8.840   7.567 -1.4364 -1.4507 -0.2777
  422MOL0     H56920  10.601   8.880   7.732  0.5077  0.6065 -1.5790
  422MOL0     H56921  10.748   8.708   7.452  0.1594  2.6437  1.2361
  422MOL0     H56922  11.001   8.609   7.444  1.5868 -1.2935 -0.6703
  422MOL0     H56923  11.062   8.564   7.605  0.4169  1.4755 -0.4770
  422MOL0     H56924  10.870   8.365   7.459  0.2524 -1.0955  0.1081
  422MOL0     H56925  11.034   8.386   7.412  1.3418  2.3232  0.6757
  422MOL0     H56926  10.973   8.213   7.594 -1.2413  0.2230  0.2758
  422MOL0     H56927  10.922   8.340   7.704  1.0284  1.2287  0.3411
  422MOL0     H56928  11.172   8.250   7.742  2.4061  0.1928  0.4254
  422MOL0     H56929  11.135   8.419   7.745 -2.1846  0.6747 -1.3420
  422MOL0     H56930  11.367   8.439   7.394  1.0857  1.2410 -0.6614
  422MOL0     H56931  11.595   8.547   7.425  1.1306 -0.9128 -0.3390
  422MOL0     H56932  12.028   8.476   7.516  0.8469 -0.6101 -0.1172
  422MOL0     H56933  12.251   8.571   7.519 -0.3739  0.8444 -0.2188
  422MOL0     H56934  12.414   8.663   7.658 -1.6744 -1.6536 -0.9194
  422MOL0     H56935  12.451   8.691   7.501  0.8307 -1.0444  0.8618
  422MOL0     H56936  12.534   8.931   7.583  0.2489 -1.1360 -2.4277
  422MOL0     H56937  12.509   8.847   7.742 -0.2599  0.1871 -1.1210
  422MOL0     H56938  12.662   8.679   7.684 -1.1836  0.2287 -0.8139
  422MOL0     H56939  12.702   8.747   7.534 -0.7497  0.0178 -0.6227
  422MOL0     H56940  12.757   8.860   7.820  0.4613 -0.4043  0.9038
  422MOL0     H56941  12.785   8.960   7.670  0.1985 -2.1250 -1.1035
  422MOL0     H56942  12.940   8.789   7.586 -1.2570  0.8718 -0.4062
  422MOL0     H56943  12.915   8.711   7.753 -0.7980  0.2635  0.3276
  422MOL0     H56944  13.038   8.993   7.698  2.5590 -1.2344 -0.2328
  422MOL0     H56945  12.971   8.944   7.850 -0.2486  1.9074 -1.6140
  422MOL0     H56946  13.201   8.812   7.708  1.2341 -0.3035  0.5973
  422MOL0     H56947  13.131   8.756   7.872  0.7849  0.9881  1.6630
  422MOL0     H56948  13.260   9.008   7.798  1.6861 -2.0999 -1.4484
  422MOL0     H56949  13.187   8.979   7.962  2.5163  2.6135 -0.0528
  422MOL0     H56950  12.096   8.950   7.636  2.4124 -0.5050  0.4099
  422MOL0     H56951  11.863   8.844   7.651 -0.9732 -0.5252 -2.0473
  422MOL0     H56952  11.587   8.431   7.844  1.2531  1.8759 -0.8455
  422MOL0     H56953  11.358   8.323   7.804  1.4194 -0.8174  0.6216
  422MOL0     H56954   9.500   8.848   7.868  0.6781 -1.9839 -0.4923
  422MOL0     H56955   9.279   8.763   7.921 -1.4716 -1.9518 -1.4248
  422MOL0     H56956   8.926   8.557   7.703  0.5252  1.3730  4.3219
  422MOL0     H56957   8.712   8.443   7.670 -0.9810 -0.3105  1.6265
  422MOL0     H56958   8.511   8.417   7.819  0.0692  0.1186 -0.6230
  422MOL0     H56959   8.461   8.369   7.651  0.8713  2.0541 -1.5447
  422MOL0     H56960   8.284   8.508   7.830  3.3944  0.5874 -0.4958
  422MOL0     H56961   8.276   8.324   7.806  1.8539 -1.5528 -1.5207
  422MOL0     H56962   8.221   8.328   7.593  3.1170 -0.1181  0.4086
  422MOL0     H56963   8.247   8.502   7.568  1.9202 -0.0389  0.3638
  422MOL0     H56964   8.009   8.455   7.558  0.0184 -1.3970 -0.3668
  422MOL0     H56965   8.008   8.384   7.718 -0.2772 -0.4256 -1.8457
  422MOL0     H56966   8.040   8.794   7.838 -0.9474  2.7356 -4.1227
  422MOL0     H56967   8.515   8.820   7.718  0.5342  1.2657  0.4493
  422MOL0     H56968   8.744   8.977   7.897 -0.6048 -0.4635 -0.9585
  422MOL0     H56969   8.786   9.028   7.735  2.0359 -2.4572 -1.0344
  422MOL0     H56970   8.618   9.012   7.787  0.5847  2.5868 -1.0704
  423MOL0     O56971   9.110   4.172   2.348  0.0159 -0.3542  0.4254
  423MOL0     C56972   9.065   4.072   2.404  0.1325  0.4200 -0.0544
  423MOL0     O56973   9.130   3.964   2.442 -0.3701 -0.1120 -0.4240
  423MOL0     C56974   9.263   3.963   2.417 -0.1337  1.1796 -0.2792
  423MOL0     C56975   9.352   3.932   2.527 -0.6911 -0.6571  0.7936
  423MOL0     C56976   9.489   3.930   2.514  0.5660  0.9753  0.3274
  423MOL0     C56977   9.543   3.952   2.384 -0.0165  0.4391  1.0946
  423MOL0     O56978   9.674   3.944   2.349  0.0541 -0.1970 -0.1870
  423MOL0     C56979   9.767   3.897   2.453 -0.2718 -0.4913 -0.4208
  423MOL0     C56980   9.900   3.894   2.387  1.0231 -0.0037  0.5067
  423MOL0     C56981  10.023   3.870   2.486 -0.4221  0.1151 -0.5883
  423MOL0     C56982  10.166   3.871   2.422  0.9055 -0.1365  0.6704
  423MOL0     C56983  10.278   3.862   2.528  0.6530  0.3466  0.8226
  423MOL0     C56984  10.406   3.824   2.440 -0.0573  0.2270 -0.1443
  423MOL0     C56985  10.530   3.865   2.527  0.6611 -0.2776 -0.3220
  423MOL0     C56986  10.560   4.015   2.507  0.0426  0.7072  0.1191
  423MOL0     N56987  10.620   4.067   2.627  0.4301  0.4324 -0.1618
  423MOL0     C56988  10.538   4.107   2.724 -1.2745  0.4173 -0.5067
  423MOL0     C56989  10.623   4.152   2.825  0.5194  0.4843  0.5281
  423MOL0     C56990  10.597   4.183   2.967 -0.6193  0.8029 -0.5529
  423MOL0     C56991  10.523   4.318   2.982  0.2048 -0.1644 -0.9245
  423MOL0     C56992  10.511   4.360   3.126  0.3335  0.3412 -0.2501
  423MOL0     C56993  10.638   4.421   3.178 -0.4242 -0.3047  0.2141
  423MOL0     O56994  10.686   4.534   3.106  0.6162  0.6248 -0.0995
  423MOL0     C56995  10.823   4.562   3.101  0.4075  0.3866  0.0010
  423MOL0     C56996  10.864   4.694   3.065  0.0753  0.1896  0.0694
  423MOL0     C56997  10.999   4.724   3.055 -0.6750  0.3260  0.7285
  423MOL0     C56998  11.103   4.632   3.069  0.2943 -0.0335 -0.6799
  423MOL0     C56999  11.251   4.672   3.058 -0.5169  0.4795 -0.1235
  423MOL0     O57000  11.274   4.787   2.982  0.0816 -0.0637 -0.5898
  423MOL0     C57001  11.399   4.838   2.958 -0.7019 -0.3624  0.7646
  423MOL0     C57002  11.527   4.787   2.989  0.1107 -0.8762 -0.4146
  423MOL0     C57003  11.645   4.860   2.957  0.6776  0.2151 -0.8868
  423MOL0     C57004  11.641   4.982   2.886  0.3486 -0.4362 -0.5751
  423MOL0     O57005  11.751   5.041   2.840  0.2063 -0.4085 -0.3206
  423MOL0     C57006  11.861   4.950   2.802  0.2247  0.0004 -0.0427
  423MOL0     C57007  11.990   4.947   2.890  0.8587  0.6016  0.4429
  423MOL0     C57008  12.062   5.086   2.906  0.7344 -0.4586  0.0754
  423MOL0     C57009  12.172   5.067   3.003 -0.1915 -0.2006  0.3352
  423MOL0     C57010  12.259   5.198   3.008  0.3076  0.1103  0.1823
  423MOL0     C57011  12.336   5.220   3.136 -0.6062  0.8467 -0.8605
  423MOL0     C57012  12.262   5.240   3.264  0.7148 -0.1939  0.4221
  423MOL0     C57013  12.356   5.276   3.382  0.0578  0.7449 -0.2535
  423MOL0    Cl57014  12.429   5.437   3.361  0.3777 -0.1455 -0.2668
  423MOL0     C57015  11.516   5.024   2.842  0.6890 -0.0513  0.9353
  423MOL0     C57016  11.391   4.970   2.891 -0.3819  1.0395 -0.4277
  423MOL0     O57017  11.330   4.600   3.113  1.2558  0.2728  0.5490
  423MOL0     C57018  11.060   4.508   3.122 -0.0632 -0.1946  1.1680
  423MOL0     C57019  10.931   4.467   3.131  0.3471 -0.4870 -0.3509
  423MOL0     N57020  10.750   4.147   2.765  0.2465 -0.6805  0.2242
  423MOL0     N57021  10.753   4.091   2.646 -0.0667 -0.9727  0.1360
  423MOL0     C57022   9.464   3.969   2.270  0.3210  0.5872 -0.3159
  423MOL0     C57023   9.324   3.974   2.291 -0.4535 -1.1270  0.1153
  423MOL0     C57024   8.924   4.066   2.443  0.9017  0.3136 -0.4457
  423MOL0     C57025   8.880   4.012   2.564 -1.0684  1.0842  0.2579
  423MOL0     C57026   8.749   4.002   2.606 -0.0749  0.1315 -0.0166
  423MOL0     C57027   8.651   4.051   2.530 -0.0636  0.0930  0.5355
  423MOL0     O57028   8.527   4.041   2.581 -0.3009  0.1688  0.0769
  423MOL0     C57029   8.421   4.034   2.486  0.0082  0.6832 -0.4868
  423MOL0     C57030   8.301   3.977   2.565  0.2716  0.6132  0.0981
  423MOL0     C57031   8.165   3.953   2.486  0.1099  0.3931  0.1600
  423MOL0     C57032   8.056   3.879   2.564  0.3718  0.3137 -0.5447
  423MOL0     C57033   8.005   3.968   2.664 -0.0114 -0.9059  0.4254
  423MOL0     C57034   7.964   4.055   2.739 -0.3965  0.0247 -0.1705
  423MOL0     C57035   8.681   4.110   2.404  0.2119  0.2369  0.0960
  423MOL0     C57036   8.815   4.122   2.361 -0.7941  0.5987  0.6720
  423MOL0     C57037   8.838   4.193   2.237 -0.3051 -0.2013  0.1763
  423MOL0     H57038   9.309   3.895   2.620 -1.0333  0.3538  1.0574
  423MOL0     H57039   9.544   3.911   2.606 -2.1326 -2.1245  1.4934
  423MOL0     H57040   9.763   3.971   2.534 -3.1642 -0.8457 -0.1395
  423MOL0     H57041   9.750   3.797   2.495 -1.4929  0.6516  2.0087
  423MOL0     H57042   9.917   3.991   2.338 -0.2145 -0.6213 -1.2455
  423MOL0     H57043   9.905   3.826   2.302 -1.0704  0.2830  0.1123
  423MOL0     H57044  10.010   3.771   2.531 -0.6065 -0.2068 -1.3331
  423MOL0     H57045  10.024   3.946   2.565  0.1985 -0.0063 -0.4781
  423MOL0     H57046  10.172   3.787   2.353  3.0211  0.1470  0.4411
  423MOL0     H57047  10.188   3.963   2.366  2.1823 -0.8496 -0.0511
  423MOL0     H57048  10.291   3.961   2.572  3.2031 -0.5156  2.2317
  423MOL0     H57049  10.252   3.782   2.598 -2.9091  1.4357  0.9279
  423MOL0     H57050  10.405   3.716   2.422 -1.4287  0.5900 -2.5859
  423MOL0     H57051  10.414   3.873   2.343 -0.8748 -1.1086 -0.9137
  423MOL0     H57052  10.605   3.802   2.479 -0.2010 -2.0324  0.5197
  423MOL0     H57053  10.516   3.844   2.634  1.0675  1.1407  0.0232
  423MOL0     H57054  10.634   4.032   2.429  1.0749 -1.6534  0.5169
  423MOL0     H57055  10.479   4.084   2.482  1.2445  1.6728 -1.2899
  423MOL0     H57056  10.433   4.083   2.736 -0.8155 -0.7976  1.3669
  423MOL0     H57057  10.536   4.101   3.007 -0.2877  0.4695 -0.7252
  423MOL0     H57058  10.694   4.181   3.016 -1.7531 -1.6497  1.8185
  423MOL0     H57059  10.578   4.392   2.923  2.2534 -0.6694  0.2675
  423MOL0     H57060  10.423   4.306   2.940 -1.5165  2.0951  2.1254
  423MOL0     H57061  10.488   4.274   3.188 -0.0934  0.8825  0.3503
  423MOL0     H57062  10.432   4.436   3.132  2.3223  2.5069  0.3204
  423MOL0     H57063  10.712   4.341   3.185 -1.2978 -0.9908  3.0405
  423MOL0     H57064  10.626   4.467   3.277  1.0749  3.4603 -1.1929
  423MOL0     H57065  10.798   4.775   3.036 -1.3135 -0.5068  1.1914
  423MOL0     H57066  11.025   4.822   3.016  4.1452 -0.4786  1.3214
  423MOL0     H57067  11.535   4.696   3.047 -2.2773 -0.4092  0.7931
  423MOL0     H57068  11.739   4.822   2.996 -0.5379 -0.5618  1.5215
  423MOL0     H57069  11.826   4.847   2.800 -1.4480  0.5063  0.8953
  423MOL0     H57070  11.884   4.980   2.699 -2.5363  0.5133 -0.6014
  423MOL0     H57071  11.959   4.897   2.982 -0.9999  4.8904  2.4275
  423MOL0     H57072  12.064   4.887   2.837 -1.4463 -1.4698 -0.6570
  423MOL0     H57073  12.114   5.111   2.813  0.8641  1.3067  0.5926
  423MOL0     H57074  11.996   5.171   2.928  0.9291 -0.1086 -0.6751
  423MOL0     H57075  12.243   4.992   2.967 -0.2514  0.3867 -1.0765
  423MOL0     H57076  12.130   5.047   3.102  1.7813  0.5534  1.3972
  423MOL0     H57077  12.200   5.288   2.990  0.6709  0.0528 -1.5178
  423MOL0     H57078  12.322   5.200   2.919  1.9847 -3.8479  1.0584
  423MOL0     H57079  12.407   5.139   3.153  0.0641  0.9483 -2.8486
  423MOL0     H57080  12.395   5.310   3.113 -0.0837  0.4201 -1.2189
  423MOL0     H57081  12.197   5.154   3.282  0.3760 -0.4765 -1.7795
  423MOL0     H57082  12.204   5.332   3.253  2.4666  1.0117  0.8740
  423MOL0     H57083  12.310   5.276   3.481  1.6889 -1.1686  0.5887
  423MOL0     H57084  12.436   5.201   3.382  0.7331  1.4533 -0.3632
  423MOL0     H57085  11.511   5.111   2.777  1.8281 -0.9535 -0.4191
  423MOL0     H57086  11.295   5.011   2.862 -1.6064 -0.9323  0.5528
  423MOL0     H57087  11.134   4.430   3.142  2.8833  0.8824 -3.8959
  423MOL0     H57088  10.918   4.364   3.164  0.8566 -0.7807 -1.0451
  423MOL0     H57089   9.512   3.977   2.173  2.3230  0.4661  0.6188
  423MOL0     H57090   9.267   3.968   2.199 -0.5019  0.9959 -0.0295
  423MOL0     H57091   8.964   3.970   2.620 -0.2614  1.2201 -0.8262
  423MOL0     H57092   8.718   3.981   2.708 -1.1361 -1.0192 -0.5610
  423MOL0     H57093   8.447   3.976   2.397  1.2936  2.6443 -1.4603
  423MOL0     H57094   8.386   4.135   2.462 -1.2975  0.4285  0.2329
  423MOL0     H57095   8.277   4.037   2.653  0.3431 -0.5827  0.9561
  423MOL0     H57096   8.340   3.883   2.604 -0.7060  0.3886  0.5758
  423MOL0     H57097   8.181   3.892   2.397 -2.4830 -0.0851 -0.0497
  423MOL0     H57098   8.135   4.055   2.459  0.3953  0.7792  1.2318
  423MOL0     H57099   7.975   3.855   2.495  0.3396 -2.6261  0.3773
  423MOL0     H57100   8.087   3.786   2.614 -0.1674  1.3101  1.7350
  423MOL0     H57101   7.939   4.150   2.781  3.1722  1.3462 -0.7159
  423MOL0     H57102   8.607   4.139   2.330 -0.5519 -1.3470  0.1862
  423MOL0     H57103   8.871   4.292   2.268  0.0791 -1.1336  3.0470
  423MOL0     H57104   8.916   4.141   2.181 -1.0215 -2.6275  1.2677
  423MOL0     H57105   8.757   4.197   2.163  0.6928  0.8689 -0.8918
  424MOL0     O57106   2.833  10.369   4.196  0.7961 -0.1894 -0.4132
  424MOL0     C57107   2.725  10.343   4.139 -0.8380  0.3612 -0.4067
  424MOL0     O57108   2.717  10.324   4.005  0.1273  0.1224 -0.6466
  424MOL0     C57109   2.812  10.377   3.923  0.2848  0.1318 -0.1932
  424MOL0     C57110   2.765  10.460   3.816 -0.3534 -0.0724 -0.0551
  424MOL0     C57111   2.850  10.470   3.706 -0.5818  0.0905  0.4254
  424MOL0     C57112   2.981  10.407   3.699 -0.7552  0.8269  0.3911
  424MOL0     O57113   3.051  10.435   3.581 -0.1939 -0.1314 -0.0776
  424MOL0     C57114   3.170  10.366   3.559  1.2653 -0.1799 -0.2729
  424MOL0     C57115   3.216  10.401   3.419 -0.3192  0.3686  0.1098
  424MOL0     C57116   3.364  10.364   3.401 -0.0275 -0.3595  0.3106
  424MOL0     C57117   3.427  10.434   3.273 -0.3895  0.2889  0.5556
  424MOL0     C57118   3.574  10.395   3.277  0.9432 -0.3773 -1.2381
  424MOL0     C57119   3.652  10.476   3.171  0.4127 -0.6073 -0.1017
  424MOL0     C57120   3.798  10.453   3.167  0.2382  0.2113 -0.1516
  424MOL0     C57121   3.876  10.498   3.295  0.9706  0.0287 -0.4814
  424MOL0     N57122   4.023  10.472   3.286 -0.2133 -0.0767 -0.5674
  424MOL0     C57123   4.109  10.533   3.197  0.7127 -1.5999  0.0031
  424MOL0     C57124   4.232  10.500   3.230  0.2927 -0.2316  0.0031
  424MOL0     C57125   4.355  10.552   3.162  0.2832 -0.3775  0.5332
  424MOL0     C57126   4.373  10.712   3.181 -0.0258 -0.1468  0.3747
  424MOL0     C57127   4.494  10.768   3.102 -0.3576  0.4293 -0.4244
  424MOL0     C57128   4.497  10.923   3.117  0.3853 -0.9479 -0.5803
  424MOL0     O57129   4.577  10.984   3.023  0.9106  0.1505  1.0664
  424MOL0     C57130   4.710  10.990   3.018  0.6012  0.0371 -0.6545
  424MOL0     C57131   4.760  11.050   2.901 -0.2304  0.4114 -0.2416
  424MOL0     C57132   4.893  11.062   2.874  0.6526  0.5418  1.4595
  424MOL0     C57133   4.986  11.016   2.975  0.6001  0.1686  0.8121
  424MOL0     C57134   5.132  11.036   2.965 -0.0413  0.2020  0.4061
  424MOL0     O57135   5.207  10.965   3.058  0.1897 -0.9769  0.4186
  424MOL0     C57136   5.352  10.962   3.051  0.2988 -0.2375 -0.1489
  424MOL0     C57137   5.436  11.057   2.996  0.9082  0.6350 -0.0030
  424MOL0     C57138   5.577  11.038   3.006 -0.3731 -1.0798  0.5007
  424MOL0     C57139   5.633  10.919   3.058  0.6824  1.5307  0.1188
  424MOL0     O57140   5.765  10.877   3.058  1.1282 -0.3404 -0.4468
  424MOL0     C57141   5.873  10.967   3.031 -0.4390 -0.0074  0.8674
  424MOL0     C57142   6.010  10.895   3.039 -0.4322  0.4665  0.2069
  424MOL0     C57143   6.139  10.978   3.003 -0.1024  0.1454 -0.0840
  424MOL0     C57144   6.263  10.967   3.088 -0.3785  0.0059  0.5056
  424MOL0     C57145   6.360  11.067   3.032 -0.4087  0.3423 -0.3670
  424MOL0     C57146   6.487  11.070   3.123  0.1442  0.8011  1.3823
  424MOL0     C57147   6.587  11.173   3.079  0.0003  1.1982  0.3373
  424MOL0     C57148   6.724  11.143   3.144  0.1106 -1.0456 -0.6195
  424MOL0    Cl57149   6.699  11.225   3.309 -0.0042  0.2123  0.3746
  424MOL0     C57150   5.536  10.827   3.105 -0.8188 -0.8996 -0.3936
  424MOL0     C57151   5.405  10.850   3.110  0.3504 -0.1379 -0.0458
  424MOL0     O57152   5.174  11.099   2.865 -0.6239  0.3262 -0.2976
  424MOL0     C57153   4.933  10.950   3.087 -0.0120  0.8455 -0.5617
  424MOL0     C57154   4.799  10.938   3.113 -0.7226  0.2540  0.1248
  424MOL0     N57155   4.221  10.419   3.343 -0.0601 -0.5038  0.2568
  424MOL0     N57156   4.094  10.401   3.371  0.0498  0.4654 -0.2683
  424MOL0     C57157   3.026  10.346   3.817 -0.2106  0.0530 -0.0148
  424MOL0     C57158   2.947  10.324   3.922 -0.1683  0.5592 -0.5575
  424MOL0     C57159   2.593  10.333   4.216 -0.5725  0.3205  0.4672
  424MOL0     C57160   2.481  10.276   4.145  0.1311  0.2763  0.5807
  424MOL0     C57161   2.356  10.273   4.198  0.4672 -0.3269  0.3264
  424MOL0     C57162   2.333  10.341   4.325  0.3419  0.2376  0.5262
  424MOL0     O57163   2.202  10.365   4.369  0.6311 -0.2980 -0.3726
  424MOL0     C57164   2.175  10.333   4.505 -0.3342 -1.1452  0.3847
  424MOL0     C57165   2.024  10.345   4.511  0.3809  0.0662  0.6657
  424MOL0     C57166   1.947  10.218   4.494 -0.9473  0.4723  0.9725
  424MOL0     C57167   1.806  10.232   4.439 -0.7229  0.4126  0.1116
  424MOL0     C57168   1.709  10.303   4.521 -0.6912  0.2223 -0.0890
  424MOL0     C57169   1.641  10.374   4.596 -0.5551  0.0333  0.5225
  424MOL0     C57170   2.436  10.402   4.388  0.4347 -0.5128 -0.3089
  424MOL0     C57171   2.568  10.391   4.342  0.2157  0.1422  0.4432
  424MOL0     C57172   2.676  10.436   4.435  0.5044 -0.0501 -0.1693
  424MOL0     H57173   2.661  10.490   3.811 -1.2995 -3.1573 -2.6742
  424MOL0     H57174   2.809  10.521   3.619 -2.4814 -2.4352 -0.2783
  424MOL0     H57175   3.246  10.396   3.632 -0.4698  1.9826  0.7675
  424MOL0     H57176   3.143  10.262   3.574 -3.2345  0.8668  0.2431
  424MOL0     H57177   3.203  10.509   3.417  0.4622  0.7332  4.3164
  424MOL0     H57178   3.152  10.353   3.344 -0.1424 -1.2079  0.9258
  424MOL0     H57179   3.365  10.256   3.386 -4.1644 -0.7528  1.4147
  424MOL0     H57180   3.417  10.395   3.492 -0.4819 -0.8850  0.7674
  424MOL0     H57181   3.389  10.393   3.178 -3.3562  2.1519  0.8235
  424MOL0     H57182   3.404  10.540   3.278 -0.8721  0.1520  1.3648
  424MOL0     H57183   3.613  10.418   3.377 -0.9237 -0.2616 -0.5059
  424MOL0     H57184   3.587  10.291   3.245 -1.0504 -0.9494 -0.3396
  424MOL0     H57185   3.621  10.456   3.069 -0.9721  2.8388 -0.5239
  424MOL0     H57186   3.631  10.582   3.192  1.7967 -0.5463  1.1615
  424MOL0     H57187   3.838  10.494   3.074  1.6434 -1.7910 -0.4873
  424MOL0     H57188   3.812  10.345   3.162  0.5018  0.1778  0.9794
  424MOL0     H57189   3.856  10.604   3.313 -2.9079 -0.6215 -0.0045
  424MOL0     H57190   3.843  10.443   3.384  2.3064 -2.2526 -1.3142
  424MOL0     H57191   4.074  10.592   3.113 -0.8792 -1.8172  0.4880
  424MOL0     H57192   4.443  10.492   3.188  0.9374 -0.2544 -1.2268
  424MOL0     H57193   4.332  10.541   3.055 -2.5579  0.1015  1.0175
  424MOL0     H57194   4.282  10.764   3.148  1.1175  0.6048 -1.8176
  424MOL0     H57195   4.373  10.739   3.287 -1.4289 -0.4581  0.4739
  424MOL0     H57196   4.477  10.745   2.997 -1.8212  0.3434 -0.1847
  424MOL0     H57197   4.589  10.722   3.130  0.7660  2.9309  0.2107
  424MOL0     H57198   4.530  10.946   3.219 -0.4488  3.4460 -1.1191
  424MOL0     H57199   4.398  10.963   3.094 -0.1420 -1.2476  1.0126
  424MOL0     H57200   4.696  11.081   2.819  4.1976  1.6381 -3.6062
  424MOL0     H57201   4.930  11.104   2.781  0.8186 -0.9974  0.7905
  424MOL0     H57202   5.398  11.148   2.951 -1.3910 -0.8707 -1.2919
  424MOL0     H57203   5.643  11.117   2.972 -0.6746 -0.3704  1.4999
  424MOL0     H57204   5.856  11.002   2.929 -3.6596  2.3449  2.0419
  424MOL0     H57205   5.884  11.048   3.103  1.1615  0.5372  0.0504
  424MOL0     H57206   6.015  10.859   3.142  1.8820  1.6799  0.5737
  424MOL0     H57207   6.023  10.802   2.983  1.1823  1.1304 -0.5893
  424MOL0     H57208   6.159  10.966   2.896  1.0228 -0.0334  0.1332
  424MOL0     H57209   6.104  11.081   3.020  0.6177  0.8821 -2.5509
  424MOL0     H57210   6.300  10.864   3.100 -2.3139 -0.7811  0.0461
  424MOL0     H57211   6.251  11.002   3.191  0.2366  0.4075  0.4493
  424MOL0     H57212   6.317  11.167   3.032  1.2383  1.0857 -0.5750
  424MOL0     H57213   6.390  11.044   2.930 -0.5785 -3.2490  0.2513
  424MOL0     H57214   6.455  11.086   3.227 -1.3564  0.4181  1.0016
  424MOL0     H57215   6.527  10.968   3.125  0.4847  0.8540 -0.5725
  424MOL0     H57216   6.552  11.277   3.083 -0.6912  0.9305  1.5373
  424MOL0     H57217   6.604  11.167   2.971 -1.5833 -0.8799  0.1527
  424MOL0     H57218   6.735  11.034   3.150  1.8866 -0.8263  1.1909
  424MOL0     H57219   6.815  11.183   3.099  0.4110  2.3908  2.5232
  424MOL0     H57220   5.562  10.730   3.146  1.0716 -0.3250 -0.1400
  424MOL0     H57221   5.344  10.782   3.169  1.1591  1.5847  3.0228
  424MOL0     H57222   5.002  10.920   3.165 -0.8627 -0.6807 -0.3609
  424MOL0     H57223   4.756  10.890   3.200  1.7203 -0.8415  0.8115
  424MOL0     H57224   3.125  10.302   3.820  0.7797  2.1208 -0.4449
  424MOL0     H57225   2.975  10.255   4.001  1.3834  0.1869 -1.3878
  424MOL0     H57226   2.495  10.220   4.053 -1.1894  0.3947  0.2879
  424MOL0     H57227   2.269  10.226   4.155 -2.0320  4.0946 -0.0161
  424MOL0     H57228   2.220  10.407   4.572 -1.5506 -2.2381  2.5103
  424MOL0     H57229   2.210  10.232   4.528 -2.1366 -1.6855  0.9328
  424MOL0     H57230   1.995  10.415   4.432  2.2716  0.3183  0.1483
  424MOL0     H57231   1.981  10.395   4.599 -2.6784  2.6305 -1.9905
  424MOL0     H57232   1.953  10.166   4.590  1.8094  1.1850  1.2550
  424MOL0     H57233   1.998  10.164   4.414 -1.0213 -0.6106  1.6433
  424MOL0     H57234   1.816  10.276   4.339  0.7033 -1.2735 -0.5279
  424MOL0     H57235   1.768  10.130   4.430 -0.0805  0.1138  0.6857
  424MOL0     H57236   1.589  10.428   4.672  0.6246  0.4848  1.0306
  424MOL0     H57237   2.415  10.463   4.476  1.9003  2.6931 -1.9929
  424MOL0     H57238   2.748  10.355   4.449 -0.5287 -0.5900  2.4835
  424MOL0     H57239   2.724  10.520   4.383 -0.3099 -0.0033 -0.8758
  424MOL0     H57240   2.644  10.472   4.533  2.0248 -0.0072  0.3310
  425MOL0     O57241   2.892   7.956   0.791 -0.6494 -0.2113 -0.1163
  425MOL0     C57242   2.935   7.865   0.864 -0.2943 -0.5025  0.5494
  425MOL0     O57243   2.876   7.819   0.977  0.3266 -0.9786  0.1972
  425MOL0     C57244   2.759   7.862   1.031  0.5346 -0.6724  0.5370
  425MOL0     C57245   2.753   7.892   1.168  0.5718  0.2956  0.2979
  425MOL0     C57246   2.637   7.929   1.234  0.9322  0.8822 -0.2606
  425MOL0     C57247   2.512   7.938   1.165 -0.7162 -0.5697  0.1608
  425MOL0     O57248   2.388   7.985   1.217 -0.2357  0.2718 -0.2282
  425MOL0     C57249   2.396   8.096   1.314  0.4057 -1.1015  0.0722
  425MOL0     C57250   2.418   8.053   1.461  0.2765 -0.2283  0.5909
  425MOL0     C57251   2.317   8.116   1.549  0.1327 -0.5177  0.0224
  425MOL0     C57252   2.316   8.053   1.695  0.3002 -0.6108 -0.1403
  425MOL0     C57253   2.275   7.903   1.699 -1.3726  0.1369 -0.4444
  425MOL0     C57254   2.316   7.846   1.841 -0.3420 -0.6709 -0.4113
  425MOL0     C57255   2.237   7.907   1.950 -0.0577 -0.6273  1.5618
  425MOL0     C57256   2.247   7.816   2.072 -0.0019 -0.0880 -0.5242
  425MOL0     N57257   2.228   7.891   2.199 -0.0235 -0.5102 -0.2208
  425MOL0     C57258   2.113   7.908   2.268 -0.1388  0.1103  0.3081
  425MOL0     C57259   2.152   7.978   2.377 -0.7438  0.0432  0.4762
  425MOL0     C57260   2.048   8.054   2.460  0.2741 -0.2831  0.3824
  425MOL0     C57261   2.005   7.985   2.593 -0.2858 -0.2433  0.1033
  425MOL0     C57262   2.124   7.979   2.695  0.2097  0.2872  0.4888
  425MOL0     C57263   2.169   8.112   2.753  1.0332  0.2286  0.0884
  425MOL0     O57264   2.279   8.105   2.843  0.1108  0.0097  0.3219
  425MOL0     C57265   2.410   8.099   2.796  0.3378 -0.2884 -0.2450
  425MOL0     C57266   2.513   8.108   2.888 -0.2580  1.1485  0.3446
  425MOL0     C57267   2.647   8.113   2.847 -0.4624 -1.0392  0.0043
  425MOL0     C57268   2.680   8.109   2.714 -0.0610 -0.3228  0.1789
  425MOL0     C57269   2.822   8.118   2.668 -0.4307 -0.2013 -0.3545
  425MOL0     O57270   2.845   8.168   2.541  0.1311  0.1088 -0.1290
  425MOL0     C57271   2.978   8.175   2.503  0.0735 -0.3571  0.0176
  425MOL0     C57272   3.043   8.303   2.478  0.6229 -0.1868 -0.4713
  425MOL0     C57273   3.170   8.312   2.425  0.2334 -0.4603  0.6249
  425MOL0     C57274   3.234   8.191   2.393 -0.5681 -0.0611  0.7614
  425MOL0     O57275   3.357   8.180   2.325 -0.8834 -0.1854  0.0590
  425MOL0     C57276   3.464   8.266   2.364  0.2996 -0.5918  0.2541
  425MOL0     C57277   3.603   8.215   2.324 -0.2162  0.7834 -1.1839
  425MOL0     C57278   3.631   8.196   2.175  0.0895  1.0122 -0.5219
  425MOL0     C57279   3.775   8.150   2.167 -0.1597  0.6211 -0.7774
  425MOL0     C57280   3.829   8.136   2.025 -0.8266  0.0386 -1.2205
  425MOL0     C57281   3.798   7.998   1.974 -0.5866  0.4027  0.1363
  425MOL0     C57282   3.896   7.960   1.865 -0.5336  0.0845 -0.3502
  425MOL0     C57283   3.838   7.841   1.787  0.1858 -0.9281  0.1639
  425MOL0    Cl57284   3.694   7.906   1.690 -0.0567  0.1245  0.2936
  425MOL0     C57285   3.176   8.068   2.414 -0.2071 -0.2852 -0.3815
  425MOL0     C57286   3.047   8.056   2.464  0.5180  0.4273 -0.1579
  425MOL0     O57287   2.910   8.097   2.752  0.3274  0.5539  0.1481
  425MOL0     C57288   2.577   8.103   2.614  0.2423 -0.1246  0.3565
  425MOL0     C57289   2.445   8.100   2.658 -0.0970  0.3989  1.5454
  425MOL0     N57290   2.293   8.005   2.366  0.4762  0.1586 -0.8182
  425MOL0     N57291   2.333   7.932   2.269 -0.0066  0.0796  0.2222
  425MOL0     C57292   2.523   7.909   1.028 -0.1778 -0.9238  0.4271
  425MOL0     C57293   2.639   7.867   0.965  0.4399 -0.8989  0.2026
  425MOL0     C57294   3.053   7.789   0.817 -0.3601  0.2515 -0.0702
  425MOL0     C57295   3.162   7.860   0.754  0.2044  0.2674  0.4391
  425MOL0     C57296   3.262   7.790   0.687 -0.2479  0.2837 -0.1409
  425MOL0     C57297   3.278   7.648   0.701 -0.0997 -1.0421 -0.2363
  425MOL0     O57298   3.385   7.577   0.663 -1.1664 -0.5752 -0.0164
  425MOL0     C57299   3.506   7.652   0.615  0.0877 -0.1389  0.1129
  425MOL0     C57300   3.487   7.675   0.466  0.0511  0.3453 -0.1552
  425MOL0     C57301   3.494   7.545   0.387  0.2196 -0.2179 -0.4533
  425MOL0     C57302   3.623   7.478   0.406 -0.7264  0.5898  0.0428
  425MOL0     C57303   3.627   7.367   0.504 -0.3129  0.1588  0.1895
  425MOL0     C57304   3.624   7.260   0.564 -0.4920  0.3121  0.4370
  425MOL0     C57305   3.180   7.578   0.772 -0.2924 -0.7417  0.6237
  425MOL0     C57306   3.070   7.645   0.831  0.1943  0.0790  0.0680
  425MOL0     C57307   2.955   7.556   0.879 -0.0718  0.0690  0.2347
  425MOL0     H57308   2.840   7.893   1.234 -1.3196  0.6709  2.9369
  425MOL0     H57309   2.624   7.948   1.340  0.0674 -0.5367 -0.0850
  425MOL0     H57310   2.480   8.165   1.301 -0.0196  0.3834  3.7272
  425MOL0     H57311   2.312   8.166   1.306  1.9344  0.6599 -1.5024
  425MOL0     H57312   2.518   8.079   1.496  1.4564  0.9118 -3.1021
  425MOL0     H57313   2.400   7.945   1.455  0.8839 -0.2862 -0.6940
  425MOL0     H57314   2.217   8.094   1.509  0.1316 -1.3844  0.4868
  425MOL0     H57315   2.325   8.225   1.554 -1.8261 -0.3434  0.4286
  425MOL0     H57316   2.415   8.058   1.739  0.5635 -1.9448 -0.5189
  425MOL0     H57317   2.251   8.117   1.755  0.3368 -0.4550 -0.2657
  425MOL0     H57318   2.166   7.894   1.690 -1.2607  0.1393 -2.2682
  425MOL0     H57319   2.320   7.847   1.616 -0.1082  1.8399 -0.9544
  425MOL0     H57320   2.279   7.743   1.842 -0.9990 -0.4506  0.8578
  425MOL0     H57321   2.423   7.866   1.854 -0.5363  1.2855 -1.3446
  425MOL0     H57322   2.133   7.909   1.919  0.4963  1.0630 -0.4560
  425MOL0     H57323   2.276   8.009   1.956 -2.1635  0.2642  0.9756
  425MOL0     H57324   2.176   7.734   2.060  0.0157  0.2167 -3.1062
  425MOL0     H57325   2.347   7.771   2.076  0.2859  0.6096  1.0546
  425MOL0     H57326   2.011   7.888   2.237  0.6397 -0.6085 -2.0005
  425MOL0     H57327   2.083   8.152   2.490  1.2778 -0.4947 -0.0598
  425MOL0     H57328   1.959   8.071   2.398 -1.5950 -2.0753  2.4091
  425MOL0     H57329   1.910   8.027   2.628 -1.3431 -0.9327 -1.7862
  425MOL0     H57330   1.972   7.882   2.574  1.8626 -0.7739 -0.9871
  425MOL0     H57331   2.207   7.925   2.648 -1.7733 -2.2309 -0.3568
  425MOL0     H57332   2.099   7.913   2.779  0.7928 -0.3458  0.1722
  425MOL0     H57333   2.077   8.145   2.802  0.7164  0.0897 -0.4079
  425MOL0     H57334   2.180   8.189   2.675 -1.4575  1.0402  0.4443
  425MOL0     H57335   2.489   8.113   2.994  0.4752  3.8172  0.4516
  425MOL0     H57336   2.721   8.120   2.926 -0.9988 -0.9605  0.5093
  425MOL0     H57337   2.980   8.389   2.498 -0.5600 -0.9821 -0.6743
  425MOL0     H57338   3.203   8.410   2.394 -0.6671 -0.4561 -0.4093
  425MOL0     H57339   3.453   8.359   2.309 -4.5051 -0.0008  1.7755
  425MOL0     H57340   3.448   8.306   2.464 -2.7613  5.7542 -2.2142
  425MOL0     H57341   3.681   8.279   2.368 -0.9288  0.9550 -0.1310
  425MOL0     H57342   3.610   8.116   2.369  1.6490  0.4648 -2.0665
  425MOL0     H57343   3.570   8.119   2.128  2.2978 -0.8092 -0.6245
  425MOL0     H57344   3.618   8.293   2.125  1.7036  2.0745  0.9901
  425MOL0     H57345   3.785   8.062   2.231 -3.1094  1.7669  1.4506
  425MOL0     H57346   3.838   8.220   2.223 -0.8924  1.0370 -0.4651
  425MOL0     H57347   3.937   8.153   2.035 -0.5777 -1.9273  0.2471
  425MOL0     H57348   3.792   8.221   1.967 -1.2959  0.2059 -0.6838
  425MOL0     H57349   3.809   7.933   2.061  0.6392 -0.2186 -0.4642
  425MOL0     H57350   3.697   7.983   1.936 -0.4870 -2.4016  0.7264
  425MOL0     H57351   3.987   7.925   1.914 -1.1839  0.9792  1.5921
  425MOL0     H57352   3.919   8.047   1.803 -0.6502  1.6869  1.7164
  425MOL0     H57353   3.916   7.794   1.725  3.8302 -0.3889  3.9410
  425MOL0     H57354   3.808   7.766   1.860 -0.1019  1.5046  2.6857
  425MOL0     H57355   3.221   7.976   2.376  0.9894  0.7434 -1.5351
  425MOL0     H57356   2.996   7.960   2.475 -1.5142  1.5353  0.5195
  425MOL0     H57357   2.610   8.099   2.511  0.5546  0.2977  0.4397
  425MOL0     H57358   2.367   8.088   2.583  1.1389  0.6673  0.1554
  425MOL0     H57359   2.428   7.925   0.976  0.9226 -0.9776 -1.7305
  425MOL0     H57360   2.627   7.851   0.859 -0.9167 -0.7282  0.3145
  425MOL0     H57361   3.161   7.967   0.744 -1.1918  0.1788 -0.6193
  425MOL0     H57362   3.336   7.848   0.633  0.7969 -0.8378  0.0424
  425MOL0     H57363   3.595   7.592   0.633  0.7799  0.9229  0.3548
  425MOL0     H57364   3.511   7.751   0.662  0.3423 -0.7413  1.4091
  425MOL0     H57365   3.574   7.736   0.438  0.2592  0.6937  1.1690
  425MOL0     H57366   3.393   7.726   0.443  0.5824  0.6702 -1.7631
  425MOL0     H57367   3.480   7.586   0.287 -2.9229  1.2089  0.4705
  425MOL0     H57368   3.409   7.482   0.413 -3.3355  3.8680 -1.1574
  425MOL0     H57369   3.649   7.438   0.308  1.3119  1.7122  0.0580
  425MOL0     H57370   3.695   7.559   0.422 -1.3961  1.3872 -0.9061
  425MOL0     H57371   3.627   7.164   0.609 -3.6365 -0.3245 -0.4778
  425MOL0     H57372   3.180   7.470   0.787  1.3555 -0.8983 -0.2299
  425MOL0     H57373   2.859   7.580   0.833  1.7970  4.6627 -1.8471
  425MOL0     H57374   2.971   7.454   0.842 -1.9428 -0.6164  1.2035
  425MOL0     H57375   2.937   7.556   0.987  1.6779 -0.7526  0.5669
  426MOL0     O57376   5.921   8.493   6.098  0.0057  0.4692 -0.4305
  426MOL0     C57377   6.001   8.580   6.127 -0.4564 -0.4930 -0.2936
  426MOL0     O57378   6.012   8.636   6.251 -0.2125  0.0553 -0.1458
  426MOL0     C57379   5.912   8.595   6.337 -0.2887 -0.7416  0.3861
  426MOL0     C57380   5.836   8.697   6.402 -0.1348  0.4956  0.3358
  426MOL0     C57381   5.738   8.665   6.491 -0.3201  0.0357  0.0249
  426MOL0     C57382   5.710   8.527   6.528  0.8420 -0.9673 -0.3375
  426MOL0     O57383   5.614   8.486   6.621 -0.2807 -0.6920  0.5709
  426MOL0     C57384   5.543   8.576   6.705 -0.4290  0.1087  0.0737
  426MOL0     C57385   5.426   8.646   6.621  0.9472  0.1432  0.1378
  426MOL0     C57386   5.342   8.526   6.589  0.2767  0.2520 -0.0697
  426MOL0     C57387   5.203   8.571   6.525  0.2630 -0.5902 -0.3595
  426MOL0     C57388   5.211   8.654   6.392  0.2509  0.3518 -0.5494
  426MOL0     C57389   5.063   8.681   6.343  0.1440  0.1745  0.3442
  426MOL0     C57390   4.972   8.765   6.431 -0.5173  0.2792  0.1748
  426MOL0     C57391   4.882   8.860   6.338  0.0905 -0.3829  0.2198
  426MOL0     N57392   4.801   8.951   6.416 -0.8096 -0.1889  0.2100
  426MOL0     C57393   4.836   9.075   6.461 -0.2758 -0.4197 -0.2011
  426MOL0     C57394   4.753   9.109   6.561 -0.0888  0.2142  0.7901
  426MOL0     C57395   4.755   9.219   6.668 -0.2111 -0.5952 -0.0573
  426MOL0     C57396   4.900   9.248   6.709 -0.0988 -0.6366  0.3929
  426MOL0     C57397   4.919   9.345   6.830 -0.0351 -0.0971 -0.2074
  426MOL0     C57398   5.059   9.322   6.885 -0.1246 -1.2523 -0.0951
  426MOL0     O57399   5.088   9.387   7.013 -0.1306  0.1979 -0.4046
  426MOL0     C57400   5.163   9.503   7.013  0.7782  0.3662 -0.4880
  426MOL0     C57401   5.183   9.581   6.902 -0.4128 -0.0329  0.6269
  426MOL0     C57402   5.282   9.686   6.905  0.1992 -0.3186 -0.7082
  426MOL0     C57403   5.353   9.719   7.025 -0.1991  0.5213  0.3251
  426MOL0     C57404   5.446   9.830   7.027 -0.2969  0.2185 -0.1960
  426MOL0     O57405   5.508   9.854   7.146  0.0270  0.6826 -0.4888
  426MOL0     C57406   5.623   9.926   7.160 -0.3807  0.2183 -0.2511
  426MOL0     C57407   5.674   9.935   7.290 -0.3369 -0.2707  0.1874
  426MOL0     C57408   5.780  10.024   7.319 -0.6432  0.1931  0.1591
  426MOL0     C57409   5.842  10.101   7.219  0.3324  0.5840 -0.2530
  426MOL0     O57410   5.940  10.185   7.262 -0.4263  0.8924  0.7903
  426MOL0     C57411   6.043  10.231   7.167 -0.0536 -0.1631  0.6296
  426MOL0     C57412   6.157  10.139   7.160 -0.4747 -0.0083 -0.3055
  426MOL0     C57413   6.250  10.154   7.045 -1.0286  0.3048  0.5529
  426MOL0     C57414   6.329  10.288   7.060 -0.3295  0.6155 -0.9976
  426MOL0     C57415   6.415  10.326   6.939 -0.5419  0.7789  0.1594
  426MOL0     C57416   6.537  10.235   6.927 -0.1543  0.5170  0.3033
  426MOL0     C57417   6.639  10.274   7.039 -0.2056 -0.5816 -0.4907
  426MOL0     C57418   6.711  10.408   7.033  0.2680  0.2404 -0.7023
  426MOL0    Cl57419   6.827  10.415   6.900  0.0711 -0.0056 -0.2174
  426MOL0     C57420   5.790  10.088   7.091 -0.0397  0.3145  0.8199
  426MOL0     C57421   5.689   9.999   7.063  0.5911 -0.7475  0.4598
  426MOL0     O57422   5.449   9.896   6.922 -0.1260  0.6294  0.3567
  426MOL0     C57423   5.319   9.646   7.144  0.3639  0.2131 -0.2556
  426MOL0     C57424   5.228   9.535   7.135  0.3136  0.5083  0.1547
  426MOL0     N57425   4.665   9.000   6.571  0.0449 -0.4363  0.1517
  426MOL0     N57426   4.693   8.914   6.482  0.6321 -0.1317  0.5792
  426MOL0     C57427   5.788   8.430   6.470 -0.5191  0.0100  0.2755
  426MOL0     C57428   5.893   8.462   6.377  1.1213  0.0772  0.2656
  426MOL0     C57429   6.103   8.625   6.027 -0.4555 -0.0634 -0.6996
  426MOL0     C57430   6.206   8.700   6.075  0.5335  0.1026  0.1587
  426MOL0     C57431   6.305   8.751   5.991 -0.1577 -0.4417 -0.6637
  426MOL0     C57432   6.306   8.729   5.853  0.5203  0.3860  0.0047
  426MOL0     O57433   6.408   8.768   5.769 -0.0398 -0.3868 -0.1669
  426MOL0     C57434   6.492   8.878   5.804  0.1444  0.1341  0.7506
  426MOL0     C57435   6.621   8.829   5.864 -0.4014  0.3884  0.6944
  426MOL0     C57436   6.731   8.942   5.859 -0.0219  0.0572  0.2637
  426MOL0     C57437   6.870   8.884   5.866  0.4222 -0.2833 -0.0349
  426MOL0     C57438   6.976   8.987   5.867  0.4390  0.8033  0.0044
  426MOL0     C57439   7.059   9.073   5.853 -0.4618  1.1171 -0.8616
  426MOL0     C57440   6.201   8.654   5.807 -1.2615  0.9028  0.6287
  426MOL0     C57441   6.097   8.602   5.888  0.8803  0.6747 -0.4680
  426MOL0     C57442   5.989   8.524   5.814  0.1221  1.0400  0.7071
  426MOL0     H57443   5.873   8.797   6.379  0.3312  0.0529 -0.8925
  426MOL0     H57444   5.677   8.743   6.536  0.5999 -0.3063  1.9310
  426MOL0     H57445   5.503   8.525   6.793  0.6115 -0.1214  0.4252
  426MOL0     H57446   5.619   8.647   6.737  0.6762 -0.1902 -1.7510
  426MOL0     H57447   5.463   8.701   6.535  0.2771  0.0724 -0.2017
  426MOL0     H57448   5.362   8.707   6.685  1.9048 -0.6480  1.9403
  426MOL0     H57449   5.329   8.474   6.684  0.1660 -0.5306 -0.4986
  426MOL0     H57450   5.388   8.449   6.526 -0.9073 -1.1680  0.7413
  426MOL0     H57451   5.152   8.478   6.497  1.6002 -1.1745 -0.9062
  426MOL0     H57452   5.143   8.620   6.603  1.4917  0.4492 -0.0445
  426MOL0     H57453   5.269   8.745   6.412  0.0508  0.1228  1.2256
  426MOL0     H57454   5.264   8.588   6.323 -0.9770 -0.6233 -0.5921
  426MOL0     H57455   5.072   8.726   6.243  1.9458 -0.6471  0.1061
  426MOL0     H57456   5.003   8.589   6.340 -2.6973  1.8271  1.7632
  426MOL0     H57457   5.035   8.839   6.482 -3.2883  2.3193  0.8937
  426MOL0     H57458   4.911   8.710   6.503  2.0555 -1.5893  1.0679
  426MOL0     H57459   4.957   8.917   6.283  1.0583 -1.5920  0.2187
  426MOL0     H57460   4.808   8.806   6.278 -0.7649 -1.6723  2.3010
  426MOL0     H57461   4.919   9.137   6.430 -0.4236  0.4310  1.0316
  426MOL0     H57462   4.715   9.306   6.614  0.2000 -1.8632 -2.5575
  426MOL0     H57463   4.693   9.195   6.755 -2.5069 -1.0409 -1.7141
  426MOL0     H57464   4.944   9.150   6.727  0.9925 -0.9549 -3.1988
  426MOL0     H57465   4.945   9.281   6.615 -0.1970 -3.2375 -0.6578
  426MOL0     H57466   4.834   9.331   6.898 -2.1489  1.9981 -2.2264
  426MOL0     H57467   4.916   9.449   6.796 -1.1845  0.0628  0.3057
  426MOL0     H57468   5.127   9.349   6.803 -1.0896 -1.2018 -0.8937
  426MOL0     H57469   5.079   9.215   6.899  0.6439 -1.3720 -1.8225
  426MOL0     H57470   5.129   9.572   6.809 -1.8635  0.9232  1.3373
  426MOL0     H57471   5.290   9.746   6.816 -3.4737  0.1572 -0.8665
  426MOL0     H57472   5.631   9.867   7.362  0.3182 -0.2469  0.6069
  426MOL0     H57473   5.808  10.036   7.423 -1.8353  2.7593  0.2581
  426MOL0     H57474   5.995  10.244   7.069 -0.8388  4.8680  1.4206
  426MOL0     H57475   6.082  10.331   7.185 -1.9423  1.1124 -1.7864
  426MOL0     H57476   6.217  10.152   7.251 -0.3420 -1.1962 -0.2092
  426MOL0     H57477   6.121  10.036   7.158 -0.5638  0.0213 -0.2067
  426MOL0     H57478   6.325  10.077   7.061 -0.5527  0.1974 -1.7604
  426MOL0     H57479   6.206  10.134   6.946  0.3265 -1.2710  0.2330
  426MOL0     H57480   6.381  10.292   7.156 -1.0756 -2.0273 -0.3771
  426MOL0     H57481   6.254  10.366   7.073  0.0635  0.7594  0.7544
  426MOL0     H57482   6.439  10.433   6.940 -1.0599  0.9344 -1.2201
  426MOL0     H57483   6.355  10.318   6.848  1.1452 -0.2518 -0.9317
  426MOL0     H57484   6.505  10.131   6.928  0.7770  0.2230  0.2426
  426MOL0     H57485   6.582  10.257   6.830 -0.6501  1.0576  0.1911
  426MOL0     H57486   6.709  10.192   7.061 -0.3034 -0.7786 -0.9091
  426MOL0     H57487   6.584  10.291   7.132 -1.1076 -1.0980 -0.9267
  426MOL0     H57488   6.640  10.491   7.026 -1.0974 -0.9418 -1.3103
  426MOL0     H57489   6.766  10.424   7.127 -1.4622 -0.0280  0.3929
  426MOL0     H57490   5.833  10.148   7.011 -0.5450  2.8547  2.3576
  426MOL0     H57491   5.662   9.999   6.958  1.7689  0.4913  0.1312
  426MOL0     H57492   5.356   9.678   7.241  1.0005  1.2408 -0.8177
  426MOL0     H57493   5.215   9.487   7.232  1.8594  0.5214  0.3903
  426MOL0     H57494   5.773   8.327   6.498 -0.3628 -0.2149 -0.4421
  426MOL0     H57495   5.953   8.385   6.329  0.2625 -1.2016  1.1650
  426MOL0     H57496   6.220   8.713   6.182  2.7762 -1.5922  0.1496
  426MOL0     H57497   6.375   8.811   6.048 -2.6261  0.3038  1.8227
  426MOL0     H57498   6.440   8.940   5.877  2.1213  1.1985  1.3280
  426MOL0     H57499   6.511   8.930   5.710  0.3692 -1.6485 -0.2362
  426MOL0     H57500   6.663   8.746   5.805 -1.4446 -1.8402  2.9280
  426MOL0     H57501   6.614   8.785   5.963  0.3118 -0.0357  0.5688
  426MOL0     H57502   6.717   9.011   5.943 -3.3543  1.2616 -1.0842
  426MOL0     H57503   6.722   9.001   5.767 -0.4937  0.0161  0.2778
  426MOL0     H57504   6.884   8.817   5.952  0.8128 -0.8782 -0.5485
  426MOL0     H57505   6.881   8.822   5.776  0.1988  0.1258 -0.3438
  426MOL0     H57506   7.141   9.139   5.832  0.6261  0.0044 -0.2404
  426MOL0     H57507   6.200   8.624   5.703  0.5702  0.5824  0.6838
  426MOL0     H57508   5.981   8.556   5.710 -1.1936 -0.4062  0.3198
  426MOL0     H57509   6.000   8.415   5.824  0.1154  1.0795  1.1427
  426MOL0     H57510   5.890   8.545   5.854 -0.1922  2.8633 -0.8853
  427MOL0     O57511   0.419  10.389   1.948 -0.0427  0.0153  0.4082
  427MOL0     C57512   0.366  10.284   1.927  0.3045  0.5996  0.3248
  427MOL0     O57513   0.425  10.170   1.909 -0.5054  0.5211  0.2895
  427MOL0     C57514   0.559  10.154   1.904 -0.4462 -0.9009  0.7362
  427MOL0     C57515   0.651  10.213   1.987  0.5149 -0.9274 -0.3624
  427MOL0     C57516   0.785  10.204   1.976 -0.5643  0.1489  0.6791
  427MOL0     C57517   0.836  10.112   1.884 -0.0504 -0.0387 -0.0218
  427MOL0     O57518   0.974  10.092   1.889  0.0546  0.5499  0.7278
  427MOL0     C57519   1.037   9.959   1.874 -0.3581 -0.0632 -0.2584
  427MOL0     C57520   1.184   9.980   1.882 -0.6301  0.2568  0.5754
  427MOL0     C57521   1.260   9.848   1.885 -0.0752 -0.5072 -0.4374
  427MOL0     C57522   1.408   9.892   1.874 -0.2210  0.6450  0.2051
  427MOL0     C57523   1.490   9.758   1.857 -0.2625 -0.3526  0.3605
  427MOL0     C57524   1.506   9.665   1.980  0.1252 -1.1191  0.1624
  427MOL0     C57525   1.579   9.533   1.946  0.2555  0.3135 -0.2396
  427MOL0     C57526   1.601   9.459   2.082  0.9341 -0.7844  0.5942
  427MOL0     N57527   1.702   9.355   2.071  0.2981 -0.3818 -0.1148
  427MOL0     C57528   1.812   9.362   2.154  0.6696  0.1205 -0.9279
  427MOL0     C57529   1.872   9.244   2.149  0.2114 -0.1630 -0.4644
  427MOL0     C57530   1.988   9.198   2.237 -0.3164  0.0003  0.0163
  427MOL0     C57531   2.102   9.138   2.148  0.0538 -0.1357 -0.1326
  427MOL0     C57532   2.181   9.262   2.099 -0.7684 -0.3230 -0.0578
  427MOL0     C57533   2.296   9.223   2.014 -0.2611  0.8205 -0.4199
  427MOL0     O57534   2.379   9.338   1.990  0.4574 -0.6596  0.0987
  427MOL0     C57535   2.489   9.326   1.908  0.8009 -0.9062  0.1242
  427MOL0     C57536   2.565   9.212   1.888  0.8262  0.3603  0.0897
  427MOL0     C57537   2.674   9.221   1.797 -1.0128  0.5005 -0.0723
  427MOL0     C57538   2.719   9.335   1.738  0.0460 -0.7129 -0.7496
  427MOL0     C57539   2.840   9.338   1.647  0.1237  0.1524  0.9459
  427MOL0     O57540   2.930   9.236   1.658 -0.3368  0.3508 -0.0723
  427MOL0     C57541   3.029   9.218   1.557 -0.4298 -0.7128 -0.1767
  427MOL0     C57542   2.990   9.196   1.422 -0.2795  1.1503  0.4558
  427MOL0     C57543   3.075   9.161   1.320 -0.1707  0.0406  0.3594
  427MOL0     C57544   3.212   9.155   1.354 -0.8624 -1.0070 -0.0860
  427MOL0     O57545   3.310   9.168   1.255 -0.5590 -0.0767  0.0887
  427MOL0     C57546   3.321   9.046   1.192 -0.3633  0.5187 -0.7068
  427MOL0     C57547   3.441   9.046   1.095  0.9563  0.3519  0.1226
  427MOL0     C57548   3.574   9.090   1.156 -0.2251 -0.2846  0.2449
  427MOL0     C57549   3.684   9.038   1.064 -0.6983 -0.5259 -0.7358
  427MOL0     C57550   3.824   9.096   1.111 -0.0087  0.5633  0.3840
  427MOL0     C57551   3.920   9.107   0.994 -0.2784 -0.3347  0.6289
  427MOL0     C57552   3.988   8.981   0.951  0.5875  0.2008  0.8602
  427MOL0     C57553   4.103   9.000   0.856  0.4074 -0.3250 -0.2789
  427MOL0    Cl57554   4.056   9.075   0.694 -0.0429 -0.4357  0.0327
  427MOL0     C57555   3.254   9.181   1.484 -0.3814 -0.8003  0.4456
  427MOL0     C57556   3.166   9.205   1.587 -0.3256  0.6573  0.8436
  427MOL0     O57557   2.833   9.415   1.553 -0.0714 -0.4242 -0.1667
  427MOL0     C57558   2.640   9.450   1.761 -0.3386 -0.8718 -0.6184
  427MOL0     C57559   2.533   9.450   1.848 -0.0879  0.3049 -0.0071
  427MOL0     N57560   1.797   9.172   2.061 -0.0080 -0.5977  0.3880
  427MOL0     N57561   1.700   9.238   2.005 -0.0300 -0.0537 -0.5221
  427MOL0     C57562   0.748  10.032   1.803  0.1386  0.4379 -0.5702
  427MOL0     C57563   0.609  10.065   1.801  0.0498 -0.3341 -0.0890
  427MOL0     C57564   0.214  10.277   1.930  1.2089  0.3973  0.8874
  427MOL0     C57565   0.146  10.153   1.964  0.4018 -0.9323  0.4016
  427MOL0     C57566   0.008  10.142   1.943  0.2055 -0.6772  0.4232
  427MOL0     C57567  -0.065  10.249   1.901 -0.9024  0.4565 -0.0287
  427MOL0     O57568  -0.196  10.244   1.872  0.0370 -0.1732  0.2501
  427MOL0     C57569  -0.268  10.121   1.886 -0.6536 -0.1382 -0.3605
  427MOL0     C57570  -0.418  10.126   1.852  0.1477  0.0472 -0.6585
  427MOL0     C57571  -0.505  10.211   1.947 -0.3164  1.5214  0.3803
  427MOL0     C57572  -0.536  10.116   2.063 -0.2030 -0.2277  0.5574
  427MOL0     C57573  -0.641  10.007   2.036 -0.2976 -0.5900  0.5948
  427MOL0     C57574  -0.717   9.925   1.992  0.1503  0.1171 -0.5818
  427MOL0     C57575  -0.007  10.364   1.870  0.0455 -0.5665 -0.2805
  427MOL0     C57576   0.133  10.386   1.888  0.6990 -0.8065  0.1214
  427MOL0     C57577   0.183  10.525   1.850  0.5206 -0.3237 -0.0010
  427MOL0     H57578   0.609  10.298   2.040  1.6075 -0.4147 -0.2927
  427MOL0     H57579   0.848  10.240   2.057 -1.6015  2.6473  0.4458
  427MOL0     H57580   1.014   9.890   1.956 -1.5611 -0.4777 -0.9148
  427MOL0     H57581   1.006   9.922   1.776  1.9730 -0.0664 -1.0623
  427MOL0     H57582   1.211  10.049   1.963  0.7292  0.4556 -0.0189
  427MOL0     H57583   1.212  10.042   1.797 -2.4411  1.8337  1.0527
  427MOL0     H57584   1.229   9.786   1.800 -1.5989  0.2639 -0.4694
  427MOL0     H57585   1.237   9.797   1.979 -2.6445 -1.5913 -1.5535
  427MOL0     H57586   1.424   9.965   1.794 -2.0663 -1.4302 -2.2464
  427MOL0     H57587   1.445   9.947   1.961  0.9499 -0.3181  0.3515
  427MOL0     H57588   1.451   9.692   1.779  0.5218 -0.4822  0.0646
  427MOL0     H57589   1.591   9.784   1.822 -0.8726  0.4736 -0.8665
  427MOL0     H57590   1.557   9.730   2.052 -1.3717  1.6374 -1.0925
  427MOL0     H57591   1.405   9.641   2.014  0.6043 -3.9418 -0.1644
  427MOL0     H57592   1.675   9.558   1.899  0.5630 -1.4711 -0.6352
  427MOL0     H57593   1.528   9.465   1.878 -2.7234  0.1075  2.0318
  427MOL0     H57594   1.638   9.537   2.149  1.7471  1.1558 -1.9292
  427MOL0     H57595   1.506   9.410   2.106  0.8755 -0.7437  0.4444
  427MOL0     H57596   1.825   9.448   2.220  0.4077 -1.6679  1.5968
  427MOL0     H57597   2.025   9.282   2.296  0.9657 -0.7938  0.3851
  427MOL0     H57598   1.953   9.128   2.313  1.3476 -3.1139 -1.8756
  427MOL0     H57599   2.164   9.064   2.200  0.7762 -0.2748 -1.1666
  427MOL0     H57600   2.059   9.091   2.060 -0.0787  2.5295 -1.5688
  427MOL0     H57601   2.228   9.312   2.185 -1.2081 -0.8087  0.4714
  427MOL0     H57602   2.122   9.345   2.059  0.6093  1.5163  1.5087
  427MOL0     H57603   2.252   9.181   1.923 -2.1540 -1.2722  1.3313
  427MOL0     H57604   2.346   9.148   2.076 -2.2554 -0.5035 -0.3196
  427MOL0     H57605   2.525   9.117   1.924  0.1741 -1.3637 -4.4362
  427MOL0     H57606   2.730   9.130   1.781  1.0914  1.7604 -0.3285
  427MOL0     H57607   2.884   9.205   1.405 -0.5621 -0.1873  1.4077
  427MOL0     H57608   3.044   9.130   1.221  2.6049 -0.8254 -0.3565
  427MOL0     H57609   3.336   8.970   1.269 -0.1525 -0.3408 -1.5753
  427MOL0     H57610   3.221   9.031   1.148 -0.9673  2.5356 -0.1381
  427MOL0     H57611   3.451   8.941   1.065 -1.6991 -0.1025  0.5941
  427MOL0     H57612   3.415   9.111   1.012  0.1201  0.8150  0.7306
  427MOL0     H57613   3.575   9.199   1.153 -0.1920 -0.2660 -3.0521
  427MOL0     H57614   3.585   9.058   1.260  1.7604  3.5792  1.4174
  427MOL0     H57615   3.658   9.082   0.967  1.0616 -2.8922 -2.3834
  427MOL0     H57616   3.683   8.929   1.060  0.7793 -0.6087  0.2515
  427MOL0     H57617   3.863   9.035   1.193  0.8279  3.0111  1.9510
  427MOL0     H57618   3.804   9.199   1.143 -0.1044  0.7552 -0.2819
  427MOL0     H57619   3.874   9.150   0.905  1.3248  0.5440  0.1870
  427MOL0     H57620   4.000   9.175   1.025  0.0483  0.5876 -2.0190
  427MOL0     H57621   3.932   8.910   0.889  2.7246  0.6722 -1.8652
  427MOL0     H57622   4.031   8.919   1.030 -1.7297  0.0837  2.0857
  427MOL0     H57623   4.184   9.054   0.904  1.4426 -1.8839 -0.1902
  427MOL0     H57624   4.146   8.900   0.845 -0.7861 -1.0979  1.5562
  427MOL0     H57625   3.361   9.186   1.502 -0.4155 -1.1884  0.7733
  427MOL0     H57626   3.194   9.220   1.691  1.0815  3.7539  0.1022
  427MOL0     H57627   2.674   9.540   1.711 -0.3558 -0.9854 -0.8364
  427MOL0     H57628   2.476   9.542   1.863 -1.3564 -0.5451  0.5370
  427MOL0     H57629   0.791   9.945   1.753  2.1924  1.4897 -0.7527
  427MOL0     H57630   0.534  10.013   1.742 -1.5161  0.6424  0.9544
  427MOL0     H57631   0.194  10.063   2.002 -1.4645 -1.5886  1.3783
  427MOL0     H57632  -0.042  10.047   1.955  0.1249 -0.9864 -1.8222
  427MOL0     H57633  -0.247  10.083   1.986  0.3224  1.5011  0.0995
  427MOL0     H57634  -0.221  10.056   1.811  0.4368 -0.3529  0.4810
  427MOL0     H57635  -0.465  10.027   1.849  0.1807 -0.0241  0.6074
  427MOL0     H57636  -0.420  10.182   1.758 -1.4426  0.1335 -0.6011
  427MOL0     H57637  -0.603  10.223   1.900 -0.5539 -0.8663  0.1115
  427MOL0     H57638  -0.464  10.305   1.983  0.3570  0.8028  1.5663
  427MOL0     H57639  -0.446  10.062   2.092  0.4749 -1.8206 -3.7151
  427MOL0     H57640  -0.580  10.168   2.149 -2.1218  1.6695 -1.4157
  427MOL0     H57641  -0.799   9.858   1.972 -1.0630  0.5709  2.2942
  427MOL0     H57642  -0.068  10.450   1.845  2.6236  1.1426 -1.1318
  427MOL0     H57643   0.183  10.589   1.939  3.0940  1.8180 -1.3699
  427MOL0     H57644   0.283  10.533   1.805  0.4802  0.9954  0.0848
  427MOL0     H57645   0.125  10.571   1.770  2.2240 -1.1270 -1.7894
  428MOL0     O57646   0.156   2.334   1.812  0.1736  0.1490 -0.2867
  428MOL0     C57647   0.194   2.230   1.756  0.3474  0.0172  0.5753
  428MOL0     O57648   0.312   2.214   1.679 -0.1006 -0.2397 -0.1251
  428MOL0     C57649   0.414   2.302   1.685 -0.0274  0.5130 -0.1791
  428MOL0     C57650   0.434   2.396   1.581  0.3655  0.3092 -0.1990
  428MOL0     C57651   0.539   2.480   1.581  0.1891  0.4157  0.4194
  428MOL0     C57652   0.643   2.465   1.677  0.5406 -0.5760  0.0500
  428MOL0     O57653   0.758   2.545   1.665  0.1196 -0.2922 -0.5842
  428MOL0     C57654   0.774   2.655   1.758 -0.3696 -0.1795  0.0437
  428MOL0     C57655   0.886   2.750   1.705 -0.0865  0.6849 -0.0028
  428MOL0     C57656   0.868   2.893   1.751 -0.8647 -0.1799 -0.0765
  428MOL0     C57657   0.920   2.903   1.897  0.0268 -0.3535  0.4501
  428MOL0     C57658   0.920   3.040   1.964 -0.3597 -0.7063 -0.0631
  428MOL0     C57659   0.926   3.026   2.113  0.2667 -0.3825  0.2544
  428MOL0     C57660   1.051   2.970   2.173  0.2019 -0.4411  0.4446
  428MOL0     C57661   1.016   2.949   2.320 -0.7662  0.2649 -0.0263
  428MOL0     N57662   1.136   2.910   2.384 -0.0477  0.7078  0.0878
  428MOL0     C57663   1.231   2.820   2.336  0.2923  0.7013 -0.6479
  428MOL0     C57664   1.326   2.813   2.435 -0.9892  0.5229 -0.0003
  428MOL0     C57665   1.452   2.727   2.424 -0.0872 -0.9176  0.3045
  428MOL0     C57666   1.456   2.636   2.548  0.1591 -0.7370  0.2945
  428MOL0     C57667   1.555   2.523   2.533  0.1684 -0.8207  0.1617
  428MOL0     C57668   1.705   2.566   2.547  0.1146 -0.8662 -0.0253
  428MOL0     O57669   1.804   2.464   2.516 -0.2907 -0.3760 -0.1356
  428MOL0     C57670   1.936   2.491   2.546  0.1416 -0.8259 -0.4311
  428MOL0     C57671   2.027   2.384   2.558  1.2992  0.4635  0.0162
  428MOL0     C57672   2.158   2.406   2.586 -0.2336 -0.5936 -0.8721
  428MOL0     C57673   2.207   2.536   2.613 -0.4179  0.1202 -0.5635
  428MOL0     C57674   2.349   2.571   2.649 -0.8258  0.6467 -0.1502
  428MOL0     O57675   2.383   2.696   2.686  0.4797 -1.2718  0.3999
  428MOL0     C57676   2.517   2.734   2.697 -1.5965  0.5713 -0.4908
  428MOL0     C57677   2.584   2.819   2.607 -0.3208 -0.0481 -0.8824
  428MOL0     C57678   2.718   2.847   2.627 -0.6750  0.2650 -0.1572
  428MOL0     C57679   2.795   2.786   2.726  0.1880 -0.4830 -0.8451
  428MOL0     O57680   2.928   2.822   2.738  0.4771  0.8601 -0.9151
  428MOL0     C57681   2.976   2.851   2.865  0.9124 -0.0407 -0.7842
  428MOL0     C57682   3.100   2.940   2.849  0.2665  0.3967 -0.1302
  428MOL0     C57683   3.186   2.920   2.975 -0.0058  0.1783 -0.5064
  428MOL0     C57684   3.310   3.003   2.952 -0.3551  0.7042 -0.0626
  428MOL0     C57685   3.421   2.967   3.049 -0.3142  0.3643  0.2734
  428MOL0     C57686   3.549   3.054   3.012 -0.5948  0.8030 -0.3033
  428MOL0     C57687   3.675   3.006   3.091  0.8585  0.4368 -0.0527
  428MOL0     C57688   3.722   2.867   3.043  0.3541 -0.1915  0.5456
  428MOL0    Cl57689   3.861   2.818   3.140  0.1186 -0.3112 -0.0074
  428MOL0     C57690   2.727   2.694   2.822 -0.1442  0.4401  0.4511
  428MOL0     C57691   2.587   2.686   2.809  0.4703 -0.0698 -0.2948
  428MOL0     O57692   2.422   2.476   2.663 -0.1854  0.2223 -0.4332
  428MOL0     C57693   2.115   2.644   2.607 -0.3423  0.6621  0.1751
  428MOL0     C57694   1.978   2.622   2.583 -0.5321 -0.3243 -0.3011
  428MOL0     N57695   1.288   2.901   2.535  0.9064  0.0614 -0.1363
  428MOL0     N57696   1.173   2.956   2.505 -0.4765 -0.4262  0.4749
  428MOL0     C57697   0.637   2.367   1.775  0.5219 -0.0864  0.6276
  428MOL0     C57698   0.519   2.283   1.778  0.1396  0.0841 -0.6707
  428MOL0     C57699   0.083   2.136   1.741 -0.0640 -0.1385  0.7322
  428MOL0     C57700  -0.017   2.173   1.649  0.7325  0.1032  0.2029
  428MOL0     C57701  -0.121   2.080   1.635  0.0831 -0.3752 -0.2467
  428MOL0     C57702  -0.128   1.960   1.699 -0.3302 -0.1264  0.3875
  428MOL0     O57703  -0.238   1.869   1.690 -0.0913  0.0518 -0.2599
  428MOL0     C57704  -0.346   1.888   1.588  0.0020  0.0593  0.0806
  428MOL0     C57705  -0.466   1.962   1.645 -0.5633  0.1066  0.0423
  428MOL0     C57706  -0.579   1.986   1.544 -0.4260  0.2501  0.0958
  428MOL0     C57707  -0.646   1.851   1.490 -0.4654  0.5679 -0.8044
  428MOL0     C57708  -0.772   1.881   1.423 -0.0228  0.6490 -0.0661
  428MOL0     C57709  -0.869   1.905   1.356  1.2215  0.5577  0.9169
  428MOL0     C57710  -0.025   1.914   1.788 -0.3470 -0.2796  0.1518
  428MOL0     C57711   0.084   2.003   1.800 -0.1055  0.5958  0.4551
  428MOL0     C57712   0.188   1.952   1.897 -0.1593 -0.1173  0.5281
  428MOL0     H57713   0.361   2.405   1.501  1.2595  0.8477 -0.9803
  428MOL0     H57714   0.548   2.563   1.513  0.9189  0.0239  0.0222
  428MOL0     H57715   0.683   2.715   1.765  0.8466  1.8245 -0.4502
  428MOL0     H57716   0.801   2.625   1.860 -1.3066  0.2922  0.4389
  428MOL0     H57717   0.874   2.748   1.596  0.7065  0.9317 -0.1001
  428MOL0     H57718   0.981   2.699   1.726  0.5028 -0.1429 -3.8166
  428MOL0     H57719   0.767   2.931   1.740 -1.7389 -2.2854  0.1441
  428MOL0     H57720   0.935   2.951   1.687  0.2694 -2.1549 -0.7654
  428MOL0     H57721   0.862   2.838   1.963 -0.2546 -0.0279  0.5264
  428MOL0     H57722   1.025   2.872   1.893  0.9037  2.2042  1.5037
  428MOL0     H57723   1.003   3.101   1.928  0.4899 -0.5531  2.0276
  428MOL0     H57724   0.825   3.085   1.933  0.1791 -0.0966 -0.8579
  428MOL0     H57725   0.913   3.125   2.156  0.3241 -0.3648  0.2306
  428MOL0     H57726   0.843   2.960   2.144 -0.9341  0.6886 -0.5961
  428MOL0     H57727   1.129   3.045   2.154 -1.8037  2.0466  1.4559
  428MOL0     H57728   1.064   2.871   2.129 -0.8406 -0.5409  0.3500
  428MOL0     H57729   0.991   3.045   2.365  2.4859  0.2453  2.1645
  428MOL0     H57730   0.945   2.869   2.343  1.8074 -2.1264  0.2213
  428MOL0     H57731   1.229   2.749   2.253 -0.6705 -0.1167  0.0542
  428MOL0     H57732   1.442   2.660   2.337 -0.0231 -1.3537  0.6279
  428MOL0     H57733   1.532   2.797   2.399 -2.3421  0.5333 -3.9119
  428MOL0     H57734   1.487   2.692   2.637 -1.6472 -0.3103  0.7060
  428MOL0     H57735   1.357   2.590   2.559  0.5678 -2.6604 -2.8806
  428MOL0     H57736   1.537   2.468   2.440  0.7110  2.5052 -2.1102
  428MOL0     H57737   1.534   2.453   2.614 -0.3724 -2.1456 -1.0883
  428MOL0     H57738   1.709   2.597   2.652 -1.5821 -1.3336  0.2056
  428MOL0     H57739   1.709   2.658   2.488  0.3839  0.3422  1.7913
  428MOL0     H57740   1.996   2.280   2.556  2.1658  0.1868 -2.6267
  428MOL0     H57741   2.219   2.321   2.615  1.3323  1.0498  0.8668
  428MOL0     H57742   2.528   2.856   2.521  1.0339  3.2431 -0.5157
  428MOL0     H57743   2.770   2.916   2.560 -1.6640  0.3181 -0.8906
  428MOL0     H57744   2.901   2.905   2.924  1.4251 -0.6046  0.4103
  428MOL0     H57745   3.009   2.756   2.908  1.3912  0.0957 -0.8521
  428MOL0     H57746   3.165   2.914   2.765  1.3900 -1.2403  1.1857
  428MOL0     H57747   3.073   3.045   2.832 -0.0980  0.3085 -0.1061
  428MOL0     H57748   3.123   2.960   3.055 -0.0354 -2.2551  0.7653
  428MOL0     H57749   3.200   2.814   2.997 -0.0853 -0.3197 -2.5982
  428MOL0     H57750   3.297   3.112   2.950  0.6265  0.8898  1.8919
  428MOL0     H57751   3.347   2.986   2.850 -1.1322  1.2525 -0.4518
  428MOL0     H57752   3.437   2.861   3.025 -1.5987  0.6107 -1.9064
  428MOL0     H57753   3.396   2.983   3.154 -1.3098  3.6431 -0.3721
  428MOL0     H57754   3.559   3.048   2.903 -2.0697  1.4434 -0.4897
  428MOL0     H57755   3.534   3.158   3.040  1.6619  0.1598  4.3362
  428MOL0     H57756   3.644   2.997   3.195 -2.7901  1.3754 -0.9301
  428MOL0     H57757   3.754   3.081   3.078  1.6494 -0.7540 -2.8067
  428MOL0     H57758   3.644   2.791   3.050  1.1152 -0.9117  1.2356
  428MOL0     H57759   3.744   2.875   2.936 -3.1194 -4.6626 -0.8148
  428MOL0     H57760   2.768   2.640   2.907 -3.1924 -1.0885  1.0991
  428MOL0     H57761   2.529   2.631   2.883  2.4287 -1.5540  0.2297
  428MOL0     H57762   2.159   2.738   2.639  1.3600 -0.4332  1.1636
  428MOL0     H57763   1.916   2.711   2.576 -0.4961 -0.4372 -3.0505
  428MOL0     H57764   0.700   2.357   1.863  1.7212  0.0585 -0.1969
  428MOL0     H57765   0.509   2.207   1.854 -0.0761 -0.8951 -1.6595
  428MOL0     H57766  -0.010   2.269   1.599 -3.2893  0.3511 -0.2082
  428MOL0     H57767  -0.197   2.116   1.567 -0.6432 -1.6763 -0.1488
  428MOL0     H57768  -0.393   1.792   1.563 -0.1986  0.4079 -0.9158
  428MOL0     H57769  -0.306   1.924   1.493 -3.6222 -0.2806 -1.7569
  428MOL0     H57770  -0.420   2.055   1.680  1.3449  0.1335 -2.2657
  428MOL0     H57771  -0.513   1.920   1.734  1.5591 -1.1422  0.6331
  428MOL0     H57772  -0.542   2.038   1.456  1.0095 -2.0791 -0.7910
  428MOL0     H57773  -0.641   2.057   1.599  1.5243 -0.3452  3.3896
  428MOL0     H57774  -0.573   1.801   1.426  0.0633 -0.2667  0.4051
  428MOL0     H57775  -0.672   1.777   1.567  0.8927  1.2853  0.3956
  428MOL0     H57776  -0.948   1.926   1.285  1.0105 -0.9468  0.6778
  428MOL0     H57777  -0.012   1.818   1.838  2.8604  0.5221  1.0979
  428MOL0     H57778   0.172   2.004   1.992 -3.2686  0.0719  0.0148
  428MOL0     H57779   0.176   1.846   1.918  0.4304 -0.2325  0.2851
  428MOL0     H57780   0.291   1.960   1.861 -0.8248 -1.2982 -1.8399
  429MOL0     O57781   4.492   7.557   7.106  0.5716 -0.2648  0.0860
  429MOL0     C57782   4.520   7.682   7.096  0.5735  0.7314  0.2317
  429MOL0     O57783   4.653   7.728   7.096  0.0963  0.5629  0.2142
  429MOL0     C57784   4.769   7.655   7.110 -0.9600  0.7639  0.0931
  429MOL0     C57785   4.789   7.519   7.104  0.0857 -0.5813  1.0704
  429MOL0     C57786   4.912   7.462   7.124 -0.4653 -0.4251  0.6995
  429MOL0     C57787   5.027   7.544   7.137 -0.5102  0.6778  0.1623
  429MOL0     O57788   5.157   7.499   7.126 -0.6231 -0.1552 -0.9832
  429MOL0     C57789   5.184   7.369   7.071 -0.4754 -0.1861  0.7998
  429MOL0     C57790   5.229   7.277   7.187  0.5743 -0.6612  0.7212
  429MOL0     C57791   5.373   7.230   7.187 -0.3023 -0.0273 -0.2519
  429MOL0     C57792   5.420   7.189   7.331 -0.9780 -0.4895 -0.0834
  429MOL0     C57793   5.562   7.129   7.339  0.2556  0.3188 -1.0299
  429MOL0     C57794   5.679   7.224   7.300 -0.5700 -0.3334 -0.0074
  429MOL0     C57795   5.820   7.167   7.344 -0.6126 -0.1681  0.6696
  429MOL0     C57796   5.872   7.067   7.240 -0.1691  0.4632  0.7045
  429MOL0     N57797   6.003   7.007   7.287  0.2182 -0.4323 -0.0636
  429MOL0     C57798   6.134   7.044   7.255  0.5694 -0.4466  0.0894
  429MOL0     C57799   6.216   6.988   7.337 -0.4735 -0.4276 -0.1813
  429MOL0     C57800   6.362   7.006   7.348 -0.6876 -0.4309 -0.1232
  429MOL0     C57801   6.451   6.885   7.316  0.2340  0.3386  0.4427
  429MOL0     C57802   6.603   6.911   7.320  0.0478  0.0061 -0.3649
  429MOL0     C57803   6.683   6.798   7.254  0.7164 -0.5127  0.5451
  429MOL0     O57804   6.819   6.840   7.263  0.0407  0.7050  0.1821
  429MOL0     C57805   6.905   6.770   7.179  0.1351  0.5066 -0.6149
  429MOL0     C57806   6.880   6.651   7.111 -0.3861  1.1656  0.0482
  429MOL0     C57807   6.970   6.605   7.014  0.0120  0.6138  0.2619
  429MOL0     C57808   7.086   6.679   6.985 -0.0221  0.0255  0.2497
  429MOL0     C57809   7.191   6.632   6.884  0.7921 -0.5055 -1.1860
  429MOL0     O57810   7.301   6.707   6.862  0.5438 -0.3726  0.3879
  429MOL0     C57811   7.402   6.644   6.799  0.2529 -0.2292  0.5090
  429MOL0     C57812   7.507   6.597   6.876 -0.6363  0.2612 -0.7684
  429MOL0     C57813   7.620   6.540   6.819 -0.7286  0.2964 -1.1574
  429MOL0     C57814   7.636   6.531   6.683  0.6737  0.3177  0.2134
  429MOL0     O57815   7.759   6.478   6.646 -0.3901  0.1172 -0.2859
  429MOL0     C57816   7.785   6.471   6.506  0.2979  0.3486  0.3554
  429MOL0     C57817   7.906   6.382   6.467  0.3791  0.4216 -0.5329
  429MOL0     C57818   8.038   6.454   6.512 -0.1747 -0.1950  0.1738
  429MOL0     C57819   8.162   6.362   6.508  1.4051 -0.1148  0.1352
  429MOL0     C57820   8.288   6.438   6.560 -0.4236 -0.1588  0.3886
  429MOL0     C57821   8.417   6.351   6.542 -0.4008 -0.2186  1.0320
  429MOL0     C57822   8.540   6.432   6.502  0.1681 -0.8164 -0.2724
  429MOL0     C57823   8.665   6.352   6.518  0.0014  0.5669  0.1631
  429MOL0    Cl57824   8.664   6.216   6.408  0.0458  0.2086 -0.1865
  429MOL0     C57825   7.536   6.579   6.601  0.3282  0.3415 -0.4368
  429MOL0     C57826   7.425   6.636   6.654 -0.1827 -0.7714 -1.0017
  429MOL0     O57827   7.167   6.525   6.833 -0.6068 -0.0392  0.0583
  429MOL0     C57828   7.104   6.799   7.046 -0.4589  0.6235 -0.0483
  429MOL0     C57829   7.019   6.846   7.140 -0.5290  0.3780  0.2349
  429MOL0     N57830   6.142   6.917   7.427 -0.3459 -1.2131 -0.2527
  429MOL0     N57831   6.016   6.927   7.399 -0.7378 -0.2700 -0.1325
  429MOL0     C57832   5.016   7.683   7.138  0.5480  0.2514  0.0532
  429MOL0     C57833   4.888   7.733   7.124  0.0351 -1.1480 -0.0683
  429MOL0     C57834   4.411   7.791   7.073 -0.3824  0.8152 -0.3340
  429MOL0     C57835   4.455   7.921   7.040 -0.5123 -0.0268 -0.0405
  429MOL0     C57836   4.372   8.031   7.020  0.6293  0.6470  0.1468
  429MOL0     C57837   4.236   8.000   7.011 -0.4453 -0.2229  0.3560
  429MOL0     O57838   4.157   8.108   6.984  0.0185 -0.4477  0.0274
  429MOL0     C57839   4.016   8.086   6.984 -0.5275 -0.3396  0.1240
  429MOL0     C57840   3.948   8.220   6.995 -0.9063  0.2810  1.0681
  429MOL0     C57841   3.794   8.220   6.995  0.2874 -0.0473  0.1887
  429MOL0     C57842   3.730   8.354   7.010  0.3867 -0.2305  0.2963
  429MOL0     C57843   3.593   8.346   7.049 -0.0376  0.1151  0.6872
  429MOL0     C57844   3.471   8.335   7.080 -0.2011  0.1442 -0.4257
  429MOL0     C57845   4.188   7.874   7.050 -0.6848 -0.3402  0.2641
  429MOL0     C57846   4.272   7.769   7.077 -0.2186 -0.7281 -0.0927
  429MOL0     C57847   4.206   7.649   7.138 -0.4283 -0.0296 -0.2502
  429MOL0     H57848   4.704   7.453   7.089 -0.2332 -0.2239  1.2708
  429MOL0     H57849   4.918   7.358   7.094  0.7364  0.4274 -2.3992
  429MOL0     H57850   5.104   7.315   7.019  0.0195 -0.1763  0.0047
  429MOL0     H57851   5.257   7.373   6.989 -1.1916  0.0736  0.1702
  429MOL0     H57852   5.162   7.190   7.191  1.7483 -1.6285 -0.0596
  429MOL0     H57853   5.213   7.337   7.277 -2.6300  2.6839 -1.7884
  429MOL0     H57854   5.429   7.318   7.155 -0.1560  0.7344  1.8870
  429MOL0     H57855   5.388   7.142   7.125 -0.2480 -1.8386  2.1612
  429MOL0     H57856   5.417   7.278   7.395 -3.9771 -0.6685  0.1677
  429MOL0     H57857   5.349   7.123   7.383 -1.2439 -0.3068 -0.2074
  429MOL0     H57858   5.584   7.103   7.443 -1.1575  0.7243 -0.6151
  429MOL0     H57859   5.563   7.039   7.277  2.2608 -0.6728  0.3122
  429MOL0     H57860   5.681   7.249   7.193  4.8898 -0.4508 -0.1916
  429MOL0     H57861   5.663   7.317   7.356 -4.3295 -1.1545  0.5772
  429MOL0     H57862   5.811   7.129   7.447 -0.8334  0.7508  1.0024
  429MOL0     H57863   5.893   7.248   7.355  0.9700 -1.3997 -0.3251
  429MOL0     H57864   5.802   6.986   7.221 -1.2430  1.5485 -0.0794
  429MOL0     H57865   5.894   7.117   7.145  0.8741 -0.3873  0.4685
  429MOL0     H57866   6.162   7.108   7.172  0.9707 -2.0958 -1.0965
  429MOL0     H57867   6.395   7.072   7.268  1.1345 -0.5833  0.4485
  429MOL0     H57868   6.383   7.054   7.444 -0.9980  4.9991 -2.4489
  429MOL0     H57869   6.424   6.812   7.393 -3.2562  1.1778  0.1828
  429MOL0     H57870   6.425   6.842   7.219  0.9183 -2.6959  1.4968
  429MOL0     H57871   6.637   6.923   7.423 -0.8317 -0.0423 -0.0566
  429MOL0     H57872   6.617   7.004   7.263 -0.5439 -0.2360 -0.9195
  429MOL0     H57873   6.653   6.793   7.149  0.0178 -1.6014  0.7692
  429MOL0     H57874   6.670   6.700   7.302  2.2602 -1.0324 -0.0417
  429MOL0     H57875   6.795   6.591   7.140  0.5395 -0.6037 -0.7680
  429MOL0     H57876   6.953   6.514   6.957 -0.2837  1.2258 -0.6492
  429MOL0     H57877   7.495   6.607   6.983  1.7364 -1.0230 -0.3143
  429MOL0     H57878   7.686   6.498   6.895 -0.1846  1.4223 -0.9924
  429MOL0     H57879   7.701   6.425   6.452  0.3298  0.5608  0.1263
  429MOL0     H57880   7.793   6.576   6.477  1.6173  0.3824  0.8054
  429MOL0     H57881   7.906   6.284   6.516  2.6491 -0.0588 -1.3962
  429MOL0     H57882   7.910   6.368   6.359 -2.4811  1.1981 -0.8280
  429MOL0     H57883   8.054   6.545   6.455  2.8688 -0.0129  1.1568
  429MOL0     H57884   8.027   6.495   6.613  0.5653  0.4593 -0.0053
  429MOL0     H57885   8.175   6.313   6.411 -0.5852 -0.7082  0.1209
  429MOL0     H57886   8.137   6.280   6.575  1.1906 -0.5342 -0.4508
  429MOL0     H57887   8.280   6.473   6.663  0.2496  1.0065  0.0692
  429MOL0     H57888   8.295   6.534   6.508  0.7302  1.3550  3.1136
  429MOL0     H57889   8.433   6.297   6.635 -1.1369  0.8465  1.7932
  429MOL0     H57890   8.415   6.275   6.463  1.6693 -0.6149  1.2902
  429MOL0     H57891   8.537   6.525   6.559 -2.4769  0.1286 -1.8018
  429MOL0     H57892   8.532   6.468   6.399  0.9059  3.0362  0.8719
  429MOL0     H57893   8.748   6.419   6.494 -1.3169  3.3841  2.7995
  429MOL0     H57894   8.676   6.330   6.625  0.4362 -0.1537 -0.0263
  429MOL0     H57895   7.554   6.584   6.494 -0.9774 -1.0508 -0.7516
  429MOL0     H57896   7.346   6.685   6.599  1.6088  0.6066 -2.4891
  429MOL0     H57897   7.195   6.853   7.021  0.7566 -0.5085  1.7478
  429MOL0     H57898   7.032   6.947   7.179  1.9750  0.0696  0.4188
  429MOL0     H57899   5.110   7.737   7.148 -0.3326  1.5660  1.8008
  429MOL0     H57900   4.876   7.840   7.132 -0.8535 -1.2242 -0.2474
  429MOL0     H57901   4.561   7.940   7.055 -0.6396  1.2203 -0.5301
  429MOL0     H57902   4.405   8.134   7.021  1.1458  0.4891  1.4207
  429MOL0     H57903   3.989   8.022   7.069  0.6883 -1.1953 -0.1134
  429MOL0     H57904   3.991   8.034   6.890  2.0768 -1.3069 -0.1077
  429MOL0     H57905   3.973   8.273   6.902 -0.8439 -1.2654  0.1710
  429MOL0     H57906   3.985   8.268   7.086  1.6901 -1.9139  1.3005
  429MOL0     H57907   3.770   8.165   7.086 -1.2615 -0.8271 -0.6519
  429MOL0     H57908   3.753   8.164   6.911 -1.7397 -0.8068  1.6171
  429MOL0     H57909   3.774   8.407   7.094 -0.9382 -1.2126  1.6556
  429MOL0     H57910   3.746   8.418   6.922 -1.7166 -0.5504 -0.3785
  429MOL0     H57911   3.370   8.319   7.112  0.8250 -0.3657  3.0546
  429MOL0     H57912   4.084   7.844   7.059 -0.1386 -2.5184 -0.0545
  429MOL0     H57913   4.267   7.627   7.225 -1.6148 -1.8484  0.1693
  429MOL0     H57914   4.106   7.668   7.178  0.1330  1.0686  0.7099
  429MOL0     H57915   4.201   7.566   7.067 -1.9176 -0.9427  0.8530
  430MOL0     O57916   3.564   1.739   5.569  0.6772 -0.4951  0.4175
  430MOL0     C57917   3.523   1.750   5.453  0.1258 -0.0620 -0.1480
  430MOL0     O57918   3.597   1.745   5.342 -0.1051  0.3210 -0.3845
  430MOL0     C57919   3.732   1.722   5.322  0.3198  0.3056  0.8286
  430MOL0     C57920   3.777   1.700   5.192 -0.3137 -0.1232 -0.3467
  430MOL0     C57921   3.913   1.682   5.164  1.0722  0.2183 -0.2584
  430MOL0     C57922   4.014   1.675   5.265  0.5482  0.3885  0.3652
  430MOL0     O57923   4.148   1.654   5.240 -0.2896 -0.4781 -0.0979
  430MOL0     C57924   4.188   1.651   5.104 -0.8432  0.1658  0.1759
  430MOL0     C57925   4.338   1.642   5.089 -0.7871  0.2680  0.7820
  430MOL0     C57926   4.408   1.778   5.103 -0.8385  0.6075  0.3858
  430MOL0     C57927   4.562   1.769   5.143  0.1811 -0.1119  1.2374
  430MOL0     C57928   4.634   1.656   5.075  0.0766  0.6211 -0.4713
  430MOL0     C57929   4.777   1.643   5.125  0.4563  0.0370  0.0510
  430MOL0     C57930   4.876   1.739   5.068  0.1738  0.2730  0.1949
  430MOL0     C57931   5.015   1.713   5.131  0.2624  0.5652 -0.1072
  430MOL0     N57932   5.117   1.814   5.096 -0.2419  0.2744  0.7706
  430MOL0     C57933   5.123   1.946   5.141 -0.9644 -0.5384 -1.1164
  430MOL0     C57934   5.213   2.005   5.058 -0.1967 -0.3442  0.3391
  430MOL0     C57935   5.246   2.151   5.084 -0.2336 -1.3815 -0.3614
  430MOL0     C57936   5.321   2.181   5.214  0.1348  0.0907 -0.4065
  430MOL0     C57937   5.371   2.330   5.215  0.4042 -0.2841  0.1554
  430MOL0     C57938   5.512   2.351   5.163 -0.2628 -0.0012  0.7649
  430MOL0     O57939   5.613   2.314   5.253  0.3761 -0.9230 -0.5300
  430MOL0     C57940   5.679   2.417   5.310  0.8515 -0.5668  0.3980
  430MOL0     C57941   5.625   2.500   5.411  1.1896 -0.3901  0.1257
  430MOL0     C57942   5.698   2.607   5.472  0.1030 -0.3084 -0.3066
  430MOL0     C57943   5.833   2.620   5.443 -0.6745  0.4564  0.1280
  430MOL0     C57944   5.912   2.723   5.513 -0.1504  0.6039  0.7720
  430MOL0     O57945   5.858   2.792   5.618  0.2247  0.2908 -0.0209
  430MOL0     C57946   5.939   2.879   5.672 -0.4773  0.7203  0.0483
  430MOL0     C57947   5.973   3.002   5.621  0.0411 -1.1200  0.6142
  430MOL0     C57948   6.050   3.087   5.693 -0.5939 -0.2723  0.7613
  430MOL0     C57949   6.105   3.059   5.817  0.6266  0.1502  0.2182
  430MOL0     O57950   6.174   3.141   5.906 -0.6496  0.6648 -0.1356
  430MOL0     C57951   6.279   3.219   5.853 -0.2984  0.3666  0.3694
  430MOL0     C57952   6.408   3.173   5.912 -0.5624  0.7405  0.3042
  430MOL0     C57953   6.531   3.256   5.873 -0.2172 -0.0806  0.7702
  430MOL0     C57954   6.584   3.223   5.728  0.0529 -0.9646 -0.3857
  430MOL0     C57955   6.676   3.340   5.666  0.0572  0.6053  0.2323
  430MOL0     C57956   6.810   3.355   5.740  0.4261 -0.4671  0.0609
  430MOL0     C57957   6.882   3.460   5.663  0.1548  0.1237  1.3079
  430MOL0     C57958   7.002   3.533   5.735 -0.1249  0.3398 -0.5299
  430MOL0    Cl57959   7.123   3.555   5.603  0.0899 -0.4050  0.3398
  430MOL0     C57960   6.077   2.929   5.867 -0.3749 -0.5786  0.2243
  430MOL0     C57961   5.995   2.843   5.790 -0.1798 -0.0196  0.2431
  430MOL0     O57962   6.028   2.733   5.466 -0.0486  0.3118  0.1495
  430MOL0     C57963   5.889   2.532   5.349  0.0165  0.5910  0.4877
  430MOL0     C57964   5.814   2.432   5.281 -0.4704 -0.0127  0.1744
  430MOL0     N57965   5.252   1.917   4.957  0.0925 -0.2549 -0.1251
  430MOL0     N57966   5.197   1.803   4.985  0.0842 -0.3454  0.3533
  430MOL0     C57967   3.961   1.689   5.396  0.3204  0.0043 -0.1730
  430MOL0     C57968   3.829   1.713   5.426 -0.2809  0.9191  0.7100
  430MOL0     C57969   3.369   1.774   5.436 -0.7781  0.0861 -0.0001
  430MOL0     C57970   3.327   1.864   5.340  0.5383  0.1898  0.5484
  430MOL0     C57971   3.193   1.875   5.314  0.4280  0.6462 -0.1541
  430MOL0     C57972   3.099   1.807   5.396 -0.3378  0.8611 -0.3152
  430MOL0     O57973   2.964   1.811   5.382  0.3893 -0.3084 -0.2295
  430MOL0     C57974   2.918   1.816   5.246 -0.0549  0.1007 -0.3133
  430MOL0     C57975   2.782   1.756   5.244  0.1695  0.0248  0.7547
  430MOL0     C57976   2.720   1.739   5.110  0.0646 -0.2301  0.6690
  430MOL0     C57977   2.627   1.857   5.068  0.5297 -0.2293 -0.0910
  430MOL0     C57978   2.613   1.863   4.921  0.1568  0.4109  0.2696
  430MOL0     C57979   2.609   1.863   4.797  0.2619  0.1571  0.4749
  430MOL0     C57980   3.140   1.711   5.486 -0.0234 -0.2435 -0.3494
  430MOL0     C57981   3.276   1.697   5.505  0.3810 -0.7051 -0.5069
  430MOL0     C57982   3.314   1.584   5.602  0.0782 -0.2472  0.7411
  430MOL0     H57983   3.711   1.723   5.109 -2.3655  0.5053  1.3903
  430MOL0     H57984   3.939   1.677   5.058  0.7958 -1.4545 -0.2784
  430MOL0     H57985   4.139   1.571   5.047  0.9520 -0.1189 -1.0406
  430MOL0     H57986   4.155   1.746   5.061 -1.3381 -0.4337 -0.8011
  430MOL0     H57987   4.360   1.607   4.988  2.1977  4.2187 -0.2094
  430MOL0     H57988   4.378   1.578   5.168  3.6277  2.5225  0.6937
  430MOL0     H57989   4.364   1.832   5.187 -0.4138 -1.7043  2.1963
  430MOL0     H57990   4.382   1.830   5.011 -0.1389 -1.9774 -1.3895
  430MOL0     H57991   4.611   1.863   5.115 -1.5283  0.3408 -0.4154
  430MOL0     H57992   4.561   1.760   5.252  1.7216 -0.7511  1.2243
  430MOL0     H57993   4.582   1.565   5.109  0.5031  1.6240  3.2971
  430MOL0     H57994   4.637   1.658   4.966  3.6339 -1.3155 -0.5770
  430MOL0     H57995   4.780   1.659   5.234  1.1169  1.7592 -0.1888
  430MOL0     H57996   4.802   1.542   5.093 -1.3370 -0.2281 -0.6187
  430MOL0     H57997   4.856   1.845   5.079  2.6989  0.5738  3.1610
  430MOL0     H57998   4.891   1.717   4.961  0.2908 -2.5261  0.7055
  430MOL0     H57999   5.008   1.692   5.238  0.2230  0.3451 -0.1518
  430MOL0     H58000   5.047   1.617   5.090 -1.7895  0.0322 -0.5859
  430MOL0     H58001   5.087   1.980   5.238  0.2023 -1.9845 -0.1336
  430MOL0     H58002   5.308   2.172   4.996 -1.9354 -2.0268 -1.7616
  430MOL0     H58003   5.156   2.212   5.089 -0.1795 -1.1442 -1.7134
  430MOL0     H58004   5.252   2.166   5.297 -0.1561  2.4482 -0.1508
  430MOL0     H58005   5.414   2.127   5.231 -0.5439 -0.6295  1.1475
  430MOL0     H58006   5.371   2.366   5.318  0.4550  0.2815 -0.0403
  430MOL0     H58007   5.294   2.394   5.171 -0.0649 -0.9627 -0.0326
  430MOL0     H58008   5.515   2.455   5.129  1.8037  0.0534  1.0379
  430MOL0     H58009   5.516   2.285   5.075 -1.6079  0.1800  0.5311
  430MOL0     H58010   5.521   2.478   5.430  0.7184  1.9625  0.6238
  430MOL0     H58011   5.656   2.679   5.541 -0.6526  1.4447 -2.5113
  430MOL0     H58012   5.923   3.048   5.537  1.3164  1.3064  1.0953
  430MOL0     H58013   6.060   3.189   5.658 -1.5719 -0.3107  0.3374
  430MOL0     H58014   6.283   3.222   5.744 -3.6599  2.0642  0.1763
  430MOL0     H58015   6.271   3.322   5.889  0.9061  1.0305 -1.1540
  430MOL0     H58016   6.386   3.168   6.019 -1.8847  1.2087  0.0740
  430MOL0     H58017   6.427   3.068   5.889 -2.7549  0.1622  0.9015
  430MOL0     H58018   6.503   3.361   5.887  1.2274  0.1427  2.3430
  430MOL0     H58019   6.613   3.245   5.945  0.3628  1.3612  0.3721
  430MOL0     H58020   6.492   3.229   5.668 -0.5859 -0.6679  0.6035
  430MOL0     H58021   6.625   3.122   5.721 -0.4881 -1.2059 -0.1336
  430MOL0     H58022   6.618   3.432   5.668 -0.7920  0.1785 -2.2781
  430MOL0     H58023   6.690   3.309   5.562 -1.2051 -0.0389  0.2279
  430MOL0     H58024   6.796   3.391   5.843  0.6117  2.3305 -0.7997
  430MOL0     H58025   6.859   3.257   5.741 -2.2650 -1.8882  0.8390
  430MOL0     H58026   6.814   3.544   5.649  0.8440  0.7932  1.8848
  430MOL0     H58027   6.907   3.405   5.571  2.0309  0.3318  1.6583
  430MOL0     H58028   6.976   3.634   5.765  0.8486 -0.0834  1.9351
  430MOL0     H58029   7.049   3.479   5.817 -0.1705  0.4796 -0.4122
  430MOL0     H58030   6.115   2.890   5.961 -1.5231 -1.8822  0.1831
  430MOL0     H58031   5.983   2.742   5.828  3.3280 -1.4401 -1.9623
  430MOL0     H58032   5.994   2.542   5.323 -0.0336  1.8972  0.7315
  430MOL0     H58033   5.861   2.362   5.212  0.7159  0.5799  0.3549
  430MOL0     H58034   4.028   1.676   5.480  0.3977 -2.5836 -0.5720
  430MOL0     H58035   3.796   1.713   5.530  0.2740  1.4288  0.8884
  430MOL0     H58036   3.384   1.933   5.278 -1.7102  1.6262 -0.0392
  430MOL0     H58037   3.161   1.944   5.236 -0.4280  0.5739  0.1204
  430MOL0     H58038   2.979   1.772   5.167  0.4884  1.8370 -0.8955
  430MOL0     H58039   2.907   1.920   5.214  0.1474 -0.3200 -1.8088
  430MOL0     H58040   2.706   1.798   5.311  0.9152 -1.5846  2.7167
  430MOL0     H58041   2.801   1.656   5.283  6.2036 -0.2758 -1.8473
  430MOL0     H58042   2.653   1.652   5.104 -0.4840  0.2027  0.4843
  430MOL0     H58043   2.807   1.741   5.043  1.2011  4.3875  1.9169
  430MOL0     H58044   2.527   1.861   5.113  1.2868  0.5187  1.5883
  430MOL0     H58045   2.670   1.948   5.110 -0.5463  0.3500 -0.1952
  430MOL0     H58046   2.603   1.864   4.690  0.2553  2.2232  0.4569
  430MOL0     H58047   3.067   1.663   5.550  1.0246 -1.0448  0.2682
  430MOL0     H58048   3.402   1.526   5.570 -1.1507 -1.0435 -1.3677
  430MOL0     H58049   3.342   1.613   5.704  0.2405  0.3619  0.5289
  430MOL0     H58050   3.231   1.513   5.601 -0.0667 -0.0861 -0.2944
  431MOL0     O58051   7.552   9.314   8.343 -0.1684 -0.2200 -0.4199
  431MOL0     C58052   7.488   9.362   8.250  0.8302 -0.7794 -0.0621
  431MOL0     O58053   7.544   9.436   8.159 -0.1118 -0.1980  0.1452
  431MOL0     C58054   7.680   9.467   8.169  0.4649  0.8291 -0.6061
  431MOL0     C58055   7.780   9.421   8.078 -0.2804 -0.4248 -0.4280
  431MOL0     C58056   7.914   9.460   8.081 -0.3052 -0.0672 -0.2372
  431MOL0     C58057   7.959   9.549   8.184  0.5098 -0.6097 -1.1190
  431MOL0     O58058   8.089   9.610   8.175 -1.0318  0.2588 -0.3519
  431MOL0     C58059   8.185   9.552   8.263 -0.7690 -1.0125 -0.8065
  431MOL0     C58060   8.307   9.649   8.304  0.1032 -0.3894 -0.0940
  431MOL0     C58061   8.429   9.574   8.373  0.4071  0.1448 -0.2122
  431MOL0     C58062   8.524   9.688   8.413 -0.2312  0.5812 -0.1042
  431MOL0     C58063   8.646   9.637   8.486 -0.2265  0.2517 -0.6198
  431MOL0     C58064   8.744   9.562   8.394 -0.1110 -0.7678 -1.5566
  431MOL0     C58065   8.888   9.584   8.443 -0.8516 -0.1709  0.4138
  431MOL0     C58066   8.936   9.727   8.422 -0.1350  0.0666 -0.8818
  431MOL0     N58067   8.995   9.746   8.286  0.3304 -0.3672 -0.1300
  431MOL0     C58068   9.130   9.752   8.254  0.5319 -0.2646  0.2747
  431MOL0     C58069   9.125   9.766   8.119 -0.1832 -0.0330 -0.5157
  431MOL0     C58070   9.253   9.771   8.031  0.2833  0.3436  0.8216
  431MOL0     C58071   9.212   9.772   7.877 -0.5436  0.5138  0.6484
  431MOL0     C58072   9.333   9.739   7.781  0.5560  0.6095 -0.1537
  431MOL0     C58073   9.419   9.857   7.752  0.5440 -0.4561 -0.0898
  431MOL0     O58074   9.541   9.822   7.705  0.6094 -0.2486 -0.0796
  431MOL0     C58075   9.638   9.773   7.789 -0.0307 -0.2549  0.5415
  431MOL0     C58076   9.625   9.759   7.932  0.3810  0.4894 -0.1389
  431MOL0     C58077   9.736   9.718   8.004  0.2964  1.1869 -0.0101
  431MOL0     C58078   9.856   9.701   7.942 -0.1835 -0.3797 -0.1310
  431MOL0     C58079   9.970   9.659   8.026 -0.6697 -1.1016  0.5931
  431MOL0     O58080   9.966   9.667   8.166 -0.3942 -0.1323  0.1074
  431MOL0     C58081  10.077   9.635   8.246  0.1365  1.0388  0.2831
  431MOL0     C58082  10.217   9.632   8.204  0.9063 -0.2619  0.4073
  431MOL0     C58083  10.314   9.578   8.291  0.1972 -0.2777  0.0329
  431MOL0     C58084  10.277   9.538   8.417 -0.5354 -0.7009  0.0347
  431MOL0     O58085  10.366   9.492   8.509 -0.0917  1.0934  0.2798
  431MOL0     C58086  10.440   9.595   8.581  1.3087  0.2771 -0.0656
  431MOL0     C58087  10.573   9.612   8.516 -0.1476  0.0292  0.0105
  431MOL0     C58088  10.666   9.676   8.616 -0.7124  0.2972  0.2481
  431MOL0     C58089  10.803   9.699   8.555  0.0240 -0.1678 -0.1222
  431MOL0     C58090  10.866   9.794   8.655 -0.5738 -0.0122 -0.9867
  431MOL0     C58091  11.011   9.836   8.629  0.6326 -0.6383  0.1011
  431MOL0     C58092  11.034   9.940   8.521 -0.0845  1.1899 -0.4099
  431MOL0     C58093  11.188   9.945   8.491 -0.3239  0.3034  0.1705
  431MOL0    Cl58094  11.272  10.012   8.637  0.1091 -0.0111 -0.6436
  431MOL0     C58095  10.153   9.526   8.459 -0.1379 -0.1438  0.3979
  431MOL0     C58096  10.051   9.577   8.373 -0.1003 -0.0728 -0.4224
  431MOL0     O58097  10.067   9.616   7.967 -0.0630  0.2401 -0.2405
  431MOL0     C58098   9.880   9.716   7.804  0.3494  0.0681 -0.4781
  431MOL0     C58099   9.763   9.752   7.729  0.6426  0.6399  0.8224
  431MOL0     N58100   8.997   9.770   8.074  0.3963  0.0738  0.0536
  431MOL0     N58101   8.916   9.754   8.175  0.6539  0.2588  0.1235
  431MOL0     C58102   7.864   9.586   8.288 -0.2569  0.1426  0.1963
  431MOL0     C58103   7.727   9.554   8.269  1.0497  0.6176  0.1504
  431MOL0     C58104   7.338   9.354   8.255  0.1915  0.1464  0.4656
  431MOL0     C58105   7.271   9.413   8.150  0.4200  0.0456 -0.5421
  431MOL0     C58106   7.130   9.419   8.146  0.4062 -0.7961 -0.0756
  431MOL0     C58107   7.056   9.357   8.245  0.4872  0.2861  0.9654
  431MOL0     O58108   6.918   9.358   8.221 -0.3343  0.0974 -0.8416
  431MOL0     C58109   6.835   9.272   8.300 -0.4829  1.0348 -0.2325
  431MOL0     C58110   6.699   9.320   8.278 -0.5650  0.9520  0.1373
  431MOL0     C58111   6.587   9.237   8.355 -0.0159 -0.9365  0.4929
  431MOL0     C58112   6.557   9.103   8.281  0.2213  0.1709 -0.0766
  431MOL0     C58113   6.432   9.028   8.310 -0.3504  0.6852 -0.2103
  431MOL0     C58114   6.330   8.969   8.334 -0.0347  0.0544 -0.8117
  431MOL0     C58115   7.118   9.291   8.352  0.1768 -0.3888  0.1356
  431MOL0     C58116   7.256   9.281   8.347 -0.0248 -0.0811  0.3040
  431MOL0     C58117   7.314   9.207   8.463 -0.1712 -0.2274  0.7954
  431MOL0     H58118   7.747   9.347   8.006  0.6252  0.1345 -1.4510
  431MOL0     H58119   7.986   9.427   8.007 -0.3988  1.1234 -0.8981
  431MOL0     H58120   8.133   9.519   8.354 -0.6189 -2.6918 -1.3013
  431MOL0     H58121   8.231   9.465   8.214  0.3822 -1.8443  1.5825
  431MOL0     H58122   8.270   9.729   8.369  0.1104 -0.2069 -0.3146
  431MOL0     H58123   8.336   9.691   8.207  2.5297  0.1050  0.7546
  431MOL0     H58124   8.478   9.504   8.304 -2.2392 -1.6891 -0.3593
  431MOL0     H58125   8.393   9.510   8.454  0.9601 -1.6439 -1.3183
  431MOL0     H58126   8.571   9.735   8.326  3.3762  0.3623  1.5199
  431MOL0     H58127   8.475   9.765   8.472 -0.6170 -0.2213  0.6378
  431MOL0     H58128   8.696   9.726   8.524 -0.9806 -0.5836  2.5650
  431MOL0     H58129   8.610   9.584   8.574  0.1422 -0.3011 -0.7947
  431MOL0     H58130   8.725   9.456   8.407 -3.2562  0.0593  2.9258
  431MOL0     H58131   8.719   9.581   8.289 -1.1768  0.7058 -1.0709
  431MOL0     H58132   8.949   9.511   8.390 -0.3555  0.5696 -0.0684
  431MOL0     H58133   8.885   9.570   8.551 -0.1786  0.1478  0.4816
  431MOL0     H58134   8.867   9.807   8.449  0.7962 -0.2184  2.9437
  431MOL0     H58135   9.011   9.748   8.499 -0.9477  0.4276 -0.1704
  431MOL0     H58136   9.207   9.749   8.331  1.2912  1.7469 -0.3286
  431MOL0     H58137   9.307   9.862   8.058  0.5934  1.3609 -2.6962
  431MOL0     H58138   9.309   9.679   8.050 -0.0443  0.4125  2.2370
  431MOL0     H58139   9.134   9.695   7.873  0.2035 -0.2231 -0.1398
  431MOL0     H58140   9.169   9.866   7.842 -0.2433 -0.1515 -1.7043
  431MOL0     H58141   9.302   9.694   7.685 -1.8752  0.4718  0.6127
  431MOL0     H58142   9.382   9.654   7.828 -4.3280 -1.5646  1.7108
  431MOL0     H58143   9.427   9.928   7.835  0.4148  1.7333 -1.8684
  431MOL0     H58144   9.365   9.911   7.674 -0.6217  1.0439  1.6827
  431MOL0     H58145   9.532   9.780   7.983 -0.1480 -1.4400 -0.2693
  431MOL0     H58146   9.719   9.709   8.111 -2.3578 -0.2784 -0.4757
  431MOL0     H58147  10.238   9.674   8.106 -0.3649  1.1534  0.7108
  431MOL0     H58148  10.415   9.561   8.256  0.4098  0.1690  0.4190
  431MOL0     H58149  10.390   9.692   8.575  0.4714 -0.2636 -3.8364
  431MOL0     H58150  10.443   9.569   8.688 -1.2522  0.1858  0.0446
  431MOL0     H58151  10.615   9.515   8.492  0.5823  0.4675 -0.5075
  431MOL0     H58152  10.558   9.670   8.424  0.3438 -0.7591 -0.5799
  431MOL0     H58153  10.621   9.769   8.653 -0.3930  0.5096  0.1044
  431MOL0     H58154  10.679   9.609   8.702  2.3710 -0.3520 -0.5930
  431MOL0     H58155  10.780   9.740   8.456 -2.7933 -2.8078 -0.7004
  431MOL0     H58156  10.856   9.604   8.544  0.8104 -0.3923  4.0975
  431MOL0     H58157  10.864   9.749   8.755  0.0749 -1.4011 -1.5681
  431MOL0     H58158  10.801   9.882   8.659 -3.2453 -1.7265 -3.1139
  431MOL0     H58159  11.052   9.876   8.722  0.8238  0.8947 -0.5981
  431MOL0     H58160  11.067   9.752   8.588  2.0938  0.7417 -0.8928
  431MOL0     H58161  11.002  10.038   8.555 -1.1896  0.0135  2.2137
  431MOL0     H58162  10.981   9.911   8.430  0.1812  0.1157 -0.2355
  431MOL0     H58163  11.230   9.845   8.478  3.0332  1.3856  1.7679
  431MOL0     H58164  11.200  10.005   8.400 -2.2639 -0.1608 -0.4432
  431MOL0     H58165  10.139   9.480   8.556  1.6217 -2.4926 -0.3648
  431MOL0     H58166   9.947   9.569   8.403  0.3434 -2.3903  0.6972
  431MOL0     H58167   9.969   9.688   7.748  1.9573  1.8313  1.0437
  431MOL0     H58168   9.789   9.765   7.625  1.3826  2.8266  1.2177
  431MOL0     H58169   7.900   9.653   8.366  2.4582 -1.3977  0.3782
  431MOL0     H58170   7.653   9.594   8.337 -0.6473 -1.7601 -0.1904
  431MOL0     H58171   7.314   9.468   8.067 -2.2412  0.6525 -1.6442
  431MOL0     H58172   7.082   9.465   8.060  0.6772 -3.2509 -1.6287
  431MOL0     H58173   6.859   9.279   8.406 -2.9894  1.0267  0.3797
  431MOL0     H58174   6.841   9.168   8.264 -1.1792 -1.0792  4.9303
  431MOL0     H58175   6.681   9.324   8.170  0.5601  0.6648 -0.0747
  431MOL0     H58176   6.696   9.427   8.303 -1.3989  1.2500 -1.0915
  431MOL0     H58177   6.497   9.299   8.347  0.4968 -0.3545 -1.5874
  431MOL0     H58178   6.608   9.227   8.461 -0.6997  3.8338  1.2952
  431MOL0     H58179   6.551   9.116   8.173 -0.7346 -1.0497 -0.1974
  431MOL0     H58180   6.643   9.036   8.291 -2.1869 -3.8589 -3.1213
  431MOL0     H58181   6.245   8.904   8.339 -0.6271  0.8193 -0.7722
  431MOL0     H58182   7.067   9.246   8.436  1.3663  2.5394  2.5775
  431MOL0     H58183   7.349   9.287   8.528 -1.4316  0.5408  0.5538
  431MOL0     H58184   7.239   9.151   8.520 -0.0614  0.3400  1.5193
  431MOL0     H58185   7.392   9.137   8.432  1.5493  1.8494  0.1899
  432MOL0     O58186   5.127   0.499   5.777  0.4231 -0.4396 -0.6640
  432MOL0     C58187   5.057   0.407   5.744  0.8751 -0.1348 -0.4220
  432MOL0     O58188   5.101   0.291   5.709 -0.4048  0.7127  0.6573
  432MOL0     C58189   5.236   0.278   5.698  0.0676 -0.0599  0.0108
  432MOL0     C58190   5.298   0.269   5.570 -0.6502 -0.1646 -0.1929
  432MOL0     C58191   5.437   0.274   5.558 -0.4367 -0.6221  0.3004
  432MOL0     C58192   5.514   0.281   5.664  0.2149 -0.3219 -0.7834
  432MOL0     O58193   5.646   0.299   5.641 -0.7350  1.0994 -0.2947
  432MOL0     C58194   5.747   0.276   5.748  0.2512 -0.0631 -0.3861
  432MOL0     C58195   5.880   0.336   5.698  0.3763  0.8459 -0.1817
  432MOL0     C58196   5.995   0.318   5.795  0.6273 -0.1254  0.2173
  432MOL0     C58197   6.117   0.391   5.739  0.0046  0.5803  0.4748
  432MOL0     C58198   6.231   0.381   5.842 -0.9713  0.5753  0.1560
  432MOL0     C58199   6.321   0.503   5.833  1.2996 -1.0270  0.3287
  432MOL0     C58200   6.450   0.514   5.913  0.3220 -0.1244  0.4678
  432MOL0     C58201   6.564   0.418   5.883  0.3674 -0.0806 -0.4769
  432MOL0     N58202   6.622   0.421   5.753 -0.2041 -0.6069 -0.4674
  432MOL0     C58203   6.737   0.488   5.707  0.6547 -0.2236  0.2216
  432MOL0     C58204   6.752   0.444   5.579  0.1913 -0.3983 -0.2193
  432MOL0     C58205   6.861   0.493   5.483 -0.1705 -0.0478 -0.7443
  432MOL0     C58206   6.996   0.526   5.559 -0.1729 -0.2131 -0.3734
  432MOL0     C58207   7.070   0.397   5.584 -0.0077 -0.2688 -0.9741
  432MOL0     C58208   7.213   0.412   5.641  0.1158 -0.2183  0.0800
  432MOL0     O58209   7.298   0.484   5.550  0.2476  0.1982 -0.2574
  432MOL0     C58210   7.434   0.517   5.568 -0.1974 -0.1743  0.2282
  432MOL0     C58211   7.494   0.603   5.472 -0.5849 -0.1990  0.5739
  432MOL0     C58212   7.627   0.647   5.485  0.0011  0.1275 -0.1980
  432MOL0     C58213   7.697   0.616   5.605 -0.1292  0.5047  0.2816
  432MOL0     C58214   7.820   0.683   5.629  0.0958 -0.0411  0.2720
  432MOL0     O58215   7.921   0.643   5.716  0.5318 -0.2000  0.4350
  432MOL0     C58216   8.034   0.724   5.727  0.3049  0.0530 -0.2204
  432MOL0     C58217   8.027   0.842   5.796 -0.2078  0.1492  0.3314
  432MOL0     C58218   8.142   0.921   5.804  0.5599  0.0600  0.7110
  432MOL0     C58219   8.264   0.869   5.754 -0.5095  0.9918  0.1885
  432MOL0     O58220   8.386   0.930   5.765  0.9322  0.3110 -0.2527
  432MOL0     C58221   8.390   1.066   5.810  0.6222  0.9132 -0.2594
  432MOL0     C58222   8.523   1.138   5.788 -0.4447  0.0561  0.3428
  432MOL0     C58223   8.633   1.089   5.883  0.3711 -0.3302  0.5152
  432MOL0     C58224   8.687   0.954   5.837  0.1173 -0.2554  0.3893
  432MOL0     C58225   8.822   0.907   5.911  1.3153 -0.6762  1.0534
  432MOL0     C58226   8.869   0.773   5.847  0.1119  0.9240  0.0812
  432MOL0     C58227   8.982   0.706   5.926  0.0611  0.9911  0.7464
  432MOL0     C58228   9.008   0.562   5.886 -0.0834  0.1373  0.5383
  432MOL0    Cl58229   9.094   0.553   5.739 -0.6099 -0.3468  0.2695
  432MOL0     C58230   8.275   0.747   5.687  0.3067 -0.5676 -0.4738
  432MOL0     C58231   8.155   0.679   5.674 -0.0007 -0.6700  0.2005
  432MOL0     O58232   7.829   0.790   5.574 -1.0036  0.1264  0.6679
  432MOL0     C58233   7.641   0.524   5.697 -0.1491  0.2443  0.0876
  432MOL0     C58234   7.516   0.476   5.678  0.4130  0.4950  1.0669
  432MOL0     N58235   6.638   0.361   5.548 -0.6899  0.0308 -0.1584
  432MOL0     N58236   6.573   0.341   5.656  0.0122  0.4572  0.1260
  432MOL0     C58237   5.454   0.279   5.795  0.0747 -0.3812 -0.1095
  432MOL0     C58238   5.313   0.286   5.808 -0.4620  0.4745  0.3566
  432MOL0     C58239   4.909   0.425   5.727  0.1832 -0.4554 -1.7266
  432MOL0     C58240   4.825   0.318   5.718 -0.8746 -0.5980 -0.5566
  432MOL0     C58241   4.686   0.331   5.689 -0.0238 -0.8124  0.0886
  432MOL0     C58242   4.627   0.462   5.682  0.2373  0.5488 -1.5774
  432MOL0     O58243   4.486   0.473   5.670 -0.2213  0.1512  0.0060
  432MOL0     C58244   4.414   0.391   5.585 -0.7807  0.1238 -0.3978
  432MOL0     C58245   4.322   0.307   5.666  0.2216 -0.2251  0.1369
  432MOL0     C58246   4.220   0.230   5.574 -0.9015 -0.6876  0.4840
  432MOL0     C58247   4.092   0.178   5.645 -0.3111 -0.4391 -0.2441
  432MOL0     C58248   3.991   0.154   5.543  0.4210  0.2375 -0.0183
  432MOL0     C58249   3.913   0.114   5.457 -1.2878  0.0388 -0.0642
  432MOL0     C58250   4.712   0.570   5.716  0.3786 -0.6001 -0.7742
  432MOL0     C58251   4.848   0.554   5.719 -0.6366  0.1725 -0.0956
  432MOL0     C58252   4.922   0.689   5.729 -0.7161 -0.1651 -0.0075
  432MOL0     H58253   5.225   0.272   5.490 -3.1225  2.1972  1.9544
  432MOL0     H58254   5.482   0.285   5.460  0.0948 -2.4898  0.2932
  432MOL0     H58255   5.720   0.319   5.844 -2.2197 -1.0427 -0.5738
  432MOL0     H58256   5.750   0.168   5.767  0.9707 -0.4705 -2.5381
  432MOL0     H58257   5.862   0.443   5.687 -0.4995  0.5866 -1.4951
  432MOL0     H58258   5.900   0.285   5.604 -2.2362  1.1088 -0.9466
  432MOL0     H58259   6.028   0.216   5.817  3.5983  0.9053  1.0576
  432MOL0     H58260   5.968   0.364   5.890  0.6226  1.2579 -0.4358
  432MOL0     H58261   6.154   0.351   5.645 -0.9245  1.4146 -0.2696
  432MOL0     H58262   6.090   0.496   5.722  0.9496  0.6881 -0.4213
  432MOL0     H58263   6.203   0.370   5.948  2.3549 -0.5329  1.0520
  432MOL0     H58264   6.289   0.291   5.822 -1.4086  0.5477 -1.0655
  432MOL0     H58265   6.328   0.522   5.726 -1.4761  0.5635  0.3326
  432MOL0     H58266   6.265   0.590   5.867 -0.4257 -1.4900 -1.1858
  432MOL0     H58267   6.421   0.492   6.016 -0.3444 -1.1927  0.0755
  432MOL0     H58268   6.503   0.610   5.915  1.3796 -0.6953  0.9308
  432MOL0     H58269   6.634   0.442   5.963  0.3115 -1.1145 -0.1052
  432MOL0     H58270   6.519   0.320   5.900 -0.9073  0.4573 -0.5943
  432MOL0     H58271   6.794   0.559   5.768 -1.1117  0.7363  0.8196
  432MOL0     H58272   6.891   0.432   5.397  1.3398  1.4053 -1.3015
  432MOL0     H58273   6.828   0.589   5.442  0.0751  1.1999  1.7651
  432MOL0     H58274   7.053   0.603   5.507  0.7583 -1.5443 -1.3731
  432MOL0     H58275   6.969   0.571   5.655 -0.3063 -1.9963  0.4801
  432MOL0     H58276   7.064   0.335   5.494 -1.8460  1.0036 -1.7925
  432MOL0     H58277   7.024   0.344   5.668  1.9385  1.7967  1.5364
  432MOL0     H58278   7.251   0.312   5.664 -0.2688 -0.3987 -0.0769
  432MOL0     H58279   7.208   0.469   5.734 -3.2702 -0.0647 -0.1071
  432MOL0     H58280   7.433   0.643   5.392  0.7992  1.1825  0.1551
  432MOL0     H58281   7.657   0.726   5.417  1.9387 -1.1908 -0.9480
  432MOL0     H58282   7.938   0.869   5.851  0.7271 -0.3013  2.1550
  432MOL0     H58283   8.135   1.024   5.837  2.3399  1.1966 -2.1212
  432MOL0     H58284   8.311   1.117   5.755 -0.8970 -3.0554 -2.1685
  432MOL0     H58285   8.376   1.057   5.918  3.2038 -0.9865  0.0078
  432MOL0     H58286   8.543   1.121   5.682 -3.7584  1.5776 -0.6684
  432MOL0     H58287   8.508   1.245   5.799  1.3635  0.2726  1.1010
  432MOL0     H58288   8.717   1.159   5.880  0.5000 -0.4763  0.7010
  432MOL0     H58289   8.600   1.085   5.987  1.4067 -1.1220  0.8334
  432MOL0     H58290   8.711   0.956   5.731  2.8459 -1.7905  0.9005
  432MOL0     H58291   8.605   0.883   5.855  0.8376 -0.9781  0.8929
  432MOL0     H58292   8.798   0.893   6.017  0.5592  1.8600  1.2789
  432MOL0     H58293   8.902   0.981   5.907  1.9056 -1.3298  0.4409
  432MOL0     H58294   8.785   0.708   5.824  0.3134  0.0322  1.7094
  432MOL0     H58295   8.907   0.803   5.749 -2.4723  2.4861 -0.5432
  432MOL0     H58296   8.966   0.715   6.034  1.1881 -3.7885  1.5154
  432MOL0     H58297   9.071   0.766   5.906  2.2031 -1.6528  1.7616
  432MOL0     H58298   9.064   0.522   5.971 -1.3185 -1.9093  0.4624
  432MOL0     H58299   8.916   0.504   5.873  0.4538 -0.8211  0.9609
  432MOL0     H58300   8.368   0.720   5.637  0.1216 -1.1022 -0.5406
  432MOL0     H58301   8.158   0.592   5.610 -2.3337 -0.1590 -0.7100
  432MOL0     H58302   7.697   0.489   5.783  0.2271  2.7167  0.9138
  432MOL0     H58303   7.459   0.420   5.751 -0.3205 -0.1233  0.0535
  432MOL0     H58304   5.509   0.289   5.888  0.6783 -1.4769 -0.3220
  432MOL0     H58305   5.267   0.284   5.907  1.5989  2.8272  1.4692
  432MOL0     H58306   4.878   0.223   5.711 -0.6182 -0.4167 -1.1834
  432MOL0     H58307   4.627   0.244   5.660 -1.1062 -0.0036 -0.1859
  432MOL0     H58308   4.473   0.326   5.520 -1.4439 -0.4758 -0.4127
  432MOL0     H58309   4.357   0.457   5.519 -0.2623 -0.8894 -1.8877
  432MOL0     H58310   4.268   0.373   5.735 -3.4409 -4.7219  2.1457
  432MOL0     H58311   4.382   0.237   5.726  1.9849  1.7548  0.8219
  432MOL0     H58312   4.270   0.146   5.525  1.7597  0.7272  0.5817
  432MOL0     H58313   4.190   0.291   5.488 -1.5459 -2.1599 -0.3671
  432MOL0     H58314   4.118   0.085   5.697 -0.9331  1.1361  3.1539
  432MOL0     H58315   4.050   0.239   5.725 -1.3114 -3.0249  1.3468
  432MOL0     H58316   3.838   0.084   5.386  0.2933 -0.2431 -1.6903
  432MOL0     H58317   4.668   0.668   5.732  0.9334 -0.4862  0.0914
  432MOL0     H58318   5.012   0.691   5.667  0.1076 -1.6349  1.0748
  432MOL0     H58319   4.859   0.774   5.700 -3.7189 -1.4904  2.0618
  432MOL0     H58320   4.961   0.698   5.830  2.1792  2.7429 -1.2027
  433MOL0     O58321   3.546   7.918   7.181 -0.1036 -0.2887  0.0080
  433MOL0     C58322   3.536   7.987   7.278  0.9234  0.4047 -0.9745
  433MOL0     O58323   3.640   8.033   7.357 -0.3864  0.0723  0.1922
  433MOL0     C58324   3.768   7.977   7.359 -0.8667  0.5950  0.3116
  433MOL0     C58325   3.870   8.065   7.392  0.5771 -0.1757 -0.1015
  433MOL0     C58326   3.999   8.020   7.392 -0.7252  0.3900  0.1159
  433MOL0     C58327   4.040   7.881   7.375 -0.3863 -0.0555  0.3689
  433MOL0     O58328   4.170   7.833   7.402  0.0607 -0.1213  0.0913
  433MOL0     C58329   4.256   7.913   7.478 -1.1120  0.4746  0.8331
  433MOL0     C58330   4.366   7.978   7.395  0.5021 -0.1217 -0.2507
  433MOL0     C58331   4.463   8.039   7.500  0.1370  0.6678  0.4550
  433MOL0     C58332   4.584   8.091   7.435  0.4159 -0.3311 -0.2186
  433MOL0     C58333   4.673   8.185   7.526  0.3776 -0.3242  0.0929
  433MOL0     C58334   4.654   8.155   7.680 -0.4696  0.4389 -0.3489
  433MOL0     C58335   4.753   8.256   7.745  0.3835  0.3210  0.6485
  433MOL0     C58336   4.706   8.403   7.741  0.1981 -0.6619 -0.1231
  433MOL0     N58337   4.752   8.476   7.856  0.3449 -0.3348  0.1394
  433MOL0     C58338   4.879   8.469   7.905 -0.3408 -0.2028  0.0473
  433MOL0     C58339   4.880   8.540   8.021 -0.1632  1.0527  0.4584
  433MOL0     C58340   4.994   8.581   8.112 -0.0919 -0.1680  0.6725
  433MOL0     C58341   5.058   8.463   8.192  0.6686  0.4634 -0.3218
  433MOL0     C58342   5.115   8.504   8.326 -0.1450  0.6858 -0.1899
  433MOL0     C58343   5.211   8.393   8.383  0.3313 -0.6336 -0.4628
  433MOL0     O58344   5.292   8.436   8.493 -0.3498 -0.3376 -0.4815
  433MOL0     C58345   5.430   8.427   8.493 -0.0939  0.4136 -0.4107
  433MOL0     C58346   5.503   8.536   8.546 -0.5067 -0.5419  0.2003
  433MOL0     C58347   5.642   8.540   8.546  0.9025  0.1236 -0.3634
  433MOL0     C58348   5.715   8.446   8.480  0.3850  0.0956 -0.4798
  433MOL0     C58349   5.862   8.458   8.475 -0.4194 -0.6880 -0.0483
  433MOL0     O58350   5.917   8.589   8.464  0.3790 -0.2966  0.2055
  433MOL0     C58351   6.053   8.598   8.486  0.1844 -0.4463 -1.4446
  433MOL0     C58352   6.102   8.649   8.604 -0.8295  0.9790 -0.2143
  433MOL0     C58353   6.241   8.666   8.630 -0.4095  0.5882 -0.2495
  433MOL0     C58354   6.339   8.637   8.524 -0.0186 -0.6079 -0.3210
  433MOL0     O58355   6.472   8.666   8.557 -0.1121  0.3904 -0.5631
  433MOL0     C58356   6.577   8.607   8.475 -0.0187  0.3143  0.2723
  433MOL0     C58357   6.651   8.713   8.394  0.0368 -0.2424 -0.4919
  433MOL0     C58358   6.741   8.791   8.489 -0.0819  0.5163 -0.0234
  433MOL0     C58359   6.886   8.789   8.435 -0.6317  0.8722 -0.7090
  433MOL0     C58360   6.975   8.839   8.554  0.1814 -0.5950  0.3145
  433MOL0     C58361   7.130   8.838   8.528 -0.1185 -0.1350  0.1653
  433MOL0     C58362   7.201   8.700   8.504 -0.1511 -0.0785  0.1759
  433MOL0     C58363   7.352   8.688   8.526  1.3909  0.9925  0.5051
  433MOL0    Cl58364   7.424   8.778   8.392  0.4306  0.5743  0.0072
  433MOL0     C58365   6.291   8.604   8.399 -0.1405  0.1259  0.1705
  433MOL0     C58366   6.154   8.585   8.376 -0.1914  0.3823  1.1797
  433MOL0     O58367   5.930   8.353   8.469  1.0569 -0.0787  0.1506
  433MOL0     C58368   5.644   8.335   8.424 -0.4104  0.1161  0.0276
  433MOL0     C58369   5.504   8.319   8.438  0.5915 -0.8168 -0.0691
  433MOL0     N58370   4.751   8.592   8.039 -1.2748  0.3517  0.0659
  433MOL0     N58371   4.684   8.555   7.937 -0.6041 -0.3007 -1.4566
  433MOL0     C58372   3.930   7.798   7.346 -0.0241  0.6057 -0.3437
  433MOL0     C58373   3.801   7.842   7.335 -0.4546 -0.6064  0.0421
  433MOL0     C58374   3.391   8.020   7.322 -1.4277 -0.7504  0.7428
  433MOL0     C58375   3.364   8.024   7.458 -0.2401  0.1884  0.6517
  433MOL0     C58376   3.241   8.062   7.504 -0.1523  0.0471 -0.8183
  433MOL0     C58377   3.135   8.084   7.415  0.0474  1.0303  0.4566
  433MOL0     O58378   3.005   8.125   7.443 -0.6318 -0.8684  0.3299
  433MOL0     C58379   2.973   8.191   7.561 -0.8101 -0.1694 -0.0681
  433MOL0     C58380   2.847   8.276   7.536  0.6511 -0.2308  0.3707
  433MOL0     C58381   2.724   8.189   7.517  0.7029 -0.7169  0.1664
  433MOL0     C58382   2.606   8.270   7.480 -0.1546 -0.4576  0.9649
  433MOL0     C58383   2.473   8.227   7.525  0.9238  0.5147  0.1151
  433MOL0     C58384   2.350   8.198   7.549 -1.1424 -0.0909 -0.5108
  433MOL0     C58385   3.161   8.064   7.281  0.3762  0.2246  0.1151
  433MOL0     C58386   3.284   8.028   7.233  0.8750  0.1721 -0.3749
  433MOL0     C58387   3.297   8.019   7.080 -1.0686 -0.2701  0.7568
  433MOL0     H58388   3.840   8.168   7.408 -2.2935 -1.0726  0.8690
  433MOL0     H58389   4.073   8.095   7.417  2.3176 -1.5326 -2.2913
  433MOL0     H58390   4.208   7.998   7.525 -0.5900  1.4011 -0.2418
  433MOL0     H58391   4.305   7.860   7.560 -0.2370 -0.1376 -0.0547
  433MOL0     H58392   4.328   8.059   7.331  1.4855 -1.3252 -2.4797
  433MOL0     H58393   4.415   7.900   7.336  0.5239 -1.4663  1.4743
  433MOL0     H58394   4.504   7.965   7.569 -0.5305 -0.2815 -0.1428
  433MOL0     H58395   4.405   8.104   7.566 -1.9764 -0.1552 -0.4882
  433MOL0     H58396   4.647   8.004   7.413  1.7090 -0.3249  2.9244
  433MOL0     H58397   4.556   8.148   7.346 -0.6018  0.6250  0.6891
  433MOL0     H58398   4.776   8.155   7.503  0.6325  0.1112  0.6292
  433MOL0     H58399   4.647   8.289   7.502 -0.1853 -0.6066 -0.5393
  433MOL0     H58400   4.551   8.169   7.714 -1.1517  0.8089 -2.4665
  433MOL0     H58401   4.675   8.050   7.704 -0.5500 -0.3983 -3.5520
  433MOL0     H58402   4.854   8.242   7.707 -1.2519 -1.6585 -3.6320
  433MOL0     H58403   4.766   8.230   7.851  2.2248  0.5798  0.5178
  433MOL0     H58404   4.760   8.447   7.657 -0.6199  0.5173 -0.0636
  433MOL0     H58405   4.600   8.420   7.720 -0.3687 -1.6998  1.6946
  433MOL0     H58406   4.968   8.422   7.867 -0.1949  0.0921  0.0184
  433MOL0     H58407   5.074   8.628   8.053  1.1218 -2.8346  0.0625
  433MOL0     H58408   4.964   8.661   8.180  0.4716  0.9077 -0.2959
  433MOL0     H58409   4.989   8.382   8.217  1.0230  0.5667  1.0942
  433MOL0     H58410   5.133   8.410   8.132 -0.0019 -0.3418 -0.4724
  433MOL0     H58411   5.041   8.519   8.406 -1.3326 -2.2349 -0.5958
  433MOL0     H58412   5.176   8.594   8.318  0.7269 -0.0400 -2.4802
  433MOL0     H58413   5.264   8.350   8.297 -1.1198 -1.3412 -1.0467
  433MOL0     H58414   5.162   8.304   8.423 -1.8385  0.1212 -1.2869
  433MOL0     H58415   5.437   8.611   8.591 -1.5070 -1.5537  0.4639
  433MOL0     H58416   5.693   8.613   8.608  0.5899 -0.2165  0.3147
  433MOL0     H58417   6.036   8.654   8.689 -0.0783  1.0435  0.3783
  433MOL0     H58418   6.282   8.689   8.727 -1.0276 -2.9246  1.0157
  433MOL0     H58419   6.650   8.550   8.532  1.2885  2.1038  0.4825
  433MOL0     H58420   6.547   8.522   8.413  3.4725 -0.2040 -0.9280
  433MOL0     H58421   6.710   8.658   8.321  1.3083  0.9115 -0.3681
  433MOL0     H58422   6.589   8.790   8.347 -1.2319 -0.8753  0.0760
  433MOL0     H58423   6.703   8.892   8.502  0.6295  0.8239 -0.2562
  433MOL0     H58424   6.743   8.749   8.590  0.9929  3.2286  1.1544
  433MOL0     H58425   6.901   8.866   8.359 -2.1311  3.2651  1.2820
  433MOL0     H58426   6.929   8.692   8.407  0.5805  1.1787  0.0230
  433MOL0     H58427   6.953   8.780   8.643 -1.4642 -3.2998 -1.7264
  433MOL0     H58428   6.946   8.943   8.573 -1.2885  0.0473 -4.1766
  433MOL0     H58429   7.154   8.888   8.433 -0.6534 -0.7036 -0.2741
  433MOL0     H58430   7.182   8.893   8.607 -0.3560  1.4240 -0.7107
  433MOL0     H58431   7.186   8.662   8.402  0.4111 -3.1686  1.1438
  433MOL0     H58432   7.151   8.627   8.568 -0.4796  0.1799  0.2196
  433MOL0     H58433   7.382   8.738   8.619  0.2519  2.1566  0.2717
  433MOL0     H58434   7.385   8.584   8.528 -2.4419 -0.3833 -0.2451
  433MOL0     H58435   6.358   8.601   8.313  0.9617  1.0803  0.9732
  433MOL0     H58436   6.130   8.537   8.282  1.3215 -1.0324  1.4568
  433MOL0     H58437   5.709   8.261   8.378  0.4537  0.1065  1.2089
  433MOL0     H58438   5.449   8.230   8.410 -1.2509  0.1227  0.4019
  433MOL0     H58439   3.958   7.693   7.352 -0.1146  0.5772 -0.4423
  433MOL0     H58440   3.725   7.767   7.316 -0.7631  0.1699 -2.2111
  433MOL0     H58441   3.449   7.998   7.520  2.1258  2.6968 -1.2844
  433MOL0     H58442   3.236   8.067   7.613  1.7895  1.5536 -0.7415
  433MOL0     H58443   3.059   8.253   7.587 -1.0974  0.0087  0.4521
  433MOL0     H58444   2.967   8.134   7.653  2.8065  1.3814  1.3160
  433MOL0     H58445   2.866   8.337   7.448 -1.9376  3.4283  2.0628
  433MOL0     H58446   2.839   8.345   7.621  3.0509  0.5657  0.0338
  433MOL0     H58447   2.702   8.140   7.612  1.7789  1.9541  1.9031
  433MOL0     H58448   2.738   8.114   7.438 -3.4581  0.1211 -1.6392
  433MOL0     H58449   2.621   8.374   7.510 -0.7770  1.0300 -3.2137
  433MOL0     H58450   2.604   8.277   7.370  2.4964  1.5037  0.9489
  433MOL0     H58451   2.249   8.181   7.580 -1.3321 -0.1543 -1.1510
  433MOL0     H58452   3.087   8.085   7.204  1.0190  3.9008  0.3249
  433MOL0     H58453   3.375   8.092   7.056 -1.7513  0.0676 -0.5280
  433MOL0     H58454   3.313   7.915   7.050  1.8639 -0.4645  2.5395
  433MOL0     H58455   3.204   8.049   7.030  0.1586 -0.6754 -1.9416
  434MOL0     O58456   8.769   2.912  10.999 -0.4946  0.1793 -0.3224
  434MOL0     C58457   8.768   3.006  10.920 -0.3171  0.8700  0.6928
  434MOL0     O58458   8.877   3.075  10.873 -0.2333  0.8414  0.1952
  434MOL0     C58459   9.005   3.037  10.923 -0.4352 -0.9352  0.3904
  434MOL0     C58460   9.042   3.018  11.060 -0.1046  0.1008 -0.3841
  434MOL0     C58461   9.178   2.999  11.094 -0.4431 -0.3454  0.3391
  434MOL0     C58462   9.276   2.983  10.988  0.0138 -0.3801  0.6585
  434MOL0     O58463   9.403   2.942  11.023 -0.1664 -0.0099  0.1260
  434MOL0     C58464   9.487   2.879  10.921 -0.1075  0.2140  0.2182
  434MOL0     C58465   9.612   2.828  11.005 -0.2310  0.3103  0.1442
  434MOL0     C58466   9.715   2.938  11.026  0.3227 -0.6614  0.2933
  434MOL0     C58467   9.783   2.993  10.903  0.0821  0.1636  0.6803
  434MOL0     C58468   9.905   3.082  10.938 -0.3952 -0.0011  0.4785
  434MOL0     C58469   9.966   3.143  10.808  0.5558 -1.1736 -0.4101
  434MOL0     C58470   9.862   3.234  10.737  0.5832  0.3263  0.1435
  434MOL0     C58471   9.928   3.318  10.630  0.0329 -0.1564 -0.0921
  434MOL0     N58472   9.983   3.443  10.676  0.4056 -0.1636  0.3292
  434MOL0     C58473  10.114   3.480  10.693  0.9040  0.5521  0.0803
  434MOL0     C58474  10.116   3.612  10.727  0.4628  0.0406  0.3342
  434MOL0     C58475  10.235   3.700  10.752  0.0756 -0.3061 -0.3318
  434MOL0     C58476  10.368   3.645  10.708  1.2337 -0.0603  0.4308
  434MOL0     C58477  10.483   3.748  10.745  0.1693 -0.6648 -0.1225
  434MOL0     C58478  10.617   3.677  10.759  0.4731 -0.0431  0.1225
  434MOL0     O58479  10.652   3.632  10.621 -0.2579  0.4886 -0.0462
  434MOL0     C58480  10.786   3.601  10.596 -0.5608 -0.6260 -0.6759
  434MOL0     C58481  10.824   3.636  10.464 -0.3128  0.3469  0.0651
  434MOL0     C58482  10.960   3.618  10.428 -0.0997  0.5449 -0.1731
  434MOL0     C58483  11.057   3.572  10.526 -0.2336 -0.1621  0.3587
  434MOL0     C58484  11.197   3.560  10.491 -0.5359 -0.6388 -0.6254
  434MOL0     O58485  11.219   3.584  10.356 -0.6180 -0.1306 -0.1048
  434MOL0     C58486  11.334   3.595  10.289 -0.3538  0.1425  0.6490
  434MOL0     C58487  11.460   3.573  10.346 -0.1396  0.7522  0.7260
  434MOL0     C58488  11.577   3.584  10.263  0.4037  0.2229  0.1411
  434MOL0     C58489  11.561   3.614  10.123 -0.3611 -0.4700  0.3805
  434MOL0     O58490  11.667   3.629  10.034  0.1193 -0.6208  0.5373
  434MOL0     C58491  11.801   3.603  10.083  0.4931  0.0323  0.0541
  434MOL0     C58492  11.909   3.638   9.974  0.0729  0.4389 -0.5131
  434MOL0     C58493  11.911   3.538   9.854 -0.1081  0.1045  0.9473
  434MOL0     C58494  12.021   3.550   9.744  1.0508 -0.5647  0.3533
  434MOL0     C58495  12.010   3.466   9.605 -0.0000  0.3924 -0.6421
  434MOL0     C58496  11.885   3.494   9.538  0.2669 -0.3150  0.6484
  434MOL0     C58497  11.868   3.453   9.393  0.2506  0.8973  0.5167
  434MOL0     C58498  11.916   3.566   9.306  0.5373 -0.1305 -0.1747
  434MOL0    Cl58499  11.825   3.722   9.316  0.0523  0.0416  0.0040
  434MOL0     C58500  11.440   3.629  10.072  1.2457 -0.3420 -0.7406
  434MOL0     C58501  11.323   3.615  10.155 -0.0911 -0.3596 -0.1550
  434MOL0     O58502  11.276   3.520  10.572 -0.0778  0.2725 -0.1130
  434MOL0     C58503  11.013   3.556  10.664  1.1266  0.1386 -0.2304
  434MOL0     C58504  10.884   3.570  10.694  0.1549 -0.5604  0.3284
  434MOL0     N58505   9.989   3.655  10.722  0.1854 -0.8864 -0.6402
  434MOL0     N58506   9.914   3.552  10.690 -0.2937 -0.0752 -0.6483
  434MOL0     C58507   9.239   3.007  10.859 -0.0453 -0.5077  0.1160
  434MOL0     C58508   9.104   3.034  10.830 -0.0775  0.1204  0.7868
  434MOL0     C58509   8.636   3.040  10.871  0.4376 -0.0022  1.1174
  434MOL0     C58510   8.525   3.026  10.953 -0.7295 -0.3961 -0.1321
  434MOL0     C58511   8.398   3.074  10.911  0.4514  0.7955 -0.8141
  434MOL0     C58512   8.381   3.126  10.781 -0.0404  0.0154 -0.1307
  434MOL0     O58513   8.273   3.186  10.733  0.2498  0.4106 -0.4626
  434MOL0     C58514   8.149   3.197  10.803  0.5104 -0.0886 -0.2344
  434MOL0     C58515   8.068   3.072  10.804  0.3709 -0.0563 -0.2056
  434MOL0     C58516   8.024   3.036  10.666 -0.5546  0.8117  0.7344
  434MOL0     C58517   7.938   2.910  10.662  0.4771 -0.0117 -0.4474
  434MOL0     C58518   7.916   2.860  10.522 -0.4003  0.2445 -0.7943
  434MOL0     C58519   7.862   2.836  10.415 -0.7696  0.4172 -0.4092
  434MOL0     C58520   8.493   3.133  10.701  0.5473  1.1033 -0.5098
  434MOL0     C58521   8.618   3.086  10.742 -1.1687  0.8143 -0.9217
  434MOL0     C58522   8.720   3.095  10.632  0.6708 -0.5273 -0.0241
  434MOL0     H58523   8.956   3.008  11.124 -1.0055  3.1306 -0.9541
  434MOL0     H58524   9.202   2.984  11.199  2.0480  1.1518  0.0779
  434MOL0     H58525   9.437   2.789  10.885 -1.2585  0.6734  0.6325
  434MOL0     H58526   9.518   2.942  10.838 -0.1942 -0.6843 -0.5126
  434MOL0     H58527   9.660   2.751  10.944  1.0263 -0.8089  2.4221
  434MOL0     H58528   9.581   2.780  11.098  1.2795 -0.5520  0.2309
  434MOL0     H58529   9.793   2.898  11.091  0.2949  0.0019  0.7395
  434MOL0     H58530   9.661   3.011  11.087  0.3319 -1.8350  1.7782
  434MOL0     H58531   9.812   2.911  10.837  0.5753 -0.0737  1.1832
  434MOL0     H58532   9.714   3.063  10.855  1.4671  1.1618  0.0745
  434MOL0     H58533   9.882   3.162  11.008  1.1944  1.6929 -0.8312
  434MOL0     H58534   9.981   3.019  10.986 -0.4339 -1.6526 -1.4781
  434MOL0     H58535  10.053   3.201  10.840  0.6106 -1.5729  0.1675
  434MOL0     H58536  10.006   3.069  10.737  1.4825  0.0409 -1.2102
  434MOL0     H58537   9.806   3.299  10.804  0.6517  0.4263  0.1046
  434MOL0     H58538   9.785   3.168  10.696  1.7184 -1.8519  1.3412
  434MOL0     H58539   9.997   3.252  10.576 -2.5959 -2.3289 -1.0453
  434MOL0     H58540   9.860   3.349  10.551 -1.6098  0.9684  1.6639
  434MOL0     H58541  10.201   3.422  10.665  0.3459 -0.3419  0.1447
  434MOL0     H58542  10.222   3.798  10.704  2.7578  0.1299 -0.3085
  434MOL0     H58543  10.241   3.716  10.860 -2.2757 -1.6947  0.0756
  434MOL0     H58544  10.386   3.554  10.766  0.8357 -2.0025 -2.3365
  434MOL0     H58545  10.376   3.625  10.601 -4.6511  0.3189 -0.4548
  434MOL0     H58546  10.455   3.811  10.831  0.9175 -1.9449  1.1016
  434MOL0     H58547  10.489   3.819  10.662  1.8812 -1.0970 -0.4002
  434MOL0     H58548  10.625   3.592  10.827  0.3667 -1.0131 -1.0375
  434MOL0     H58549  10.690   3.744  10.803 -1.3682  0.6205  2.3379
  434MOL0     H58550  10.751   3.670  10.391 -1.4777 -1.6261  0.2601
  434MOL0     H58551  10.987   3.648  10.327 -0.2256  0.6955 -0.1620
  434MOL0     H58552  11.483   3.558  10.451 -0.7948  3.3724  1.2889
  434MOL0     H58553  11.668   3.602  10.321  0.1989  1.6912  0.0436
  434MOL0     H58554  11.820   3.672  10.165 -0.0479 -1.1089  1.1690
  434MOL0     H58555  11.809   3.497  10.110 -0.2011 -0.5614 -1.8900
  434MOL0     H58556  11.887   3.740   9.941  0.5411  0.6505 -0.1749
  434MOL0     H58557  12.008   3.626  10.018 -0.8628  0.2981  1.6843
  434MOL0     H58558  11.924   3.441   9.902 -1.9908 -0.1456  1.0311
  434MOL0     H58559  11.808   3.541   9.817  0.2247  1.2609  0.0399
  434MOL0     H58560  12.119   3.523   9.786  1.9221 -0.2654 -1.3691
  434MOL0     H58561  12.027   3.657   9.722 -0.3263 -0.7973 -1.3419
  434MOL0     H58562  12.007   3.361   9.636 -1.7232  1.2042  2.3789
  434MOL0     H58563  12.098   3.482   9.543 -0.2007  1.6436 -0.6489
  434MOL0     H58564  11.814   3.432   9.594 -0.0497 -0.7298 -0.1900
  434MOL0     H58565  11.858   3.597   9.560  1.9236 -0.3585  3.4718
  434MOL0     H58566  11.765   3.427   9.367  1.2298 -1.7398 -1.2148
  434MOL0     H58567  11.940   3.372   9.375  0.4422  0.8935  1.2817
  434MOL0     H58568  12.022   3.585   9.325  0.3007 -0.9226  2.2976
  434MOL0     H58569  11.909   3.533   9.202  0.7047  0.8729 -0.5182
  434MOL0     H58570  11.431   3.640   9.964  2.3161 -1.2077 -0.9378
  434MOL0     H58571  11.221   3.618  10.116  0.1040 -2.9326 -1.0237
  434MOL0     H58572  11.082   3.533  10.745 -1.2852  0.5044  2.0835
  434MOL0     H58573  10.857   3.549  10.797 -0.9021 -1.0538 -0.0301
  434MOL0     H58574   9.300   3.010  10.770 -2.7139 -0.4385 -1.8262
  434MOL0     H58575   9.076   3.052  10.727 -2.1717 -3.1633  0.6271
  434MOL0     H58576   8.539   2.985  11.052  0.8502 -2.2418 -1.0495
  434MOL0     H58577   8.318   3.080  10.984 -0.2030  2.9271 -1.6549
  434MOL0     H58578   8.093   3.274  10.750  1.9347  0.4588 -0.9869
  434MOL0     H58579   8.164   3.246  10.900  2.9365  0.2679 -0.7423
  434MOL0     H58580   7.981   3.090  10.867  2.8753  3.4221  2.6486
  434MOL0     H58581   8.128   2.989  10.843  1.4645 -0.0197 -1.7024
  434MOL0     H58582   8.117   3.026  10.610 -0.8172 -0.6430  0.5190
  434MOL0     H58583   7.966   3.119  10.624  0.0326  2.3308  2.7483
  434MOL0     H58584   7.984   2.830  10.720  1.4029  0.1806 -0.8995
  434MOL0     H58585   7.844   2.934  10.712  0.0286  0.3014 -1.4071
  434MOL0     H58586   7.819   2.810  10.320  0.4163 -1.0476 -0.5778
  434MOL0     H58587   8.482   3.190  10.609 -1.9162  2.2786  0.4079
  434MOL0     H58588   8.814   3.040  10.638  0.7800 -0.2397  1.0120
  434MOL0     H58589   8.680   3.066  10.534  1.4797  3.1394 -1.5978
  434MOL0     H58590   8.731   3.203  10.618 -4.2885  0.1950 -0.1148
  435MOL0     O58591   1.302   8.636   8.177  0.2208 -0.0311  0.4760
  435MOL0     C58592   1.335   8.595   8.071  0.1484 -0.5396  0.1529
  435MOL0     O58593   1.455   8.635   8.012 -0.3861  0.4222 -0.1589
  435MOL0     C58594   1.545   8.704   8.084  0.6076 -0.4913 -1.0423
  435MOL0     C58595   1.643   8.632   8.141 -0.0530  0.2245  0.0248
  435MOL0     C58596   1.759   8.687   8.201  0.1731  0.6568  0.4883
  435MOL0     C58597   1.769   8.823   8.207 -0.4295 -0.3476 -0.5887
  435MOL0     O58598   1.869   8.871   8.282  0.5747  0.2507  0.2894
  435MOL0     C58599   1.870   9.012   8.313  0.3636  0.3259 -0.0753
  435MOL0     C58600   1.997   9.035   8.386 -0.3569  0.2905  0.0355
  435MOL0     C58601   2.115   9.009   8.294  0.7091 -0.8941  0.0853
  435MOL0     C58602   2.243   9.040   8.378 -0.6356 -0.3217  0.1895
  435MOL0     C58603   2.367   9.015   8.282  0.2857 -1.2500 -0.1238
  435MOL0     C58604   2.357   9.083   8.140  0.6037 -0.0869 -1.2068
  435MOL0     C58605   2.483   9.049   8.056  0.4170  0.9624  0.2443
  435MOL0     C58606   2.449   9.044   7.906  0.0663 -0.2961  0.4337
  435MOL0     N58607   2.406   9.179   7.868 -0.0044 -0.6766  0.3785
  435MOL0     C58608   2.471   9.301   7.877 -0.6859  0.5722 -0.1411
  435MOL0     C58609   2.378   9.407   7.865  0.0970  0.2211 -0.5310
  435MOL0     C58610   2.410   9.556   7.862 -0.0248  0.3681 -0.2847
  435MOL0     C58611   2.551   9.603   7.915  0.6620 -0.2489  0.2436
  435MOL0     C58612   2.551   9.645   8.064 -0.4204  0.4790  0.6638
  435MOL0     C58613   2.541   9.527   8.158  0.4252 -1.0791 -0.6381
  435MOL0     O58614   2.650   9.438   8.133 -0.3919  0.7738 -0.1890
  435MOL0     C58615   2.769   9.469   8.199  0.5064 -0.2619  0.5184
  435MOL0     C58616   2.795   9.579   8.286 -0.0029 -0.5620  0.5235
  435MOL0     C58617   2.927   9.600   8.344  0.6298 -0.0292  0.4814
  435MOL0     C58618   3.031   9.507   8.318 -0.0074 -0.0505 -0.9442
  435MOL0     C58619   3.170   9.525   8.370 -0.3831  0.2089 -0.7215
  435MOL0     O58620   3.239   9.411   8.384  0.5008 -0.5673  0.0090
  435MOL0     C58621   3.353   9.416   8.454  0.4693  0.4226  0.4176
  435MOL0     C58622   3.463   9.488   8.407 -0.5566  1.0555  0.3309
  435MOL0     C58623   3.589   9.487   8.473 -0.8379  0.4764 -0.3007
  435MOL0     C58624   3.606   9.405   8.591  0.0659  0.6667 -0.8103
  435MOL0     O58625   3.728   9.404   8.669 -0.2923  0.0647  0.5927
  435MOL0     C58626   3.847   9.476   8.625 -0.1342  0.2189  0.5738
  435MOL0     C58627   3.925   9.524   8.738  0.2040 -0.1010 -0.3495
  435MOL0     C58628   4.030   9.619   8.705 -0.6352  0.4465  0.3012
  435MOL0     C58629   4.116   9.676   8.819 -0.6231  0.2453  0.0405
  435MOL0     C58630   4.252   9.715   8.758  1.1575  0.0185  0.8229
  435MOL0     C58631   4.344   9.791   8.851 -0.0383 -0.8812  0.5207
  435MOL0     C58632   4.479   9.827   8.793 -0.2082 -0.6143  0.2338
  435MOL0     C58633   4.575   9.899   8.887  0.2930 -0.0718 -0.0454
  435MOL0    Cl58634   4.525  10.067   8.914  0.1939  0.3438  0.1173
  435MOL0     C58635   3.495   9.333   8.640 -0.0972  0.6540  0.0531
  435MOL0     C58636   3.372   9.334   8.574 -0.5944  0.8531  0.1511
  435MOL0     O58637   3.203   9.644   8.396  0.4432  0.1390 -0.0117
  435MOL0     C58638   3.006   9.406   8.224 -0.0600  0.2355 -0.4362
  435MOL0     C58639   2.879   9.385   8.172  0.1430  0.3136  0.9065
  435MOL0     N58640   2.261   9.340   7.854 -0.1334  1.1405  0.9329
  435MOL0     N58641   2.277   9.210   7.850  0.4598  0.1969 -0.6972
  435MOL0     C58642   1.664   8.902   8.152  0.0224  0.1405 -0.4121
  435MOL0     C58643   1.557   8.845   8.093  0.1245 -0.7977 -0.2245
  435MOL0     C58644   1.251   8.502   7.999  0.5713  0.2836 -0.4033
  435MOL0     C58645   1.313   8.426   7.902  0.5946  0.4687 -0.0668
  435MOL0     C58646   1.234   8.358   7.807  0.6735  0.3753 -0.0341
  435MOL0     C58647   1.094   8.348   7.824 -0.4311  0.3205 -0.1701
  435MOL0     O58648   1.029   8.276   7.729 -0.2833 -0.1117 -0.0960
  435MOL0     C58649   0.902   8.228   7.772 -0.3616 -0.2168  0.2382
  435MOL0     C58650   0.845   8.137   7.673  0.6366  0.1859 -0.7141
  435MOL0     C58651   0.741   8.039   7.741  0.5086  0.4545 -0.8154
  435MOL0     C58652   0.607   8.114   7.772 -0.7952  0.1370 -0.4269
  435MOL0     C58653   0.539   8.164   7.651 -0.3702 -0.5113  0.7147
  435MOL0     C58654   0.483   8.219   7.552 -0.3092 -0.3578 -0.0885
  435MOL0     C58655   1.037   8.414   7.932  0.3254  0.7868 -1.0066
  435MOL0     C58656   1.115   8.489   8.022 -0.0091  0.4601 -0.2131
  435MOL0     C58657   1.038   8.554   8.133  0.0698 -0.1673 -0.6509
  435MOL0     H58658   1.638   8.524   8.130 -0.8108  0.2347  0.2215
  435MOL0     H58659   1.823   8.620   8.258  0.8620  2.5438  2.0382
  435MOL0     H58660   1.873   9.071   8.220  2.3761 -0.5968 -0.6693
  435MOL0     H58661   1.787   9.038   8.379  0.3730  0.7663 -0.2312
  435MOL0     H58662   1.989   8.966   8.470 -1.8892 -0.2741 -0.5342
  435MOL0     H58663   2.005   9.140   8.415 -2.3896  0.5091 -0.0300
  435MOL0     H58664   2.104   9.072   8.206  0.4722 -0.0706  0.6954
  435MOL0     H58665   2.110   8.908   8.253  0.2090 -0.1168 -1.8662
  435MOL0     H58666   2.239   9.143   8.414  0.1510 -0.5610  1.0158
  435MOL0     H58667   2.239   8.986   8.473 -0.1190  3.6641  2.6770
  435MOL0     H58668   2.462   9.050   8.324 -0.0474  0.8798 -1.0237
  435MOL0     H58669   2.382   8.908   8.267  1.6083 -0.8555 -2.1332
  435MOL0     H58670   2.269   9.043   8.089  0.1487  0.1593 -0.6272
  435MOL0     H58671   2.346   9.192   8.140  2.7892  0.2288 -3.1370
  435MOL0     H58672   2.527   8.951   8.078  1.5558  1.7714  1.7769
  435MOL0     H58673   2.566   9.119   8.072 -0.6555  1.8211  2.5067
  435MOL0     H58674   2.547   9.018   7.865 -0.0063 -1.2842  0.8620
  435MOL0     H58675   2.383   8.962   7.876  3.3162 -2.4975 -1.3403
  435MOL0     H58676   2.576   9.324   7.898  0.1401 -0.6965 -2.4879
  435MOL0     H58677   2.404   9.574   7.754 -1.1230 -3.2073 -0.9832
  435MOL0     H58678   2.325   9.611   7.904 -1.4717 -1.1906 -1.0322
  435MOL0     H58679   2.621   9.521   7.897 -1.1152 -1.7140 -0.2893
  435MOL0     H58680   2.586   9.687   7.855  1.2160 -1.7263 -1.6226
  435MOL0     H58681   2.465   9.712   8.073  1.2590  3.1135 -1.1912
  435MOL0     H58682   2.639   9.705   8.088 -1.7057  2.6534  0.2377
  435MOL0     H58683   2.446   9.477   8.140 -1.8712  1.8419  2.1890
  435MOL0     H58684   2.531   9.560   8.262 -2.1082 -3.3342 -0.0746
  435MOL0     H58685   2.715   9.648   8.313  0.1497  0.8795 -2.3020
  435MOL0     H58686   2.947   9.682   8.411 -1.4047  0.0583  1.0313
  435MOL0     H58687   3.454   9.558   8.325 -1.0485  2.1679  1.3041
  435MOL0     H58688   3.671   9.544   8.430 -1.7141  1.7731 -0.3345
  435MOL0     H58689   3.905   9.415   8.555 -0.4163  1.0178 -0.3759
  435MOL0     H58690   3.815   9.567   8.574  2.6347  0.6759 -0.5407
  435MOL0     H58691   3.866   9.587   8.805 -0.1766  0.5738 -1.3000
  435MOL0     H58692   3.972   9.439   8.789  0.5233 -1.4332 -2.7459
  435MOL0     H58693   4.094   9.578   8.626 -3.5489  0.1439 -2.0947
  435MOL0     H58694   3.978   9.700   8.653 -1.9062  0.3106  1.3053
  435MOL0     H58695   4.144   9.597   8.889  2.4874  0.4068 -0.8245
  435MOL0     H58696   4.077   9.759   8.878  1.4424  1.7705 -0.5932
  435MOL0     H58697   4.232   9.793   8.684 -2.5575 -1.3124  0.2319
  435MOL0     H58698   4.302   9.628   8.713 -0.4833 -0.8069  0.5005
  435MOL0     H58699   4.293   9.886   8.872 -0.9574 -1.6960  2.1997
  435MOL0     H58700   4.367   9.731   8.940  1.5997 -1.1471 -0.0456
  435MOL0     H58701   4.464   9.894   8.708 -0.8379 -1.4301 -0.3115
  435MOL0     H58702   4.537   9.739   8.764  0.8893 -0.9146  3.0780
  435MOL0     H58703   4.594   9.855   8.985 -1.6459  0.7696  0.7601
  435MOL0     H58704   4.669   9.902   8.832 -0.3147 -0.6017 -1.1490
  435MOL0     H58705   3.516   9.277   8.730  1.4152  1.8493  0.4821
  435MOL0     H58706   3.306   9.272   8.634  0.8187  1.4004  2.3862
  435MOL0     H58707   3.087   9.341   8.192  1.3381  1.9555 -0.5988
  435MOL0     H58708   2.855   9.306   8.102  1.3613  0.2375  0.5695
  435MOL0     H58709   1.664   9.010   8.143  2.2235  0.1347 -1.0614
  435MOL0     H58710   1.485   8.911   8.044  1.8339  0.2368 -1.4562
  435MOL0     H58711   1.420   8.430   7.885  0.9240 -1.3639  1.3055
  435MOL0     H58712   1.271   8.297   7.725  1.4083 -1.4275  1.5936
  435MOL0     H58713   0.835   8.314   7.784  0.7595  0.4392  2.2175
  435MOL0     H58714   0.905   8.182   7.872 -1.6938  1.6968  1.2180
  435MOL0     H58715   0.927   8.080   7.627 -0.9936 -2.5541 -0.4388
  435MOL0     H58716   0.796   8.188   7.590 -1.3715  0.3126  0.5004
  435MOL0     H58717   0.766   7.989   7.835  0.0912  1.3599 -0.2069
  435MOL0     H58718   0.720   7.956   7.673 -1.6157 -0.9097  1.3477
  435MOL0     H58719   0.541   8.040   7.818 -0.3833 -0.0401 -0.1130
  435MOL0     H58720   0.608   8.188   7.853 -2.0022  0.2437 -0.4878
  435MOL0     H58721   0.414   8.267   7.485 -1.0945  0.6443  1.3741
  435MOL0     H58722   0.932   8.403   7.957  1.0129 -2.2979  1.0230
  435MOL0     H58723   0.934   8.522   8.146 -0.1727  1.3302  2.0053
  435MOL0     H58724   1.086   8.530   8.229  1.3161  0.7676 -1.0068
  435MOL0     H58725   1.045   8.663   8.122  1.8178 -0.2692 -0.8132
  436MOL0     O58726   0.417  10.237   5.868  0.2001  0.3231  0.8483
  436MOL0     C58727   0.421  10.360   5.884 -0.2502  0.0940  0.6195
  436MOL0     O58728   0.545  10.426   5.890  0.1122  0.4741  0.0260
  436MOL0     C58729   0.654  10.350   5.909  0.3012  0.2922  1.0198
  436MOL0     C58730   0.689  10.319   6.036 -0.0953  0.2668 -0.0408
  436MOL0     C58731   0.810  10.256   6.058  0.7501  0.5578  0.1722
  436MOL0     C58732   0.895  10.212   5.951  0.0268 -0.7924 -0.2288
  436MOL0     O58733   1.011  10.151   5.971  0.1592  0.5466 -0.2232
  436MOL0     C58734   1.047  10.109   6.100  0.3603  0.5195 -0.7015
  436MOL0     C58735   1.175  10.036   6.087 -0.0891 -0.7358 -0.5527
  436MOL0     C58736   1.239  10.004   6.224  0.0822  0.8266  0.8287
  436MOL0     C58737   1.381   9.949   6.208 -0.0676 -0.4877  0.7771
  436MOL0     C58738   1.467   9.935   6.330 -0.5889 -0.3945 -0.3880
  436MOL0     C58739   1.603   9.873   6.306  0.3362 -0.4422  0.3025
  436MOL0     C58740   1.651   9.773   6.406  0.4022  0.3233  1.3015
  436MOL0     C58741   1.636   9.806   6.553  0.0487  0.2822  0.0343
  436MOL0     N58742   1.727   9.920   6.586  0.6531  0.2749 -0.3542
  436MOL0     C58743   1.699  10.052   6.566  0.2548  0.4009 -0.0278
  436MOL0     C58744   1.818  10.111   6.591  0.0436  0.2946 -0.2205
  436MOL0     C58745   1.856  10.253   6.581  0.7261  0.2513 -0.8899
  436MOL0     C58746   1.760  10.358   6.641 -0.8918  0.2247 -0.2987
  436MOL0     C58747   1.657  10.394   6.542  1.0709 -0.0484  0.0397
  436MOL0     C58748   1.530  10.456   6.605  0.5773  0.6141  0.3361
  436MOL0     O58749   1.456  10.512   6.499 -0.8840 -0.2203 -0.6048
  436MOL0     C58750   1.336  10.567   6.539  0.6832  1.0928  0.1859
  436MOL0     C58751   1.283  10.556   6.669 -0.1358  0.9682  0.8032
  436MOL0     C58752   1.169  10.619   6.698  0.5476  0.1002  0.9028
  436MOL0     C58753   1.095  10.692   6.605 -0.6721  0.4272  0.0481
  436MOL0     C58754   0.972  10.773   6.633  0.0884  0.4391 -0.1090
  436MOL0     O58755   0.915  10.741   6.752  0.7003 -0.3560 -0.8376
  436MOL0     C58756   0.808  10.816   6.798 -0.5309 -0.0379  0.1642
  436MOL0     C58757   0.818  10.951   6.807 -0.0717 -0.6027 -0.3289
  436MOL0     C58758   0.709  11.031   6.843 -0.8771  0.2546 -0.1287
  436MOL0     C58759   0.589  10.976   6.884  0.3563  0.4466  0.3788
  436MOL0     O58760   0.488  11.041   6.942  0.7436 -0.3077 -0.6460
  436MOL0     C58761   0.519  11.164   7.010  0.1060 -0.8607 -0.5924
  436MOL0     C58762   0.417  11.221   7.116 -0.0606  0.9509  0.4872
  436MOL0     C58763   0.332  11.322   7.033  0.2599  0.2243 -0.0151
  436MOL0     C58764   0.210  11.345   7.115 -0.0262 -1.1339  0.2717
  436MOL0     C58765   0.098  11.431   7.048 -0.2638 -0.1272  0.6831
  436MOL0     C58766   0.044  11.376   6.916  0.3040 -0.0744 -0.4563
  436MOL0     C58767   0.017  11.222   6.920  0.6921  0.1417 -0.0162
  436MOL0     C58768  -0.039  11.169   6.783 -0.7550  0.5187 -0.0002
  436MOL0    Cl58769   0.103  11.139   6.675 -0.0418  0.2848  0.3942
  436MOL0     C58770   0.582  10.833   6.877 -0.6171  0.6794  0.2955
  436MOL0     C58771   0.690  10.750   6.829  0.9601 -1.1394 -1.2780
  436MOL0     O58772   0.940  10.862   6.550  0.6470  0.1916 -0.1573
  436MOL0     C58773   1.137  10.686   6.469 -0.3810  0.3008 -0.9061
  436MOL0     C58774   1.259  10.619   6.436 -0.6659  0.2285 -0.6368
  436MOL0     N58775   1.912  10.018   6.631  0.0869 -0.6695 -0.1226
  436MOL0     N58776   1.853   9.904   6.630  0.0857  0.4936  0.2887
  436MOL0     C58777   0.860  10.247   5.823  0.6829  0.3132 -0.0101
  436MOL0     C58778   0.734  10.322   5.798  0.5044 -0.4200 -0.4219
  436MOL0     C58779   0.294  10.430   5.888  0.3886 -1.0580 -0.1610
  436MOL0     C58780   0.306  10.563   5.938  0.9097  0.0857 -0.1756
  436MOL0     C58781   0.197  10.644   5.963  0.0285  0.3466  0.1751
  436MOL0     C58782   0.067  10.591   5.946  0.1039 -0.3151  0.5150
  436MOL0     O58783  -0.040  10.670   5.964  0.2676  0.0399 -0.0159
  436MOL0     C58784  -0.175  10.630   5.943  0.3060 -0.1188 -0.0965
  436MOL0     C58785  -0.257  10.721   6.028  0.5592  0.0091 -0.2677
  436MOL0     C58786  -0.299  10.857   5.977 -0.0258  0.1097 -0.4821
  436MOL0     C58787  -0.347  10.861   5.826 -0.2668 -0.6478  0.8277
  436MOL0     C58788  -0.469  10.785   5.786  0.2115  0.1736  0.1568
  436MOL0     C58789  -0.579  10.735   5.763 -0.0707  0.4574 -0.2721
  436MOL0     C58790   0.050  10.460   5.888 -0.3599  0.5583  0.6558
  436MOL0     C58791   0.162  10.375   5.849 -0.5119  0.2645  0.1199
  436MOL0     C58792   0.147  10.230   5.795  0.2613  0.0568 -0.7708
  436MOL0     H58793   0.623  10.343   6.119  0.4645  1.6505  0.0376
  436MOL0     H58794   0.829  10.222   6.159  0.6809 -3.2410 -0.9679
  436MOL0     H58795   1.039  10.198   6.164 -0.6414  0.0691 -0.1724
  436MOL0     H58796   0.975  10.033   6.135  2.0813 -0.6263  0.5150
  436MOL0     H58797   1.238  10.112   6.037 -1.9845  1.5709  0.3714
  436MOL0     H58798   1.160   9.943   6.032  3.0046 -1.3153 -0.6170
  436MOL0     H58799   1.181   9.919   6.262 -0.3879  0.7262 -0.0868
  436MOL0     H58800   1.246  10.094   6.287 -1.3623  2.0104 -0.6067
  436MOL0     H58801   1.366   9.849   6.166 -2.9351  0.2560 -0.1695
  436MOL0     H58802   1.430  10.015   6.136 -0.3118  0.5796  1.5737
  436MOL0     H58803   1.470  10.035   6.375 -2.3123  0.9338 -2.9715
  436MOL0     H58804   1.413   9.869   6.399 -1.4494  1.8981  1.2855
  436MOL0     H58805   1.608   9.825   6.208 -1.3923  0.5263 -0.3096
  436MOL0     H58806   1.677   9.953   6.311 -0.4400  0.2214  3.0919
  436MOL0     H58807   1.751   9.741   6.377  0.6495  2.4958 -0.4809
  436MOL0     H58808   1.585   9.686   6.401 -0.6156  1.0086  2.3090
  436MOL0     H58809   1.532   9.824   6.579  0.0617 -0.0372  0.3102
  436MOL0     H58810   1.668   9.722   6.615  1.6582  1.7373  1.2938
  436MOL0     H58811   1.613  10.106   6.526  0.6245  0.2700 -1.0214
  436MOL0     H58812   1.951  10.276   6.631  0.3022  3.6803 -1.3707
  436MOL0     H58813   1.874  10.273   6.475 -0.4950  0.8285 -1.0111
  436MOL0     H58814   1.718  10.330   6.738  0.5360  0.2777  0.3633
  436MOL0     H58815   1.829  10.438   6.672 -3.2867  1.7598  1.4053
  436MOL0     H58816   1.624  10.302   6.493  0.4338 -0.0543  0.4596
  436MOL0     H58817   1.702  10.468   6.474  2.3051 -1.0115 -0.2184
  436MOL0     H58818   1.540  10.525   6.689  0.4766 -1.3748  2.0799
  436MOL0     H58819   1.483  10.368   6.650  2.3922 -1.2186 -1.1294
  436MOL0     H58820   1.339  10.516   6.753  0.1037  1.1522  0.7330
  436MOL0     H58821   1.137  10.624   6.801 -2.7621  0.7958 -0.0545
  436MOL0     H58822   0.908  11.010   6.789  0.0111 -0.6554 -0.0864
  436MOL0     H58823   0.720  11.138   6.834 -2.1099  0.6665  2.4214
  436MOL0     H58824   0.613  11.150   7.065  2.5240  1.2467 -3.7948
  436MOL0     H58825   0.546  11.244   6.941  0.0132  1.6869  2.1294
  436MOL0     H58826   0.359  11.137   7.155 -0.9771  1.5177  0.3785
  436MOL0     H58827   0.465  11.278   7.195 -1.0537  0.9559  1.1056
  436MOL0     H58828   0.397  11.407   7.010 -0.0373  0.5858  0.4679
  436MOL0     H58829   0.300  11.272   6.941 -1.1445 -1.9091  1.5313
  436MOL0     H58830   0.238  11.395   7.208 -2.7095  0.9594  0.0890
  436MOL0     H58831   0.170  11.245   7.138  0.5393 -1.5146 -0.3627
  436MOL0     H58832   0.138  11.532   7.033 -1.0639 -0.0078 -0.8630
  436MOL0     H58833   0.012  11.449   7.113 -0.7888  3.6269 -0.7599
  436MOL0     H58834  -0.043  11.433   6.881 -1.8963 -2.5291  0.6764
  436MOL0     H58835   0.123  11.387   6.841  0.3163 -0.4179 -0.4953
  436MOL0     H58836  -0.064  11.208   6.992 -0.0891 -0.5959 -1.0092
  436MOL0     H58837   0.098  11.155   6.949  2.0625  1.4687 -0.5923
  436MOL0     H58838  -0.093  11.074   6.796 -0.0650  0.1631  0.3643
  436MOL0     H58839  -0.107  11.241   6.737 -0.8537  2.1238  2.4566
  436MOL0     H58840   0.495  10.775   6.906  0.7175 -1.6022  0.0141
  436MOL0     H58841   0.680  10.642   6.830  0.8540 -1.1496  0.7714
  436MOL0     H58842   1.093  10.747   6.391  1.1297  2.8635  0.1073
  436MOL0     H58843   1.290  10.621   6.332  1.2958 -1.9123 -0.1938
  436MOL0     H58844   0.916  10.214   5.736 -2.2980 -3.1587 -0.8553
  436MOL0     H58845   0.709  10.350   5.696  1.6985 -0.7268 -0.8230
  436MOL0     H58846   0.402  10.599   5.974  0.5321  0.7162  0.2128
  436MOL0     H58847   0.218  10.745   5.998  1.1831  0.0581  0.3550
  436MOL0     H58848  -0.182  10.529   5.986  1.6331 -0.9903 -1.7922
  436MOL0     H58849  -0.218  10.631   5.842 -4.6557 -1.9584  1.7089
  436MOL0     H58850  -0.197  10.727   6.119  2.4171 -4.6240 -0.8977
  436MOL0     H58851  -0.341  10.668   6.072 -0.1925  2.1488  0.9738
  436MOL0     H58852  -0.211  10.922   5.973  0.2375 -0.2673 -0.8336
  436MOL0     H58853  -0.370  10.896   6.051  1.0543  1.0385  0.0986
  436MOL0     H58854  -0.366  10.967   5.809  0.2377 -0.4099  1.6632
  436MOL0     H58855  -0.264  10.826   5.765  0.2793  2.3788 -0.3425
  436MOL0     H58856  -0.672  10.689   5.738 -0.6248  2.7894 -3.0534
  436MOL0     H58857  -0.046  10.414   5.870  0.2882 -1.7303  2.4511
  436MOL0     H58858   0.177  10.160   5.874  0.4412  0.5923 -0.3550
  436MOL0     H58859   0.043  10.206   5.775 -0.3214  1.4848  0.3566
  436MOL0     H58860   0.213  10.222   5.708 -0.8528 -1.5074 -1.5135
  437MOL0     O58861   8.316   7.901   8.283 -1.0178  0.1483  0.2292
  437MOL0     C58862   8.293   7.826   8.382 -0.5973 -0.4373  0.6297
  437MOL0     O58863   8.381   7.772   8.467 -0.7495  0.2189  0.1718
  437MOL0     C58864   8.514   7.810   8.462  0.1082 -0.5372  0.1404
  437MOL0     C58865   8.595   7.789   8.352 -0.6497  0.8113 -0.4033
  437MOL0     C58866   8.724   7.836   8.347  0.1178 -0.2949  0.2367
  437MOL0     C58867   8.779   7.900   8.455 -0.3355 -0.1394  0.5499
  437MOL0     O58868   8.903   7.946   8.450 -0.1521 -0.1824 -0.1171
  437MOL0     C58869   8.997   7.861   8.382  0.8803 -0.0228 -0.7308
  437MOL0     C58870   9.131   7.909   8.436 -0.1899 -0.3231 -0.6674
  437MOL0     C58871   9.252   7.849   8.366 -0.1350  0.0983 -1.0496
  437MOL0     C58872   9.379   7.871   8.437  0.2047 -0.4560 -0.8412
  437MOL0     C58873   9.491   7.791   8.384  0.3679  0.4926  0.0513
  437MOL0     C58874   9.523   7.815   8.236 -0.1289  0.0627  1.5895
  437MOL0     C58875   9.651   7.733   8.185  0.2637 -0.9271 -0.0171
  437MOL0     C58876   9.692   7.770   8.047 -1.2563  0.5951  1.2157
  437MOL0     N58877   9.834   7.720   8.027  0.6542 -0.3747  0.3072
  437MOL0     C58878   9.870   7.672   7.910 -1.2511 -0.4628  0.6814
  437MOL0     C58879  10.001   7.638   7.929 -0.1859 -0.6063 -0.7696
  437MOL0     C58880  10.075   7.558   7.831  0.6750  0.5548  0.3276
  437MOL0     C58881  10.221   7.530   7.871 -0.4530 -0.2286  0.0082
  437MOL0     C58882  10.276   7.399   7.799 -0.6483  0.1028  0.1156
  437MOL0     C58883  10.272   7.384   7.646 -0.2830  0.2923 -0.0920
  437MOL0     O58884  10.350   7.477   7.561  0.5518 -0.0148 -0.2226
  437MOL0     C58885  10.485   7.461   7.538  0.1645 -0.1522 -0.2737
  437MOL0     C58886  10.550   7.550   7.447  0.3424  0.8153 -0.1062
  437MOL0     C58887  10.681   7.530   7.413 -0.5920  0.2001  0.1321
  437MOL0     C58888  10.762   7.436   7.472  0.2985  0.2564 -1.0746
  437MOL0     C58889  10.895   7.430   7.432 -0.5843  0.3950  0.4356
  437MOL0     O58890  10.940   7.303   7.439 -0.1207 -0.9396 -0.0735
  437MOL0     C58891  11.078   7.289   7.402 -0.0552  0.0090  0.5254
  437MOL0     C58892  11.157   7.198   7.480 -0.1417  0.0561  0.6001
  437MOL0     C58893  11.289   7.180   7.453  0.4895 -0.2579  0.1064
  437MOL0     C58894  11.350   7.238   7.340  0.7845  0.3916  0.2937
  437MOL0     O58895  11.474   7.207   7.289 -0.3534  0.1933 -0.2923
  437MOL0     C58896  11.564   7.141   7.376 -0.5011  0.0953 -0.1769
  437MOL0     C58897  11.694   7.132   7.301  1.1168  0.1619  0.3861
  437MOL0     C58898  11.799   7.043   7.362 -0.5116 -1.0335 -0.1792
  437MOL0     C58899  11.941   7.047   7.297  0.1286 -0.1347 -0.1207
  437MOL0     C58900  12.041   6.966   7.383  0.3491  0.6876 -0.7517
  437MOL0     C58901  12.175   6.954   7.311  0.1436 -0.4820 -0.9147
  437MOL0     C58902  12.271   6.890   7.402 -0.2562 -0.4265 -0.6358
  437MOL0     C58903  12.408   6.864   7.329 -0.1049 -0.4111 -0.0048
  437MOL0    Cl58904  12.518   6.814   7.465 -0.0940  0.2064  0.4985
  437MOL0     C58905  11.268   7.308   7.253 -0.0264 -0.2920  0.6347
  437MOL0     C58906  11.134   7.338   7.284 -0.3438 -0.0265  0.2039
  437MOL0     O58907  10.958   7.532   7.427  0.4769 -0.9412  0.1606
  437MOL0     C58908  10.701   7.347   7.565 -0.5428 -0.2336 -0.3652
  437MOL0     C58909  10.565   7.361   7.599  0.2532 -0.1082 -0.1647
  437MOL0     N58910  10.042   7.672   8.056 -0.1933 -0.3725 -0.0318
  437MOL0     N58911   9.938   7.726   8.112 -0.3730 -0.1377  0.1948
  437MOL0     C58912   8.701   7.930   8.560  0.4148 -0.7942  0.2841
  437MOL0     C58913   8.569   7.881   8.567 -0.6160 -0.5478  0.0087
  437MOL0     C58914   8.156   7.811   8.407 -0.1427 -0.2338  0.3427
  437MOL0     C58915   8.064   7.814   8.304  0.1333  0.1929 -0.4159
  437MOL0     C58916   7.929   7.800   8.324 -0.1482 -0.2224 -0.2518
  437MOL0     C58917   7.877   7.779   8.446  0.3212  0.6188 -0.1814
  437MOL0     O58918   7.738   7.758   8.451  0.4008  0.2956  0.1201
  437MOL0     C58919   7.677   7.717   8.577 -0.1820  0.1213  0.3562
  437MOL0     C58920   7.711   7.568   8.587  0.2798 -0.4571 -0.1115
  437MOL0     C58921   7.616   7.481   8.495  0.8017  0.0655 -0.0030
  437MOL0     C58922   7.470   7.447   8.543 -0.7780 -0.1458 -0.1754
  437MOL0     C58923   7.478   7.385   8.675 -0.2208 -0.8693  0.0709
  437MOL0     C58924   7.488   7.334   8.792  0.1733 -1.1592 -0.0142
  437MOL0     C58925   7.968   7.774   8.553 -0.0369  0.5033 -0.6472
  437MOL0     C58926   8.100   7.795   8.536 -0.9404  0.2053 -0.5972
  437MOL0     C58927   8.191   7.809   8.657  0.4988  0.1532 -0.3157
  437MOL0     H58928   8.560   7.721   8.275  0.2636 -1.4092  1.0133
  437MOL0     H58929   8.780   7.828   8.254  1.1568  1.3125  0.6788
  437MOL0     H58930   8.980   7.755   8.401 -3.1570  0.6762  0.4706
  437MOL0     H58931   8.991   7.878   8.274 -0.9854 -0.5504 -0.7511
  437MOL0     H58932   9.139   7.883   8.542 -1.8304  0.1734 -0.3863
  437MOL0     H58933   9.130   8.017   8.419 -2.7718 -0.1892 -0.1119
  437MOL0     H58934   9.261   7.885   8.264  0.0154  1.6830 -0.5020
  437MOL0     H58935   9.230   7.742   8.352 -2.9719  0.6323 -1.2733
  437MOL0     H58936   9.398   7.979   8.439  1.9627 -0.7167 -1.8038
  437MOL0     H58937   9.363   7.845   8.542  1.4013 -0.0371 -0.5477
  437MOL0     H58938   9.580   7.810   8.445  0.8862 -0.5096 -0.3674
  437MOL0     H58939   9.468   7.685   8.399  2.0633  0.1865  0.7060
  437MOL0     H58940   9.435   7.776   8.184  2.1368 -1.6952 -1.2958
  437MOL0     H58941   9.538   7.923   8.229  1.6794 -0.2142  0.2592
  437MOL0     H58942   9.627   7.627   8.185  1.6798 -1.3588  2.7461
  437MOL0     H58943   9.734   7.747   8.256  0.2791 -0.4276 -0.1309
  437MOL0     H58944   9.621   7.738   7.969  2.3667  1.0890 -2.6485
  437MOL0     H58945   9.693   7.879   8.034  1.3946  0.3675 -1.8617
  437MOL0     H58946   9.818   7.650   7.817 -1.5970  0.6311  0.6074
  437MOL0     H58947  10.025   7.463   7.810 -0.9213  1.1125  1.4385
  437MOL0     H58948  10.066   7.609   7.735 -2.1615 -0.5432 -0.0739
  437MOL0     H58949  10.295   7.609   7.858  1.0194 -1.5583  0.0978
  437MOL0     H58950  10.220   7.502   7.977 -1.9657 -0.2869  0.0031
  437MOL0     H58951  10.239   7.311   7.852 -1.2427  0.9781  1.1843
  437MOL0     H58952  10.381   7.397   7.830 -0.8661  2.1147  1.1184
  437MOL0     H58953  10.166   7.391   7.622 -0.2359 -0.9392 -0.7187
  437MOL0     H58954  10.299   7.283   7.614  0.2766  0.2086  0.6217
  437MOL0     H58955  10.490   7.621   7.391  1.3778  1.2372 -0.7078
  437MOL0     H58956  10.725   7.591   7.335 -1.7342  0.5966 -0.2151
  437MOL0     H58957  11.110   7.154   7.568 -0.6122  2.5957  1.7044
  437MOL0     H58958  11.344   7.111   7.518 -0.0396 -0.1441  0.6802
  437MOL0     H58959  11.578   7.199   7.467 -2.4433 -0.2821  0.4170
  437MOL0     H58960  11.521   7.047   7.414  1.0198 -1.7074 -2.6071
  437MOL0     H58961  11.674   7.105   7.197  0.3444 -0.0823  0.5901
  437MOL0     H58962  11.739   7.232   7.291  1.3905  0.0113  0.1245
  437MOL0     H58963  11.810   7.076   7.465 -2.2308 -0.1074 -0.2578
  437MOL0     H58964  11.751   6.944   7.361 -4.4088  0.6078  2.0700
  437MOL0     H58965  11.974   7.150   7.282  0.4212  0.2612  2.6709
  437MOL0     H58966  11.929   6.997   7.200  1.1714  2.3978 -1.6751
  437MOL0     H58967  12.001   6.869   7.415 -1.9918  2.2533  1.5379
  437MOL0     H58968  12.070   7.012   7.478  0.0987 -0.6619 -0.0005
  437MOL0     H58969  12.157   6.883   7.231 -1.1571 -2.0960  0.7247
  437MOL0     H58970  12.207   7.052   7.275 -0.9658  1.4022  2.7315
  437MOL0     H58971  12.248   6.793   7.448  0.3009  0.2545  1.1556
  437MOL0     H58972  12.280   6.963   7.483 -1.9097 -0.2133 -0.6023
  437MOL0     H58973  12.402   6.785   7.254  0.1753 -1.6492  1.2395
  437MOL0     H58974  12.438   6.958   7.281  2.0951 -0.6309  0.8189
  437MOL0     H58975  11.309   7.321   7.153 -1.1604 -1.0356  0.0460
  437MOL0     H58976  11.073   7.409   7.229  0.9915 -0.6458 -2.1622
  437MOL0     H58977  10.751   7.264   7.614  0.0056 -0.8585 -1.9052
  437MOL0     H58978  10.514   7.286   7.658  1.5719 -0.5110  0.4876
  437MOL0     H58979   8.756   7.996   8.626 -0.8965  0.5833  0.0252
  437MOL0     H58980   8.506   7.906   8.652 -0.4239 -0.1983  0.0506
  437MOL0     H58981   8.095   7.834   8.202 -0.1760  0.8919 -0.3819
  437MOL0     H58982   7.855   7.804   8.244 -1.7331  0.1585  1.1760
  437MOL0     H58983   7.569   7.735   8.572 -0.0201  1.5555  1.2164
  437MOL0     H58984   7.716   7.775   8.662  1.2299 -0.1138 -0.1108
  437MOL0     H58985   7.712   7.529   8.689  1.6126  0.9328  0.4533
  437MOL0     H58986   7.815   7.554   8.555  0.9025  0.0087  1.6228
  437MOL0     H58987   7.671   7.389   8.475 -0.2070 -0.3570 -0.9779
  437MOL0     H58988   7.594   7.520   8.395 -0.7573 -1.2791 -0.2281
  437MOL0     H58989   7.403   7.534   8.544 -1.2980 -0.5414  1.1768
  437MOL0     H58990   7.422   7.379   8.471 -0.8540 -1.4423  1.0622
  437MOL0     H58991   7.493   7.283   8.886 -3.0043 -1.4922  0.0818
  437MOL0     H58992   7.925   7.753   8.650 -2.7673 -1.7675 -2.1660
  437MOL0     H58993   8.264   7.728   8.667 -3.7437 -4.0012  0.9903
  437MOL0     H58994   8.223   7.912   8.670 -2.8361  1.1938  0.8024
  437MOL0     H58995   8.137   7.792   8.751 -0.2546 -0.1563 -0.7907
  438MOL0     O58996   2.176   4.322   3.319 -0.2097  0.3166  0.0920
  438MOL0     C58997   2.152   4.406   3.227  0.4695 -0.0536 -0.8764
  438MOL0     O58998   2.242   4.454   3.136  0.7397 -1.1224  0.0236
  438MOL0     C58999   2.354   4.387   3.110 -0.3420 -1.4545 -0.7274
  438MOL0     C59000   2.385   4.361   2.978  0.5635 -0.3095 -0.2335
  438MOL0     C59001   2.513   4.311   2.941  0.3008 -0.0457  1.1786
  438MOL0     C59002   2.606   4.278   3.030 -0.1369 -0.8391 -0.3615
  438MOL0     O59003   2.720   4.212   2.984  0.3836  0.2225  0.1864
  438MOL0     C59004   2.836   4.200   3.063  0.3558 -0.5610  1.0109
  438MOL0     C59005   2.955   4.176   2.963  0.1658  0.0152 -0.1231
  438MOL0     C59006   3.091   4.158   3.043  0.3164 -0.5266  0.2856
  438MOL0     C59007   3.206   4.163   2.937 -0.4994  0.0145  0.2065
  438MOL0     C59008   3.326   4.110   3.001  0.6282 -0.7750 -0.1576
  438MOL0     C59009   3.425   4.068   2.890 -0.3665  0.0926  0.4743
  438MOL0     C59010   3.556   4.006   2.956 -0.1583 -0.8680  0.1045
  438MOL0     C59011   3.672   4.105   2.955 -0.5557 -0.1901  0.6169
  438MOL0     N59012   3.697   4.159   2.814 -0.2629 -0.0259 -0.3779
  438MOL0     C59013   3.711   4.075   2.708  0.0529  0.8652 -0.5527
  438MOL0     C59014   3.738   4.154   2.604 -0.2785  0.6134 -0.0654
  438MOL0     C59015   3.773   4.121   2.465  0.1253  0.9197  0.8379
  438MOL0     C59016   3.909   4.054   2.454  0.1449  0.1118 -0.6290
  438MOL0     C59017   4.018   4.151   2.490 -0.6056  0.1106 -1.1385
  438MOL0     C59018   4.071   4.118   2.637 -0.1538 -0.5527  0.2993
  438MOL0     O59019   4.145   3.991   2.642 -0.3114  0.0646  0.5557
  438MOL0     C59020   4.256   3.982   2.723 -0.3574 -0.0477 -0.0297
  438MOL0     C59021   4.307   4.070   2.824  0.5629  0.3488 -0.3365
  438MOL0     C59022   4.430   4.039   2.891  0.0431 -0.2287 -0.2244
  438MOL0     C59023   4.511   3.929   2.858  0.7134  0.1892 -0.7653
  438MOL0     C59024   4.620   3.881   2.942  0.2152 -0.4212  0.4190
  438MOL0     O59025   4.607   3.873   3.076  1.0487  0.8976  0.3627
  438MOL0     C59026   4.718   3.830   3.140 -0.0608 -0.3910  0.5315
  438MOL0     C59027   4.726   3.690   3.166 -0.2251 -0.2834  0.1636
  438MOL0     C59028   4.849   3.648   3.230  0.7130  0.7416 -0.6193
  438MOL0     C59029   4.955   3.731   3.274  0.1664  1.1741  0.2732
  438MOL0     O59030   5.048   3.670   3.347 -0.0202 -0.4694 -1.1204
  438MOL0     C59031   5.173   3.736   3.364  0.5443  0.9093  0.4454
  438MOL0     C59032   5.269   3.627   3.407  0.5775  0.2638  0.3788
  438MOL0     C59033   5.415   3.684   3.428  0.1663 -0.0908 -0.1953
  438MOL0     C59034   5.507   3.577   3.489 -0.6665 -0.4870  0.5603
  438MOL0     C59035   5.656   3.630   3.499  0.3158 -0.3862 -0.1471
  438MOL0     C59036   5.724   3.673   3.368  0.3992  0.0394 -0.0972
  438MOL0     C59037   5.728   3.560   3.260  0.2016 -0.2293 -0.6702
  438MOL0     C59038   5.805   3.433   3.310  0.0553 -0.2166  0.9623
  438MOL0    Cl59039   5.964   3.471   3.368  0.4265  0.4448  0.2403
  438MOL0     C59040   4.942   3.869   3.250 -0.0594  1.3404 -0.0644
  438MOL0     C59041   4.823   3.914   3.185 -0.6560  0.7719 -0.7010
  438MOL0     O59042   4.712   3.845   2.871 -0.4729  0.2385  0.0169
  438MOL0     C59043   4.453   3.851   2.761 -0.2346  0.8075  1.0821
  438MOL0     C59044   4.335   3.868   2.699 -0.0959  0.2410 -0.3294
  438MOL0     N59045   3.743   4.286   2.644  0.6611  0.1712  0.2303
  438MOL0     N59046   3.716   4.287   2.771  0.8456 -0.4046 -0.6296
  438MOL0     C59047   2.576   4.300   3.170 -0.0631 -0.1715 -0.0242
  438MOL0     C59048   2.450   4.353   3.206  0.1191  0.4503  0.0490
  438MOL0     C59049   2.014   4.483   3.226  0.2566 -0.1247 -0.3312
  438MOL0     C59050   2.000   4.610   3.178  0.6200  0.5832 -0.6337
  438MOL0     C59051   1.892   4.689   3.199  0.4403  0.1350  0.2106
  438MOL0     C59052   1.795   4.654   3.294  0.3086 -0.9017  0.2074
  438MOL0     O59053   1.697   4.741   3.304 -0.0065  0.1674 -0.3141
  438MOL0     C59054   1.564   4.686   3.313  0.2936 -0.2074  0.2165
  438MOL0     C59055   1.498   4.653   3.180 -0.4902 -0.1975  0.2568
  438MOL0     C59056   1.356   4.616   3.190  0.3759  0.9911 -0.2803
  438MOL0     C59057   1.266   4.745   3.197 -0.1779  0.1904  0.6478
  438MOL0     C59058   1.280   4.823   3.065  0.7020 -0.3536 -0.9836
  438MOL0     C59059   1.296   4.891   2.969 -0.2124 -0.3037  0.8225
  438MOL0     C59060   1.802   4.526   3.346 -0.0959  0.2085 -0.7193
  438MOL0     C59061   1.908   4.440   3.307  0.0498  0.3217  0.2126
  438MOL0     C59062   1.903   4.304   3.372  0.2493  0.2784 -0.0503
  438MOL0     H59063   2.308   4.387   2.906 -0.1009  0.2531  0.6581
  438MOL0     H59064   2.523   4.298   2.834 -0.6152  1.9019  0.8216
  438MOL0     H59065   2.855   4.292   3.118 -0.2643  0.4822 -0.4625
  438MOL0     H59066   2.824   4.110   3.124 -0.6537 -0.2885  1.2243
  438MOL0     H59067   2.961   4.251   2.883 -1.4546 -1.3473 -1.6091
  438MOL0     H59068   2.941   4.082   2.910 -0.7561  0.2153 -0.2690
  438MOL0     H59069   3.080   4.062   3.095 -0.5176 -0.3041  0.5337
  438MOL0     H59070   3.125   4.238   3.110  1.0557 -0.8829  0.3437
  438MOL0     H59071   3.182   4.103   2.849  1.2146  0.6538 -0.7329
  438MOL0     H59072   3.222   4.264   2.899  0.0432  0.4587  1.5572
  438MOL0     H59073   3.372   4.188   3.061  1.4568 -0.7380 -0.8204
  438MOL0     H59074   3.290   4.025   3.060 -4.2321  0.4320 -0.8950
  438MOL0     H59075   3.372   3.993   2.831 -1.5323  1.2275  0.0422
  438MOL0     H59076   3.451   4.148   2.821  2.0217  0.9088  2.1719
  438MOL0     H59077   3.591   3.924   2.893 -4.4102 -2.2610 -0.7896
  438MOL0     H59078   3.545   3.977   3.061 -1.3353 -2.2659 -0.3635
  438MOL0     H59079   3.645   4.185   3.025 -0.0698  1.2291 -0.7652
  438MOL0     H59080   3.766   4.056   2.984  0.7448  2.5758  1.3820
  438MOL0     H59081   3.702   3.966   2.708 -0.3653  0.8885  0.1726
  438MOL0     H59082   3.698   4.048   2.430 -0.2001  2.0886 -1.0450
  438MOL0     H59083   3.769   4.205   2.396  0.7490  0.7273  0.5583
  438MOL0     H59084   3.907   3.958   2.506 -0.0993  1.5710  2.2171
  438MOL0     H59085   3.928   4.018   2.352  3.5816 -2.5489  0.7306
  438MOL0     H59086   3.989   4.257   2.491 -1.5027 -0.1303 -0.2857
  438MOL0     H59087   4.101   4.151   2.418  0.0943  2.2527 -0.4136
  438MOL0     H59088   3.989   4.144   2.704  0.0092  2.0669 -0.3971
  438MOL0     H59089   4.143   4.198   2.658 -1.2155  0.1319  1.4716
  438MOL0     H59090   4.250   4.160   2.842 -1.6969 -1.1611  0.4077
  438MOL0     H59091   4.456   4.102   2.976  1.1323 -0.4989 -0.3388
  438MOL0     H59092   4.647   3.624   3.133 -0.1180 -0.6387  0.6062
  438MOL0     H59093   4.861   3.540   3.239 -0.8556  0.5160 -0.8813
  438MOL0     H59094   5.211   3.771   3.267  2.2517 -0.6461  0.4868
  438MOL0     H59095   5.177   3.820   3.433  2.0050 -0.3124  1.9300
  438MOL0     H59096   5.224   3.584   3.497 -2.6203 -1.8673 -2.0425
  438MOL0     H59097   5.263   3.551   3.329 -2.0795  1.4173 -0.6640
  438MOL0     H59098   5.448   3.725   3.332  0.5631 -0.6656 -0.3153
  438MOL0     H59099   5.399   3.761   3.504  0.3978 -2.3812  2.3174
  438MOL0     H59100   5.509   3.489   3.424  1.7379 -0.0197 -0.0898
  438MOL0     H59101   5.469   3.540   3.585 -0.8493 -0.4326  0.5092
  438MOL0     H59102   5.714   3.553   3.550 -2.0933 -0.2365  3.0916
  438MOL0     H59103   5.655   3.718   3.565  3.8699 -0.9227  0.8722
  438MOL0     H59104   5.667   3.751   3.317 -0.7525  0.0365  1.1351
  438MOL0     H59105   5.826   3.705   3.390  0.7779 -1.5112  0.5544
  438MOL0     H59106   5.777   3.600   3.172 -0.3096  1.3579 -0.2743
  438MOL0     H59107   5.632   3.534   3.214 -0.0508 -0.3774 -0.0727
  438MOL0     H59108   5.746   3.371   3.379 -0.6133  0.1288  0.7125
  438MOL0     H59109   5.821   3.367   3.224  0.3328 -1.3031  1.8223
  438MOL0     H59110   5.014   3.945   3.279  1.5468 -0.9277  2.3892
  438MOL0     H59111   4.821   4.022   3.173 -3.7076  1.3581  3.0456
  438MOL0     H59112   4.512   3.769   2.722  1.3747  3.5939 -2.9306
  438MOL0     H59113   4.306   3.789   2.630  0.7611  2.1476 -3.0631
  438MOL0     H59114   2.641   4.259   3.246 -1.8316  0.1848  1.7510
  438MOL0     H59115   2.424   4.347   3.311 -2.7519  1.2407 -0.5382
  438MOL0     H59116   2.082   4.650   3.119  1.8112 -1.0652 -0.1712
  438MOL0     H59117   1.879   4.782   3.145 -0.7634  0.2679  0.7009
  438MOL0     H59118   1.504   4.770   3.350 -0.9766 -0.6509 -0.7599
  438MOL0     H59119   1.560   4.607   3.388  3.1639 -0.4367  0.2421
  438MOL0     H59120   1.546   4.567   3.131 -0.2499  1.0776 -1.9015
  438MOL0     H59121   1.523   4.735   3.112  1.2408 -1.4668 -0.7174
  438MOL0     H59122   1.334   4.551   3.275 -2.0999  2.4695  0.3130
  438MOL0     H59123   1.329   4.559   3.101  2.9542 -2.8361  1.1129
  438MOL0     H59124   1.160   4.720   3.209 -0.1645  0.6807  1.9467
  438MOL0     H59125   1.287   4.812   3.281  0.0983  0.8452  0.0751
  438MOL0     H59126   1.318   4.950   2.882  0.1526 -0.9996  0.4425
  438MOL0     H59127   1.730   4.476   3.410  0.4187 -3.6383 -2.8528
  438MOL0     H59128   1.949   4.225   3.312 -2.5237 -0.0953 -1.8973
  438MOL0     H59129   1.957   4.308   3.467 -2.1780 -2.9594  1.6495
  438MOL0     H59130   1.800   4.274   3.392  0.0170  2.0977  1.8460
  439MOL0     O59131   1.567   9.904   4.466  0.2676  0.7970 -0.4768
  439MOL0     C59132   1.465   9.830   4.440  0.0566 -0.8193 -0.3706
  439MOL0     O59133   1.471   9.703   4.421 -0.4979  0.3331  0.3775
  439MOL0     C59134   1.597   9.637   4.435  0.2204 -0.0209 -0.5062
  439MOL0     C59135   1.647   9.618   4.555 -1.0252  0.8457 -0.4758
  439MOL0     C59136   1.776   9.568   4.565  0.4001 -0.1906 -0.8998
  439MOL0     C59137   1.853   9.529   4.455  0.6997  0.0056  0.4783
  439MOL0     O59138   1.987   9.477   4.483  0.3075 -0.0427 -0.2772
  439MOL0     C59139   2.020   9.346   4.433 -0.5913  0.3096  1.0306
  439MOL0     C59140   2.131   9.353   4.326  0.4134  0.2686  0.5584
  439MOL0     C59141   2.157   9.204   4.267 -0.4895 -0.1874 -0.1622
  439MOL0     C59142   2.234   9.226   4.136  0.9392 -0.3240  0.6645
  439MOL0     C59143   2.381   9.271   4.159  0.2584  0.6560  0.0432
  439MOL0     C59144   2.446   9.335   4.034  0.1384 -0.4335  0.0229
  439MOL0     C59145   2.582   9.394   4.064 -0.3553 -0.1173  0.2001
  439MOL0     C59146   2.647   9.442   3.938 -0.2502 -0.0630 -0.2652
  439MOL0     N59147   2.772   9.515   3.973 -0.8267  0.2720  0.0127
  439MOL0     C59148   2.897   9.479   3.929  0.1426 -0.6223  0.3108
  439MOL0     C59149   2.981   9.568   3.986 -0.2262  0.2705 -0.1083
  439MOL0     C59150   3.129   9.569   3.966  0.4819  0.1869 -0.2325
  439MOL0     C59151   3.192   9.439   4.022 -0.3269  0.5432 -0.0811
  439MOL0     C59152   3.192   9.413   4.176 -0.5489 -0.9943  0.8798
  439MOL0     C59153   3.271   9.288   4.206  0.2123 -0.0198  0.3265
  439MOL0     O59154   3.263   9.264   4.350 -0.2455  0.3959  0.0653
  439MOL0     C59155   3.146   9.188   4.393  0.7349  0.8250 -0.2612
  439MOL0     C59156   3.040   9.119   4.316 -0.4301 -0.4219  0.4396
  439MOL0     C59157   2.917   9.084   4.377 -0.7358  0.6811  0.1499
  439MOL0     C59158   2.904   9.082   4.513  0.1149 -1.4371 -0.7277
  439MOL0     C59159   2.778   9.031   4.574  0.1284 -0.2170  0.2144
  439MOL0     O59160   2.665   9.011   4.499 -0.0601  0.3527 -0.1515
  439MOL0     C59161   2.558   8.964   4.566  0.4333 -0.4499 -0.3012
  439MOL0     C59162   2.548   8.852   4.648  0.0959  0.0819 -0.2229
  439MOL0     C59163   2.424   8.822   4.707  1.2173 -0.3703  0.0148
  439MOL0     C59164   2.313   8.895   4.683 -0.6441  0.9317 -0.8207
  439MOL0     O59165   2.204   8.840   4.737  0.3706 -0.0941 -0.2935
  439MOL0     C59166   2.109   8.932   4.812 -0.1058 -0.3559 -0.2086
  439MOL0     C59167   1.974   8.851   4.818  0.7253 -0.2897 -0.8903
  439MOL0     C59168   1.865   8.936   4.873  0.0438 -0.5288  0.0358
  439MOL0     C59169   1.739   8.847   4.907  0.1189 -0.0464 -0.1247
  439MOL0     C59170   1.619   8.930   4.966  0.6798  0.2078  0.0878
  439MOL0     C59171   1.495   8.847   4.991 -0.3281  0.7530 -0.4510
  439MOL0     C59172   1.363   8.929   4.997  0.1155 -0.0850 -0.2970
  439MOL0     C59173   1.341   8.981   5.141 -0.4712 -0.8420  0.0406
  439MOL0    Cl59174   1.197   9.085   5.127  0.3204 -0.1119 -0.4563
  439MOL0     C59175   2.320   9.010   4.607 -1.2068  0.2771  0.5205
  439MOL0     C59176   2.448   9.044   4.557  0.3357 -0.0003  1.0439
  439MOL0     O59177   2.793   8.992   4.690  0.2257 -0.0952  0.0009
  439MOL0     C59178   3.006   9.145   4.588 -0.0669  0.1851  0.4408
  439MOL0     C59179   3.126   9.192   4.531  0.3061 -0.1488 -0.7802
  439MOL0     N59180   2.916   9.661   4.052  0.0490  0.0632 -0.3542
  439MOL0     N59181   2.788   9.629   4.038 -0.0093  0.9703  0.2305
  439MOL0     C59182   1.801   9.551   4.324  0.2104  1.0177  0.2391
  439MOL0     C59183   1.664   9.597   4.314  0.3709 -0.1177 -0.1617
  439MOL0     C59184   1.331   9.897   4.415 -0.0899 -0.2438 -1.0817
  439MOL0     C59185   1.225   9.802   4.421 -0.0264  0.5802 -0.3900
  439MOL0     C59186   1.094   9.841   4.434 -0.7580  0.1649  0.2476
  439MOL0     C59187   1.054   9.972   4.439  0.4498 -0.5758 -0.6927
  439MOL0     O59188   0.926  10.011   4.456  0.2375  0.0808  0.5801
  439MOL0     C59189   0.816   9.939   4.392  0.1256 -0.4139  0.1157
  439MOL0     C59190   0.812   9.942   4.241 -0.9347  0.1310  0.5677
  439MOL0     C59191   0.760  10.073   4.182  0.0193 -0.2639 -0.1108
  439MOL0     C59192   0.876  10.179   4.165  0.1217  0.3661  0.1226
  439MOL0     C59193   0.830  10.276   4.076  0.2346  0.0114  0.2227
  439MOL0     C59194   0.777  10.359   4.007 -0.0026 -0.6892 -0.7348
  439MOL0     C59195   1.156  10.073   4.434  0.1178 -0.4113  0.4593
  439MOL0     C59196   1.296  10.033   4.422 -0.0789 -0.5181 -0.4828
  439MOL0     C59197   1.394  10.147   4.436  0.2005  0.0867 -0.0894
  439MOL0     H59198   1.585   9.638   4.642 -2.3913 -3.4139 -0.2195
  439MOL0     H59199   1.815   9.570   4.667 -0.6332  0.2843 -0.4970
  439MOL0     H59200   2.044   9.287   4.522  1.4885 -1.3325 -0.5327
  439MOL0     H59201   1.940   9.298   4.377  2.2182 -1.1078 -2.1228
  439MOL0     H59202   2.224   9.399   4.363  0.3520  2.2043 -1.4474
  439MOL0     H59203   2.111   9.426   4.247 -0.3376 -0.2516  0.2577
  439MOL0     H59204   2.064   9.152   4.244  0.0746 -0.5180 -1.8474
  439MOL0     H59205   2.219   9.140   4.330  0.0813  1.6804  1.2229
  439MOL0     H59206   2.233   9.130   4.082  1.6499  1.2050 -2.3094
  439MOL0     H59207   2.176   9.293   4.072  0.5559 -1.8633 -0.6765
  439MOL0     H59208   2.374   9.352   4.232 -3.0597  0.8276 -0.3063
  439MOL0     H59209   2.441   9.191   4.202  2.7239  3.9274  3.1772
  439MOL0     H59210   2.462   9.253   3.962 -0.1060 -1.1209  0.7385
  439MOL0     H59211   2.379   9.409   3.989 -0.6245  0.0003  1.8057
  439MOL0     H59212   2.647   9.318   4.109  2.3061  2.1206  0.4393
  439MOL0     H59213   2.588   9.471   4.142  1.3364 -0.5513  0.5548
  439MOL0     H59214   2.675   9.358   3.873  2.8074  0.8649 -0.3238
  439MOL0     H59215   2.574   9.506   3.889  0.8626  2.0092  0.6893
  439MOL0     H59216   2.931   9.407   3.855 -0.9758  0.6464 -1.5099
  439MOL0     H59217   3.160   9.578   3.861 -0.4385  1.6768 -0.4063
  439MOL0     H59218   3.165   9.660   4.016 -2.0190  0.8724  0.4347
  439MOL0     H59219   3.141   9.355   3.974  0.3015  0.1794 -0.1169
  439MOL0     H59220   3.298   9.444   3.996 -0.1458 -0.6430  0.3861
  439MOL0     H59221   3.089   9.416   4.213 -1.4422  0.0699 -1.4879
  439MOL0     H59222   3.241   9.500   4.219  0.5442 -0.3512 -1.4952
  439MOL0     H59223   3.379   9.295   4.189  0.0114 -0.1650 -1.1654
  439MOL0     H59224   3.229   9.200   4.155 -0.0055  0.8361 -1.0322
  439MOL0     H59225   3.050   9.122   4.208 -2.7069  1.0867  0.1945
  439MOL0     H59226   2.829   9.057   4.320 -1.9890  1.2182  1.7433
  439MOL0     H59227   2.616   8.771   4.670 -2.5397 -1.5905  2.5248
  439MOL0     H59228   2.413   8.740   4.777 -0.3767 -0.5651 -0.4096
  439MOL0     H59229   2.151   8.962   4.908  3.0325 -1.7157 -1.0272
  439MOL0     H59230   2.094   9.027   4.760 -0.3869 -0.2497  0.0693
  439MOL0     H59231   1.949   8.827   4.714  2.2743 -2.5022 -0.8321
  439MOL0     H59232   1.988   8.762   4.880  2.3095 -0.0160 -0.8040
  439MOL0     H59233   1.888   8.990   4.965 -0.0249 -0.5376  0.0587
  439MOL0     H59234   1.834   9.008   4.798 -0.9024  0.4375  1.3111
  439MOL0     H59235   1.769   8.776   4.985  0.3235 -0.7013 -0.7866
  439MOL0     H59236   1.715   8.786   4.820 -1.6651  0.8624 -0.3051
  439MOL0     H59237   1.594   9.007   4.893  0.0690  0.4511  0.5498
  439MOL0     H59238   1.662   8.983   5.052 -0.2007  0.5265  0.3344
  439MOL0     H59239   1.489   8.769   4.914  3.4550  1.4864 -1.7235
  439MOL0     H59240   1.512   8.793   5.085 -0.1484 -1.9419 -1.9255
  439MOL0     H59241   1.277   8.865   4.980 -0.6656  0.5566  1.0837
  439MOL0     H59242   1.359   9.013   4.926  3.2517 -0.5020 -1.1136
  439MOL0     H59243   1.322   8.911   5.223 -1.3395  0.7703  1.2922
  439MOL0     H59244   1.426   9.041   5.173 -1.6679  1.6435 -1.1595
  439MOL0     H59245   2.229   9.066   4.587 -2.1786 -1.2103  0.6246
  439MOL0     H59246   2.458   9.141   4.511  1.5934  0.5332  2.3865
  439MOL0     H59247   3.005   9.146   4.697  0.2361  1.0123  0.4445
  439MOL0     H59248   3.207   9.241   4.585 -2.1043  0.7481  2.3845
  439MOL0     H59249   1.871   9.545   4.241  0.1262  3.5779 -0.0962
  439MOL0     H59250   1.616   9.594   4.217  2.0784  0.3392 -1.0568
  439MOL0     H59251   1.244   9.695   4.426  0.5354  0.6879 -0.1885
  439MOL0     H59252   1.024   9.761   4.457  0.2391 -0.6872  0.4172
  439MOL0     H59253   0.717   9.961   4.433 -1.4196 -1.8646 -2.5046
  439MOL0     H59254   0.834   9.835   4.419 -0.8857 -0.2117  1.6847
  439MOL0     H59255   0.738   9.870   4.205 -2.4062  1.8073  0.0819
  439MOL0     H59256   0.913   9.925   4.203 -1.0395  0.4353  0.1501
  439MOL0     H59257   0.688  10.117   4.251 -1.4165  2.2632 -2.9661
  439MOL0     H59258   0.715  10.052   4.084 -2.2953 -0.3476  0.8979
  439MOL0     H59259   0.898  10.227   4.261  0.4520  1.2057 -0.3658
  439MOL0     H59260   0.974  10.139   4.137  1.2337  0.7284  3.1391
  439MOL0     H59261   0.730  10.435   3.948  3.5143  0.3780 -2.4184
  439MOL0     H59262   1.121  10.175   4.445 -0.1273 -0.4753  0.2726
  439MOL0     H59263   1.345  10.238   4.401  0.5312  0.4346  0.3507
  439MOL0     H59264   1.421  10.153   4.542 -0.4629 -0.5846  0.1263
  439MOL0     H59265   1.479  10.127   4.370 -0.6760 -0.4969 -1.0677
  440MOL0     O59266   4.689   7.301  10.468  0.1724 -0.4753  0.0931
  440MOL0     C59267   4.576   7.352  10.470  0.5459 -0.1669  0.9956
  440MOL0     O59268   4.525   7.446  10.565  0.2937  0.1558 -0.5264
  440MOL0     C59269   4.600   7.451  10.680 -0.7408 -0.4281 -0.1987
  440MOL0     C59270   4.737   7.486  10.679  0.0424 -0.8495  0.4909
  440MOL0     C59271   4.802   7.504  10.807  0.0889 -0.7833  0.0156
  440MOL0     C59272   4.749   7.461  10.929  0.8980  0.3197  0.3463
  440MOL0     O59273   4.822   7.471  11.043 -0.8101 -0.3872  0.2747
  440MOL0     C59274   4.797   7.371  11.150 -0.1504 -0.5438 -0.0139
  440MOL0     C59275   4.891   7.388  11.274  0.4043  0.0093  0.4020
  440MOL0     C59276   5.040   7.383  11.242 -0.0582 -0.2551  0.0932
  440MOL0     C59277   5.101   7.504  11.166 -0.0723  0.7405 -0.8079
  440MOL0     C59278   5.253   7.521  11.183  0.9718  1.1747 -0.4624
  440MOL0     C59279   5.280   7.612  11.294 -0.2486 -0.8590 -0.4601
  440MOL0     C59280   5.428   7.651  11.299  0.1761 -0.9119 -0.3245
  440MOL0     C59281   5.523   7.545  11.355 -0.0177  0.1517  1.0012
  440MOL0     N59282   5.665   7.583  11.339 -0.9235  0.9554 -0.0558
  440MOL0     C59283   5.745   7.642  11.426  0.7625 -0.3730  0.1134
  440MOL0     C59284   5.865   7.658  11.381 -0.3471 -0.0008 -0.1836
  440MOL0     C59285   5.983   7.735  11.438  0.1041 -0.6274 -0.2466
  440MOL0     C59286   6.120   7.682  11.406  0.0519 -0.2344  0.5416
  440MOL0     C59287   6.174   7.576  11.500  0.5234 -0.2098 -0.2128
  440MOL0     C59288   6.311   7.527  11.449  0.7980 -0.0018  0.3887
  440MOL0     O59289   6.403   7.621  11.497 -0.1107 -0.0456 -0.0945
  440MOL0     C59290   6.536   7.604  11.477 -0.2244  0.0313 -0.2994
  440MOL0     C59291   6.595   7.492  11.415  0.3345  0.6244  0.4529
  440MOL0     C59292   6.735   7.473  11.427 -0.3967 -0.3322 -0.0699
  440MOL0     C59293   6.818   7.558  11.499 -0.1485  0.3952 -0.3339
  440MOL0     C59294   6.960   7.535  11.501 -0.0633  0.2058  0.0640
  440MOL0     O59295   7.032   7.596  11.605  0.1405  0.1713 -0.5674
  440MOL0     C59296   7.165   7.581  11.628  0.1790  0.1865  0.2343
  440MOL0     C59297   7.203   7.622  11.742 -0.9051 -0.5910 -0.2429
  440MOL0     C59298   7.340   7.628  11.775 -0.0512  0.3880 -0.1610
  440MOL0     C59299   7.440   7.577  11.692  0.3367  0.2023  0.1035
  440MOL0     O59300   7.578   7.586  11.715 -0.1240 -0.5717  0.2493
  440MOL0     C59301   7.625   7.693  11.798 -0.3885 -0.7683  0.0535
  440MOL0     C59302   7.768   7.730  11.750  0.3353  0.4167 -0.8284
  440MOL0     C59303   7.867   7.626  11.807 -0.1272  0.6364 -0.7796
  440MOL0     C59304   7.876   7.484  11.750 -0.4229  0.3171  0.0410
  440MOL0     C59305   7.985   7.397  11.816 -0.0269 -0.2960 -0.0165
  440MOL0     C59306   7.997   7.256  11.763 -0.0692 -0.5249 -0.2870
  440MOL0     C59307   8.110   7.187  11.835  0.2117 -0.4775  0.5972
  440MOL0     C59308   8.149   7.054  11.774  0.2368  1.0033 -0.2767
  440MOL0    Cl59309   8.252   7.084  11.633  0.2191 -0.4829  0.2724
  440MOL0     C59310   7.397   7.511  11.575 -0.7261 -0.4921 -0.4720
  440MOL0     C59311   7.258   7.516  11.547  0.7154  0.1216  0.2109
  440MOL0     O59312   7.006   7.463  11.414  0.7343 -0.3754  0.4079
  440MOL0     C59313   6.757   7.664  11.568  0.5668  0.3775  0.2974
  440MOL0     C59314   6.620   7.690  11.554  0.4953  0.2207  0.9814
  440MOL0     N59315   5.861   7.621  11.247  0.4561  0.1285  0.2463
  440MOL0     N59316   5.740   7.578  11.224 -0.4912 -0.4341 -0.1726
  440MOL0     C59317   4.614   7.417  10.927 -0.7975  0.1744 -0.4121
  440MOL0     C59318   4.541   7.417  10.809 -0.6749  0.2959  0.3823
  440MOL0     C59319   4.497   7.329  10.350  0.1167  0.4348  0.7566
  440MOL0     C59320   4.403   7.425  10.317 -0.3319  0.5017 -0.0869
  440MOL0     C59321   4.316   7.422  10.202  0.0514 -0.7700 -0.3354
  440MOL0     C59322   4.324   7.313  10.119 -0.0876 -0.8517  0.1178
  440MOL0     O59323   4.255   7.306  10.000 -0.1797 -0.1164  0.0513
  440MOL0     C59324   4.168   7.413   9.963  0.1680  0.3660 -0.3751
  440MOL0     C59325   4.111   7.399   9.829  1.8308  0.7396  0.2575
  440MOL0     C59326   4.228   7.361   9.725  0.9962  0.4766  0.1784
  440MOL0     C59327   4.165   7.339   9.590 -0.0173  0.3855 -0.2078
  440MOL0     C59328   4.087   7.226   9.572 -0.4276 -0.0936 -0.3246
  440MOL0     C59329   4.032   7.122   9.550  0.0184  0.6122  0.1593
  440MOL0     C59330   4.417   7.209  10.152  0.0267 -0.4147  0.0039
  440MOL0     C59331   4.505   7.210  10.268 -0.0239 -0.9292  0.0778
  440MOL0     C59332   4.584   7.082  10.301  0.4512 -0.0467  0.3269
  440MOL0     H59333   4.792   7.504  10.587 -1.0517  0.2798  0.0404
  440MOL0     H59334   4.907   7.530  10.806 -0.0868 -0.0781 -0.2384
  440MOL0     H59335   4.696   7.375  11.192 -0.0558 -1.6335  0.3615
  440MOL0     H59336   4.815   7.270  11.113 -1.8349 -1.4590  1.4931
  440MOL0     H59337   4.874   7.317  11.355  1.2922 -0.8908 -0.1830
  440MOL0     H59338   4.874   7.491  11.307 -0.2674  1.3696 -3.6629
  440MOL0     H59339   5.051   7.290  11.186  1.4554  0.6790 -1.2453
  440MOL0     H59340   5.106   7.362  11.327  0.5470 -0.5375 -0.4376
  440MOL0     H59341   5.097   7.477  11.060  1.9686  0.1344 -0.7711
  440MOL0     H59342   5.044   7.596  11.183 -1.1903  0.1741 -1.2958
  440MOL0     H59343   5.293   7.423  11.211  1.1639  2.0601  2.7744
  440MOL0     H59344   5.292   7.559  11.088 -2.5126  2.4894 -1.5168
  440MOL0     H59345   5.224   7.703  11.269 -0.5541 -0.9980 -0.2915
  440MOL0     H59346   5.242   7.583  11.393  2.9421 -1.1720  0.7773
  440MOL0     H59347   5.437   7.740  11.363 -0.5479 -1.5927  0.7570
  440MOL0     H59348   5.468   7.684  11.203  0.6187 -0.3463  0.0493
  440MOL0     H59349   5.499   7.524  11.460 -0.7183  1.7820  1.1895
  440MOL0     H59350   5.508   7.452  11.300 -0.5614  2.3600 -2.9973
  440MOL0     H59351   5.704   7.678  11.520  1.6525  0.5058  0.1850
  440MOL0     H59352   5.969   7.839  11.406 -0.0270 -0.4398  0.4097
  440MOL0     H59353   5.972   7.736  11.546  0.8779 -0.0260 -0.1621
  440MOL0     H59354   6.121   7.636  11.307  1.8681 -0.3266  0.5599
  440MOL0     H59355   6.184   7.770  11.407 -1.3107  0.9452 -2.9063
  440MOL0     H59356   6.105   7.494  11.516  0.4936 -0.3297 -0.9201
  440MOL0     H59357   6.193   7.616  11.600 -2.2812 -1.1633  0.7770
  440MOL0     H59358   6.303   7.521  11.340 -0.4662  0.2198  0.4588
  440MOL0     H59359   6.329   7.425  11.486 -0.7315  0.3944  2.4122
  440MOL0     H59360   6.532   7.415  11.371  0.6707  1.5806 -1.8365
  440MOL0     H59361   6.786   7.389  11.381  1.6758  0.7870  0.0942
  440MOL0     H59362   7.125   7.664  11.806 -0.1181 -0.9614  1.0070
  440MOL0     H59363   7.370   7.680  11.865  1.5775  0.1017 -0.5037
  440MOL0     H59364   7.571   7.788  11.788  0.3779 -0.5146 -2.2219
  440MOL0     H59365   7.634   7.664  11.903  1.3874  1.1176  0.4907
  440MOL0     H59366   7.773   7.726  11.641  0.5448  4.3703 -1.0792
  440MOL0     H59367   7.783   7.838  11.756 -2.0587  0.8313 -1.3583
  440MOL0     H59368   7.965   7.675  11.813  0.2518  0.0357 -1.7953
  440MOL0     H59369   7.836   7.602  11.910  0.5379 -0.5369 -0.8262
  440MOL0     H59370   7.907   7.502  11.647  0.1968 -0.8690  0.0089
  440MOL0     H59371   7.776   7.439  11.747 -0.5031  0.1884  2.5109
  440MOL0     H59372   7.957   7.384  11.921 -0.0193 -2.3261 -0.2322
  440MOL0     H59373   8.085   7.441  11.819  0.4997 -1.4756  0.4179
  440MOL0     H59374   7.904   7.198  11.771 -0.1749 -0.5402 -1.4241
  440MOL0     H59375   8.014   7.260  11.655 -1.7636  0.6787 -0.5555
  440MOL0     H59376   8.095   7.171  11.942 -1.3120 -0.7857  0.3497
  440MOL0     H59377   8.195   7.256  11.828  2.1400 -2.6841  0.7486
  440MOL0     H59378   8.212   7.005  11.850 -0.2784 -0.9548 -1.0611
  440MOL0     H59379   8.065   6.992  11.741  0.4411  1.8126 -2.5042
  440MOL0     H59380   7.467   7.463  11.507  0.8292 -0.7517  1.2602
  440MOL0     H59381   7.235   7.471  11.451 -2.2760 -1.3201  1.4775
  440MOL0     H59382   6.814   7.707  11.650 -1.8061  0.7470  1.8459
  440MOL0     H59383   6.575   7.771  11.612 -1.8164  2.8044 -3.8257
  440MOL0     H59384   4.575   7.383  11.023  0.5099  0.0258  0.0952
  440MOL0     H59385   4.437   7.383  10.814 -0.4747 -0.2445  1.0474
  440MOL0     H59386   4.397   7.514  10.378  1.0958 -0.4430  1.5317
  440MOL0     H59387   4.267   7.516  10.179  1.4999  0.1763  0.2839
  440MOL0     H59388   4.211   7.513   9.979  0.1175  0.3025  0.1821
  440MOL0     H59389   4.075   7.426  10.019  0.8820  2.1144  0.4924
  440MOL0     H59390   4.084   7.496   9.788 -0.3935 -0.2263 -0.7064
  440MOL0     H59391   4.029   7.326   9.822  1.9084  0.0042  4.5143
  440MOL0     H59392   4.277   7.270   9.760 -0.2306  0.0207  0.7933
  440MOL0     H59393   4.288   7.452   9.713 -1.6248  2.4190  0.7376
  440MOL0     H59394   4.100   7.418   9.552 -1.4864 -1.2642 -1.3129
  440MOL0     H59395   4.249   7.346   9.520 -1.1489  1.2677 -1.5370
  440MOL0     H59396   3.997   7.022   9.530  1.8488  0.1657 -0.9993
  440MOL0     H59397   4.418   7.116  10.097  1.8132 -0.5641  0.2292
  440MOL0     H59398   4.692   7.099  10.306  0.6339 -1.4293  3.0762
  440MOL0     H59399   4.543   7.039  10.394 -2.2097  0.1215 -0.6810
  440MOL0     H59400   4.572   7.005  10.225 -0.1977  0.9284 -0.5868
  441MOL0     O59401  10.634   0.156   8.033 -0.5282  0.3325 -0.0385
  441MOL0     C59402  10.589   0.267   8.026 -0.3053  0.0770 -0.6465
  441MOL0     O59403  10.672   0.380   8.002 -0.0168  0.1185 -0.4962
  441MOL0     C59404  10.806   0.378   7.976  1.0940  0.3294 -0.2769
  441MOL0     C59405  10.891   0.276   7.944  0.3612 -0.0201  0.7235
  441MOL0     C59406  11.027   0.299   7.921  0.7703  0.4408  0.6302
  441MOL0     C59407  11.083   0.432   7.932  0.3770  0.4130 -0.0889
  441MOL0     O59408  11.217   0.470   7.938 -0.0621 -0.8563  0.3023
  441MOL0     C59409  11.311   0.379   7.877  0.4009 -0.4270  0.5527
  441MOL0     C59410  11.424   0.347   7.972 -0.2059 -0.7820  0.5437
  441MOL0     C59411  11.381   0.278   8.104 -0.7415  0.5014  0.8299
  441MOL0     C59412  11.502   0.291   8.195  0.9909  0.4422  0.9995
  441MOL0     C59413  11.480   0.241   8.333  0.4395  0.1723 -1.0993
  441MOL0     C59414  11.614   0.216   8.395  0.3176  0.0084 -0.2339
  441MOL0     C59415  11.609   0.152   8.529 -0.2949  0.0061 -0.4080
  441MOL0     C59416  11.646   0.007   8.532 -0.0839 -0.2736  0.0120
  441MOL0     N59417  11.618  -0.031   8.670  0.4606 -0.2688 -0.3001
  441MOL0     C59418  11.501  -0.077   8.737 -0.4397  0.1778  0.3055
  441MOL0     C59419  11.548  -0.110   8.858  0.5759 -0.6049 -0.1577
  441MOL0     C59420  11.473  -0.157   8.980 -0.2581  0.3943  0.1304
  441MOL0     C59421  11.367  -0.062   9.041 -0.3159 -0.3469  0.0916
  441MOL0     C59422  11.355  -0.096   9.192  0.1597  1.0088  0.2709
  441MOL0     C59423  11.268   0.006   9.275 -0.1738 -0.2238 -0.6608
  441MOL0     O59424  11.134  -0.000   9.230 -0.1365 -0.2050 -0.1457
  441MOL0     C59425  11.046   0.062   9.315  0.7261  0.0283 -0.5745
  441MOL0     C59426  10.929   0.076   9.246 -0.3080 -0.4419  0.3894
  441MOL0     C59427  10.807   0.126   9.303  0.0460  0.0125  0.1484
  441MOL0     C59428  10.821   0.178   9.431  0.5113  0.5985  0.1447
  441MOL0     C59429  10.702   0.236   9.493  0.4261  0.4813 -0.4964
  441MOL0     O59430  10.579   0.220   9.425 -0.6585 -0.0005 -0.2962
  441MOL0     C59431  10.456   0.248   9.474  0.6388  0.2387 -0.2324
  441MOL0     C59432  10.422   0.319   9.592 -0.2819  0.2938 -0.5124
  441MOL0     C59433  10.292   0.344   9.636  0.4431  0.1579  0.1282
  441MOL0     C59434  10.189   0.296   9.557  1.2608  0.2886  0.0691
  441MOL0     O59435  10.053   0.312   9.588 -0.1272  0.8444 -0.3838
  441MOL0     C59436  10.011   0.423   9.664 -0.1228 -0.3297  0.4379
  441MOL0     C59437   9.869   0.399   9.699  0.4163 -0.2977  0.3314
  441MOL0     C59438   9.785   0.399   9.575  0.9738 -0.6090  0.2543
  441MOL0     C59439   9.650   0.334   9.592  0.6488 -0.2890 -0.2142
  441MOL0     C59440   9.567   0.357   9.473  0.6449  0.1285  0.1000
  441MOL0     C59441   9.419   0.305   9.510 -0.4565  0.4388  0.3505
  441MOL0     C59442   9.338   0.292   9.376  0.1279 -0.4877 -0.4144
  441MOL0     C59443   9.194   0.256   9.399  0.3511  0.0618 -0.3698
  441MOL0    Cl59444   9.117   0.240   9.242  0.1393 -0.1234 -0.1150
  441MOL0     C59445  10.223   0.221   9.444 -0.6238  0.0477 -0.1740
  441MOL0     C59446  10.353   0.213   9.392  0.4171 -0.8993 -0.3124
  441MOL0     O59447  10.723   0.286   9.603 -0.2223 -0.1975  0.3732
  441MOL0     C59448  10.941   0.166   9.505 -0.4250  0.5270  0.4773
  441MOL0     C59449  11.052   0.096   9.454  0.3267  0.4623  1.0257
  441MOL0     N59450  11.682  -0.082   8.865  0.2664  0.7438 -0.6778
  441MOL0     N59451  11.723  -0.035   8.759 -0.3623  0.0439  0.6770
  441MOL0     C59452  10.992   0.529   7.962 -0.5910 -0.7273 -0.8427
  441MOL0     C59453  10.858   0.508   7.989 -0.3003 -0.8275  0.8158
  441MOL0     C59454  10.446   0.292   8.064 -0.2131  0.0799  0.3789
  441MOL0     C59455  10.410   0.424   8.046  0.2165 -0.0408  0.2904
  441MOL0     C59456  10.281   0.463   8.078  0.0185  0.0812 -0.3317
  441MOL0     C59457  10.190   0.374   8.134 -0.0932 -0.3461 -0.0497
  441MOL0     O59458  10.072   0.441   8.153 -0.2563  0.1000  0.9297
  441MOL0     C59459   9.981   0.380   8.241  0.9281 -0.0890 -2.3107
  441MOL0     C59460   9.863   0.471   8.248 -0.2958 -0.1337  0.6070
  441MOL0     C59461   9.749   0.412   8.331  0.2411  0.0993  0.1840
  441MOL0     C59462   9.638   0.512   8.350  1.4411  0.2671 -0.1393
  441MOL0     C59463   9.553   0.521   8.224 -0.0423  0.6626 -0.7809
  441MOL0     C59464   9.472   0.505   8.135 -0.5995 -0.2500 -0.2477
  441MOL0     C59465  10.224   0.243   8.157 -0.3222  0.1103 -0.0255
  441MOL0     C59466  10.356   0.197   8.118 -0.5157  0.2489  0.1004
  441MOL0     C59467  10.383   0.050   8.152 -0.7354 -0.3594 -0.6794
  441MOL0     H59468  10.851   0.175   7.942  0.3446 -0.0123  0.6471
  441MOL0     H59469  11.091   0.217   7.891  0.8261  1.2979 -1.8699
  441MOL0     H59470  11.273   0.288   7.829 -0.0643 -0.0933  0.2726
  441MOL0     H59471  11.356   0.438   7.797 -0.6233  1.3830  1.2576
  441MOL0     H59472  11.475   0.443   7.987 -2.5823  1.0301 -1.9490
  441MOL0     H59473  11.491   0.288   7.908  0.9407  1.5553 -0.5433
  441MOL0     H59474  11.366   0.172   8.079  0.8456  0.6842 -1.0945
  441MOL0     H59475  11.286   0.318   8.142 -1.2459  0.1523 -0.0308
  441MOL0     H59476  11.584   0.245   8.139 -0.6446 -1.4032 -0.0098
  441MOL0     H59477  11.537   0.394   8.202  2.5520 -0.0624  1.0358
  441MOL0     H59478  11.422   0.304   8.401 -0.7939  0.0160 -1.9948
  441MOL0     H59479  11.432   0.143   8.332  0.6976  0.0055  0.2408
  441MOL0     H59480  11.681   0.172   8.321  0.8561  2.8392 -1.5414
  441MOL0     H59481  11.643   0.321   8.408  1.0586 -0.3407  1.0451
  441MOL0     H59482  11.512   0.168   8.578  0.8608  0.6126  1.8409
  441MOL0     H59483  11.685   0.206   8.586  1.7966  0.0482 -3.0412
  441MOL0     H59484  11.583  -0.047   8.461 -2.7264  0.2980  1.8140
  441MOL0     H59485  11.753  -0.003   8.508  0.2075  0.9487  0.7365
  441MOL0     H59486  11.398  -0.075   8.701  0.1340 -1.4289 -1.5704
  441MOL0     H59487  11.421  -0.248   8.949  0.6907 -0.5066  1.1278
  441MOL0     H59488  11.561  -0.183   9.040  0.5339  2.3536 -0.1021
  441MOL0     H59489  11.411   0.039   9.040  0.4871 -0.6804  0.4781
  441MOL0     H59490  11.272  -0.069   8.987  1.0409 -2.3123 -2.2579
  441MOL0     H59491  11.458  -0.091   9.230  1.1414 -1.1323 -1.8809
  441MOL0     H59492  11.316  -0.198   9.192 -0.0149  1.0407 -1.8146
  441MOL0     H59493  11.299   0.110   9.260 -0.0263 -0.1415  0.1390
  441MOL0     H59494  11.274  -0.017   9.382 -0.1007  1.3072 -0.3182
  441MOL0     H59495  10.940   0.054   9.140  1.9547 -0.5739  0.6037
  441MOL0     H59496  10.714   0.121   9.248 -1.0829  2.0751  1.7286
  441MOL0     H59497  10.497   0.352   9.663 -0.5127  0.6940 -0.4522
  441MOL0     H59498  10.270   0.393   9.731 -0.1141 -0.9819  0.6202
  441MOL0     H59499  10.062   0.417   9.760  2.2155 -0.3293 -0.7509
  441MOL0     H59500  10.037   0.508   9.602  1.7168 -1.0116  0.2227
  441MOL0     H59501   9.858   0.301   9.746 -0.8409 -0.3643 -0.0676
  441MOL0     H59502   9.826   0.467   9.774 -1.9960  1.9728 -2.8197
  441MOL0     H59503   9.762   0.503   9.547 -1.8421 -1.1086  0.4204
  441MOL0     H59504   9.840   0.346   9.498  1.1099  1.2752 -1.0166
  441MOL0     H59505   9.608   0.373   9.685  0.0154 -0.3045 -0.4876
  441MOL0     H59506   9.659   0.225   9.603  0.7943 -0.1439  1.3922
  441MOL0     H59507   9.615   0.305   9.390  0.1093  0.4131 -0.3925
  441MOL0     H59508   9.563   0.463   9.447  0.7205  0.2885  0.7144
  441MOL0     H59509   9.426   0.206   9.555 -1.6057 -0.3009 -1.0266
  441MOL0     H59510   9.376   0.376   9.581  1.1702  2.7941 -0.8760
  441MOL0     H59511   9.384   0.212   9.317 -0.5256 -0.5750 -0.8101
  441MOL0     H59512   9.351   0.386   9.321 -0.2431 -0.8461 -1.1340
  441MOL0     H59513   9.189   0.160   9.452  0.3522  0.8854  1.1854
  441MOL0     H59514   9.136   0.328   9.457 -2.7650 -2.1814 -0.4372
  441MOL0     H59515  10.144   0.196   9.374 -1.2266  1.4554 -0.0354
  441MOL0     H59516  10.358   0.181   9.288 -1.6098  2.9516 -1.8016
  441MOL0     H59517  10.939   0.194   9.610  1.2065  0.2636  0.6074
  441MOL0     H59518  11.139   0.060   9.508 -1.0392 -0.9550  2.3824
  441MOL0     H59519  11.038   0.625   7.985 -1.0029 -0.3369 -1.6120
  441MOL0     H59520  10.796   0.587   8.030  0.6418 -0.4356  1.5423
  441MOL0     H59521  10.472   0.506   8.012 -2.5796  2.5764  1.0612
  441MOL0     H59522  10.259   0.569   8.064  1.8367  0.7148  1.1363
  441MOL0     H59523  10.023   0.375   8.342  1.4133  1.0867 -2.4431
  441MOL0     H59524   9.950   0.276   8.223 -1.1276 -0.1252  0.6925
  441MOL0     H59525   9.822   0.494   8.149  1.3107  2.9510  0.5404
  441MOL0     H59526   9.899   0.568   8.284  1.0432 -0.3188 -0.1514
  441MOL0     H59527   9.782   0.369   8.426 -1.7736  1.8482  1.7717
  441MOL0     H59528   9.709   0.324   8.280 -1.5401  0.9173  0.1079
  441MOL0     H59529   9.577   0.472   8.432 -0.5508 -0.8163 -2.0283
  441MOL0     H59530   9.676   0.607   8.388  0.0589  0.1998  1.5770
  441MOL0     H59531   9.395   0.501   8.061  1.7518  0.8982 -2.9464
  441MOL0     H59532  10.147   0.180   8.200 -0.7966  0.4913 -0.3224
  441MOL0     H59533  10.467   0.043   8.223 -0.6524 -2.0439 -0.8865
  441MOL0     H59534  10.296   0.001   8.195 -1.8964 -0.3565 -2.8782
  441MOL0     H59535  10.412   0.000   8.059  1.6683 -1.5001  0.5715
  442MOL0     O59536   7.861   1.043   0.762  0.2767  0.4656  0.1484
  442MOL0     C59537   7.850   1.164   0.795  1.0093  0.2525 -0.7146
  442MOL0     O59538   7.951   1.252   0.816 -0.1220 -0.0545  0.1982
  442MOL0     C59539   8.080   1.209   0.839 -0.0512  0.3604  0.3564
  442MOL0     C59540   8.189   1.285   0.796  0.8432 -0.2600  0.3593
  442MOL0     C59541   8.323   1.244   0.822  0.3793  0.1369  0.0207
  442MOL0     C59542   8.351   1.124   0.893  0.0010 -0.0197 -0.0923
  442MOL0     O59543   8.482   1.090   0.922  0.8917 -0.9350  0.4926
  442MOL0     C59544   8.584   1.113   0.821  0.0843 -0.2901  0.1812
  442MOL0     C59545   8.706   1.080   0.895  0.0141  0.6649  0.1349
  442MOL0     C59546   8.833   1.089   0.808 -0.3332 -0.1816 -0.2877
  442MOL0     C59547   8.960   1.077   0.898 -0.3052 -0.3185 -0.0283
  442MOL0     C59548   9.090   1.083   0.806 -0.2951  0.7275 -0.0421
  442MOL0     C59549   9.094   1.219   0.733  0.1166 -0.4520 -0.1133
  442MOL0     C59550   9.235   1.273   0.724 -0.4846  0.6502 -0.1220
  442MOL0     C59551   9.325   1.180   0.633 -0.1944 -0.4618  0.6485
  442MOL0     N59552   9.467   1.221   0.634  0.3478 -0.0550  0.3307
  442MOL0     C59553   9.536   1.313   0.554 -0.4993  0.3656 -0.3191
  442MOL0     C59554   9.665   1.321   0.602  0.9728 -0.3503 -0.0302
  442MOL0     C59555   9.771   1.409   0.545  0.2226 -0.2692 -0.3246
  442MOL0     C59556   9.913   1.342   0.556 -0.5636  0.3537 -0.6418
  442MOL0     C59557  10.034   1.403   0.478  0.1310  0.1638  0.7410
  442MOL0     C59558  10.160   1.336   0.514  0.2195 -1.1556 -0.2942
  442MOL0     O59559  10.275   1.397   0.457  0.4100  0.1409  0.3195
  442MOL0     C59560  10.403   1.387   0.511 -0.1955 -0.2177 -0.0288
  442MOL0     C59561  10.513   1.423   0.439  0.8354  0.6632 -0.3293
  442MOL0     C59562  10.637   1.419   0.492  0.1214 -0.3892  0.0006
  442MOL0     C59563  10.671   1.371   0.620  0.2892 -1.0363 -0.3545
  442MOL0     C59564  10.798   1.385   0.691 -0.2498  0.5924  0.6929
  442MOL0     O59565  10.891   1.458   0.626  0.0749 -0.2907  0.3997
  442MOL0     C59566  11.011   1.476   0.691 -0.7848 -0.1052  0.6219
  442MOL0     C59567  11.028   1.565   0.794  0.4868 -0.5593  0.4235
  442MOL0     C59568  11.149   1.588   0.847  0.3050  1.0524  0.3740
  442MOL0     C59569  11.265   1.527   0.792  0.6135  0.0674 -0.2190
  442MOL0     O59570  11.383   1.567   0.828 -0.9393 -0.1191 -0.3728
  442MOL0     C59571  11.450   1.482   0.926 -0.1141  0.3488  0.5472
  442MOL0     C59572  11.607   1.495   0.905  0.3604  0.1826  0.0682
  442MOL0     C59573  11.666   1.424   0.783 -0.1231  0.3863  0.6019
  442MOL0     C59574  11.815   1.400   0.798 -0.3647 -0.6091 -0.3721
  442MOL0     C59575  11.871   1.323   0.682  0.0180 -0.0189  0.3744
  442MOL0     C59576  12.019   1.292   0.693 -0.3444 -0.5534 -0.3671
  442MOL0     C59577  12.063   1.193   0.806 -0.3697  0.2514  0.3642
  442MOL0     C59578  12.211   1.166   0.782  0.1774  0.1594 -0.0240
  442MOL0    Cl59579  12.280   1.069   0.916  0.0470  0.1746 -0.1207
  442MOL0     C59580  11.254   1.445   0.684 -0.0800  0.5140 -0.0665
  442MOL0     C59581  11.124   1.419   0.634  0.2192 -0.0337 -0.4297
  442MOL0     O59582  10.802   1.345   0.807 -0.5803  0.0407  0.1095
  442MOL0     C59583  10.556   1.336   0.697 -0.8437  0.0977  0.0203
  442MOL0     C59584  10.432   1.341   0.642  0.7492  0.5843  0.2204
  442MOL0     N59585   9.661   1.247   0.720  0.7184  0.5325 -0.1356
  442MOL0     N59586   9.550   1.183   0.733 -0.1907 -0.5270 -0.0115
  442MOL0     C59587   8.243   1.057   0.947  0.3305  0.4709 -0.1532
  442MOL0     C59588   8.115   1.084   0.905  1.4030 -1.2002 -0.4726
  442MOL0     C59589   7.713   1.217   0.813 -0.6922  0.0931  0.0718
  442MOL0     C59590   7.617   1.121   0.835 -0.2165 -0.0566 -0.1342
  442MOL0     C59591   7.481   1.154   0.851  0.2490 -0.2368 -0.0627
  442MOL0     C59592   7.444   1.287   0.869  0.5010 -0.3225  0.0177
  442MOL0     O59593   7.314   1.304   0.881 -0.3191  0.1115  0.0961
  442MOL0     C59594   7.271   1.328   1.019 -0.4133 -0.1703 -0.0056
  442MOL0     C59595   7.254   1.191   1.083 -0.5133  0.3579  0.6836
  442MOL0     C59596   7.212   1.191   1.229  0.0126 -1.2917  0.2029
  442MOL0     C59597   7.218   1.062   1.300  0.4010 -0.1995 -0.0908
  442MOL0     C59598   7.106   0.984   1.240 -0.5787 -0.8464 -0.4898
  442MOL0     C59599   7.024   0.907   1.202  0.5014  0.6538 -0.0598
  442MOL0     C59600   7.538   1.388   0.844 -0.6426 -0.1323  0.0957
  442MOL0     C59601   7.671   1.356   0.812  0.7293 -0.5187 -0.7832
  442MOL0     C59602   7.759   1.477   0.786  0.0126  0.1593 -0.1881
  442MOL0     H59603   8.162   1.367   0.731  3.8652  1.8072  1.5169
  442MOL0     H59604   8.388   1.312   0.768 -2.0269  1.2570 -1.6292
  442MOL0     H59605   8.563   1.054   0.732  0.6517 -3.1068  1.7907
  442MOL0     H59606   8.587   1.219   0.794 -2.5596 -0.5620 -1.4901
  442MOL0     H59607   8.693   0.980   0.937 -1.4231  0.8248  0.1166
  442MOL0     H59608   8.717   1.145   0.983 -0.7341 -2.2835  2.5696
  442MOL0     H59609   8.835   1.186   0.758 -0.2239  0.7586  1.4397
  442MOL0     H59610   8.838   1.017   0.726 -0.8532 -0.8606  0.2601
  442MOL0     H59611   8.960   1.162   0.967 -3.2157 -1.0703  1.0079
  442MOL0     H59612   8.957   0.983   0.952  1.5476 -1.6524 -2.0519
  442MOL0     H59613   9.180   1.077   0.868 -0.3048  0.4749 -0.0520
  442MOL0     H59614   9.080   0.996   0.741 -2.3491 -0.4543  1.7035
  442MOL0     H59615   9.041   1.214   0.638 -0.5121 -1.0336  0.2554
  442MOL0     H59616   9.042   1.286   0.802 -1.4388  0.4382 -2.0737
  442MOL0     H59617   9.280   1.287   0.822  0.1950 -0.8902 -0.1900
  442MOL0     H59618   9.224   1.374   0.683 -1.1135  0.0936 -1.3933
  442MOL0     H59619   9.325   1.073   0.655  2.0240 -1.0750 -1.8494
  442MOL0     H59620   9.288   1.188   0.531  1.0356  0.9238  0.2697
  442MOL0     H59621   9.502   1.377   0.473  0.9697  0.6316 -0.7493
  442MOL0     H59622   9.742   1.444   0.446 -0.8857 -0.0282  0.0726
  442MOL0     H59623   9.783   1.502   0.600  0.1671  0.1493 -1.0092
  442MOL0     H59624   9.936   1.360   0.661 -2.0105  0.8213 -0.3914
  442MOL0     H59625   9.894   1.235   0.544 -0.5765 -0.1617  2.8914
  442MOL0     H59626  10.037   1.509   0.506 -2.5446  1.7614 -3.9782
  442MOL0     H59627  10.016   1.401   0.371 -0.2795  3.3205  0.6401
  442MOL0     H59628  10.151   1.229   0.494  2.1924 -1.7747  1.6835
  442MOL0     H59629  10.169   1.339   0.623  2.3139 -0.7739 -0.4361
  442MOL0     H59630  10.511   1.443   0.332 -2.6703 -0.5418 -0.6350
  442MOL0     H59631  10.714   1.448   0.421 -2.7165  1.1504 -2.7025
  442MOL0     H59632  10.940   1.618   0.829  0.2111 -0.3049 -0.6103
  442MOL0     H59633  11.165   1.662   0.925 -3.0964  0.6447  1.6353
  442MOL0     H59634  11.425   1.521   1.025  0.4696  2.1406  0.0212
  442MOL0     H59635  11.414   1.380   0.909 -3.5030  1.7123 -1.4748
  442MOL0     H59636  11.620   1.603   0.894 -5.0914  1.0481 -0.3821
  442MOL0     H59637  11.656   1.459   0.996 -0.0060  3.1121  1.5514
  442MOL0     H59638  11.622   1.324   0.772 -0.7440  0.8038 -1.0962
  442MOL0     H59639  11.646   1.478   0.689 -0.8105  0.6407  0.8842
  442MOL0     H59640  11.831   1.333   0.883  1.9119 -1.4698 -1.3982
  442MOL0     H59641  11.858   1.499   0.813 -3.8787  1.2653 -1.4758
  442MOL0     H59642  11.846   1.372   0.587 -1.0599 -0.2081  0.5471
  442MOL0     H59643  11.820   1.227   0.671 -0.8646  0.6473 -2.0202
  442MOL0     H59644  12.048   1.254   0.594  1.5046 -1.5386  0.4830
  442MOL0     H59645  12.071   1.386   0.711 -0.1394 -0.7184 -0.0838
  442MOL0     H59646  12.002   1.102   0.810 -0.9907  0.6585  0.2425
  442MOL0     H59647  12.059   1.246   0.901  0.1465 -2.0750  1.7758
  442MOL0     H59648  12.225   1.119   0.685  2.2673  0.0255  0.2896
  442MOL0     H59649  12.265   1.260   0.765 -0.5261  0.0886 -3.2008
  442MOL0     H59650  11.346   1.407   0.641 -0.5326 -1.1610  0.3483
  442MOL0     H59651  11.112   1.352   0.550  2.9691 -3.0232  1.3492
  442MOL0     H59652  10.564   1.305   0.801 -1.7721 -1.6615 -0.4068
  442MOL0     H59653  10.343   1.317   0.699 -0.4217  1.4062 -1.1623
  442MOL0     H59654   8.268   0.978   1.018  0.3551  0.3158 -0.3333
  442MOL0     H59655   8.037   1.016   0.937  1.7467 -1.7730 -0.8244
  442MOL0     H59656   7.638   1.014   0.829  0.6617  0.0591  0.6521
  442MOL0     H59657   7.406   1.076   0.852  0.4348 -0.4189 -0.2625
  442MOL0     H59658   7.182   1.392   1.017  1.1006  2.0508 -1.1602
  442MOL0     H59659   7.353   1.382   1.066 -0.3502 -0.9203  0.7579
  442MOL0     H59660   7.355   1.149   1.075 -1.1787 -1.3928  0.8739
  442MOL0     H59661   7.188   1.133   1.018 -0.2447 -0.4987  1.1506
  442MOL0     H59662   7.108   1.223   1.232  0.0184 -1.2443 -0.1472
  442MOL0     H59663   7.261   1.270   1.287 -3.5193  0.2737  1.2910
  442MOL0     H59664   7.312   1.010   1.279  0.7714  1.7199 -4.2026
  442MOL0     H59665   7.193   1.061   1.406 -0.0667 -1.6013 -0.1939
  442MOL0     H59666   6.953   0.835   1.166  0.1567  0.9379  0.0453
  442MOL0     H59667   7.497   1.487   0.827  0.8985  0.3152 -1.1933
  442MOL0     H59668   7.692   1.554   0.746  0.2908  0.5960  0.1890
  442MOL0     H59669   7.808   1.512   0.876 -0.0803  1.4584 -0.6191
  442MOL0     H59670   7.844   1.449   0.723  0.0453 -0.6358  0.1966
  443MOL0     O59671   3.706   0.505   6.187 -0.4451 -0.3420 -0.6208
  443MOL0     C59672   3.638   0.423   6.138  0.7394  0.5251  0.6452
  443MOL0     O59673   3.651   0.381   6.007 -0.5342  0.4179 -0.1049
  443MOL0     C59674   3.739   0.438   5.919  0.6808  0.3176 -0.7051
  443MOL0     C59675   3.879   0.428   5.937  0.7896 -0.4174 -0.4208
  443MOL0     C59676   3.963   0.481   5.841 -0.3511 -0.1699  0.0608
  443MOL0     C59677   3.904   0.544   5.729 -0.7275 -0.0950 -0.5737
  443MOL0     O59678   3.993   0.602   5.645  0.4279  0.6063 -0.1178
  443MOL0     C59679   3.946   0.717   5.578 -0.2180 -0.2431  1.0323
  443MOL0     C59680   4.056   0.803   5.520 -1.0465  0.4412  1.3429
  443MOL0     C59681   4.178   0.817   5.606 -0.0920 -0.3330 -0.9454
  443MOL0     C59682   4.289   0.909   5.559  0.9072 -0.2294 -0.2665
  443MOL0     C59683   4.419   0.892   5.629  0.9082  0.5634 -0.1581
  443MOL0     C59684   4.523   0.992   5.598 -1.1447 -0.1875  0.2785
  443MOL0     C59685   4.653   0.982   5.681 -0.3362 -0.2418  0.1764
  443MOL0     C59686   4.761   1.073   5.633  0.2987  0.8771 -0.3127
  443MOL0     N59687   4.888   1.047   5.700 -0.7391  0.0997  1.0712
  443MOL0     C59688   5.002   0.994   5.640  0.1184  0.2460 -0.2233
  443MOL0     C59689   5.101   1.033   5.718 -0.4012  0.0557 -0.3274
  443MOL0     C59690   5.248   0.985   5.689 -0.4970 -0.2772  0.2755
  443MOL0     C59691   5.348   1.109   5.692 -0.1726 -0.0832 -0.4196
  443MOL0     C59692   5.469   1.100   5.586 -0.0143  0.5599  0.3072
  443MOL0     C59693   5.547   1.228   5.595  0.4883 -0.0855  0.0349
  443MOL0     O59694   5.678   1.208   5.535  0.3309 -0.2971  0.6254
  443MOL0     C59695   5.695   1.173   5.399  0.3021  0.2912 -0.0659
  443MOL0     C59696   5.610   1.216   5.298 -0.3850 -0.0169 -0.6657
  443MOL0     C59697   5.642   1.188   5.167 -0.2074  0.0583  1.0751
  443MOL0     C59698   5.749   1.101   5.133  0.8780 -0.9623 -0.8216
  443MOL0     C59699   5.769   1.055   4.998 -1.0770 -0.1365  0.1589
  443MOL0     O59700   5.697   1.116   4.909  0.0667  0.0879  0.5187
  443MOL0     C59701   5.733   1.089   4.775  0.0525  0.3198 -0.0522
  443MOL0     C59702   5.649   1.007   4.700  0.4812 -0.8177  0.9103
  443MOL0     C59703   5.668   0.976   4.570  0.2735 -0.4320 -0.0012
  443MOL0     C59704   5.776   1.025   4.500  0.0114 -1.2331  0.0672
  443MOL0     O59705   5.773   1.002   4.365  0.1001  0.0075 -0.2651
  443MOL0     C59706   5.857   1.080   4.285  1.2522 -0.6457 -0.5143
  443MOL0     C59707   5.838   1.044   4.145  0.0551  0.2864  0.3505
  443MOL0     C59708   5.713   1.102   4.082 -0.2717  0.2219  0.6200
  443MOL0     C59709   5.721   1.244   4.021  0.3443  0.6671 -0.0164
  443MOL0     C59710   5.573   1.288   3.985 -0.6968 -0.1326 -0.5366
  443MOL0     C59711   5.599   1.420   3.914 -0.1032 -0.1440  0.4070
  443MOL0     C59712   5.469   1.477   3.844 -0.0913  0.3375  0.6456
  443MOL0     C59713   5.368   1.502   3.950 -0.0425  0.3585 -1.2737
  443MOL0    Cl59714   5.428   1.611   4.072  0.0772 -0.2835  0.3127
  443MOL0     C59715   5.863   1.114   4.570 -0.1657  0.0001 -0.6172
  443MOL0     C59716   5.840   1.145   4.709 -0.2486 -0.0695  1.4782
  443MOL0     O59717   5.863   0.976   4.979  0.4030  0.8923 -0.2848
  443MOL0     C59718   5.839   1.058   5.229 -0.5586 -0.6056 -0.0057
  443MOL0     C59719   5.810   1.097   5.362  0.3353 -0.1127 -0.2534
  443MOL0     N59720   5.062   1.091   5.837  0.2721  0.0512  0.1214
  443MOL0     N59721   4.928   1.104   5.817 -0.1527 -0.2832 -0.6091
  443MOL0     C59722   3.770   0.555   5.716  0.6678  1.3696  0.4248
  443MOL0     C59723   3.675   0.497   5.802 -0.6319 -0.0356 -0.4407
  443MOL0     C59724   3.531   0.349   6.213  0.0029  0.1110 -0.3773
  443MOL0     C59725   3.516   0.216   6.167 -0.2723 -0.7171  0.0071
  443MOL0     C59726   3.429   0.121   6.232  0.2824 -0.1873 -0.0549
  443MOL0     C59727   3.354   0.170   6.332  1.0721  0.6552 -0.9356
  443MOL0     O59728   3.262   0.075   6.385  0.4264  0.1600 -0.1916
  443MOL0     C59729   3.156   0.117   6.471  0.7521  0.2069 -0.2571
  443MOL0     C59730   3.050   0.206   6.404 -0.2884 -0.5125  0.6899
  443MOL0     C59731   2.957   0.122   6.316  0.2339  0.2991 -0.7144
  443MOL0     C59732   2.827   0.188   6.280  0.9339 -0.7578  0.5462
  443MOL0     C59733   2.745   0.098   6.195 -0.4546  0.1001  1.0015
  443MOL0     C59734   2.665   0.051   6.119  0.7411 -0.8643 -0.4403
  443MOL0     C59735   3.373   0.299   6.383  0.2489 -0.3006 -0.3473
  443MOL0     C59736   3.463   0.386   6.330  0.0116  0.1177  0.4956
  443MOL0     C59737   3.489   0.516   6.400  0.5046  0.1041  0.7259
  443MOL0     H59738   3.913   0.371   6.023 -1.8064 -1.1116  0.2475
  443MOL0     H59739   4.069   0.477   5.862 -0.5877  0.7702  1.5899
  443MOL0     H59740   3.887   0.687   5.492  0.0346 -1.8079  1.3724
  443MOL0     H59741   3.880   0.777   5.641 -1.1148 -0.9550  0.7913
  443MOL0     H59742   4.015   0.893   5.474  2.2730 -0.2290 -3.6842
  443MOL0     H59743   4.099   0.738   5.442  1.0550  2.4672  0.7323
  443MOL0     H59744   4.225   0.720   5.629  1.0908 -0.0197 -1.9543
  443MOL0     H59745   4.151   0.867   5.700  2.2008 -3.7525  1.8311
  443MOL0     H59746   4.295   0.889   5.452 -1.8339  1.7126 -0.8933
  443MOL0     H59747   4.257   1.014   5.562 -0.4749 -0.5370 -2.4305
  443MOL0     H59748   4.399   0.895   5.737  0.9597  0.7398 -0.1548
  443MOL0     H59749   4.456   0.790   5.614  0.6249  0.2253  1.3055
  443MOL0     H59750   4.544   0.994   5.491 -3.1458  1.0238 -0.1450
  443MOL0     H59751   4.478   1.089   5.622  0.2763  0.2684  1.2535
  443MOL0     H59752   4.687   0.878   5.682 -4.2827 -1.6885 -0.4151
  443MOL0     H59753   4.625   1.008   5.783 -0.5228  1.6214 -0.3214
  443MOL0     H59754   4.768   1.054   5.526  2.6988 -0.1708 -0.0249
  443MOL0     H59755   4.729   1.175   5.656  0.2078  0.6173  0.8122
  443MOL0     H59756   5.007   0.936   5.548 -0.5819  1.0050 -0.7628
  443MOL0     H59757   5.280   0.903   5.755 -0.2885  1.0726  1.9270
  443MOL0     H59758   5.253   0.929   5.595  0.1323 -0.8590  0.6450
  443MOL0     H59759   5.295   1.203   5.673 -1.6933 -0.9307 -0.5670
  443MOL0     H59760   5.393   1.113   5.792  2.3983 -0.4181 -1.4816
  443MOL0     H59761   5.417   1.086   5.491 -2.1427  0.2051  1.4720
  443MOL0     H59762   5.533   1.014   5.608 -1.9309 -1.3364 -1.1738
  443MOL0     H59763   5.565   1.260   5.698 -1.5456 -0.1908  0.4468
  443MOL0     H59764   5.497   1.312   5.547  0.5608  1.4837  2.5604
  443MOL0     H59765   5.532   1.286   5.324  0.6836 -0.2592  4.2194
  443MOL0     H59766   5.569   1.217   5.092 -1.5428  0.5600  2.5166
  443MOL0     H59767   5.559   0.957   4.736 -1.1776  1.6180  0.4013
  443MOL0     H59768   5.587   0.924   4.520 -1.8965  0.3312  2.4693
  443MOL0     H59769   5.825   1.182   4.310 -1.4291 -1.4833 -0.1767
  443MOL0     H59770   5.961   1.071   4.315  1.0044  0.0350  0.5992
  443MOL0     H59771   5.927   1.078   4.091 -1.2241  0.6768 -1.5860
  443MOL0     H59772   5.834   0.936   4.132 -2.4153  0.4775 -1.0919
  443MOL0     H59773   5.677   1.039   4.000 -1.3918 -1.7737  2.5541
  443MOL0     H59774   5.639   1.107   4.162 -0.0807 -0.3336  0.8367
  443MOL0     H59775   5.798   1.254   3.943  1.0447  1.7611  0.7951
  443MOL0     H59776   5.749   1.315   4.098 -0.2193  0.2925  0.5458
  443MOL0     H59777   5.518   1.291   4.079  2.6685 -0.3899  1.6020
  443MOL0     H59778   5.517   1.218   3.922  1.2734 -2.6439  0.3162
  443MOL0     H59779   5.646   1.494   3.979 -1.4337  0.2564  0.9491
  443MOL0     H59780   5.676   1.410   3.837 -1.0847  2.3561 -1.0237
  443MOL0     H59781   5.429   1.397   3.780 -0.7549 -0.3475  1.8813
  443MOL0     H59782   5.498   1.566   3.788  1.9735 -1.3512 -1.1664
  443MOL0     H59783   5.284   1.553   3.902  0.9052  0.2131 -3.1832
  443MOL0     H59784   5.334   1.405   3.986 -2.4201 -0.0207 -4.1505
  443MOL0     H59785   5.948   1.162   4.522  0.5838  0.1994  0.8649
  443MOL0     H59786   5.918   1.208   4.752  0.5781 -0.6453  0.8554
  443MOL0     H59787   5.926   0.996   5.209  0.9478  1.4542 -0.0740
  443MOL0     H59788   5.867   1.068   5.450 -4.2051  1.6194  3.6665
  443MOL0     H59789   3.712   0.604   5.637 -3.5715 -3.1286  0.2232
  443MOL0     H59790   3.567   0.497   5.795 -0.6950  0.7595  0.3886
  443MOL0     H59791   3.564   0.178   6.077 -2.2198 -3.7609  0.0991
  443MOL0     H59792   3.407   0.021   6.196 -3.1819  0.8986 -1.3817
  443MOL0     H59793   3.200   0.163   6.559  0.2273 -0.9261  0.6142
  443MOL0     H59794   3.106   0.026   6.504 -0.0604  0.5213 -0.5796
  443MOL0     H59795   3.102   0.284   6.349 -1.3554  1.0858  1.8527
  443MOL0     H59796   3.000   0.252   6.490  2.4055  0.8016  1.6675
  443MOL0     H59797   2.926   0.027   6.361 -0.9725  0.5660 -0.9250
  443MOL0     H59798   3.016   0.085   6.232  0.6872  1.5983 -0.9800
  443MOL0     H59799   2.773   0.218   6.370 -1.0069  1.6541 -1.2931
  443MOL0     H59800   2.841   0.281   6.225 -2.2309 -1.0760 -0.9948
  443MOL0     H59801   2.595  -0.001   6.057 -0.6840 -2.4641  2.3260
  443MOL0     H59802   3.321   0.344   6.467  1.5640  0.8519 -0.1266
  443MOL0     H59803   3.471   0.603   6.336 -0.0272 -1.0166 -0.7230
  443MOL0     H59804   3.418   0.522   6.483  1.6325 -1.5789  1.8788
  443MOL0     H59805   3.591   0.529   6.436  1.5569  1.9896 -2.4749
  444MOL0     O59806   0.734   0.422   5.773 -0.0604  0.1153  0.0931
  444MOL0     C59807   0.686   0.309   5.756  0.9270 -1.6263  0.0633
  444MOL0     O59808   0.751   0.188   5.783  0.7142 -0.6374  0.1352
  444MOL0     C59809   0.869   0.189   5.847  0.2960 -0.7646  0.2548
  444MOL0     C59810   0.879   0.220   5.988 -0.0099 -0.7163  0.1591
  444MOL0     C59811   0.994   0.193   6.058 -0.0717 -0.6528 -0.0087
  444MOL0     C59812   1.103   0.145   5.987 -0.1131 -0.8916 -0.4375
  444MOL0     O59813   1.230   0.111   6.037  0.3954 -0.5780  0.0329
  444MOL0     C59814   1.238   0.070   6.171  0.6267  0.1972  0.4871
  444MOL0     C59815   1.367  -0.002   6.204 -0.0450 -1.0335 -0.0185
  444MOL0     C59816   1.490   0.081   6.152  0.4936  0.4217 -0.0086
  444MOL0     C59817   1.619   0.003   6.185  0.4758 -0.6446  0.4839
  444MOL0     C59818   1.730   0.093   6.141  0.6370 -0.5344 -0.4303
  444MOL0     C59819   1.860   0.031   6.196 -1.1073  0.8532  0.0179
  444MOL0     C59820   1.914  -0.086   6.105 -0.6937 -0.2352  0.3067
  444MOL0     C59821   2.052  -0.145   6.128  0.0764  0.1848  0.9566
  444MOL0     N59822   2.074  -0.263   6.037  0.5993  1.3354 -0.0615
  444MOL0     C59823   2.073  -0.387   6.082  0.2649  0.0604 -0.1810
  444MOL0     C59824   2.122  -0.462   5.981  0.1757  0.4189  0.5903
  444MOL0     C59825   2.139  -0.612   5.982 -0.4533 -0.0416 -0.1637
  444MOL0     C59826   2.288  -0.653   5.961  0.1067 -0.2930  0.4479
  444MOL0     C59827   2.306  -0.801   5.989  0.0692  0.1083 -0.2012
  444MOL0     C59828   2.448  -0.834   5.981  0.1022  0.3684 -0.9626
  444MOL0     O59829   2.494  -0.812   5.851  0.2902 -0.6185 -0.3142
  444MOL0     C59830   2.623  -0.835   5.818 -0.0599  0.2040 -0.3734
  444MOL0     C59831   2.667  -0.809   5.689  0.0910 -0.2961 -0.0767
  444MOL0     C59832   2.799  -0.842   5.659  0.3344  0.1904 -0.0860
  444MOL0     C59833   2.893  -0.898   5.751 -0.2280  0.4900 -0.4275
  444MOL0     C59834   3.036  -0.936   5.714  0.1403  0.1993 -0.0187
  444MOL0     O59835   3.088  -0.859   5.609 -0.0413  0.5772 -0.1795
  444MOL0     C59836   3.212  -0.866   5.545  0.6696 -0.6209  0.1577
  444MOL0     C59837   3.322  -0.934   5.604 -0.2658  0.1818  0.1197
  444MOL0     C59838   3.450  -0.928   5.554 -0.1445  0.2008  0.2718
  444MOL0     C59839   3.465  -0.867   5.429 -0.5539  0.1718  0.1577
  444MOL0     O59840   3.588  -0.871   5.379 -0.6137  0.4049 -0.1400
  444MOL0     C59841   3.641  -0.741   5.338 -0.8591  0.1886 -0.8853
  444MOL0     C59842   3.791  -0.766   5.355 -0.2939 -0.2394 -0.0213
  444MOL0     C59843   3.877  -0.651   5.311  0.2043 -0.5331 -0.5184
  444MOL0     C59844   4.029  -0.685   5.346 -0.2252  0.6889 -0.2475
  444MOL0     C59845   4.123  -0.610   5.258 -0.2439  0.2095 -0.0949
  444MOL0     C59846   4.255  -0.675   5.235 -0.0010  0.1444 -0.3369
  444MOL0     C59847   4.347  -0.683   5.354 -0.6696  0.8293 -0.6855
  444MOL0     C59848   4.491  -0.695   5.310  0.0278  0.3573 -0.4776
  444MOL0    Cl59849   4.529  -0.866   5.271  0.5498 -0.3108 -0.0579
  444MOL0     C59850   3.356  -0.803   5.368 -0.4628 -0.2531  0.2600
  444MOL0     C59851   3.227  -0.792   5.426 -0.3780 -1.4967  0.9917
  444MOL0     O59852   3.090  -1.035   5.761 -0.3108 -0.1012 -0.5284
  444MOL0     C59853   2.850  -0.933   5.873  1.0977  0.1527  0.5154
  444MOL0     C59854   2.712  -0.909   5.906  0.4062 -0.0700 -0.2929
  444MOL0     N59855   2.118  -0.384   5.861  0.3820 -0.6497  0.3548
  444MOL0     N59856   2.084  -0.263   5.901 -0.0904  0.1026 -0.3055
  444MOL0     C59857   1.106   0.142   5.848  0.5434  0.2934  0.1019
  444MOL0     C59858   0.984   0.161   5.778 -0.3530 -0.3337  0.3974
  444MOL0     C59859   0.550   0.296   5.702 -0.3017  0.3580 -0.4238
  444MOL0     C59860   0.515   0.180   5.635  0.1742  0.0365 -0.0220
  444MOL0     C59861   0.395   0.181   5.569  1.0923  0.7719 -0.2060
  444MOL0     C59862   0.294   0.274   5.574 -0.9714  0.2613 -0.3111
  444MOL0     O59863   0.163   0.274   5.526 -0.0904 -0.1566 -0.1867
  444MOL0     C59864   0.125   0.176   5.424 -1.2776  0.2307  0.3335
  444MOL0     C59865   0.019   0.237   5.336  0.4367  0.2543  0.4269
  444MOL0     C59866  -0.118   0.230   5.411  0.7016 -0.6353 -0.1193
  444MOL0     C59867  -0.144   0.338   5.525 -0.0695  0.1226 -0.6732
  444MOL0     C59868  -0.289   0.334   5.566 -0.7403  0.7840  0.3142
  444MOL0     C59869  -0.403   0.324   5.596 -0.4678  0.9341  0.2665
  444MOL0     C59870   0.328   0.379   5.657 -0.2131  0.1302  0.0973
  444MOL0     C59871   0.457   0.403   5.711 -0.2609  0.0301  0.3335
  444MOL0     C59872   0.479   0.537   5.786  0.1416  0.0423  0.1264
  444MOL0     H59873   0.785   0.242   6.039  0.4024 -1.0903  1.1183
  444MOL0     H59874   0.998   0.201   6.167  1.1684  1.7666 -0.1636
  444MOL0     H59875   1.220   0.166   6.219 -0.5857  0.1398  0.1729
  444MOL0     H59876   1.159   0.004   6.207  0.9301 -0.3108  0.2445
  444MOL0     H59877   1.370  -0.106   6.170 -0.1741 -1.3156  0.8012
  444MOL0     H59878   1.367  -0.007   6.314 -4.6206 -2.5407  0.1218
  444MOL0     H59879   1.499   0.179   6.199 -1.7526 -0.8637  3.5111
  444MOL0     H59880   1.486   0.086   6.042  3.4636 -2.6830 -0.4475
  444MOL0     H59881   1.622  -0.018   6.293 -0.0325  0.6286  0.7625
  444MOL0     H59882   1.633  -0.094   6.137  2.4360 -0.4856  0.6512
  444MOL0     H59883   1.742   0.088   6.033  0.9997  1.0175 -0.4858
  444MOL0     H59884   1.719   0.193   6.183 -1.5508 -1.9134  2.7121
  444MOL0     H59885   1.936   0.110   6.193 -0.8008  0.5731  0.1887
  444MOL0     H59886   1.850   0.003   6.302  0.6479 -2.8592 -0.6247
  444MOL0     H59887   1.902  -0.055   6.001 -0.5172 -0.5783  0.1811
  444MOL0     H59888   1.839  -0.157   6.140  0.3565 -1.0347  1.0096
  444MOL0     H59889   2.129  -0.078   6.088  0.3412 -0.7241 -0.1189
  444MOL0     H59890   2.064  -0.172   6.233  0.6426  2.3609  1.4988
  444MOL0     H59891   2.069  -0.425   6.184 -1.0257  0.0478 -0.2205
  444MOL0     H59892   2.111  -0.653   6.080  1.2107 -3.1773 -0.8777
  444MOL0     H59893   2.078  -0.669   5.912 -1.4435 -2.5421  2.5504
  444MOL0     H59894   2.306  -0.635   5.854 -1.0514  0.5120  0.3722
  444MOL0     H59895   2.361  -0.599   6.022  0.1829 -1.9810  1.9548
  444MOL0     H59896   2.244  -0.858   5.918 -1.9207 -1.4247  2.5883
  444MOL0     H59897   2.262  -0.825   6.086  1.2095  0.1454  0.3329
  444MOL0     H59898   2.467  -0.941   5.996  0.7682  0.5761 -0.2284
  444MOL0     H59899   2.506  -0.779   6.056  0.3075 -1.3667  0.1998
  444MOL0     H59900   2.612  -0.745   5.621  2.7760  4.7699  1.9726
  444MOL0     H59901   2.817  -0.811   5.556  2.7713  1.1666  0.5540
  444MOL0     H59902   3.312  -0.999   5.690 -1.6829 -1.5933 -1.3054
  444MOL0     H59903   3.534  -0.974   5.605  0.3871  0.3669 -0.4431
  444MOL0     H59904   3.617  -0.711   5.235 -2.2574  0.2939 -0.5472
  444MOL0     H59905   3.627  -0.660   5.410  1.0449  0.6548 -0.9645
  444MOL0     H59906   3.819  -0.796   5.456  1.5583 -2.0838 -1.0239
  444MOL0     H59907   3.800  -0.846   5.282 -2.7357 -0.1818 -0.4795
  444MOL0     H59908   3.867  -0.633   5.204  1.2890  0.5340 -0.4559
  444MOL0     H59909   3.845  -0.557   5.359  4.3097  1.0342 -0.4217
  444MOL0     H59910   4.046  -0.792   5.332  4.5611  1.2904 -0.4340
  444MOL0     H59911   4.052  -0.667   5.452  3.9733  1.3846 -1.1232
  444MOL0     H59912   4.156  -0.519   5.308  2.9841 -1.5687  1.3588
  444MOL0     H59913   4.073  -0.593   5.162 -1.9332 -1.4121  0.4455
  444MOL0     H59914   4.236  -0.777   5.198 -0.9937 -1.0756  3.1237
  444MOL0     H59915   4.309  -0.621   5.157 -0.1483  2.3355  1.0147
  444MOL0     H59916   4.318  -0.776   5.404  0.7340  0.5842 -0.3002
  444MOL0     H59917   4.345  -0.593   5.417 -1.2554  0.2777  0.1004
  444MOL0     H59918   4.515  -0.635   5.222 -2.5279 -0.3221 -1.7446
  444MOL0     H59919   4.545  -0.673   5.402  1.8156 -0.8347 -1.1820
  444MOL0     H59920   3.375  -0.760   5.270  3.6686 -0.6540  0.7208
  444MOL0     H59921   3.148  -0.732   5.382  1.2586 -1.6408 -2.4956
  444MOL0     H59922   2.908  -0.995   5.941  1.1807  0.4910  0.7502
  444MOL0     H59923   2.673  -0.945   6.000 -1.5629  0.3440 -0.9104
  444MOL0     H59924   1.196   0.108   5.799  0.0122  1.8703 -2.1498
  444MOL0     H59925   0.992   0.169   5.670 -0.1500  0.7085  0.4800
  444MOL0     H59926   0.578   0.093   5.622 -0.6295 -0.4998 -0.4044
  444MOL0     H59927   0.366   0.093   5.512 -2.5734 -1.3323  4.1906
  444MOL0     H59928   0.095   0.088   5.483 -0.2311  0.1861  0.8202
  444MOL0     H59929   0.213   0.155   5.363 -2.8864  1.7096 -2.6735
  444MOL0     H59930   0.002   0.174   5.248  0.7739 -0.1723  0.6565
  444MOL0     H59931   0.054   0.336   5.306  0.1777  0.6125  1.2731
  444MOL0     H59932  -0.133   0.133   5.457  2.1860 -0.9788 -0.3070
  444MOL0     H59933  -0.190   0.245   5.330 -0.1149  0.0769  0.7139
  444MOL0     H59934  -0.079   0.314   5.609  0.2060 -1.2257 -1.2442
  444MOL0     H59935  -0.130   0.441   5.490 -0.3663 -0.1198 -1.5404
  444MOL0     H59936  -0.504   0.292   5.612 -0.2119 -2.3821 -3.1911
  444MOL0     H59937   0.253   0.456   5.671 -1.2372 -1.1313  2.0314
  444MOL0     H59938   0.560   0.597   5.743 -0.1103 -0.5452 -1.2198
  444MOL0     H59939   0.392   0.604   5.776  1.2742  1.5808  0.2771
  444MOL0     H59940   0.498   0.510   5.890 -0.4302 -4.1703 -0.6950
  445MOL0     O59941   8.667   9.820   3.743 -0.1321 -0.3578  0.1227
  445MOL0     C59942   8.574   9.791   3.816 -0.4782 -0.5617 -0.4379
  445MOL0     O59943   8.572   9.810   3.959 -0.8106 -0.0948 -0.1689
  445MOL0     C59944   8.670   9.891   4.016  0.2535 -0.5520 -0.1711
  445MOL0     C59945   8.798   9.842   4.025 -0.7755 -0.1074 -0.2995
  445MOL0     C59946   8.899   9.928   4.057 -0.2840 -0.4575  0.7297
  445MOL0     C59947   8.877  10.059   4.107 -0.3316 -0.2073  0.8729
  445MOL0     O59948   8.972  10.150   4.150  0.2906  0.1764 -0.4936
  445MOL0     C59949   9.108  10.121   4.184 -0.7576  0.0577  0.1639
  445MOL0     C59950   9.191  10.241   4.243 -0.1873 -0.5533  0.3215
  445MOL0     C59951   9.141  10.288   4.383  0.0445  0.2909 -0.2970
  445MOL0     C59952   9.245  10.349   4.474  0.3714  0.6290  0.3341
  445MOL0     C59953   9.284  10.483   4.429  0.0757 -0.0844  0.3931
  445MOL0     C59954   9.192  10.607   4.452  0.0020 -0.5861  0.3000
  445MOL0     C59955   9.236  10.732   4.365 -0.1765  0.4882  0.3756
  445MOL0     C59956   9.124  10.844   4.361 -0.0791 -0.0859  0.4968
  445MOL0     N59957   9.113  10.917   4.482 -0.0486 -0.1813 -0.1227
  445MOL0     C59958   9.175  11.037   4.506 -0.5131 -0.4336  0.1490
  445MOL0     C59959   9.135  11.084   4.625  0.8316 -0.4725  0.1811
  445MOL0     C59960   9.169  11.216   4.688  0.2946 -0.1777  0.1706
  445MOL0     C59961   9.289  11.197   4.786  0.2477 -0.1143 -0.1306
  445MOL0     C59962   9.324  11.341   4.851  0.1830  0.7050 -0.0454
  445MOL0     C59963   9.473  11.342   4.906 -0.7622 -0.1866 -0.0347
  445MOL0     O59964   9.496  11.474   4.950 -0.0747  0.1004 -0.1296
  445MOL0     C59965   9.619  11.515   4.998 -0.3776 -0.2990 -0.4040
  445MOL0     C59966   9.738  11.439   5.002 -0.0560  0.2996 -0.1403
  445MOL0     C59967   9.846  11.493   5.073 -0.2143 -1.0616  0.5513
  445MOL0     C59968   9.847  11.617   5.127 -0.0482 -1.2026  0.2435
  445MOL0     C59969   9.960  11.670   5.199  0.2272  0.0241 -0.5922
  445MOL0     O59970  10.044  11.581   5.251  0.1623  0.0612 -0.0248
  445MOL0     C59971  10.140  11.608   5.346 -0.4588  0.4232  0.4520
  445MOL0     C59972  10.139  11.715   5.439 -0.0593  0.6841 -0.4544
  445MOL0     C59973  10.249  11.726   5.529  0.4501 -0.0918 -0.1778
  445MOL0     C59974  10.350  11.632   5.540  0.8111  0.3103  0.1351
  445MOL0     O59975  10.462  11.646   5.622 -0.2930  0.2937 -0.0695
  445MOL0     C59976  10.435  11.693   5.749 -0.2645  0.0869 -0.7374
  445MOL0     C59977  10.550  11.667   5.853  0.6474  0.7147 -0.1524
  445MOL0     C59978  10.566  11.511   5.871  0.5170 -0.2528  0.6008
  445MOL0     C59979  10.690  11.480   5.960  0.6102 -0.2893 -0.5416
  445MOL0     C59980  10.711  11.324   5.953  0.0185  0.2230 -0.3270
  445MOL0     C59981  10.819  11.270   6.057  0.9875 -0.1658 -0.0890
  445MOL0     C59982  10.953  11.340   6.060  0.5303  0.5809 -0.0058
  445MOL0     C59983  11.025  11.341   5.924  0.2642 -0.2368  0.1952
  445MOL0    Cl59984  11.080  11.180   5.869  0.2521 -0.3065  0.1654
  445MOL0     C59985  10.340  11.522   5.464  0.8731 -0.3582  0.3379
  445MOL0     C59986  10.239  11.510   5.368  0.4520  0.4816  0.4037
  445MOL0     O59987   9.978  11.791   5.209 -0.2628 -0.3098 -0.2534
  445MOL0     C59988   9.730  11.691   5.114 -0.0425 -0.7525 -0.0964
  445MOL0     C59989   9.623  11.644   5.049 -0.7644  0.0065 -0.5665
  445MOL0     N59990   9.048  10.993   4.679  0.0213 -0.8284 -0.3368
  445MOL0     N59991   9.033  10.900   4.587  0.2714  0.4045 -0.7088
  445MOL0     C59992   8.749  10.110   4.095 -0.3302  0.2008 -0.2739
  445MOL0     C59993   8.646  10.027   4.050 -0.0268  0.4349 -0.2764
  445MOL0     C59994   8.448   9.731   3.761  0.0371  0.3016 -0.1645
  445MOL0     C59995   8.352   9.680   3.857  0.0877  0.0083  0.5743
  445MOL0     C59996   8.235   9.618   3.818 -0.3838  0.7852 -0.2488
  445MOL0     C59997   8.207   9.597   3.682 -0.8046  0.1798  0.5125
  445MOL0     O59998   8.089   9.534   3.657 -0.1041  0.8907 -0.3615
  445MOL0     C59999   8.033   9.553   3.523  0.2592 -0.0402  0.4336
  445MOL0     C60000   7.892   9.501   3.530 -0.3804  0.1035  0.4766
  445MOL0     C60001   7.889   9.357   3.576 -0.2876  1.1278  0.1481
  445MOL0     C60002   7.747   9.293   3.561  0.2860 -0.5883 -0.0383
  445MOL0     C60003   7.714   9.253   3.420 -0.4079 -0.4357  0.8664
  445MOL0     C60004   7.706   9.237   3.300 -0.5701  0.0215 -0.4735
  445MOL0     C60005   8.301   9.639   3.582  0.3628  0.4160 -0.5059
  445MOL0     C60006   8.416   9.702   3.619 -1.0965 -0.3348 -0.3077
  445MOL0     C60007   8.510   9.748   3.517 -0.1318  0.3385  0.4474
  445MOL0     H60008   8.824   9.739   4.002  2.3613  0.8469 -1.6390
  445MOL0     H60009   9.004   9.903   4.044 -0.5274 -0.9855 -0.2738
  445MOL0     H60010   9.102  10.032   4.248 -4.0341  0.3138  0.3967
  445MOL0     H60011   9.155  10.081   4.094  1.6509 -3.3782  2.6712
  445MOL0     H60012   9.184  10.331   4.181  1.8016 -1.1046 -0.8127
  445MOL0     H60013   9.293  10.201   4.247 -0.7232 -2.5613 -2.7369
  445MOL0     H60014   9.103  10.199   4.434 -2.5495  1.7815  0.5662
  445MOL0     H60015   9.048  10.345   4.391 -0.6853 -0.9125  0.0934
  445MOL0     H60016   9.204  10.363   4.575 -3.4958 -2.1248 -0.5959
  445MOL0     H60017   9.332  10.284   4.484  0.5037  0.4047 -1.7818
  445MOL0     H60018   9.373  10.507   4.487 -0.0687  0.5038  0.3820
  445MOL0     H60019   9.303  10.488   4.321 -3.4003 -0.4539 -0.3549
  445MOL0     H60020   9.085  10.586   4.440 -0.7362  1.9967  1.5267
  445MOL0     H60021   9.200  10.633   4.558 -1.1166  3.8078 -0.4812
  445MOL0     H60022   9.238  10.685   4.267  1.8500  0.8727  0.2019
  445MOL0     H60023   9.331  10.780   4.388  0.7495 -0.8134 -0.6228
  445MOL0     H60024   9.134  10.918   4.281  0.2797 -0.4557  0.1895
  445MOL0     H60025   9.023  10.805   4.348 -0.7471  1.3437  1.2115
  445MOL0     H60026   9.236  11.079   4.426 -0.6041 -1.0896 -0.2701
  445MOL0     H60027   9.185  11.283   4.603 -0.4620  0.3175  0.4128
  445MOL0     H60028   9.078  11.250   4.738  0.3348 -0.7377  0.6410
  445MOL0     H60029   9.264  11.124   4.864  0.2153 -0.9190 -0.8763
  445MOL0     H60030   9.368  11.149   4.728 -0.5550  0.1626 -1.5133
  445MOL0     H60031   9.251  11.379   4.923 -0.8520  2.7557 -2.0549
  445MOL0     H60032   9.322  11.419   4.776 -2.2392 -1.0290 -1.9340
  445MOL0     H60033   9.546  11.317   4.829  1.8655 -0.6227  2.4348
  445MOL0     H60034   9.497  11.274   4.988  1.5226 -0.3339 -0.7626
  445MOL0     H60035   9.743  11.347   4.944  0.8288  1.2069 -1.5885
  445MOL0     H60036   9.939  11.438   5.086  0.5076 -0.4739 -1.6737
  445MOL0     H60037  10.060  11.790   5.441 -0.6531  0.1026  2.6017
  445MOL0     H60038  10.251  11.817   5.588 -0.1036  0.2840 -0.7333
  445MOL0     H60039  10.420  11.798   5.723 -1.3556 -0.6288 -3.3003
  445MOL0     H60040  10.346  11.651   5.797  1.5869 -2.9004  0.3779
  445MOL0     H60041  10.649  11.696   5.815  3.2373 -2.2599  3.4773
  445MOL0     H60042  10.532  11.715   5.950 -1.6241 -1.0055  0.3663
  445MOL0     H60043  10.477  11.476   5.922 -0.7426 -0.5234 -1.6514
  445MOL0     H60044  10.579  11.474   5.769 -0.2842  0.7547  0.1149
  445MOL0     H60045  10.660  11.507   6.061 -2.7354 -1.9329 -0.9467
  445MOL0     H60046  10.783  11.530   5.931  2.4332 -2.4151  1.2758
  445MOL0     H60047  10.756  11.299   5.856 -0.9100 -1.6039 -0.3322
  445MOL0     H60048  10.613  11.275   5.957 -0.6953  1.4238 -1.9575
  445MOL0     H60049  10.772  11.271   6.156  1.3861 -0.0773  0.1006
  445MOL0     H60050  10.827  11.163   6.037 -4.0739 -0.8757  0.2718
  445MOL0     H60051  11.018  11.295   6.135  0.2383  0.1466 -0.0076
  445MOL0     H60052  10.927  11.444   6.082 -0.0094  1.3627 -3.6424
  445MOL0     H60053  10.968  11.395   5.848 -0.6342 -1.2022  0.1641
  445MOL0     H60054  11.113  11.405   5.937  1.2737 -0.8988 -2.5953
  445MOL0     H60055  10.419  11.448   5.458  2.3477  1.2485 -1.0298
  445MOL0     H60056  10.234  11.413   5.321  1.6401  0.3216  0.5740
  445MOL0     H60057   9.710  11.788   5.157  2.3154 -0.0342 -0.5048
  445MOL0     H60058   9.527  11.691   5.035 -0.3366  0.5204 -1.9014
  445MOL0     H60059   8.737  10.215   4.119  0.8309  0.4598 -0.7484
  445MOL0     H60060   8.541  10.055   4.044 -0.2591 -0.6467 -1.7853
  445MOL0     H60061   8.360   9.705   3.963 -3.6160 -0.9602  1.2292
  445MOL0     H60062   8.170   9.562   3.885 -0.5985  0.0952 -1.0235
  445MOL0     H60063   8.080   9.494   3.444  1.4191 -0.6501  1.5446
  445MOL0     H60064   8.034   9.657   3.489 -0.9078 -0.4621 -0.9869
  445MOL0     H60065   7.849   9.505   3.430  1.1454 -1.8443 -0.3251
  445MOL0     H60066   7.828   9.562   3.595 -1.0420  1.1573 -1.1071
  445MOL0     H60067   7.923   9.356   3.680 -1.8838 -0.9849  0.7332
  445MOL0     H60068   7.953   9.302   3.506  1.0452  0.7769  1.5810
  445MOL0     H60069   7.741   9.208   3.628  1.7688  1.0891  2.3766
  445MOL0     H60070   7.668   9.356   3.603  2.1633  0.9585  1.3803
  445MOL0     H60071   7.691   9.229   3.195 -1.1307 -1.1912 -0.3218
  445MOL0     H60072   8.281   9.620   3.477  1.4628  1.0867 -0.8438
  445MOL0     H60073   8.518   9.857   3.514  0.4573  0.3096 -2.4332
  445MOL0     H60074   8.604   9.694   3.529 -1.6263 -2.7260 -0.6143
  445MOL0     H60075   8.481   9.729   3.413 -1.1615 -0.9732  0.9448
  446MOL0     O60076   6.163   1.722   8.800 -0.2624  0.4281  0.2727
  446MOL0     C60077   6.161   1.833   8.849 -0.5760  0.8011 -0.4116
  446MOL0     O60078   6.259   1.920   8.821 -0.2724 -0.5390 -0.7306
  446MOL0     C60079   6.353   1.894   8.729  0.2136 -0.2155 -0.6146
  446MOL0     C60080   6.339   1.897   8.588 -0.0086  0.3901  0.3816
  446MOL0     C60081   6.450   1.878   8.503 -0.2000 -0.2861 -0.0563
  446MOL0     C60082   6.582   1.856   8.554 -0.1783 -0.2889  0.4465
  446MOL0     O60083   6.683   1.847   8.463 -0.5600 -0.0614 -0.2239
  446MOL0     C60084   6.815   1.856   8.517  0.2377  0.2889  0.7113
  446MOL0     C60085   6.913   1.873   8.407 -0.6181 -0.9826 -0.9182
  446MOL0     C60086   7.059   1.884   8.460 -0.2028  0.6113  0.2055
  446MOL0     C60087   7.153   1.942   8.354 -0.5783  0.7451 -0.5039
  446MOL0     C60088   7.302   1.924   8.402  0.1781 -0.0809 -1.3962
  446MOL0     C60089   7.402   2.004   8.308 -0.5911  0.5761  0.1626
  446MOL0     C60090   7.548   1.987   8.365 -0.2262  0.2482 -0.1298
  446MOL0     C60091   7.642   2.065   8.271  0.9618  0.5891  0.9491
  446MOL0     N60092   7.773   2.013   8.291  0.0172 -0.1735  0.2026
  446MOL0     C60093   7.881   2.035   8.202  0.1417  0.6098  0.1639
  446MOL0     C60094   7.988   1.997   8.281  0.1425  0.4545  0.2898
  446MOL0     C60095   8.124   1.985   8.226 -0.3315 -0.3455 -0.3976
  446MOL0     C60096   8.180   1.836   8.237  0.0838 -0.7171  1.1557
  446MOL0     C60097   8.318   1.816   8.183 -0.1934  0.8299  0.0216
  446MOL0     C60098   8.337   1.796   8.031 -0.5511  0.1244 -0.0304
  446MOL0     O60099   8.465   1.738   7.995 -0.4076 -0.2561  0.3182
  446MOL0     C60100   8.566   1.820   7.947  0.0757  0.8149  0.2346
  446MOL0     C60101   8.592   1.941   8.004  0.0619 -0.3385  0.4294
  446MOL0     C60102   8.706   2.007   7.968 -0.5116 -0.6113 -0.1652
  446MOL0     C60103   8.803   1.956   7.881  0.1231  0.0615 -0.8848
  446MOL0     C60104   8.923   2.032   7.837  0.0006  0.1268 -0.3834
  446MOL0     O60105   8.997   1.975   7.744 -0.2742 -0.2129  0.4666
  446MOL0     C60106   9.090   2.054   7.683  0.2492  0.8522 -0.2278
  446MOL0     C60107   9.225   2.017   7.703 -0.2400 -0.9078 -0.4601
  446MOL0     C60108   9.312   2.118   7.661  0.2153 -0.1244 -0.5936
  446MOL0     C60109   9.281   2.245   7.607  0.7458  0.1889 -0.0463
  446MOL0     O60110   9.390   2.327   7.585  0.3324 -0.0480  0.1447
  446MOL0     C60111   9.356   2.461   7.541 -1.3356  1.2788 -0.8952
  446MOL0     C60112   9.489   2.542   7.536 -0.3905  0.4231 -0.1573
  446MOL0     C60113   9.603   2.482   7.446  0.0553  0.4681  0.1285
  446MOL0     C60114   9.733   2.564   7.437  0.4375 -0.1360 -0.6365
  446MOL0     C60115   9.838   2.481   7.353 -0.5330 -0.1860 -0.1743
  446MOL0     C60116   9.968   2.561   7.354 -0.0099 -1.3055 -0.1536
  446MOL0     C60117  10.077   2.498   7.275 -0.2932  0.5973 -0.3436
  446MOL0     C60118  10.207   2.582   7.278 -0.5922  0.3022  0.0771
  446MOL0    Cl60119  10.302   2.506   7.145 -0.1301  0.4265  0.4174
  446MOL0     C60120   9.144   2.271   7.589 -0.0224  0.2441  0.0714
  446MOL0     C60121   9.049   2.171   7.620 -0.0823 -0.3162  0.3912
  446MOL0     O60122   8.944   2.139   7.896  0.1156 -0.7317  0.3023
  446MOL0     C60123   8.784   1.825   7.833  0.6653 -0.9223 -0.5657
  446MOL0     C60124   8.654   1.765   7.857 -0.1500  0.1106 -0.0146
  446MOL0     N60125   7.959   1.961   8.411  0.1445  0.7855  0.5870
  446MOL0     N60126   7.827   1.972   8.405 -0.1990  0.0076  0.0089
  446MOL0     C60127   6.596   1.854   8.697  0.7779  0.3058  0.3807
  446MOL0     C60128   6.483   1.867   8.779 -0.5508 -0.5279  0.0685
  446MOL0     C60129   6.046   1.868   8.929  1.2052 -0.3194 -0.2873
  446MOL0     C60130   5.920   1.822   8.882  0.7677  0.6941 -0.6180
  446MOL0     C60131   5.801   1.859   8.941  0.2353 -0.2223 -0.0154
  446MOL0     C60132   5.795   1.955   9.045  0.4342 -0.5612 -0.2873
  446MOL0     O60133   5.684   1.997   9.109  0.7266  0.7299 -0.1931
  446MOL0     C60134   5.557   2.002   9.032  0.2147  0.2337 -0.0450
  446MOL0     C60135   5.507   2.145   8.999  0.0360 -0.2158  0.8961
  446MOL0     C60136   5.532   2.248   9.118 -0.5151  0.0952  0.0258
  446MOL0     C60137   5.443   2.373   9.101  0.3123  0.4575  0.1028
  446MOL0     C60138   5.307   2.336   9.140  1.0679 -0.5179  0.2762
  446MOL0     C60139   5.190   2.294   9.164 -0.3983 -0.9128 -0.2914
  446MOL0     C60140   5.909   2.013   9.079 -0.5859 -0.3516  0.2247
  446MOL0     C60141   6.040   1.967   9.029 -0.5995  0.6356  0.8013
  446MOL0     C60142   6.157   2.030   9.090 -0.8748 -0.9191 -0.3131
  446MOL0     H60143   6.242   1.919   8.546 -0.7991 -1.3900  1.1877
  446MOL0     H60144   6.426   1.888   8.398 -1.3375  3.1628  0.3947
  446MOL0     H60145   6.825   1.938   8.588  0.1267 -0.3161  1.4338
  446MOL0     H60146   6.835   1.761   8.565 -1.6739 -0.4577  0.1440
  446MOL0     H60147   6.886   1.962   8.349  0.1241 -0.2417 -0.1619
  446MOL0     H60148   6.910   1.790   8.336  0.1708 -0.2127 -1.8856
  446MOL0     H60149   7.090   1.785   8.495 -1.1483  0.6724  1.2751
  446MOL0     H60150   7.057   1.955   8.544 -2.0060 -1.0880  1.7118
  446MOL0     H60151   7.137   1.877   8.267 -0.8479  1.0098 -0.6521
  446MOL0     H60152   7.142   2.048   8.329  0.7254  1.1339  0.4962
  446MOL0     H60153   7.316   1.967   8.502 -0.9951  0.4116 -1.4297
  446MOL0     H60154   7.325   1.817   8.404 -0.0266 -0.1463 -2.3195
  446MOL0     H60155   7.398   1.963   8.206 -1.1434 -0.4018  0.5648
  446MOL0     H60156   7.379   2.111   8.304 -0.4505  0.6545  1.1460
  446MOL0     H60157   7.580   1.882   8.361 -1.0678 -0.0472  0.7209
  446MOL0     H60158   7.563   2.013   8.470  1.6702  2.5148 -0.8558
  446MOL0     H60159   7.610   2.037   8.170  0.1298 -0.2044  1.4111
  446MOL0     H60160   7.632   2.173   8.281 -2.9021  0.4770  0.0565
  446MOL0     H60161   7.871   2.067   8.099 -0.9520  1.4739  0.5244
  446MOL0     H60162   8.139   2.025   8.125 -0.5396 -1.3731 -0.8536
  446MOL0     H60163   8.192   2.045   8.286  0.9288 -0.0900 -2.0166
  446MOL0     H60164   8.165   1.814   8.343 -0.2159 -1.1265  1.0301
  446MOL0     H60165   8.102   1.782   8.183 -2.9136  4.8632 -0.9986
  446MOL0     H60166   8.350   1.720   8.224 -1.1428 -0.0183 -1.1765
  446MOL0     H60167   8.388   1.893   8.218  0.1733 -0.5043  2.4686
  446MOL0     H60168   8.309   1.885   7.975 -0.6740 -0.6555 -1.2562
  446MOL0     H60169   8.268   1.719   7.997  0.6492 -0.9433 -0.1611
  446MOL0     H60170   8.531   1.979   8.085  1.6658  1.0275  1.0572
  446MOL0     H60171   8.706   2.108   8.006 -0.4087 -1.2426  1.6241
  446MOL0     H60172   9.249   1.917   7.737  3.5629 -0.0312 -0.0480
  446MOL0     H60173   9.416   2.089   7.673 -0.1245 -1.2193 -0.2417
  446MOL0     H60174   9.334   2.455   7.434  0.5552 -3.1749 -1.2573
  446MOL0     H60175   9.286   2.520   7.600 -0.8753 -0.5502  1.6370
  446MOL0     H60176   9.472   2.647   7.508  0.4232  0.0923 -2.0041
  446MOL0     H60177   9.515   2.534   7.642 -1.8149 -0.2895  0.1626
  446MOL0     H60178   9.636   2.384   7.483 -1.6339  0.3834  1.5638
  446MOL0     H60179   9.538   2.462   7.360 -1.5021 -0.3968  1.4465
  446MOL0     H60180   9.776   2.582   7.536 -0.3390 -0.5550 -0.2075
  446MOL0     H60181   9.712   2.659   7.386 -2.0749  0.2706  0.9438
  446MOL0     H60182   9.802   2.455   7.253  0.6693 -2.4301 -0.0609
  446MOL0     H60183   9.852   2.381   7.394  0.8637 -0.3946 -1.0961
  446MOL0     H60184   9.937   2.659   7.317 -2.5152 -1.9426  0.0616
  446MOL0     H60185  10.001   2.558   7.458 -3.2832 -2.7749  0.9934
  446MOL0     H60186  10.038   2.485   7.173 -1.5976  0.6647  0.1268
  446MOL0     H60187  10.100   2.399   7.317 -2.0593  0.9428  1.5850
  446MOL0     H60188  10.200   2.689   7.259  1.5241  0.6997  1.2490
  446MOL0     H60189  10.267   2.568   7.369  0.6260  1.5224 -0.4990
  446MOL0     H60190   9.115   2.366   7.544  1.0215  0.3669 -0.3635
  446MOL0     H60191   8.944   2.187   7.599 -0.1082 -0.4669  0.4006
  446MOL0     H60192   8.858   1.777   7.769 -1.0833 -3.0690 -1.1094
  446MOL0     H60193   8.629   1.669   7.813  1.1586 -0.2946  0.0739
  446MOL0     H60194   6.692   1.815   8.730  2.4358  0.8032 -3.3146
  446MOL0     H60195   6.491   1.854   8.887  2.0199 -0.9995 -0.1186
  446MOL0     H60196   5.908   1.749   8.803 -1.2355 -0.8197  0.9606
  446MOL0     H60197   5.710   1.813   8.904  0.1346 -0.9871  1.1298
  446MOL0     H60198   5.486   1.954   9.100  0.2589  1.7929  1.1740
  446MOL0     H60199   5.563   1.947   8.938  0.8454  0.8999 -0.4106
  446MOL0     H60200   5.400   2.135   8.980 -0.5396  0.6246  3.4156
  446MOL0     H60201   5.574   2.172   8.916  0.0583  0.6774  1.1944
  446MOL0     H60202   5.635   2.283   9.115  0.0669 -1.5328 -2.7902
  446MOL0     H60203   5.506   2.202   9.213  0.3844  1.3261  0.9040
  446MOL0     H60204   5.481   2.447   9.172 -2.0893 -0.2954  2.3014
  446MOL0     H60205   5.457   2.408   8.998 -0.8531  3.2831  0.8453
  446MOL0     H60206   5.090   2.260   9.178 -0.2331 -1.1911  0.2471
  446MOL0     H60207   5.896   2.092   9.153 -0.2402 -1.8051  1.9007
  446MOL0     H60208   6.247   1.975   9.060 -1.3601 -1.5437 -0.6601
  446MOL0     H60209   6.157   2.137   9.068  0.7313 -1.0498 -1.0546
  446MOL0     H60210   6.150   2.018   9.199 -1.5162 -1.5308 -0.4142
  447MOL0     O60211   1.048   2.981  10.392  0.3001 -0.1642  0.0029
  447MOL0     C60212   1.016   2.869  10.359  0.0790 -0.5375  0.4524
  447MOL0     O60213   1.091   2.772  10.292  0.5768 -0.2369  0.4406
  447MOL0     C60214   1.228   2.793  10.275 -0.4099 -0.3745 -0.1652
  447MOL0     C60215   1.284   2.759  10.152 -0.5766  0.5399 -0.4855
  447MOL0     C60216   1.427   2.751  10.139  0.9960 -0.7376  0.1394
  447MOL0     C60217   1.505   2.809  10.239  0.5994 -0.2288  0.3503
  447MOL0     O60218   1.637   2.826  10.222  0.0355 -0.0140 -0.6255
  447MOL0     C60219   1.722   2.776  10.328  0.0431  0.5600 -0.1685
  447MOL0     C60220   1.860   2.726  10.281  0.2156  0.1064  1.0681
  447MOL0     C60221   1.955   2.652  10.375 -0.0168  0.1901 -0.4381
  447MOL0     C60222   1.976   2.705  10.522 -0.0840  0.0678  0.4549
  447MOL0     C60223   2.108   2.664  10.584 -0.7552  0.4156 -0.4560
  447MOL0     C60224   2.145   2.518  10.590  0.2397 -0.2694 -0.1673
  447MOL0     C60225   2.058   2.412  10.659  0.2020  0.3350 -0.5405
  447MOL0     C60226   2.096   2.267  10.611 -0.3419 -0.2169 -0.9356
  447MOL0     N60227   2.074   2.252  10.464  0.0875  0.0813  0.1771
  447MOL0     C60228   2.173   2.217  10.375 -0.2871 -0.7995  0.7414
  447MOL0     C60229   2.102   2.216  10.257  0.5624 -0.3085 -0.5699
  447MOL0     C60230   2.152   2.201  10.110 -0.1254 -1.1274 -0.4800
  447MOL0     C60231   2.216   2.328  10.060  0.2637  0.2394 -0.6885
  447MOL0     C60232   2.330   2.312   9.962 -0.4284  0.6929 -1.0294
  447MOL0     C60233   2.441   2.225  10.022 -0.9821  0.6156 -0.9915
  447MOL0     O60234   2.480   2.279  10.157 -0.4811  0.1314 -0.3118
  447MOL0     C60235   2.608   2.327  10.183  0.4514 -0.2158 -0.1117
  447MOL0     C60236   2.714   2.246  10.140  0.4858 -0.3013  0.1516
  447MOL0     C60237   2.843   2.298  10.152 -0.6705  0.2451 -0.7498
  447MOL0     C60238   2.876   2.416  10.220 -0.3924 -0.2091  0.2338
  447MOL0     C60239   3.010   2.473  10.231  0.6483 -0.4395  0.2053
  447MOL0     O60240   3.113   2.386  10.205  0.4984  0.4511 -0.1737
  447MOL0     C60241   3.244   2.441  10.194  1.4849 -0.2806 -0.7281
  447MOL0     C60242   3.345   2.361  10.247  0.3803 -0.2841  0.0543
  447MOL0     C60243   3.482   2.404  10.252 -0.1082  0.2487 -0.5805
  447MOL0     C60244   3.522   2.528  10.194 -0.5175  0.7212  0.0285
  447MOL0     O60245   3.657   2.565  10.183  0.0460  0.4086 -0.6404
  447MOL0     C60246   3.751   2.521  10.286 -0.2961  0.0937 -0.0021
  447MOL0     C60247   3.895   2.553  10.242  0.1218  0.2120 -0.2063
  447MOL0     C60248   3.986   2.562  10.364 -0.1507  0.0046 -0.1993
  447MOL0     C60249   4.130   2.557  10.304 -0.1501  0.7900  0.7004
  447MOL0     C60250   4.243   2.582  10.413 -0.3182  0.5017  0.2976
  447MOL0     C60251   4.249   2.478  10.521  0.1039 -0.4557 -0.5837
  447MOL0     C60252   4.359   2.512  10.622  0.3351  0.0373 -0.1247
  447MOL0     C60253   4.397   2.399  10.716 -0.1396  0.0007 -0.7423
  447MOL0    Cl60254   4.570   2.384  10.751 -0.3473 -0.2517 -0.2991
  447MOL0     C60255   3.422   2.611  10.143  0.5122  0.4886  0.2940
  447MOL0     C60256   3.287   2.570  10.147  0.6836 -1.1702  0.3985
  447MOL0     O60257   3.025   2.589  10.273 -0.3519 -0.5590 -0.4961
  447MOL0     C60258   2.764   2.495  10.257  0.0530 -0.1835  0.2450
  447MOL0     C60259   2.630   2.449  10.242 -0.0054 -0.6670  0.9202
  447MOL0     N60260   1.972   2.247  10.274 -0.0919  0.0289 -0.3059
  447MOL0     N60261   1.950   2.256  10.404 -0.0762  0.2225 -0.3099
  447MOL0     C60262   1.446   2.853  10.361 -0.7399  0.2892  0.3560
  447MOL0     C60263   1.310   2.846  10.377 -0.7915  0.4142 -0.0715
  447MOL0     C60264   0.891   2.818  10.408  0.0887  0.8892  0.5295
  447MOL0     C60265   0.834   2.709  10.341 -0.1405  0.4584 -0.0978
  447MOL0     C60266   0.706   2.665  10.369  0.4876  0.2318  0.0006
  447MOL0     C60267   0.637   2.702  10.484  0.0588  0.0573 -0.3240
  447MOL0     O60268   0.512   2.638  10.500  0.7479 -0.3751  0.1313
  447MOL0     C60269   0.422   2.683  10.602  0.2584  0.3125 -0.1281
  447MOL0     C60270   0.307   2.581  10.628  0.1643 -0.0599 -0.3169
  447MOL0     C60271   0.213   2.564  10.508 -0.1033  0.1466  0.3047
  447MOL0     C60272   0.082   2.497  10.546  0.6535  0.1814  0.1810
  447MOL0     C60273  -0.014   2.508  10.438  0.4477 -0.5160  1.3669
  447MOL0     C60274  -0.091   2.513  10.342 -0.1240 -0.0828  0.5381
  447MOL0     C60275   0.688   2.807  10.552  0.2180 -0.3086 -0.7864
  447MOL0     C60276   0.808   2.873  10.513  0.5240  0.5438 -0.0543
  447MOL0     C60277   0.849   2.989  10.599 -0.0474  0.9813  0.2431
  447MOL0     H60278   1.222   2.710  10.077  1.4434 -0.7196 -1.4140
  447MOL0     H60279   1.472   2.724  10.044  1.0138 -2.5168  0.6271
  447MOL0     H60280   1.732   2.848  10.410 -3.2620  1.7687 -0.6948
  447MOL0     H60281   1.670   2.688  10.369 -1.6479  0.8150 -1.6685
  447MOL0     H60282   1.913   2.814  10.245  1.7457 -0.9125  0.7522
  447MOL0     H60283   1.849   2.671  10.187  1.7600  1.5456 -0.0029
  447MOL0     H60284   2.045   2.642  10.314 -1.3304  1.9294 -2.8845
  447MOL0     H60285   1.927   2.547  10.387  0.4859  0.0614 -0.3773
  447MOL0     H60286   1.968   2.814  10.525 -2.1301 -0.0539  2.3594
  447MOL0     H60287   1.898   2.666  10.589  0.8857  0.8817  2.1312
  447MOL0     H60288   2.187   2.709  10.522  0.7001  0.5121  1.3883
  447MOL0     H60289   2.107   2.702  10.687 -2.2276 -0.2471 -0.1895
  447MOL0     H60290   2.155   2.491  10.484  2.3572  0.7195 -0.2660
  447MOL0     H60291   2.243   2.506  10.637  0.1997 -0.9694 -0.2509
  447MOL0     H60292   1.954   2.438  10.638  0.9050  3.1851 -0.9986
  447MOL0     H60293   2.074   2.405  10.767  2.0531 -3.4647 -0.9027
  447MOL0     H60294   2.200   2.238  10.627 -0.6286 -0.5141  0.4441
  447MOL0     H60295   2.027   2.195  10.655 -0.3288 -0.3402 -1.1153
  447MOL0     H60296   2.281   2.213  10.391 -0.5612 -0.9014  2.9688
  447MOL0     H60297   2.214   2.111  10.106  0.7055 -0.5363 -1.2606
  447MOL0     H60298   2.061   2.178  10.054 -0.1094 -0.0923 -0.9430
  447MOL0     H60299   2.132   2.383  10.016 -1.3643 -0.1874  1.7181
  447MOL0     H60300   2.240   2.389  10.147  0.3325 -0.8515  0.0701
  447MOL0     H60301   2.367   2.408   9.927  0.9822  0.2367 -0.8562
  447MOL0     H60302   2.305   2.258   9.871  0.8555 -0.7974 -0.5455
  447MOL0     H60303   2.530   2.223   9.958 -0.0052  0.6815  0.3059
  447MOL0     H60304   2.407   2.122  10.038 -1.7145  1.1523  1.3858
  447MOL0     H60305   2.696   2.142  10.115 -0.8043 -0.5927  2.1135
  447MOL0     H60306   2.926   2.243  10.108 -0.4203  1.6557 -2.0898
  447MOL0     H60307   3.313   2.268  10.293  0.2211 -0.1285  0.2589
  447MOL0     H60308   3.556   2.330  10.281 -1.1914 -1.2028 -1.3778
  447MOL0     H60309   3.734   2.584  10.374  2.7588  0.9467  0.1138
  447MOL0     H60310   3.753   2.414  10.309  0.7688  0.1701  0.3252
  447MOL0     H60311   3.933   2.473  10.178  1.2738 -0.2909  1.0455
  447MOL0     H60312   3.895   2.647  10.187  0.3775 -0.7579 -1.9260
  447MOL0     H60313   3.971   2.662  10.408 -4.7902 -1.0667  1.2092
  447MOL0     H60314   3.958   2.481  10.432 -0.9208  0.0124 -0.5064
  447MOL0     H60315   4.138   2.634  10.227  1.4306  1.0941  1.1281
  447MOL0     H60316   4.144   2.457  10.262 -2.5092  1.2562 -1.4196
  447MOL0     H60317   4.223   2.679  10.460 -0.4732  1.1454 -1.0395
  447MOL0     H60318   4.335   2.585  10.353 -1.3227 -4.3887 -1.9649
  447MOL0     H60319   4.150   2.488  10.567  0.3929  2.2276 -0.3902
  447MOL0     H60320   4.267   2.380  10.476  0.2403 -0.1386 -1.2324
  447MOL0     H60321   4.338   2.603  10.680 -1.5743 -0.7279  0.4526
  447MOL0     H60322   4.448   2.529  10.561  0.6620  0.0743  0.3529
  447MOL0     H60323   4.336   2.418  10.805  1.5092 -0.8124  0.6378
  447MOL0     H60324   4.361   2.304  10.676 -0.4966 -0.3151  0.2956
  447MOL0     H60325   3.457   2.711  10.116 -1.1614  1.1280  0.3443
  447MOL0     H60326   3.206   2.632  10.109  1.2870 -1.9164 -2.3085
  447MOL0     H60327   2.794   2.590  10.301  1.2035 -0.9638  1.1959
  447MOL0     H60328   2.550   2.519  10.262  0.1987  0.9581 -2.9337
  447MOL0     H60329   1.512   2.892  10.437  0.9369 -1.2071 -0.2522
  447MOL0     H60330   1.258   2.874  10.468 -1.2384 -1.0125  0.1460
  447MOL0     H60331   0.885   2.653  10.263  0.0425 -1.2791  1.2013
  447MOL0     H60332   0.659   2.587  10.310  0.4310  1.7300 -2.0352
  447MOL0     H60333   0.373   2.780  10.588 -0.4952 -0.1086 -0.5230
  447MOL0     H60334   0.481   2.684  10.694  0.0424  0.7008  0.0115
  447MOL0     H60335   0.255   2.631  10.710  0.9489  0.1094  0.0904
  447MOL0     H60336   0.337   2.481  10.660  2.1987  0.8455  0.8367
  447MOL0     H60337   0.269   2.509  10.432 -0.1902  1.8063 -1.0438
  447MOL0     H60338   0.192   2.666  10.474  2.0368  0.8912  1.0423
  447MOL0     H60339   0.101   2.394  10.577 -1.9008 -0.9025 -1.4727
  447MOL0     H60340   0.037   2.549  10.631 -0.6711 -2.2054  1.0582
  447MOL0     H60341  -0.178   2.508  10.280  0.1657  0.0847  0.1201
  447MOL0     H60342   0.639   2.839  10.644 -1.6751 -3.4182 -0.5716
  447MOL0     H60343   0.865   3.075  10.533 -1.1509  0.0917 -1.2682
  447MOL0     H60344   0.771   3.014  10.670 -1.0018 -2.2938  0.4927
  447MOL0     H60345   0.942   2.963  10.650  0.2830 -1.2783 -1.3373
  448MOL0     O60346   9.542   5.696   7.562 -0.0829 -0.6884 -0.0154
  448MOL0     C60347   9.646   5.638   7.538 -0.3344 -0.2954 -0.4700
  448MOL0     O60348   9.769   5.695   7.520  0.2083  0.4749  0.1114
  448MOL0     C60349   9.784   5.833   7.517 -0.5630  0.6727  0.4197
  448MOL0     C60350   9.867   5.872   7.409 -0.1856 -0.5798  0.8204
  448MOL0     C60351   9.888   6.009   7.384 -0.4157  0.0725 -0.3290
  448MOL0     C60352   9.842   6.107   7.474  0.0962  0.7015 -0.2474
  448MOL0     O60353   9.871   6.234   7.465  0.3676  0.1516  0.1073
  448MOL0     C60354   9.834   6.288   7.335 -0.3866 -0.2416 -0.3957
  448MOL0     C60355   9.935   6.393   7.305  0.0374 -0.1746 -0.9999
  448MOL0     C60356  10.062   6.329   7.247 -0.4918 -0.5480  0.4599
  448MOL0     C60357  10.178   6.431   7.258  0.7535 -0.0094  0.2340
  448MOL0     C60358  10.318   6.369   7.267  0.0670 -0.1406 -0.0869
  448MOL0     C60359  10.428   6.469   7.223 -0.7512  0.3619 -0.1248
  448MOL0     C60360  10.567   6.402   7.247 -0.0921 -0.6902 -0.4687
  448MOL0     C60361  10.681   6.501   7.198  0.0288  0.2520 -0.3021
  448MOL0     N60362  10.669   6.526   7.052 -0.3793 -0.1436 -0.5920
  448MOL0     C60363  10.599   6.628   6.991  0.1525  0.0614 -0.8825
  448MOL0     C60364  10.612   6.600   6.857 -0.2234 -0.1143 -0.2948
  448MOL0     C60365  10.570   6.704   6.758  0.0582  0.5248  0.7459
  448MOL0     C60366  10.668   6.818   6.727 -0.2660 -0.4494 -0.7942
  448MOL0     C60367  10.615   6.909   6.620  0.4980 -0.5724  0.3854
  448MOL0     C60368  10.714   7.022   6.600  0.2840  0.1509 -0.1986
  448MOL0     O60369  10.660   7.154   6.620 -0.7420 -0.0903 -0.1456
  448MOL0     C60370  10.758   7.252   6.602  0.8319 -0.8544  0.5484
  448MOL0     C60371  10.887   7.261   6.651  0.1033  0.5255  0.4817
  448MOL0     C60372  10.977   7.356   6.610  0.4286  0.4250  0.3651
  448MOL0     C60373  10.947   7.461   6.517 -0.1083  0.4759  0.0968
  448MOL0     C60374  11.047   7.567   6.478 -0.1949  0.4999  0.3366
  448MOL0     O60375  11.169   7.570   6.545  0.4693  0.2640  0.4063
  448MOL0     C60376  11.275   7.647   6.501  0.2806  0.1549  0.3384
  448MOL0     C60377  11.401   7.591   6.475 -0.6904 -0.0077 -0.1771
  448MOL0     C60378  11.506   7.674   6.454 -0.3623  0.7763  1.0314
  448MOL0     C60379  11.486   7.815   6.437 -0.0414 -0.0321  0.9802
  448MOL0     O60380  11.599   7.897   6.419  0.4761  0.6226 -0.3757
  448MOL0     C60381  11.586   7.994   6.318 -0.1001  0.4766 -0.0196
  448MOL0     C60382  11.730   8.033   6.272 -0.2111 -0.0839 -0.7542
  448MOL0     C60383  11.734   8.173   6.206 -0.2437  0.9889  0.1191
  448MOL0     C60384  11.881   8.223   6.189 -0.0897 -0.5298 -0.6803
  448MOL0     C60385  11.955   8.157   6.068  0.0403 -0.5749  0.5061
  448MOL0     C60386  11.901   8.216   5.936 -0.2074 -0.4524  0.2574
  448MOL0     C60387  11.993   8.176   5.822  0.0502 -0.2103  0.1935
  448MOL0     C60388  11.947   8.223   5.686  0.0452 -0.6317  0.2988
  448MOL0    Cl60389  11.941   8.406   5.677 -0.2866  0.4404  0.2067
  448MOL0     C60390  11.359   7.864   6.456 -0.9230  0.1565  0.6518
  448MOL0     C60391  11.254   7.785   6.497 -0.6884  0.2382 -0.1066
  448MOL0     O60392  11.017   7.635   6.380 -0.8540 -0.8448  0.6776
  448MOL0     C60393  10.817   7.453   6.462 -0.4635  0.6388  0.2593
  448MOL0     C60394  10.725   7.356   6.508 -0.1427  1.0781 -1.2959
  448MOL0     N60395  10.693   6.489   6.845  0.2576 -0.2376  0.4699
  448MOL0     N60396  10.727   6.442   6.959  0.3657 -0.4474  0.3099
  448MOL0     C60397   9.762   6.064   7.580 -0.5550  0.1645 -0.1429
  448MOL0     C60398   9.731   5.930   7.605 -0.3801 -0.1770 -0.5110
  448MOL0     C60399   9.624   5.487   7.527  0.1587  0.1447  0.0407
  448MOL0     C60400   9.497   5.430   7.518 -0.1295 -0.0161  0.0332
  448MOL0     C60401   9.472   5.294   7.517  0.5919 -0.1505 -0.6464
  448MOL0     C60402   9.585   5.209   7.521 -0.1010 -0.0470  0.2847
  448MOL0     O60403   9.579   5.072   7.533  1.1459  0.1019  0.6138
  448MOL0     C60404   9.444   5.005   7.539  0.1002  0.1383 -0.2136
  448MOL0     C60405   9.391   4.982   7.680  0.8496 -0.6361  0.8012
  448MOL0     C60406   9.479   4.888   7.758  0.2328  0.8286 -0.3812
  448MOL0     C60407   9.563   4.774   7.690 -0.4191 -0.3070  0.8778
  448MOL0     C60408   9.483   4.658   7.646 -0.3296  0.4595  0.1263
  448MOL0     C60409   9.419   4.557   7.624 -0.4220 -0.0096  0.3817
  448MOL0     C60410   9.717   5.263   7.534  0.3740 -0.1021  0.4555
  448MOL0     C60411   9.735   5.398   7.530 -0.1850 -0.4518 -0.4182
  448MOL0     C60412   9.883   5.431   7.519 -0.1499  0.4286  0.0351
  448MOL0     H60413   9.911   5.804   7.337 -0.0394  0.0852  0.2700
  448MOL0     H60414   9.934   6.047   7.293  0.6895 -0.4074  0.0141
  448MOL0     H60415   9.836   6.213   7.255 -1.8004 -1.0885  0.3365
  448MOL0     H60416   9.732   6.327   7.346  0.0287  0.3598  1.6369
  448MOL0     H60417   9.952   6.447   7.399  0.4815 -0.8661 -0.6760
  448MOL0     H60418   9.883   6.461   7.237 -0.7623 -0.9719 -1.2050
  448MOL0     H60419  10.039   6.306   7.142  1.5951  0.1222 -0.1879
  448MOL0     H60420  10.076   6.230   7.289  0.1926 -2.1951 -3.2297
  448MOL0     H60421  10.171   6.496   7.170 -0.4712 -0.2834  0.1204
  448MOL0     H60422  10.173   6.495   7.347  0.6415  1.6880 -0.9325
  448MOL0     H60423  10.333   6.330   7.368 -3.8091  0.0186  0.7249
  448MOL0     H60424  10.325   6.288   7.193  1.4901  1.8882 -2.3035
  448MOL0     H60425  10.414   6.501   7.120  0.8825  0.7202 -0.2743
  448MOL0     H60426  10.420   6.565   7.276 -0.9559 -0.5914  1.6695
  448MOL0     H60427  10.576   6.315   7.181  3.8000 -0.1319 -0.9074
  448MOL0     H60428  10.570   6.391   7.356 -2.5971  4.2784  0.3648
  448MOL0     H60429  10.675   6.598   7.248  3.3608  0.6589 -0.4723
  448MOL0     H60430  10.777   6.449   7.210 -0.3347 -0.5642 -0.8553
  448MOL0     H60431  10.545   6.707   7.042  1.0240 -0.2852  0.6444
  448MOL0     H60432  10.552   6.653   6.663 -1.0253  1.7868  0.2529
  448MOL0     H60433  10.478   6.753   6.789 -0.4355  1.5435 -2.0677
  448MOL0     H60434  10.690   6.875   6.818  1.7424 -2.3541  0.0158
  448MOL0     H60435  10.758   6.771   6.687  0.3893 -1.7572  1.9866
  448MOL0     H60436  10.514   6.941   6.649  0.4649 -0.3174 -0.0176
  448MOL0     H60437  10.601   6.852   6.528 -1.0962 -0.9774  0.8405
  448MOL0     H60438  10.744   7.015   6.495  1.7775  0.8527  0.1613
  448MOL0     H60439  10.809   7.009   6.652  1.0432 -1.3762 -1.8724
  448MOL0     H60440  10.911   7.187   6.727  1.1524 -0.6526 -0.9514
  448MOL0     H60441  11.078   7.357   6.650 -0.2501 -1.5129  2.3162
  448MOL0     H60442  11.417   7.485   6.488  0.5059  0.4212  2.5516
  448MOL0     H60443  11.605   7.631   6.447 -0.0036  1.6708  0.4371
  448MOL0     H60444  11.529   7.958   6.231 -0.7866  0.4754  0.4239
  448MOL0     H60445  11.528   8.078   6.358 -0.2990  0.1791  0.3249
  448MOL0     H60446  11.794   8.040   6.361 -3.2756 -4.2180  2.1609
  448MOL0     H60447  11.771   7.959   6.203 -1.4808  1.8311 -3.7811
  448MOL0     H60448  11.681   8.175   6.110 -3.3850  2.0945  1.7553
  448MOL0     H60449  11.684   8.243   6.272  0.1544  0.1035  1.3964
  448MOL0     H60450  11.939   8.196   6.277  2.0295  0.7110 -1.6117
  448MOL0     H60451  11.881   8.332   6.174  0.1725 -0.7265 -2.3265
  448MOL0     H60452  11.949   8.048   6.075 -1.9547 -0.5234  0.2690
  448MOL0     H60453  12.060   8.184   6.082 -0.0254 -0.9567  1.8510
  448MOL0     H60454  11.800   8.179   5.914  0.3210 -3.3943  2.2881
  448MOL0     H60455  11.906   8.326   5.940  0.3406 -0.4152 -0.8599
  448MOL0     H60456  12.006   8.068   5.823 -2.6776 -0.6078  0.3317
  448MOL0     H60457  12.091   8.222   5.842 -0.5555  1.0350  0.4159
  448MOL0     H60458  12.025   8.191   5.616  0.4705 -0.4386  0.6756
  448MOL0     H60459  11.861   8.164   5.655  1.0306 -2.1647  0.3801
  448MOL0     H60460  11.335   7.967   6.432 -0.8807  0.3332  1.3428
  448MOL0     H60461  11.150   7.814   6.489 -1.8106 -3.4843 -1.0443
  448MOL0     H60462  10.789   7.529   6.390  1.7471  1.3674  0.0981
  448MOL0     H60463  10.623   7.358   6.472 -0.7705  1.6850  0.4173
  448MOL0     H60464   9.715   6.130   7.652  0.6665  2.3627 -1.2797
  448MOL0     H60465   9.661   5.904   7.684 -1.0152 -3.1834 -1.9291
  448MOL0     H60466   9.405   5.487   7.513 -1.0315 -1.0654  2.7434
  448MOL0     H60467   9.370   5.263   7.496  0.7684 -0.0962 -1.6460
  448MOL0     H60468   9.439   4.909   7.487 -0.0843  0.1325 -0.1901
  448MOL0     H60469   9.356   5.058   7.501 -2.7171 -1.0597  3.9106
  448MOL0     H60470   9.291   4.939   7.672  0.6493  0.0424 -0.7909
  448MOL0     H60471   9.380   5.073   7.739 -2.0760  0.3734 -1.1119
  448MOL0     H60472   9.421   4.840   7.837  0.0849  0.8365 -0.4852
  448MOL0     H60473   9.560   4.954   7.792 -0.4501  0.8492  1.2796
  448MOL0     H60474   9.621   4.818   7.609 -0.8174  4.0520  2.6821
  448MOL0     H60475   9.629   4.743   7.772  0.9922  4.1291  1.6643
  448MOL0     H60476   9.348   4.478   7.608 -0.5182  0.0189  0.6620
  448MOL0     H60477   9.790   5.184   7.525  0.9923  0.3447  1.3904
  448MOL0     H60478   9.914   5.509   7.590  2.2059  3.2362 -3.7229
  448MOL0     H60479   9.943   5.343   7.542 -2.3563 -0.4832  3.0895
  448MOL0     H60480   9.895   5.469   7.417 -0.5501 -1.8607 -0.9159
  449MOL0     O60481   0.468   8.509   3.665 -0.0802  0.1220 -0.2060
  449MOL0     C60482   0.469   8.458   3.555  0.3114 -0.7548  0.1204
  449MOL0     O60483   0.454   8.325   3.528  0.4485 -0.0598 -0.2463
  449MOL0     C60484   0.429   8.227   3.624  0.4923  0.3111 -0.4022
  449MOL0     C60485   0.286   8.193   3.636 -0.5416  0.5382 -0.1282
  449MOL0     C60486   0.252   8.086   3.714 -0.2666  0.5110 -0.3903
  449MOL0     C60487   0.348   8.009   3.786  0.4649 -0.5788 -0.2085
  449MOL0     O60488   0.336   7.913   3.884 -1.1628  0.4199 -0.1275
  449MOL0     C60489   0.204   7.876   3.912 -0.9241  0.0097  0.2792
  449MOL0     C60490   0.205   7.798   4.044  0.4602 -0.0995  0.3160
  449MOL0     C60491   0.238   7.889   4.169  0.8049 -0.2295  0.3343
  449MOL0     C60492   0.226   7.811   4.299 -0.2605 -0.9863  0.5090
  449MOL0     C60493   0.296   7.885   4.409  0.3133 -0.6937  0.3164
  449MOL0     C60494   0.272   7.812   4.538  0.2745  0.8327 -1.3557
  449MOL0     C60495   0.355   7.678   4.562  0.3595  0.7452  0.3318
  449MOL0     C60496   0.506   7.686   4.536  0.2267 -0.7877 -0.5637
  449MOL0     N60497   0.558   7.559   4.584 -0.4461  0.3458 -0.4847
  449MOL0     C60498   0.545   7.435   4.527  0.7396 -0.5758  0.3563
  449MOL0     C60499   0.618   7.353   4.604 -0.3459 -0.1084 -0.7585
  449MOL0     C60500   0.640   7.204   4.571 -0.2242 -0.1456 -0.4937
  449MOL0     C60501   0.503   7.118   4.587  0.6832 -0.2135  0.0677
  449MOL0     C60502   0.430   7.144   4.719  1.1287  0.0868 -1.4019
  449MOL0     C60503   0.287   7.075   4.722 -0.0573  0.4800 -0.8713
  449MOL0     O60504   0.198   7.120   4.618  0.0977  0.4467  0.0188
  449MOL0     C60505   0.126   7.244   4.621  0.4996  0.4082 -0.9826
  449MOL0     C60506   0.069   7.290   4.506  0.9682  0.0070  0.3328
  449MOL0     C60507  -0.013   7.415   4.506  0.2261 -0.3151 -0.3350
  449MOL0     C60508  -0.024   7.497   4.626 -0.0948  0.6500  0.2948
  449MOL0     C60509  -0.095   7.632   4.623  0.4377  0.0281  0.3073
  449MOL0     O60510  -0.097   7.708   4.734  0.4474 -0.1542  0.4277
  449MOL0     C60511  -0.152   7.829   4.718  0.1640  0.6596  0.3512
  449MOL0     C60512  -0.056   7.932   4.700  0.1350  0.3592  0.5504
  449MOL0     C60513  -0.093   8.061   4.660 -0.5320 -0.0848  0.3586
  449MOL0     C60514  -0.233   8.090   4.639  0.3677 -0.8085  0.3040
  449MOL0     O60515  -0.276   8.210   4.584  0.5155 -0.1075 -0.6124
  449MOL0     C60516  -0.392   8.273   4.631 -0.8166  0.4059 -0.8659
  449MOL0     C60517  -0.388   8.405   4.556  0.3159 -0.0276 -0.4788
  449MOL0     C60518  -0.496   8.498   4.597  0.4658  0.0734  0.1441
  449MOL0     C60519  -0.483   8.624   4.515 -0.6203  0.0834 -0.1163
  449MOL0     C60520  -0.606   8.715   4.541  0.1321  0.4333  0.2735
  449MOL0     C60521  -0.595   8.855   4.481  0.3182 -0.6680 -0.4336
  449MOL0     C60522  -0.572   8.867   4.332  0.1594  0.2028 -0.1340
  449MOL0     C60523  -0.674   8.798   4.242 -0.6159  0.1683  0.1801
  449MOL0    Cl60524  -0.838   8.850   4.257 -0.2633 -0.3265  0.4408
  449MOL0     C60525  -0.324   7.983   4.658 -0.4760 -0.1041  0.1733
  449MOL0     C60526  -0.290   7.859   4.715 -0.3974 -0.6032  0.0149
  449MOL0     O60527  -0.136   7.669   4.509  0.9777  0.5093 -0.5028
  449MOL0     C60528   0.048   7.457   4.736 -0.0640  0.0271 -0.0228
  449MOL0     C60529   0.121   7.330   4.733  0.1964  0.5452 -0.0134
  449MOL0     N60530   0.666   7.418   4.720 -0.7054  0.0260  0.0490
  449MOL0     N60531   0.633   7.544   4.706  0.1074 -0.1420  0.2135
  449MOL0     C60532   0.480   8.046   3.774  0.2967  0.8917 -0.6272
  449MOL0     C60533   0.522   8.146   3.690  0.3157  0.0861  0.1567
  449MOL0     C60534   0.474   8.554   3.446  0.1622 -0.8521 -0.1389
  449MOL0     C60535   0.419   8.502   3.328 -0.4336  0.4998  0.0665
  449MOL0     C60536   0.424   8.575   3.213  0.1099  0.3051 -0.0372
  449MOL0     C60537   0.485   8.699   3.212  0.1997 -1.2039  0.0610
  449MOL0     O60538   0.506   8.767   3.095 -0.8248  0.9466  0.3606
  449MOL0     C60539   0.635   8.822   3.068 -0.7540  0.1021  0.0462
  449MOL0     C60540   0.635   8.908   2.949 -0.7355 -0.7217  0.1239
  449MOL0     C60541   0.545   9.033   2.979  0.1018  0.3230  0.4662
  449MOL0     C60542   0.556   9.137   2.868  0.7089 -0.0112  0.1564
  449MOL0     C60543   0.675   9.218   2.858  0.3276  0.2774  0.0259
  449MOL0     C60544   0.779   9.280   2.851  0.0983  0.5431  0.3043
  449MOL0     C60545   0.523   8.760   3.330  0.3192  0.2037  0.8130
  449MOL0     C60546   0.520   8.689   3.447 -0.3432 -0.3182  0.2987
  449MOL0     C60547   0.562   8.762   3.570 -1.1684  0.0234  0.2431
  449MOL0     H60548   0.218   8.259   3.583 -0.4339  0.3210 -0.5386
  449MOL0     H60549   0.148   8.056   3.716 -0.6343  1.2251 -3.4392
  449MOL0     H60550   0.127   7.953   3.909 -0.4076  0.6531  2.4207
  449MOL0     H60551   0.186   7.808   3.827  2.4300 -2.4859  1.3501
  449MOL0     H60552   0.276   7.715   4.038 -2.4007 -2.6597 -0.2046
  449MOL0     H60553   0.104   7.759   4.057 -0.2346  1.2499 -0.7315
  449MOL0     H60554   0.169   7.973   4.183  0.9253 -0.2710  1.2492
  449MOL0     H60555   0.341   7.924   4.158  0.4997  0.1638 -1.7582
  449MOL0     H60556   0.119   7.808   4.321 -0.8245  1.9421 -1.3143
  449MOL0     H60557   0.266   7.709   4.300  1.6939 -0.2813 -0.4658
  449MOL0     H60558   0.400   7.899   4.377 -0.5094 -0.7702 -2.7751
  449MOL0     H60559   0.250   7.984   4.414  0.1016 -0.6855 -1.2009
  449MOL0     H60560   0.303   7.872   4.624  1.0895 -2.1650  0.6226
  449MOL0     H60561   0.165   7.801   4.557 -0.0330  4.7811  0.2613
  449MOL0     H60562   0.316   7.588   4.512 -0.2354  0.3346  1.5056
  449MOL0     H60563   0.347   7.651   4.667  2.1908 -0.8559  0.1177
  449MOL0     H60564   0.520   7.692   4.428 -0.0011 -5.1594 -0.9860
  449MOL0     H60565   0.546   7.772   4.592 -1.5435 -1.4497  1.9057
  449MOL0     H60566   0.505   7.400   4.433  1.3071 -1.2262  0.3528
  449MOL0     H60567   0.682   7.196   4.471 -0.6158  0.4663 -0.7101
  449MOL0     H60568   0.705   7.156   4.645  1.3321  1.2733 -0.8908
  449MOL0     H60569   0.432   7.129   4.505 -1.7854  0.4078  2.1704
  449MOL0     H60570   0.531   7.012   4.582 -2.5652 -1.1264 -1.5683
  449MOL0     H60571   0.425   7.249   4.751 -0.3200  0.8155 -3.7553
  449MOL0     H60572   0.494   7.101   4.797  2.2189  1.4673 -1.4794
  449MOL0     H60573   0.246   7.092   4.822 -0.3390 -1.7014 -0.5685
  449MOL0     H60574   0.281   6.966   4.714 -0.2051  0.3047  1.2350
  449MOL0     H60575   0.072   7.212   4.431  0.0290 -0.1418  0.4420
  449MOL0     H60576  -0.064   7.436   4.413 -0.6057 -1.5041 -0.1668
  449MOL0     H60577   0.050   7.906   4.703  0.2047  0.3182 -1.3251
  449MOL0     H60578  -0.016   8.132   4.631  0.1428 -0.7606  0.4719
  449MOL0     H60579  -0.487   8.223   4.610 -0.3694 -1.5778  1.4222
  449MOL0     H60580  -0.390   8.289   4.740  0.1570  3.0202 -1.2032
  449MOL0     H60581  -0.297   8.461   4.580  1.5599 -2.4657  0.9279
  449MOL0     H60582  -0.388   8.372   4.451  2.3166  0.1991 -0.5779
  449MOL0     H60583  -0.588   8.447   4.567 -0.7444  0.9060  2.2183
  449MOL0     H60584  -0.499   8.513   4.705  0.7897  0.4134  0.1108
  449MOL0     H60585  -0.458   8.612   4.409  4.0781 -0.7817  0.8727
  449MOL0     H60586  -0.391   8.676   4.542 -0.3890 -0.2689 -0.2284
  449MOL0     H60587  -0.615   8.713   4.650  2.2381 -0.3054  0.4645
  449MOL0     H60588  -0.699   8.676   4.497 -0.4807 -0.7989  2.4977
  449MOL0     H60589  -0.678   8.919   4.512 -0.6582 -3.5086  3.4929
  449MOL0     H60590  -0.510   8.891   4.539  1.5814 -2.1270 -1.2954
  449MOL0     H60591  -0.474   8.822   4.314  0.6400 -0.0019  2.5912
  449MOL0     H60592  -0.558   8.972   4.305 -1.7101  0.4065 -0.4458
  449MOL0     H60593  -0.642   8.806   4.138 -0.3881 -0.6448  0.1806
  449MOL0     H60594  -0.673   8.690   4.260  0.9541  0.2008  0.3866
  449MOL0     H60595  -0.427   8.005   4.631 -1.0642 -0.3384  2.0318
  449MOL0     H60596  -0.369   7.787   4.734  0.3919 -1.6219 -0.4362
  449MOL0     H60597   0.053   7.509   4.831 -0.6975 -0.4466  0.2809
  449MOL0     H60598   0.176   7.301   4.823 -0.5928 -1.1118 -0.0316
  449MOL0     H60599   0.552   7.990   3.833 -1.5208  0.2792  1.1257
  449MOL0     H60600   0.628   8.167   3.681  0.6599 -2.1240 -2.3220
  449MOL0     H60601   0.380   8.400   3.328  2.3914 -0.6768 -1.0682
  449MOL0     H60602   0.388   8.531   3.120 -3.4048 -0.2355  1.4350
  449MOL0     H60603   0.704   8.740   3.046 -1.0147  0.4726 -2.3678
  449MOL0     H60604   0.678   8.864   3.159 -1.4322  1.9100 -0.4375
  449MOL0     H60605   0.611   8.867   2.850  1.4480 -0.7722 -0.4193
  449MOL0     H60606   0.738   8.942   2.934 -1.0952  0.3118 -0.1139
  449MOL0     H60607   0.574   9.075   3.076 -2.9066  3.2660  0.2704
  449MOL0     H60608   0.441   9.004   2.995  0.1464  0.4879  1.0578
  449MOL0     H60609   0.535   9.093   2.770 -1.4491  2.5440 -0.6363
  449MOL0     H60610   0.473   9.203   2.895  0.5097 -1.1496  2.5462
  449MOL0     H60611   0.864   9.345   2.851  2.2685 -2.1240  0.7193
  449MOL0     H60612   0.545   8.866   3.331  1.3400 -0.0032  1.3241
  449MOL0     H60613   0.627   8.849   3.554 -1.2755 -0.0412 -0.5742
  449MOL0     H60614   0.472   8.776   3.630 -0.6997 -1.3108  1.3135
  449MOL0     H60615   0.628   8.686   3.613  1.2887  2.0105  0.2565
  450MOL0     O60616  10.312   3.225  10.207 -0.6559 -0.6424 -0.2457
  450MOL0     C60617  10.292   3.318  10.281  0.4396  0.0817 -0.3471
  450MOL0     O60618  10.381   3.376  10.366 -0.3147 -0.1128  0.2855
  450MOL0     C60619  10.503   3.317  10.391  0.2530 -0.7722  0.3106
  450MOL0     C60620  10.551   3.334  10.518  0.0714 -0.0478  1.0242
  450MOL0     C60621  10.669   3.279  10.554 -0.6279  0.9086  0.5456
  450MOL0     C60622  10.745   3.203  10.464 -0.5105  0.2363  0.1328
  450MOL0     O60623  10.868   3.142  10.501 -0.2508 -0.3148  0.2630
  450MOL0     C60624  10.971   3.240  10.524 -0.0079  0.6145  0.5366
  450MOL0     C60625  11.108   3.184  10.544 -0.3983 -0.5405  0.3793
  450MOL0     C60626  11.149   3.104  10.409  0.1323  0.5960 -0.0010
  450MOL0     C60627  11.229   3.192  10.307  0.7395  0.0970 -0.6314
  450MOL0     C60628  11.262   3.113  10.177  0.2759  0.6873  0.0286
  450MOL0     C60629  11.132   3.084  10.084  0.0821 -0.5059  0.2227
  450MOL0     C60630  11.048   3.217  10.052  0.6995 -0.0052  0.2340
  450MOL0     C60631  11.123   3.322   9.972 -0.3041  1.0760 -0.1670
  450MOL0     N60632  11.039   3.432   9.933  0.2053 -0.9377 -0.0308
  450MOL0     C60633  11.037   3.489   9.801 -0.0516 -0.2444 -0.2635
  450MOL0     C60634  10.951   3.594   9.810  0.1254  0.6302 -0.0870
  450MOL0     C60635  10.924   3.698   9.707 -0.0632  0.3733 -0.9286
  450MOL0     C60636  10.782   3.755   9.723  0.9554 -0.6571  0.3285
  450MOL0     C60637  10.730   3.835   9.604  0.3403  0.1187  0.9857
  450MOL0     C60638  10.598   3.904   9.616 -0.0922 -0.1252  0.3395
  450MOL0     O60639  10.498   3.802   9.594  0.0597 -0.3980  0.2618
  450MOL0     C60640  10.362   3.837   9.602 -0.0992 -0.0917 -0.2777
  450MOL0     C60641  10.263   3.740   9.600  0.5152  0.2354 -0.3049
  450MOL0     C60642  10.124   3.773   9.601  0.0141  0.6551 -0.7155
  450MOL0     C60643  10.078   3.902   9.607 -0.5895  0.7841 -1.5012
  450MOL0     C60644   9.932   3.930   9.605 -0.0908  0.4338 -0.1794
  450MOL0     O60645   9.887   4.062   9.624 -0.7495 -0.1476  1.3115
  450MOL0     C60646   9.758   4.100   9.628 -0.1970  0.1903  0.1778
  450MOL0     C60647   9.742   4.231   9.671  0.9013  1.1518 -0.3209
  450MOL0     C60648   9.612   4.296   9.667 -0.7370 -0.0013 -0.5212
  450MOL0     C60649   9.503   4.222   9.611 -0.8117  0.6114 -0.0132
  450MOL0     O60650   9.387   4.285   9.587  0.7751 -0.2721  0.1447
  450MOL0     C60651   9.304   4.238   9.471 -0.4846  0.0503 -0.1032
  450MOL0     C60652   9.195   4.340   9.435 -0.2543 -0.5776  0.1628
  450MOL0     C60653   9.248   4.474   9.388  0.4374 -0.1488 -0.6746
  450MOL0     C60654   9.174   4.534   9.274  0.2031  0.1387  0.2886
  450MOL0     C60655   9.023   4.572   9.304 -0.4447  0.4954  0.6221
  450MOL0     C60656   8.959   4.667   9.209  0.1325 -0.4641 -0.7105
  450MOL0     C60657   8.901   4.613   9.082 -0.4680  0.2095 -0.2008
  450MOL0     C60658   8.807   4.711   9.018 -0.4891  0.8689  0.2940
  450MOL0    Cl60659   8.895   4.852   8.978 -0.0902  0.0124 -0.3902
  450MOL0     C60660   9.522   4.085   9.571 -1.4581  0.8873 -0.6187
  450MOL0     C60661   9.646   4.024   9.587 -0.8127  0.3330  0.1747
  450MOL0     O60662   9.864   3.830   9.592 -0.2767 -0.2835  0.0751
  450MOL0     C60663  10.179   4.003   9.610  0.0921  1.1996  0.3195
  450MOL0     C60664  10.314   3.974   9.615  0.9606  0.5519 -0.5836
  450MOL0     N60665  10.922   3.611   9.944 -0.9973 -0.0061  0.4435
  450MOL0     N60666  10.976   3.514  10.016  0.1663 -0.3850  1.1728
  450MOL0     C60667  10.701   3.189  10.335  0.4892 -0.3400 -0.0713
  450MOL0     C60668  10.580   3.251  10.303 -0.4308 -0.1823  0.1483
  450MOL0     C60669  10.154   3.391  10.284 -1.0775  0.7140  0.2890
  450MOL0     C60670  10.143   3.504  10.362  0.1079 -0.4176 -0.8522
  450MOL0     C60671  10.025   3.568  10.373  0.2671 -0.9165  0.6388
  450MOL0     C60672   9.919   3.526  10.289 -0.6191 -0.1696 -0.6262
  450MOL0     O60673   9.802   3.597  10.275  0.3753 -0.5824  0.0649
  450MOL0     C60674   9.789   3.707  10.373 -0.4084  0.8001 -0.0431
  450MOL0     C60675   9.675   3.796  10.337  0.8030 -0.8880  0.8632
  450MOL0     C60676   9.532   3.727  10.349 -0.3221 -0.1779 -0.2385
  450MOL0     C60677   9.426   3.817  10.272 -0.3309 -0.2936 -0.2836
  450MOL0     C60678   9.294   3.751  10.235 -0.2719 -0.1423 -0.6001
  450MOL0     C60679   9.191   3.702  10.204  0.1340 -0.1249 -0.0420
  450MOL0     C60680   9.922   3.406  10.221 -0.4784  0.1220 -0.6013
  450MOL0     C60681  10.046   3.341  10.209 -0.0029 -0.1092 -0.0254
  450MOL0     C60682  10.043   3.217  10.120  0.3627  0.5095  0.0228
  450MOL0     H60683  10.516   3.410  10.588 -0.1316  0.0782  0.7866
  450MOL0     H60684  10.689   3.284  10.661 -0.1397  3.0505  0.4013
  450MOL0     H60685  10.982   3.309  10.440  0.5245  2.1076  1.7619
  450MOL0     H60686  10.959   3.294  10.619 -1.4447 -1.0153  1.3128
  450MOL0     H60687  11.118   3.116  10.630 -0.4111  0.8046  1.4755
  450MOL0     H60688  11.174   3.269  10.563 -2.0456  1.0937 -0.8442
  450MOL0     H60689  11.061   3.053  10.369  0.9597 -1.9994  1.2479
  450MOL0     H60690  11.215   3.024  10.443  0.4031  1.1827  0.9019
  450MOL0     H60691  11.186   3.290  10.282 -0.4594  0.8448  3.6041
  450MOL0     H60692  11.328   3.214  10.349  0.9968  0.5678 -1.4423
  450MOL0     H60693  11.321   3.179  10.113 -0.1865  0.2164 -0.9052
  450MOL0     H60694  11.304   3.016  10.204 -0.4734  0.0610 -0.9934
  450MOL0     H60695  11.172   3.048   9.989 -1.4455 -0.1557 -0.5751
  450MOL0     H60696  11.072   3.016  10.146  0.2184 -0.5636  0.2924
  450MOL0     H60697  11.001   3.257  10.143 -0.2009 -0.8269  0.1500
  450MOL0     H60698  10.960   3.179   9.999  1.2486  0.1498 -0.8065
  450MOL0     H60699  11.197   3.365  10.040  0.6837 -1.0143  0.1587
  450MOL0     H60700  11.170   3.279   9.883  0.1559 -1.4510  1.2059
  450MOL0     H60701  11.099   3.467   9.714  1.0895  3.5912 -0.5855
  450MOL0     H60702  10.999   3.777   9.704  1.6422 -1.0518  1.0161
  450MOL0     H60703  10.936   3.643   9.613  2.5592  1.5822 -1.3802
  450MOL0     H60704  10.706   3.677   9.738  0.7323 -0.9990 -2.1045
  450MOL0     H60705  10.771   3.817   9.812  5.5112  0.0783  0.5889
  450MOL0     H60706  10.721   3.764   9.521 -1.0457  0.5806  0.7102
  450MOL0     H60707  10.805   3.905   9.565 -0.2601  0.2018 -0.0519
  450MOL0     H60708  10.591   3.977   9.535  0.6297 -0.6541 -0.2118
  450MOL0     H60709  10.582   3.951   9.714 -1.7591  0.0724 -0.0037
  450MOL0     H60710  10.283   3.634   9.596 -2.0310 -0.4067  1.4114
  450MOL0     H60711  10.061   3.684   9.599  1.3539 -0.4281  1.0596
  450MOL0     H60712   9.829   4.287   9.702  1.3582  1.2135 -1.6327
  450MOL0     H60713   9.604   4.398   9.704  2.3317 -0.2845  1.2618
  450MOL0     H60714   9.367   4.222   9.383 -0.0700 -1.8842  0.4900
  450MOL0     H60715   9.262   4.142   9.503 -2.1077  1.1031  1.0618
  450MOL0     H60716   9.144   4.298   9.348  0.2825 -0.2830 -0.3025
  450MOL0     H60717   9.120   4.349   9.514  0.1141  0.6258  0.3883
  450MOL0     H60718   9.244   4.541   9.475  0.7192 -1.5933  0.4886
  450MOL0     H60719   9.352   4.474   9.353  0.8254 -0.7341  0.4263
  450MOL0     H60720   9.179   4.456   9.198 -0.4640 -0.6447  1.0365
  450MOL0     H60721   9.233   4.620   9.239  2.0353 -0.2017  2.3130
  450MOL0     H60722   9.042   4.622   9.400  1.7672  3.2810 -1.1151
  450MOL0     H60723   8.960   4.485   9.321  0.3923 -0.6351 -1.6414
  450MOL0     H60724   8.863   4.688   9.257 -1.2928 -0.4880 -3.3647
  450MOL0     H60725   9.017   4.759   9.194  2.0262 -1.0776  2.0255
  450MOL0     H60726   8.851   4.519   9.106  2.2905 -1.3754 -0.2125
  450MOL0     H60727   8.978   4.587   9.009 -1.7456  0.0289 -1.5217
  450MOL0     H60728   8.778   4.664   8.923 -1.8367  0.7552  0.7332
  450MOL0     H60729   8.718   4.732   9.079 -0.4316  0.5210  0.5057
  450MOL0     H60730   9.438   4.033   9.525 -0.6269 -0.4938 -0.6164
  450MOL0     H60731   9.647   3.921   9.552  1.0771  1.3382 -3.2028
  450MOL0     H60732  10.150   4.108   9.611 -1.4864  0.8326  2.9677
  450MOL0     H60733  10.377   4.062   9.624  4.8223 -2.1213  1.2410
  450MOL0     H60734  10.763   3.157  10.251  3.3485  3.2926  0.4298
  450MOL0     H60735  10.565   3.233  10.197  2.5006 -3.5874  0.0976
  450MOL0     H60736  10.228   3.531  10.424 -0.4554 -0.2533 -0.1364
  450MOL0     H60737  10.024   3.659  10.432 -1.1235  0.3457 -1.1942
  450MOL0     H60738   9.875   3.775  10.374 -1.5621  2.3394 -0.5433
  450MOL0     H60739   9.772   3.676  10.476 -2.8013  0.0418 -0.6005
  450MOL0     H60740   9.706   3.837  10.241  0.6249  0.3776  1.3267
  450MOL0     H60741   9.693   3.884  10.400 -0.3220  1.0455 -1.3558
  450MOL0     H60742   9.510   3.717  10.456 -0.3828  0.4805 -0.1808
  450MOL0     H60743   9.532   3.627  10.306 -5.8476 -1.3081  1.5582
  450MOL0     H60744   9.400   3.909  10.326  0.3320 -1.1373  1.5437
  450MOL0     H60745   9.468   3.843  10.174 -3.0970  0.1079 -1.4447
  450MOL0     H60746   9.094   3.664  10.180 -0.1643 -0.1064  1.0605
  450MOL0     H60747   9.837   3.378  10.159  1.8678 -1.0891 -3.5331
  450MOL0     H60748  10.110   3.242  10.037  1.7600 -2.4088  0.1545
  450MOL0     H60749  10.078   3.132  10.180  1.3718  1.0284  0.1928
  450MOL0     H60750   9.940   3.200  10.089  0.3328 -0.4724  0.6371
  451MOL0     O60751   0.288  10.548   7.807 -0.2459 -0.4038  0.4216
  451MOL0     C60752   0.248  10.619   7.901 -0.2107 -0.1756  0.8347
  451MOL0     O60753   0.298  10.745   7.925 -0.0145 -0.0454  0.6261
  451MOL0     C60754   0.421  10.786   7.868 -0.6330 -0.1158  0.0701
  451MOL0     C60755   0.537  10.735   7.922  0.2056  0.2148  0.4992
  451MOL0     C60756   0.660  10.785   7.887 -0.8864  0.3564 -0.9480
  451MOL0     C60757   0.677  10.888   7.796  0.1391 -0.0508  0.8316
  451MOL0     O60758   0.787  10.953   7.752 -0.2949 -0.0938  0.1406
  451MOL0     C60759   0.914  10.895   7.770 -0.2024  0.0900  0.1440
  451MOL0     C60760   1.009  10.976   7.682 -0.1264  0.1206 -0.4012
  451MOL0     C60761   1.161  10.935   7.698 -0.0740  0.0468 -0.1854
  451MOL0     C60762   1.245  11.050   7.644 -0.3050  0.0371  0.3735
  451MOL0     C60763   1.387  11.014   7.641 -0.0243 -0.1318  0.2222
  451MOL0     C60764   1.481  11.112   7.570  0.0922 -0.3644  0.8294
  451MOL0     C60765   1.624  11.100   7.620 -0.6109  0.5169 -0.2858
  451MOL0     C60766   1.686  10.972   7.559  0.4100 -0.6687 -0.2109
  451MOL0     N60767   1.828  10.943   7.592  0.0193  0.2131  0.1410
  451MOL0     C60768   1.877  10.900   7.716 -0.3717 -0.5339  0.0370
  451MOL0     C60769   2.006  10.866   7.693 -0.0267  1.0051 -0.2397
  451MOL0     C60770   2.094  10.827   7.807 -0.1461 -0.3561  0.0651
  451MOL0     C60771   2.061  10.685   7.857  0.0726 -0.0320  0.6768
  451MOL0     C60772   2.122  10.570   7.764  0.3752 -0.1256 -0.9134
  451MOL0     C60773   2.083  10.426   7.805 -0.3476 -0.3625  0.4063
  451MOL0     O60774   2.147  10.343   7.711  0.1742  0.5865  0.0049
  451MOL0     C60775   2.271  10.300   7.745  0.3793 -0.1851  1.0937
  451MOL0     C60776   2.311  10.184   7.680  0.9302  0.2179  0.3828
  451MOL0     C60777   2.434  10.123   7.703 -0.0883  1.4549 -0.5195
  451MOL0     C60778   2.521  10.181   7.797  0.4518 -0.5318 -0.3413
  451MOL0     C60779   2.649  10.111   7.824 -0.0912 -0.6479  0.0187
  451MOL0     O60780   2.718  10.135   7.942  0.0766 -0.1176  0.1972
  451MOL0     C60781   2.830  10.065   7.969  0.7103  0.2775 -0.8054
  451MOL0     C60782   2.937  10.129   8.031  0.0283  0.5540  0.1000
  451MOL0     C60783   3.053  10.059   8.065 -0.1839 -0.3727  0.1465
  451MOL0     C60784   3.061   9.922   8.053 -0.0413 -0.2108  0.0118
  451MOL0     O60785   3.175   9.847   8.074  0.1511  0.4708  0.2288
  451MOL0     C60786   3.289   9.918   8.128 -0.4171  0.9729  0.7652
  451MOL0     C60787   3.409   9.825   8.141  0.0556 -0.1878  0.8934
  451MOL0     C60788   3.528   9.902   8.196  0.3669  0.2869  0.0512
  451MOL0     C60789   3.641   9.800   8.224  0.3284 -0.0293  0.2453
  451MOL0     C60790   3.766   9.874   8.276 -0.5629 -0.6605 -0.2076
  451MOL0     C60791   3.877   9.778   8.342  0.0655 -0.0409  0.9400
  451MOL0     C60792   4.013   9.844   8.339 -0.4157  0.0668  0.1802
  451MOL0     C60793   4.032   9.978   8.406 -0.4479  0.6060  1.3785
  451MOL0    Cl60794   4.072   9.955   8.581  0.0510 -0.1831  0.3127
  451MOL0     C60795   2.947   9.853   8.005  0.6993  0.3421  0.5027
  451MOL0     C60796   2.840   9.926   7.958 -0.2254 -0.6699  0.6196
  451MOL0     O60797   2.693  10.040   7.735 -0.1561 -0.4415  0.5920
  451MOL0     C60798   2.484  10.299   7.858  0.2001  0.2956 -0.2568
  451MOL0     C60799   2.359  10.358   7.831  0.1126  0.2652  0.0369
  451MOL0     N60800   2.037  10.894   7.560  0.5364  0.3004 -0.4356
  451MOL0     N60801   1.932  10.948   7.505 -0.6231 -0.2919  0.5250
  451MOL0     C60802   0.561  10.936   7.741  0.4630 -0.3994  0.3004
  451MOL0     C60803   0.433  10.893   7.780 -0.9404 -0.2793  1.1631
  451MOL0     C60804   0.125  10.580   7.970  1.1859 -0.5711  0.0733
  451MOL0     C60805   0.027  10.685   7.983  0.2371  0.9913 -0.5158
  451MOL0     C60806  -0.092  10.661   8.053  0.0271  0.2979 -1.1515
  451MOL0     C60807  -0.116  10.531   8.107  0.7864 -0.8260  0.0451
  451MOL0     O60808  -0.238  10.510   8.178 -0.0932  0.2289 -0.2932
  451MOL0     C60809  -0.354  10.569   8.123 -0.5107 -0.0851  0.0294
  451MOL0     C60810  -0.473  10.498   8.190  0.8689 -0.4236  0.5658
  451MOL0     C60811  -0.610  10.544   8.127 -0.9649  0.9666 -0.1435
  451MOL0     C60812  -0.733  10.532   8.216 -0.4376 -0.1168  0.8222
  451MOL0     C60813  -0.851  10.564   8.140 -0.2544  0.3998  0.0529
  451MOL0     C60814  -0.953  10.593   8.074 -0.7131  1.0365 -0.5746
  451MOL0     C60815  -0.022  10.430   8.092 -0.0984  0.3587 -0.3335
  451MOL0     C60816   0.097  10.452   8.026  0.0553 -0.2766  0.3107
  451MOL0     C60817   0.198  10.341   8.019 -0.0340  0.2630  0.2539
  451MOL0     H60818   0.534  10.654   7.994  2.1498 -0.3180  0.0266
  451MOL0     H60819   0.742  10.741   7.944 -2.8099 -0.6373  1.2014
  451MOL0     H60820   0.945  10.888   7.875  1.9816  2.1096 -0.2812
  451MOL0     H60821   0.907  10.792   7.733  0.0281  0.8159 -2.0138
  451MOL0     H60822   1.006  11.082   7.707 -1.3515 -0.3361  1.6178
  451MOL0     H60823   0.987  10.959   7.576  2.7394 -2.5950 -0.7367
  451MOL0     H60824   1.177  10.844   7.640  1.4634 -0.8957  1.6406
  451MOL0     H60825   1.181  10.915   7.804 -1.4908 -0.4731  0.0073
  451MOL0     H60826   1.221  11.095   7.547 -1.4474  0.6810  0.9260
  451MOL0     H60827   1.238  11.132   7.716 -1.2279 -0.8070  1.2797
  451MOL0     H60828   1.409  11.003   7.748 -2.4989 -0.3078  0.7780
  451MOL0     H60829   1.402  10.922   7.585 -1.4428  0.8157 -1.8151
  451MOL0     H60830   1.483  11.092   7.462  0.1911 -2.6308  1.1970
  451MOL0     H60831   1.452  11.213   7.600  1.2465  0.5703 -1.0086
  451MOL0     H60832   1.627  11.085   7.729 -0.1264 -0.8392 -0.4652
  451MOL0     H60833   1.694  11.182   7.605  0.5760 -0.3463  0.3014
  451MOL0     H60834   1.625  10.884   7.583  0.1686 -0.4514 -0.0143
  451MOL0     H60835   1.682  10.984   7.450  0.8361 -0.8625 -0.2494
  451MOL0     H60836   1.816  10.879   7.803  0.7229  0.6373  1.1339
  451MOL0     H60837   2.201  10.831   7.787  0.3510  0.2027  2.5141
  451MOL0     H60838   2.086  10.902   7.887  2.0475 -0.5828  0.5568
  451MOL0     H60839   2.102  10.673   7.958  0.4389 -2.5100  0.2977
  451MOL0     H60840   1.954  10.675   7.838 -0.0087  2.4234 -0.6387
  451MOL0     H60841   2.228  10.595   7.755  0.3006  0.2577 -0.7406
  451MOL0     H60842   2.076  10.593   7.668 -3.7516  0.6581  1.0230
  451MOL0     H60843   1.976  10.417   7.784 -0.3604  2.7732 -1.4296
  451MOL0     H60844   2.110  10.400   7.907 -0.2743  0.6723  0.6623
  451MOL0     H60845   2.252  10.139   7.601  0.3507 -0.2827  1.0879
  451MOL0     H60846   2.464  10.036   7.645 -1.4011  1.2095 -0.8694
  451MOL0     H60847   2.930  10.235   8.055 -1.2859  0.6277 -0.4828
  451MOL0     H60848   3.137  10.115   8.105 -0.9570 -0.4201  1.8835
  451MOL0     H60849   3.324   9.997   8.062  0.2123  0.2094  0.1586
  451MOL0     H60850   3.265   9.945   8.231 -1.8946  0.9094  0.4563
  451MOL0     H60851   3.381   9.739   8.204 -1.2757 -0.9600 -0.6760
  451MOL0     H60852   3.438   9.781   8.045 -1.0782 -1.3263  1.0418
  451MOL0     H60853   3.557   9.969   8.115 -0.5713  0.1832 -0.3850
  451MOL0     H60854   3.497   9.956   8.286  0.7807  0.6216 -0.0051
  451MOL0     H60855   3.666   9.734   8.140  0.0447 -0.5719  0.5798
  451MOL0     H60856   3.595   9.734   8.298  3.5832 -2.9653 -0.1088
  451MOL0     H60857   3.737   9.959   8.338 -1.2415  0.3818 -1.8843
  451MOL0     H60858   3.818   9.919   8.191  0.5320 -3.1406 -0.9457
  451MOL0     H60859   3.851   9.753   8.446 -0.9262  0.1803  0.7557
  451MOL0     H60860   3.890   9.689   8.280 -0.0762  0.8871 -0.4603
  451MOL0     H60861   4.030   9.858   8.232 -1.6676  2.7629  0.2491
  451MOL0     H60862   4.090   9.778   8.381 -0.0032  0.8572  0.6839
  451MOL0     H60863   4.110  10.033   8.352  0.2721 -0.5921  1.1553
  451MOL0     H60864   3.939  10.034   8.392 -1.2772 -1.1768 -1.0077
  451MOL0     H60865   2.957   9.745   7.997  1.7450  0.2204  2.6134
  451MOL0     H60866   2.765   9.868   7.904 -0.9200  0.2263  0.5892
  451MOL0     H60867   2.554  10.341   7.929  1.3560  0.4477 -1.4405
  451MOL0     H60868   2.345  10.448   7.891 -0.7587  0.5464 -0.5743
  451MOL0     H60869   0.570  11.016   7.668 -1.3014 -1.2543 -0.9314
  451MOL0     H60870   0.337  10.934   7.750 -1.6755 -1.5794  1.6398
  451MOL0     H60871   0.040  10.786   7.945  2.7806  1.2993  0.9237
  451MOL0     H60872  -0.164  10.742   8.055  0.0013  0.3525  2.8978
  451MOL0     H60873  -0.365  10.556   8.014  0.2585  0.1082 -0.0766
  451MOL0     H60874  -0.354  10.672   8.159  2.0819 -0.4124  1.1241
  451MOL0     H60875  -0.470  10.534   8.293  0.1282  0.8956  0.1506
  451MOL0     H60876  -0.465  10.389   8.187  0.2206 -0.4923  1.1878
  451MOL0     H60877  -0.625  10.484   8.037  0.1839  1.8584 -0.9624
  451MOL0     H60878  -0.596  10.649   8.100  4.5739  0.6907  0.4102
  451MOL0     H60879  -0.729  10.436   8.268 -1.6979 -0.3070  0.5887
  451MOL0     H60880  -0.721  10.609   8.293  2.1054  0.9705 -0.5227
  451MOL0     H60881  -1.045  10.621   8.027 -0.7664  0.7571 -0.6432
  451MOL0     H60882  -0.047  10.331   8.129  0.9819 -1.0096 -2.9860
  451MOL0     H60883   0.227  10.322   7.916  0.6727  0.7417  0.3531
  451MOL0     H60884   0.288  10.375   8.072  0.1105  1.6135 -0.8056
  451MOL0     H60885   0.158  10.248   8.060  0.1342  0.0656 -0.0285
  452MOL0     O60886  10.601   7.096   7.906  0.5875  0.6757  0.1343
  452MOL0     C60887  10.601   7.102   8.030  0.1761  0.8134  0.3250
  452MOL0     O60888  10.709   7.109   8.117 -0.2689 -0.6952  0.4245
  452MOL0     C60889  10.839   7.083   8.067 -0.1217 -0.7861 -0.3588
  452MOL0     C60890  10.880   6.991   7.968  0.2282  0.3051 -0.4201
  452MOL0     C60891  11.014   6.966   7.936 -0.3952 -0.7147 -0.0540
  452MOL0     C60892  11.119   7.028   7.999 -0.9768 -0.0213 -0.6955
  452MOL0     O60893  11.250   7.007   7.963 -0.6877 -0.0249  0.2504
  452MOL0     C60894  11.355   6.999   8.060 -0.9254  0.7022 -1.0608
  452MOL0     C60895  11.484   6.938   7.986 -0.1204 -0.0836  0.2722
  452MOL0     C60896  11.546   6.832   8.081 -0.2397 -0.4596 -0.8536
  452MOL0     C60897  11.652   6.748   8.011  0.6343 -0.6591 -0.0720
  452MOL0     C60898  11.718   6.650   8.110  0.0096  0.4241  0.2430
  452MOL0     C60899  11.820   6.559   8.036  0.0327 -0.0333 -1.1656
  452MOL0     C60900  11.748   6.447   7.962 -0.1448 -0.5378  0.5581
  452MOL0     C60901  11.820   6.353   7.857 -0.9668  1.0159 -0.2754
  452MOL0     N60902  11.722   6.262   7.802 -0.1176  0.0053  0.3048
  452MOL0     C60903  11.662   6.156   7.849 -0.3630  0.1751  0.4768
  452MOL0     C60904  11.584   6.100   7.749  0.2311 -0.7629 -0.2785
  452MOL0     C60905  11.516   5.976   7.751 -0.1126  1.0120  0.6023
  452MOL0     C60906  11.364   5.971   7.765  0.8298  0.5177  0.2410
  452MOL0     C60907  11.300   6.040   7.882 -0.0737 -0.0917  0.4115
  452MOL0     C60908  11.145   6.041   7.859 -0.0535 -0.0292  0.1197
  452MOL0     O60909  11.072   6.114   7.955 -0.6656  0.5212 -0.0214
  452MOL0     C60910  11.038   6.055   8.074  0.3603 -0.4129  0.2136
  452MOL0     C60911  11.049   5.916   8.103 -0.7727  0.7684  0.3757
  452MOL0     C60912  10.996   5.870   8.228 -0.0859  0.2555  0.4876
  452MOL0     C60913  10.929   5.954   8.320 -0.1086 -0.6233 -0.0667
  452MOL0     C60914  10.870   5.903   8.440  0.9680  1.2155 -0.4381
  452MOL0     O60915  10.877   5.766   8.463 -0.7867  0.0406 -0.6674
  452MOL0     C60916  10.813   5.697   8.562 -0.2194  0.0295  0.0631
  452MOL0     C60917  10.803   5.560   8.547 -0.7485 -0.8727  0.0340
  452MOL0     C60918  10.738   5.476   8.640 -0.0441  1.1526  0.6730
  452MOL0     C60919  10.693   5.530   8.757  0.7492 -0.6926 -0.0336
  452MOL0     O60920  10.646   5.439   8.850  0.1390 -0.0747 -0.1753
  452MOL0     C60921  10.693   5.468   8.985  0.5538  0.0694  0.2914
  452MOL0     C60922  10.653   5.356   9.073  0.1001 -0.0482 -0.8445
  452MOL0     C60923  10.710   5.220   9.030  0.0824 -0.1547  0.1864
  452MOL0     C60924  10.606   5.113   9.011 -0.0781  0.4627 -0.0899
  452MOL0     C60925  10.672   4.978   8.994  0.3545  1.1584 -0.2397
  452MOL0     C60926  10.579   4.857   8.998  0.3925 -0.7512  0.0554
  452MOL0     C60927  10.470   4.870   8.891  0.3509 -0.6436  0.2148
  452MOL0     C60928  10.402   4.741   8.879 -0.0218 -0.1689 -0.4349
  452MOL0    Cl60929  10.238   4.755   8.807 -0.0204 -0.4141 -0.4306
  452MOL0     C60930  10.708   5.666   8.779  0.0209  0.9654 -0.7277
  452MOL0     C60931  10.764   5.753   8.685 -0.3963 -0.4072  0.4037
  452MOL0     O60932  10.804   5.982   8.502  0.4198  0.7951 -0.8058
  452MOL0     C60933  10.920   6.089   8.290 -0.5595  0.6941  1.1013
  452MOL0     C60934  10.972   6.144   8.161 -0.5988  0.3017 -0.9393
  452MOL0     N60935  11.605   6.184   7.642  0.7174 -0.0791  0.3667
  452MOL0     N60936  11.677   6.289   7.676  0.4142 -0.2185 -0.1661
  452MOL0     C60937  11.082   7.120   8.104  0.1868 -0.8611  0.1087
  452MOL0     C60938  10.944   7.145   8.128 -0.1663 -0.4648 -0.2473
  452MOL0     C60939  10.470   7.128   8.086 -0.6214  0.0595  0.6385
  452MOL0     C60940  10.458   7.203   8.209 -0.3137  0.2261  0.1278
  452MOL0     C60941  10.332   7.218   8.263 -0.1424 -0.3160 -0.3705
  452MOL0     C60942  10.216   7.178   8.202 -0.1551 -0.8536 -0.5987
  452MOL0     O60943  10.099   7.217   8.261  0.1141 -0.2937 -0.4291
  452MOL0     C60944  10.050   7.351   8.216  0.2648 -0.7281 -0.9910
  452MOL0     C60945   9.899   7.373   8.258  0.2682 -0.2878  0.8615
  452MOL0     C60946   9.820   7.248   8.219  0.1391 -0.3636  0.3748
  452MOL0     C60947   9.668   7.261   8.232 -0.6457 -0.3398 -0.6898
  452MOL0     C60948   9.621   7.300   8.365 -0.4592  0.0537 -0.7748
  452MOL0     C60949   9.583   7.329   8.476 -0.1014 -0.1428  0.1500
  452MOL0     C60950  10.224   7.119   8.084 -0.1024 -0.2016  0.4391
  452MOL0     C60951  10.348   7.083   8.024 -1.1434  0.3199  0.6867
  452MOL0     C60952  10.340   6.986   7.904  0.5888 -0.3145 -0.4496
  452MOL0     H60953  10.808   6.941   7.904 -1.0178  0.8862  0.4862
  452MOL0     H60954  11.038   6.896   7.856 -3.0741 -1.4529 -0.3118
  452MOL0     H60955  11.369   7.096   8.108 -0.4396  1.1251 -2.0380
  452MOL0     H60956  11.323   6.920   8.129  0.3772  0.9444 -0.1439
  452MOL0     H60957  11.558   7.014   7.959  0.4340 -1.2989 -1.8996
  452MOL0     H60958  11.448   6.892   7.893 -2.3495  2.0840 -0.0703
  452MOL0     H60959  11.471   6.763   8.121  0.0558 -0.5609 -0.4666
  452MOL0     H60960  11.590   6.893   8.160  0.7762  3.2406 -3.9663
  452MOL0     H60961  11.607   6.691   7.929 -1.6936  1.8250 -0.6701
  452MOL0     H60962  11.729   6.810   7.965  3.3806 -2.8104  1.3079
  452MOL0     H60963  11.766   6.699   8.195  1.8643 -1.6345  0.4652
  452MOL0     H60964  11.655   6.580   8.165  1.9086 -0.9841  0.6931
  452MOL0     H60965  11.873   6.622   7.964 -1.2595  3.2276  0.5321
  452MOL0     H60966  11.888   6.529   8.116 -0.5708  1.5781  0.0130
  452MOL0     H60967  11.670   6.500   7.906  2.3084  2.1959 -0.4669
  452MOL0     H60968  11.690   6.381   8.028 -0.3144 -1.0396 -0.0786
  452MOL0     H60969  11.869   6.413   7.780  0.4327 -0.0444 -0.2437
  452MOL0     H60970  11.891   6.291   7.912 -1.4680  1.7780  1.3229
  452MOL0     H60971  11.695   6.108   7.941 -0.6772 -4.1645 -1.4202
  452MOL0     H60972  11.547   5.919   7.662  1.5162 -1.3237  2.5445
  452MOL0     H60973  11.564   5.917   7.830  2.3949 -0.7546 -2.0178
  452MOL0     H60974  11.332   6.021   7.674  1.0800 -0.1982 -0.2447
  452MOL0     H60975  11.330   5.867   7.770 -0.6288  1.0069  1.3188
  452MOL0     H60976  11.343   6.141   7.875  0.2976 -0.3374 -1.6949
  452MOL0     H60977  11.318   6.006   7.984  0.4410  3.1501  1.5366
  452MOL0     H60978  11.103   5.940   7.854 -2.3273  0.7036  2.5724
  452MOL0     H60979  11.135   6.094   7.764 -0.6745  3.1549  1.8292
  452MOL0     H60980  11.093   5.845   8.033  0.6859 -0.2546  2.2401
  452MOL0     H60981  11.019   5.764   8.242 -1.6990  0.0852  2.2340
  452MOL0     H60982  10.856   5.512   8.465 -1.5130  1.5075 -1.9910
  452MOL0     H60983  10.739   5.371   8.614 -0.1063  1.3256 -0.0618
  452MOL0     H60984  10.797   5.500   8.994 -0.2050  3.0781 -0.5388
  452MOL0     H60985  10.639   5.556   9.023 -0.5691 -0.5264  0.1128
  452MOL0     H60986  10.684   5.376   9.176  0.3025  1.1498 -1.1324
  452MOL0     H60987  10.544   5.351   9.067  0.0161  0.2078  0.2470
  452MOL0     H60988  10.771   5.225   8.940 -2.3647  2.1210 -1.4876
  452MOL0     H60989  10.771   5.191   9.117  0.7031  0.2792 -0.0995
  452MOL0     H60990  10.545   5.151   8.929  0.7466  0.8907 -0.5087
  452MOL0     H60991  10.545   5.104   9.102 -0.2088  0.1315 -0.2066
  452MOL0     H60992  10.749   4.961   9.070  0.4175 -2.5645 -0.9479
  452MOL0     H60993  10.719   4.974   8.895  0.7916 -0.0263 -0.0073
  452MOL0     H60994  10.634   4.765   8.974 -0.1514 -0.5991 -1.9151
  452MOL0     H60995  10.534   4.848   9.098  0.0863  0.0955 -0.0047
  452MOL0     H60996  10.513   4.903   8.796  0.0988 -0.3168  0.2168
  452MOL0     H60997  10.403   4.951   8.919  2.1260  1.3159 -0.9114
  452MOL0     H60998  10.463   4.672   8.821  0.6110 -1.2393  1.4329
  452MOL0     H60999  10.384   4.696   8.977 -2.1545  0.1373 -0.6203
  452MOL0     H61000  10.677   5.705   8.876  1.7473  0.7864 -0.0595
  452MOL0     H61001  10.790   5.858   8.697  3.5173 -1.2477  0.5071
  452MOL0     H61002  10.866   6.159   8.353  0.8265  1.4430  1.4745
  452MOL0     H61003  10.951   6.243   8.121  1.2186  0.4879 -1.5338
  452MOL0     H61004  11.151   7.173   8.169 -0.4220  0.0806  0.0103
  452MOL0     H61005  10.918   7.208   8.213  0.6802  1.0545 -1.0861
  452MOL0     H61006  10.548   7.229   8.263  0.1107 -0.0113 -0.4443
  452MOL0     H61007  10.325   7.285   8.349 -0.2217 -2.0317  1.0080
  452MOL0     H61008  10.045   7.365   8.108  2.6012  1.9769 -0.8926
  452MOL0     H61009  10.105   7.437   8.256 -1.6477 -0.3687  1.1168
  452MOL0     H61010   9.853   7.463   8.216 -1.4390 -0.9993  1.1413
  452MOL0     H61011   9.888   7.395   8.365 -1.9299  4.0547 -0.0454
  452MOL0     H61012   9.849   7.165   8.285 -0.4345 -1.1266 -0.3053
  452MOL0     H61013   9.843   7.214   8.117 -0.3627 -2.0483  0.7752
  452MOL0     H61014   9.639   7.345   8.168 -1.3354 -0.1745 -0.1703
  452MOL0     H61015   9.625   7.170   8.188  1.1820 -1.0941 -1.0420
  452MOL0     H61016   9.552   7.340   8.579  1.1545  1.2609  0.4143
  452MOL0     H61017  10.133   7.091   8.033  0.7532  1.2438 -2.0457
  452MOL0     H61018  10.343   7.051   7.816  1.1235  1.5287  0.8658
  452MOL0     H61019  10.415   6.907   7.894  2.6940  1.7888 -2.6807
  452MOL0     H61020  10.246   6.930   7.897  0.1721  0.5038 -1.8862
  453MOL0     O61021  10.900   1.215   7.965 -0.2817 -0.4726  0.3242
  453MOL0     C61022  10.886   1.142   7.867 -0.4345 -0.2407  0.1239
  453MOL0     O61023  10.991   1.095   7.794 -0.1757 -0.5931 -0.3110
  453MOL0     C61024  11.110   1.089   7.860 -1.3768 -0.1768  0.3795
  453MOL0     C61025  11.190   1.193   7.828  0.0627  0.0401 -0.5697
  453MOL0     C61026  11.323   1.203   7.875  0.3649 -0.3761  0.8328
  453MOL0     C61027  11.379   1.096   7.951  0.5639 -1.0142  0.1033
  453MOL0     O61028  11.513   1.099   7.988 -0.9654  0.0669 -0.0057
  453MOL0     C61029  11.593   1.215   7.961 -0.3120  0.4351 -0.1247
  453MOL0     C61030  11.729   1.199   8.023  0.0876 -0.2338  0.6995
  453MOL0     C61031  11.723   1.198   8.177  0.3632 -0.5883 -0.3535
  453MOL0     C61032  11.862   1.155   8.239  1.3748  0.4113 -0.5633
  453MOL0     C61033  11.863   1.145   8.397  0.6451 -0.7634  0.4216
  453MOL0     C61034  12.004   1.134   8.459  0.8892  0.8666 -0.2334
  453MOL0     C61035  12.004   1.092   8.602 -0.0381  0.0005  0.5372
  453MOL0     C61036  12.137   1.036   8.652 -0.0038  0.0288 -0.9647
  453MOL0     N61037  12.262   1.119   8.627  0.5835  0.4792 -0.3943
  453MOL0     C61038  12.263   1.252   8.605 -0.9976  0.8018  0.4806
  453MOL0     C61039  12.383   1.269   8.537 -0.3384  0.5576 -0.0080
  453MOL0     C61040  12.426   1.386   8.459 -0.5547 -0.0157 -0.3001
  453MOL0     C61041  12.580   1.411   8.448 -0.7291  0.8450 -0.2474
  453MOL0     C61042  12.658   1.350   8.328  0.4334  0.3796 -0.0714
  453MOL0     C61043  12.652   1.203   8.325 -1.0046  0.6769 -1.1981
  453MOL0     O61044  12.738   1.157   8.221  0.1528 -0.6376 -0.5638
  453MOL0     C61045  12.866   1.117   8.238 -0.9310 -0.6554  0.0694
  453MOL0     C61046  12.931   1.081   8.352 -0.5567  0.5309 -0.4648
  453MOL0     C61047  13.066   1.062   8.357  0.3836 -0.3243 -0.6382
  453MOL0     C61048  13.148   1.067   8.241  0.3268  0.4223  1.2341
  453MOL0     C61049  13.289   1.034   8.246  0.4434  0.3084 -0.3582
  453MOL0     O61050  13.358   1.063   8.130  0.1654  0.2330  1.2786
  453MOL0     C61051  13.478   1.010   8.102 -0.2001  0.5076  0.2064
  453MOL0     C61052  13.591   1.017   8.185  0.4122  0.8376  0.3762
  453MOL0     C61053  13.707   0.942   8.162 -0.6879 -0.3520  0.0902
  453MOL0     C61054  13.700   0.857   8.054 -0.4961  0.3328  0.5875
  453MOL0     O61055  13.795   0.752   8.043 -0.2250  0.6369  0.4272
  453MOL0     C61056  13.881   0.729   8.154 -0.5379 -1.0404 -0.4444
  453MOL0     C61057  13.924   0.581   8.141 -0.6789 -0.3520  0.3602
  453MOL0     C61058  14.050   0.547   8.220  0.5550 -0.4830 -0.4203
  453MOL0     C61059  14.108   0.425   8.160 -0.5748  0.0657  0.4043
  453MOL0     C61060  14.243   0.395   8.233 -0.1152  0.5160 -0.0082
  453MOL0     C61061  14.367   0.479   8.194  0.4455  0.1801 -0.2951
  453MOL0     C61062  14.489   0.449   8.274 -0.1585 -0.2958 -0.0485
  453MOL0     C61063  14.619   0.502   8.193 -0.2794 -0.8310 -0.7739
  453MOL0    Cl61064  14.631   0.402   8.041  0.4384 -0.0441  0.3087
  453MOL0     C61065  13.594   0.856   7.962 -0.2176 -0.5945 -0.5237
  453MOL0     C61066  13.482   0.939   7.981  0.3192 -0.7500 -0.4581
  453MOL0     O61067  13.326   0.978   8.344  0.0147  0.5993 -0.6136
  453MOL0     C61068  13.073   1.100   8.120  0.3324 -0.0894  0.5833
  453MOL0     C61069  12.935   1.126   8.118 -0.0099 -0.2361  0.5289
  453MOL0     N61070  12.456   1.149   8.546 -0.1137  0.3636  0.3266
  453MOL0     N61071  12.388   1.067   8.612  0.2698  0.3161 -0.4680
  453MOL0     C61072  11.290   0.989   7.980 -0.4158 -0.0104  0.4548
  453MOL0     C61073  11.149   0.982   7.951  0.4020 -0.4448 -0.1641
  453MOL0     C61074  10.752   1.129   7.807 -0.4782  0.3426 -0.2657
  453MOL0     C61075  10.738   1.067   7.679  0.2976 -0.2231 -0.1234
  453MOL0     C61076  10.608   1.050   7.622 -0.2508  0.3020  0.0968
  453MOL0     C61077  10.496   1.107   7.686  0.9127 -0.0164 -0.0516
  453MOL0     O61078  10.385   1.078   7.622  0.2016 -0.4127  0.3448
  453MOL0     C61079  10.261   1.087   7.688 -0.1073 -0.4789 -0.5386
  453MOL0     C61080  10.162   1.018   7.592  0.7763 -0.3972 -0.2042
  453MOL0     C61081  10.206   0.875   7.557  0.0111 -0.6891 -0.2032
  453MOL0     C61082  10.113   0.812   7.462 -0.1685  0.0347 -0.5214
  453MOL0     C61083   9.981   0.789   7.514  0.2990  0.4468  1.6621
  453MOL0     C61084   9.867   0.761   7.555 -0.2472 -0.0177 -0.2137
  453MOL0     C61085  10.506   1.169   7.812 -0.2910  0.3999  0.3348
  453MOL0     C61086  10.635   1.177   7.873  0.2210 -0.5936  0.0441
  453MOL0     C61087  10.625   1.233   8.016  0.1893  0.3524  0.3006
  453MOL0     H61088  11.136   1.267   7.770  0.0516  0.5801  0.1203
  453MOL0     H61089  11.382   1.282   7.830  0.7259 -0.8769  0.4151
  453MOL0     H61090  11.609   1.228   7.854  0.3214  1.5502  0.0898
  453MOL0     H61091  11.541   1.305   7.995  0.8125  1.2138 -0.4058
  453MOL0     H61092  11.805   1.272   7.992 -0.5456  1.0204  1.9610
  453MOL0     H61093  11.757   1.097   7.997 -3.9038 -1.3130 -0.0826
  453MOL0     H61094  11.650   1.125   8.214  1.0306 -2.0531 -1.7994
  453MOL0     H61095  11.683   1.291   8.216  0.3085 -0.4822 -0.6614
  453MOL0     H61096  11.888   1.055   8.204  0.3538 -0.1855  0.3363
  453MOL0     H61097  11.938   1.230   8.215 -0.0652  1.8859 -0.6521
  453MOL0     H61098  11.801   1.223   8.440  0.5122 -0.5612 -0.1266
  453MOL0     H61099  11.812   1.050   8.416  1.1084 -1.0669  0.1835
  453MOL0     H61100  12.052   1.067   8.387  0.4646  3.1656 -2.8406
  453MOL0     H61101  12.061   1.225   8.444 -0.2913  1.2701 -2.9126
  453MOL0     H61102  11.923   1.022   8.623  0.9144 -1.0244  0.8943
  453MOL0     H61103  11.976   1.183   8.655 -0.9501 -0.2655  0.5215
  453MOL0     H61104  12.136   1.015   8.760  1.3687  0.8882 -0.7565
  453MOL0     H61105  12.155   0.942   8.601  1.1847  0.4922 -1.4198
  453MOL0     H61106  12.181   1.322   8.619  0.8269  3.5278 -1.6132
  453MOL0     H61107  12.379   1.387   8.361 -3.6085 -0.8450  1.0547
  453MOL0     H61108  12.387   1.475   8.510 -0.0849  0.2621 -0.4151
  453MOL0     H61109  12.598   1.518   8.437 -1.9253  1.0745 -0.1267
  453MOL0     H61110  12.628   1.381   8.542 -1.7468  0.4238  0.1576
  453MOL0     H61111  12.766   1.364   8.340  0.4207 -0.6149  1.4065
  453MOL0     H61112  12.624   1.394   8.234  1.6983 -0.9262 -1.1936
  453MOL0     H61113  12.555   1.152   8.315 -1.0289  0.6029 -0.6440
  453MOL0     H61114  12.691   1.164   8.420  0.9406  3.2695 -0.8420
  453MOL0     H61115  12.875   1.069   8.444  0.4443 -0.2171  0.0711
  453MOL0     H61116  13.108   1.036   8.454 -0.0279  0.0022 -0.3672
  453MOL0     H61117  13.592   1.075   8.277  2.2784  0.8595  0.3643
  453MOL0     H61118  13.787   0.943   8.236 -0.2394 -1.4697 -0.3614
  453MOL0     H61119  13.968   0.795   8.148 -0.1973 -1.5680 -1.5069
  453MOL0     H61120  13.833   0.743   8.252  2.6611  0.6058  1.0475
  453MOL0     H61121  13.836   0.520   8.164 -0.7565 -0.8002 -1.0388
  453MOL0     H61122  13.940   0.548   8.038  2.9635 -2.0551  1.3110
  453MOL0     H61123  14.122   0.629   8.229 -0.2538  0.0913  1.2793
  453MOL0     H61124  14.019   0.535   8.324  1.4373 -0.1637 -0.1071
  453MOL0     H61125  14.125   0.433   8.052 -0.2096  1.7458  0.5580
  453MOL0     H61126  14.042   0.340   8.176  0.0505 -0.1882  1.8331
  453MOL0     H61127  14.268   0.293   8.202 -0.6263  0.7084 -1.1159
  453MOL0     H61128  14.244   0.404   8.342  2.2369  2.7079 -0.0947
  453MOL0     H61129  14.373   0.458   8.087 -2.9235 -0.9608 -0.3822
  453MOL0     H61130  14.349   0.586   8.207  0.0031 -0.1446  2.5257
  453MOL0     H61131  14.507   0.342   8.286  1.3166 -0.1595 -0.7136
  453MOL0     H61132  14.469   0.485   8.375 -0.4520  3.5242 -1.2678
  453MOL0     H61133  14.597   0.604   8.161 -0.2271 -0.4972  0.1939
  453MOL0     H61134  14.704   0.479   8.257 -0.2364 -1.8392 -1.1788
  453MOL0     H61135  13.606   0.792   7.875 -2.4466 -0.6115 -0.8757
  453MOL0     H61136  13.404   0.949   7.906 -0.3177  4.4815  0.5029
  453MOL0     H61137  13.120   1.094   8.022  0.6833  1.4875  0.6443
  453MOL0     H61138  12.879   1.148   8.028  0.6429  0.1769  0.2149
  453MOL0     H61139  11.320   0.893   8.023 -3.8548 -0.9631  1.0438
  453MOL0     H61140  11.086   0.894   7.951 -0.8913  0.3761 -2.5815
  453MOL0     H61141  10.818   1.027   7.618 -0.6442 -1.6509 -0.4752
  453MOL0     H61142  10.599   0.993   7.530  2.8217 -1.3773  0.6820
  453MOL0     H61143  10.234   1.191   7.707  1.1548 -0.6293  2.9369
  453MOL0     H61144  10.275   1.027   7.779 -0.0424  1.5539  0.8541
  453MOL0     H61145  10.161   1.074   7.498  0.9761  0.7049  0.4295
  453MOL0     H61146  10.065   1.016   7.643  1.3002 -1.7718  0.8066
  453MOL0     H61147  10.204   0.823   7.653 -0.3308 -0.9773 -0.3663
  453MOL0     H61148  10.306   0.873   7.512  0.6358 -0.4613  1.1344
  453MOL0     H61149  10.106   0.879   7.376  3.2444  0.1648 -0.8413
  453MOL0     H61150  10.156   0.715   7.435  0.9010  0.6140 -0.9805
  453MOL0     H61151   9.772   0.737   7.598 -0.2621 -2.4895 -1.4569
  453MOL0     H61152  10.422   1.211   7.868 -1.4524 -1.8027  0.3660
  453MOL0     H61153  10.661   1.156   8.085  2.2691  1.5034  0.6082
  453MOL0     H61154  10.689   1.322   8.014  0.9003 -0.1623 -0.8076
  453MOL0     H61155  10.528   1.266   8.054  0.3384  0.5971  0.4828
  454MOL0     O61156   7.343   0.126   5.089 -0.0801  0.7418  0.1131
  454MOL0     C61157   7.301   0.243   5.094 -0.8899 -0.0236 -0.3600
  454MOL0     O61158   7.378   0.349   5.129  0.6852  0.0189  0.4267
  454MOL0     C61159   7.510   0.312   5.160  0.4462 -0.3249 -0.2715
  454MOL0     C61160   7.600   0.259   5.074 -0.5673  0.5187 -0.4026
  454MOL0     C61161   7.732   0.224   5.115 -0.1403 -0.0319 -0.0197
  454MOL0     C61162   7.776   0.237   5.244  0.3353  0.5534  0.1684
  454MOL0     O61163   7.910   0.198   5.273 -0.0035 -0.0734  0.2803
  454MOL0     C61164   7.985   0.279   5.369 -0.8549  0.3380 -0.0744
  454MOL0     C61165   8.137   0.233   5.384  0.7383  0.8435  0.9211
  454MOL0     C61166   8.214   0.338   5.459  0.0881  0.3050  0.0731
  454MOL0     C61167   8.369   0.316   5.431 -0.4037 -0.2529  0.1403
  454MOL0     C61168   8.463   0.425   5.484 -0.3068  0.3807 -0.1173
  454MOL0     C61169   8.601   0.399   5.436 -0.1252 -0.7116  0.3758
  454MOL0     C61170   8.699   0.516   5.429 -0.9398  0.4565 -0.1389
  454MOL0     C61171   8.695   0.600   5.557  0.0022 -1.0624 -0.6375
  454MOL0     N61172   8.787   0.713   5.520  0.2634 -0.1739  0.2919
  454MOL0     C61173   8.923   0.710   5.487 -0.2740  0.1846  0.5007
  454MOL0     C61174   8.936   0.801   5.389 -0.1406  0.0548 -0.2226
  454MOL0     C61175   9.042   0.820   5.294  0.1123 -0.9214 -0.0464
  454MOL0     C61176   9.189   0.813   5.345 -0.3372  0.6119 -0.1517
  454MOL0     C61177   9.290   0.813   5.231  0.7880  0.3188  0.9629
  454MOL0     C61178   9.429   0.811   5.295 -0.2807 -0.5334 -0.1516
  454MOL0     O61179   9.462   0.926   5.360 -0.5989 -0.2632  0.3314
  454MOL0     C61180   9.593   0.943   5.407  0.0936 -0.1377 -0.7581
  454MOL0     C61181   9.696   0.842   5.414 -0.0588  0.5294  0.6563
  454MOL0     C61182   9.827   0.879   5.447  0.2187 -0.3328 -1.1375
  454MOL0     C61183   9.861   1.014   5.479 -0.2623 -1.1475  0.2712
  454MOL0     C61184  10.005   1.055   5.485 -0.1199 -1.5317 -0.0108
  454MOL0     O61185  10.085   0.953   5.506 -0.5397 -0.4763 -0.1532
  454MOL0     C61186  10.227   0.959   5.505  0.0104  0.5524  0.3723
  454MOL0     C61187  10.283   0.833   5.536 -0.1818 -1.0705  0.3105
  454MOL0     C61188  10.425   0.816   5.529  0.5409  0.3999  0.6353
  454MOL0     C61189  10.506   0.928   5.497 -0.0109  1.1789  0.0570
  454MOL0     O61190  10.644   0.916   5.500  1.0035 -0.4649  0.1563
  454MOL0     C61191  10.709   0.796   5.464  0.4051 -0.2536 -0.1336
  454MOL0     C61192  10.845   0.764   5.536 -0.7721  0.7996 -0.5381
  454MOL0     C61193  10.816   0.697   5.670 -0.7356  0.2753  0.1673
  454MOL0     C61194  10.942   0.703   5.762 -0.9600  0.0320 -1.0278
  454MOL0     C61195  10.939   0.624   5.896  0.2676 -0.4340 -0.4700
  454MOL0     C61196  10.806   0.644   5.967 -0.1321 -0.1935  0.5250
  454MOL0     C61197  10.761   0.782   6.018  0.2821 -0.1789  0.1994
  454MOL0     C61198  10.628   0.771   6.093  0.1822  0.0978 -0.0757
  454MOL0    Cl61199  10.483   0.755   5.992 -0.3319  0.4662 -0.5601
  454MOL0     C61200  10.451   1.048   5.452 -0.0944  0.1500  0.1296
  454MOL0     C61201  10.314   1.065   5.461  0.3287  0.5978 -0.0345
  454MOL0     O61202  10.034   1.171   5.455  0.0773 -0.1781 -0.5510
  454MOL0     C61203   9.762   1.114   5.469 -0.5825  0.0459  0.9193
  454MOL0     C61204   9.632   1.078   5.436  0.0611 -0.3546  0.4485
  454MOL0     N61205   8.818   0.869   5.373  1.0823  0.2363  0.7764
  454MOL0     N61206   8.734   0.814   5.446 -0.3365  0.4955 -0.0899
  454MOL0     C61207   7.684   0.295   5.335  0.6219  1.0442 -0.3115
  454MOL0     C61208   7.555   0.338   5.291 -0.5883 -0.0169  0.1484
  454MOL0     C61209   7.154   0.269   5.076 -0.8735 -0.2195  0.2945
  454MOL0     C61210   7.085   0.168   5.004 -0.8732 -0.1085  0.0077
  454MOL0     C61211   6.954   0.171   4.981  0.1235  0.5875 -0.4539
  454MOL0     C61212   6.879   0.280   5.029  0.2553 -0.6818  1.0781
  454MOL0     O61213   6.746   0.315   4.991  0.4390  0.3902 -0.6146
  454MOL0     C61214   6.673   0.223   4.917  0.7682 -0.6659  0.5003
  454MOL0     C61215   6.529   0.266   4.902 -1.1090 -0.7438  0.3406
  454MOL0     C61216   6.519   0.373   4.797 -0.5605 -1.3812 -0.4446
  454MOL0     C61217   6.372   0.422   4.783 -0.7609 -0.3697  0.4834
  454MOL0     C61218   6.267   0.323   4.755 -0.3613 -0.0835  0.0678
  454MOL0     C61219   6.183   0.256   4.696  0.1832 -0.0679  0.7995
  454MOL0     C61220   6.942   0.375   5.108  0.0469 -0.3962  0.6026
  454MOL0     C61221   7.079   0.376   5.131 -0.4331 -0.2943 -0.6040
  454MOL0     C61222   7.140   0.488   5.210  0.7187 -0.3629  0.0928
  454MOL0     H61223   7.551   0.242   4.979  0.8837  1.5554 -1.3888
  454MOL0     H61224   7.798   0.199   5.032 -2.0504 -0.3783 -1.4987
  454MOL0     H61225   7.986   0.383   5.336 -0.5295  0.6753  0.9502
  454MOL0     H61226   7.948   0.278   5.472  0.4684 -0.6504  0.4337
  454MOL0     H61227   8.187   0.217   5.288  2.1815 -0.0492  1.7847
  454MOL0     H61228   8.139   0.138   5.437 -3.3089 -0.2566 -0.5427
  454MOL0     H61229   8.196   0.333   5.567  0.8207  2.9300  0.3929
  454MOL0     H61230   8.184   0.437   5.426 -1.7304 -0.5608 -0.9987
  454MOL0     H61231   8.398   0.221   5.477  1.8440  0.6707  0.7203
  454MOL0     H61232   8.388   0.309   5.323  0.4346  1.7853  0.1148
  454MOL0     H61233   8.431   0.520   5.442 -1.2608 -0.9315 -2.5615
  454MOL0     H61234   8.460   0.434   5.593 -0.9372 -2.2804  0.1474
  454MOL0     H61235   8.646   0.315   5.492  0.1326  0.6431  2.2832
  454MOL0     H61236   8.608   0.380   5.328  1.8954  0.3207  0.2743
  454MOL0     H61237   8.683   0.582   5.343 -2.1575  0.5279  0.1198
  454MOL0     H61238   8.800   0.476   5.418 -0.6685  1.5117 -1.7095
  454MOL0     H61239   8.597   0.647   5.566  0.9920  0.9682  0.0038
  454MOL0     H61240   8.733   0.549   5.646 -2.9683 -0.3827  1.1417
  454MOL0     H61241   8.993   0.632   5.513  1.0341  1.9199  2.5262
  454MOL0     H61242   9.022   0.753   5.210 -1.2881 -1.8973  1.0318
  454MOL0     H61243   9.031   0.923   5.259  0.4094 -1.0363 -0.4912
  454MOL0     H61244   9.209   0.895   5.414  1.3787  1.9915 -2.1429
  454MOL0     H61245   9.201   0.723   5.405  2.0010  0.2435 -1.0355
  454MOL0     H61246   9.272   0.898   5.165 -0.0167  0.2980  1.1448
  454MOL0     H61247   9.275   0.721   5.173 -1.6779  1.9629 -1.2290
  454MOL0     H61248   9.499   0.778   5.217 -0.1839 -0.9551  0.1102
  454MOL0     H61249   9.434   0.735   5.373 -1.2807 -1.3053 -0.8171
  454MOL0     H61250   9.667   0.737   5.404  2.3136 -0.0291 -1.7197
  454MOL0     H61251   9.903   0.804   5.471 -0.0495 -0.4966 -0.7777
  454MOL0     H61252  10.216   0.753   5.566 -0.9343 -0.5386  0.0875
  454MOL0     H61253  10.445   0.712   5.553 -0.6669 -0.0382 -0.1503
  454MOL0     H61254  10.643   0.709   5.475  0.3418 -0.3858 -1.4707
  454MOL0     H61255  10.736   0.801   5.358  4.0941  1.3556  0.7008
  454MOL0     H61256  10.900   0.696   5.470 -2.8407 -0.1183 -1.3817
  454MOL0     H61257  10.906   0.855   5.547 -0.0352  0.0566  2.1625
  454MOL0     H61258  10.730   0.743   5.720 -1.6957 -0.9801 -0.2748
  454MOL0     H61259  10.797   0.590   5.657  1.0458  0.0659 -1.0880
  454MOL0     H61260  10.957   0.808   5.787 -0.9311  0.0707 -1.2068
  454MOL0     H61261  11.031   0.667   5.709 -0.7393 -0.8794 -0.0752
  454MOL0     H61262  11.023   0.643   5.964 -0.1296  3.2157 -0.8009
  454MOL0     H61263  10.939   0.518   5.871 -0.6558 -0.6184  0.2536
  454MOL0     H61264  10.732   0.608   5.896 -1.5979  0.5610  1.6194
  454MOL0     H61265  10.802   0.577   6.053 -1.7622 -0.9333 -0.0840
  454MOL0     H61266  10.758   0.864   5.945 -3.9791  1.4942  1.9346
  454MOL0     H61267  10.828   0.806   6.102  0.2597 -0.4827  0.3028
  454MOL0     H61268  10.622   0.690   6.165  0.1433  0.0309 -0.1535
  454MOL0     H61269  10.616   0.863   6.152  3.2281  0.1804  0.6274
  454MOL0     H61270  10.515   1.129   5.417  0.6216  0.2458  1.5635
  454MOL0     H61271  10.269   1.160   5.434 -1.2978 -0.4873 -1.3601
  454MOL0     H61272   9.786   1.218   5.488 -0.3132  0.3134 -0.7691
  454MOL0     H61273   9.559   1.158   5.432  1.1675  0.6597 -0.1530
  454MOL0     H61274   7.691   0.303   5.443 -0.7489  0.8700 -0.1901
  454MOL0     H61275   7.476   0.367   5.358 -1.3416 -1.7849  0.0771
  454MOL0     H61276   7.133   0.083   4.957  1.8505  0.2878  1.8000
  454MOL0     H61277   6.910   0.091   4.922  1.2913  0.2457 -0.8984
  454MOL0     H61278   6.672   0.133   4.978 -2.0810 -0.5819  0.7187
  454MOL0     H61279   6.723   0.211   4.821  1.7450  1.1682  0.7280
  454MOL0     H61280   6.489   0.313   4.993  0.9911  0.4899  0.6895
  454MOL0     H61281   6.472   0.178   4.873  0.2820 -1.3452 -0.6687
  454MOL0     H61282   6.558   0.339   4.700  0.0874  2.7015 -1.8140
  454MOL0     H61283   6.584   0.456   4.825 -1.5685 -0.3948 -0.9704
  454MOL0     H61284   6.347   0.480   4.872  1.7964  3.2982 -0.9346
  454MOL0     H61285   6.358   0.493   4.701 -1.7028  1.2181  1.9315
  454MOL0     H61286   6.110   0.204   4.636  0.2493  1.7233 -0.9474
  454MOL0     H61287   6.880   0.456   5.145 -2.0908 -1.7839  0.2207
  454MOL0     H61288   7.061   0.556   5.242  0.4660 -0.8101  0.4311
  454MOL0     H61289   7.197   0.452   5.296  0.3745 -1.8300 -0.2775
  454MOL0     H61290   7.205   0.551   5.147  0.7005  1.4117  1.7567
  455MOL0     O61291   5.614   8.344   4.415  0.1512  0.2204  0.2193
  455MOL0     C61292   5.577   8.377   4.302  0.1628  0.3781 -0.0063
  455MOL0     O61293   5.649   8.457   4.214 -0.4451 -0.0037  0.3667
  455MOL0     C61294   5.776   8.500   4.249  0.6891 -0.2405 -0.7524
  455MOL0     C61295   5.798   8.563   4.366 -0.1922  0.1313 -0.5882
  455MOL0     C61296   5.924   8.616   4.389 -0.4355 -1.0028 -0.5570
  455MOL0     C61297   6.024   8.611   4.292  0.1100  0.2213  0.0592
  455MOL0     O61298   6.153   8.656   4.324  0.3502  0.5509  0.0296
  455MOL0     C61299   6.174   8.777   4.395 -0.3448  0.2271  0.3218
  455MOL0     C61300   6.315   8.828   4.375  0.5543 -0.0895  0.4736
  455MOL0     C61301   6.331   8.881   4.234 -0.3118 -0.4407 -0.1128
  455MOL0     C61302   6.477   8.933   4.200  0.5757 -0.4896  0.5905
  455MOL0     C61303   6.538   9.040   4.296 -0.3409 -0.4936  0.0467
  455MOL0     C61304   6.648   9.119   4.213 -0.2579  0.2179  0.0767
  455MOL0     C61305   6.788   9.092   4.272 -0.0761 -0.1591  0.9820
  455MOL0     C61306   6.896   9.158   4.179  0.0912 -0.4302 -0.6580
  455MOL0     N61307   6.906   9.301   4.201  0.8056  0.1632 -0.3964
  455MOL0     C61308   6.923   9.360   4.322  0.2411  0.6084  0.5701
  455MOL0     C61309   6.869   9.484   4.308  0.3353  0.3763 -0.4559
  455MOL0     C61310   6.865   9.596   4.405  0.3357  0.6582  0.4789
  455MOL0     C61311   7.008   9.647   4.444  0.1817 -0.7924 -0.4725
  455MOL0     C61312   7.057   9.776   4.390  0.0095 -0.0424 -1.4285
  455MOL0     C61313   7.185   9.828   4.459  0.5225 -0.4547 -0.5998
  455MOL0     O61314   7.303   9.818   4.371  0.4561  0.5446  0.3812
  455MOL0     C61315   7.373   9.930   4.349 -0.2529 -0.5839  0.2098
  455MOL0     C61316   7.309  10.056   4.307  0.0150 -0.1667 -0.5254
  455MOL0     C61317   7.388  10.168   4.276  0.0954 -0.0832 -0.2589
  455MOL0     C61318   7.526  10.158   4.280  1.0270 -0.6726 -0.1883
  455MOL0     C61319   7.609  10.269   4.228  0.1511  0.7248 -0.4614
  455MOL0     O61320   7.744  10.262   4.250 -0.0834  0.0683  0.0319
  455MOL0     C61321   7.830  10.373   4.227  1.0543  0.2555  0.4748
  455MOL0     C61322   7.792  10.503   4.250 -0.3232 -0.7930 -0.2123
  455MOL0     C61323   7.878  10.617   4.230  0.0004  0.0235 -0.1006
  455MOL0     C61324   8.004  10.588   4.180 -0.3418 -0.4336  0.7768
  455MOL0     O61325   8.084  10.701   4.171  0.5165  0.0704 -0.6026
  455MOL0     C61326   8.222  10.684   4.203  0.1068 -0.4161 -0.4156
  455MOL0     C61327   8.279  10.817   4.246  0.4372  0.1236  0.1006
  455MOL0     C61328   8.429  10.806   4.278 -0.2940 -0.9245  0.0112
  455MOL0     C61329   8.491  10.942   4.311  0.0064  0.3768  0.5711
  455MOL0     C61330   8.641  10.921   4.324  0.0557  0.2706  0.0113
  455MOL0     C61331   8.732  11.027   4.370  0.4138  0.6464  0.6230
  455MOL0     C61332   8.706  11.070   4.513  0.2920 -0.1743 -0.2481
  455MOL0     C61333   8.791  11.203   4.525  0.2827  0.1184  0.3675
  455MOL0    Cl61334   8.749  11.290   4.671 -0.0912  0.0203 -0.0932
  455MOL0     C61335   8.047  10.461   4.157  0.0836  0.1570  1.5334
  455MOL0     C61336   7.962  10.355   4.175  0.3547  0.0218  0.0484
  455MOL0     O61337   7.552  10.360   4.167 -0.0947  0.3384  0.4985
  455MOL0     C61338   7.589  10.041   4.321 -0.4929 -0.3251 -0.3547
  455MOL0     C61339   7.512   9.930   4.359  0.4135 -0.1847 -0.0045
  455MOL0     N61340   6.809   9.489   4.179  0.0621  0.1152  0.1542
  455MOL0     N61341   6.833   9.385   4.119  0.1944 -0.4934 -0.3192
  455MOL0     C61342   6.004   8.532   4.170 -0.0274  0.0770 -0.7140
  455MOL0     C61343   5.872   8.479   4.156  0.4249  0.1539  0.2125
  455MOL0     C61344   5.457   8.310   4.242  0.3271 -0.3526  0.5128
  455MOL0     C61345   5.414   8.354   4.110 -0.9902 -0.4084 -0.3155
  455MOL0     C61346   5.305   8.305   4.045 -0.0387  0.2591 -0.1144
  455MOL0     C61347   5.221   8.214   4.117  0.5218  0.0631  0.8555
  455MOL0     O61348   5.101   8.167   4.066  0.0268 -0.6337 -0.0475
  455MOL0     C61349   5.015   8.258   3.991 -0.0940  0.3330  0.0549
  455MOL0     C61350   5.023   8.210   3.847 -0.0039 -0.7240 -0.3754
  455MOL0     C61351   5.011   8.059   3.827 -0.2428  0.1137  1.0720
  455MOL0     C61352   4.866   8.012   3.856 -0.6581  0.2544 -0.1328
  455MOL0     C61353   4.782   8.051   3.746 -0.0797  0.0278  0.0556
  455MOL0     C61354   4.726   8.086   3.642  0.0782 -0.0389  0.1684
  455MOL0     C61355   5.264   8.166   4.239 -0.2143  0.3816  0.1059
  455MOL0     C61356   5.376   8.209   4.304 -0.5997 -1.2205  0.3574
  455MOL0     C61357   5.409   8.157   4.445  0.3093  0.2366  0.0808
  455MOL0     H61358   5.727   8.572   4.448  0.9793  1.8374  0.3324
  455MOL0     H61359   5.941   8.668   4.483  1.5862 -0.1521 -1.3327
  455MOL0     H61360   6.095   8.848   4.367 -0.7312 -0.7153 -1.0660
  455MOL0     H61361   6.160   8.759   4.502  0.3114  1.6227  0.6677
  455MOL0     H61362   6.391   8.749   4.376 -0.1421 -0.7815  0.0576
  455MOL0     H61363   6.332   8.914   4.441 -3.0594  2.0356 -1.0718
  455MOL0     H61364   6.262   8.966   4.225 -0.7508 -0.5047  2.1429
  455MOL0     H61365   6.301   8.800   4.168 -2.1073  0.1760 -0.1066
  455MOL0     H61366   6.547   8.850   4.200  0.7388 -0.3937 -0.9895
  455MOL0     H61367   6.471   8.981   4.101  2.7081  0.9493  1.0925
  455MOL0     H61368   6.455   9.106   4.324  1.9872  2.2281  1.1448
  455MOL0     H61369   6.572   8.982   4.383  0.4146 -1.2684 -0.7510
  455MOL0     H61370   6.646   9.076   4.113 -0.7548 -1.8711  0.9326
  455MOL0     H61371   6.635   9.227   4.215  0.0239  0.2588 -0.2564
  455MOL0     H61372   6.797   8.983   4.266 -1.3234 -0.2762  0.8576
  455MOL0     H61373   6.790   9.122   4.377  1.0573 -4.0468  2.2278
  455MOL0     H61374   6.993   9.114   4.203  0.8027  1.6567  0.6252
  455MOL0     H61375   6.861   9.139   4.077 -1.7858  1.0243 -0.3420
  455MOL0     H61376   6.952   9.317   4.418 -0.7177  2.1700  1.6044
  455MOL0     H61377   6.825   9.684   4.354 -2.2516 -0.8807 -0.3523
  455MOL0     H61378   6.804   9.579   4.495  0.7534  0.1698  0.6763
  455MOL0     H61379   7.012   9.644   4.553 -2.4794 -3.8069 -0.2998
  455MOL0     H61380   7.081   9.569   4.417 -0.7460 -1.4212 -1.2653
  455MOL0     H61381   6.970   9.841   4.407 -1.2169 -1.9549 -0.0316
  455MOL0     H61382   7.081   9.746   4.288 -1.8316 -0.9303 -1.6462
  455MOL0     H61383   7.201   9.775   4.553 -0.5681 -3.0305 -1.7672
  455MOL0     H61384   7.176   9.930   4.498 -0.4570 -1.4585  2.0154
  455MOL0     H61385   7.202  10.073   4.306  0.1143  0.6241 -2.4526
  455MOL0     H61386   7.346  10.264   4.251  2.3843  1.4920  1.5351
  455MOL0     H61387   7.699  10.510   4.306  0.7194 -0.2599  1.4908
  455MOL0     H61388   7.862  10.720   4.262  1.6350 -0.7073  3.5679
  455MOL0     H61389   8.220  10.604   4.278 -0.7313 -1.8668 -1.9178
  455MOL0     H61390   8.277  10.642   4.118  2.3464 -1.2243  1.3359
  455MOL0     H61391   8.256  10.875   4.156  0.4607 -0.7299 -0.4570
  455MOL0     H61392   8.230  10.857   4.335 -0.7145  1.9924 -1.3038
  455MOL0     H61393   8.450  10.732   4.355  0.7252 -1.2778 -0.5841
  455MOL0     H61394   8.478  10.776   4.185  4.4405  3.3091  0.6836
  455MOL0     H61395   8.448  10.964   4.410 -0.7731 -0.8677  0.5251
  455MOL0     H61396   8.454  11.031   4.258 -0.5615  0.7431  1.5472
  455MOL0     H61397   8.673  10.899   4.222  3.7369 -0.2617  1.1281
  455MOL0     H61398   8.665  10.830   4.379 -1.3217  0.9195  1.7796
  455MOL0     H61399   8.829  10.978   4.375  0.4586  0.7568  0.8770
  455MOL0     H61400   8.754  11.100   4.291  0.4288  0.1091  0.1262
  455MOL0     H61401   8.731  10.989   4.582 -2.4533  1.4504  3.0030
  455MOL0     H61402   8.600  11.095   4.525  0.7500  2.9571 -1.7813
  455MOL0     H61403   8.896  11.174   4.521  0.4426  0.7552 -1.8743
  455MOL0     H61404   8.779  11.273   4.441  0.4557  0.4316  0.6018
  455MOL0     H61405   8.139  10.431   4.107  0.2872 -0.9550  2.5261
  455MOL0     H61406   8.002  10.256   4.152 -0.2406 -0.2281  0.0914
  455MOL0     H61407   7.697  10.047   4.316 -0.5617  2.6573 -0.1510
  455MOL0     H61408   7.563   9.838   4.386 -2.1946 -1.8739 -0.4640
  455MOL0     H61409   6.084   8.513   4.100  2.2332 -0.5647  1.8588
  455MOL0     H61410   5.846   8.421   4.068  1.1019  1.3604 -0.8152
  455MOL0     H61411   5.474   8.429   4.060 -1.0039 -0.2487 -0.0891
  455MOL0     H61412   5.273   8.344   3.949 -3.0263 -0.0897  0.6399
  455MOL0     H61413   5.036   8.365   3.981  0.1824  0.2923  0.2116
  455MOL0     H61414   4.910   8.242   4.020  0.1562 -2.5247 -0.3859
  455MOL0     H61415   5.125   8.236   3.813  1.4719 -2.9015  2.0802
  455MOL0     H61416   4.953   8.265   3.783 -0.7051 -0.7592  0.3549
  455MOL0     H61417   5.089   8.008   3.884 -0.0999 -1.4173 -0.4280
  455MOL0     H61418   5.026   8.038   3.721 -0.9431  1.8356  0.5997
  455MOL0     H61419   4.873   7.903   3.865  0.2868 -0.3593 -5.1916
  455MOL0     H61420   4.829   8.057   3.949 -1.0263 -0.6521  0.1739
  455MOL0     H61421   4.683   8.133   3.556  0.9629  0.8028  0.1697
  455MOL0     H61422   5.192   8.101   4.286 -1.3277 -1.0600 -3.2642
  455MOL0     H61423   5.508   8.111   4.445 -1.0495 -3.0488  1.9279
  455MOL0     H61424   5.406   8.237   4.520  2.4304  0.7130 -0.2905
  455MOL0     H61425   5.340   8.079   4.477  2.9085 -2.5623 -0.7337
  456MOL0     O61426   3.834   6.479   4.560  0.4040 -0.4306  0.3391
  456MOL0     C61427   3.720   6.432   4.536 -0.2699 -0.0224  0.4684
  456MOL0     O61428   3.696   6.307   4.486 -0.0528  0.8983  0.2054
  456MOL0     C61429   3.812   6.230   4.465  0.5397 -0.0354 -0.4280
  456MOL0     C61430   3.848   6.135   4.563 -0.5578 -0.7792  0.3555
  456MOL0     C61431   3.969   6.070   4.547 -0.1165  0.2439 -0.5012
  456MOL0     C61432   4.047   6.084   4.430  0.0473 -0.4524 -0.2904
  456MOL0     O61433   4.160   6.013   4.401 -1.0739  0.3013  0.3629
  456MOL0     C61434   4.191   5.882   4.456  0.0636  0.2076 -0.5115
  456MOL0     C61435   4.328   5.842   4.410 -0.6720 -0.0473  0.9662
  456MOL0     C61436   4.382   5.723   4.491  0.1058 -0.5151  0.1924
  456MOL0     C61437   4.493   5.643   4.408 -0.2117 -0.0877 -0.2894
  456MOL0     C61438   4.568   5.545   4.500  0.5740  0.2822 -0.1093
  456MOL0     C61439   4.652   5.451   4.418  1.1780  0.0671 -0.4550
  456MOL0     C61440   4.751   5.522   4.322 -0.5505  0.3800 -1.3729
  456MOL0     C61441   4.874   5.434   4.299  0.7008  0.0216 -0.3454
  456MOL0     N61442   4.842   5.293   4.263 -0.0593 -0.1125 -0.4923
  456MOL0     C61443   4.750   5.253   4.169 -0.1239 -0.7424  0.0386
  456MOL0     C61444   4.710   5.133   4.210 -0.6564  0.0166 -0.3100
  456MOL0     C61445   4.601   5.053   4.147 -0.0194  0.2415  0.5507
  456MOL0     C61446   4.482   5.053   4.246 -0.0006  0.0004  0.2035
  456MOL0     C61447   4.352   4.964   4.208  0.1470  0.2957 -0.1020
  456MOL0     C61448   4.238   5.001   4.294  0.5325  0.5165  0.5209
  456MOL0     O61449   4.144   4.894   4.290 -0.4824 -0.4755 -0.0054
  456MOL0     C61450   4.013   4.929   4.309  0.1329 -0.6386  1.2451
  456MOL0     C61451   3.923   4.941   4.203 -0.6156  0.6218  0.2084
  456MOL0     C61452   3.784   4.970   4.219  0.4111 -0.3278 -0.6692
  456MOL0     C61453   3.735   4.996   4.341 -0.2882  0.0071 -0.5398
  456MOL0     C61454   3.583   5.026   4.348  0.0108  0.6648  0.3593
  456MOL0     O61455   3.491   4.968   4.254  0.3276 -1.3324  0.2372
  456MOL0     C61456   3.354   4.998   4.267  0.4285 -0.1357  0.4469
  456MOL0     C61457   3.320   5.133   4.288  0.1491  0.2170 -0.1353
  456MOL0     C61458   3.182   5.169   4.303  0.7002 -0.1332 -0.0950
  456MOL0     C61459   3.083   5.079   4.288 -0.4288  0.7000  0.5147
  456MOL0     O61460   2.950   5.110   4.292  0.6162  0.1954 -0.2564
  456MOL0     C61461   2.907   5.228   4.356 -0.5428 -0.0957 -0.2469
  456MOL0     C61462   2.754   5.207   4.361  0.6788  0.0642  0.1827
  456MOL0     C61463   2.683   5.341   4.369  0.2943  0.2979  0.3498
  456MOL0     C61464   2.532   5.329   4.329 -0.5902 -0.1480 -0.4393
  456MOL0     C61465   2.462   5.462   4.353 -0.2795 -0.1673  0.0885
  456MOL0     C61466   2.453   5.492   4.499 -0.1619  0.5381  0.0922
  456MOL0     C61467   2.353   5.603   4.540 -0.3202 -0.1076  0.0755
  456MOL0     C61468   2.214   5.560   4.543  0.0391 -0.8040  0.6731
  456MOL0    Cl61469   2.115   5.688   4.632  0.3260 -0.5835  0.1674
  456MOL0     C61470   3.119   4.948   4.256 -0.4949 -0.3049 -0.0817
  456MOL0     C61471   3.249   4.905   4.259 -0.6800 -0.9344  1.1685
  456MOL0     O61472   3.548   5.084   4.455 -0.5356 -0.5643 -0.0983
  456MOL0     C61473   3.824   4.991   4.451  0.2058  0.6191 -0.0268
  456MOL0     C61474   3.963   4.951   4.432  0.2331 -0.3810  0.1563
  456MOL0     N61475   4.773   5.087   4.322 -0.0147 -0.4522  0.5885
  456MOL0     N61476   4.854   5.191   4.347 -0.7030  0.7497 -0.2998
  456MOL0     C61477   3.999   6.169   4.327  0.0883 -0.4106 -0.9693
  456MOL0     C61478   3.884   6.246   4.345  0.5876 -0.1363  0.1317
  456MOL0     C61479   3.612   6.521   4.574  0.1012 -0.9454  0.8473
  456MOL0     C61480   3.627   6.640   4.649  0.6171 -0.0905  0.3440
  456MOL0     C61481   3.521   6.723   4.688 -0.2752 -0.3214 -0.0854
  456MOL0     C61482   3.391   6.689   4.657 -0.5345 -0.6785  0.1205
  456MOL0     O61483   3.279   6.757   4.706 -0.0492 -0.4510 -0.2556
  456MOL0     C61484   3.294   6.887   4.781  0.0316 -0.5967  0.3546
  456MOL0     C61485   3.301   6.852   4.927 -1.0715  0.1541 -0.5977
  456MOL0     C61486   3.355   6.966   5.016 -0.1910 -0.2888  0.7290
  456MOL0     C61487   3.245   7.076   5.037 -0.0949  0.2530  0.0929
  456MOL0     C61488   3.254   7.170   4.925 -0.0610  0.4284  0.1971
  456MOL0     C61489   3.247   7.231   4.818 -0.4060  0.2895  0.1350
  456MOL0     C61490   3.368   6.578   4.582  0.1652 -0.1477  0.9253
  456MOL0     C61491   3.476   6.503   4.532 -0.3604  0.4562 -1.1752
  456MOL0     C61492   3.435   6.396   4.443 -0.2267 -0.0184 -0.4634
  456MOL0     H61493   3.784   6.135   4.652 -2.4286  1.5268 -0.8713
  456MOL0     H61494   4.010   5.999   4.619 -2.1100 -0.2292  0.2547
  456MOL0     H61495   4.203   5.878   4.565  1.0756  3.0080 -0.4389
  456MOL0     H61496   4.124   5.804   4.418 -0.1113 -0.5382  1.2017
  456MOL0     H61497   4.387   5.934   4.424  0.0924  0.0468 -2.1121
  456MOL0     H61498   4.325   5.807   4.307  1.1490 -1.1321  1.2414
  456MOL0     H61499   4.300   5.652   4.503 -1.8102  1.3038 -1.4345
  456MOL0     H61500   4.408   5.759   4.592 -2.3538  1.6824  0.1636
  456MOL0     H61501   4.452   5.588   4.324  0.8037 -1.0567 -0.1752
  456MOL0     H61502   4.565   5.719   4.376  0.3529 -1.5918 -2.8420
  456MOL0     H61503   4.636   5.598   4.567  1.0782  0.0684 -0.4406
  456MOL0     H61504   4.505   5.488   4.569  0.8344 -0.1231 -0.2028
  456MOL0     H61505   4.710   5.386   4.484 -0.4126  0.5021  1.4429
  456MOL0     H61506   4.578   5.393   4.362  0.0607  3.0414 -2.3157
  456MOL0     H61507   4.792   5.614   4.365  0.0862 -0.2792 -0.5467
  456MOL0     H61508   4.704   5.536   4.224 -1.4622 -0.2366 -1.0363
  456MOL0     H61509   4.937   5.480   4.223  0.9903  0.5828  0.2220
  456MOL0     H61510   4.926   5.417   4.394 -0.1583 -0.5521  0.0335
  456MOL0     H61511   4.700   5.316   4.095  0.2264  0.1383  0.5359
  456MOL0     H61512   4.567   5.100   4.054  2.2105  0.9696  0.0187
  456MOL0     H61513   4.633   4.949   4.134 -0.0050  0.2097  0.8354
  456MOL0     H61514   4.516   5.017   4.343 -1.0652 -1.1318  0.1834
  456MOL0     H61515   4.452   5.157   4.261  0.5579  0.1199  0.5336
  456MOL0     H61516   4.360   4.857   4.231 -2.1409  0.1785  0.3921
  456MOL0     H61517   4.327   4.965   4.102  2.3626  1.0559 -0.6733
  456MOL0     H61518   4.194   5.100   4.280  1.0178  0.6620 -0.0102
  456MOL0     H61519   4.279   4.998   4.396  1.2405  3.0211  0.3690
  456MOL0     H61520   3.965   4.930   4.104  0.2696 -2.3290  0.8120
  456MOL0     H61521   3.719   4.965   4.132  2.0710 -1.8717 -1.9067
  456MOL0     H61522   3.397   5.208   4.303  2.1017 -1.8841  1.0107
  456MOL0     H61523   3.160   5.262   4.355  0.7120 -1.1486  1.8075
  456MOL0     H61524   2.940   5.246   4.458 -4.6262 -0.8574  1.4049
  456MOL0     H61525   2.920   5.317   4.294 -2.9718  0.3513 -0.2146
  456MOL0     H61526   2.719   5.171   4.264 -2.1107  1.6595  0.4952
  456MOL0     H61527   2.739   5.129   4.436  0.7414  0.5702  0.7281
  456MOL0     H61528   2.697   5.382   4.470 -1.0151  0.4892  0.4687
  456MOL0     H61529   2.726   5.409   4.295 -2.0928 -0.8402 -2.2754
  456MOL0     H61530   2.474   5.253   4.382  1.6148  1.2184  4.5443
  456MOL0     H61531   2.536   5.309   4.221 -2.6675  0.0646 -0.5943
  456MOL0     H61532   2.361   5.454   4.312  0.5736 -0.0701 -2.1211
  456MOL0     H61533   2.514   5.547   4.308  1.3642 -0.4494  1.3557
  456MOL0     H61534   2.424   5.401   4.551 -0.8137  0.0473 -1.0984
  456MOL0     H61535   2.553   5.525   4.529 -0.4916 -1.2890  3.7329
  456MOL0     H61536   2.366   5.694   4.480  0.1749  0.1764  0.5991
  456MOL0     H61537   2.373   5.635   4.643 -2.8600  3.4148 -0.3126
  456MOL0     H61538   2.174   5.539   4.443  1.3680 -1.3787  0.2430
  456MOL0     H61539   2.197   5.479   4.615 -1.6482  2.5190  4.4359
  456MOL0     H61540   3.041   4.874   4.243 -0.6344 -0.7339  2.5344
  456MOL0     H61541   3.280   4.809   4.218  4.2756  0.8005  0.1928
  456MOL0     H61542   3.784   4.992   4.552 -0.1416 -0.7399 -0.1354
  456MOL0     H61543   4.028   4.951   4.518 -1.4233 -1.3968  1.4736
  456MOL0     H61544   4.058   6.173   4.236  2.3682 -1.6881  0.3529
  456MOL0     H61545   3.855   6.306   4.260  0.8810  1.6537  1.2543
  456MOL0     H61546   3.722   6.681   4.682 -0.2331 -0.1720  3.1770
  456MOL0     H61547   3.546   6.814   4.741  0.4412  0.6551 -2.0324
  456MOL0     H61548   3.211   6.953   4.755 -0.5416 -1.8347 -1.1138
  456MOL0     H61549   3.388   6.936   4.755  1.5225 -3.1084  0.6902
  456MOL0     H61550   3.370   6.768   4.941 -0.6807  1.0082  4.5572
  456MOL0     H61551   3.201   6.821   4.958 -0.7316 -0.6140 -0.2394
  456MOL0     H61552   3.451   7.008   4.985  1.0188 -2.0484  1.8713
  456MOL0     H61553   3.369   6.927   5.117 -1.5681  0.3893  1.2125
  456MOL0     H61554   3.141   7.052   5.062  0.3981  0.8176  3.0964
  456MOL0     H61555   3.282   7.129   5.126  0.5134  0.4625 -0.2795
  456MOL0     H61556   3.228   7.286   4.728 -3.9255 -0.0176  0.5667
  456MOL0     H61557   3.268   6.561   4.542  0.7394  2.1903 -1.7460
  456MOL0     H61558   3.333   6.390   4.403 -1.2113 -1.1406  2.0021
  456MOL0     H61559   3.497   6.388   4.353  0.5877  1.1853 -0.0351
  456MOL0     H61560   3.435   6.297   4.489  2.0788 -0.8301 -2.0550
  457MOL0     O61561   1.239   6.979   2.469 -0.1240 -0.4533 -0.5910
  457MOL0     C61562   1.149   6.951   2.547  0.6453 -0.1435  0.1456
  457MOL0     O61563   1.160   6.855   2.647 -0.4747 -0.5564 -0.1593
  457MOL0     C61564   1.281   6.846   2.707  0.3532  0.0048 -0.5727
  457MOL0     C61565   1.326   6.926   2.818  0.4018 -0.4223  0.5812
  457MOL0     C61566   1.449   6.909   2.877  0.4479  0.0228  0.2366
  457MOL0     C61567   1.537   6.805   2.835 -0.1165  0.1902  0.4451
  457MOL0     O61568   1.657   6.770   2.897 -1.0185  0.1262  0.0055
  457MOL0     C61569   1.778   6.779   2.813  0.3344 -0.2325 -0.2227
  457MOL0     C61570   1.789   6.917   2.746 -0.4117 -0.2446 -0.8193
  457MOL0     C61571   1.927   6.933   2.685 -0.1333  0.4729  0.6278
  457MOL0     C61572   2.028   6.979   2.797 -0.4354 -0.1793 -0.3593
  457MOL0     C61573   2.166   6.962   2.749 -0.1905  1.0982  0.3391
  457MOL0     C61574   2.271   7.024   2.845  1.2881  0.4694 -0.0938
  457MOL0     C61575   2.404   7.054   2.783 -0.3254 -0.1677  0.1234
  457MOL0     C61576   2.502   6.942   2.782 -0.3149  0.2460 -0.2755
  457MOL0     N61577   2.638   6.986   2.749 -0.6268 -0.7248 -0.6771
  457MOL0     C61578   2.742   6.961   2.835 -0.6597 -0.0774  0.6034
  457MOL0     C61579   2.861   6.982   2.758  0.3450 -0.6052 -0.5771
  457MOL0     C61580   3.000   6.954   2.813  0.6543  0.8860 -0.3582
  457MOL0     C61581   2.999   6.961   2.964 -0.1795 -0.3109  0.2265
  457MOL0     C61582   3.141   6.990   3.014 -0.8375 -0.5968 -0.2855
  457MOL0     C61583   3.234   6.871   3.019  0.1616 -0.5275  0.8696
  457MOL0     O61584   3.278   6.848   2.886  0.1570 -0.1536  0.1010
  457MOL0     C61585   3.395   6.777   2.863  1.2964  0.5033 -0.0046
  457MOL0     C61586   3.519   6.804   2.926  0.3746  0.5783 -0.5449
  457MOL0     C61587   3.635   6.740   2.893 -0.8920  0.8410  0.3870
  457MOL0     C61588   3.623   6.631   2.802  0.6128 -1.1420 -0.1254
  457MOL0     C61589   3.744   6.560   2.764 -0.7597 -0.3231 -0.1921
  457MOL0     O61590   3.733   6.482   2.651 -0.5716 -0.6463 -0.2189
  457MOL0     C61591   3.832   6.391   2.628  0.1436 -0.5513 -1.1897
  457MOL0     C61592   3.851   6.281   2.710  1.2274  0.2981  0.2282
  457MOL0     C61593   3.941   6.179   2.665  0.5391 -0.3290 -0.3187
  457MOL0     C61594   3.999   6.179   2.540  0.1463 -0.3974  0.1326
  457MOL0     O61595   4.058   6.076   2.478  0.1954 -0.1384 -0.0686
  457MOL0     C61596   4.035   5.942   2.519 -0.3494 -0.0172 -0.4920
  457MOL0     C61597   4.071   5.851   2.404  0.1088 -0.9126  0.0449
  457MOL0     C61598   4.219   5.825   2.374  0.1403 -0.4431  0.2633
  457MOL0     C61599   4.280   5.730   2.479  0.5863  0.1372  0.2088
  457MOL0     C61600   4.425   5.690   2.447 -0.3121 -0.1015  0.0007
  457MOL0     C61601   4.433   5.583   2.331  0.0747  0.1683  0.0332
  457MOL0     C61602   4.572   5.566   2.300 -0.2553  0.1600  0.0516
  457MOL0     C61603   4.595   5.639   2.163 -0.1151  1.2428 -0.0822
  457MOL0    Cl61604   4.573   5.817   2.168  0.4091  0.1642  0.1848
  457MOL0     C61605   3.965   6.287   2.458 -0.6129 -0.3590 -0.1441
  457MOL0     C61606   3.879   6.390   2.497  0.2536  0.4759 -0.2891
  457MOL0     O61607   3.841   6.565   2.844 -0.4449  0.2928 -0.2850
  457MOL0     C61608   3.502   6.596   2.742 -0.3580  0.5863 -0.0004
  457MOL0     C61609   3.388   6.668   2.773  0.2302  0.1986 -0.8884
  457MOL0     N61610   2.822   7.021   2.637  0.0530 -0.2758 -0.5160
  457MOL0     N61611   2.694   7.021   2.625 -0.2413  0.6525 -0.6591
  457MOL0     C61612   1.503   6.736   2.712  1.1173  0.9372  0.1594
  457MOL0     C61613   1.370   6.755   2.658 -0.6912 -0.3436  0.3262
  457MOL0     C61614   1.010   6.999   2.516 -0.1415 -0.2582 -1.1266
  457MOL0     C61615   0.983   7.051   2.380 -0.0030  0.1684  0.5290
  457MOL0     C61616   0.863   7.110   2.341 -0.1100  0.5052  0.1415
  457MOL0     C61617   0.755   7.110   2.427 -0.2439  0.1276  0.4956
  457MOL0     O61618   0.635   7.166   2.378  0.1725 -0.5611 -0.6306
  457MOL0     C61619   0.517   7.122   2.440  0.4007  0.3948 -0.1619
  457MOL0     C61620   0.387   7.167   2.375  0.1629  0.2936  0.1188
  457MOL0     C61621   0.270   7.079   2.416  0.3099  0.8385  0.4059
  457MOL0     C61622   0.145   7.110   2.338  1.1438 -0.7787  0.2061
  457MOL0     C61623   0.093   7.240   2.366  0.1786  0.1177 -0.4929
  457MOL0     C61624   0.048   7.349   2.400 -0.5055  0.4167 -0.7245
  457MOL0     C61625   0.779   7.062   2.560 -0.2311  0.3273 -0.0295
  457MOL0     C61626   0.901   7.005   2.607  0.9253  0.8112  0.6397
  457MOL0     C61627   0.896   6.963   2.754  0.1053  0.4341  0.4119
  457MOL0     H61628   1.257   7.006   2.841  0.2222  0.4026 -2.4051
  457MOL0     H61629   1.471   6.980   2.956 -0.2682  1.3720 -0.7376
  457MOL0     H61630   1.855   6.759   2.888 -2.2521 -0.3814  2.6358
  457MOL0     H61631   1.773   6.697   2.741  1.6591 -0.7018  0.1833
  457MOL0     H61632   1.771   7.007   2.806  1.8058  0.3788 -0.9904
  457MOL0     H61633   1.719   6.917   2.663 -3.1637 -3.4046  1.2164
  457MOL0     H61634   1.920   6.994   2.595  0.4854 -2.3970 -1.5175
  457MOL0     H61635   1.961   6.844   2.631  1.9601  1.6949 -0.1724
  457MOL0     H61636   2.012   7.086   2.811  1.9819  0.1901 -0.0760
  457MOL0     H61637   2.022   6.922   2.890  2.5194 -1.4432 -0.8451
  457MOL0     H61638   2.199   6.859   2.734  2.5125  2.3300 -4.0330
  457MOL0     H61639   2.168   7.013   2.652  0.9822  0.5419  0.0563
  457MOL0     H61640   2.234   7.121   2.880 -0.2674 -0.4996  1.0954
  457MOL0     H61641   2.296   6.967   2.936 -2.0217  2.4038  2.2557
  457MOL0     H61642   2.459   7.138   2.826  0.3491  0.9469 -2.6891
  457MOL0     H61643   2.382   7.080   2.679  0.3674 -0.8094 -0.1906
  457MOL0     H61644   2.506   6.900   2.882  0.6793 -2.2253 -1.2852
  457MOL0     H61645   2.461   6.862   2.720 -0.0285 -0.5993  0.6014
  457MOL0     H61646   2.733   6.922   2.936 -0.5292 -4.4244 -0.8712
  457MOL0     H61647   3.040   6.857   2.783  1.3411  1.3745 -1.0504
  457MOL0     H61648   3.052   7.044   2.779 -0.5028  2.0582  0.8446
  457MOL0     H61649   2.944   7.046   3.005  2.0097  1.1376  0.2812
  457MOL0     H61650   2.949   6.876   3.012 -4.0579 -0.1726 -2.9718
  457MOL0     H61651   3.135   7.014   3.121  1.0856  1.0761 -0.4812
  457MOL0     H61652   3.181   7.078   2.962  0.5174 -0.5434  0.7898
  457MOL0     H61653   3.179   6.784   3.053 -1.8870 -0.5078 -2.0455
  457MOL0     H61654   3.326   6.878   3.078  3.1755 -0.8409 -3.3000
  457MOL0     H61655   3.527   6.892   2.989 -0.1869 -0.3971  0.9440
  457MOL0     H61656   3.731   6.774   2.930 -0.5481  0.3178 -0.0153
  457MOL0     H61657   3.799   6.267   2.804  0.5257  1.4187  0.0242
  457MOL0     H61658   3.953   6.092   2.729  4.1929  0.2102 -0.0526
  457MOL0     H61659   4.088   5.919   2.612 -0.7003  0.5091 -0.1615
  457MOL0     H61660   3.930   5.930   2.544 -0.2360  0.9884  0.5205
  457MOL0     H61661   4.015   5.760   2.428 -2.1622  0.6424  1.0913
  457MOL0     H61662   4.027   5.887   2.310  1.5286  0.0878 -0.2616
  457MOL0     H61663   4.216   5.780   2.274  1.4849 -0.9355  0.4315
  457MOL0     H61664   4.285   5.912   2.370  2.7708 -2.2578  1.5263
  457MOL0     H61665   4.218   5.642   2.499  0.2221  1.0541  3.6088
  457MOL0     H61666   4.281   5.790   2.570  0.4644  0.8562 -0.2609
  457MOL0     H61667   4.468   5.653   2.540  2.8179 -1.8634 -1.9746
  457MOL0     H61668   4.476   5.782   2.414  0.3048 -0.8356 -1.1598
  457MOL0     H61669   4.395   5.489   2.374 -0.4525 -0.3618 -1.5100
  457MOL0     H61670   4.378   5.620   2.245  3.5969  0.9611 -2.0557
  457MOL0     H61671   4.596   5.460   2.287 -1.3758 -0.2575  1.1727
  457MOL0     H61672   4.641   5.597   2.379  1.1917 -2.6992  0.0494
  457MOL0     H61673   4.697   5.630   2.124 -0.4672  2.2854 -1.3277
  457MOL0     H61674   4.524   5.593   2.093 -1.8091  1.6444  1.2952
  457MOL0     H61675   3.991   6.300   2.354  3.5606  1.6103  0.9304
  457MOL0     H61676   3.845   6.471   2.433 -0.5228  1.4406  1.2964
  457MOL0     H61677   3.495   6.507   2.680 -2.0934  0.8114 -0.1695
  457MOL0     H61678   3.295   6.641   2.725  0.9298 -0.7588 -1.7478
  457MOL0     H61679   1.573   6.661   2.676 -1.0315 -1.6950  1.1815
  457MOL0     H61680   1.343   6.699   2.569 -1.0491 -1.1686  0.9461
  457MOL0     H61681   1.066   7.054   2.310  0.4888  1.4840  1.1355
  457MOL0     H61682   0.859   7.155   2.243  0.2339 -0.3460 -0.2630
  457MOL0     H61683   0.517   7.163   2.542  0.3920  0.8629 -0.3469
  457MOL0     H61684   0.512   7.013   2.439  2.3633  0.2659 -1.8083
  457MOL0     H61685   0.408   7.150   2.269  1.0502 -1.6639  0.5698
  457MOL0     H61686   0.374   7.272   2.405  0.8623 -0.1684  2.2392
  457MOL0     H61687   0.244   7.094   2.522  1.0179  0.2371  0.6686
  457MOL0     H61688   0.301   6.976   2.397 -2.0691 -0.0971  1.2272
  457MOL0     H61689   0.171   7.111   2.232 -1.0338  0.1689 -0.3806
  457MOL0     H61690   0.063   7.038   2.351  0.4033  0.0426  0.1603
  457MOL0     H61691   0.002   7.436   2.441 -0.3296 -0.3617  1.2650
  457MOL0     H61692   0.703   7.071   2.637  1.0047  0.8326  1.1763
  457MOL0     H61693   0.952   6.870   2.765 -0.8340 -0.1171  0.6055
  457MOL0     H61694   0.937   7.034   2.826  1.7139 -0.7958  0.7694
  457MOL0     H61695   0.790   6.944   2.775  0.0142 -0.3373 -0.6441
  458MOL0     O61696   9.716   0.777  10.017  0.2969  0.2131 -0.1642
  458MOL0     C61697   9.661   0.878  10.015 -0.2859 -0.4791  0.5424
  458MOL0     O61698   9.724   1.008  10.002 -0.0830 -0.1433  0.0220
  458MOL0     C61699   9.863   1.005  10.011 -0.1602 -0.2978  0.4484
  458MOL0     C61700   9.947   0.937   9.925 -0.5539 -0.0739 -0.5011
  458MOL0     C61701  10.091   0.948   9.928 -0.4324  0.4152 -0.2658
  458MOL0     C61702  10.145   1.038  10.021  0.9729 -0.4109 -0.7505
  458MOL0     O61703  10.276   1.066  10.040  0.3854 -0.0746 -0.1648
  458MOL0     C61704  10.370   1.000   9.951 -0.2916  0.4291 -0.5100
  458MOL0     C61705  10.498   1.074   9.973  0.7155 -0.1106 -0.7711
  458MOL0     C61706  10.566   1.066  10.112  0.5315 -0.0405 -0.1113
  458MOL0     C61707  10.608   0.924  10.155 -0.7812 -0.6794 -0.0529
  458MOL0     C61708  10.728   0.873  10.077  0.3529 -0.1406 -0.1560
  458MOL0     C61709  10.849   0.970  10.047  0.1377 -0.1090  0.3463
  458MOL0     C61710  10.974   0.884  10.011  0.1743 -0.4562 -0.0113
  458MOL0     C61711  11.076   0.980   9.938 -0.9643 -0.2586 -0.3470
  458MOL0     N61712  11.215   0.929   9.959 -0.5616  0.9487  0.5049
  458MOL0     C61713  11.274   0.821   9.903  0.0006  0.1315 -0.4565
  458MOL0     C61714  11.406   0.846   9.914 -0.6413 -0.1134  0.5523
  458MOL0     C61715  11.526   0.761   9.869 -0.7729  0.2547 -0.1999
  458MOL0     C61716  11.531   0.710   9.721  0.2538 -0.3208 -0.3616
  458MOL0     C61717  11.662   0.626   9.691  0.0933  0.4761  0.0372
  458MOL0     C61718  11.682   0.585   9.552 -0.0916  0.2560  0.9306
  458MOL0     O61719  11.756   0.460   9.552 -0.6812 -0.2304  0.0381
  458MOL0     C61720  11.890   0.478   9.549 -0.0834  0.3343  0.9826
  458MOL0     C61721  11.977   0.501   9.653 -0.1903  0.5973 -0.1847
  458MOL0     C61722  12.116   0.499   9.637 -0.5140  0.6729 -0.4152
  458MOL0     C61723  12.177   0.500   9.510  0.2272  0.7361  0.4129
  458MOL0     C61724  12.322   0.513   9.487 -0.5782 -0.9127  0.6071
  458MOL0     O61725  12.398   0.496   9.592  0.2400 -0.4510  0.4202
  458MOL0     C61726  12.533   0.503   9.589 -0.6589 -0.2942 -0.4208
  458MOL0     C61727  12.611   0.432   9.490  1.0323 -0.2061 -0.2891
  458MOL0     C61728  12.746   0.456   9.466 -0.2745  0.4493  0.4526
  458MOL0     C61729  12.801   0.559   9.540 -0.6402 -0.1578 -0.9389
  458MOL0     O61730  12.934   0.590   9.533  0.3450 -0.7649  0.3969
  458MOL0     C61731  13.030   0.486   9.512  0.5486 -0.7795  0.0336
  458MOL0     C61732  13.157   0.556   9.456 -0.3362 -0.6127  0.0386
  458MOL0     C61733  13.268   0.443   9.438  0.5000 -0.5108  0.7231
  458MOL0     C61734  13.399   0.513   9.438  0.3348  0.1365  0.4610
  458MOL0     C61735  13.515   0.420   9.414  0.2537  0.6023 -0.2612
  458MOL0     C61736  13.645   0.484   9.448 -0.8201  0.0429  0.2322
  458MOL0     C61737  13.769   0.404   9.423  0.1500  0.4296  0.1636
  458MOL0     C61738  13.899   0.473   9.471 -0.6176  0.1458  0.5672
  458MOL0    Cl61739  14.039   0.362   9.446  0.1484  0.3192 -0.2825
  458MOL0     C61740  12.728   0.637   9.632  0.1129  0.0772 -0.0086
  458MOL0     C61741  12.595   0.606   9.653  0.5737 -0.0891  0.3210
  458MOL0     O61742  12.367   0.539   9.377  0.6384  0.3420  0.4093
  458MOL0     C61743  12.088   0.481   9.404 -0.1215  0.1054  1.3810
  458MOL0     C61744  11.950   0.465   9.425  0.1697 -0.0648  0.7391
  458MOL0     N61745  11.417   0.959   9.986  0.4798 -0.4421 -0.8428
  458MOL0     N61746  11.304   1.012  10.016 -0.0910  0.6142 -0.7509
  458MOL0     C61747  10.059   1.107  10.110 -0.5467 -0.0256  0.4715
  458MOL0     C61748   9.915   1.088  10.108 -0.6281  0.6218 -0.4470
  458MOL0     C61749   9.518   0.877  10.034 -0.5310  0.1615 -0.0749
  458MOL0     C61750   9.460   1.005  10.042  0.3721 -0.3182  1.2934
  458MOL0     C61751   9.321   1.032  10.058  0.2928  0.4261  0.6850
  458MOL0     C61752   9.241   0.917  10.088 -0.3950 -0.0547  1.0918
  458MOL0     O61753   9.110   0.943  10.115  0.3546 -0.2168  0.1629
  458MOL0     C61754   9.017   0.834  10.116  0.0435  0.1512  0.2846
  458MOL0     C61755   8.883   0.873  10.172  1.2529 -0.3511 -0.0492
  458MOL0     C61756   8.797   0.758  10.221 -0.6532  0.0282 -0.5205
  458MOL0     C61757   8.704   0.807  10.331 -0.1888  0.2724 -0.4332
  458MOL0     C61758   8.574   0.729  10.337  0.3311 -0.3233  0.2715
  458MOL0     C61759   8.463   0.685  10.319  0.5363  0.7066  0.9941
  458MOL0     C61760   9.296   0.789  10.082 -0.1296  0.1984 -0.1789
  458MOL0     C61761   9.436   0.769  10.059 -0.0544  0.5840 -0.7369
  458MOL0     C61762   9.473   0.623  10.057  0.2093  0.6351 -0.0861
  458MOL0     H61763   9.916   0.857   9.859 -1.0952 -1.1847  1.0557
  458MOL0     H61764  10.159   0.878   9.881  0.5618  2.8048 -2.6670
  458MOL0     H61765  10.385   0.894   9.974  1.0537 -0.2059 -3.7894
  458MOL0     H61766  10.332   1.015   9.850 -1.8902  2.2038  0.2990
  458MOL0     H61767  10.478   1.180   9.956 -2.3287 -0.6362 -0.9554
  458MOL0     H61768  10.567   1.041   9.895  0.6944 -0.5722 -0.5953
  458MOL0     H61769  10.487   1.104  10.178 -0.7414  1.4546 -2.3575
  458MOL0     H61770  10.644   1.141  10.122 -1.3091  1.9335  0.3010
  458MOL0     H61771  10.638   0.931  10.259 -1.3145  3.3237  0.0054
  458MOL0     H61772  10.527   0.851  10.147 -0.2379 -1.2477 -0.5056
  458MOL0     H61773  10.774   0.790  10.131  1.5704  1.0972  0.7491
  458MOL0     H61774  10.681   0.831   9.987 -4.4282  2.7069  0.6170
  458MOL0     H61775  10.813   1.040   9.971 -3.3831 -1.3562  0.6562
  458MOL0     H61776  10.874   1.024  10.139  0.4683 -0.9387  0.7568
  458MOL0     H61777  10.946   0.798   9.950  0.4377  0.0871 -0.9160
  458MOL0     H61778  11.019   0.843  10.102 -0.5381  0.7130  0.8969
  458MOL0     H61779  11.051   0.986   9.832 -0.6728  0.6825 -0.3643
  458MOL0     H61780  11.062   1.078   9.984 -0.8153  0.1653 -1.1864
  458MOL0     H61781  11.233   0.731   9.857  0.4605 -0.4123  0.1744
  458MOL0     H61782  11.613   0.821   9.897 -2.0912  2.0007  0.3551
  458MOL0     H61783  11.520   0.674   9.935  1.7397  0.4279  0.3641
  458MOL0     H61784  11.435   0.658   9.711 -0.5509  0.5916  1.9643
  458MOL0     H61785  11.531   0.801   9.661  0.2550 -0.4754 -0.5974
  458MOL0     H61786  11.642   0.529   9.737  0.7576 -0.5344 -1.6931
  458MOL0     H61787  11.752   0.674   9.733  0.7555  0.2250 -1.0521
  458MOL0     H61788  11.731   0.659   9.488  0.6328 -1.9958 -1.3423
  458MOL0     H61789  11.587   0.567   9.501  0.5733 -0.0840 -0.2281
  458MOL0     H61790  11.948   0.518   9.756  3.5664  1.6850  0.8488
  458MOL0     H61791  12.170   0.512   9.730  2.3348  2.8693 -2.1960
  458MOL0     H61792  12.559   0.355   9.434 -0.0624 -0.1501  0.6232
  458MOL0     H61793  12.794   0.396   9.390  2.2208  2.2498  0.4709
  458MOL0     H61794  13.048   0.434   9.606  0.9583  1.0601  1.0209
  458MOL0     H61795  12.990   0.416   9.439  0.9678  1.1951 -2.2319
  458MOL0     H61796  13.125   0.587   9.356  1.2580 -0.1098 -0.3456
  458MOL0     H61797  13.190   0.638   9.521 -1.7385 -1.1938  1.5809
  458MOL0     H61798  13.275   0.363   9.513 -0.1740 -1.0469  0.2191
  458MOL0     H61799  13.256   0.393   9.342  1.7036 -0.0549  0.3131
  458MOL0     H61800  13.427   0.545   9.539 -1.7650 -2.4625  1.9596
  458MOL0     H61801  13.395   0.602   9.374 -0.6793  0.1089  0.4796
  458MOL0     H61802  13.500   0.388   9.310 -1.0727  0.6518 -0.0999
  458MOL0     H61803  13.506   0.335   9.482 -1.0168  1.2367  0.3928
  458MOL0     H61804  13.647   0.572   9.383 -0.6368 -0.2305 -0.1328
  458MOL0     H61805  13.642   0.515   9.553 -0.0887  0.1635  0.2214
  458MOL0     H61806  13.789   0.379   9.318 -0.9054 -5.3933  1.0141
  458MOL0     H61807  13.756   0.305   9.468 -1.7568  0.9251  0.7861
  458MOL0     H61808  13.924   0.561   9.412 -2.2562  2.0769  2.5679
  458MOL0     H61809  13.895   0.495   9.578  1.7397 -1.7287  1.1394
  458MOL0     H61810  12.773   0.720   9.687 -0.9542 -0.7477  2.2419
  458MOL0     H61811  12.540   0.668   9.724  0.0710 -0.8033  0.5689
  458MOL0     H61812  12.112   0.479   9.298  0.9715 -0.9733  1.6308
  458MOL0     H61813  11.885   0.452   9.338 -1.0932  2.5281  1.2025
  458MOL0     H61814  10.106   1.176  10.179 -0.1205  0.2264 -0.0651
  458MOL0     H61815   9.848   1.142  10.174 -1.5185 -0.6740 -0.2691
  458MOL0     H61816   9.519   1.096  10.035 -1.2059  0.5935 -1.4644
  458MOL0     H61817   9.274   1.130  10.060 -0.5325  0.0655 -0.2907
  458MOL0     H61818   9.054   0.759  10.186 -1.0133 -0.1182  0.5711
  458MOL0     H61819   8.999   0.783  10.021  0.9516 -3.8071  2.0552
  458MOL0     H61820   8.821   0.930  10.102  0.8961 -0.2353  0.3590
  458MOL0     H61821   8.899   0.947  10.252  0.0758 -0.6328  0.4722
  458MOL0     H61822   8.866   0.682  10.259  2.6865  2.5612 -1.0365
  458MOL0     H61823   8.738   0.718  10.138 -1.6270 -1.0730  0.6663
  458MOL0     H61824   8.753   0.801  10.429 -2.0029  0.9148  0.5636
  458MOL0     H61825   8.683   0.912  10.308  1.5060  1.1513  1.6508
  458MOL0     H61826   8.370   0.633  10.308  1.5147 -1.0366  0.4428
  458MOL0     H61827   9.226   0.709  10.102 -0.9838  0.7497 -0.8921
  458MOL0     H61828   9.556   0.601  10.125  0.4270  2.6225  0.3513
  458MOL0     H61829   9.387   0.568  10.097  1.0711 -0.1682  0.7211
  458MOL0     H61830   9.501   0.590   9.957 -2.3393 -0.8141 -0.4124
  459MOL0     O61831   9.217   7.050   0.896 -0.2346  0.6769  0.1794
  459MOL0     C61832   9.174   6.989   0.792 -0.1908 -0.0035 -0.7803
  459MOL0     O61833   9.203   7.015   0.661 -0.7889 -0.0447  0.3485
  459MOL0     C61834   9.278   7.121   0.624  0.1470  0.0728 -0.2972
  459MOL0     C61835   9.223   7.192   0.515  0.3720  0.3007 -0.4965
  459MOL0     C61836   9.299   7.297   0.459  0.5045  0.7531  0.4253
  459MOL0     C61837   9.428   7.321   0.511  0.3139 -0.0129  0.1090
  459MOL0     O61838   9.515   7.417   0.463  0.1373 -0.6216  0.2000
  459MOL0     C61839   9.471   7.513   0.355  0.5580 -0.5294 -0.6419
  459MOL0     C61840   9.566   7.631   0.356  0.1051  1.0505 -0.7830
  459MOL0     C61841   9.720   7.597   0.341  0.4141  0.8493  0.4111
  459MOL0     C61842   9.804   7.598   0.465 -0.7461 -0.5206 -0.2303
  459MOL0     C61843   9.860   7.744   0.497 -0.9705 -0.3834  0.3598
  459MOL0     C61844   9.939   7.759   0.633  0.3910  0.3332  0.5057
  459MOL0     C61845   9.929   7.900   0.685  0.2272 -0.4679 -0.2956
  459MOL0     C61846  10.010   7.904   0.811 -0.3215 -1.6098 -0.7082
  459MOL0     N61847  10.008   8.027   0.896 -0.2729 -0.0669 -0.0001
  459MOL0     C61848  10.068   8.142   0.859  0.0367 -0.1015 -0.7739
  459MOL0     C61849  10.018   8.238   0.941  0.2633  0.4708 -0.7411
  459MOL0     C61850  10.052   8.381   0.921 -0.2924 -0.2555  0.3160
  459MOL0     C61851   9.936   8.475   0.889 -0.5002  0.7528  0.8505
  459MOL0     C61852   9.890   8.469   0.739  0.7034 -0.1245 -1.1073
  459MOL0     C61853   9.793   8.358   0.719  0.6183 -0.5112 -0.1544
  459MOL0     O61854   9.671   8.384   0.791 -0.4862 -0.7640 -0.1047
  459MOL0     C61855   9.575   8.288   0.795  0.6277 -0.7969  0.3379
  459MOL0     C61856   9.587   8.164   0.735 -0.2660  0.0481  0.2352
  459MOL0     C61857   9.483   8.070   0.741 -0.3043 -0.4304 -0.1373
  459MOL0     C61858   9.360   8.102   0.799  0.3865  0.2969 -0.2264
  459MOL0     C61859   9.241   8.014   0.794 -0.4587  0.3073  0.1517
  459MOL0     O61860   9.118   8.058   0.847  0.4052  0.0699 -0.5949
  459MOL0     C61861   9.002   7.981   0.820  0.0457 -1.2976  0.1030
  459MOL0     C61862   8.938   7.978   0.695  1.3862 -0.0006  0.0603
  459MOL0     C61863   8.833   7.893   0.671 -0.5919 -0.2435 -0.0587
  459MOL0     C61864   8.790   7.801   0.769 -0.1119 -0.5539 -0.4336
  459MOL0     O61865   8.686   7.706   0.753 -0.4387 -0.3179 -0.3876
  459MOL0     C61866   8.601   7.714   0.640  0.2350 -0.4722  0.5116
  459MOL0     C61867   8.511   7.587   0.639 -0.4312 -0.5431 -0.9478
  459MOL0     C61868   8.431   7.593   0.509 -0.5575  0.1388 -0.4701
  459MOL0     C61869   8.325   7.699   0.509 -0.2564  0.6808  0.2689
  459MOL0     C61870   8.220   7.693   0.392 -0.2179 -0.0796  0.0559
  459MOL0     C61871   8.266   7.740   0.250  0.7167 -0.0521  0.3215
  459MOL0     C61872   8.169   7.678   0.147  0.3843  0.0319 -0.3796
  459MOL0     C61873   8.070   7.780   0.108  0.4878 -0.2301  0.1341
  459MOL0    Cl61874   7.965   7.835   0.241  0.4371  0.0728 -0.4328
  459MOL0     C61875   8.859   7.806   0.893  0.7617  0.3499 -0.5902
  459MOL0     C61876   8.962   7.892   0.915  0.1507 -0.0480  0.4249
  459MOL0     O61877   9.249   7.920   0.716  0.1766 -0.1306 -0.0057
  459MOL0     C61878   9.353   8.225   0.863  0.0829  0.4373  0.3373
  459MOL0     C61879   9.459   8.312   0.865 -0.2544  1.1353  0.1111
  459MOL0     N61880   9.924   8.185   1.027 -0.2572 -0.6823 -0.6019
  459MOL0     N61881   9.922   8.057   0.998  0.7609  0.4179  0.4823
  459MOL0     C61882   9.479   7.254   0.622 -0.3469  0.7386 -0.7132
  459MOL0     C61883   9.408   7.144   0.664 -0.2261  0.1346  0.4399
  459MOL0     C61884   9.086   6.878   0.801 -0.0268 -0.4639 -0.4039
  459MOL0     C61885   8.963   6.890   0.725 -0.2166  0.2753  0.5116
  459MOL0     C61886   8.867   6.794   0.733  0.2597 -0.1244  0.5715
  459MOL0     C61887   8.893   6.681   0.812  0.3178  0.0471  0.3902
  459MOL0     O61888   8.825   6.566   0.824  0.4514  0.0163  0.1690
  459MOL0     C61889   8.692   6.557   0.762  0.8814 -0.4806 -0.5068
  459MOL0     C61890   8.688   6.546   0.614  0.5704  0.2939  0.0442
  459MOL0     C61891   8.737   6.409   0.561 -0.0796 -1.3798  0.0948
  459MOL0     C61892   8.693   6.273   0.616  0.2813 -0.9706 -0.8062
  459MOL0     C61893   8.542   6.255   0.604 -0.0845  0.3768  0.7615
  459MOL0     C61894   8.417   6.248   0.606 -0.7454 -0.7935  0.3823
  459MOL0     C61895   9.013   6.669   0.877 -0.8076  0.1917 -0.8795
  459MOL0     C61896   9.117   6.769   0.880  0.2389  1.1704  0.0958
  459MOL0     C61897   9.246   6.731   0.956  0.1864  0.0457 -0.8377
  459MOL0     H61898   9.132   7.159   0.466  0.7206  1.4394 -2.0060
  459MOL0     H61899   9.266   7.353   0.372 -1.5381  1.8275  1.8331
  459MOL0     H61900   9.475   7.464   0.257  0.5609  0.2764 -1.0583
  459MOL0     H61901   9.367   7.542   0.371  1.1712  2.1376 -1.0268
  459MOL0     H61902   9.548   7.690   0.447 -2.6063 -1.1533  0.2516
  459MOL0     H61903   9.546   7.691   0.267 -0.4020  1.1753 -0.5928
  459MOL0     H61904   9.769   7.663   0.268 -0.6987  0.6647 -0.5288
  459MOL0     H61905   9.723   7.500   0.292 -0.2386  0.9697  0.1289
  459MOL0     H61906   9.753   7.555   0.552  0.9006 -0.7996  0.6500
  459MOL0     H61907   9.889   7.533   0.441  0.8597  1.0044  1.0114
  459MOL0     H61908   9.930   7.769   0.417  2.6044  0.8291  3.5698
  459MOL0     H61909   9.791   7.826   0.478  1.9481  1.6600 -2.3490
  459MOL0     H61910   9.894   7.692   0.707 -0.7113  1.0087  0.4751
  459MOL0     H61911  10.044   7.732   0.615  0.0031 -0.8633 -0.0930
  459MOL0     H61912   9.824   7.922   0.710  0.6746 -0.2573  1.5440
  459MOL0     H61913   9.964   7.983   0.624  0.0799 -0.2861 -0.1331
  459MOL0     H61914   9.967   7.835   0.884  0.8853  0.3680  2.0298
  459MOL0     H61915  10.109   7.872   0.777 -0.5477 -1.2534 -1.7238
  459MOL0     H61916  10.137   8.154   0.776 -0.6904  0.7327 -1.2692
  459MOL0     H61917  10.097   8.408   1.017 -0.4290 -1.6139  0.7713
  459MOL0     H61918  10.137   8.399   0.854  1.5049 -0.2262  2.4804
  459MOL0     H61919   9.851   8.461   0.956  0.4582 -0.0185  1.9460
  459MOL0     H61920   9.974   8.573   0.917 -0.2961  1.1650 -0.7521
  459MOL0     H61921   9.988   8.462   0.692  2.1650 -0.6730  1.7979
  459MOL0     H61922   9.849   8.566   0.708  2.1090  0.2714 -1.8140
  459MOL0     H61923   9.842   8.263   0.741  0.6618 -0.2677  0.8901
  459MOL0     H61924   9.771   8.347   0.613  0.5476  1.0823 -0.3364
  459MOL0     H61925   9.677   8.149   0.676 -0.0131  2.9020 -0.2547
  459MOL0     H61926   9.517   7.971   0.711 -0.4057 -0.5863  0.2527
  459MOL0     H61927   8.969   8.052   0.622  1.0643 -1.7773 -1.9662
  459MOL0     H61928   8.793   7.901   0.570 -0.1442  1.0255 -0.1490
  459MOL0     H61929   8.536   7.802   0.639  0.7509 -0.0777 -0.9247
  459MOL0     H61930   8.651   7.720   0.542 -0.7500  0.4958  0.0509
  459MOL0     H61931   8.584   7.505   0.635  0.7064 -0.0315  3.6661
  459MOL0     H61932   8.446   7.573   0.726 -0.1796 -0.5022 -0.7531
  459MOL0     H61933   8.507   7.607   0.431  1.5196 -1.1108  1.2179
  459MOL0     H61934   8.399   7.489   0.494 -0.2301  0.1339 -1.2319
  459MOL0     H61935   8.379   7.793   0.498  1.2095 -0.2786 -1.1798
  459MOL0     H61936   8.276   7.692   0.607 -1.0183  0.0551 -0.1407
  459MOL0     H61937   8.131   7.750   0.421 -3.4765 -3.7794 -1.8298
  459MOL0     H61938   8.195   7.587   0.398 -0.2896  0.0410  3.5644
  459MOL0     H61939   8.266   7.849   0.248  0.0918  0.0401  2.5491
  459MOL0     H61940   8.370   7.711   0.234  2.5767  4.3759  2.7210
  459MOL0     H61941   8.122   7.586   0.182  2.7686 -1.5491 -1.0934
  459MOL0     H61942   8.225   7.656   0.055  1.7348 -0.6884  0.5882
  459MOL0     H61943   8.127   7.869   0.081  0.9816 -0.5501  0.1013
  459MOL0     H61944   8.013   7.747   0.020  1.3343 -1.6456  0.0707
  459MOL0     H61945   8.829   7.729   0.963  2.4126 -0.8234 -1.1064
  459MOL0     H61946   9.008   7.902   1.012 -3.1449 -0.8882  2.2341
  459MOL0     H61947   9.272   8.264   0.923  2.2962  2.3958  2.2730
  459MOL0     H61948   9.466   8.392   0.938  1.7894 -1.2341  2.7396
  459MOL0     H61949   9.579   7.273   0.660 -0.2810 -0.6450 -0.1587
  459MOL0     H61950   9.454   7.074   0.732 -1.2397 -2.5594 -1.4576
  459MOL0     H61951   8.944   6.978   0.665 -0.8911 -1.5621 -2.1343
  459MOL0     H61952   8.772   6.806   0.681  2.8801  3.5226 -4.2751
  459MOL0     H61953   8.628   6.638   0.797 -0.9762 -2.3434  0.6671
  459MOL0     H61954   8.647   6.464   0.799 -1.1568  0.2428 -1.0626
  459MOL0     H61955   8.745   6.628   0.568  1.5319 -0.8571 -0.8775
  459MOL0     H61956   8.588   6.560   0.573  1.2911 -1.7027 -2.6293
  459MOL0     H61957   8.843   6.412   0.590 -0.3220  0.3811  0.9462
  459MOL0     H61958   8.737   6.417   0.452 -0.7015  1.9757  0.2514
  459MOL0     H61959   8.746   6.188   0.574  2.1902  0.0077 -0.5001
  459MOL0     H61960   8.704   6.270   0.725 -0.9300  2.5585 -0.4449
  459MOL0     H61961   8.310   6.248   0.614 -0.7531 -0.7457  0.2720
  459MOL0     H61962   9.039   6.575   0.923 -1.3696  0.9384  1.0812
  459MOL0     H61963   9.330   6.730   0.886  0.5442 -0.2146 -0.4040
  459MOL0     H61964   9.255   6.800   1.040 -1.3961 -1.1416  0.3596
  459MOL0     H61965   9.236   6.627   0.986  1.1744  0.4380  0.9670
  460MOL0     O61966   0.784   5.087   9.503 -0.3499  0.3517 -0.7951
  460MOL0     C61967   0.737   5.101   9.390 -0.8522 -0.1980 -0.4305
  460MOL0     O61968   0.795   5.056   9.276  0.4636 -0.1851  0.3241
  460MOL0     C61969   0.930   5.038   9.274 -0.5604 -0.0929 -0.3831
  460MOL0     C61970   1.020   5.146   9.304  0.2814  0.4069 -0.1258
  460MOL0     C61971   1.159   5.118   9.312 -0.5086  0.3820  0.2867
  460MOL0     C61972   1.213   4.991   9.281 -0.0535  0.9804  0.5415
  460MOL0     O61973   1.348   4.960   9.294  0.4157  0.1975  0.5608
  460MOL0     C61974   1.399   4.941   9.162  0.5947  0.3546  0.6006
  460MOL0     C61975   1.553   4.926   9.178  0.4203 -0.3059  0.3361
  460MOL0     C61976   1.630   4.941   9.044  0.7738 -0.5766  0.0864
  460MOL0     C61977   1.768   4.882   9.047  0.9310 -0.2933  0.0178
  460MOL0     C61978   1.866   4.929   8.947  0.0833  0.8131  0.3827
  460MOL0     C61979   2.011   4.886   8.976  0.0749 -0.2104  0.0373
  460MOL0     C61980   2.046   4.749   9.012  0.2404  0.4252  0.0056
  460MOL0     C61981   2.041   4.658   8.893 -0.0177 -0.4372 -0.2580
  460MOL0     N61982   2.085   4.529   8.935  0.3162  0.0651  0.1419
  460MOL0     C61983   2.212   4.494   8.978  0.8643 -0.2104 -0.5204
  460MOL0     C61984   2.212   4.363   8.992  0.3643 -0.4946 -0.2979
  460MOL0     C61985   2.324   4.276   9.041  0.4200 -0.4730 -0.6554
  460MOL0     C61986   2.453   4.299   8.980 -0.7831  0.4785 -0.3431
  460MOL0     C61987   2.550   4.182   9.032  0.4474 -0.8920 -0.4959
  460MOL0     C61988   2.689   4.181   8.963  0.9175  0.1066 -0.0088
  460MOL0     O61989   2.687   4.149   8.826  0.0992  0.6530 -0.4003
  460MOL0     C61990   2.808   4.130   8.766 -0.0833 -0.3972  0.5829
  460MOL0     C61991   2.801   4.089   8.631 -0.5944  0.4661  0.1754
  460MOL0     C61992   2.918   4.051   8.566 -0.1442  0.1774 -0.2317
  460MOL0     C61993   3.047   4.068   8.634  0.0068  0.8343  0.7891
  460MOL0     C61994   3.170   4.034   8.565 -0.3004 -0.1636  0.3453
  460MOL0     O61995   3.278   4.008   8.646  0.5820 -0.0194  0.8858
  460MOL0     C61996   3.400   3.991   8.589 -0.7342 -0.9419  0.4248
  460MOL0     C61997   3.463   4.063   8.489  0.8370  0.6636  0.5896
  460MOL0     C61998   3.592   4.026   8.444 -0.5871 -0.3754  0.3682
  460MOL0     C61999   3.671   3.927   8.509  0.2887  0.7469  0.5196
  460MOL0     O62000   3.795   3.892   8.477 -0.4796 -0.2938  0.3796
  460MOL0     C62001   3.869   3.780   8.532  0.1042  0.1851 -0.4922
  460MOL0     C62002   3.818   3.640   8.491  0.6626  0.3869  0.2686
  460MOL0     C62003   3.808   3.623   8.336  0.1565 -0.5513 -0.0479
  460MOL0     C62004   3.725   3.499   8.308  0.3640 -0.8818  0.5884
  460MOL0     C62005   3.712   3.488   8.157  0.3295  0.3362  0.6090
  460MOL0     C62006   3.699   3.336   8.117 -0.2500 -0.4200  0.6668
  460MOL0     C62007   3.642   3.303   7.975  0.0592 -0.6364  0.0746
  460MOL0     C62008   3.659   3.162   7.924  0.3887 -0.2687  0.2698
  460MOL0    Cl62009   3.532   3.061   8.013  0.1536  0.0274 -0.2186
  460MOL0     C62010   3.610   3.861   8.609  0.4938 -0.2197  0.2279
  460MOL0     C62011   3.479   3.900   8.655 -0.1631 -0.8522  0.6013
  460MOL0     O62012   3.164   4.029   8.443 -0.0492  0.2353  0.3635
  460MOL0     C62013   3.049   4.125   8.758  0.3185 -0.4345  0.0264
  460MOL0     C62014   2.932   4.152   8.826 -0.5683 -0.1464  0.8212
  460MOL0     N62015   2.083   4.325   8.966 -0.8484  0.2520  0.1211
  460MOL0     N62016   2.007   4.424   8.942  0.2454 -0.1153  0.8324
  460MOL0     C62017   1.119   4.882   9.253 -0.2109 -0.2150  0.7694
  460MOL0     C62018   0.984   4.910   9.250  0.1165 -0.1070 -0.8155
  460MOL0     C62019   0.598   5.144   9.385  0.3359  1.1218  0.4974
  460MOL0     C62020   0.525   5.101   9.272  0.1731  0.0349 -0.1430
  460MOL0     C62021   0.387   5.134   9.269  0.1517 -0.0362  0.3771
  460MOL0     C62022   0.319   5.200   9.367 -0.2614 -0.1768 -0.5074
  460MOL0     O62023   0.189   5.232   9.345 -0.1607  0.2208 -0.2019
  460MOL0     C62024   0.155   5.365   9.378 -0.3406  0.0036  0.8390
  460MOL0     C62025   0.018   5.401   9.302 -0.4804  0.2936 -0.5494
  460MOL0     C62026  -0.097   5.297   9.328 -0.1517  0.7103 -0.0419
  460MOL0     C62027  -0.220   5.316   9.242  0.1601 -0.3077  0.1629
  460MOL0     C62028  -0.307   5.441   9.264 -0.1869  0.2486  0.1608
  460MOL0     C62029  -0.362   5.550   9.285 -0.4927  0.4242  0.7114
  460MOL0     C62030   0.392   5.231   9.481 -0.7243  0.0587 -0.4587
  460MOL0     C62031   0.526   5.204   9.497  0.0217  0.2717 -0.8450
  460MOL0     C62032   0.584   5.251   9.632 -0.3718 -0.0086  0.8770
  460MOL0     H62033   0.976   5.238   9.341 -1.6568 -0.8790  0.9756
  460MOL0     H62034   1.226   5.187   9.361 -1.1546  1.2371 -0.0154
  460MOL0     H62035   1.356   4.856   9.109 -1.1017  1.6888 -0.2927
  460MOL0     H62036   1.378   5.032   9.104 -2.3892 -0.9797 -0.6306
  460MOL0     H62037   1.581   4.829   9.220 -0.4215 -0.0067  1.6384
  460MOL0     H62038   1.579   5.005   9.250  0.4805  0.0019 -0.0198
  460MOL0     H62039   1.624   5.046   9.012 -2.3010 -0.3113  1.2065
  460MOL0     H62040   1.571   4.890   8.968  1.9334  0.3325 -1.4848
  460MOL0     H62041   1.802   4.919   9.144 -2.9707  4.5681 -0.0745
  460MOL0     H62042   1.770   4.773   9.056 -1.0008 -0.4116 -0.4644
  460MOL0     H62043   1.826   4.899   8.849  2.2196  0.0486 -0.3186
  460MOL0     H62044   1.861   5.038   8.947 -0.8168  0.7844  0.8845
  460MOL0     H62045   2.074   4.918   8.893 -1.1508  0.3223 -0.7033
  460MOL0     H62046   2.039   4.950   9.060  1.2346 -0.9466  0.2323
  460MOL0     H62047   1.980   4.718   9.093  0.6980 -0.7557 -0.0519
  460MOL0     H62048   2.147   4.766   9.050 -0.0228  5.9201 -0.8517
  460MOL0     H62049   1.941   4.661   8.847 -0.5692 -2.8545  0.6204
  460MOL0     H62050   2.108   4.705   8.821  1.1595  0.9905  1.6604
  460MOL0     H62051   2.296   4.554   9.013  0.9403 -0.6956  0.1457
  460MOL0     H62052   2.331   4.299   9.148  1.2143 -0.5667 -0.6845
  460MOL0     H62053   2.288   4.173   9.031 -1.0692  0.0265 -0.7595
  460MOL0     H62054   2.449   4.303   8.871  1.0636  1.5861 -0.4114
  460MOL0     H62055   2.491   4.396   9.014 -0.6547 -0.0124  1.0003
  460MOL0     H62056   2.509   4.083   9.011 -0.9129 -0.1855 -1.3819
  460MOL0     H62057   2.573   4.197   9.138  0.1097  0.9763 -0.6513
  460MOL0     H62058   2.751   4.105   9.012  1.4975 -0.0885 -1.0251
  460MOL0     H62059   2.737   4.279   8.967  1.4241 -0.1558  0.4724
  460MOL0     H62060   2.708   4.076   8.576 -2.0460 -1.9069  2.9557
  460MOL0     H62061   2.908   4.004   8.469  0.0712  1.0742 -0.6958
  460MOL0     H62062   3.411   4.145   8.440  3.0468  2.6789  1.3863
  460MOL0     H62063   3.635   4.087   8.364 -0.5442 -0.4672  0.3216
  460MOL0     H62064   3.968   3.790   8.487  0.3102 -2.0868 -0.6970
  460MOL0     H62065   3.873   3.780   8.642  1.2911 -0.7485 -0.5230
  460MOL0     H62066   3.882   3.560   8.528  0.8040 -1.4113 -3.4193
  460MOL0     H62067   3.722   3.612   8.534 -0.7390 -1.2753 -3.5078
  460MOL0     H62068   3.760   3.714   8.296 -1.1278 -1.0384  0.3226
  460MOL0     H62069   3.905   3.621   8.287 -0.6171  0.6283 -1.7212
  460MOL0     H62070   3.622   3.498   8.343 -0.7982 -0.9930 -2.5383
  460MOL0     H62071   3.771   3.409   8.352 -1.1155 -1.4827  0.9494
  460MOL0     H62072   3.795   3.532   8.102 -0.4221 -1.5157 -2.2922
  460MOL0     H62073   3.627   3.547   8.120  1.5021 -0.3011 -3.6076
  460MOL0     H62074   3.798   3.292   8.136 -0.2171 -1.1016 -0.8576
  460MOL0     H62075   3.636   3.285   8.190  0.6002 -1.6752  0.5672
  460MOL0     H62076   3.695   3.365   7.901 -0.4052 -2.6107 -2.0188
  460MOL0     H62077   3.540   3.340   7.960  0.1776 -0.9573 -1.6903
  460MOL0     H62078   3.634   3.168   7.818  0.0767 -2.3223  0.1771
  460MOL0     H62079   3.762   3.126   7.934  1.5990  2.3570 -1.6881
  460MOL0     H62080   3.659   3.779   8.661  0.0010 -1.2801 -0.9175
  460MOL0     H62081   3.454   3.849   8.749  0.1050  2.3730  2.5649
  460MOL0     H62082   3.148   4.151   8.795  0.2380 -1.9908  1.4464
  460MOL0     H62083   2.934   4.204   8.921 -3.0603 -0.5200  1.1481
  460MOL0     H62084   1.154   4.780   9.249  1.2745  0.2963 -2.3354
  460MOL0     H62085   0.912   4.829   9.257 -1.0882  1.0306  0.8782
  460MOL0     H62086   0.582   5.060   9.189  2.7093  1.1979  0.9015
  460MOL0     H62087   0.344   5.117   9.171  0.7648 -0.1116  0.1192
  460MOL0     H62088   0.230   5.439   9.352  0.2363 -0.3749  1.3941
  460MOL0     H62089   0.143   5.365   9.487  1.0557 -0.3655  1.0191
  460MOL0     H62090   0.050   5.409   9.197  0.0098  2.5198 -0.2861
  460MOL0     H62091  -0.010   5.502   9.332  1.6915  0.5360  0.8545
  460MOL0     H62092  -0.136   5.305   9.430 -1.3889  0.0595 -0.4373
  460MOL0     H62093  -0.066   5.194   9.308  0.4065  0.8053  0.3305
  460MOL0     H62094  -0.202   5.305   9.135 -0.0153  3.7032 -0.4285
  460MOL0     H62095  -0.297   5.239   9.258 -1.5408  1.4028  0.5389
  460MOL0     H62096  -0.409   5.643   9.306  1.8495  1.6962  0.6927
  460MOL0     H62097   0.342   5.284   9.562 -3.0300 -0.1575 -1.6527
  460MOL0     H62098   0.589   5.169   9.704 -0.7387 -0.2444  0.6345
  460MOL0     H62099   0.685   5.291   9.617 -1.2708  1.2669 -2.9386
  460MOL0     H62100   0.519   5.330   9.670 -1.2189 -0.2080 -0.1040
  461MOL0     O62101   8.756   8.188   6.641  0.3525 -0.2277 -0.5600
  461MOL0     C62102   8.792   8.260   6.730 -0.1846 -0.5375 -0.2185
  461MOL0     O62103   8.908   8.252   6.793  0.2689  0.4126  0.0872
  461MOL0     C62104   9.026   8.195   6.745 -0.6035  0.3004 -0.3394
  461MOL0     C62105   9.025   8.088   6.657  0.3093 -0.1885  0.1090
  461MOL0     C62106   9.138   8.032   6.606  0.2752  0.0518  0.8590
  461MOL0     C62107   9.266   8.066   6.659 -0.0811  0.1772 -0.9668
  461MOL0     O62108   9.377   8.009   6.610  0.0696 -0.0938 -0.2021
  461MOL0     C62109   9.476   8.085   6.539  0.6672  0.1739 -0.2164
  461MOL0     C62110   9.572   7.993   6.474 -0.0764 -0.6849 -0.3295
  461MOL0     C62111   9.703   7.975   6.555 -0.1557  0.3067  0.1159
  461MOL0     C62112   9.802   7.869   6.489  0.8189 -0.3416  0.3137
  461MOL0     C62113   9.946   7.880   6.561  0.2552 -0.4895 -0.1012
  461MOL0     C62114  10.016   8.015   6.523  0.6957  0.2092  0.5273
  461MOL0     C62115  10.140   8.048   6.610 -0.4910 -0.0862 -0.4355
  461MOL0     C62116  10.263   7.964   6.570 -0.7088  0.0510  0.4800
  461MOL0     N62117  10.291   7.868   6.682 -0.0328 -0.1682  0.0967
  461MOL0     C62118  10.229   7.751   6.722 -0.4062  0.0521  1.4954
  461MOL0     C62119  10.303   7.708   6.830 -0.2167 -0.2775 -0.2749
  461MOL0     C62120  10.296   7.592   6.922 -0.9933 -0.3296 -0.2588
  461MOL0     C62121  10.359   7.472   6.854 -0.2339  0.4686 -0.0005
  461MOL0     C62122  10.505   7.487   6.807 -0.0450 -0.4348  0.3071
  461MOL0     C62123  10.600   7.529   6.913  0.7697  0.1804 -0.0961
  461MOL0     O62124  10.729   7.495   6.873 -0.1705  0.5450  0.2572
  461MOL0     C62125  10.829   7.552   6.943 -0.2884 -0.1781 -0.7671
  461MOL0     C62126  10.954   7.496   6.920  0.0534  0.5046  0.2205
  461MOL0     C62127  11.065   7.544   6.996  0.7058 -0.3815  0.6760
  461MOL0     C62128  11.053   7.649   7.086 -0.4680  0.3117  0.3492
  461MOL0     C62129  11.165   7.707   7.166 -0.3584  0.6558 -0.6627
  461MOL0     O62130  11.285   7.628   7.171  0.0092  0.2714 -0.3548
  461MOL0     C62131  11.393   7.678   7.227 -0.8581  0.0182  0.5579
  461MOL0     C62132  11.462   7.779   7.164  0.2373  0.6655  0.5219
  461MOL0     C62133  11.584   7.823   7.213  0.4264  0.8442  1.5154
  461MOL0     C62134  11.637   7.776   7.336  0.9669  0.8112  0.1093
  461MOL0     O62135  11.756   7.824   7.386  0.1180 -0.1666 -0.4981
  461MOL0     C62136  11.797   7.954   7.341  0.4868  0.3099 -0.3567
  461MOL0     C62137  11.872   7.950   7.203  1.0500  0.2101  0.3268
  461MOL0     C62138  12.025   7.930   7.198  0.3080 -0.1896 -0.0011
  461MOL0     C62139  12.092   8.052   7.273 -0.5729 -0.4971 -0.8661
  461MOL0     C62140  12.240   8.066   7.231  1.1632 -0.0503 -0.6933
  461MOL0     C62141  12.318   8.160   7.328  0.1384 -0.5956  1.1866
  461MOL0     C62142  12.471   8.141   7.298  0.0590  0.9627 -0.6031
  461MOL0     C62143  12.542   8.248   7.380 -0.1490 -0.2750 -0.4670
  461MOL0    Cl62144  12.514   8.407   7.301 -0.0285 -0.2198 -0.0031
  461MOL0     C62145  11.557   7.676   7.402  0.3039 -0.3251  0.1457
  461MOL0     C62146  11.439   7.618   7.345  0.3771  0.1533 -0.2157
  461MOL0     O62147  11.156   7.819   7.214  0.4809 -0.3836  0.7172
  461MOL0     C62148  10.926   7.711   7.102  0.3628  0.1802  0.3041
  461MOL0     C62149  10.817   7.661   7.030  0.1232 -0.3596  0.3669
  461MOL0     N62150  10.401   7.805   6.859  0.5431 -0.2131 -0.1193
  461MOL0     N62151  10.399   7.894   6.761 -0.8848  0.3110 -0.1850
  461MOL0     C62152   9.271   8.158   6.757 -0.3286 -0.2199  0.3699
  461MOL0     C62153   9.153   8.223   6.797  0.9881  0.9792  0.1026
  461MOL0     C62154   8.702   8.369   6.768  0.2108 -0.0345  0.0129
  461MOL0     C62155   8.755   8.496   6.802  0.0030 -0.5384 -0.1554
  461MOL0     C62156   8.668   8.597   6.856 -0.0041  0.6489  0.2614
  461MOL0     C62157   8.531   8.583   6.878 -0.2386 -0.0053 -0.2818
  461MOL0     O62158   8.447   8.673   6.932  0.1640 -0.3646  0.0927
  461MOL0     C62159   8.494   8.795   6.990  0.3321  0.2178  0.3750
  461MOL0     C62160   8.377   8.874   7.044  0.3215  0.0425  0.5403
  461MOL0     C62161   8.306   8.795   7.159 -0.1337 -0.6813  0.2337
  461MOL0     C62162   8.243   8.884   7.265 -0.4738  0.6067 -0.7679
  461MOL0     C62163   8.350   8.943   7.341 -0.0112 -0.6481 -0.2739
  461MOL0     C62164   8.440   8.994   7.408 -0.1560  0.2002  0.5936
  461MOL0     C62165   8.484   8.456   6.836  0.5431  0.8720 -0.3140
  461MOL0     C62166   8.560   8.357   6.774  0.1541  0.4934  0.2720
  461MOL0     C62167   8.477   8.230   6.744  0.3486 -1.5508 -0.4413
  461MOL0     H62168   8.926   8.051   6.636 -0.4146  0.0007  2.7942
  461MOL0     H62169   9.140   7.952   6.533  3.1265  0.4204  0.4157
  461MOL0     H62170   9.421   8.144   6.465 -0.3837  0.1874  0.5529
  461MOL0     H62171   9.526   8.142   6.619 -0.3877 -2.2793  2.3843
  461MOL0     H62172   9.597   8.034   6.376  2.7232 -0.9263  0.1964
  461MOL0     H62173   9.540   7.890   6.461  1.9142 -1.3918  0.0397
  461MOL0     H62174   9.684   7.941   6.657  1.2748  0.7010  0.5387
  461MOL0     H62175   9.750   8.074   6.564  0.2714  0.4214 -2.5245
  461MOL0     H62176   9.751   7.775   6.511  0.2893  0.1038  1.0307
  461MOL0     H62177   9.806   7.885   6.381  1.5585 -2.1488  0.0464
  461MOL0     H62178   9.928   7.872   6.669 -2.1097  0.5111 -0.3452
  461MOL0     H62179  10.007   7.800   6.518  2.0965  2.0199 -2.5722
  461MOL0     H62180  10.039   8.012   6.416 -3.5492  2.6230 -0.6840
  461MOL0     H62181   9.945   8.097   6.534  0.1516 -0.2123  0.2360
  461MOL0     H62182  10.123   8.053   6.718  0.9139 -0.5807 -0.1655
  461MOL0     H62183  10.157   8.151   6.577  1.1779 -0.2122 -0.0423
  461MOL0     H62184  10.246   7.913   6.475 -1.6398 -0.3585  0.8505
  461MOL0     H62185  10.352   8.024   6.548 -1.3227 -0.2368 -3.4348
  461MOL0     H62186  10.158   7.690   6.666 -1.4741  0.9798  1.7967
  461MOL0     H62187  10.346   7.612   7.017 -1.3384  0.9665 -0.3307
  461MOL0     H62188  10.191   7.580   6.952 -0.8141  0.7763  0.8714
  461MOL0     H62189  10.374   7.391   6.925  0.7812  0.4680 -0.2047
  461MOL0     H62190  10.301   7.426   6.773  1.5058 -1.0617 -0.4521
  461MOL0     H62191  10.521   7.556   6.723 -0.1354 -0.6134  0.1411
  461MOL0     H62192  10.541   7.390   6.770 -2.4866 -0.6090 -1.9102
  461MOL0     H62193  10.565   7.486   7.007 -0.2944 -1.8861 -1.3540
  461MOL0     H62194  10.580   7.636   6.925 -2.9808 -0.4448  0.4438
  461MOL0     H62195  10.962   7.408   6.857  0.4559  0.2822  0.5775
  461MOL0     H62196  11.161   7.496   6.983  0.9894  0.2599  0.3476
  461MOL0     H62197  11.431   7.802   7.063  3.1006 -1.5420 -1.0302
  461MOL0     H62198  11.627   7.909   7.163 -1.2427  2.6535  3.0531
  461MOL0     H62199  11.710   8.020   7.346  0.8435  0.7177  2.8419
  461MOL0     H62200  11.861   7.994   7.420 -0.2224 -1.2315  1.0491
  461MOL0     H62201  11.821   7.885   7.131  1.3676 -1.2576  1.3700
  461MOL0     H62202  11.854   8.050   7.164 -2.1220  0.2931  1.6622
  461MOL0     H62203  12.052   7.838   7.250  0.8330  0.7651  1.4798
  461MOL0     H62204  12.053   7.923   7.092 -0.8541 -3.0357 -0.1954
  461MOL0     H62205  12.076   8.042   7.381 -1.1479  1.6697 -0.6934
  461MOL0     H62206  12.048   8.150   7.252  1.5247  0.8490  0.5656
  461MOL0     H62207  12.248   8.096   7.126  0.5560  0.3085 -0.6463
  461MOL0     H62208  12.287   7.968   7.238 -0.0449 -0.5940  0.1825
  461MOL0     H62209  12.286   8.264   7.313  0.3947 -0.5658  0.8305
  461MOL0     H62210  12.295   8.128   7.430 -0.8005 -0.4235  1.0354
  461MOL0     H62211  12.507   8.147   7.195  3.1735 -1.5597  0.1621
  461MOL0     H62212  12.495   8.045   7.345 -0.5373  1.1228  0.0615
  461MOL0     H62213  12.494   8.255   7.478 -2.6056  2.4677 -1.7195
  461MOL0     H62214  12.649   8.228   7.387 -0.1167  0.2389  0.9282
  461MOL0     H62215  11.584   7.638   7.500 -2.2982  0.4050  1.2426
  461MOL0     H62216  11.391   7.531   7.388 -0.3766  0.7768  0.2404
  461MOL0     H62217  10.912   7.780   7.184 -1.6453 -0.4663  0.5571
  461MOL0     H62218  10.722   7.712   7.045 -0.6477  1.0616 -6.1497
  461MOL0     H62219   9.367   8.169   6.805 -1.4161 -2.2090  3.3124
  461MOL0     H62220   9.162   8.293   6.879 -0.7099  1.5660 -0.1596
  461MOL0     H62221   8.861   8.514   6.786 -0.2223 -0.8467 -2.3293
  461MOL0     H62222   8.717   8.690   6.883  0.1971 -0.1854  3.1198
  461MOL0     H62223   8.542   8.860   6.917 -0.8469  0.8821  0.1693
  461MOL0     H62224   8.556   8.774   7.078 -0.7936  2.7996  1.9071
  461MOL0     H62225   8.307   8.888   6.961 -1.8545  1.0717  2.4406
  461MOL0     H62226   8.416   8.968   7.084  1.6677 -0.5613  0.7060
  461MOL0     H62227   8.374   8.724   7.208  1.8906 -0.9372 -2.6914
  461MOL0     H62228   8.230   8.736   7.107  0.1363  1.0779 -2.3640
  461MOL0     H62229   8.186   8.964   7.217 -0.5886  1.9351  1.4802
  461MOL0     H62230   8.175   8.819   7.320 -1.2746 -1.1034 -3.5544
  461MOL0     H62231   8.515   9.028   7.476  1.1938  1.0879 -1.2581
  461MOL0     H62232   8.380   8.436   6.857  0.7635  1.2616  1.2975
  461MOL0     H62233   8.425   8.204   6.837 -1.7559  1.0500 -0.7707
  461MOL0     H62234   8.414   8.243   6.655 -0.6277 -2.1528  0.1436
  461MOL0     H62235   8.538   8.144   6.713 -0.3424 -1.6943 -1.4546
  462MOL0     O62236   7.923  11.059   0.073 -0.6556 -0.0487 -0.1441
  462MOL0     C62237   7.887  11.023  -0.041 -0.7822 -0.0681 -0.1267
  462MOL0     O62238   7.947  11.058  -0.159  0.8791 -0.8576  0.5053
  462MOL0     C62239   8.060  11.132  -0.136  0.8646 -0.0761  0.3015
  462MOL0     C62240   8.182  11.065  -0.166 -0.0001 -0.5848 -0.9480
  462MOL0     C62241   8.307  11.127  -0.130  0.5161 -0.3754 -0.2569
  462MOL0     C62242   8.305  11.252  -0.066 -0.4659 -0.2971 -0.8200
  462MOL0     O62243   8.425  11.313  -0.026  0.4062 -0.3235 -0.2554
  462MOL0     C62244   8.418  11.444   0.030  0.9491  0.8135 -0.2675
  462MOL0     C62245   8.566  11.488   0.052 -0.2743  0.3608  0.8947
  462MOL0     C62246   8.631  11.511  -0.072 -0.4547 -0.8507 -0.5016
  462MOL0     C62247   8.778  11.557  -0.049  0.1470  0.2548  0.7872
  462MOL0     C62248   8.841  11.576  -0.193 -0.2445  1.1153 -0.1625
  462MOL0     C62249   8.786  11.695  -0.267  0.0961 -0.4292  0.5138
  462MOL0     C62250   8.866  11.744  -0.389  0.3162 -0.9704 -0.2097
  462MOL0     C62251   8.892  11.634  -0.488 -0.5597 -0.0642 -0.6131
  462MOL0     N62252   8.957  11.679  -0.616  0.2727  0.2792  0.2591
  462MOL0     C62253   9.083  11.711  -0.637  0.4863 -0.9230  0.3394
  462MOL0     C62254   9.097  11.743  -0.768  0.6596 -0.1700 -0.2636
  462MOL0     C62255   9.211  11.812  -0.834 -0.7967 -0.0011 -0.3241
  462MOL0     C62256   9.357  11.761  -0.797 -0.4653 -1.0523  0.3988
  462MOL0     C62257   9.356  11.617  -0.854  0.6107  1.5381 -0.0870
  462MOL0     C62258   9.503  11.556  -0.846  0.0804  0.1467 -0.5555
  462MOL0     O62259   9.590  11.623  -0.940 -0.0703  0.3407  0.6015
  462MOL0     C62260   9.725  11.573  -0.937  0.1870 -0.5012  0.3078
  462MOL0     C62261   9.813  11.645  -1.021 -0.0665  0.1742 -0.0196
  462MOL0     C62262   9.949  11.606  -1.031 -0.2489 -0.6787 -0.0440
  462MOL0     C62263  10.002  11.494  -0.957  0.4640  0.1203 -0.5258
  462MOL0     C62264  10.149  11.464  -0.953 -0.6122 -0.1498 -0.2692
  462MOL0     O62265  10.198  11.368  -0.871  0.4401 -0.2448  0.2943
  462MOL0     C62266  10.326  11.320  -0.876 -0.7320 -0.7322 -1.7358
  462MOL0     C62267  10.360  11.203  -0.808 -0.1918  0.0787 -0.1884
  462MOL0     C62268  10.484  11.135  -0.820  0.3480 -0.4200 -0.0105
  462MOL0     C62269  10.587  11.195  -0.889 -0.0696  0.0199  0.3150
  462MOL0     O62270  10.708  11.134  -0.886  0.4649  0.4533  0.3753
  462MOL0     C62271  10.829  11.212  -0.860 -0.0511  0.0732  0.7424
  462MOL0     C62272  10.936  11.121  -0.813  0.8008  0.5271  0.3914
  462MOL0     C62273  11.059  11.106  -0.910  0.3820 -1.2109 -0.2187
  462MOL0     C62274  11.168  11.036  -0.832  0.5680 -0.2284  0.4159
  462MOL0     C62275  11.298  11.032  -0.916  0.5103 -0.2482  0.2362
  462MOL0     C62276  11.305  10.924  -1.025 -0.5385 -0.5858  0.1389
  462MOL0     C62277  11.420  10.946  -1.134  0.2090 -0.4488 -0.5223
  462MOL0     C62278  11.563  10.944  -1.080 -0.9602 -0.2491 -0.1546
  462MOL0    Cl62279  11.671  10.965  -1.217  0.1289  0.1859  0.2731
  462MOL0     C62280  10.561  11.321  -0.941 -0.0750  0.2660 -0.8184
  462MOL0     C62281  10.442  11.388  -0.929  0.2903 -0.0988  0.5783
  462MOL0     O62282  10.216  11.537  -1.023  0.1549 -0.3664  0.1637
  462MOL0     C62283   9.913  11.423  -0.873  1.2678 -0.2071  0.5037
  462MOL0     C62284   9.776  11.464  -0.871 -0.7107 -0.7892  0.1448
  462MOL0     N62285   8.973  11.732  -0.828 -0.1864  0.0954  0.7412
  462MOL0     N62286   8.888  11.696  -0.735  0.0008 -0.4092 -0.4737
  462MOL0     C62287   8.177  11.311  -0.042 -0.4792 -0.4888 -0.3155
  462MOL0     C62288   8.058  11.259  -0.080 -0.3795 -1.2420 -0.0472
  462MOL0     C62289   7.778  10.923  -0.060  0.1392 -0.6746 -0.4863
  462MOL0     C62290   7.746  10.869  -0.188 -0.6870 -0.7207  0.3421
  462MOL0     C62291   7.637  10.788  -0.213 -0.2615  0.1558 -0.4421
  462MOL0     C62292   7.565  10.732  -0.113  0.0709 -0.5713 -0.5122
  462MOL0     O62293   7.457  10.647  -0.122  0.3577 -0.1406 -0.4349
  462MOL0     C62294   7.416  10.595  -0.249 -0.1828 -0.1615  0.1002
  462MOL0     C62295   7.292  10.498  -0.234 -0.1282 -0.2679 -0.2583
  462MOL0     C62296   7.179  10.554  -0.149  0.1811  0.1447 -0.2967
  462MOL0     C62297   7.068  10.457  -0.103  0.4375  0.4636  0.8081
  462MOL0     C62298   6.955  10.525  -0.039  0.1114  1.2227  0.2085
  462MOL0     C62299   6.852  10.573  -0.006 -0.0935  0.6299  0.2645
  462MOL0     C62300   7.607  10.763   0.016 -0.1027 -0.2745 -0.5391
  462MOL0     C62301   7.695  10.871   0.052 -0.3444  0.1429  0.3608
  462MOL0     C62302   7.710  10.919   0.187 -0.2877 -0.2152 -0.5468
  462MOL0     H62303   8.173  10.970  -0.219 -5.4780  0.9596 -3.4688
  462MOL0     H62304   8.405  11.084  -0.151  0.8147 -0.1058  0.5373
  462MOL0     H62305   8.366  11.513  -0.037 -3.2944 -1.1368  0.6695
  462MOL0     H62306   8.357  11.446   0.121 -1.6476 -3.0076 -1.6717
  462MOL0     H62307   8.621  11.417   0.113 -0.2063 -1.4067 -1.1134
  462MOL0     H62308   8.557  11.585   0.102 -1.3155  2.3299 -2.6911
  462MOL0     H62309   8.571  11.583  -0.129 -1.5030  0.8846  2.5674
  462MOL0     H62310   8.636  11.415  -0.124  2.4068 -1.0982  0.0852
  462MOL0     H62311   8.793  11.650   0.007  1.6415 -0.1101  1.0440
  462MOL0     H62312   8.832  11.475  -0.001 -1.8025 -0.4087  1.9366
  462MOL0     H62313   8.949  11.589  -0.181  0.3677 -1.2028 -2.3421
  462MOL0     H62314   8.834  11.481  -0.246 -1.0256 -0.4623  2.5637
  462MOL0     H62315   8.689  11.668  -0.309  0.6755 -0.3170 -0.9423
  462MOL0     H62316   8.776  11.779  -0.198  1.0106 -0.2524  0.4502
  462MOL0     H62317   8.962  11.787  -0.361 -0.6526  0.8688  0.3973
  462MOL0     H62318   8.802  11.814  -0.442  2.1265  0.4132 -0.6756
  462MOL0     H62319   8.953  11.564  -0.430  0.6893  0.6014 -1.0703
  462MOL0     H62320   8.802  11.580  -0.517 -0.0199 -0.4622 -1.6091
  462MOL0     H62321   9.159  11.731  -0.562 -0.5270  3.9445  0.4082
  462MOL0     H62322   9.207  11.820  -0.943 -0.5137 -0.0791 -0.3396
  462MOL0     H62323   9.200  11.911  -0.788  2.7649  0.0144  0.7884
  462MOL0     H62324   9.430  11.826  -0.845 -2.2047  1.2277  0.6571
  462MOL0     H62325   9.380  11.759  -0.690  1.1552 -0.7451  0.0864
  462MOL0     H62326   9.313  11.610  -0.954  1.0169  1.0506 -0.2302
  462MOL0     H62327   9.292  11.560  -0.788  0.0636  0.5887 -1.4024
  462MOL0     H62328   9.502  11.447  -0.857  3.9978  0.0666 -1.6006
  462MOL0     H62329   9.544  11.583  -0.748 -1.0338  3.8485 -0.9535
  462MOL0     H62330   9.768  11.724  -1.080  0.9831 -0.7857 -2.2192
  462MOL0     H62331  10.032  11.659  -1.076  2.3368 -1.7430  3.0618
  462MOL0     H62332  10.275  11.153  -0.764 -0.6337  0.2478 -0.8297
  462MOL0     H62333  10.504  11.035  -0.783 -2.3536 -1.6074 -1.4423
  462MOL0     H62334  10.865  11.277  -0.941  3.5870 -0.1322  2.0131
  462MOL0     H62335  10.812  11.282  -0.778 -3.8764  0.0572  0.1245
  462MOL0     H62336  10.978  11.159  -0.720  1.8384 -0.1955  0.2237
  462MOL0     H62337  10.888  11.023  -0.803  1.0013 -0.2920 -4.1851
  462MOL0     H62338  11.024  11.051  -0.998 -1.4741 -0.6857  0.1533
  462MOL0     H62339  11.099  11.201  -0.945 -1.6208  0.1572  0.9872
  462MOL0     H62340  11.140  10.935  -0.800  1.1836 -1.0179 -1.4283
  462MOL0     H62341  11.197  11.104  -0.751  2.1348  2.7754 -2.4395
  462MOL0     H62342  11.382  11.011  -0.849 -1.2273 -1.8640  2.0049
  462MOL0     H62343  11.308  11.133  -0.957 -2.5324  0.8628  1.8921
  462MOL0     H62344  11.318  10.826  -0.978 -0.1985 -0.1141  1.0597
  462MOL0     H62345  11.210  10.928  -1.079 -1.3426 -0.8088  1.4665
  462MOL0     H62346  11.394  11.046  -1.171  0.2058 -0.2874 -0.0949
  462MOL0     H62347  11.418  10.875  -1.217 -1.8365 -1.7785  0.5977
  462MOL0     H62348  11.585  11.021  -1.006 -0.8389 -1.5290  1.1943
  462MOL0     H62349  11.583  10.844  -1.040  1.6414  0.4781  0.5138
  462MOL0     H62350  10.649  11.376  -0.973 -0.8504 -0.3055 -4.3314
  462MOL0     H62351  10.440  11.486  -0.977 -0.7208 -0.1140  0.5801
  462MOL0     H62352   9.955  11.355  -0.800  2.7259  1.6673  1.4961
  462MOL0     H62353   9.713  11.400  -0.809  1.5813 -2.6184  0.7330
  462MOL0     H62354   8.180  11.407   0.008  1.1228 -0.8365  0.3221
  462MOL0     H62355   7.965  11.303  -0.042  0.9462  0.7326  1.1353
  462MOL0     H62356   7.799  10.910  -0.274 -2.3682 -1.1135 -0.9486
  462MOL0     H62357   7.602  10.761  -0.313  0.9149  1.2953 -1.1928
  462MOL0     H62358   7.495  10.538  -0.298 -0.7430 -0.4842 -0.4396
  462MOL0     H62359   7.372  10.672  -0.312  1.9672  0.0191 -1.2674
  462MOL0     H62360   7.332  10.405  -0.193 -1.6720 -1.1300 -0.5984
  462MOL0     H62361   7.250  10.485  -0.334  0.5044 -0.3382 -0.5125
  462MOL0     H62362   7.128  10.628  -0.211  0.1096  1.0332  0.7896
  462MOL0     H62363   7.218  10.601  -0.058 -0.2617  1.1369 -0.6116
  462MOL0     H62364   7.038  10.413  -0.198 -1.0746  2.4393  0.3078
  462MOL0     H62365   7.098  10.379  -0.033 -0.8520 -0.3859  0.4453
  462MOL0     H62366   6.760  10.622   0.019  0.2074  1.1341  0.3950
  462MOL0     H62367   7.545  10.722   0.095 -0.5435 -2.2222 -1.8293
  462MOL0     H62368   7.626  10.895   0.252  1.1672  0.6728  1.7959
  462MOL0     H62369   7.802  10.886   0.237 -0.1355  0.9472 -0.0445
  462MOL0     H62370   7.716  11.028   0.178 -0.5148  0.0714  2.1583
  463MOL0     O62371   4.102   1.064   5.242  0.6090  0.7930 -0.0384
  463MOL0     C62372   4.070   1.182   5.250 -0.1370  0.5150  0.2909
  463MOL0     O62373   4.154   1.277   5.291  0.4381 -0.1150 -0.1835
  463MOL0     C62374   4.287   1.254   5.304 -0.5564  0.3937 -0.0679
  463MOL0     C62375   4.371   1.175   5.225 -0.1953  0.1759  0.2169
  463MOL0     C62376   4.513   1.171   5.243 -0.4493 -0.3703 -0.3132
  463MOL0     C62377   4.576   1.235   5.348 -0.2699  0.9060  0.7164
  463MOL0     O62378   4.707   1.223   5.363 -0.3715 -0.6321  0.4414
  463MOL0     C62379   4.776   1.345   5.395 -0.8074  0.2495  0.0674
  463MOL0     C62380   4.912   1.361   5.318  0.0844  0.3102  0.1590
  463MOL0     C62381   5.013   1.241   5.334  0.1966  0.3904  0.3621
  463MOL0     C62382   5.133   1.256   5.240  0.5789  0.6263 -0.0571
  463MOL0     C62383   5.234   1.147   5.245 -0.4538 -0.1547  0.1250
  463MOL0     C62384   5.173   1.016   5.189  0.5483 -0.2152  0.8341
  463MOL0     C62385   5.280   0.907   5.171  0.4096 -0.5297  0.2409
  463MOL0     C62386   5.381   0.936   5.059  0.3179  0.2842 -0.1116
  463MOL0     N62387   5.316   0.938   4.932 -0.2599  0.5288  0.6104
  463MOL0     C62388   5.270   0.823   4.858  0.0162 -0.0627 -0.1530
  463MOL0     C62389   5.237   0.885   4.743 -0.4182  0.3372 -0.3442
  463MOL0     C62390   5.191   0.804   4.627  0.1333  0.7258  0.4325
  463MOL0     C62391   5.038   0.818   4.614  0.3987 -0.3109  0.2900
  463MOL0     C62392   4.993   0.724   4.494  0.5355 -0.3031 -0.1002
  463MOL0     C62393   4.828   0.715   4.476 -1.2028  0.3681  0.5024
  463MOL0     O62394   4.757   0.836   4.504  0.1268 -0.4022 -0.2497
  463MOL0     C62395   4.622   0.840   4.479 -0.1666 -0.0319 -0.1342
  463MOL0     C62396   4.541   0.739   4.430 -1.1130  0.1395  1.2560
  463MOL0     C62397   4.405   0.751   4.414  0.9471  0.1017 -0.0888
  463MOL0     C62398   4.345   0.870   4.441  0.9228  0.3986 -0.6637
  463MOL0     C62399   4.194   0.894   4.413  0.8388 -0.0920  0.1010
  463MOL0     O62400   4.129   0.774   4.396  0.0912  0.3274  0.6968
  463MOL0     C62401   4.008   0.754   4.332 -0.3964  0.4068 -0.7926
  463MOL0     C62402   3.932   0.842   4.252  0.1159 -0.9052  0.3935
  463MOL0     C62403   3.804   0.818   4.201 -0.3377 -0.3032 -0.2825
  463MOL0     C62404   3.745   0.690   4.231 -0.8068 -0.3464 -0.2104
  463MOL0     O62405   3.619   0.663   4.181  0.5550  0.1841 -0.2234
  463MOL0     C62406   3.527   0.591   4.266  1.0203 -0.1588  0.0386
  463MOL0     C62407   3.383   0.626   4.218  0.7359 -0.1519 -0.0955
  463MOL0     C62408   3.344   0.562   4.084 -0.2696 -0.0044  0.0800
  463MOL0     C62409   3.193   0.595   4.070  0.3361  0.0899 -0.5671
  463MOL0     C62410   3.139   0.501   3.969  0.6632  0.0779  0.9619
  463MOL0     C62411   2.988   0.500   3.962  0.2450  0.4139  0.7013
  463MOL0     C62412   2.946   0.402   3.855  1.0468 -0.4028  0.7642
  463MOL0     C62413   2.817   0.333   3.891  0.7404  0.8858 -0.3152
  463MOL0    Cl62414   2.694   0.460   3.915 -0.2539 -0.1598 -0.4303
  463MOL0     C62415   3.834   0.594   4.296 -0.8676 -0.1841 -0.3279
  463MOL0     C62416   3.960   0.623   4.343  0.2183 -0.3886  0.6258
  463MOL0     O62417   4.140   1.010   4.399 -0.8917 -0.2968 -0.4365
  463MOL0     C62418   4.421   0.975   4.486  0.0739  0.3546  0.1721
  463MOL0     C62419   4.562   0.963   4.505  0.0970  0.5455 -0.6309
  463MOL0     N62420   5.249   1.025   4.746 -0.2992  0.0368  0.2179
  463MOL0     N62421   5.309   1.052   4.868  0.4963  0.7699  1.0959
  463MOL0     C62422   4.488   1.307   5.432 -0.7986 -0.3519 -0.1485
  463MOL0     C62423   4.352   1.317   5.411 -0.9553 -0.9623 -0.0452
  463MOL0     C62424   3.928   1.213   5.220 -0.2107 -0.4784 -0.3300
  463MOL0     C62425   3.879   1.334   5.260  0.2225  0.8516 -1.2959
  463MOL0     C62426   3.746   1.380   5.242  0.3172 -0.2513 -0.1762
  463MOL0     C62427   3.649   1.294   5.196  0.4010 -0.2476  0.1781
  463MOL0     O62428   3.514   1.329   5.182 -0.1991  0.1369  0.1020
  463MOL0     C62429   3.469   1.462   5.192 -1.2959  0.1431  0.4020
  463MOL0     C62430   3.319   1.478   5.168 -0.4067  0.8402  0.0592
  463MOL0     C62431   3.243   1.394   5.272 -0.2811  0.1549  0.6533
  463MOL0     C62432   3.098   1.426   5.263 -0.0308  0.0905  0.2250
  463MOL0     C62433   3.039   1.376   5.145  0.1888  0.2905  0.6914
  463MOL0     C62434   2.992   1.326   5.044  0.3734  0.1986  0.0662
  463MOL0     C62435   3.690   1.178   5.158 -0.3932 -0.5480 -0.1562
  463MOL0     C62436   3.830   1.135   5.160  1.7986 -0.1765 -0.1301
  463MOL0     C62437   3.863   0.998   5.089  0.0584 -0.1216  0.2157
  463MOL0     H62438   4.332   1.122   5.139 -0.4106  1.7978 -0.7277
  463MOL0     H62439   4.562   1.113   5.166 -3.9008 -1.6300 -1.7533
  463MOL0     H62440   4.726   1.440   5.376 -0.4805  0.7657  1.6445
  463MOL0     H62441   4.794   1.341   5.503  2.5750  0.5765 -0.3650
  463MOL0     H62442   4.964   1.452   5.348 -0.1934  0.1288  1.2208
  463MOL0     H62443   4.882   1.368   5.213 -0.7540 -2.0085  0.1805
  463MOL0     H62444   4.975   1.139   5.324  0.0575  0.5953 -1.4951
  463MOL0     H62445   5.053   1.236   5.435 -0.5528 -0.2740  0.6358
  463MOL0     H62446   5.094   1.261   5.138  2.5884 -1.1968 -0.9951
  463MOL0     H62447   5.180   1.351   5.268  2.3743 -0.1255 -0.4185
  463MOL0     H62448   5.309   1.196   5.181 -1.2766 -0.3254 -1.0163
  463MOL0     H62449   5.273   1.118   5.342 -0.1378  0.5131  0.2028
  463MOL0     H62450   5.100   0.970   5.257  0.0752 -1.2313 -0.3314
  463MOL0     H62451   5.119   1.040   5.097  2.4331 -0.7151 -0.4590
  463MOL0     H62452   5.235   0.814   5.133  2.6953 -0.0979 -4.2868
  463MOL0     H62453   5.330   0.891   5.267  2.0947  0.6001 -0.3887
  463MOL0     H62454   5.422   1.034   5.084  1.6642  0.5316 -2.9000
  463MOL0     H62455   5.461   0.861   5.059 -0.3019 -0.3883 -0.5081
  463MOL0     H62456   5.254   0.719   4.885 -1.1217 -1.0743 -4.0766
  463MOL0     H62457   5.233   0.848   4.537 -2.0420  0.3689 -0.8168
  463MOL0     H62458   5.203   0.696   4.637 -3.8533  0.1726  0.8439
  463MOL0     H62459   4.992   0.781   4.706 -0.7065  0.9601  0.2733
  463MOL0     H62460   4.998   0.918   4.595 -0.8758 -0.8890 -0.1934
  463MOL0     H62461   5.038   0.626   4.510  0.2054 -0.2859  1.0311
  463MOL0     H62462   5.037   0.760   4.400 -0.0728  0.3636 -0.1391
  463MOL0     H62463   4.782   0.635   4.535 -1.1180 -0.2136 -0.2084
  463MOL0     H62464   4.827   0.684   4.371 -1.2216 -1.0311  0.8940
  463MOL0     H62465   4.589   0.646   4.402 -0.9170  0.4374  0.5734
  463MOL0     H62466   4.349   0.666   4.375 -1.4021  0.3618  2.3746
  463MOL0     H62467   3.979   0.933   4.215  1.1375 -1.6334 -0.1222
  463MOL0     H62468   3.763   0.896   4.138 -0.0502  0.5725  0.5899
  463MOL0     H62469   3.554   0.486   4.251  0.6670 -0.0750 -1.2841
  463MOL0     H62470   3.539   0.624   4.370 -0.1862  1.4870 -0.2961
  463MOL0     H62471   3.315   0.584   4.292 -0.2040 -1.1075 -1.4647
  463MOL0     H62472   3.371   0.735   4.222 -0.7963 -0.2951 -0.3940
  463MOL0     H62473   3.390   0.608   3.996 -1.0606 -0.2682 -0.4885
  463MOL0     H62474   3.380   0.459   4.084 -0.2368 -0.0064  1.4012
  463MOL0     H62475   3.177   0.700   4.045  0.9673  1.6132  4.4417
  463MOL0     H62476   3.125   0.583   4.154 -1.2004  0.3928 -1.7355
  463MOL0     H62477   3.172   0.398   3.985  2.3449  0.6279  1.2137
  463MOL0     H62478   3.179   0.541   3.875 -1.1289 -0.1273  0.0664
  463MOL0     H62479   2.943   0.467   4.056 -0.4508  0.8039  0.5158
  463MOL0     H62480   2.941   0.596   3.939 -3.6408 -1.7386 -1.4072
  463MOL0     H62481   3.028   0.330   3.839  2.9757  1.9454 -0.6582
  463MOL0     H62482   2.929   0.460   3.764 -1.2247 -3.5809 -1.0450
  463MOL0     H62483   2.776   0.270   3.811 -1.7779 -0.1471  1.6567
  463MOL0     H62484   2.836   0.261   3.971  3.5693  0.4508 -1.2566
  463MOL0     H62485   3.788   0.500   4.323 -0.3983 -0.7841 -1.5156
  463MOL0     H62486   4.013   0.547   4.399  1.2527 -1.2876 -1.4668
  463MOL0     H62487   4.379   1.074   4.498  0.9703  0.8582 -0.7523
  463MOL0     H62488   4.619   1.045   4.547  1.1306 -1.0549  1.2635
  463MOL0     H62489   4.537   1.348   5.520  1.1674 -3.1632  0.1909
  463MOL0     H62490   4.298   1.365   5.492 -0.4971  0.9222 -0.8086
  463MOL0     H62491   3.944   1.410   5.304 -2.0639  3.2295 -1.7787
  463MOL0     H62492   3.715   1.472   5.292 -1.1161 -0.7703 -0.0609
  463MOL0     H62493   3.530   1.518   5.120 -0.2300 -2.0218 -0.4853
  463MOL0     H62494   3.491   1.491   5.295 -0.0695  0.3519  0.1047
  463MOL0     H62495   3.297   1.439   5.068 -0.3700  2.1408 -0.4701
  463MOL0     H62496   3.274   1.577   5.177  0.1626  0.9713  1.9225
  463MOL0     H62497   3.279   1.425   5.370 -1.0586  0.4093  0.8669
  463MOL0     H62498   3.250   1.285   5.269  0.1241  0.1856 -2.6156
  463MOL0     H62499   3.055   1.381   5.353  1.0239  2.7168  2.2077
  463MOL0     H62500   3.083   1.535   5.261  2.0620  0.4788  2.1530
  463MOL0     H62501   2.958   1.278   4.955  0.7441 -0.7882  0.4494
  463MOL0     H62502   3.609   1.115   5.122  0.8426 -3.1504  1.3385
  463MOL0     H62503   3.777   0.953   5.038 -0.2225 -0.2491  0.7935
  463MOL0     H62504   3.954   1.002   5.028 -1.4229 -1.7002 -2.2594
  463MOL0     H62505   3.886   0.929   5.171  0.0531  1.7137  1.8278
  464MOL0     O62506  10.996   3.231   8.689  0.0894  0.8459  0.0399
  464MOL0     C62507  10.915   3.292   8.616  0.1152  0.8533  0.7295
  464MOL0     O62508  10.948   3.391   8.526 -0.1129  0.5389  0.2304
  464MOL0     C62509  11.082   3.413   8.517  0.2127  0.3226  0.5922
  464MOL0     C62510  11.143   3.481   8.615  0.1373  0.0216 -0.4827
  464MOL0     C62511  11.279   3.512   8.618 -0.1059  0.1769  0.8499
  464MOL0     C62512  11.347   3.490   8.495  0.6300 -0.1274  0.1809
  464MOL0     O62513  11.473   3.530   8.488 -0.0125  0.2506 -0.0611
  464MOL0     C62514  11.581   3.446   8.542  0.0335 -0.0105  0.3916
  464MOL0     C62515  11.617   3.484   8.682  0.6465  0.4817  0.1442
  464MOL0     C62516  11.737   3.397   8.734 -0.0540 -0.5837  0.4232
  464MOL0     C62517  11.870   3.461   8.673  0.1159 -0.1217 -0.2277
  464MOL0     C62518  11.995   3.410   8.755  0.1676 -0.5399 -0.1285
  464MOL0     C62519  12.123   3.462   8.683 -0.3168 -0.5951  0.5723
  464MOL0     C62520  12.137   3.618   8.657  0.6923 -0.1788  0.3022
  464MOL0     C62521  12.283   3.645   8.647 -1.2064 -0.2135 -0.2246
  464MOL0     N62522  12.353   3.563   8.542 -0.6901 -0.9126 -0.5523
  464MOL0     C62523  12.300   3.523   8.421  0.4016 -1.4646 -0.0707
  464MOL0     C62524  12.399   3.468   8.357 -0.1956  0.6623 -0.5426
  464MOL0     C62525  12.386   3.386   8.231  0.0846 -0.4564  0.5187
  464MOL0     C62526  12.531   3.376   8.165  0.3053 -0.9608  0.3295
  464MOL0     C62527  12.530   3.285   8.043  0.0246 -0.1409 -0.5184
  464MOL0     C62528  12.664   3.238   7.984 -0.4675  0.1678 -0.6851
  464MOL0     O62529  12.736   3.344   7.922 -0.1340  0.1647 -0.0968
  464MOL0     C62530  12.863   3.314   7.880 -0.5355 -0.1876  1.1804
  464MOL0     C62531  12.956   3.418   7.859 -1.0183  0.3104 -0.0699
  464MOL0     C62532  13.088   3.397   7.799  0.6114  0.7326  0.6669
  464MOL0     C62533  13.121   3.261   7.758 -0.8280  0.4490 -0.1294
  464MOL0     C62534  13.249   3.237   7.696  0.6537 -0.1791  0.7537
  464MOL0     O62535  13.323   3.357   7.681 -0.1749  0.4955 -0.2199
  464MOL0     C62536  13.429   3.374   7.589  0.4440 -0.0097 -0.5172
  464MOL0     C62537  13.553   3.302   7.594  0.5103  0.3572  0.0520
  464MOL0     C62538  13.655   3.344   7.502 -0.3525 -0.1353  0.3864
  464MOL0     C62539  13.629   3.458   7.413  0.4350 -0.3251  0.1632
  464MOL0     O62540  13.720   3.513   7.330  0.2928 -0.0373  0.3814
  464MOL0     C62541  13.849   3.439   7.335  0.1051  0.2573 -0.0617
  464MOL0     C62542  13.952   3.482   7.233  0.0548 -0.3204 -0.4777
  464MOL0     C62543  13.900   3.504   7.089 -0.1027 -0.3743  0.5422
  464MOL0     C62544  14.009   3.570   7.003  0.7693  0.3481 -0.2801
  464MOL0     C62545  14.117   3.481   6.944 -0.2129 -0.2367  0.1720
  464MOL0     C62546  14.076   3.379   6.835  0.5317  0.3303 -0.1668
  464MOL0     C62547  14.200   3.336   6.737  0.0045 -0.3252 -0.1642
  464MOL0     C62548  14.181   3.220   6.644 -0.6614  0.6075  0.6481
  464MOL0    Cl62549  14.178   3.068   6.734 -0.3404  0.4119  0.4087
  464MOL0     C62550  13.511   3.514   7.417 -0.1898 -0.0435  0.2208
  464MOL0     C62551  13.402   3.470   7.492 -0.0596 -0.7266 -0.1070
  464MOL0     O62552  13.281   3.126   7.649 -0.4302 -0.2893  0.3782
  464MOL0     C62553  13.027   3.157   7.781 -0.3838  0.9109  0.3090
  464MOL0     C62554  12.901   3.183   7.838  0.7550  0.1842  0.0931
  464MOL0     N62555  12.511   3.478   8.444  0.3700 -0.1888 -0.1494
  464MOL0     N62556  12.486   3.538   8.555  0.1411  0.4839  0.8923
  464MOL0     C62557  11.282   3.423   8.387 -0.0188 -0.1625  0.0344
  464MOL0     C62558  11.152   3.384   8.398  0.0943 -0.4585  0.5465
  464MOL0     C62559  10.772   3.271   8.630  1.3036 -0.6937 -0.7269
  464MOL0     C62560  10.688   3.365   8.559 -0.9567 -0.3374 -1.0266
  464MOL0     C62561  10.550   3.365   8.575  0.4255  0.9126  0.3805
  464MOL0     C62562  10.488   3.271   8.651  0.0416  0.0963  0.2529
  464MOL0     O62563  10.351   3.270   8.645 -0.6681 -0.7883  0.1719
  464MOL0     C62564  10.285   3.175   8.720  0.1012  0.0644  0.7043
  464MOL0     C62565  10.143   3.229   8.750  0.7865  0.2480  0.2524
  464MOL0     C62566  10.059   3.279   8.623 -1.0355  0.3561 -0.3712
  464MOL0     C62567   9.940   3.349   8.682 -0.1236 -0.2479  0.4162
  464MOL0     C62568   9.841   3.369   8.575  0.3073  0.2688 -1.1365
  464MOL0     C62569   9.773   3.388   8.485 -0.4035 -0.0285  0.0917
  464MOL0     C62570  10.564   3.174   8.722 -0.1998 -0.0170  0.3987
  464MOL0     C62571  10.708   3.171   8.711  0.2959 -0.4459 -0.3493
  464MOL0     C62572  10.787   3.082   8.802 -0.3009 -0.3496  0.7114
  464MOL0     H62573  11.087   3.503   8.706  0.2817  0.6361 -0.5352
  464MOL0     H62574  11.317   3.574   8.699 -0.6216  2.3631 -0.4777
  464MOL0     H62575  11.562   3.339   8.543  0.7112 -0.1571  2.0823
  464MOL0     H62576  11.656   3.474   8.468 -1.6940  2.4650 -0.5550
  464MOL0     H62577  11.527   3.480   8.744 -1.0105  1.5634 -2.0535
  464MOL0     H62578  11.653   3.587   8.679 -0.4006  0.8342 -0.7581
  464MOL0     H62579  11.729   3.293   8.700  0.8046 -0.7511  0.7060
  464MOL0     H62580  11.744   3.410   8.843  1.1400  1.4530  0.1584
  464MOL0     H62581  11.887   3.439   8.567  3.7558  0.0368  0.2125
  464MOL0     H62582  11.861   3.570   8.677 -1.8052 -0.1313 -2.0916
  464MOL0     H62583  11.998   3.466   8.849 -2.2214 -0.1845 -0.1967
  464MOL0     H62584  11.990   3.302   8.770 -1.8409 -0.6745 -1.2895
  464MOL0     H62585  12.209   3.432   8.744 -0.8930 -3.2298  0.2377
  464MOL0     H62586  12.116   3.417   8.584  0.5202 -3.7219  1.7891
  464MOL0     H62587  12.086   3.674   8.736  1.0527  0.3532  0.1621
  464MOL0     H62588  12.078   3.641   8.568 -1.3760 -2.8735  0.8425
  464MOL0     H62589  12.304   3.750   8.625  1.5837 -1.0434 -2.1538
  464MOL0     H62590  12.332   3.638   8.744  0.9043 -1.0858 -1.2870
  464MOL0     H62591  12.198   3.547   8.390 -0.2216 -1.1922  2.0667
  464MOL0     H62592  12.351   3.285   8.251 -1.0535 -0.5679 -1.7587
  464MOL0     H62593  12.310   3.437   8.171 -1.2534 -3.1693 -0.2228
  464MOL0     H62594  12.560   3.479   8.141  1.5527 -0.9988  1.5649
  464MOL0     H62595  12.599   3.324   8.233 -0.0336 -2.6024 -0.5394
  464MOL0     H62596  12.469   3.333   7.966 -0.9379 -0.4607  0.0359
  464MOL0     H62597  12.462   3.203   8.064 -0.7485 -0.7182 -4.4875
  464MOL0     H62598  12.639   3.161   7.911 -1.1095  1.0334 -1.4065
  464MOL0     H62599  12.726   3.193   8.062  0.1484  1.2668 -0.5271
  464MOL0     H62600  12.928   3.521   7.883  2.0479  1.0851  0.6105
  464MOL0     H62601  13.156   3.480   7.788  0.8413  0.3042 -1.4852
  464MOL0     H62602  13.555   3.223   7.669 -2.1945  1.1648  1.1097
  464MOL0     H62603  13.758   3.311   7.499  0.5341  2.0681  2.8819
  464MOL0     H62604  13.896   3.455   7.432 -1.9233 -0.2789  1.0700
  464MOL0     H62605  13.826   3.334   7.313 -3.0133  0.5615  1.2352
  464MOL0     H62606  13.999   3.571   7.277 -1.1643  0.1385 -0.0690
  464MOL0     H62607  14.031   3.407   7.234  1.1991  0.8345 -1.4088
  464MOL0     H62608  13.859   3.414   7.042 -0.1264  0.2264 -0.6267
  464MOL0     H62609  13.822   3.582   7.093 -0.4362 -0.4350 -2.3887
  464MOL0     H62610  14.057   3.644   7.068  3.0318 -1.9351  0.8077
  464MOL0     H62611  13.965   3.618   6.915  1.4613  2.6278  0.5297
  464MOL0     H62612  14.175   3.429   7.021  1.5868 -0.9727 -1.5879
  464MOL0     H62613  14.181   3.554   6.894 -2.0478  0.7853 -0.7936
  464MOL0     H62614  14.041   3.290   6.890  1.1851  0.7004  0.8744
  464MOL0     H62615  13.999   3.423   6.771  2.1859  1.4892 -1.4173
  464MOL0     H62616  14.290   3.318   6.796  0.6670 -0.0399 -1.0564
  464MOL0     H62617  14.221   3.425   6.677  0.8938  0.0390  0.6736
  464MOL0     H62618  14.085   3.234   6.593 -1.5254 -1.2134  1.6681
  464MOL0     H62619  14.264   3.224   6.572 -0.9047 -1.1260  0.2374
  464MOL0     H62620  13.503   3.608   7.364  2.7280  0.3148  0.2536
  464MOL0     H62621  13.310   3.526   7.497 -0.8265 -2.0113  0.9463
  464MOL0     H62622  13.051   3.062   7.734 -0.2351  1.9973 -1.9409
  464MOL0     H62623  12.836   3.097   7.850  3.8694 -2.6606 -1.7735
  464MOL0     H62624  11.338   3.414   8.294  1.6261  1.0469  0.8637
  464MOL0     H62625  11.110   3.348   8.305  2.3689  3.4952 -2.3015
  464MOL0     H62626  10.723   3.445   8.494  1.6181 -0.1843  0.4033
  464MOL0     H62627  10.484   3.435   8.526 -1.8220  0.4529  2.5378
  464MOL0     H62628  10.325   3.149   8.818 -0.5631 -2.3731  0.3944
  464MOL0     H62629  10.269   3.087   8.656 -1.1866 -0.0061  1.1042
  464MOL0     H62630  10.148   3.310   8.823 -1.2715  1.2163 -0.6051
  464MOL0     H62631  10.077   3.150   8.787 -0.6534  0.9796 -0.6673
  464MOL0     H62632  10.043   3.189   8.563  0.2143 -1.4409  1.8457
  464MOL0     H62633  10.127   3.344   8.567 -1.8153  0.7597 -0.8744
  464MOL0     H62634   9.897   3.303   8.771  0.8743 -1.0895  0.4914
  464MOL0     H62635   9.977   3.446   8.717 -1.2741  0.2080  0.3986
  464MOL0     H62636   9.707   3.407   8.402  1.1121  0.6772 -1.0015
  464MOL0     H62637  10.519   3.097   8.783 -1.2998  1.4540  1.5407
  464MOL0     H62638  10.735   2.986   8.811  0.8077 -0.9851  0.5370
  464MOL0     H62639  10.874   3.045   8.748  0.3648  2.8754 -0.6377
  464MOL0     H62640  10.826   3.126   8.895 -0.7846 -1.0109  1.2436
  465MOL0     O62641   8.602   0.694   4.232  0.0980 -0.1500  0.2728
  465MOL0     C62642   8.542   0.685   4.338 -0.1908 -0.3775  0.0515
  465MOL0     O62643   8.606   0.696   4.462  0.0714 -0.1465 -0.3348
  465MOL0     C62644   8.737   0.743   4.467 -0.2710 -0.5301  0.4181
  465MOL0     C62645   8.762   0.848   4.561 -0.4894  0.1026 -0.5010
  465MOL0     C62646   8.892   0.886   4.593 -0.2201 -0.5266 -1.0316
  465MOL0     C62647   8.994   0.835   4.516  0.6908 -0.7346 -0.2298
  465MOL0     O62648   9.116   0.885   4.543 -0.1552  0.0958 -0.1285
  465MOL0     C62649   9.153   0.993   4.450  0.0867 -0.3525  0.0259
  465MOL0     C62650   9.235   0.942   4.329  0.5801  0.0429 -0.6334
  465MOL0     C62651   9.368   0.890   4.389 -0.2424 -0.2382  0.2693
  465MOL0     C62652   9.472   0.854   4.274 -0.2398 -0.1467  0.1174
  465MOL0     C62653   9.577   0.767   4.329 -0.4387  0.6160 -0.5283
  465MOL0     C62654   9.668   0.703   4.225  0.4552 -0.1312 -0.0904
  465MOL0     C62655   9.789   0.632   4.277  0.6878  1.0864 -0.5894
  465MOL0     C62656   9.845   0.536   4.167  0.4407 -0.6876 -0.0586
  465MOL0     N62657   9.938   0.431   4.221  0.2617 -0.6704 -0.0212
  465MOL0     C62658   9.894   0.305   4.251  0.6881 -0.2192 -0.7108
  465MOL0     C62659  10.001   0.228   4.236 -0.1227  0.8103  0.0900
  465MOL0     C62660   9.998   0.078   4.236  0.2398  0.2127 -0.4710
  465MOL0     C62661  10.044   0.024   4.367 -0.8851 -0.0421 -0.8086
  465MOL0     C62662  10.089  -0.122   4.369  0.3311 -0.6545  0.1151
  465MOL0     C62663  10.148  -0.157   4.509  0.9993 -0.2686  0.0730
  465MOL0     O62664  10.034  -0.162   4.608 -0.4924 -0.5039 -0.7638
  465MOL0     C62665  10.055  -0.149   4.746  0.3114  0.0978  0.7698
  465MOL0     C62666  10.177  -0.137   4.801 -0.2631  0.0239 -0.0475
  465MOL0     C62667  10.182  -0.112   4.939  1.2317 -0.0470  0.1627
  465MOL0     C62668  10.067  -0.094   5.020  0.6519  0.2253 -0.3197
  465MOL0     C62669  10.058  -0.084   5.166  0.3261 -0.4620 -0.2600
  465MOL0     O62670   9.939  -0.067   5.224  1.0947 -0.3636  0.3570
  465MOL0     C62671   9.913  -0.035   5.357 -0.7045  0.0045  0.5573
  465MOL0     C62672   9.998  -0.014   5.464  0.1212 -0.4620  0.0731
  465MOL0     C62673   9.951   0.021   5.591  0.0224  0.2010  0.7580
  465MOL0     C62674   9.812   0.030   5.621  0.5275 -0.6414  0.3947
  465MOL0     O62675   9.777   0.061   5.748  0.3450  0.3472 -0.9605
  465MOL0     C62676   9.641   0.099   5.787  0.3358  0.6339  0.0380
  465MOL0     C62677   9.606   0.078   5.929 -0.0962 -0.2386 -0.4957
  465MOL0     C62678   9.695   0.170   6.008 -0.3451  0.5094 -0.2607
  465MOL0     C62679   9.684   0.136   6.160  0.2652 -0.2422 -0.5621
  465MOL0     C62680   9.784   0.218   6.246 -0.4623 -0.7705  0.0602
  465MOL0     C62681   9.816   0.132   6.373  0.1097  0.5745  0.1573
  465MOL0     C62682   9.913   0.208   6.458 -0.1361 -0.4727 -0.1217
  465MOL0     C62683  10.040   0.243   6.391  0.2125 -0.7642  0.5593
  465MOL0    Cl62684  10.175   0.257   6.512 -0.6841 -0.1917 -0.0827
  465MOL0     C62685   9.722   0.021   5.508 -0.0558 -0.4472 -1.1447
  465MOL0     C62686   9.785  -0.005   5.376 -0.1611  0.1206 -0.8779
  465MOL0     O62687  10.162  -0.100   5.228 -0.1765 -0.6033 -0.5518
  465MOL0     C62688   9.944  -0.116   4.952 -0.9648  0.2668 -0.3797
  465MOL0     C62689   9.940  -0.136   4.817 -0.3366  0.5653  0.1494
  465MOL0     N62690  10.110   0.305   4.208  0.2119  0.8098  0.1632
  465MOL0     N62691  10.068   0.432   4.197  0.2464 -0.2883  0.5896
  465MOL0     C62692   8.969   0.736   4.422 -0.0482  0.0304 -0.0119
  465MOL0     C62693   8.842   0.689   4.393  0.8539  0.6299 -0.4158
  465MOL0     C62694   8.399   0.656   4.350  0.3972  1.0514  0.0128
  465MOL0     C62695   8.344   0.554   4.269 -0.1997  0.5361 -0.0234
  465MOL0     C62696   8.211   0.524   4.293 -0.8220  0.1452  0.5682
  465MOL0     C62697   8.129   0.592   4.381 -0.2299 -0.2590  0.0982
  465MOL0     O62698   7.995   0.558   4.387  0.2033 -0.0090  0.3685
  465MOL0     C62699   7.904   0.640   4.456  1.0463  0.2610  0.3491
  465MOL0     C62700   7.762   0.585   4.428 -1.1515  0.2977 -1.1476
  465MOL0     C62701   7.748   0.445   4.495 -0.3372 -0.3601 -0.7432
  465MOL0     C62702   7.602   0.411   4.541  0.3971 -0.0658 -0.0943
  465MOL0     C62703   7.572   0.436   4.677  0.5177 -0.5461 -0.8141
  465MOL0     C62704   7.551   0.460   4.799 -0.0270 -0.2466 -0.1686
  465MOL0     C62705   8.187   0.692   4.462 -0.0119 -0.5424 -1.0960
  465MOL0     C62706   8.319   0.731   4.442  0.0091  0.1536  0.1410
  465MOL0     C62707   8.382   0.847   4.522 -0.7290  0.0208 -0.1409
  465MOL0     H62708   8.675   0.886   4.614 -1.2140 -1.5239 -0.4700
  465MOL0     H62709   8.910   0.971   4.659  1.1875 -0.4668 -1.4700
  465MOL0     H62710   9.071   1.051   4.407 -0.5646  0.3437  2.0961
  465MOL0     H62711   9.212   1.068   4.503 -1.1400  1.0920 -0.5628
  465MOL0     H62712   9.248   1.010   4.245 -0.9220 -3.2946 -3.8378
  465MOL0     H62713   9.190   0.857   4.277  0.9964 -0.5261 -0.0799
  465MOL0     H62714   9.359   0.804   4.455 -0.5324 -0.4791 -0.0804
  465MOL0     H62715   9.405   0.969   4.455 -0.8801 -1.3465  1.9907
  465MOL0     H62716   9.418   0.795   4.198 -1.3965  1.2076 -0.1627
  465MOL0     H62717   9.522   0.942   4.233  2.1933 -0.8377  1.4092
  465MOL0     H62718   9.640   0.824   4.398  0.5593 -0.0747 -0.8479
  465MOL0     H62719   9.537   0.687   4.392  0.7023  2.1204  2.2720
  465MOL0     H62720   9.605   0.639   4.162 -2.1146  1.3965  0.7792
  465MOL0     H62721   9.708   0.782   4.161 -0.1564 -0.8217 -1.3721
  465MOL0     H62722   9.762   0.572   4.364  1.3664 -2.3958 -2.5800
  465MOL0     H62723   9.871   0.698   4.305  0.4041  1.5498 -0.8326
  465MOL0     H62724   9.764   0.484   4.115 -2.1411  3.1909 -0.3261
  465MOL0     H62725   9.904   0.591   4.094  2.6713 -2.0555  0.5983
  465MOL0     H62726   9.792   0.274   4.272  0.4535 -0.3317 -1.9203
  465MOL0     H62727   9.897   0.044   4.211  0.4671 -1.8875  1.2182
  465MOL0     H62728  10.063   0.042   4.156  1.9835  2.4998 -0.1769
  465MOL0     H62729  10.124   0.088   4.405 -0.4045 -1.1932  0.2080
  465MOL0     H62730   9.963   0.037   4.439 -1.3961 -2.2004 -0.9263
  465MOL0     H62731  10.166  -0.149   4.297  0.4115 -3.3390  1.0992
  465MOL0     H62732  10.001  -0.184   4.351 -1.4755  1.2503  1.8295
  465MOL0     H62733  10.225  -0.082   4.530  0.9716 -0.1794 -0.1396
  465MOL0     H62734  10.190  -0.258   4.516 -0.5765 -0.8265  2.9312
  465MOL0     H62735  10.274  -0.152   4.754 -0.0006 -0.8959  0.7449
  465MOL0     H62736  10.280  -0.124   4.983  1.3908  0.8729  0.0889
  465MOL0     H62737  10.105  -0.025   5.447  0.2134 -1.0396  0.9465
  465MOL0     H62738  10.025   0.021   5.670 -1.2666  0.5695  2.0023
  465MOL0     H62739   9.617   0.202   5.760 -1.7135 -0.1912 -1.5271
  465MOL0     H62740   9.564   0.047   5.730  1.0661  1.0154 -1.3429
  465MOL0     H62741   9.500   0.098   5.947 -0.0979 -2.0042  1.9200
  465MOL0     H62742   9.625  -0.022   5.967 -0.4283  0.3566  1.3314
  465MOL0     H62743   9.797   0.157   5.969 -0.2430  0.0634  0.1342
  465MOL0     H62744   9.674   0.275   5.987 -1.8207 -0.0170 -1.5143
  465MOL0     H62745   9.699   0.028   6.175  2.6940  0.2954  1.8066
  465MOL0     H62746   9.581   0.157   6.188  0.7010 -0.4391  1.3401
  465MOL0     H62747   9.753   0.320   6.271  1.8735 -0.0040  0.0388
  465MOL0     H62748   9.869   0.220   6.178 -1.2407  2.0497 -0.9879
  465MOL0     H62749   9.733   0.109   6.441 -0.5910 -3.5811 -1.7479
  465MOL0     H62750   9.863   0.037   6.345 -0.7315 -0.1040  1.0115
  465MOL0     H62751   9.929   0.152   6.550  0.4092 -1.6493 -0.8994
  465MOL0     H62752   9.867   0.304   6.480 -0.5999 -0.6307 -0.3721
  465MOL0     H62753  10.073   0.164   6.322  1.2908 -0.5293  0.7833
  465MOL0     H62754  10.031   0.330   6.326 -1.8476 -1.7744 -0.6279
  465MOL0     H62755   9.615   0.040   5.515 -0.0894 -0.0348 -2.4979
  465MOL0     H62756   9.711  -0.008   5.297 -3.3342  2.4311  1.7352
  465MOL0     H62757   9.849  -0.111   5.004 -0.5379 -2.0560  0.7546
  465MOL0     H62758   9.842  -0.144   4.771 -0.0999  1.3308 -0.5197
  465MOL0     H62759   9.058   0.696   4.374 -0.7642  1.2618 -2.5395
  465MOL0     H62760   8.823   0.605   4.327 -3.1539 -0.1575  1.4630
  465MOL0     H62761   8.395   0.481   4.206 -0.6413 -0.7149  1.0186
  465MOL0     H62762   8.168   0.452   4.223  1.4496 -1.1535  0.4094
  465MOL0     H62763   7.898   0.739   4.409  0.7255  0.1340  0.1164
  465MOL0     H62764   7.914   0.643   4.565  1.3916 -0.5983  0.3452
  465MOL0     H62765   7.740   0.576   4.322 -2.0609 -2.8154 -0.7889
  465MOL0     H62766   7.685   0.654   4.466 -0.0678  2.5040 -2.6872
  465MOL0     H62767   7.825   0.424   4.569 -1.5379 -0.7908  0.4193
  465MOL0     H62768   7.767   0.371   4.416  0.0769  0.6201 -1.5777
  465MOL0     H62769   7.528   0.459   4.476 -0.0241 -0.5422  0.0203
  465MOL0     H62770   7.586   0.306   4.516 -0.2950 -0.3313  1.3444
  465MOL0     H62771   7.534   0.514   4.890  1.9045  1.2598 -0.6584
  465MOL0     H62772   8.128   0.748   4.535  0.7857  1.9813 -2.2459
  465MOL0     H62773   8.455   0.899   4.458  2.8491 -4.7452 -0.4630
  465MOL0     H62774   8.308   0.912   4.571 -0.6870  0.2099 -0.3271
  465MOL0     H62775   8.439   0.809   4.607 -0.5076  1.4287  0.3638
  466MOL0     O62776  10.393   8.135   0.695 -0.8203 -0.5955 -0.4001
  466MOL0     C62777  10.400   8.155   0.571  0.4795  0.5486 -0.6038
  466MOL0     O62778  10.511   8.154   0.492 -0.3662 -0.2126 -0.4436
  466MOL0     C62779  10.637   8.139   0.543  0.3621  1.0600  0.0833
  466MOL0     C62780  10.679   8.012   0.589  0.8311  0.6034  0.5000
  466MOL0     C62781  10.811   7.994   0.636 -0.0383  0.1119 -0.1332
  466MOL0     C62782  10.909   8.091   0.628  0.6972  0.6042  0.0019
  466MOL0     O62783  11.038   8.074   0.659  0.1876  0.5775 -0.1086
  466MOL0     C62784  11.111   7.956   0.635  0.3856 -0.3110 -0.1789
  466MOL0     C62785  11.259   7.976   0.636 -0.7107  0.3198 -0.6425
  466MOL0     C62786  11.322   8.017   0.502  0.9870 -0.0986 -1.3153
  466MOL0     C62787  11.249   8.148   0.450 -0.9182  0.5760 -0.5698
  466MOL0     C62788  11.332   8.213   0.343  0.2253  0.3165  0.4765
  466MOL0     C62789  11.256   8.325   0.267  0.4927 -0.2972 -0.5955
  466MOL0     C62790  11.343   8.389   0.164  0.0724 -0.0741  0.1364
  466MOL0     C62791  11.405   8.286   0.069  0.6605 -0.0261 -0.2435
  466MOL0     N62792  11.480   8.341  -0.046  0.2436 -0.1716  1.0096
  466MOL0     C62793  11.418   8.392  -0.158 -0.3776  0.0199  0.6854
  466MOL0     C62794  11.522   8.444  -0.226  0.2363  0.0837 -0.2653
  466MOL0     C62795  11.501   8.516  -0.358  0.2535  0.3803  0.0575
  466MOL0     C62796  11.399   8.443  -0.455  0.0507  0.0391 -0.3954
  466MOL0     C62797  11.476   8.341  -0.533 -0.5317 -0.0581 -0.0832
  466MOL0     C62798  11.496   8.212  -0.462 -0.1833 -0.0033  0.2619
  466MOL0     O62799  11.556   8.119  -0.555 -0.3889  0.4687 -0.1039
  466MOL0     C62800  11.686   8.120  -0.578  0.0626 -1.1876  0.0349
  466MOL0     C62801  11.729   8.067  -0.698 -0.2409  0.6203 -0.0377
  466MOL0     C62802  11.866   8.068  -0.723  0.2232  0.1002 -0.1062
  466MOL0     C62803  11.963   8.114  -0.631 -0.4840 -0.3083  0.3970
  466MOL0     C62804  12.106   8.114  -0.656 -0.0851 -0.2823  0.2675
  466MOL0     O62805  12.139   8.072  -0.780 -0.1411  0.3557 -0.5045
  466MOL0     C62806  12.271   8.065  -0.817 -0.2187  0.4641 -0.7951
  466MOL0     C62807  12.373   8.151  -0.794 -0.3816 -0.1788  0.0739
  466MOL0     C62808  12.500   8.118  -0.854 -0.1537 -0.3199  0.8593
  466MOL0     C62809  12.522   8.007  -0.939 -0.5258  0.2969  0.7297
  466MOL0     O62810  12.644   7.972  -0.992 -0.7736 -0.1830 -0.4894
  466MOL0     C62811  12.757   8.064  -0.996  0.4403  0.1688 -0.6401
  466MOL0     C62812  12.862   7.996  -1.093 -0.3659 -0.6249 -0.6861
  466MOL0     C62813  12.802   7.960  -1.235  0.9683  0.3093  0.2240
  466MOL0     C62814  12.905   7.886  -1.321  0.4183 -0.6690 -0.0742
  466MOL0     C62815  12.856   7.841  -1.456 -0.2963  0.0368 -0.4227
  466MOL0     C62816  12.940   7.724  -1.510 -0.3014  0.8861  0.2190
  466MOL0     C62817  12.913   7.589  -1.439 -0.4218 -0.3017  0.1281
  466MOL0     C62818  12.944   7.473  -1.532  0.7970 -0.3586  0.5002
  466MOL0    Cl62819  13.098   7.515  -1.612 -0.1587  0.1628 -0.5109
  466MOL0     C62820  12.413   7.927  -0.972 -1.5279  0.3735 -0.9601
  466MOL0     C62821  12.289   7.956  -0.906 -0.5728  0.8634 -0.3904
  466MOL0     O62822  12.185   8.151  -0.569 -0.3863 -0.1472 -0.3774
  466MOL0     C62823  11.912   8.160  -0.511  0.2137 -0.6155  0.4706
  466MOL0     C62824  11.780   8.168  -0.483 -0.8629 -0.0792 -0.2379
  466MOL0     N62825  11.642   8.425  -0.154  0.2161  0.3204  0.5928
  466MOL0     N62826  11.609   8.372  -0.041 -0.0713  0.3975  0.4184
  466MOL0     C62827  10.863   8.211   0.585 -0.3046  0.7808 -0.3305
  466MOL0     C62828  10.729   8.238   0.545 -0.4370  0.2650  0.1509
  466MOL0     C62829  10.275   8.144   0.504  0.1614  0.1027  1.0057
  466MOL0     C62830  10.213   8.264   0.487  0.7116  0.5787 -0.0639
  466MOL0     C62831  10.082   8.270   0.439  0.2641 -0.1786 -0.7817
  466MOL0     C62832  10.030   8.159   0.370  0.6625 -0.2949  0.1366
  466MOL0     O62833   9.905   8.171   0.326  0.3757 -0.5716 -0.1561
  466MOL0     C62834   9.820   8.062   0.360  0.2486  0.2821 -0.3469
  466MOL0     C62835   9.681   8.096   0.338  0.0093 -0.2562  0.1487
  466MOL0     C62836   9.639   8.037   0.204 -0.0934 -0.5218  0.4160
  466MOL0     C62837   9.487   8.054   0.198 -0.4719 -1.0585  0.8930
  466MOL0     C62838   9.442   8.169   0.115  0.2569  0.5135  0.3429
  466MOL0     C62839   9.429   8.264   0.038  0.6291  0.6203  0.0502
  466MOL0     C62840  10.104   8.040   0.379  0.1232  0.0092  0.0583
  466MOL0     C62841  10.224   8.028   0.446  0.7030  0.0478 -0.5650
  466MOL0     C62842  10.291   7.898   0.460  0.2971  0.0548 -0.6845
  466MOL0     H62843  10.613   7.926   0.600  1.0294  0.3983  0.1298
  466MOL0     H62844  10.840   7.893   0.664  0.8305  0.4688  0.3046
  466MOL0     H62845  11.093   7.872   0.703 -1.0579 -0.5637 -0.8414
  466MOL0     H62846  11.088   7.924   0.534  0.0968 -0.2469 -0.1340
  466MOL0     H62847  11.301   7.883   0.673 -0.7476  0.5026 -0.1370
  466MOL0     H62848  11.289   8.055   0.706 -0.8630 -1.4361  1.4981
  466MOL0     H62849  11.309   7.939   0.426 -1.1136 -1.4421  0.3139
  466MOL0     H62850  11.427   8.036   0.528 -0.2473  3.5498  1.9504
  466MOL0     H62851  11.158   8.111   0.403 -0.4649  1.7751 -2.5225
  466MOL0     H62852  11.232   8.227   0.525  3.1366  0.5911  0.6000
  466MOL0     H62853  11.429   8.254   0.373  0.0963  1.4039 -0.4999
  466MOL0     H62854  11.355   8.136   0.268  3.1431  0.5032  1.0757
  466MOL0     H62855  11.169   8.277   0.221 -1.3654  2.5182 -0.2567
  466MOL0     H62856  11.218   8.395   0.342 -0.8473 -3.1663  1.5452
  466MOL0     H62857  11.415   8.451   0.219 -1.4750  1.7791  0.1731
  466MOL0     H62858  11.291   8.453   0.093  3.0970  0.2860 -1.9316
  466MOL0     H62859  11.482   8.224   0.116  0.6766 -0.7909 -1.2253
  466MOL0     H62860  11.328   8.214   0.038  1.0914 -1.5673  2.1064
  466MOL0     H62861  11.313   8.393  -0.186 -1.0652  0.2758  3.0292
  466MOL0     H62862  11.457   8.613  -0.333  0.9120  0.5427  0.6432
  466MOL0     H62863  11.601   8.524  -0.402  0.7701  0.7151  1.2432
  466MOL0     H62864  11.318   8.396  -0.400  0.6565 -0.7402 -0.1467
  466MOL0     H62865  11.361   8.506  -0.536 -0.4123 -0.3089 -0.4509
  466MOL0     H62866  11.576   8.382  -0.552 -1.2141  1.4021 -0.6262
  466MOL0     H62867  11.433   8.329  -0.633  1.4266 -0.2658 -0.9660
  466MOL0     H62868  11.390   8.192  -0.447 -0.4157  0.9941  0.0534
  466MOL0     H62869  11.547   8.215  -0.365  1.0090  0.0927 -0.3436
  466MOL0     H62870  11.668   8.020  -0.774 -0.9150  2.0870 -0.4382
  466MOL0     H62871  11.901   8.020  -0.814  2.8284 -1.7746  1.7212
  466MOL0     H62872  12.367   8.241  -0.734 -1.5157 -1.1696  1.5385
  466MOL0     H62873  12.589   8.176  -0.831 -0.5507 -0.1373  2.0187
  466MOL0     H62874  12.722   8.158  -1.041 -2.7438 -0.7177 -0.2901
  466MOL0     H62875  12.797   8.071  -0.895 -0.0933 -1.9292 -0.2469
  466MOL0     H62876  12.950   8.059  -1.109 -0.4662 -0.8155 -2.0895
  466MOL0     H62877  12.900   7.912  -1.035  0.8078  1.2184  1.3533
  466MOL0     H62878  12.716   7.892  -1.235  1.2665 -0.0875  1.3442
  466MOL0     H62879  12.772   8.052  -1.287 -0.6052  1.6970  3.3446
  466MOL0     H62880  12.940   7.801  -1.262  2.1369  1.0226  1.4642
  466MOL0     H62881  12.990   7.951  -1.341  0.7440 -0.9483  0.3873
  466MOL0     H62882  12.857   7.925  -1.527  1.4353 -0.1806 -0.7057
  466MOL0     H62883  12.753   7.807  -1.445 -0.3996  0.9692  2.2000
  466MOL0     H62884  12.930   7.717  -1.619 -1.3228  0.2505  0.3368
  466MOL0     H62885  13.046   7.745  -1.494 -0.5968  3.5707 -0.8526
  466MOL0     H62886  12.805   7.585  -1.422 -0.4245 -0.3993  0.0918
  466MOL0     H62887  12.962   7.571  -1.343 -0.8192 -2.0640  0.0433
  466MOL0     H62888  12.947   7.379  -1.476  1.7487 -0.1973  0.7243
  466MOL0     H62889  12.879   7.456  -1.619 -0.3430  1.7325  0.8692
  466MOL0     H62890  12.412   7.847  -1.046 -2.4727 -0.8791  0.3520
  466MOL0     H62891  12.200   7.899  -0.932 -0.4184  0.1625  0.5579
  466MOL0     H62892  11.981   8.200  -0.438  0.7064 -1.4659  0.4824
  466MOL0     H62893  11.754   8.205  -0.385 -1.6644 -0.5932 -0.2433
  466MOL0     H62894  10.941   8.287   0.577 -0.8425  1.1991 -1.9684
  466MOL0     H62895  10.714   8.341   0.514  2.8623  1.8423  3.1551
  466MOL0     H62896  10.255   8.349   0.538 -3.6173  1.9989  1.5587
  466MOL0     H62897  10.027   8.363   0.431  2.0683  1.1245  1.0521
  466MOL0     H62898   9.822   8.039   0.467  1.5004  0.6444 -0.2810
  466MOL0     H62899   9.856   7.969   0.316  1.5549 -0.3580  1.8812
  466MOL0     H62900   9.676   8.205   0.347 -1.4264 -0.3797  1.2928
  466MOL0     H62901   9.615   8.055   0.416  0.2878  1.9169  1.6175
  466MOL0     H62902   9.667   7.932   0.198 -1.3281 -0.8290 -0.3000
  466MOL0     H62903   9.689   8.082   0.118 -1.9919 -3.2358 -2.3013
  466MOL0     H62904   9.448   7.965   0.147  1.4875 -0.8261 -1.1930
  466MOL0     H62905   9.439   8.065   0.295 -1.3255  1.1139  0.2734
  466MOL0     H62906   9.397   8.344  -0.026 -0.9680  1.2326  1.4984
  466MOL0     H62907  10.069   7.953   0.325 -0.9611 -1.1386  2.4422
  466MOL0     H62908  10.329   7.882   0.561 -0.6939  1.2263 -0.0934
  466MOL0     H62909  10.231   7.814   0.426  1.2417  0.1685 -2.8038
  466MOL0     H62910  10.375   7.898   0.389  0.2063  2.4062 -0.8838
  467MOL0     O62911   9.777  11.046   0.958  0.1240  0.0486 -0.3023
  467MOL0     C62912   9.685  11.013   0.883 -0.0428  0.6514 -0.7297
  467MOL0     O62913   9.645  10.886   0.859  0.1133 -0.2244  0.1057
  467MOL0     C62914   9.726  10.780   0.903 -0.7338 -0.3012  0.3064
  467MOL0     C62915   9.864  10.768   0.869 -0.1268 -0.2049 -0.3527
  467MOL0     C62916   9.944  10.660   0.926  0.6963 -0.1856  0.6585
  467MOL0     C62917   9.873  10.564   1.007  0.0548 -0.4156  0.4596
  467MOL0     O62918   9.931  10.458   1.076 -0.6362  0.0330 -0.6944
  467MOL0     C62919  10.060  10.410   1.036 -0.7058 -0.4258  0.1351
  467MOL0     C62920  10.177  10.457   1.124  0.5852 -0.1591  0.4747
  467MOL0     C62921  10.265  10.564   1.067 -0.3737  0.1462  0.7069
  467MOL0     C62922  10.383  10.591   1.164  0.0110 -0.1402  0.2230
  467MOL0     C62923  10.476  10.708   1.133 -0.7551  0.2466 -0.2243
  467MOL0     C62924  10.574  10.730   1.247 -0.0178 -0.4465  0.4623
  467MOL0     C62925  10.704  10.634   1.244  0.6342 -0.8211 -0.5369
  467MOL0     C62926  10.791  10.677   1.360  0.1371  0.2344 -0.0859
  467MOL0     N62927  10.924  10.607   1.358  0.1343 -0.1066  0.6117
  467MOL0     C62928  10.955  10.484   1.413 -0.2762  0.2884  0.4054
  467MOL0     C62929  11.084  10.480   1.419 -0.5160 -0.1892  0.5787
  467MOL0     C62930  11.158  10.387   1.498 -0.2150  0.4444 -0.1983
  467MOL0     C62931  11.312  10.407   1.510  0.0349 -0.1031 -0.2847
  467MOL0     C62932  11.388  10.267   1.516  0.2050  0.3138 -0.3356
  467MOL0     C62933  11.538  10.286   1.533 -0.2692 -0.3120 -0.0262
  467MOL0     O62934  11.602  10.326   1.414  1.0001 -0.2280  0.7636
  467MOL0     C62935  11.739  10.323   1.419 -1.1475  0.7446 -0.0391
  467MOL0     C62936  11.821  10.302   1.539  0.1016 -0.5721 -0.2783
  467MOL0     C62937  11.961  10.302   1.526  1.5151 -0.4754 -0.1459
  467MOL0     C62938  12.021  10.325   1.403 -0.4551  0.0245  0.3427
  467MOL0     C62939  12.169  10.332   1.397  0.0836  0.7073 -0.3073
  467MOL0     O62940  12.225  10.231   1.469 -0.4281 -0.1772  0.1648
  467MOL0     C62941  12.359  10.191   1.474  1.1854  0.5581  0.1761
  467MOL0     C62942  12.383  10.052   1.507 -0.3750 -0.9452 -0.8981
  467MOL0     C62943  12.512  10.010   1.502 -0.8430 -0.2718 -0.2717
  467MOL0     C62944  12.626  10.094   1.482  0.3711  0.5173  0.6265
  467MOL0     O62945  12.747  10.037   1.477 -0.2555 -0.4758  0.6016
  467MOL0     C62946  12.865  10.116   1.502 -0.3809  0.3544 -0.2022
  467MOL0     C62947  12.972  10.023   1.552  0.5187 -1.0152  0.2942
  467MOL0     C62948  13.026  10.074   1.681 -0.3687 -0.4284  0.9634
  467MOL0     C62949  13.157  10.002   1.711 -0.3202 -0.5698 -0.2977
  467MOL0     C62950  13.171   9.849   1.688  0.0504 -0.2751 -0.7063
  467MOL0     C62951  13.306   9.814   1.757 -0.7238 -0.0291  1.7129
  467MOL0     C62952  13.308   9.662   1.766  0.8342 -0.0067  0.0705
  467MOL0     C62953  13.434   9.608   1.840  0.4595 -0.3912 -0.0947
  467MOL0    Cl62954  13.568   9.637   1.734  0.2615 -0.0621  0.1716
  467MOL0     C62955  12.601  10.232   1.462 -1.0690  0.1678  0.6638
  467MOL0     C62956  12.472  10.278   1.454  0.0663  0.5717  0.5443
  467MOL0     O62957  12.225  10.390   1.308  0.4207 -0.6178  0.3228
  467MOL0     C62958  11.944  10.355   1.291 -0.0828 -0.1248  0.0962
  467MOL0     C62959  11.806  10.346   1.298  0.2436 -0.7955  0.4407
  467MOL0     N62960  11.141  10.589   1.366  0.0949 -0.0708 -0.0387
  467MOL0     N62961  11.044  10.670   1.334 -1.1696 -0.5509 -0.3256
  467MOL0     C62962   9.733  10.575   1.025 -1.0593  0.1236  0.0078
  467MOL0     C62963   9.669  10.690   0.990 -0.4645  0.1607  0.1482
  467MOL0     C62964   9.593  11.125   0.848 -0.0308 -0.0691 -0.2386
  467MOL0     C62965   9.453  11.097   0.850  0.1795  0.3595 -1.0284
  467MOL0     C62966   9.355  11.194   0.839 -0.0924  0.5372 -0.1436
  467MOL0     C62967   9.396  11.328   0.831  0.5809 -0.8153 -0.0806
  467MOL0     O62968   9.299  11.428   0.807 -0.1174  0.0918  0.3236
  467MOL0     C62969   9.166  11.401   0.848 -0.0817 -0.1328  0.5327
  467MOL0     C62970   9.074  11.516   0.816 -0.7416 -0.6219  0.9628
  467MOL0     C62971   8.927  11.465   0.821 -0.8846 -1.5274 -0.3759
  467MOL0     C62972   8.833  11.590   0.820 -1.0581  0.6704  0.1110
  467MOL0     C62973   8.697  11.559   0.792  0.2530 -0.2324  0.4971
  467MOL0     C62974   8.580  11.556   0.771  0.1928 -0.0603 -0.3503
  467MOL0     C62975   9.524  11.358   0.811  0.3435  0.4028 -0.0750
  467MOL0     C62976   9.630  11.262   0.830 -0.3915  0.5290 -0.0672
  467MOL0     C62977   9.778  11.310   0.808  1.0557 -0.2808 -0.0435
  467MOL0     H62978   9.906  10.840   0.800  1.3093 -0.7123 -0.0412
  467MOL0     H62979  10.051  10.659   0.908  0.4354  2.3676 -1.7522
  467MOL0     H62980  10.049  10.302   1.049 -1.1157 -0.7681 -2.5037
  467MOL0     H62981  10.086  10.442   0.934 -1.6736  1.7027  0.5046
  467MOL0     H62982  10.232  10.364   1.139 -0.5506 -0.8295  0.5245
  467MOL0     H62983  10.143  10.485   1.224 -1.0390  3.6798 -0.9512
  467MOL0     H62984  10.211  10.657   1.048 -0.9205 -0.1112  0.9798
  467MOL0     H62985  10.314  10.528   0.976  2.6357 -0.3364  2.4115
  467MOL0     H62986  10.338  10.591   1.264 -2.1458 -3.3416 -0.5966
  467MOL0     H62987  10.442  10.499   1.158  2.4140  1.3346 -0.0337
  467MOL0     H62988  10.525  10.693   1.037 -1.2332 -3.1469 -0.0462
  467MOL0     H62989  10.415  10.799   1.139  0.7581  1.3416 -0.8225
  467MOL0     H62990  10.611  10.832   1.230 -2.7097  0.6196  0.6202
  467MOL0     H62991  10.517  10.718   1.339  0.0196 -1.4868  0.3660
  467MOL0     H62992  10.755  10.649   1.149 -2.1090  0.1397 -1.9808
  467MOL0     H62993  10.683  10.529   1.265  1.9923 -0.9165  0.5085
  467MOL0     H62994  10.813  10.783   1.338 -0.2702  0.3508  0.0710
  467MOL0     H62995  10.749  10.674   1.461 -1.4985  0.3800 -0.7334
  467MOL0     H62996  10.894  10.400   1.443  0.2922 -0.2366  0.1194
  467MOL0     H62997  11.108  10.368   1.593  0.5173 -0.8727 -0.0540
  467MOL0     H62998  11.150  10.290   1.448  0.1938 -0.7861  1.9765
  467MOL0     H62999  11.362  10.455   1.426 -0.1391  0.4215 -0.0900
  467MOL0     H63000  11.331  10.469   1.598  1.8043  0.0183 -0.7019
  467MOL0     H63001  11.371  10.203   1.429 -0.5130  0.0464 -0.0118
  467MOL0     H63002  11.356  10.203   1.599  2.9056 -2.8598 -1.5502
  467MOL0     H63003  11.575  10.188   1.566 -2.7908 -0.5117  2.5724
  467MOL0     H63004  11.559  10.344   1.624  0.4545 -2.5441  1.3150
  467MOL0     H63005  11.791  10.274   1.639  2.3276  1.2318  1.0067
  467MOL0     H63006  12.021  10.282   1.614  1.5814  0.9131  0.1577
  467MOL0     H63007  12.310   9.979   1.540 -1.2579  0.1371 -0.4079
  467MOL0     H63008  12.531   9.904   1.514  2.0134 -0.0262 -1.7067
  467MOL0     H63009  12.898  10.156   1.405 -3.4962 -0.7287 -1.8515
  467MOL0     H63010  12.857  10.200   1.572 -1.8800 -0.7494  0.9987
  467MOL0     H63011  12.928   9.923   1.564 -3.1253  0.3987  0.0284
  467MOL0     H63012  13.051   9.997   1.481  0.7038 -2.4252  0.9788
  467MOL0     H63013  13.055  10.177   1.660  0.2367 -0.2193  2.6682
  467MOL0     H63014  12.962  10.063   1.768 -2.7716  0.4225 -0.6036
  467MOL0     H63015  13.180  10.024   1.816  1.2055 -0.0790 -0.7165
  467MOL0     H63016  13.231  10.054   1.650 -2.0965 -0.5936 -2.6074
  467MOL0     H63017  13.168   9.824   1.581  0.4347 -2.2941 -0.2681
  467MOL0     H63018  13.092   9.791   1.735  1.3339 -0.2346  1.6126
  467MOL0     H63019  13.389   9.845   1.693 -1.5762 -3.1880 -1.2022
  467MOL0     H63020  13.322   9.853   1.858 -1.0288 -0.2590  1.8522
  467MOL0     H63021  13.321   9.611   1.670  0.5064  0.1481 -0.0605
  467MOL0     H63022  13.213   9.626   1.807  0.4824 -0.1509 -0.8456
  467MOL0     H63023  13.440   9.647   1.942  1.2814  0.6352 -0.5278
  467MOL0     H63024  13.418   9.501   1.858  0.3612 -0.0652  2.0183
  467MOL0     H63025  12.683  10.298   1.433 -2.3927  2.4377  1.8265
  467MOL0     H63026  12.461  10.384   1.433 -0.7005  0.0626 -1.9696
  467MOL0     H63027  11.979  10.381   1.191  1.0027 -1.8861 -0.0392
  467MOL0     H63028  11.750  10.375   1.210  1.4063  2.2368  0.5784
  467MOL0     H63029   9.675  10.505   1.085 -0.2070  0.3807  1.1770
  467MOL0     H63030   9.567  10.697   1.026 -0.0624  1.1294  1.1629
  467MOL0     H63031   9.422  10.996   0.877  0.1787  0.0144 -2.2485
  467MOL0     H63032   9.253  11.161   0.856 -0.1614  1.4610  1.4803
  467MOL0     H63033   9.170  11.374   0.954 -1.4111  0.1765  0.6828
  467MOL0     H63034   9.129  11.312   0.797 -0.2982 -1.6671  3.1979
  467MOL0     H63035   9.096  11.553   0.716  2.5765  2.2703  2.5481
  467MOL0     H63036   9.089  11.598   0.887  0.2065  1.5663 -1.6248
  467MOL0     H63037   8.921  11.403   0.911  0.8920 -1.3828 -0.1164
  467MOL0     H63038   8.898  11.400   0.738 -2.6422 -0.3535 -0.7485
  467MOL0     H63039   8.842  11.631   0.921  2.0949 -0.4461  0.3902
  467MOL0     H63040   8.865  11.660   0.742 -1.4744  0.2340 -0.4615
  467MOL0     H63041   8.479  11.544   0.736 -0.1847 -1.0286  1.0072
  467MOL0     H63042   9.559  11.457   0.782  0.0321  0.3385 -0.6822
  467MOL0     H63043   9.786  11.335   0.702 -2.2613  1.0989 -0.1039
  467MOL0     H63044   9.793  11.401   0.867  1.0768 -0.0638 -0.3777
  467MOL0     H63045   9.852  11.240   0.846 -0.2065 -0.0749  3.1476
  468MOL0     O63046   5.372   2.547   3.681 -0.2841 -0.2194  0.4657
  468MOL0     C63047   5.360   2.509   3.799  0.2625 -0.5127 -0.1957
  468MOL0     O63048   5.463   2.506   3.892  0.4150 -0.3929  0.4747
  468MOL0     C63049   5.593   2.532   3.848  0.4206  0.8658  0.2590
  468MOL0     C63050   5.689   2.452   3.915  0.4210  0.8439  0.6403
  468MOL0     C63051   5.829   2.458   3.890 -0.3591  0.4276  0.1226
  468MOL0     C63052   5.880   2.549   3.797 -0.0891  0.9265  0.1769
  468MOL0     O63053   6.011   2.542   3.767 -0.5377 -0.6886  0.2753
  468MOL0     C63054   6.065   2.653   3.697 -0.0237  0.3357  0.1580
  468MOL0     C63055   6.214   2.644   3.691 -0.2283 -0.5155 -0.7556
  468MOL0     C63056   6.273   2.753   3.598 -0.2230  0.6689  0.0733
  468MOL0     C63057   6.423   2.767   3.609 -0.4918 -0.5130 -0.4098
  468MOL0     C63058   6.484   2.881   3.531  0.7794 -0.1936  0.6597
  468MOL0     C63059   6.630   2.856   3.499 -0.0546  0.3788 -0.8658
  468MOL0     C63060   6.637   2.746   3.395  0.4409 -0.3965 -0.3509
  468MOL0     C63061   6.774   2.677   3.381  0.1795 -0.2458  0.2516
  468MOL0     N63062   6.881   2.768   3.421 -0.0911  0.2112 -0.6118
  468MOL0     C63063   6.977   2.749   3.517  0.2031  0.7356  0.4075
  468MOL0     C63064   7.052   2.867   3.504  0.2240  0.0004  0.1882
  468MOL0     C63065   7.158   2.920   3.591 -1.1843 -0.3761 -0.6997
  468MOL0     C63066   7.289   2.921   3.519  0.2618 -0.6305 -0.3308
  468MOL0     C63067   7.406   2.986   3.608 -0.1246  0.9344 -0.2559
  468MOL0     C63068   7.535   2.980   3.533 -0.6151  0.5936  0.1231
  468MOL0     O63069   7.643   3.038   3.614 -0.3733  0.0319  0.8972
  468MOL0     C63070   7.771   3.042   3.570  0.6927 -1.1796 -0.6201
  468MOL0     C63071   7.861   3.088   3.665  0.3214  0.0339  0.4015
  468MOL0     C63072   7.996   3.100   3.634 -0.4762  0.4771  0.4523
  468MOL0     C63073   8.045   3.049   3.510  0.7281 -0.0840  0.2596
  468MOL0     C63074   8.185   3.051   3.474  0.3267  0.3170 -0.1970
  468MOL0     O63075   8.259   3.158   3.522  0.2018 -0.3268 -0.2640
  468MOL0     C63076   8.387   3.194   3.478  0.0513  1.1959 -0.3559
  468MOL0     C63077   8.428   3.331   3.489  0.1361 -0.0448 -0.1508
  468MOL0     C63078   8.556   3.375   3.461 -0.1591 -0.1675 -0.8340
  468MOL0     C63079   8.650   3.281   3.419  0.2323  0.4557  0.3328
  468MOL0     O63080   8.782   3.321   3.402  1.2444  0.2883 -0.4089
  468MOL0     C63081   8.834   3.442   3.461 -0.4980  0.1064 -0.6127
  468MOL0     C63082   8.980   3.432   3.429 -0.3252  0.2303 -0.5617
  468MOL0     C63083   9.042   3.561   3.382 -0.0596 -0.8201 -0.5725
  468MOL0     C63084   9.195   3.552   3.359  0.6877 -1.0034 -0.7511
  468MOL0     C63085   9.252   3.700   3.372 -0.3142  0.9845  0.0861
  468MOL0     C63086   9.407   3.699   3.375 -0.3566 -0.3335 -0.1866
  468MOL0     C63087   9.470   3.831   3.330 -0.1650 -0.0232  0.3961
  468MOL0     C63088   9.614   3.799   3.305  0.0359  0.5150 -0.0345
  468MOL0    Cl63089   9.733   3.941   3.291 -0.7918  0.0516  0.1707
  468MOL0     C63090   8.623   3.144   3.408  0.9097  0.4273 -0.5487
  468MOL0     C63091   8.494   3.102   3.442  0.1341  0.2003 -0.9567
  468MOL0     O63092   8.223   2.963   3.393 -0.2591  0.1803 -0.4118
  468MOL0     C63093   7.945   2.993   3.416 -0.1063 -0.8264  0.0756
  468MOL0     C63094   7.813   2.979   3.457 -0.9998  1.2958  0.2876
  468MOL0     N63095   7.005   2.937   3.394 -0.4743  0.1466  0.7205
  468MOL0     N63096   6.913   2.868   3.339  0.5212  0.3214  0.8217
  468MOL0     C63097   5.778   2.632   3.735 -0.6036 -0.3417 -0.0292
  468MOL0     C63098   5.639   2.629   3.756  0.8322 -0.9063  0.2309
  468MOL0     C63099   5.224   2.458   3.849  0.5628  0.5659  0.7803
  468MOL0     C63100   5.188   2.485   3.979 -1.0572 -0.3320  0.4214
  468MOL0     C63101   5.090   2.413   4.038 -0.2467 -0.1803 -0.1938
  468MOL0     C63102   5.010   2.322   3.971 -0.6415  0.1036 -0.7552
  468MOL0     O63103   4.920   2.251   4.044  0.6655  0.1823  0.3586
  468MOL0     C63104   4.863   2.134   3.980  0.2026 -0.5793 -0.0418
  468MOL0     C63105   4.812   2.045   4.095 -0.6164  0.0246 -0.0447
  468MOL0     C63106   4.697   1.941   4.068  0.3194 -1.1868  0.2012
  468MOL0     C63107   4.657   1.859   4.188 -0.1625  0.4997 -0.1535
  468MOL0     C63108   4.509   1.852   4.212  0.0367 -0.2349 -0.4460
  468MOL0     C63109   4.394   1.841   4.241 -0.1648  0.2804  0.0838
  468MOL0     C63110   5.030   2.306   3.829 -0.5375  0.1173 -0.5601
  468MOL0     C63111   5.139   2.369   3.761  0.1674 -0.4326 -0.6118
  468MOL0     C63112   5.165   2.345   3.617  0.6692 -0.1405 -0.1888
  468MOL0     H63113   5.657   2.381   3.990 -2.1027  0.6702 -0.4880
  468MOL0     H63114   5.891   2.390   3.947 -2.4226  0.2740  2.3524
  468MOL0     H63115   6.010   2.659   3.603 -1.6650  2.8431  1.1778
  468MOL0     H63116   6.044   2.745   3.753  0.0243 -0.6421  1.8598
  468MOL0     H63117   6.250   2.544   3.665 -0.4777 -0.3013 -1.9789
  468MOL0     H63118   6.250   2.661   3.793 -1.0041 -2.6730 -0.0691
  468MOL0     H63119   6.231   2.853   3.613 -2.3740 -0.3318  1.0822
  468MOL0     H63120   6.248   2.709   3.501 -1.1959 -1.2094  1.1191
  468MOL0     H63121   6.444   2.789   3.714 -3.0228  0.4650 -0.0453
  468MOL0     H63122   6.475   2.672   3.593  0.3179 -0.1324 -0.0887
  468MOL0     H63123   6.431   2.886   3.435 -1.3012 -0.1473  1.7507
  468MOL0     H63124   6.466   2.977   3.580  1.4329  0.1073  0.3294
  468MOL0     H63125   6.680   2.938   3.448  1.1073 -0.9127 -1.8856
  468MOL0     H63126   6.676   2.825   3.594 -0.9381  1.3504 -0.0980
  468MOL0     H63127   6.625   2.799   3.301  1.9575 -2.5242 -1.8254
  468MOL0     H63128   6.554   2.676   3.410  0.1162 -0.0734 -0.6212
  468MOL0     H63129   6.780   2.583   3.436  1.0807 -0.1866  0.2743
  468MOL0     H63130   6.789   2.652   3.275  1.2408 -1.1046  0.5903
  468MOL0     H63131   6.985   2.661   3.579  2.9295 -0.4650 -1.4198
  468MOL0     H63132   7.125   3.023   3.608  0.6248  0.0413  0.4721
  468MOL0     H63133   7.167   2.867   3.686 -1.6512  0.8655  0.0656
  468MOL0     H63134   7.313   2.817   3.497 -1.1095 -0.5821 -2.2493
  468MOL0     H63135   7.276   2.980   3.428  1.2366  1.0064  0.5392
  468MOL0     H63136   7.417   2.927   3.699  0.3264  1.2595 -0.0987
  468MOL0     H63137   7.378   3.090   3.625  0.8538  1.3792 -1.2646
  468MOL0     H63138   7.529   3.040   3.442  0.7455 -0.6070 -0.8007
  468MOL0     H63139   7.557   2.876   3.509 -0.2969  0.1677  2.1299
  468MOL0     H63140   7.822   3.115   3.762 -0.5741  0.0792  0.0360
  468MOL0     H63141   8.063   3.149   3.703 -1.7327 -1.1919  2.9882
  468MOL0     H63142   8.349   3.400   3.514 -0.5630 -1.2212  1.0466
  468MOL0     H63143   8.569   3.483   3.460 -0.1822 -0.1471 -2.3501
  468MOL0     H63144   8.790   3.536   3.427  0.9993  1.6015  1.3298
  468MOL0     H63145   8.819   3.431   3.569 -0.7266 -1.8220 -0.8062
  468MOL0     H63146   9.028   3.412   3.525 -2.3781  3.8914  1.4847
  468MOL0     H63147   8.995   3.350   3.359 -6.4160 -0.2644 -1.8161
  468MOL0     H63148   9.012   3.609   3.289  1.5365  0.7078 -0.3684
  468MOL0     H63149   9.035   3.640   3.458  2.9930 -0.7145 -0.2807
  468MOL0     H63150   9.206   3.505   3.261 -0.7907 -0.0494 -1.4131
  468MOL0     H63151   9.247   3.482   3.425  0.9290 -0.0675  0.0751
  468MOL0     H63152   9.216   3.749   3.463  0.9178  2.3384 -0.1138
  468MOL0     H63153   9.222   3.753   3.281  0.2172 -0.3758 -0.9164
  468MOL0     H63154   9.439   3.676   3.477  0.0668 -0.5905 -0.3752
  468MOL0     H63155   9.453   3.617   3.320  1.8896  0.6326  0.1174
  468MOL0     H63156   9.444   3.897   3.414 -2.5038 -0.2464 -0.0769
  468MOL0     H63157   9.423   3.868   3.238 -0.1979 -1.0270 -0.0031
  468MOL0     H63158   9.648   3.738   3.390  0.0902  0.9074  0.2281
  468MOL0     H63159   9.633   3.740   3.215  4.5578  0.7594  0.5420
  468MOL0     H63160   8.702   3.073   3.383 -0.8513 -1.9826  0.4120
  468MOL0     H63161   8.466   2.997   3.448 -0.0258  0.2370 -1.0630
  468MOL0     H63162   7.968   2.953   3.318  2.5418 -1.2344  0.7702
  468MOL0     H63163   7.743   2.925   3.394  0.2558  1.8117 -1.6617
  468MOL0     H63164   5.798   2.697   3.650 -3.3622  2.2891  1.1125
  468MOL0     H63165   5.575   2.697   3.700 -1.6181 -1.7068  1.8868
  468MOL0     H63166   5.241   2.541   4.055 -2.7292  1.6976  0.1732
  468MOL0     H63167   5.088   2.425   4.145 -2.1452 -1.4211 -0.0299
  468MOL0     H63168   4.931   2.086   3.909  0.1731 -0.7489  0.0438
  468MOL0     H63169   4.778   2.168   3.921  1.0531  1.0859 -0.3641
  468MOL0     H63170   4.784   2.114   4.175  3.0532  0.2932  1.1923
  468MOL0     H63171   4.903   1.996   4.131  0.8017  1.9820 -0.7344
  468MOL0     H63172   4.725   1.880   3.982  1.1856 -1.8940  0.9698
  468MOL0     H63173   4.610   1.997   4.032  2.1755  1.4519 -0.4413
  468MOL0     H63174   4.696   1.757   4.178  0.2381  0.6152  0.1946
  468MOL0     H63175   4.706   1.903   4.276  1.0098  1.0183 -1.0438
  468MOL0     H63176   4.296   1.837   4.284 -0.7600 -0.4423 -1.2742
  468MOL0     H63177   4.957   2.244   3.777 -0.0532 -2.8279  1.9395
  468MOL0     H63178   5.124   2.423   3.552  3.8054  1.7064 -0.1798
  468MOL0     H63179   5.267   2.324   3.584 -0.0291 -2.0169 -1.3461
  468MOL0     H63180   5.102   2.264   3.579 -1.6119  1.1739  0.6399
  469MOL0     O63181   3.628   5.940   5.514  0.7212  0.8189  0.6482
  469MOL0     C63182   3.562   5.838   5.521 -0.8399  1.1340 -0.0731
  469MOL0     O63183   3.561   5.726   5.436 -0.5391  0.1941 -0.3526
  469MOL0     C63184   3.661   5.694   5.348 -0.2472  0.2082 -0.3184
  469MOL0     C63185   3.793   5.741   5.356 -0.0224 -0.2873 -0.0357
  469MOL0     C63186   3.893   5.705   5.264  0.6182  0.7331 -0.1393
  469MOL0     C63187   3.867   5.619   5.157  0.0865 -0.2510  0.7445
  469MOL0     O63188   3.970   5.592   5.074  0.5250  0.2475  0.4380
  469MOL0     C63189   3.983   5.464   5.005 -0.7582  0.0375  0.4273
  469MOL0     C63190   4.126   5.425   4.994  0.1144  0.2393  0.2268
  469MOL0     C63191   4.213   5.533   4.930  0.1987 -0.1214 -0.3353
  469MOL0     C63192   4.362   5.490   4.933 -0.0267  0.0673  0.3299
  469MOL0     C63193   4.444   5.620   4.909 -0.3663 -0.8820 -0.6018
  469MOL0     C63194   4.591   5.600   4.891  0.5070  0.2215 -0.6146
  469MOL0     C63195   4.664   5.737   4.874  0.0465  0.5780 -0.6576
  469MOL0     C63196   4.813   5.727   4.884  0.5961 -0.4870 -0.2387
  469MOL0     N63197   4.868   5.647   4.771  0.3166 -0.2107 -0.1470
  469MOL0     C63198   4.926   5.525   4.799 -0.3821 -0.1449 -0.6591
  469MOL0     C63199   4.976   5.493   4.682 -0.1185  0.6171 -0.1088
  469MOL0     C63200   5.059   5.368   4.651  0.3731 -0.0483  0.3074
  469MOL0     C63201   5.202   5.405   4.624 -0.0846  0.3724  0.0308
  469MOL0     C63202   5.286   5.287   4.580  0.1063  0.6723  0.1514
  469MOL0     C63203   5.437   5.307   4.575  0.6613 -0.1973 -0.1424
  469MOL0     O63204   5.502   5.281   4.699 -0.1900 -0.6282 -0.0044
  469MOL0     C63205   5.634   5.326   4.703  0.4205 -0.1049  0.8002
  469MOL0     C63206   5.729   5.249   4.758 -0.3036 -0.0155 -0.5682
  469MOL0     C63207   5.865   5.287   4.777  0.5018 -0.3752 -0.8254
  469MOL0     C63208   5.910   5.415   4.724  0.2099 -0.3637  0.4984
  469MOL0     C63209   6.053   5.465   4.732 -0.0049  0.3333 -0.4934
  469MOL0     O63210   6.140   5.367   4.752 -0.4301  0.4371  0.3852
  469MOL0     C63211   6.269   5.410   4.746 -0.0806  0.8262 -0.3515
  469MOL0     C63212   6.334   5.445   4.631  0.4857  0.2342  0.0474
  469MOL0     C63213   6.458   5.511   4.629 -0.6995  0.2969  0.6731
  469MOL0     C63214   6.527   5.526   4.751  0.5122  0.1051 -0.2276
  469MOL0     O63215   6.642   5.591   4.766 -0.2596  0.3396  0.1981
  469MOL0     C63216   6.732   5.603   4.657  0.1541  0.4478  0.9055
  469MOL0     C63217   6.820   5.476   4.629 -0.1244 -0.1147  0.1258
  469MOL0     C63218   6.919   5.468   4.739  0.0938  0.1827 -0.6143
  469MOL0     C63219   7.008   5.342   4.738  0.4218 -0.3995 -0.6516
  469MOL0     C63220   6.934   5.207   4.754  0.1052 -0.5423  0.5773
  469MOL0     C63221   7.028   5.083   4.761 -0.3360 -0.4267 -0.4540
  469MOL0     C63222   6.938   4.965   4.799 -0.2821  0.9193  0.1954
  469MOL0     C63223   7.001   4.826   4.815  0.1359 -0.4242  0.7342
  469MOL0    Cl63224   7.097   4.799   4.657  0.1616  0.3110 -0.4380
  469MOL0     C63225   6.465   5.476   4.867  0.0624  0.1330 -0.0330
  469MOL0     C63226   6.339   5.418   4.869  0.5791  0.4268  0.2802
  469MOL0     O63227   6.078   5.590   4.714 -0.5057  0.0568 -0.5177
  469MOL0     C63228   5.807   5.497   4.675  0.5321 -0.2247  0.6459
  469MOL0     C63229   5.674   5.455   4.662 -0.2467  0.0865 -0.7036
  469MOL0     N63230   4.948   5.593   4.584 -0.1866 -0.0209 -0.6067
  469MOL0     N63231   4.879   5.686   4.641  0.0902  0.5753 -1.0477
  469MOL0     C63232   3.737   5.575   5.140 -0.4959  0.2208  0.6392
  469MOL0     C63233   3.634   5.618   5.235  0.1703  0.6697  0.9433
  469MOL0     C63234   3.459   5.845   5.623  0.1694  0.8272 -0.2618
  469MOL0     C63235   3.463   5.944   5.725  0.4288 -0.0865  0.0151
  469MOL0     C63236   3.361   5.950   5.831  0.0891 -0.9123  0.0326
  469MOL0     C63237   3.250   5.863   5.818 -0.5065  0.4964  0.1514
  469MOL0     O63238   3.151   5.852   5.905  0.0808  0.6413 -0.4646
  469MOL0     C63239   3.134   5.954   6.006  0.0227  0.7055 -0.4382
  469MOL0     C63240   3.071   6.087   5.963  1.2053 -0.2465 -0.3034
  469MOL0     C63241   2.925   6.090   5.925  1.0138  0.9863 -0.2649
  469MOL0     C63242   2.819   6.127   6.029 -0.3200 -0.1376 -0.4141
  469MOL0     C63243   2.793   6.005   6.106  0.1020  0.1517  0.0667
  469MOL0     C63244   2.778   5.906   6.170 -0.1585  0.0872  0.5634
  469MOL0     C63245   3.241   5.772   5.713 -0.2419 -0.0058 -0.4196
  469MOL0     C63246   3.345   5.759   5.621 -0.9808  0.5694 -0.0206
  469MOL0     C63247   3.315   5.660   5.510  0.1366  0.1535  0.6374
  469MOL0     H63248   3.815   5.807   5.439 -0.7581 -1.3516  1.0364
  469MOL0     H63249   3.994   5.735   5.287 -0.1757  1.6212  2.6817
  469MOL0     H63250   3.925   5.392   5.064  0.4168 -1.0705  0.2568
  469MOL0     H63251   3.936   5.467   4.906 -0.9736 -0.3647  0.5153
  469MOL0     H63252   4.137   5.326   4.950  0.1583 -0.6537  2.1481
  469MOL0     H63253   4.162   5.427   5.098 -0.9203  1.1595  0.5910
  469MOL0     H63254   4.197   5.628   4.982 -1.2300 -1.9151  2.8247
  469MOL0     H63255   4.181   5.528   4.825  0.2065 -2.2005 -0.2977
  469MOL0     H63256   4.388   5.450   5.031 -1.3326  0.1010  0.7086
  469MOL0     H63257   4.391   5.423   4.852  0.9097  0.0029  0.7152
  469MOL0     H63258   4.402   5.661   4.817 -2.2465 -0.1664  0.5408
  469MOL0     H63259   4.432   5.687   4.994 -0.3685 -0.5240 -0.8816
  469MOL0     H63260   4.629   5.540   4.974 -0.2972 -0.6533 -0.8661
  469MOL0     H63261   4.614   5.541   4.802  1.6811  0.5748 -0.5616
  469MOL0     H63262   4.632   5.799   4.958  3.4814 -0.8754  1.9588
  469MOL0     H63263   4.634   5.776   4.777 -0.2093  1.9413 -0.0547
  469MOL0     H63264   4.841   5.832   4.872 -0.6612 -0.3264 -2.2899
  469MOL0     H63265   4.842   5.691   4.983  1.8281 -0.7431 -0.6859
  469MOL0     H63266   4.922   5.463   4.887 -1.5519 -1.9607 -1.9309
  469MOL0     H63267   5.053   5.286   4.722  1.0007 -0.8738 -0.5583
  469MOL0     H63268   5.015   5.320   4.563 -1.8539 -1.5561  2.1489
  469MOL0     H63269   5.206   5.485   4.550  0.3534  0.2079 -0.1259
  469MOL0     H63270   5.246   5.441   4.718 -2.3042 -0.6104  1.5517
  469MOL0     H63271   5.250   5.247   4.484 -0.4466 -3.6797  1.9441
  469MOL0     H63272   5.269   5.213   4.659 -0.9989 -1.4707 -1.9441
  469MOL0     H63273   5.466   5.405   4.535  0.9491  0.4403  1.5479
  469MOL0     H63274   5.489   5.238   4.509  1.9410  0.4661  0.1399
  469MOL0     H63275   5.696   5.151   4.791 -0.8148  0.0100 -0.9881
  469MOL0     H63276   5.934   5.224   4.833 -0.7471 -0.4912  0.6433
  469MOL0     H63277   6.277   5.430   4.540  0.0707 -0.0916  0.3547
  469MOL0     H63278   6.504   5.543   4.536 -1.2557 -0.2801  0.1912
  469MOL0     H63279   6.682   5.642   4.567  1.5348  0.6643  0.2036
  469MOL0     H63280   6.801   5.681   4.691 -0.3663  0.7286  1.3239
  469MOL0     H63281   6.749   5.393   4.633 -2.8964  2.0913  0.6473
  469MOL0     H63282   6.882   5.471   4.539  0.1059 -0.7434  0.3183
  469MOL0     H63283   6.981   5.558   4.731  2.2682 -0.7456  3.1638
  469MOL0     H63284   6.874   5.480   4.838 -1.4781  2.1479 -1.5060
  469MOL0     H63285   7.067   5.340   4.831 -2.4595 -0.8198  1.2930
  469MOL0     H63286   7.072   5.335   4.650  0.8070 -0.1565 -0.3996
  469MOL0     H63287   6.879   5.194   4.660  0.3723 -2.4237  0.6618
  469MOL0     H63288   6.867   5.210   4.841 -0.8999 -1.6254 -0.1393
  469MOL0     H63289   7.068   5.059   4.663  0.1816 -1.2428 -0.0483
  469MOL0     H63290   7.109   5.104   4.831 -1.5841  1.0870  0.6107
  469MOL0     H63291   6.858   4.960   4.724  1.6327  1.3823 -1.9908
  469MOL0     H63292   6.880   4.992   4.888 -1.2204 -0.0811 -0.0872
  469MOL0     H63293   7.069   4.811   4.899 -0.2611  1.1388  1.3705
  469MOL0     H63294   6.921   4.753   4.825 -1.1665  1.1854  2.9810
  469MOL0     H63295   6.522   5.479   4.960 -1.0232 -3.4137  0.8764
  469MOL0     H63296   6.297   5.373   4.958 -1.6108 -2.6458 -2.0533
  469MOL0     H63297   5.831   5.599   4.645  1.7825 -0.1939  1.6595
  469MOL0     H63298   5.598   5.527   4.635 -0.6431  0.4061  1.1236
  469MOL0     H63299   3.713   5.517   5.051 -0.4994  2.0119 -0.5834
  469MOL0     H63300   3.529   5.603   5.210  0.6953  0.1891 -1.1628
  469MOL0     H63301   3.551   6.007   5.723  0.8213 -0.6148  0.4175
  469MOL0     H63302   3.375   6.013   5.917  1.3626 -1.9819  0.6508
  469MOL0     H63303   3.229   5.980   6.054  0.0331  0.2563 -0.2080
  469MOL0     H63304   3.079   5.910   6.089 -1.2077  0.6092 -1.2720
  469MOL0     H63305   3.131   6.118   5.877 -0.2031 -0.7797 -1.5165
  469MOL0     H63306   3.084   6.155   6.048 -0.1332 -2.3278  1.6972
  469MOL0     H63307   2.904   5.995   5.874  0.3735  1.3700 -0.7432
  469MOL0     H63308   2.916   6.167   5.847 -0.1719  1.9724  0.7854
  469MOL0     H63309   2.853   6.210   6.091  0.0696 -0.3040 -0.4008
  469MOL0     H63310   2.725   6.163   5.985 -1.0322 -1.3520  0.0436
  469MOL0     H63311   2.767   5.824   6.239 -4.5106  1.1588  1.4049
  469MOL0     H63312   3.155   5.706   5.709 -0.1396 -0.4000  2.2897
  469MOL0     H63313   3.364   5.562   5.512 -0.3499 -0.0813  1.5586
  469MOL0     H63314   3.211   5.627   5.517 -0.2355  0.6093 -1.8412
  469MOL0     H63315   3.315   5.705   5.410 -0.8914 -2.9232 -0.8906
  470MOL0     O63316  11.252   0.272   4.472 -0.8849  1.2353 -0.0187
  470MOL0     C63317  11.227   0.177   4.555  1.2602  0.5610  0.0018
  470MOL0     O63318  11.318   0.088   4.605 -0.4418 -0.0301 -0.0587
  470MOL0     C63319  11.444   0.088   4.552  0.6694  0.2366  0.4914
  470MOL0     C63320  11.470   0.065   4.417  0.3876  0.2563 -0.6468
  470MOL0     C63321  11.606   0.061   4.370 -0.0995 -0.7075 -0.2845
  470MOL0     C63322  11.705   0.097   4.454 -0.7316  1.2935 -0.1512
  470MOL0     O63323  11.840   0.083   4.421  0.5376  0.2951  0.0029
  470MOL0     C63324  11.869   0.070   4.278 -0.2471  0.4418 -0.2517
  470MOL0     C63325  12.016   0.096   4.265  0.8634 -0.3266  0.4257
  470MOL0     C63326  12.106  -0.014   4.316  0.1961  0.0119 -0.6901
  470MOL0     C63327  12.249   0.003   4.278 -0.2987 -0.0610  0.6034
  470MOL0     C63328  12.341  -0.114   4.329 -0.1231 -0.2965 -0.0345
  470MOL0     C63329  12.466  -0.138   4.244 -0.3595 -0.4848 -0.0988
  470MOL0     C63330  12.517  -0.280   4.288  0.0081 -0.1956 -0.7620
  470MOL0     C63331  12.652  -0.304   4.219  0.8556  0.1157  0.3866
  470MOL0     N63332  12.764  -0.258   4.300  0.6446 -0.7347  0.7171
  470MOL0     C63333  12.842  -0.151   4.269 -0.7159  0.1825  0.8964
  470MOL0     C63334  12.950  -0.158   4.353  0.2712  0.4891  0.2162
  470MOL0     C63335  13.054  -0.054   4.367 -0.7283 -0.6242 -0.1718
  470MOL0     C63336  13.171  -0.082   4.279 -0.1211 -0.5067  0.0165
  470MOL0     C63337  13.223  -0.228   4.255 -0.1480 -0.0170 -0.1134
  470MOL0     C63338  13.350  -0.217   4.168  0.3624  0.3170  0.2560
  470MOL0     O63339  13.377  -0.338   4.108 -0.1893  0.7475 -0.3754
  470MOL0     C63340  13.488  -0.355   4.031  0.5415 -0.7028  0.2297
  470MOL0     C63341  13.561  -0.249   3.974  0.3548  0.0198 -0.0034
  470MOL0     C63342  13.667  -0.270   3.889 -0.2042  0.2277  0.2654
  470MOL0     C63343  13.710  -0.399   3.864  0.3447 -0.2278 -1.4214
  470MOL0     C63344  13.831  -0.426   3.783 -0.6702 -0.4748  0.2006
  470MOL0     O63345  13.865  -0.324   3.698 -0.2686 -0.6606  0.5235
  470MOL0     C63346  13.969  -0.329   3.611 -0.2675 -0.4354  0.3459
  470MOL0     C63347  14.103  -0.353   3.646  0.8347 -0.6190  0.3087
  470MOL0     C63348  14.202  -0.350   3.550  0.0675  1.0333  0.1331
  470MOL0     C63349  14.174  -0.293   3.426  0.4629 -0.1133 -0.7744
  470MOL0     O63350  14.279  -0.275   3.341  0.1063 -0.2365  1.0154
  470MOL0     C63351  14.260  -0.266   3.200  0.1148 -0.3267  0.9035
  470MOL0     C63352  14.390  -0.246   3.126 -0.0342  0.1135 -0.3720
  470MOL0     C63353  14.361  -0.282   2.977  0.3286  0.1047 -0.2025
  470MOL0     C63354  14.488  -0.288   2.888  0.9345 -0.7488 -0.7754
  470MOL0     C63355  14.453  -0.278   2.740 -0.4032 -0.4931  1.1489
  470MOL0     C63356  14.365  -0.389   2.697  0.7361 -0.2138 -0.3094
  470MOL0     C63357  14.353  -0.417   2.547  0.0382 -0.8760 -0.4639
  470MOL0     C63358  14.237  -0.515   2.518 -0.4013 -0.6537  1.1285
  470MOL0    Cl63359  14.196  -0.627   2.644  0.3205  0.4663 -0.2442
  470MOL0     C63360  14.043  -0.268   3.389 -0.4792 -1.0397 -0.1130
  470MOL0     C63361  13.942  -0.288   3.482 -0.2973  0.2078 -0.6060
  470MOL0     O63362  13.889  -0.531   3.789  0.4753  1.0529 -0.9325
  470MOL0     C63363  13.634  -0.506   3.909  0.6884 -0.2595  0.6003
  470MOL0     C63364  13.522  -0.485   3.997 -0.7499  0.4059 -0.1193
  470MOL0     N63365  12.921  -0.256   4.446  0.7023  0.5872 -0.0212
  470MOL0     N63366  12.813  -0.323   4.410 -0.1099  0.6567 -0.5181
  470MOL0     C63367  11.673   0.134   4.585 -0.2576 -0.5048  0.3717
  470MOL0     C63368  11.545   0.136   4.635  0.5198  0.1258  0.5237
  470MOL0     C63369  11.092   0.142   4.612  0.0032  1.1793  0.0974
  470MOL0     C63370  11.071   0.022   4.675  0.3509  0.5379 -0.0554
  470MOL0     C63371  10.940  -0.015   4.721  0.9981  0.2023 -0.1088
  470MOL0     C63372  10.825   0.072   4.704 -0.6516  0.5393 -0.1039
  470MOL0     O63373  10.697   0.041   4.735 -0.3737  0.3237 -0.4164
  470MOL0     C63374  10.653  -0.088   4.783 -0.0496 -0.7815  0.3042
  470MOL0     C63375  10.667  -0.098   4.933  0.5034  0.4854  0.3709
  470MOL0     C63376  10.601   0.028   5.005  0.3119 -0.1016 -0.6355
  470MOL0     C63377  10.563  -0.007   5.153  0.3961 -0.6346  0.1210
  470MOL0     C63378  10.624   0.082   5.248 -0.0339  0.0726  0.3363
  470MOL0     C63379  10.680   0.158   5.326  1.0160  0.8850  0.6750
  470MOL0     C63380  10.853   0.189   4.639 -0.0312 -0.0145  0.2420
  470MOL0     C63381  10.978   0.222   4.592  0.5794 -0.3757  1.1931
  470MOL0     C63382  10.976   0.364   4.525  0.5525 -0.1270  1.1265
  470MOL0     H63383  11.378   0.037   4.367 -0.9239  0.6170  1.4241
  470MOL0     H63384  11.625   0.040   4.265  0.5128  1.6076 -0.7046
  470MOL0     H63385  11.845  -0.030   4.241 -0.2111  0.9593 -1.7650
  470MOL0     H63386  11.812   0.145   4.221 -1.1543  1.4673  1.9057
  470MOL0     H63387  12.039   0.187   4.321 -1.1720 -0.0135  0.8314
  470MOL0     H63388  12.038   0.114   4.159  0.7493  1.3476  0.6620
  470MOL0     H63389  12.067  -0.110   4.280  1.2060 -0.6153 -0.1672
  470MOL0     H63390  12.097  -0.025   4.425 -2.1711 -1.5073 -0.9526
  470MOL0     H63391  12.262   0.006   4.170  2.7510 -3.0638  0.7209
  470MOL0     H63392  12.289   0.097   4.317  1.4744  1.3476 -3.9644
  470MOL0     H63393  12.370  -0.073   4.426 -1.8517 -0.1690  0.4787
  470MOL0     H63394  12.277  -0.203   4.336 -1.7217  0.7070 -1.1538
  470MOL0     H63395  12.442  -0.154   4.138  3.1235 -0.1130 -1.0730
  470MOL0     H63396  12.528  -0.050   4.264 -1.8285  0.3457  0.9328
  470MOL0     H63397  12.447  -0.353   4.247 -0.1873 -0.0931 -0.6155
  470MOL0     H63398  12.525  -0.295   4.396  2.2122  1.2514 -0.6511
  470MOL0     H63399  12.667  -0.408   4.190  0.7792  0.3583 -0.5582
  470MOL0     H63400  12.650  -0.261   4.119 -0.8651  0.7814  0.6727
  470MOL0     H63401  12.823  -0.068   4.201  1.6257 -0.2846 -0.4570
  470MOL0     H63402  13.011   0.042   4.340 -0.9131 -0.5619  0.3252
  470MOL0     H63403  13.081  -0.041   4.472 -1.3644  1.3194 -0.2221
  470MOL0     H63404  13.142  -0.040   4.182  0.1526  0.2821  0.2646
  470MOL0     H63405  13.263  -0.029   4.307  1.1393 -2.3290 -0.5034
  470MOL0     H63406  13.151  -0.289   4.200 -0.5314  1.9075 -1.8630
  470MOL0     H63407  13.243  -0.287   4.345 -3.6024 -1.1361  0.0391
  470MOL0     H63408  13.431  -0.176   4.230 -0.1842  2.1531 -0.1685
  470MOL0     H63409  13.339  -0.147   4.085  2.0714  1.3135  0.8306
  470MOL0     H63410  13.538  -0.143   3.978 -2.4258 -0.3795 -2.4919
  470MOL0     H63411  13.722  -0.183   3.855  1.8596 -1.5282 -1.1492
  470MOL0     H63412  14.128  -0.375   3.750 -0.2527 -1.5302  0.3974
  470MOL0     H63413  14.308  -0.369   3.563  0.1454  0.2252 -1.3933
  470MOL0     H63414  14.205  -0.354   3.165  1.9215 -0.9821 -0.4809
  470MOL0     H63415  14.199  -0.177   3.183 -0.7786 -1.3087 -1.5244
  470MOL0     H63416  14.417  -0.140   3.134 -0.0690  0.4691 -3.6090
  470MOL0     H63417  14.460  -0.317   3.171  0.1328  1.1256  1.0249
  470MOL0     H63418  14.322  -0.384   2.978  0.0391  0.2189  0.5161
  470MOL0     H63419  14.281  -0.216   2.942 -1.5408 -2.1831 -0.4880
  470MOL0     H63420  14.564  -0.365   2.904 -0.1664 -1.5187  1.1075
  470MOL0     H63421  14.535  -0.195   2.921 -2.6221  0.3451  1.7951
  470MOL0     H63422  14.543  -0.269   2.678 -1.1695  1.8463  0.2505
  470MOL0     H63423  14.393  -0.187   2.727  0.6053  0.0147 -0.2455
  470MOL0     H63424  14.398  -0.480   2.749  2.2952  0.9741  0.9025
  470MOL0     H63425  14.265  -0.365   2.734  1.4002  1.9071  0.2474
  470MOL0     H63426  14.446  -0.458   2.505  1.4577 -0.0566  1.7254
  470MOL0     H63427  14.330  -0.326   2.490  2.5299 -1.0393 -1.8825
  470MOL0     H63428  14.149  -0.452   2.503 -0.6410 -1.3611 -0.7985
  470MOL0     H63429  14.266  -0.560   2.423  5.3262  0.1282  2.1852
  470MOL0     H63430  14.025  -0.238   3.287  0.9220 -1.4544 -0.5081
  470MOL0     H63431  13.839  -0.260   3.462 -0.9186 -0.2419  1.6139
  470MOL0     H63432  13.659  -0.605   3.873 -1.6242 -1.0973  1.1032
  470MOL0     H63433  13.469  -0.568   4.040  0.0896  0.8728  1.9317
  470MOL0     H63434  11.745   0.163   4.662 -0.7789 -0.5903  0.8970
  470MOL0     H63435  11.526   0.169   4.736  0.6212  1.7663  0.0364
  470MOL0     H63436  11.148  -0.054   4.675  1.2463  1.4258 -0.8814
  470MOL0     H63437  10.934  -0.116   4.760 -0.5208  0.7051  1.0356
  470MOL0     H63438  10.710  -0.157   4.720  1.2691  2.3366 -2.2376
  470MOL0     H63439  10.550  -0.105   4.749  0.6236 -1.3022 -1.6451
  470MOL0     H63440  10.773  -0.111   4.959  0.6752 -0.2974 -0.6789
  470MOL0     H63441  10.611  -0.182   4.974 -1.0511  1.9027  1.2988
  470MOL0     H63442  10.505   0.056   4.961 -0.7827  0.1608  1.7591
  470MOL0     H63443  10.675   0.109   5.001  0.4755 -0.2092  0.0507
  470MOL0     H63444  10.454  -0.009   5.155  0.2967  1.9693  0.4782
  470MOL0     H63445  10.583  -0.112   5.177 -2.3281 -1.1614  0.3852
  470MOL0     H63446  10.745   0.214   5.391  3.4003 -0.9898  0.0427
  470MOL0     H63447  10.766   0.255   4.640 -1.9103 -2.3731  1.3494
  470MOL0     H63448  10.873   0.401   4.523  1.0835  1.4939  1.7043
  470MOL0     H63449  11.042   0.441   4.567  0.9257  0.4348 -0.4123
  470MOL0     H63450  11.009   0.348   4.422 -1.1626 -1.8151  0.7945
  471MOL0     O63451   3.151   8.398   9.225  0.2088 -0.3554 -1.0013
  471MOL0     C63452   3.123   8.475   9.317  0.9995 -0.2788 -0.1547
  471MOL0     O63453   3.211   8.506   9.418  0.2126 -0.4935 -0.2466
  471MOL0     C63454   3.341   8.458   9.408 -0.2109 -0.9514 -0.1407
  471MOL0     C63455   3.442   8.538   9.353  0.6517 -1.3463 -0.6134
  471MOL0     C63456   3.574   8.491   9.343 -0.8530  0.1315 -0.2314
  471MOL0     C63457   3.596   8.358   9.385 -0.0368 -0.9605  1.0519
  471MOL0     O63458   3.724   8.314   9.383 -0.1239  0.3321  0.1280
  471MOL0     C63459   3.751   8.185   9.453 -0.0096  0.9016 -0.4969
  471MOL0     C63460   3.896   8.148   9.446 -0.6669 -0.6828 -0.3366
  471MOL0     C63461   3.996   8.195   9.559 -0.5055  0.9032 -0.3132
  471MOL0     C63462   4.140   8.207   9.527  0.0099 -0.4909 -0.4813
  471MOL0     C63463   4.216   8.228   9.664  0.1168 -1.0589  0.6277
  471MOL0     C63464   4.367   8.234   9.642 -0.8383  0.2273  0.3061
  471MOL0     C63465   4.442   8.238   9.775 -0.2864  0.9732  0.1158
  471MOL0     C63466   4.597   8.240   9.763  0.2325  0.9517  0.1726
  471MOL0     N63467   4.674   8.235   9.887  0.0543 -0.0632  0.2539
  471MOL0     C63468   4.689   8.337   9.974  0.0348  0.6962  1.2131
  471MOL0     C63469   4.772   8.289  10.074  0.6513 -0.1492 -0.2463
  471MOL0     C63470   4.837   8.372  10.185  0.5371  1.2333 -0.3322
  471MOL0     C63471   4.960   8.308  10.246 -1.0140  0.4729 -0.1196
  471MOL0     C63472   5.085   8.301  10.148  0.4400 -0.0879 -0.3223
  471MOL0     C63473   5.221   8.275  10.213 -0.8160  0.1302 -0.5522
  471MOL0     O63474   5.318   8.305  10.116 -1.1048 -0.6954 -0.5743
  471MOL0     C63475   5.448   8.286  10.165  0.5559  0.4064 -0.0141
  471MOL0     C63476   5.486   8.255  10.295  0.2811 -0.0985  0.4736
  471MOL0     C63477   5.619   8.251  10.336 -0.1824  0.9078  0.0924
  471MOL0     C63478   5.719   8.276  10.244  0.5048 -1.2390 -0.4543
  471MOL0     C63479   5.855   8.285  10.286 -0.3014 -0.5650  0.4167
  471MOL0     O63480   5.883   8.299  10.421 -0.1980  0.6510 -0.1793
  471MOL0     C63481   6.018   8.299  10.460  0.5199 -0.3422  0.1454
  471MOL0     C63482   6.075   8.170  10.466  0.5619  0.5209  0.3766
  471MOL0     C63483   6.204   8.155  10.519 -0.2689 -0.0358 -0.3039
  471MOL0     C63484   6.274   8.266  10.565 -0.2240 -0.0384 -0.0305
  471MOL0     O63485   6.392   8.240  10.626 -0.2057 -0.3662  0.6875
  471MOL0     C63486   6.469   8.343  10.675  0.2002  0.0771 -0.5157
  471MOL0     C63487   6.600   8.296  10.724 -0.6370  0.6969 -0.5671
  471MOL0     C63488   6.579   8.169  10.809 -0.0524  0.0886 -0.3872
  471MOL0     C63489   6.701   8.130  10.890 -0.0530  0.7653 -0.1705
  471MOL0     C63490   6.693   8.195  11.032 -0.1303  1.0684  0.1732
  471MOL0     C63491   6.831   8.218  11.105  0.2415 -0.7102  0.4530
  471MOL0     C63492   6.924   8.304  11.025  0.3805 -0.2036  0.3543
  471MOL0     C63493   7.055   8.331  11.098  0.0173 -0.1065 -0.5706
  471MOL0    Cl63494   7.027   8.384  11.271  0.2482  0.1540 -0.0610
  471MOL0     C63495   6.213   8.394  10.570  0.7089  0.7264  0.0680
  471MOL0     C63496   6.086   8.412  10.513 -0.0908 -0.2615  0.1243
  471MOL0     O63497   5.941   8.276  10.197 -0.0794  0.3458  0.1086
  471MOL0     C63498   5.685   8.290  10.102 -0.8132 -0.3464  0.3116
  471MOL0     C63499   5.552   8.298  10.065 -0.0200 -0.1183  0.1557
  471MOL0     N63500   4.772   8.160  10.056 -0.5074 -0.1769  0.0875
  471MOL0     N63501   4.717   8.124   9.942 -0.1057  0.5365 -0.4363
  471MOL0     C63502   3.492   8.277   9.430  0.2069 -0.3652  0.3202
  471MOL0     C63503   3.364   8.326   9.442 -0.5627 -0.1265  0.3152
  471MOL0     C63504   2.976   8.517   9.334 -0.0668 -0.0180 -0.3752
  471MOL0     C63505   2.950   8.612   9.439  0.4509 -0.1634 -0.7064
  471MOL0     C63506   2.822   8.665   9.455 -0.0698  0.5250 -1.2666
  471MOL0     C63507   2.715   8.635   9.381  0.3621 -0.2914  0.5736
  471MOL0     O63508   2.597   8.696   9.409  0.5709 -0.0618 -0.0961
  471MOL0     C63509   2.471   8.656   9.364  0.6017 -0.2387  0.3180
  471MOL0     C63510   2.372   8.757   9.422 -0.1162  0.1836  0.8647
  471MOL0     C63511   2.383   8.890   9.351 -0.8606 -0.4565  0.5236
  471MOL0     C63512   2.283   8.992   9.401 -0.8950 -0.5938  0.5021
  471MOL0     C63513   2.149   8.953   9.349 -0.6669  0.9160  0.0082
  471MOL0     C63514   2.036   8.945   9.302  0.0983  0.7136  0.4455
  471MOL0     C63515   2.740   8.552   9.272 -0.4373  0.8316  0.5576
  471MOL0     C63516   2.864   8.489   9.252  0.4540  0.1111 -0.5037
  471MOL0     C63517   2.876   8.406   9.124  0.2353 -0.7472 -0.0762
  471MOL0     H63518   3.420   8.637   9.315 -1.0155 -1.6687 -0.5566
  471MOL0     H63519   3.654   8.555   9.309 -2.6621  1.9625 -1.3041
  471MOL0     H63520   3.713   8.178   9.556 -3.8567 -2.1595 -1.8618
  471MOL0     H63521   3.698   8.105   9.401  0.5837  1.0621 -1.3628
  471MOL0     H63522   3.935   8.189   9.352  2.4896 -2.5332  0.0144
  471MOL0     H63523   3.903   8.040   9.429 -0.7319 -0.5268 -1.3994
  471MOL0     H63524   3.991   8.128   9.644 -0.4946  2.6229  1.1078
  471MOL0     H63525   3.973   8.297   9.592 -0.4347  1.1202 -0.9236
  471MOL0     H63526   4.170   8.117   9.473 -2.1748 -0.2394 -2.2491
  471MOL0     H63527   4.157   8.294   9.464 -1.9049 -0.4608 -1.0235
  471MOL0     H63528   4.189   8.329   9.696  0.6390 -0.6016 -0.3049
  471MOL0     H63529   4.187   8.153   9.738 -0.0488 -0.8270  0.7966
  471MOL0     H63530   4.398   8.145   9.586  0.5332  2.2586 -2.4288
  471MOL0     H63531   4.399   8.322   9.584  0.1419  0.0768  0.5953
  471MOL0     H63532   4.417   8.147   9.830  1.3603  0.8459  0.7070
  471MOL0     H63533   4.404   8.326   9.827  0.7538  1.3932  0.1875
  471MOL0     H63534   4.627   8.160   9.696  0.4553  0.4162  0.8947
  471MOL0     H63535   4.630   8.336   9.724  0.6622  1.4724  1.7254
  471MOL0     H63536   4.659   8.438   9.949 -1.1814 -0.4119 -2.5351
  471MOL0     H63537   4.867   8.472  10.150 -1.6307  2.0752  0.0344
  471MOL0     H63538   4.756   8.373  10.258  0.6126  0.3411 -0.2274
  471MOL0     H63539   4.990   8.374  10.328 -0.2044  0.8313 -0.6899
  471MOL0     H63540   4.931   8.209  10.282 -0.5599  0.6588  0.7996
  471MOL0     H63541   5.101   8.390  10.087  4.7478  0.0401  0.6819
  471MOL0     H63542   5.066   8.216  10.082  0.1639 -0.0432 -0.3028
  471MOL0     H63543   5.232   8.173  10.252 -0.7399  0.9322  1.6216
  471MOL0     H63544   5.238   8.334  10.303  1.2692  0.1388 -0.8897
  471MOL0     H63545   5.403   8.239  10.362 -0.9396  1.8247 -0.4917
  471MOL0     H63546   5.651   8.217  10.434  1.1086  0.4402 -0.4667
  471MOL0     H63547   6.006   8.091  10.439 -2.6452  1.6046  4.3224
  471MOL0     H63548   6.234   8.054  10.544 -0.6516  0.5537  2.9029
  471MOL0     H63549   6.490   8.412  10.593 -1.5681  1.1609 -0.1123
  471MOL0     H63550   6.417   8.396  10.756  1.0518  0.8906 -0.4857
  471MOL0     H63551   6.668   8.282  10.639 -0.0213  0.9695 -0.1307
  471MOL0     H63552   6.641   8.376  10.786 -2.2180  0.5751  0.6847
  471MOL0     H63553   6.493   8.184  10.875  1.8296 -0.1104  2.2931
  471MOL0     H63554   6.548   8.083  10.749 -0.2325 -1.6971  2.0817
  471MOL0     H63555   6.791   8.166  10.838  1.0684 -2.0573 -0.3678
  471MOL0     H63556   6.717   8.022  10.897  1.6773  1.0168  0.1320
  471MOL0     H63557   6.619   8.140  11.091  2.0977 -0.3521  1.8201
  471MOL0     H63558   6.649   8.294  11.024  1.6315  1.9206  0.6218
  471MOL0     H63559   6.815   8.272  11.199  2.6392  0.7222  0.1316
  471MOL0     H63560   6.873   8.120  11.129  1.4306  0.3668  3.2219
  471MOL0     H63561   6.872   8.397  11.000 -0.6964 -0.0538  2.8294
  471MOL0     H63562   6.956   8.248  10.937 -0.3391 -0.7027  0.4071
  471MOL0     H63563   7.121   8.244  11.097 -1.4048 -1.2337 -1.9923
  471MOL0     H63564   7.102   8.415  11.045 -2.1161  1.3566 -0.2674
  471MOL0     H63565   6.258   8.481  10.615  0.7563 -0.0877  1.6643
  471MOL0     H63566   6.041   8.511  10.516 -1.3311 -0.8193  0.8334
  471MOL0     H63567   5.768   8.287  10.032 -1.8187 -1.8576 -0.8608
  471MOL0     H63568   5.524   8.312   9.961 -1.8020 -5.0748 -0.3207
  471MOL0     H63569   3.503   8.181   9.479 -0.9093 -0.6862 -0.0336
  471MOL0     H63570   3.281   8.265   9.473 -2.4338  2.1701  0.0856
  471MOL0     H63571   3.029   8.659   9.498 -0.4241  0.2777  0.1439
  471MOL0     H63572   2.802   8.733   9.537 -0.7293  1.5074 -2.2140
  471MOL0     H63573   2.443   8.557   9.403 -1.3968  0.9104  1.9849
  471MOL0     H63574   2.459   8.644   9.256 -0.5342 -1.0749  0.5194
  471MOL0     H63575   2.391   8.775   9.528  0.9777 -2.4409  1.1920
  471MOL0     H63576   2.275   8.713   9.398  0.2529  0.9662 -2.5850
  471MOL0     H63577   2.366   8.886   9.243  2.5207  0.4021 -0.1577
  471MOL0     H63578   2.483   8.934   9.352  0.0523 -2.4373 -0.2227
  471MOL0     H63579   2.283   8.987   9.510 -1.5641  1.5078  0.6433
  471MOL0     H63580   2.310   9.094   9.374  0.3426 -1.2899 -1.0484
  471MOL0     H63581   1.935   8.937   9.270 -0.2099  2.4338  0.9047
  471MOL0     H63582   2.666   8.529   9.197 -0.4693  2.7763 -0.0546
  471MOL0     H63583   2.898   8.302   9.151 -0.5691 -0.4996  1.6686
  471MOL0     H63584   2.788   8.408   9.059 -0.3987  0.0769  0.7730
  471MOL0     H63585   2.959   8.439   9.062  1.7489 -1.0174  1.7038
  472MOL0     O63586   1.844   6.390  10.543 -0.6011 -0.5578 -0.4721
  472MOL0     C63587   1.763   6.303  10.516  0.2512 -0.7528 -0.0775
  472MOL0     O63588   1.800   6.172  10.492  0.3922 -0.1762  0.2752
  472MOL0     C63589   1.927   6.122  10.486  0.3793  0.2014  0.7675
  472MOL0     C63590   1.956   5.982  10.504 -0.0047  0.2284 -0.6213
  472MOL0     C63591   2.084   5.928  10.475 -1.3138  0.3528  0.3019
  472MOL0     C63592   2.183   6.010  10.411  0.3572  0.0509 -0.9722
  472MOL0     O63593   2.298   5.971  10.354  0.0131 -0.0627 -0.3325
  472MOL0     C63594   2.343   5.837  10.344 -0.8914  0.2471  0.1749
  472MOL0     C63595   2.402   5.785  10.477  0.2293 -0.3155  0.8633
  472MOL0     C63596   2.496   5.882  10.558  0.2682  0.6360  0.3910
  472MOL0     C63597   2.638   5.885  10.499  0.0398 -0.3509  0.5556
  472MOL0     C63598   2.720   6.006  10.556 -0.1949 -0.4833  0.6178
  472MOL0     C63599   2.862   5.985  10.502  0.0983 -0.0993 -0.8969
  472MOL0     C63600   2.939   6.120  10.532 -0.2760  0.4282 -0.7882
  472MOL0     C63601   3.074   6.119  10.457  0.3858 -0.2233  0.9455
  472MOL0     N63602   3.156   5.998  10.482  0.2126 -0.1770  0.1745
  472MOL0     C63603   3.248   5.976  10.584  0.3043  0.3026  0.8171
  472MOL0     C63604   3.312   5.861  10.556  0.7376 -0.8059 -0.7265
  472MOL0     C63605   3.413   5.795  10.645 -0.3308 -0.1103 -0.0285
  472MOL0     C63606   3.346   5.683  10.732  1.1859  0.7203 -0.5187
  472MOL0     C63607   3.425   5.637  10.853  0.0543 -0.5342  0.1508
  472MOL0     C63608   3.572   5.593  10.821  0.2007  0.5488  0.2529
  472MOL0     O63609   3.635   5.562  10.946  0.0358  0.0315  0.2057
  472MOL0     C63610   3.762   5.524  10.933 -0.4777 -0.0316  0.4823
  472MOL0     C63611   3.826   5.501  11.051 -0.1938 -0.4607  0.2977
  472MOL0     C63612   3.966   5.460  11.045 -0.3237  0.0091 -0.0996
  472MOL0     C63613   4.037   5.447  10.925 -0.2427  0.6421  0.5531
  472MOL0     C63614   4.181   5.409  10.918  0.4550  0.1948  0.7024
  472MOL0     O63615   4.254   5.414  10.795  0.3311  0.0519  0.1380
  472MOL0     C63616   4.381   5.366  10.799 -0.7049 -0.8637  0.2512
  472MOL0     C63617   4.494   5.441  10.849  0.9188  0.0496 -0.0749
  472MOL0     C63618   4.621   5.384  10.856 -0.1910  0.6036  0.4718
  472MOL0     C63619   4.639   5.248  10.815 -0.0940 -0.6896 -0.1815
  472MOL0     O63620   4.764   5.192  10.824 -0.2425  0.3977 -0.6770
  472MOL0     C63621   4.874   5.252  10.751  0.2581 -0.2041 -0.4582
  472MOL0     C63622   4.990   5.282  10.860 -0.3253 -0.0095 -0.6177
  472MOL0     C63623   5.109   5.353  10.802  0.5216  0.2998 -0.0867
  472MOL0     C63624   5.095   5.504  10.811 -0.2696  0.3723  0.6595
  472MOL0     C63625   5.199   5.576  10.721  0.5309 -0.1989 -0.1553
  472MOL0     C63626   5.342   5.578  10.782  0.3102 -0.0621  0.5022
  472MOL0     C63627   5.442   5.660  10.693  0.1433 -0.5687  0.2158
  472MOL0     C63628   5.578   5.663  10.761  0.3930 -0.0877 -0.3571
  472MOL0    Cl63629   5.704   5.746  10.654 -0.1151  0.0903 -0.1694
  472MOL0     C63630   4.533   5.166  10.761  0.2848 -1.0156  0.5740
  472MOL0     C63631   4.402   5.234  10.746 -0.4417  0.3557 -0.9257
  472MOL0     O63632   4.233   5.381  11.025  0.2628 -0.1324  0.0869
  472MOL0     C63633   3.969   5.499  10.810  0.8461  0.4152  0.5216
  472MOL0     C63634   3.833   5.531  10.812 -0.8464  0.9341  0.4762
  472MOL0     N63635   3.254   5.817  10.439  0.0683 -0.2528 -0.3182
  472MOL0     N63636   3.162   5.894  10.394 -0.9515 -0.8628 -0.0119
  472MOL0     C63637   2.159   6.149  10.397  1.4494  0.1231  0.7344
  472MOL0     C63638   2.032   6.201  10.434  1.2027 -0.4670  0.8180
  472MOL0     C63639   1.617   6.343  10.518 -0.1151  0.3634  0.5441
  472MOL0     C63640   1.525   6.262  10.446  0.1953 -0.5081  0.0184
  472MOL0     C63641   1.389   6.308  10.440  0.2774  0.2659  0.3372
  472MOL0     C63642   1.345   6.419  10.511 -0.1515  0.0686 -0.1160
  472MOL0     O63643   1.216   6.453  10.510  0.4130  0.4640  0.7186
  472MOL0     C63644   1.115   6.393  10.433 -0.1396 -0.4514  0.2250
  472MOL0     C63645   1.054   6.268  10.499  0.4172  0.4188  0.6376
  472MOL0     C63646   0.924   6.305  10.563  0.2730 -0.0436  0.1955
  472MOL0     C63647   0.865   6.182  10.624 -0.6351 -0.2806 -0.5305
  472MOL0     C63648   0.726   6.206  10.675  0.3995 -1.0509  0.7598
  472MOL0     C63649   0.614   6.220  10.720 -0.0275 -1.0351  0.4476
  472MOL0     C63650   1.433   6.504  10.570  0.1707  0.0923 -0.3814
  472MOL0     C63651   1.565   6.468  10.580 -0.4653  0.6638 -0.0039
  472MOL0     C63652   1.647   6.571  10.649  0.2744  0.1163  0.3724
  472MOL0     H63653   1.867   5.925  10.529  0.5677  0.1470  1.4504
  472MOL0     H63654   2.100   5.825  10.506  0.6027  0.9523  1.4744
  472MOL0     H63655   2.259   5.781  10.301 -0.6246  2.0342 -2.9232
  472MOL0     H63656   2.419   5.844  10.267 -0.0979 -0.7153  0.8466
  472MOL0     H63657   2.455   5.696  10.443 -0.8225 -0.9194  0.7743
  472MOL0     H63658   2.319   5.759  10.542 -1.4394 -1.2952 -1.5105
  472MOL0     H63659   2.508   5.850  10.662 -0.6767 -2.3432 -0.3241
  472MOL0     H63660   2.450   5.981  10.564  0.7803  0.9640 -0.8118
  472MOL0     H63661   2.692   5.794  10.528 -1.2797 -0.9294  1.2999
  472MOL0     H63662   2.634   5.896  10.391  0.3114  1.2616  0.6852
  472MOL0     H63663   2.676   6.097  10.514 -1.9862 -0.9828  1.3112
  472MOL0     H63664   2.710   6.015  10.665 -0.6917 -0.6497  0.5899
  472MOL0     H63665   2.899   5.897  10.556 -1.9256 -0.7027 -0.4154
  472MOL0     H63666   2.863   5.963  10.395 -1.0073  1.7046 -1.3233
  472MOL0     H63667   2.965   6.137  10.637  0.8667  0.1960 -1.0241
  472MOL0     H63668   2.875   6.199  10.490 -1.1438 -0.1822 -0.6516
  472MOL0     H63669   3.052   6.122  10.350 -1.8265 -1.0296  1.3215
  472MOL0     H63670   3.142   6.202  10.478  0.9478 -0.3800 -0.2161
  472MOL0     H63671   3.262   6.044  10.668 -1.4291  2.6320 -0.6667
  472MOL0     H63672   3.475   5.744  10.571 -1.6514  0.6499 -1.7256
  472MOL0     H63673   3.471   5.865  10.705  2.8487 -1.0676 -1.7560
  472MOL0     H63674   3.246   5.713  10.764  1.4272  0.4031  0.5782
  472MOL0     H63675   3.333   5.589  10.676 -0.3124 -0.1559  1.1873
  472MOL0     H63676   3.370   5.553  10.897 -1.3554  0.3924  0.1979
  472MOL0     H63677   3.428   5.717  10.928  3.1958  0.2366 -0.6338
  472MOL0     H63678   3.615   5.675  10.762 -2.4552  0.9753 -1.2467
  472MOL0     H63679   3.578   5.505  10.756 -0.0383 -0.5370  1.6639
  472MOL0     H63680   3.775   5.510  11.146 -0.8447  0.1481 -0.1002
  472MOL0     H63681   4.021   5.445  11.137  1.2538  2.0842 -0.6274
  472MOL0     H63682   4.466   5.541  10.880 -0.5464 -0.8247  1.6588
  472MOL0     H63683   4.709   5.430  10.902 -0.2432  1.3748 -0.1825
  472MOL0     H63684   4.919   5.180  10.682  1.5105 -1.4825  1.5749
  472MOL0     H63685   4.854   5.341  10.690  0.0467 -0.5758 -0.9394
  472MOL0     H63686   4.947   5.334  10.947 -2.6241 -1.3608 -0.8479
  472MOL0     H63687   5.031   5.186  10.893  0.9518  0.4382 -0.8430
  472MOL0     H63688   5.202   5.328  10.854  0.6812  0.4013 -0.3255
  472MOL0     H63689   5.113   5.323  10.697  0.9238  1.9725 -0.5742
  472MOL0     H63690   5.114   5.532  10.915 -0.6150  1.1733  0.5084
  472MOL0     H63691   4.992   5.531  10.787 -0.7298 -1.3712  0.5123
  472MOL0     H63692   5.170   5.681  10.707  0.2386 -0.3367 -0.6261
  472MOL0     H63693   5.193   5.532  10.621 -1.8322 -2.6992  0.9793
  472MOL0     H63694   5.342   5.631  10.877  1.4198  2.1211 -0.6405
  472MOL0     H63695   5.376   5.476  10.803  0.9155 -0.0500 -0.3498
  472MOL0     H63696   5.405   5.763  10.683  1.6887 -0.0158 -0.0387
  472MOL0     H63697   5.453   5.625  10.590 -1.4441  2.6307 -1.1894
  472MOL0     H63698   5.579   5.705  10.862  3.8544 -0.4856 -0.1144
  472MOL0     H63699   5.599   5.557  10.780 -2.0598 -0.4092  1.0749
  472MOL0     H63700   4.553   5.069  10.716 -2.0791 -1.4990  0.4198
  472MOL0     H63701   4.321   5.183  10.695 -1.1252  0.0695  0.4072
  472MOL0     H63702   4.017   5.500  10.713 -0.5147  0.5820 -0.1699
  472MOL0     H63703   3.794   5.556  10.714 -0.2354  0.5795  0.1380
  472MOL0     H63704   2.229   6.212  10.343 -0.4549  0.7883 -1.0836
  472MOL0     H63705   2.013   6.304  10.409  4.3158  0.0177 -0.0516
  472MOL0     H63706   1.568   6.175  10.397 -2.0697 -2.3209  1.0848
  472MOL0     H63707   1.312   6.250  10.389 -0.6408  0.1152  1.8457
  472MOL0     H63708   1.147   6.368  10.331  1.1731  2.7517 -0.2727
  472MOL0     H63709   1.044   6.474  10.413 -0.6734 -0.7532  0.8493
  472MOL0     H63710   1.119   6.217  10.571  1.5042 -3.2068 -2.5404
  472MOL0     H63711   1.029   6.189  10.426 -2.4777  0.4163  1.4862
  472MOL0     H63712   0.858   6.345  10.486 -1.0881  2.8226  2.6207
  472MOL0     H63713   0.940   6.389  10.631 -1.1840  2.5076 -2.3889
  472MOL0     H63714   0.864   6.099  10.552  2.0318 -0.4189 -0.4944
  472MOL0     H63715   0.923   6.134  10.704  1.7852 -1.3473 -2.7704
  472MOL0     H63716   0.522   6.223  10.774  0.9613  0.7881  2.1376
  472MOL0     H63717   1.399   6.599  10.609  2.2745  1.1451 -0.9803
  472MOL0     H63718   1.714   6.615  10.574 -0.9970 -2.0789 -2.2375
  472MOL0     H63719   1.587   6.643  10.705 -2.1304 -1.4109 -0.0688
  472MOL0     H63720   1.704   6.520  10.727  1.5617  3.4492  1.7628
  473MOL0     O63721  11.179   3.988   6.069 -0.1207 -0.2360  0.3149
  473MOL0     C63722  11.083   3.927   6.114  0.4847 -0.6708  0.5421
  473MOL0     O63723  11.080   3.808   6.179  0.4043  0.1924 -0.1963
  473MOL0     C63724  11.194   3.742   6.211 -0.7004 -0.1117 -0.7560
  473MOL0     C63725  11.209   3.666   6.331 -0.1016 -0.3323  0.5779
  473MOL0     C63726  11.330   3.596   6.358 -0.0600 -0.2829 -0.0061
  473MOL0     C63727  11.443   3.621   6.274  0.3411  0.1761 -0.4188
  473MOL0     O63728  11.568   3.572   6.298 -0.1034 -0.1309 -0.1297
  473MOL0     C63729  11.590   3.426   6.314 -0.2682 -0.8973  0.7616
  473MOL0     C63730  11.728   3.408   6.391 -0.3282  0.1910 -0.2550
  473MOL0     C63731  11.860   3.427   6.301  0.3169 -0.6122  0.1347
  473MOL0     C63732  11.987   3.368   6.379 -0.9868 -0.2848 -0.2930
  473MOL0     C63733  12.115   3.370   6.293 -0.0129 -0.8079  0.8287
  473MOL0     C63734  12.117   3.264   6.181 -0.2888 -0.3497  0.3587
  473MOL0     C63735  12.235   3.289   6.091  0.3389  0.4239  0.1946
  473MOL0     C63736  12.265   3.169   6.002  0.9997  0.3893  0.6979
  473MOL0     N63737  12.403   3.168   5.956 -0.9794  0.4040  0.2454
  473MOL0     C63738  12.521   3.131   6.026 -0.1495  0.4158 -0.1562
  473MOL0     C63739  12.617   3.110   5.932  0.1063  0.0811  0.0511
  473MOL0     C63740  12.767   3.084   5.948  0.1797 -0.1429 -0.0452
  473MOL0     C63741  12.785   2.929   5.974 -0.7624 -0.6334 -0.4829
  473MOL0     C63742  12.921   2.904   6.025  0.2141 -0.3423  0.3031
  473MOL0     C63743  13.026   2.923   5.918 -1.2728 -0.6022 -0.1929
  473MOL0     O63744  13.137   2.834   5.946 -0.1927  0.3378  0.1257
  473MOL0     C63745  13.259   2.880   5.978 -0.3370  0.4365  0.6002
  473MOL0     C63746  13.307   2.986   5.905 -0.9364 -0.3987  0.6788
  473MOL0     C63747  13.429   3.052   5.941  0.0789 -0.8493 -0.1605
  473MOL0     C63748  13.501   3.002   6.058  0.3183 -0.9110  0.0803
  473MOL0     C63749  13.628   3.065   6.106 -0.5120 -0.1578  0.6203
  473MOL0     O63750  13.670   3.174   6.044  0.5522 -0.0182  0.2636
  473MOL0     C63751  13.801   3.210   6.050 -0.1314 -0.4019  0.6661
  473MOL0     C63752  13.913   3.134   6.095  0.7359  0.9341  0.2317
  473MOL0     C63753  14.045   3.172   6.073  1.1907 -0.7138 -1.0751
  473MOL0     C63754  14.074   3.307   6.033  0.8740  0.4910  0.4325
  473MOL0     O63755  14.203   3.344   6.028  0.1963 -0.6473  0.0539
  473MOL0     C63756  14.235   3.482   6.004 -0.4233  0.4399  0.1503
  473MOL0     C63757  14.392   3.497   6.026 -0.2493 -0.0904  0.1931
  473MOL0     C63758  14.438   3.644   6.055  0.0160  0.6403  0.3557
  473MOL0     C63759  14.581   3.671   6.099  0.4061  0.2281 -0.6910
  473MOL0     C63760  14.591   3.813   6.158 -0.5652 -0.8883  0.0872
  473MOL0     C63761  14.731   3.856   6.213 -0.3513  0.6986  0.5526
  473MOL0     C63762  14.724   3.977   6.308  0.8229  0.8668  0.5428
  473MOL0     C63763  14.629   4.095   6.253  0.1373  0.3559  0.2222
  473MOL0    Cl63764  14.621   4.232   6.356 -0.3478 -0.0475  0.1290
  473MOL0     C63765  13.961   3.383   5.998  0.3764  0.0257 -0.6465
  473MOL0     C63766  13.826   3.334   5.988 -0.0055  0.0886 -0.2876
  473MOL0     O63767  13.677   3.019   6.205 -0.0182  0.1139 -0.0418
  473MOL0     C63768  13.451   2.888   6.124 -0.3078 -0.9194  0.5478
  473MOL0     C63769  13.332   2.837   6.087  1.1328  1.1508 -0.5408
  473MOL0     N63770  12.560   3.132   5.810  0.5724  0.3305  0.9406
  473MOL0     N63771  12.434   3.161   5.820 -0.6543  0.7205 -0.2724
  473MOL0     C63772  11.433   3.696   6.163  0.1405  0.2917  0.3596
  473MOL0     C63773  11.312   3.751   6.128  0.3465  0.2384  0.2804
  473MOL0     C63774  10.954   4.004   6.101 -0.1823 -0.1188 -0.3971
  473MOL0     C63775  10.853   3.990   6.204 -0.4133  0.5801  0.3554
  473MOL0     C63776  10.726   4.038   6.191  0.2271  0.0501 -0.0019
  473MOL0     C63777  10.699   4.117   6.079  0.1032  0.0495  0.5967
  473MOL0     O63778  10.578   4.178   6.074  0.0938 -0.1523  0.1085
  473MOL0     C63779  10.503   4.170   5.950 -0.6605 -0.2349 -0.0174
  473MOL0     C63780  10.362   4.206   5.971  0.1619  0.1617  0.7177
  473MOL0     C63781  10.277   4.250   5.844 -0.1812 -0.3216  0.4881
  473MOL0     C63782  10.137   4.305   5.871 -0.1856 -0.6235  0.3872
  473MOL0     C63783  10.072   4.393   5.769  0.1788 -0.8243 -0.4393
  473MOL0     C63784  10.031   4.478   5.697 -0.0867  0.0321 -0.7297
  473MOL0     C63785  10.799   4.150   5.986 -0.5796 -0.0034 -0.7874
  473MOL0     C63786  10.926   4.095   5.993  0.2049  0.5926 -0.3674
  473MOL0     C63787  11.000   4.133   5.870 -0.3175 -0.6637  0.1171
  473MOL0     H63788  11.125   3.652   6.398 -1.0989 -0.5870 -0.6844
  473MOL0     H63789  11.334   3.529   6.442  1.4415 -2.3728 -1.6337
  473MOL0     H63790  11.510   3.379   6.373  1.1610 -0.4111  3.2514
  473MOL0     H63791  11.593   3.369   6.220  1.6095 -0.5465  0.5629
  473MOL0     H63792  11.739   3.308   6.435 -1.7971 -1.3530 -3.0900
  473MOL0     H63793  11.722   3.477   6.475  1.2241  0.6265 -0.4720
  473MOL0     H63794  11.875   3.534   6.280  1.9818 -0.8202  0.0737
  473MOL0     H63795  11.842   3.386   6.201 -2.0529  1.5510 -0.4302
  473MOL0     H63796  12.016   3.433   6.461  2.8104  1.5237 -2.7904
  473MOL0     H63797  11.960   3.270   6.418  1.0115 -0.8649 -0.2775
  473MOL0     H63798  12.119   3.470   6.250 -0.2907 -2.3429 -3.1055
  473MOL0     H63799  12.205   3.359   6.355  1.2098 -0.1467 -0.7599
  473MOL0     H63800  12.121   3.164   6.224  3.9195 -1.6378 -2.4515
  473MOL0     H63801  12.019   3.280   6.134 -1.8890 -0.6812  3.3327
  473MOL0     H63802  12.318   3.301   6.160 -0.2671  0.1131  0.9969
  473MOL0     H63803  12.217   3.375   6.026  0.2719  0.1300 -0.1826
  473MOL0     H63804  12.252   3.077   6.059 -0.5679 -0.4927 -0.9973
  473MOL0     H63805  12.196   3.179   5.918  0.6396  2.8272  1.1852
  473MOL0     H63806  12.532   3.125   6.134 -0.2372 -4.3204 -0.1778
  473MOL0     H63807  12.822   3.120   5.860 -3.8867  0.4132 -2.6110
  473MOL0     H63808  12.790   3.149   6.033 -2.5383  3.4862 -1.7823
  473MOL0     H63809  12.707   2.892   6.042 -1.7577  0.3868 -1.0261
  473MOL0     H63810  12.767   2.867   5.886  2.4253 -1.1610 -0.8811
  473MOL0     H63811  12.921   2.799   6.055 -2.7378  0.1663  2.4662
  473MOL0     H63812  12.956   2.961   6.111  1.1123  0.1502 -0.3639
  473MOL0     H63813  13.053   3.028   5.934 -3.2098 -0.4032  2.4311
  473MOL0     H63814  12.990   2.921   5.814 -0.1242  0.9716 -0.6562
  473MOL0     H63815  13.247   3.037   5.830 -0.3493 -0.6578  0.0239
  473MOL0     H63816  13.464   3.133   5.877 -0.2642 -1.6022 -1.3503
  473MOL0     H63817  13.895   3.036   6.140 -0.4896  1.1781  0.3152
  473MOL0     H63818  14.130   3.108   6.092  1.7362  0.2588 -0.1257
  473MOL0     H63819  14.219   3.518   5.902  0.7782  1.3005  0.2405
  473MOL0     H63820  14.178   3.538   6.078 -2.8037 -1.5146 -0.0805
  473MOL0     H63821  14.428   3.441   6.113  2.1463  0.6822 -0.2265
  473MOL0     H63822  14.448   3.456   5.942  2.1346  0.8591  1.2148
  473MOL0     H63823  14.419   3.696   5.960 -0.3119 -4.7415 -2.9896
  473MOL0     H63824  14.372   3.681   6.134 -0.4947 -0.6901  0.5720
  473MOL0     H63825  14.651   3.654   6.017  0.9087 -3.3112  0.3031
  473MOL0     H63826  14.595   3.603   6.183 -1.5920  1.5961  0.8535
  473MOL0     H63827  14.514   3.830   6.234  2.5478 -0.2324  3.4364
  473MOL0     H63828  14.560   3.877   6.075  2.6605 -2.4177 -2.5493
  473MOL0     H63829  14.776   3.768   6.259  1.5541  1.0289 -0.5997
  473MOL0     H63830  14.787   3.874   6.121  0.3164 -1.5281  0.4651
  473MOL0     H63831  14.821   4.012   6.342  0.2703  2.9049  0.1564
  473MOL0     H63832  14.668   3.938   6.393 -1.2944  1.9171 -0.2803
  473MOL0     H63833  14.661   4.123   6.152  1.0045 -2.6178 -0.4145
  473MOL0     H63834  14.525   4.066   6.239  0.8889 -1.7579 -1.6557
  473MOL0     H63835  13.991   3.481   5.961  2.8122 -0.0903  0.8327
  473MOL0     H63836  13.742   3.395   5.957 -1.1035 -1.1797  0.0882
  473MOL0     H63837  13.508   2.846   6.206  0.6635 -0.3864  0.1591
  473MOL0     H63838  13.293   2.755   6.147 -1.6986  3.0388  0.4000
  473MOL0     H63839  11.525   3.706   6.106  0.4144 -2.5458  0.1623
  473MOL0     H63840  11.313   3.810   6.037 -2.0617  1.8652  1.2286
  473MOL0     H63841  10.889   3.935   6.290  3.5150  1.9868 -0.1606
  473MOL0     H63842  10.640   4.011   6.252 -0.7967  4.2750  0.7567
  473MOL0     H63843  10.502   4.066   5.916 -2.6834 -0.3510  0.2886
  473MOL0     H63844  10.531   4.251   5.882  0.1807  0.7979  1.5056
  473MOL0     H63845  10.354   4.279   6.052  2.8221  1.4917 -0.0884
  473MOL0     H63846  10.309   4.113   5.993 -0.3287  0.2525 -0.0497
  473MOL0     H63847  10.270   4.163   5.778  1.3545 -1.5063  1.8032
  473MOL0     H63848  10.328   4.330   5.790 -0.3851  1.0139  2.1797
  473MOL0     H63849  10.078   4.216   5.893  2.7139 -2.3015  1.9567
  473MOL0     H63850  10.151   4.366   5.961  1.2247 -0.9179  0.4002
  473MOL0     H63851   9.999   4.564   5.641 -0.6458  0.5711  0.3902
  473MOL0     H63852  10.789   4.225   5.909  1.0962  1.2344  0.1611
  473MOL0     H63853  11.083   4.064   5.851 -1.2057 -2.0520  1.0501
  473MOL0     H63854  10.934   4.151   5.785  0.6877  1.9763 -0.2039
  473MOL0     H63855  11.046   4.231   5.887 -0.6477 -0.5868  0.5988
  474MOL0     O63856   0.585   0.647  10.173 -0.7651 -0.1688 -0.2565
  474MOL0     C63857   0.593   0.693  10.287  0.0359  0.7462 -0.6247
  474MOL0     O63858   0.706   0.715  10.360 -0.9333  0.1353  0.6552
  474MOL0     C63859   0.838   0.686  10.319 -0.0207  0.0985 -0.3026
  474MOL0     C63860   0.883   0.692  10.184 -0.4793 -0.1650  0.2395
  474MOL0     C63861   1.017   0.660  10.140 -0.0302  0.4260  0.2261
  474MOL0     C63862   1.103   0.603  10.236 -0.4155  0.2730 -0.4529
  474MOL0     O63863   1.227   0.552  10.196 -0.3032  0.2152  0.0501
  474MOL0     C63864   1.311   0.621  10.101  0.3119  0.4333 -0.7205
  474MOL0     C63865   1.456   0.634  10.156  0.5166  0.7225  0.2058
  474MOL0     C63866   1.542   0.691  10.044  0.0309  0.1781 -0.2183
  474MOL0     C63867   1.690   0.723  10.087  0.4331  0.0563 -0.5162
  474MOL0     C63868   1.762   0.767   9.960  0.6321 -0.4822  0.3424
  474MOL0     C63869   1.911   0.799   9.988  0.2245  0.1048 -0.1312
  474MOL0     C63870   1.984   0.844   9.863  0.1645 -0.0577 -0.0312
  474MOL0     C63871   2.134   0.842   9.889  0.1953  0.8957 -0.8856
  474MOL0     N63872   2.199   0.705   9.877  0.6539  0.6119  0.6194
  474MOL0     C63873   2.269   0.625   9.972 -0.0427  0.3322 -0.2792
  474MOL0     C63874   2.280   0.498   9.925 -0.1523 -0.3673 -0.3375
  474MOL0     C63875   2.359   0.389   9.994  0.8352  0.6149  0.7246
  474MOL0     C63876   2.466   0.336   9.905  0.3526 -0.1774  0.3295
  474MOL0     C63877   2.535   0.217   9.970 -0.1962  0.9852 -0.0468
  474MOL0     C63878   2.635   0.147   9.881 -0.1148  0.1060  0.4950
  474MOL0     O63879   2.745   0.232   9.837 -1.0018 -0.1693 -0.0597
  474MOL0     C63880   2.829   0.190   9.734  0.2460  0.1707  0.7250
  474MOL0     C63881   2.847   0.058   9.685 -0.1069  0.0961 -0.5035
  474MOL0     C63882   2.952   0.035   9.590 -0.0981  0.0138 -0.2394
  474MOL0     C63883   3.046   0.140   9.552 -0.3437 -0.7249 -0.6590
  474MOL0     C63884   3.152   0.113   9.456  0.6353  0.5316  0.3731
  474MOL0     O63885   3.241   0.210   9.430 -0.8907  0.2531 -0.7078
  474MOL0     C63886   3.313   0.185   9.309  0.0007  0.7128  0.0112
  474MOL0     C63887   3.449   0.205   9.311 -0.3318 -0.0220  0.0498
  474MOL0     C63888   3.530   0.175   9.199 -0.1006  0.4751 -0.4714
  474MOL0     C63889   3.473   0.125   9.081 -0.2601  1.0362 -0.3395
  474MOL0     O63890   3.536   0.070   8.971 -0.2493 -0.2190 -0.7165
  474MOL0     C63891   3.677   0.062   8.952 -0.1675  0.2817 -0.2553
  474MOL0     C63892   3.726   0.190   8.908  0.0433  0.9556  0.2673
  474MOL0     C63893   3.875   0.199   8.879  0.6427 -0.1730  0.9022
  474MOL0     C63894   3.898   0.346   8.836  0.0978 -0.4390  0.1834
  474MOL0     C63895   4.038   0.387   8.790  0.5269 -0.3265 -0.6839
  474MOL0     C63896   4.142   0.328   8.884  0.3005 -0.1241  1.1275
  474MOL0     C63897   4.271   0.395   8.843 -0.5398  0.0914 -0.2710
  474MOL0     C63898   4.400   0.313   8.881  0.5152  0.0027  0.1214
  474MOL0    Cl63899   4.423   0.180   8.769 -0.0140  0.2973 -0.5748
  474MOL0     C63900   3.335   0.106   9.078 -0.7015  0.2252  0.0126
  474MOL0     C63901   3.255   0.136   9.188  0.6381  0.6031  0.0093
  474MOL0     O63902   3.143   0.001   9.401 -0.8565  0.5266  0.2160
  474MOL0     C63903   3.021   0.270   9.603  0.3387  0.3376  0.0685
  474MOL0     C63904   2.914   0.291   9.694 -0.2183  0.6695 -0.8309
  474MOL0     N63905   2.221   0.498   9.799  0.7866 -0.2726  0.0402
  474MOL0     N63906   2.189   0.621   9.771  0.4949 -0.5322 -0.2169
  474MOL0     C63907   1.063   0.598  10.371  0.2411  0.0410 -1.0079
  474MOL0     C63908   0.938   0.647  10.413  0.3700 -0.9647  0.1654
  474MOL0     C63909   0.458   0.736  10.338 -0.6310 -0.5312  0.5495
  474MOL0     C63910   0.456   0.853  10.419 -0.4704  0.6345 -0.3826
  474MOL0     C63911   0.334   0.902  10.456  0.5932  0.6169 -0.1196
  474MOL0     C63912   0.217   0.848  10.429  0.0278 -0.3745 -0.8435
  474MOL0     O63913   0.099   0.918  10.450 -0.1639  1.0219 -0.2097
  474MOL0     C63914   0.050   0.976  10.326  0.0470  0.3102  0.1969
  474MOL0     C63915  -0.069   1.064  10.359  0.2145 -0.8366 -0.1152
  474MOL0     C63916  -0.203   0.986  10.382 -1.2514 -0.4694 -0.3917
  474MOL0     C63917  -0.227   0.938  10.532  0.0360  0.5528 -0.6242
  474MOL0     C63918  -0.365   0.889  10.529  1.0456  0.7472  0.9774
  474MOL0     C63919  -0.485   0.861  10.511 -0.3521 -0.0861 -0.5101
  474MOL0     C63920   0.216   0.720  10.370  0.3161 -0.2162 -0.2008
  474MOL0     C63921   0.335   0.662  10.325  0.5421  0.0698  0.6400
  474MOL0     C63922   0.321   0.524  10.254 -0.3049 -0.1173  0.2115
  474MOL0     H63923   0.818   0.731  10.106  0.3794 -1.9505 -1.4453
  474MOL0     H63924   1.043   0.669  10.035  2.7462 -2.2071  0.5421
  474MOL0     H63925   1.309   0.575  10.001 -2.8457  0.9337 -0.9783
  474MOL0     H63926   1.273   0.721  10.082 -1.2027  0.1006  0.4173
  474MOL0     H63927   1.492   0.540  10.199 -0.6340  0.1213 -0.0881
  474MOL0     H63928   1.461   0.696  10.246  3.2232 -0.7100  1.1611
  474MOL0     H63929   1.498   0.786  10.012  0.7527  0.6282  0.0961
  474MOL0     H63930   1.545   0.628   9.955  0.5090  0.7671 -0.6358
  474MOL0     H63931   1.698   0.798  10.166  1.1736 -1.4243  0.8773
  474MOL0     H63932   1.728   0.632  10.134  0.7925 -0.2706 -1.4172
  474MOL0     H63933   1.764   0.685   9.888 -0.2979  0.5326 -0.8895
  474MOL0     H63934   1.719   0.856   9.912  0.9003 -2.1747 -3.3323
  474MOL0     H63935   1.916   0.877  10.064  1.1283 -0.9557  0.9404
  474MOL0     H63936   1.948   0.709  10.038  0.2716  1.1622  1.8300
  474MOL0     H63937   1.943   0.943   9.839  0.8590  0.1494 -0.3901
  474MOL0     H63938   1.962   0.785   9.773 -0.3887 -0.5612  0.4287
  474MOL0     H63939   2.198   0.907   9.829  1.0931  1.7145  0.8541
  474MOL0     H63940   2.147   0.882   9.991 -2.2000 -0.9615  0.2259
  474MOL0     H63941   2.297   0.654  10.072  1.6100  1.5462 -1.0552
  474MOL0     H63942   2.407   0.429  10.084  0.3482 -0.1029  1.3158
  474MOL0     H63943   2.294   0.311  10.035  0.2751  1.1097  0.8035
  474MOL0     H63944   2.417   0.309   9.810 -0.2449  0.9879  0.2812
  474MOL0     H63945   2.526   0.424   9.879 -1.1299 -0.3031 -4.5387
  474MOL0     H63946   2.460   0.141   9.995  1.4133  0.1250  2.5810
  474MOL0     H63947   2.591   0.248  10.059 -1.4753  0.7737  0.8601
  474MOL0     H63948   2.595   0.108   9.787 -0.1722 -1.3757  1.1123
  474MOL0     H63949   2.680   0.064   9.935  0.4052 -0.3232 -0.5679
  474MOL0     H63950   2.786  -0.024   9.721 -0.2300  1.1469  1.8661
  474MOL0     H63951   2.961  -0.063   9.543  2.2313 -1.1124  2.3021
  474MOL0     H63952   3.501   0.220   9.406  0.7407 -2.7126 -0.0358
  474MOL0     H63953   3.638   0.174   9.208 -0.0428 -1.7143 -0.6910
  474MOL0     H63954   3.727   0.024   9.041 -1.6553 -0.0995  0.4616
  474MOL0     H63955   3.701  -0.011   8.874  0.5123  0.8555 -0.5912
  474MOL0     H63956   3.676   0.208   8.812  0.9802 -1.9225 -0.9066
  474MOL0     H63957   3.696   0.269   8.976 -2.9569 -0.4609  0.7327
  474MOL0     H63958   3.933   0.175   8.968  2.5297  0.2064 -0.1713
  474MOL0     H63959   3.926   0.135   8.806  2.8554  2.4058 -0.0059
  474MOL0     H63960   3.872   0.409   8.922  2.9737  0.4267  0.5402
  474MOL0     H63961   3.841   0.363   8.745  1.5674 -1.4958 -0.9981
  474MOL0     H63962   4.053   0.495   8.787  1.5292 -0.4710 -3.0849
  474MOL0     H63963   4.061   0.346   8.691  0.4704  2.0959 -1.7676
  474MOL0     H63964   4.118   0.346   8.990  0.2906  3.0440  0.6878
  474MOL0     H63965   4.151   0.221   8.866 -0.2748 -0.2261  1.4288
  474MOL0     H63966   4.275   0.493   8.893  0.1739 -0.4138  0.7127
  474MOL0     H63967   4.276   0.428   8.739 -0.3260 -0.0290 -0.2998
  474MOL0     H63968   4.482   0.385   8.876 -2.8465  4.2176 -0.0894
  474MOL0     H63969   4.398   0.272   8.983  2.2303  0.9704  0.5800
  474MOL0     H63970   3.295   0.063   8.986 -0.4801  2.0915 -0.9971
  474MOL0     H63971   3.148   0.119   9.185  0.8138 -0.4550 -0.5585
  474MOL0     H63972   3.065   0.356   9.555 -1.0428  1.6616  1.0573
  474MOL0     H63973   2.888   0.387   9.738 -3.3241 -0.5412  0.2648
  474MOL0     H63974   1.130   0.558  10.447  0.0810  0.5461 -0.5945
  474MOL0     H63975   0.917   0.646  10.520 -1.6755  1.0278 -0.1474
  474MOL0     H63976   0.547   0.908  10.439  0.2622 -0.5718 -0.2850
  474MOL0     H63977   0.342   0.997  10.508  4.2822  1.5686 -2.0234
  474MOL0     H63978   0.017   0.894  10.262 -0.0670 -2.2119  3.2879
  474MOL0     H63979   0.127   1.026  10.266 -0.6889  0.9237 -0.2684
  474MOL0     H63980  -0.075   1.140  10.281  0.9267 -0.7178 -0.0554
  474MOL0     H63981  -0.047   1.119  10.451 -0.5381 -0.3583 -0.2136
  474MOL0     H63982  -0.209   0.900  10.315 -2.3308 -0.3857 -0.4246
  474MOL0     H63983  -0.285   1.054  10.356 -0.3283  0.0875 -1.9578
  474MOL0     H63984  -0.158   0.858  10.560 -0.7834  0.2141  0.4903
  474MOL0     H63985  -0.224   1.026  10.596 -1.4208  0.4641 -0.3914
  474MOL0     H63986  -0.590   0.841  10.505 -0.5028  0.4260  0.2570
  474MOL0     H63987   0.119   0.675  10.350  1.0204 -1.9170 -0.0256
  474MOL0     H63988   0.216   0.509  10.227 -0.0145  0.6650 -1.5200
  474MOL0     H63989   0.374   0.514  10.159  0.2171 -0.0127  0.4875
  474MOL0     H63990   0.350   0.454  10.333  0.9636  1.9347  1.6528
  475MOL0     O63991   5.037   0.744   5.360 -0.1430  0.4605 -0.6517
  475MOL0     C63992   5.002   0.625   5.342 -0.2474 -1.5074  0.8173
  475MOL0     O63993   5.090   0.529   5.330 -0.2297  0.2052 -0.0731
  475MOL0     C63994   5.226   0.558   5.349  0.0477 -0.0405  0.9329
  475MOL0     C63995   5.296   0.600   5.464 -0.7768  0.6789 -0.3506
  475MOL0     C63996   5.438   0.637   5.465 -0.4243  0.6307  0.1657
  475MOL0     C63997   5.509   0.628   5.341 -0.0927  0.9030 -0.4188
  475MOL0     O63998   5.641   0.663   5.322  0.1231  0.1184  0.0328
  475MOL0     C63999   5.724   0.679   5.439  0.3974  0.5684 -0.9095
  475MOL0     C64000   5.868   0.695   5.386  0.2090  0.6067 -0.3567
  475MOL0     C64001   5.970   0.716   5.503  1.0927 -0.5705 -0.2398
  475MOL0     C64002   6.105   0.743   5.443  0.0911  0.2553  0.3414
  475MOL0     C64003   6.199   0.790   5.552  0.6962  0.1581  0.5466
  475MOL0     C64004   6.314   0.848   5.474 -0.5183  1.0327  0.2308
  475MOL0     C64005   6.434   0.882   5.563  0.4881 -0.3103  0.7175
  475MOL0     C64006   6.535   0.774   5.588 -0.0880  0.2849  0.3755
  475MOL0     N64007   6.661   0.832   5.621  0.3346 -0.1592 -0.0734
  475MOL0     C64008   6.754   0.843   5.522  0.1791 -0.5186 -0.8172
  475MOL0     C64009   6.869   0.887   5.595  0.5090  0.9059  0.6710
  475MOL0     C64010   6.998   0.926   5.535  0.3297 -0.2885  0.8564
  475MOL0     C64011   7.120   0.898   5.632 -0.3318  0.7186 -0.3322
  475MOL0     C64012   7.247   0.927   5.555 -0.3413  0.4768 -0.2092
  475MOL0     C64013   7.375   0.910   5.635  0.6970  0.8994  1.0961
  475MOL0     O64014   7.374   0.998   5.747  0.5995  0.3144  0.3822
  475MOL0     C64015   7.489   1.026   5.803 -0.2854 -0.3296 -0.1913
  475MOL0     C64016   7.462   1.113   5.914 -1.3288 -0.6082  0.2919
  475MOL0     C64017   7.576   1.177   5.970  0.7552 -0.7683 -1.2288
  475MOL0     C64018   7.708   1.148   5.937  0.1706  0.7365 -0.1004
  475MOL0     C64019   7.825   1.211   5.999 -0.4878  0.0107 -0.3186
  475MOL0     O64020   7.939   1.205   5.917  0.8328 -0.0408 -0.2094
  475MOL0     C64021   8.059   1.260   5.955  0.8857  0.2822 -0.3384
  475MOL0     C64022   8.114   1.240   6.084  0.0847 -0.8835  0.5412
  475MOL0     C64023   8.239   1.276   6.121  0.4527  0.3789 -1.0230
  475MOL0     C64024   8.319   1.351   6.035 -0.5273  0.1958 -0.2921
  475MOL0     O64025   8.446   1.393   6.061  0.4615  0.2733 -0.5325
  475MOL0     C64026   8.513   1.348   6.182  0.0946 -0.4637  0.2150
  475MOL0     C64027   8.655   1.374   6.151 -0.7887 -0.2130 -0.4557
  475MOL0     C64028   8.750   1.300   6.240 -0.0630  0.0453 -0.0771
  475MOL0     C64029   8.901   1.335   6.213  0.5275  0.8439 -0.3958
  475MOL0     C64030   8.986   1.265   6.320 -0.8444 -0.4590  0.5809
  475MOL0     C64031   9.133   1.265   6.267 -0.3754  0.2726  0.1076
  475MOL0     C64032   9.223   1.251   6.391 -0.2683 -0.6720  0.2534
  475MOL0     C64033   9.377   1.270   6.350  0.2625  1.2586  0.5061
  475MOL0    Cl64034   9.423   1.146   6.218  0.2804  0.1885 -0.4670
  475MOL0     C64035   8.278   1.362   5.903  0.3236 -0.7136 -0.5102
  475MOL0     C64036   8.146   1.314   5.861 -0.9188 -0.0942 -0.2113
  475MOL0     O64037   7.814   1.244   6.118 -0.3979  0.6028  0.0431
  475MOL0     C64038   7.720   1.054   5.831 -0.5723  0.0368  0.2311
  475MOL0     C64039   7.617   0.982   5.769  0.0797 -0.1994  0.6720
  475MOL0     N64040   6.838   0.896   5.729  0.6992  0.0007 -0.0968
  475MOL0     N64041   6.711   0.864   5.741  0.1353  0.0435 -0.3261
  475MOL0     C64042   5.440   0.589   5.229  0.2967  0.3180 -0.1078
  475MOL0     C64043   5.304   0.555   5.226  0.4746  0.5161 -0.2425
  475MOL0     C64044   4.848   0.602   5.329  0.8309 -0.3565 -0.0447
  475MOL0     C64045   4.755   0.710   5.341 -0.0378 -0.4599  0.3002
  475MOL0     C64046   4.621   0.686   5.336  0.0335  0.1266 -0.0698
  475MOL0     C64047   4.566   0.560   5.309  0.3213  0.8328  0.2597
  475MOL0     O64048   4.440   0.518   5.283 -0.1264  0.2100  0.1736
  475MOL0     C64049   4.333   0.611   5.262  0.2440 -0.9672 -0.6172
  475MOL0     C64050   4.203   0.535   5.214  0.6998 -0.5428 -0.1442
  475MOL0     C64051   4.101   0.627   5.138 -0.9024 -1.0595 -0.4313
  475MOL0     C64052   3.976   0.552   5.073  0.1433  0.2005 -0.6949
  475MOL0     C64053   3.878   0.484   5.157 -0.7949  0.3591 -0.0422
  475MOL0     C64054   3.812   0.418   5.232  0.5925  0.1039  0.2677
  475MOL0     C64055   4.655   0.457   5.291  0.5418  0.1313 -0.8036
  475MOL0     C64056   4.793   0.471   5.299  0.1323 -0.0091 -0.5681
  475MOL0     C64057   4.877   0.353   5.274 -0.1852  0.7874  0.3252
  475MOL0     H64058   5.259   0.591   5.566  1.1091  0.7680  0.3821
  475MOL0     H64059   5.489   0.654   5.559 -2.6408 -1.8235  1.9786
  475MOL0     H64060   5.703   0.772   5.491  2.2362  0.5969 -0.1193
  475MOL0     H64061   5.716   0.590   5.503  1.8296  0.0170 -1.4483
  475MOL0     H64062   5.866   0.776   5.312 -0.0701  1.5254  0.6126
  475MOL0     H64063   5.914   0.612   5.332  1.8926 -0.3531  2.3184
  475MOL0     H64064   5.959   0.631   5.572 -4.3639 -2.2392 -2.6567
  475MOL0     H64065   5.936   0.804   5.558  1.5538 -2.3820  3.2914
  475MOL0     H64066   6.148   0.658   5.388  1.0897  0.4378  0.8145
  475MOL0     H64067   6.107   0.817   5.363  5.3230 -1.2825 -1.4093
  475MOL0     H64068   6.147   0.867   5.609 -2.8033 -0.0624 -1.9972
  475MOL0     H64069   6.242   0.710   5.612  1.8583  0.0788 -0.3676
  475MOL0     H64070   6.346   0.771   5.404 -2.8811 -0.4222  0.6462
  475MOL0     H64071   6.286   0.940   5.422  2.5870  2.2616  0.4956
  475MOL0     H64072   6.387   0.925   5.652 -1.4843  3.5044 -1.8833
  475MOL0     H64073   6.478   0.959   5.499  0.9964 -2.3113 -1.5033
  475MOL0     H64074   6.496   0.709   5.667 -2.9374 -0.4985 -1.5106
  475MOL0     H64075   6.545   0.713   5.498  2.0220  0.5704  0.3773
  475MOL0     H64076   6.725   0.842   5.417 -3.0169 -1.5647 -0.0573
  475MOL0     H64077   7.018   0.855   5.454  1.6144 -0.8428  1.6268
  475MOL0     H64078   7.015   1.029   5.501 -2.6188 -0.3772 -1.2459
  475MOL0     H64079   7.103   0.948   5.728 -1.6653 -2.5812  1.3063
  475MOL0     H64080   7.106   0.793   5.661  0.4357  1.0523  1.3749
  475MOL0     H64081   7.243   1.031   5.523  1.2170  0.2520 -1.2181
  475MOL0     H64082   7.244   0.862   5.467  2.8676 -1.2037  0.7789
  475MOL0     H64083   7.452   0.939   5.564 -1.4266  0.6280 -1.4541
  475MOL0     H64084   7.392   0.806   5.667 -0.1841 -0.0877 -1.3628
  475MOL0     H64085   7.363   1.143   5.947 -1.7338 -1.2315 -0.3240
  475MOL0     H64086   7.566   1.242   6.056 -1.4958 -0.9735 -1.2866
  475MOL0     H64087   8.052   1.186   6.155  2.2733 -3.1061  0.9200
  475MOL0     H64088   8.268   1.259   6.224  1.2751  1.6100 -1.0406
  475MOL0     H64089   8.473   1.411   6.262 -2.3196 -3.2244  1.3661
  475MOL0     H64090   8.493   1.241   6.193 -0.4138 -0.1605  2.9825
  475MOL0     H64091   8.681   1.341   6.050 -2.0484  0.2446 -0.9486
  475MOL0     H64092   8.657   1.483   6.161 -0.7559 -0.3144  0.9386
  475MOL0     H64093   8.728   1.344   6.338  0.1337 -0.8174  0.3673
  475MOL0     H64094   8.730   1.192   6.248  1.5366 -0.5687 -3.0353
  475MOL0     H64095   8.898   1.444   6.212 -1.0068  0.8260 -0.0930
  475MOL0     H64096   8.928   1.294   6.116 -1.8340 -1.8862 -0.0188
  475MOL0     H64097   8.960   1.158   6.318  1.0241 -0.9652 -2.0707
  475MOL0     H64098   8.973   1.306   6.420 -0.2206  1.0001  0.0879
  475MOL0     H64099   9.153   1.179   6.203 -0.0098 -1.3511  2.2931
  475MOL0     H64100   9.145   1.359   6.212 -1.2538 -0.0904 -0.7416
  475MOL0     H64101   9.201   1.159   6.446 -1.1370 -1.7370 -1.7614
  475MOL0     H64102   9.203   1.339   6.454  0.7882  0.2726 -0.6770
  475MOL0     H64103   9.392   1.374   6.319  1.2276  0.6010 -1.3602
  475MOL0     H64104   9.433   1.251   6.442 -2.2817 -1.9110  1.5854
  475MOL0     H64105   8.342   1.407   5.828  0.4201  0.1975  0.1123
  475MOL0     H64106   8.116   1.330   5.758 -0.1119 -2.4489 -0.8656
  475MOL0     H64107   7.817   1.025   5.792 -1.1034  0.5181 -1.5710
  475MOL0     H64108   7.641   0.921   5.683 -1.8305  1.0901 -0.8470
  475MOL0     H64109   5.490   0.572   5.134 -0.9665 -0.7098 -0.6312
  475MOL0     H64110   5.254   0.512   5.140  1.1515  0.6399 -0.6983
  475MOL0     H64111   4.789   0.811   5.358  3.3874 -1.3890 -0.2680
  475MOL0     H64112   4.556   0.768   5.365  0.2912  0.2221  0.2530
  475MOL0     H64113   4.370   0.684   5.190  0.9801 -1.0582 -0.3370
  475MOL0     H64114   4.315   0.660   5.358 -0.2709 -0.8886 -0.7514
  475MOL0     H64115   4.158   0.498   5.306  0.7269 -0.6707 -0.1822
  475MOL0     H64116   4.228   0.445   5.158 -1.2574 -0.0667 -1.9475
  475MOL0     H64117   4.154   0.662   5.050  1.8592 -2.6041  0.5113
  475MOL0     H64118   4.064   0.700   5.211  2.2962 -0.3235  0.5904
  475MOL0     H64119   3.920   0.628   5.018  1.7345 -0.4118 -3.3131
  475MOL0     H64120   4.012   0.480   5.000  1.1668 -0.4051  0.3745
  475MOL0     H64121   3.755   0.356   5.298 -2.3196 -2.2521 -4.0061
  475MOL0     H64122   4.610   0.359   5.277 -0.6292  0.4908  0.3041
  475MOL0     H64123   4.812   0.268   5.252 -0.7500  1.2459  0.2067
  475MOL0     H64124   4.947   0.367   5.191 -1.0368 -1.2167 -0.8113
  475MOL0     H64125   4.932   0.322   5.363  2.1595 -1.2892 -1.6944
  476MOL0     O64126   7.025   1.978   7.394 -0.4815  0.5508  0.5097
  476MOL0     C64127   6.921   2.043   7.390 -0.5675 -0.7306  0.6953
  476MOL0     O64128   6.909   2.157   7.315 -0.4703 -0.3371  0.1946
  476MOL0     C64129   7.030   2.204   7.265  0.6486  0.3408  0.0981
  476MOL0     C64130   7.130   2.269   7.340 -0.1335  0.3591 -0.4212
  476MOL0     C64131   7.251   2.307   7.289  0.6392  0.5878  0.0855
  476MOL0     C64132   7.279   2.271   7.154 -0.5186 -0.2966  0.3807
  476MOL0     O64133   7.393   2.308   7.086 -0.7891 -0.3232  0.5359
  476MOL0     C64134   7.482   2.392   7.159  0.6750 -0.5970  0.6172
  476MOL0     C64135   7.603   2.413   7.065  0.5725 -0.6834  0.0750
  476MOL0     C64136   7.716   2.496   7.123 -0.7937  0.0454 -0.5191
  476MOL0     C64137   7.817   2.542   7.030  0.9640 -1.4185  0.0232
  476MOL0     C64138   7.923   2.626   7.106 -0.5262  0.4380 -0.4709
  476MOL0     C64139   7.981   2.735   7.018  0.8719  0.2731 -0.3994
  476MOL0     C64140   8.078   2.824   7.091  0.8295  0.5096 -0.3566
  476MOL0     C64141   8.151   2.925   7.017 -0.2935  0.2589 -0.5820
  476MOL0     N64142   8.226   2.994   7.130 -0.6008  0.4869  0.1947
  476MOL0     C64143   8.346   2.949   7.188 -1.1396  0.0530 -0.3440
  476MOL0     C64144   8.403   3.065   7.242  0.1421  0.3935  0.1070
  476MOL0     C64145   8.523   3.070   7.333  1.1315  0.1786 -0.2709
  476MOL0     C64146   8.650   3.107   7.259 -0.3294  0.3963  0.1142
  476MOL0     C64147   8.659   3.251   7.255 -0.1487 -0.3368  0.3611
  476MOL0     C64148   8.774   3.298   7.177 -0.2699  0.2024 -0.5219
  476MOL0     O64149   8.767   3.438   7.163  0.4315  0.4203 -0.2739
  476MOL0     C64150   8.836   3.489   7.058 -0.2597  0.1617  0.1126
  476MOL0     C64151   8.950   3.434   6.992  0.2290 -0.0820  0.5498
  476MOL0     C64152   9.018   3.516   6.906 -0.4643 -0.0076 -0.4540
  476MOL0     C64153   8.975   3.643   6.870 -0.3548 -0.1093 -0.8778
  476MOL0     C64154   9.059   3.723   6.777  0.2633  0.6410 -0.1132
  476MOL0     O64155   9.000   3.831   6.716  0.7106  0.5342  0.0515
  476MOL0     C64156   9.085   3.914   6.647  0.2485 -0.4665  0.8756
  476MOL0     C64157   9.133   3.898   6.512 -0.4253  1.0670 -0.2206
  476MOL0     C64158   9.227   3.996   6.466 -0.2831  0.3896  0.2123
  476MOL0     C64159   9.238   4.120   6.538 -0.8786  0.1349 -0.0976
  476MOL0     O64160   9.323   4.222   6.497  0.9809  0.1821  0.5732
  476MOL0     C64161   9.331   4.237   6.360  0.2468 -0.7365 -0.3196
  476MOL0     C64162   9.389   4.367   6.323  0.0228 -0.2771  0.2653
  476MOL0     C64163   9.548   4.361   6.328  0.3864 -0.2168  0.7722
  476MOL0     C64164   9.614   4.503   6.304  0.1855 -1.0007  1.0576
  476MOL0     C64165   9.772   4.498   6.315 -0.3423  0.1033 -0.6816
  476MOL0     C64166   9.828   4.641   6.292 -0.4194 -0.0092 -0.1672
  476MOL0     C64167   9.975   4.654   6.345  0.0501  0.0281 -0.3180
  476MOL0     C64168  10.071   4.622   6.237  0.6304  0.0510 -0.4411
  476MOL0    Cl64169  10.068   4.758   6.122  0.1749 -0.2584 -0.2576
  476MOL0     C64170   9.186   4.139   6.662 -0.4851 -0.4305 -0.6887
  476MOL0     C64171   9.118   4.032   6.713  0.7428 -0.1093 -0.2282
  476MOL0     O64172   9.179   3.690   6.752  0.7881 -0.0938 -0.1177
  476MOL0     C64173   8.859   3.697   6.930 -0.3759  0.6467  0.0493
  476MOL0     C64174   8.794   3.618   7.031 -0.5968  0.3330  0.0006
  476MOL0     N64175   8.314   3.165   7.215  0.1934 -0.1065 -0.6060
  476MOL0     N64176   8.214   3.126   7.152  0.2414 -0.9216 -0.0464
  476MOL0     C64177   7.185   2.204   7.078 -0.0365  0.0970  0.9246
  476MOL0     C64178   7.059   2.183   7.128 -0.2472 -0.0651  0.0551
  476MOL0     C64179   6.812   2.003   7.467  0.3869 -0.5556 -0.3305
  476MOL0     C64180   6.736   2.099   7.530 -0.1138 -0.8763 -0.1610
  476MOL0     C64181   6.622   2.069   7.603 -0.3961  0.0264 -0.0941
  476MOL0     C64182   6.586   1.937   7.619 -0.3494  0.0537 -0.4057
  476MOL0     O64183   6.477   1.913   7.701 -0.0514  0.5327 -0.0110
  476MOL0     C64184   6.410   1.789   7.692 -0.3804 -0.5889  0.2391
  476MOL0     C64185   6.267   1.798   7.740  0.9076  0.0862 -0.0721
  476MOL0     C64186   6.212   1.661   7.750 -0.6168 -0.1238  0.2435
  476MOL0     C64187   6.092   1.671   7.845  0.2761 -0.0599 -0.0296
  476MOL0     C64188   6.016   1.550   7.843  0.2431  0.0105  0.4837
  476MOL0     C64189   5.950   1.452   7.858 -0.2626  0.1221  0.3104
  476MOL0     C64190   6.666   1.837   7.558  0.3102 -0.0976 -0.9222
  476MOL0     C64191   6.772   1.868   7.475 -0.5519 -0.1929 -0.4399
  476MOL0     C64192   6.843   1.746   7.418 -0.6492 -0.8266  0.1661
  476MOL0     H64193   7.110   2.292   7.444  0.5723  2.6862 -0.7458
  476MOL0     H64194   7.327   2.353   7.351  0.8787  2.5079 -1.5212
  476MOL0     H64195   7.434   2.486   7.189  2.0213  0.5158 -0.5366
  476MOL0     H64196   7.523   2.336   7.244  0.4184 -1.1634  0.3715
  476MOL0     H64197   7.569   2.477   6.983 -1.2801 -1.1536  0.4347
  476MOL0     H64198   7.644   2.318   7.029  1.1505 -0.5807  0.4574
  476MOL0     H64199   7.765   2.436   7.200 -1.0901 -0.4063 -0.6828
  476MOL0     H64200   7.670   2.584   7.168 -0.1697 -0.5417  1.3402
  476MOL0     H64201   7.875   2.465   6.978  2.4967  0.2753 -0.9023
  476MOL0     H64202   7.768   2.611   6.960  0.7577 -0.3945  1.1453
  476MOL0     H64203   7.878   2.671   7.196 -1.0803  1.4237 -1.2176
  476MOL0     H64204   8.002   2.559   7.141 -1.3304 -0.1288  0.3125
  476MOL0     H64205   8.031   2.686   6.934  1.4365 -1.3235  0.8199
  476MOL0     H64206   7.895   2.790   6.978  0.7356 -0.1706 -0.7258
  476MOL0     H64207   8.154   2.752   7.123 -0.2976  0.5567  2.8188
  476MOL0     H64208   8.030   2.875   7.175 -1.5222 -0.0545 -1.2693
  476MOL0     H64209   8.222   2.875   6.950  3.1225  1.7618  1.6599
  476MOL0     H64210   8.077   2.980   6.958  0.4849 -2.5989 -4.6625
  476MOL0     H64211   8.398   2.854   7.186 -0.5590  0.3159  1.1896
  476MOL0     H64212   8.499   3.136   7.417 -0.1179 -0.9333  0.2865
  476MOL0     H64213   8.538   2.970   7.375  1.8000  1.6601  3.4402
  476MOL0     H64214   8.741   3.066   7.304  0.4263  0.9126 -0.8995
  476MOL0     H64215   8.647   3.058   7.162 -3.0969 -1.5511  1.0548
  476MOL0     H64216   8.669   3.294   7.355  1.4927  1.6471 -0.5882
  476MOL0     H64217   8.569   3.290   7.206  2.0745  0.7482 -3.2201
  476MOL0     H64218   8.766   3.254   7.077 -2.0014  0.5164 -0.5459
  476MOL0     H64219   8.866   3.260   7.223 -1.1245  0.0341  1.1156
  476MOL0     H64220   8.994   3.339   7.021  2.5653 -0.3979 -3.2502
  476MOL0     H64221   9.107   3.488   6.851 -0.9224  1.8357 -2.2724
  476MOL0     H64222   9.096   3.812   6.457 -1.2875  0.9136  0.5860
  476MOL0     H64223   9.269   3.972   6.369  2.7082 -0.1299  1.5359
  476MOL0     H64224   9.380   4.162   6.297 -0.2300 -0.5154 -0.9631
  476MOL0     H64225   9.230   4.239   6.318  0.4689  3.0499 -1.0721
  476MOL0     H64226   9.354   4.390   6.222 -0.7188  3.4335  1.2221
  476MOL0     H64227   9.351   4.449   6.384  0.4617  1.9015 -2.2038
  476MOL0     H64228   9.591   4.325   6.422  1.7101  1.1513  0.7306
  476MOL0     H64229   9.593   4.300   6.249  0.0132 -0.0137  0.3971
  476MOL0     H64230   9.576   4.576   6.376 -0.5637  2.3017 -2.3443
  476MOL0     H64231   9.573   4.550   6.214 -1.0769  2.1394  3.0886
  476MOL0     H64232   9.821   4.424   6.252  2.7063 -0.3401  1.9395
  476MOL0     H64233   9.787   4.473   6.421 -1.1026  3.1775  0.2728
  476MOL0     H64234   9.839   4.664   6.186 -2.4236 -0.7863 -0.5858
  476MOL0     H64235   9.762   4.713   6.341 -0.6120 -0.2555 -0.0596
  476MOL0     H64236  10.006   4.590   6.428  1.1817 -2.0887 -2.2423
  476MOL0     H64237   9.980   4.758   6.376  1.8508 -0.3241  0.7378
  476MOL0     H64238  10.169   4.616   6.284 -0.2764 -2.0942  1.3728
  476MOL0     H64239  10.054   4.529   6.181  1.0158 -0.2616 -0.0406
  476MOL0     H64240   9.200   4.232   6.715 -0.7928 -0.8845  0.2000
  476MOL0     H64241   9.085   4.038   6.816  2.0733 -0.5572  0.2422
  476MOL0     H64242   8.834   3.800   6.905  2.2859  1.8026  1.7514
  476MOL0     H64243   8.714   3.662   7.090 -1.8678 -2.0727  0.1872
  476MOL0     H64244   7.202   2.167   6.977  2.5515 -2.7685  2.2632
  476MOL0     H64245   6.989   2.126   7.069  0.3357 -0.1461 -0.5731
  476MOL0     H64246   6.760   2.204   7.515  1.5769 -0.5832  3.4565
  476MOL0     H64247   6.574   2.144   7.665 -1.6165  1.1002 -2.2462
  476MOL0     H64248   6.453   1.720   7.766 -1.2839 -0.0069  1.3309
  476MOL0     H64249   6.411   1.748   7.591 -1.0335 -0.0509  0.0112
  476MOL0     H64250   6.204   1.856   7.672 -0.4495 -1.6842 -0.3976
  476MOL0     H64251   6.261   1.857   7.832 -0.1270  0.4078 -0.3295
  476MOL0     H64252   6.281   1.583   7.783 -0.2982 -1.0418 -2.3262
  476MOL0     H64253   6.187   1.627   7.649  1.7212 -1.9904  0.2136
  476MOL0     H64254   6.134   1.687   7.944 -0.4802  3.0668 -0.0825
  476MOL0     H64255   6.024   1.752   7.815 -1.3579 -2.0053 -1.9577
  476MOL0     H64256   5.888   1.367   7.880 -3.5167  2.7229  2.2692
  476MOL0     H64257   6.640   1.732   7.567  1.4901 -0.3639 -0.4102
  476MOL0     H64258   6.938   1.731   7.470 -1.0215  1.9845  1.8443
  476MOL0     H64259   6.783   1.656   7.432  1.1809 -2.1483 -0.0557
  476MOL0     H64260   6.861   1.757   7.311  1.2759 -0.9682  0.4274
  477MOL0     O64261   0.142   8.699   7.258 -0.2067  0.8689  1.0125
  477MOL0     C64262   0.084   8.795   7.207 -0.3477 -0.5972 -0.7233
  477MOL0     O64263   0.145   8.917   7.182 -0.1437  0.0257 -0.2091
  477MOL0     C64264   0.283   8.937   7.180  0.6319 -0.4858  0.5906
  477MOL0     C64265   0.345   9.006   7.076 -0.3210 -0.5109  0.7579
  477MOL0     C64266   0.484   9.033   7.081  0.7797  0.1372 -0.3717
  477MOL0     C64267   0.562   8.996   7.190  0.7536  0.6824  0.1395
  477MOL0     O64268   0.694   9.023   7.181 -1.0254 -0.5486  0.4416
  477MOL0     C64269   0.731   9.162   7.190 -0.3209 -0.2585  0.3780
  477MOL0     C64270   0.879   9.198   7.195 -0.2030  0.3873 -0.4318
  477MOL0     C64271   0.934   9.176   7.338 -0.2539 -0.0326 -0.1894
  477MOL0     C64272   1.084   9.211   7.341  0.1566 -0.1246 -0.3024
  477MOL0     C64273   1.127   9.211   7.483 -0.9166 -0.0650 -0.2595
  477MOL0     C64274   1.270   9.269   7.484 -0.0566  0.2741 -0.1101
  477MOL0     C64275   1.385   9.176   7.439  0.0446 -0.0903 -0.5721
  477MOL0     C64276   1.505   9.253   7.391 -0.1824  0.4631  0.2375
  477MOL0     N64277   1.626   9.172   7.358  0.0188 -0.3570 -0.4910
  477MOL0     C64278   1.727   9.234   7.299  0.0849 -0.0441 -0.0580
  477MOL0     C64279   1.828   9.141   7.301 -0.3400 -0.2610  0.5633
  477MOL0     C64280   1.973   9.172   7.257  1.0965  0.4199 -0.1492
  477MOL0     C64281   2.065   9.191   7.373 -0.3824 -0.6802  0.1661
  477MOL0     C64282   2.139   9.066   7.409 -0.7267 -0.1251 -0.4310
  477MOL0     C64283   2.186   9.069   7.551 -0.4819  0.6766 -0.3045
  477MOL0     O64284   2.210   8.935   7.597 -0.3933 -0.3759  0.6625
  477MOL0     C64285   2.340   8.884   7.577 -0.2901 -1.1321 -0.0934
  477MOL0     C64286   2.382   8.782   7.662 -0.1372  0.2129 -0.3503
  477MOL0     C64287   2.507   8.713   7.654  0.8904 -0.7022 -0.1928
  477MOL0     C64288   2.598   8.756   7.553 -0.3097  0.1234  1.2366
  477MOL0     C64289   2.739   8.701   7.556 -0.3357  0.5764 -0.4364
  477MOL0     O64290   2.824   8.746   7.459  0.0017  0.1648 -0.2054
  477MOL0     C64291   2.952   8.698   7.473 -0.8457  0.0308 -0.5841
  477MOL0     C64292   3.007   8.634   7.360  0.0570 -0.3706  0.0892
  477MOL0     C64293   3.139   8.580   7.351 -0.4969  0.3376  0.1981
  477MOL0     C64294   3.214   8.602   7.465 -0.1360  0.4727 -0.1448
  477MOL0     O64295   3.345   8.559   7.453  0.4246  0.0039  0.5868
  477MOL0     C64296   3.378   8.426   7.451  0.0510 -0.8186  0.1919
  477MOL0     C64297   3.523   8.411   7.493  0.6936 -0.1533 -0.2274
  477MOL0     C64298   3.622   8.469   7.395 -0.8827 -0.3379 -0.5581
  477MOL0     C64299   3.731   8.546   7.481  0.0653 -0.2289  0.2164
  477MOL0     C64300   3.846   8.611   7.387  0.3140  0.1146  0.3302
  477MOL0     C64301   3.961   8.670   7.470 -0.1637  0.0563 -0.2653
  477MOL0     C64302   3.946   8.809   7.541  0.1256  0.3699  0.2777
  477MOL0     C64303   4.084   8.875   7.596  0.2347 -0.3873 -0.4929
  477MOL0    Cl64304   4.152   8.790   7.741  0.0902 -0.0937  0.1570
  477MOL0     C64305   3.167   8.662   7.585  0.0261 -0.5324  0.8130
  477MOL0     C64306   3.039   8.715   7.584  0.3201  0.7512  0.2620
  477MOL0     O64307   2.769   8.617   7.641  0.6276  0.9297 -0.5475
  477MOL0     C64308   2.562   8.865   7.474  0.5060 -0.5290  0.1974
  477MOL0     C64309   2.432   8.923   7.483  0.4228 -1.0021  0.3329
  477MOL0     N64310   1.785   9.030   7.363  0.6107  0.6850 -0.0839
  477MOL0     N64311   1.667   9.049   7.395  0.0410 -0.2185  0.0122
  477MOL0     C64312   0.499   8.920   7.294  0.6252 -0.0736  0.0621
  477MOL0     C64313   0.360   8.882   7.280 -0.1335 -0.6365 -0.7610
  477MOL0     C64314  -0.070   8.784   7.186 -0.1336 -0.0593 -0.1810
  477MOL0     C64315  -0.126   8.654   7.173 -0.6256  0.2540 -0.9616
  477MOL0     C64316  -0.253   8.632   7.149 -0.0690 -0.0655 -0.1934
  477MOL0     C64317  -0.344   8.734   7.135  0.2232  0.8049  0.0708
  477MOL0     O64318  -0.476   8.705   7.116  1.0667 -0.2952 -0.3908
  477MOL0     C64319  -0.576   8.810   7.133 -0.1502  0.3314 -0.6115
  477MOL0     C64320  -0.704   8.749   7.173  0.0720 -0.6497 -0.0836
  477MOL0     C64321  -0.805   8.863   7.196  0.0924 -0.1263  0.2847
  477MOL0     C64322  -0.955   8.815   7.197 -0.2093  0.2465 -0.5045
  477MOL0     C64323  -0.971   8.700   7.294  0.2801  0.2261 -0.2926
  477MOL0     C64324  -0.985   8.607   7.370  0.2342  0.4994 -0.1609
  477MOL0     C64325  -0.291   8.864   7.135 -0.6837  0.2985 -0.0639
  477MOL0     C64326  -0.157   8.895   7.160 -0.9413  0.4695  0.4659
  477MOL0     C64327  -0.115   9.035   7.157 -0.2203 -0.6846 -0.8820
  477MOL0     H64328   0.304   9.051   6.986  4.2772  1.2011 -0.7872
  477MOL0     H64329   0.529   9.091   7.002  0.2873  2.5401  1.0074
  477MOL0     H64330   0.691   9.203   7.097 -2.0352 -3.8257 -0.6101
  477MOL0     H64331   0.675   9.206   7.274 -0.6676  0.7643 -0.3606
  477MOL0     H64332   0.898   9.297   7.153 -4.0124  0.7624 -1.6334
  477MOL0     H64333   0.926   9.121   7.133 -1.7634 -2.4826  1.7136
  477MOL0     H64334   0.917   9.072   7.366  0.7466 -0.8567 -2.3563
  477MOL0     H64335   0.873   9.232   7.409  0.4117 -0.8659  1.0896
  477MOL0     H64336   1.123   9.129   7.279 -2.2987 -1.0214 -0.7817
  477MOL0     H64337   1.104   9.302   7.285  0.9276 -0.1697 -0.1039
  477MOL0     H64338   1.059   9.269   7.547  0.7554  1.2595  0.3834
  477MOL0     H64339   1.133   9.106   7.512  3.2160  0.2721  0.7354
  477MOL0     H64340   1.280   9.362   7.428 -0.0416 -0.8608 -2.0893
  477MOL0     H64341   1.286   9.284   7.591  0.3092 -1.2574  0.0674
  477MOL0     H64342   1.352   9.110   7.359  0.7365 -0.0889 -0.8683
  477MOL0     H64343   1.408   9.118   7.529  2.3238  0.9949 -0.3636
  477MOL0     H64344   1.473   9.314   7.307  2.3157  1.2700 -0.2052
  477MOL0     H64345   1.535   9.317   7.475  1.8802 -0.7300  0.4676
  477MOL0     H64346   1.740   9.338   7.271  1.6992  0.1950  1.4331
  477MOL0     H64347   2.005   9.085   7.199 -0.0058  1.7871 -2.9920
  477MOL0     H64348   1.971   9.260   7.192  1.4933  0.1453 -0.5398
  477MOL0     H64349   2.145   9.260   7.345 -0.4532 -0.0703  1.3766
  477MOL0     H64350   2.004   9.231   7.455 -2.7502 -0.8741 -1.4079
  477MOL0     H64351   2.216   9.051   7.333 -1.3550  1.5540 -1.4638
  477MOL0     H64352   2.077   8.979   7.386 -0.0384 -0.3597 -1.4606
  477MOL0     H64353   2.108   9.110   7.616 -1.5104  3.5179 -3.0984
  477MOL0     H64354   2.271   9.135   7.573  0.4496  0.5480 -3.1034
  477MOL0     H64355   2.317   8.755   7.745  0.8903  0.6742  0.6415
  477MOL0     H64356   2.537   8.633   7.720 -1.4113  0.5083  2.5317
  477MOL0     H64357   2.959   8.624   7.263 -0.8059 -1.6047  0.6116
  477MOL0     H64358   3.177   8.530   7.263  0.2747 -0.3813  0.9176
  477MOL0     H64359   3.317   8.379   7.528  0.9854  1.8535  2.7530
  477MOL0     H64360   3.359   8.392   7.349  0.2164  0.4023 -0.2640
  477MOL0     H64361   3.531   8.473   7.583  3.2844 -1.0755  0.2443
  477MOL0     H64362   3.541   8.306   7.515 -2.4278 -1.0808 -1.5293
  477MOL0     H64363   3.671   8.395   7.331 -1.6620 -0.7693 -0.6660
  477MOL0     H64364   3.585   8.547   7.329 -0.1729  0.2099 -0.3140
  477MOL0     H64365   3.774   8.482   7.559  0.8942 -0.0976 -0.1185
  477MOL0     H64366   3.680   8.627   7.533 -0.4538  0.1968 -0.9261
  477MOL0     H64367   3.805   8.696   7.332 -2.1488  0.1931  2.1151
  477MOL0     H64368   3.899   8.537   7.327  0.8872 -0.0059  0.9763
  477MOL0     H64369   3.995   8.599   7.545  0.8111  2.1008  1.3227
  477MOL0     H64370   4.040   8.691   7.396  0.6988  3.7138  1.4578
  477MOL0     H64371   3.874   8.792   7.621 -0.1034 -0.2663 -0.0566
  477MOL0     H64372   3.896   8.874   7.470 -0.9208 -1.4280 -0.6964
  477MOL0     H64373   4.168   8.870   7.527 -0.6048 -3.0988 -1.4293
  477MOL0     H64374   4.067   8.981   7.618 -2.5372 -0.7595 -0.4868
  477MOL0     H64375   3.230   8.684   7.670 -0.3941 -1.1416  1.2895
  477MOL0     H64376   2.986   8.760   7.668 -1.7917 -1.6831  0.3804
  477MOL0     H64377   2.630   8.909   7.402  0.6834 -0.5667  0.3400
  477MOL0     H64378   2.415   9.012   7.423  0.5235 -1.0166  0.2829
  477MOL0     H64379   0.546   8.888   7.386  1.6407  1.1034 -0.0269
  477MOL0     H64380   0.320   8.818   7.357 -0.7451  0.5108 -0.0866
  477MOL0     H64381  -0.060   8.575   7.208  0.2432  2.7911  3.9950
  477MOL0     H64382  -0.293   8.531   7.141  1.3064 -0.5398 -1.5727
  477MOL0     H64383  -0.596   8.860   7.038 -0.1466  1.0621 -0.2318
  477MOL0     H64384  -0.539   8.880   7.208  0.7203 -0.3982 -0.3505
  477MOL0     H64385  -0.675   8.689   7.260  0.0425 -3.5858 -1.9518
  477MOL0     H64386  -0.741   8.687   7.090 -0.4926 -2.2391  1.3063
  477MOL0     H64387  -0.806   8.934   7.112 -1.4639  0.3107  0.6360
  477MOL0     H64388  -0.781   8.911   7.291 -0.7549 -0.5367  0.7129
  477MOL0     H64389  -1.013   8.904   7.225  0.3882  0.3680  0.3739
  477MOL0     H64390  -0.984   8.782   7.097  1.8267 -0.2096 -0.9810
  477MOL0     H64391  -0.994   8.520   7.432 -0.3190  0.5924 -0.1117
  477MOL0     H64392  -0.364   8.941   7.114 -0.6402  0.8024  1.4812
  477MOL0     H64393  -0.041   9.053   7.078 -1.2855 -0.8153 -1.9452
  477MOL0     H64394  -0.198   9.103   7.138  0.3257 -0.3342 -2.1275
  477MOL0     H64395  -0.066   9.056   7.252  0.1235 -2.2954 -0.6689
  478MOL0     O64396   1.233   7.377   4.367 -0.0741 -0.1553 -0.3983
  478MOL0     C64397   1.205   7.419   4.252  0.1438 -0.0737 -0.7544
  478MOL0     O64398   1.298   7.433   4.156 -0.0261  0.4977  0.5722
  478MOL0     C64399   1.430   7.432   4.196  0.5999 -0.2742  0.1536
  478MOL0     C64400   1.494   7.552   4.180  0.2434  0.0102 -0.0117
  478MOL0     C64401   1.630   7.561   4.214  0.2515  0.2186 -0.1611
  478MOL0     C64402   1.701   7.449   4.258 -0.7932 -0.5732 -0.0899
  478MOL0     O64403   1.834   7.461   4.287 -0.1536  0.4424  0.5017
  478MOL0     C64404   1.907   7.348   4.326 -0.3468 -0.3182  0.2819
  478MOL0     C64405   2.056   7.367   4.328  0.2362 -0.0670  0.4916
  478MOL0     C64406   2.125   7.345   4.189 -0.2511 -0.2444  0.8681
  478MOL0     C64407   2.255   7.429   4.191 -0.4056 -0.9281  0.8791
  478MOL0     C64408   2.285   7.475   4.046  0.3108  0.5897 -0.1617
  478MOL0     C64409   2.413   7.549   4.045 -0.7603 -0.8984  0.1110
  478MOL0     C64410   2.426   7.638   3.916  0.5880 -0.4163 -0.1654
  478MOL0     C64411   2.515   7.757   3.935 -0.2312  0.1517 -0.3942
  478MOL0     N64412   2.652   7.712   3.962  0.1021 -0.4491 -0.0646
  478MOL0     C64413   2.737   7.661   3.866 -0.3928 -0.2609 -0.4545
  478MOL0     C64414   2.845   7.616   3.941 -0.5507 -0.8910 -0.2512
  478MOL0     C64415   2.968   7.575   3.882  0.8026  0.7231  0.4421
  478MOL0     C64416   3.063   7.692   3.853  0.0367 -0.0443 -0.2317
  478MOL0     C64417   3.138   7.732   3.975 -0.2395  0.0318  0.0295
  478MOL0     C64418   3.264   7.820   3.965  0.1059 -0.2097 -0.2430
  478MOL0     O64419   3.326   7.822   4.099  0.1904  0.1224  0.7102
  478MOL0     C64420   3.418   7.919   4.133 -0.2791  0.3059 -0.7338
  478MOL0     C64421   3.465   8.014   4.053  0.5396  0.2778  0.5073
  478MOL0     C64422   3.565   8.105   4.092  0.3081 -0.1037 -0.5303
  478MOL0     C64423   3.616   8.104   4.220 -0.5591  0.9960 -0.1876
  478MOL0     C64424   3.724   8.189   4.257  0.5250  0.1310 -0.0645
  478MOL0     O64425   3.812   8.236   4.155  0.5279  0.5278 -0.1515
  478MOL0     C64426   3.904   8.327   4.204  0.5478  1.6036  0.5660
  478MOL0     C64427   4.034   8.286   4.242 -0.5981 -0.0220 -0.2968
  478MOL0     C64428   4.123   8.389   4.288  0.3242  0.4480  0.3836
  478MOL0     C64429   4.082   8.521   4.305 -0.7232 -0.1838  0.6677
  478MOL0     O64430   4.168   8.625   4.322 -0.5218 -0.1760  0.0238
  478MOL0     C64431   4.313   8.615   4.306 -0.7417 -0.2260  1.1378
  478MOL0     C64432   4.369   8.734   4.376 -0.1936 -0.3335 -1.0978
  478MOL0     C64433   4.528   8.730   4.392  0.2727 -0.1720  1.3940
  478MOL0     C64434   4.566   8.844   4.493  0.4643 -0.0814  0.0769
  478MOL0     C64435   4.719   8.861   4.502  0.9636 -0.0150  0.3206
  478MOL0     C64436   4.745   8.937   4.635 -0.1798 -0.3921  0.3399
  478MOL0     C64437   4.895   8.963   4.658 -0.4726 -0.3729 -0.0425
  478MOL0     C64438   4.977   8.840   4.680  0.1145 -0.5634  0.2519
  478MOL0    Cl64439   5.133   8.894   4.763  0.3514  0.5934 -0.1762
  478MOL0     C64440   3.953   8.554   4.278  0.9383 -0.0017 -0.0366
  478MOL0     C64441   3.864   8.460   4.219  0.1471  0.5118  0.0131
  478MOL0     O64442   3.729   8.219   4.378  0.0936 -0.9373 -0.0653
  478MOL0     C64443   3.550   8.021   4.312 -0.0071  0.6107  0.1765
  478MOL0     C64444   3.458   7.916   4.265  0.0396 -0.1484  0.0193
  478MOL0     N64445   2.817   7.620   4.082  0.4506  0.0352  0.8163
  478MOL0     N64446   2.691   7.670   4.085 -0.0320 -0.0916 -0.1064
  478MOL0     C64447   1.632   7.326   4.265  0.2445 -0.3743  0.6229
  478MOL0     C64448   1.495   7.317   4.236 -0.8266  0.5324 -0.7065
  478MOL0     C64449   1.069   7.478   4.221  0.2748  0.6527  0.5417
  478MOL0     C64450   1.059   7.567   4.111 -0.2376 -0.1586  0.6409
  478MOL0     C64451   0.944   7.643   4.092  0.3879 -0.2468  0.3617
  478MOL0     C64452   0.828   7.624   4.172 -0.1330  0.4273 -0.6335
  478MOL0     O64453   0.708   7.683   4.150 -0.1564  0.3247 -1.0898
  478MOL0     C64454   0.704   7.812   4.090 -0.3856  0.8773 -0.7511
  478MOL0     C64455   0.774   7.915   4.172  0.4632  0.5130 -0.1606
  478MOL0     C64456   0.764   7.902   4.328  0.9321 -0.9139  0.2866
  478MOL0     C64457   0.777   8.041   4.399  0.2634  0.3744  0.5315
  478MOL0     C64458   0.648   8.073   4.452  0.2066 -0.0927  0.0925
  478MOL0     C64459   0.547   8.113   4.501  0.1893  0.3786  0.0768
  478MOL0     C64460   0.827   7.521   4.273  0.0391  0.4004 -0.0289
  478MOL0     C64461   0.947   7.452   4.300  0.8413 -0.0105 -0.7221
  478MOL0     C64462   0.944   7.363   4.420  0.2373 -0.1041  0.3088
  478MOL0     H64463   1.442   7.637   4.137 -1.6012 -0.3666  1.3618
  478MOL0     H64464   1.693   7.649   4.200  1.5128 -0.9217 -2.1652
  478MOL0     H64465   1.848   7.317   4.413 -0.9359 -0.4919 -0.1742
  478MOL0     H64466   1.891   7.277   4.244 -3.5408  1.7481 -1.0948
  478MOL0     H64467   2.095   7.297   4.402 -0.1722  1.5225  2.3118
  478MOL0     H64468   2.081   7.461   4.377  0.9651  1.8020 -3.1334
  478MOL0     H64469   2.063   7.378   4.106 -0.0343 -1.7319  0.0766
  478MOL0     H64470   2.142   7.239   4.166 -1.4275 -0.0807 -0.9268
  478MOL0     H64471   2.242   7.521   4.249  0.1063  0.5989 -1.2756
  478MOL0     H64472   2.333   7.364   4.233  0.3024 -0.8322 -0.2386
  478MOL0     H64473   2.294   7.391   3.977 -1.5604 -0.9072  1.3079
  478MOL0     H64474   2.196   7.523   4.006  0.6318 -0.9650 -3.0305
  478MOL0     H64475   2.426   7.615   4.131  0.5640 -1.0718  0.0745
  478MOL0     H64476   2.489   7.470   4.051  0.6557  0.5457  2.7962
  478MOL0     H64477   2.326   7.665   3.882  1.2858  1.4369 -0.9042
  478MOL0     H64478   2.467   7.575   3.837  1.2014 -1.7117  1.1292
  478MOL0     H64479   2.499   7.806   3.839 -2.7192 -1.1655 -0.7382
  478MOL0     H64480   2.491   7.827   4.016 -0.4327 -0.2717 -0.0861
  478MOL0     H64481   2.734   7.668   3.758 -0.4825  2.2956 -0.3470
  478MOL0     H64482   3.024   7.506   3.946  3.6960  1.0272 -1.5437
  478MOL0     H64483   2.953   7.512   3.794 -0.1182  1.0872  0.3346
  478MOL0     H64484   3.142   7.657   3.786  1.4786 -0.3633  1.5514
  478MOL0     H64485   3.012   7.778   3.809  1.2542  1.0380  0.4180
  478MOL0     H64486   3.166   7.639   4.025 -2.6203 -0.2588  0.9684
  478MOL0     H64487   3.076   7.778   4.053 -2.9207 -0.6813 -1.5425
  478MOL0     H64488   3.238   7.926   3.952 -1.2098 -0.3926  0.6923
  478MOL0     H64489   3.329   7.787   3.883 -1.6784 -1.9218 -1.0568
  478MOL0     H64490   3.430   8.007   3.950  1.0204  3.7915 -0.0472
  478MOL0     H64491   3.594   8.179   4.018 -0.3904  1.9183  1.1099
  478MOL0     H64492   4.061   8.183   4.223  0.3434  0.4358 -1.5923
  478MOL0     H64493   4.222   8.346   4.306  0.0073 -0.0900  0.8849
  478MOL0     H64494   4.351   8.521   4.345  0.3529  0.7862  2.5848
  478MOL0     H64495   4.334   8.623   4.198 -1.0493 -1.2572  0.9957
  478MOL0     H64496   4.342   8.817   4.310  1.3799  0.0060 -1.3552
  478MOL0     H64497   4.326   8.738   4.476  1.4980  1.9452 -0.3823
  478MOL0     H64498   4.564   8.634   4.431  1.7657  0.0295  0.6058
  478MOL0     H64499   4.578   8.735   4.295 -1.1346  1.1988  0.7106
  478MOL0     H64500   4.537   8.806   4.591 -0.8361 -1.1333 -0.6819
  478MOL0     H64501   4.524   8.941   4.466  2.6039  0.3666 -1.9702
  478MOL0     H64502   4.752   8.904   4.407 -1.2043 -1.7316 -1.3312
  478MOL0     H64503   4.767   8.762   4.502  1.8976  0.3988 -1.4110
  478MOL0     H64504   4.696   9.034   4.624  1.1250  0.3075  0.5101
  478MOL0     H64505   4.713   8.872   4.717  0.2656 -1.2080 -0.1184
  478MOL0     H64506   4.898   9.029   4.745  0.8755  1.3394 -1.3089
  478MOL0     H64507   4.939   9.015   4.572  0.6479  1.8558  1.7501
  478MOL0     H64508   4.927   8.769   4.747  0.5365 -1.8724 -0.7825
  478MOL0     H64509   4.989   8.788   4.584 -1.3371  0.9099 -0.7892
  478MOL0     H64510   3.917   8.657   4.279 -0.1485 -0.3701  0.7840
  478MOL0     H64511   3.759   8.473   4.196  0.3324  0.2230 -1.0235
  478MOL0     H64512   3.580   8.026   4.416 -1.1223  3.0313  0.4441
  478MOL0     H64513   3.422   7.845   4.338  4.9357 -0.8678  2.0746
  478MOL0     H64514   1.685   7.237   4.298  1.3167 -0.2302 -0.6425
  478MOL0     H64515   1.440   7.225   4.253 -3.3024  2.0791  0.3547
  478MOL0     H64516   1.141   7.586   4.043  0.2244 -0.3133  1.1447
  478MOL0     H64517   0.951   7.725   4.022 -1.0999  0.6249  1.1580
  478MOL0     H64518   0.597   7.830   4.077 -1.0404 -0.2151  2.3456
  478MOL0     H64519   0.757   7.814   3.994  1.3248  0.8479  0.1600
  478MOL0     H64520   0.730   8.011   4.144 -1.7477 -0.8957 -1.8069
  478MOL0     H64521   0.878   7.922   4.137 -0.4153  2.0108 -2.7445
  478MOL0     H64522   0.843   7.835   4.362 -0.0027 -2.0911  0.1958
  478MOL0     H64523   0.676   7.846   4.360  1.1426 -0.5550  1.5735
  478MOL0     H64524   0.841   8.028   4.487  0.3780 -0.3632  0.3499
  478MOL0     H64525   0.822   8.118   4.336  1.5243 -0.8642 -0.1514
  478MOL0     H64526   0.466   8.151   4.560  1.5488  1.6905  1.1794
  478MOL0     H64527   0.744   7.504   4.341 -0.8178  1.6090 -0.7315
  478MOL0     H64528   0.928   7.259   4.389 -0.4665  0.7446 -2.4350
  478MOL0     H64529   1.027   7.370   4.491  0.7082 -1.3355 -0.0905
  478MOL0     H64530   0.861   7.390   4.486 -2.1578 -3.8090 -0.8776
  479MOL0     O64531   1.218   8.581   2.527 -0.2617  0.0383  0.4660
  479MOL0     C64532   1.146   8.608   2.621  0.5532  0.0923 -0.0819
  479MOL0     O64533   1.151   8.549   2.745  0.7277 -0.2125 -0.1255
  479MOL0     C64534   1.247   8.457   2.774 -0.1609  0.4689  0.7700
  479MOL0     C64535   1.207   8.352   2.863  0.1214 -0.6055  0.3513
  479MOL0     C64536   1.294   8.249   2.895 -0.4851 -0.2191 -0.2470
  479MOL0     C64537   1.421   8.239   2.833  0.3575  0.0028  0.0195
  479MOL0     O64538   1.489   8.126   2.862 -0.0117 -0.6147 -0.5881
  479MOL0     C64539   1.631   8.144   2.890  0.2560 -0.0720  0.4361
  479MOL0     C64540   1.692   8.018   2.938  0.5892 -0.5520 -0.0518
  479MOL0     C64541   1.818   8.051   3.010  0.2735  0.2511  0.3544
  479MOL0     C64542   1.901   7.924   3.035 -0.0920 -0.1437 -0.6065
  479MOL0     C64543   2.040   7.962   3.090 -0.1939 -0.1225 -0.7326
  479MOL0     C64544   2.128   7.838   3.115  0.2398  0.1866 -1.5466
  479MOL0     C64545   2.267   7.865   3.167  0.5939  0.2338  0.2607
  479MOL0     C64546   2.350   7.737   3.154 -0.3974  0.4711 -0.1106
  479MOL0     N64547   2.493   7.774   3.143 -0.0793  0.1635  0.5048
  479MOL0     C64548   2.565   7.788   3.027  0.2477 -0.7048  0.8272
  479MOL0     C64549   2.698   7.795   3.063 -0.3929 -0.7422  0.7738
  479MOL0     C64550   2.816   7.778   2.962  0.3561 -0.4117  0.2883
  479MOL0     C64551   2.943   7.871   3.004  0.6995 -0.1507 -0.2585
  479MOL0     C64552   3.069   7.850   2.913  0.5213  0.5101 -0.5961
  479MOL0     C64553   3.192   7.911   2.968 -0.9069  0.3718  0.7516
  479MOL0     O64554   3.222   7.873   3.104 -0.1911  0.0327  0.0035
  479MOL0     C64555   3.344   7.895   3.155  0.3272 -0.7589  0.1071
  479MOL0     C64556   3.405   7.782   3.189  0.2582 -1.0387 -0.3044
  479MOL0     C64557   3.528   7.793   3.249 -0.4803 -0.2252 -0.0452
  479MOL0     C64558   3.593   7.919   3.271  0.9580  0.2223  1.2842
  479MOL0     C64559   3.726   7.924   3.325  0.0487  0.4142 -0.2223
  479MOL0     O64560   3.799   7.812   3.334 -0.5329 -0.7534  0.4092
  479MOL0     C64561   3.931   7.807   3.377 -0.4987 -0.9317  0.4718
  479MOL0     C64562   3.991   7.681   3.366 -0.6158  0.2197  0.2913
  479MOL0     C64563   4.129   7.656   3.410 -0.1015  1.2293 -1.2215
  479MOL0     C64564   4.210   7.770   3.443 -0.0661  0.2839 -0.5751
  479MOL0     O64565   4.343   7.755   3.471  0.0958  0.0636  0.3474
  479MOL0     C64566   4.395   7.625   3.503 -0.0259 -0.2239 -0.3318
  479MOL0     C64567   4.539   7.622   3.544 -0.1392  0.7311 -0.4919
  479MOL0     C64568   4.630   7.700   3.449 -0.5598  1.0399  0.4167
  479MOL0     C64569   4.781   7.647   3.451 -0.3694  0.1836  0.3304
  479MOL0     C64570   4.898   7.751   3.412  0.7992  0.8286  0.4221
  479MOL0     C64571   5.041   7.696   3.418  0.3703  0.3498  0.2621
  479MOL0     C64572   5.075   7.615   3.549 -0.7353  0.5229  0.0613
  479MOL0     C64573   5.077   7.706   3.671  0.1550 -0.0988  0.4482
  479MOL0    Cl64574   5.147   7.621   3.812 -0.3522  0.1284 -0.2966
  479MOL0     C64575   4.144   7.897   3.444 -0.1697  0.7172  0.8053
  479MOL0     C64576   4.012   7.917   3.420  0.7431 -0.1217  0.1085
  479MOL0     O64577   3.765   8.042   3.338 -1.2207  0.8668  0.5929
  479MOL0     C64578   3.519   8.038   3.244  0.9119  0.3494 -0.3176
  479MOL0     C64579   3.389   8.021   3.192  0.4928  0.2306 -0.2414
  479MOL0     N64580   2.708   7.784   3.198  0.2646 -0.4062 -0.5068
  479MOL0     N64581   2.584   7.766   3.241 -0.6395 -0.3454 -1.1370
  479MOL0     C64582   1.461   8.341   2.754 -0.2410  0.8072  0.8026
  479MOL0     C64583   1.377   8.447   2.725 -0.7652 -0.1641  0.4093
  479MOL0     C64584   1.050   8.720   2.609 -1.1782 -0.2752  1.1463
  479MOL0     C64585   1.019   8.808   2.713 -0.9720 -0.2422  0.5629
  479MOL0     C64586   0.941   8.918   2.704  1.4623 -0.3997 -0.0058
  479MOL0     C64587   0.870   8.948   2.588 -0.2764 -0.4079 -0.8560
  479MOL0     O64588   0.783   9.057   2.596 -0.6278 -0.1763 -0.3191
  479MOL0     C64589   0.690   9.076   2.497  0.0620  0.2415  0.7110
  479MOL0     C64590   0.722   9.191   2.397  0.3163  0.1537 -1.6577
  479MOL0     C64591   0.732   9.322   2.481 -0.0670  0.4445 -0.2887
  479MOL0     C64592   0.804   9.428   2.393 -0.2993 -0.4154  0.6241
  479MOL0     C64593   0.733   9.453   2.267 -0.4084  0.6980 -0.6751
  479MOL0     C64594   0.665   9.483   2.170 -0.7362  0.0090 -0.0710
  479MOL0     C64595   0.910   8.879   2.463 -0.6441  0.4161 -0.3617
  479MOL0     C64596   0.993   8.762   2.480  0.7618 -0.2489 -0.3603
  479MOL0     C64597   1.013   8.691   2.353 -0.4021  1.0011  0.3279
  479MOL0     H64598   1.117   8.356   2.925  0.8333  0.7005  1.3578
  479MOL0     H64599   1.259   8.167   2.957 -0.6123 -0.3932 -0.5516
  479MOL0     H64600   1.684   8.169   2.798 -1.9538 -2.8961 -1.7873
  479MOL0     H64601   1.640   8.221   2.968  4.0576  0.1714 -0.0364
  479MOL0     H64602   1.709   7.957   2.849 -0.7573 -0.5311 -0.3383
  479MOL0     H64603   1.629   7.971   3.014  0.1458  1.9254  1.2055
  479MOL0     H64604   1.803   8.095   3.109  0.0960 -0.9384  0.8834
  479MOL0     H64605   1.875   8.119   2.947  1.2136  0.8163  1.7761
  479MOL0     H64606   1.839   7.880   3.114 -1.4898  4.9152  1.5509
  479MOL0     H64607   1.912   7.859   2.948 -0.1079  0.1058 -0.7934
  479MOL0     H64608   2.093   8.030   3.022 -1.4412  0.0565 -1.5718
  479MOL0     H64609   2.021   8.021   3.179  0.4753 -1.9919  0.7176
  479MOL0     H64610   2.072   7.785   3.194  1.2045  2.0145  0.4543
  479MOL0     H64611   2.136   7.774   3.026  1.3068 -3.5004  0.9734
  479MOL0     H64612   2.259   7.893   3.273  0.2370  0.4796  0.1685
  479MOL0     H64613   2.308   7.948   3.109  1.3567 -1.0540 -1.1077
  479MOL0     H64614   2.331   7.680   3.245  2.4897  1.0348  0.9240
  479MOL0     H64615   2.322   7.675   3.068 -1.4136  3.0850 -1.7991
  479MOL0     H64616   2.531   7.786   2.925 -1.0183  2.2751  1.0785
  479MOL0     H64617   2.852   7.675   2.968 -2.2726 -1.3877  0.4269
  479MOL0     H64618   2.780   7.804   2.862  1.9650 -0.8083 -0.4311
  479MOL0     H64619   2.914   7.976   2.999 -2.8886 -0.9789  0.5419
  479MOL0     H64620   2.975   7.849   3.107  0.2147  2.6733  0.5746
  479MOL0     H64621   3.053   7.878   2.808  5.1801 -0.2372 -1.7138
  479MOL0     H64622   3.084   7.743   2.903 -1.7281 -0.1217  1.6126
  479MOL0     H64623   3.181   8.020   2.969  2.7924  0.9034  0.1232
  479MOL0     H64624   3.273   7.888   2.898 -0.0653  0.1151  1.7803
  479MOL0     H64625   3.358   7.684   3.189  0.3226 -1.0689 -0.5558
  479MOL0     H64626   3.579   7.699   3.267 -1.3995 -0.3953  1.9132
  479MOL0     H64627   3.930   7.605   3.318  0.0471  1.6302 -3.1043
  479MOL0     H64628   4.170   7.556   3.422 -0.8351  1.2505  2.7650
  479MOL0     H64629   4.324   7.575   3.570 -0.0846 -1.2677 -1.1597
  479MOL0     H64630   4.400   7.557   3.418  1.3748 -1.9983  1.0794
  479MOL0     H64631   4.552   7.653   3.648  1.4174  1.1971 -0.7919
  479MOL0     H64632   4.577   7.520   3.552  0.5245  1.0506  0.7502
  479MOL0     H64633   4.596   7.686   3.347 -0.0318 -0.3218  0.4113
  479MOL0     H64634   4.627   7.809   3.458 -1.6919  1.1366 -0.8452
  479MOL0     H64635   4.791   7.562   3.382  0.7709 -0.5475  1.3554
  479MOL0     H64636   4.795   7.614   3.555 -1.5886 -2.6713 -0.2974
  479MOL0     H64637   4.870   7.829   3.483 -0.8541 -0.9869  1.8728
  479MOL0     H64638   4.862   7.779   3.313 -3.4088 -1.4418  1.0889
  479MOL0     H64639   5.053   7.630   3.332  0.7470  2.4568 -1.3856
  479MOL0     H64640   5.114   7.773   3.394 -0.2342  0.7488 -0.3270
  479MOL0     H64641   5.175   7.572   3.555 -1.1025 -0.2781  0.7784
  479MOL0     H64642   5.008   7.531   3.569 -0.4352  0.2076 -0.2595
  479MOL0     H64643   5.130   7.801   3.662 -0.5916  0.6856  3.2797
  479MOL0     H64644   4.970   7.730   3.677  0.4002  1.7179 -1.1979
  479MOL0     H64645   4.198   7.989   3.463 -0.8692  1.3892 -0.3518
  479MOL0     H64646   3.970   8.016   3.433 -1.7846 -0.8617 -1.7355
  479MOL0     H64647   3.569   8.133   3.263 -0.1217  0.8101  0.1633
  479MOL0     H64648   3.334   8.108   3.158  1.5767  0.3273 -1.8138
  479MOL0     H64649   1.566   8.352   2.732 -0.3696  1.8476  0.6260
  479MOL0     H64650   1.416   8.528   2.664 -0.4147 -0.6729 -0.0608
  479MOL0     H64651   1.067   8.777   2.805 -1.1352 -2.4319 -0.0169
  479MOL0     H64652   0.920   8.984   2.788  1.0872  0.6624 -0.9156
  479MOL0     H64653   0.593   9.105   2.539 -0.9895 -0.9352 -0.7985
  479MOL0     H64654   0.679   8.986   2.436  2.2177  1.5167 -1.7513
  479MOL0     H64655   0.633   9.201   2.333 -1.5290  0.4745  0.8273
  479MOL0     H64656   0.807   9.169   2.332  0.0626  1.7945 -2.6123
  479MOL0     H64657   0.795   9.306   2.569  1.1373 -1.0433 -1.3660
  479MOL0     H64658   0.631   9.355   2.509 -1.2297 -2.5170 -0.5623
  479MOL0     H64659   0.819   9.517   2.454 -1.3036 -1.0937  1.8937
  479MOL0     H64660   0.907   9.405   2.363  0.1300  0.3976  1.4160
  479MOL0     H64661   0.597   9.501   2.089 -2.9534 -2.1731  1.1391
  479MOL0     H64662   0.864   8.902   2.367 -3.6093 -0.3315  0.7596
  479MOL0     H64663   1.096   8.728   2.292  0.6609 -0.9090  0.5511
  479MOL0     H64664   1.013   8.583   2.366 -4.1291  0.5667 -1.7502
  479MOL0     H64665   0.928   8.702   2.285  1.5722 -0.2368 -2.5280
  480MOL0     O64666   2.181   7.274   1.011 -0.3132  0.0822 -0.0290
  480MOL0     C64667   2.086   7.327   0.945 -0.3402  0.1107  0.3498
  480MOL0     O64668   2.097   7.411   0.839 -0.2344  0.0014 -0.3177
  480MOL0     C64669   2.225   7.432   0.798 -0.3825 -0.4913  1.0631
  480MOL0     C64670   2.273   7.565   0.818 -0.4925 -0.3653  0.4938
  480MOL0     C64671   2.381   7.615   0.747  0.0399 -0.1086 -0.4288
  480MOL0     C64672   2.456   7.529   0.669 -0.4038  0.5145 -0.2202
  480MOL0     O64673   2.576   7.562   0.609 -0.3579 -0.0331  0.6759
  480MOL0     C64674   2.566   7.671   0.517  0.3230 -0.1414 -0.2084
  480MOL0     C64675   2.680   7.775   0.525 -0.0156 -0.6295  0.4658
  480MOL0     C64676   2.824   7.724   0.510  0.3128 -0.6082 -0.6274
  480MOL0     C64677   2.866   7.685   0.367 -0.0237  0.9107  0.0544
  480MOL0     C64678   3.001   7.614   0.343 -0.2535 -0.4651 -0.7953
  480MOL0     C64679   3.051   7.595   0.200  0.7290 -0.0058  0.4695
  480MOL0     C64680   3.184   7.537   0.196 -0.8020  0.1935 -0.0131
  480MOL0     C64681   3.239   7.541   0.051 -0.4772  0.3056 -0.3374
  480MOL0     N64682   3.380   7.488   0.045 -0.3383 -0.6307  0.1516
  480MOL0     C64683   3.416   7.363   0.065 -0.4153  0.5100  0.4067
  480MOL0     C64684   3.542   7.351   0.006 -0.1030  0.1417  1.5331
  480MOL0     C64685   3.609   7.219   0.001 -0.1925 -0.0242 -0.3489
  480MOL0     C64686   3.729   7.221   0.098  0.4444 -0.4520 -0.0321
  480MOL0     C64687   3.799   7.081   0.103  0.1719 -0.3418  0.2879
  480MOL0     C64688   3.925   7.065   0.188  0.3919  0.0545 -0.0089
  480MOL0     O64689   3.916   7.123   0.316 -0.3192  0.4811 -0.9235
  480MOL0     C64690   4.025   7.180   0.369 -0.0371 -0.2697 -0.2636
  480MOL0     C64691   4.001   7.276   0.468 -0.3814  0.1958  0.0399
  480MOL0     C64692   4.105   7.342   0.522 -0.1671 -0.3715  0.0676
  480MOL0     C64693   4.236   7.313   0.481 -0.7914 -0.4637  0.3845
  480MOL0     C64694   4.345   7.395   0.540 -1.0911 -0.2760  0.1229
  480MOL0     O64695   4.475   7.376   0.497  0.4142  0.3480  0.1221
  480MOL0     C64696   4.589   7.424   0.557  0.2470  1.2765 -0.5462
  480MOL0     C64697   4.607   7.449   0.694 -0.7225  0.2965  0.0376
  480MOL0     C64698   4.729   7.486   0.750  0.1540 -0.5907  0.1007
  480MOL0     C64699   4.831   7.524   0.663 -0.8152  0.3963 -0.8947
  480MOL0     O64700   4.946   7.584   0.704 -0.5529  0.2571  0.5587
  480MOL0     C64701   4.972   7.585   0.849  0.3638  0.6859  0.3130
  480MOL0     C64702   5.107   7.641   0.888  0.6450  0.7245 -0.1110
  480MOL0     C64703   5.228   7.559   0.847  0.4694 -0.5122 -1.2041
  480MOL0     C64704   5.364   7.627   0.860  0.0233 -0.3763  0.2482
  480MOL0     C64705   5.479   7.537   0.828  0.5225  0.0656 -0.5310
  480MOL0     C64706   5.609   7.603   0.859 -0.1352 -0.1831 -0.9415
  480MOL0     C64707   5.724   7.530   0.793  0.3790  0.5322  0.1704
  480MOL0     C64708   5.848   7.612   0.801 -0.8330 -1.0105 -1.0103
  480MOL0    Cl64709   5.886   7.627   0.979  0.0880  0.1785 -0.2619
  480MOL0     C64710   4.815   7.499   0.524 -0.3576 -0.6528  0.0220
  480MOL0     C64711   4.694   7.458   0.477  0.6647 -0.4187 -0.0712
  480MOL0     O64712   4.313   7.476   0.624 -0.1934  0.3795 -0.2326
  480MOL0     C64713   4.261   7.219   0.381 -0.5251 -0.2763 -0.5105
  480MOL0     C64714   4.157   7.153   0.318  0.6961 -0.0919 -1.0675
  480MOL0     N64715   3.576   7.472  -0.049  0.2035  0.0775 -0.7261
  480MOL0     N64716   3.485   7.553  -0.008  0.0476  0.2523 -0.4854
  480MOL0     C64717   2.428   7.392   0.661  0.2446 -0.0819  1.1880
  480MOL0     C64718   2.307   7.352   0.717 -0.4010  0.9535  1.1680
  480MOL0     C64719   1.950   7.277   0.968  0.0244  0.9081  0.1480
  480MOL0     C64720   1.927   7.140   0.943  0.1182  0.4654  0.5785
  480MOL0     C64721   1.801   7.085   0.964  0.2907 -0.0411  0.8822
  480MOL0     C64722   1.696   7.162   1.021  0.3309 -0.0165  0.5047
  480MOL0     O64723   1.574   7.108   1.037  0.9427  0.6704 -0.0780
  480MOL0     C64724   1.542   6.974   1.083 -0.7352  0.2442  0.1131
  480MOL0     C64725   1.395   6.948   1.112  0.2594  0.1792 -0.0810
  480MOL0     C64726   1.349   7.032   1.234  0.1515 -0.7714 -0.8003
  480MOL0     C64727   1.220   6.979   1.302  0.1152  1.0672  0.0567
  480MOL0     C64728   1.098   7.039   1.242 -0.4940 -0.3911 -0.8489
  480MOL0     C64729   1.002   7.094   1.189  0.3198  0.0279  0.4591
  480MOL0     C64730   1.716   7.296   1.047  0.3403 -0.1542 -0.8326
  480MOL0     C64731   1.843   7.357   1.016 -0.2539  0.3881  0.2758
  480MOL0     C64732   1.847   7.505   1.038  0.4292  0.2171  0.0132
  480MOL0     H64733   2.213   7.632   0.880 -1.3355 -0.8383  0.2133
  480MOL0     H64734   2.414   7.717   0.764 -1.6042 -0.0587  3.6801
  480MOL0     H64735   2.551   7.630   0.417  3.0431  2.7896 -1.9917
  480MOL0     H64736   2.474   7.727   0.535  0.9270  1.5214 -1.9425
  480MOL0     H64737   2.673   7.844   0.609  1.8621  0.3013 -0.0838
  480MOL0     H64738   2.663   7.840   0.439  3.3913 -0.6811 -0.3726
  480MOL0     H64739   2.845   7.644   0.582  0.7870 -0.9801 -1.1602
  480MOL0     H64740   2.894   7.804   0.537 -0.5072  0.1530 -0.7374
  480MOL0     H64741   2.787   7.626   0.320 -1.6188  2.1416  1.0918
  480MOL0     H64742   2.868   7.780   0.313  0.9486  2.2079  2.2249
  480MOL0     H64743   3.073   7.669   0.404 -1.7204  1.6461 -0.8672
  480MOL0     H64744   2.991   7.514   0.386  2.1228 -0.0010  1.0826
  480MOL0     H64745   2.984   7.527   0.147 -0.7793  1.9547 -0.2639
  480MOL0     H64746   3.055   7.694   0.153 -1.2606  0.6495  1.5574
  480MOL0     H64747   3.179   7.433   0.229  1.2584 -0.1574 -0.6489
  480MOL0     H64748   3.251   7.595   0.261 -1.0740 -1.9262  2.3227
  480MOL0     H64749   3.173   7.482  -0.013  0.9229 -2.8748  0.8950
  480MOL0     H64750   3.243   7.646   0.021 -1.0444 -0.5084 -3.6442
  480MOL0     H64751   3.362   7.277   0.105 -0.3384 -0.0179 -0.6018
  480MOL0     H64752   3.528   7.154   0.034 -1.4495  1.1904 -0.9431
  480MOL0     H64753   3.641   7.207  -0.103  2.5781 -0.1865  0.4312
  480MOL0     H64754   3.795   7.305   0.073  0.5972 -0.5251  0.1252
  480MOL0     H64755   3.694   7.241   0.199  1.7312  1.1744  0.1213
  480MOL0     H64756   3.828   7.057   0.001 -0.9611  1.3375 -0.4782
  480MOL0     H64757   3.729   7.001   0.130  0.2615 -0.7740 -0.7403
  480MOL0     H64758   3.996   7.116   0.121 -1.0081 -0.9052 -2.3633
  480MOL0     H64759   3.956   6.960   0.187  2.0171  0.5003  0.7565
  480MOL0     H64760   3.901   7.291   0.507  0.1147 -0.0510  1.4701
  480MOL0     H64761   4.090   7.420   0.596 -1.9369  1.2713 -1.9094
  480MOL0     H64762   4.528   7.419   0.762  0.4074 -1.7936  0.4991
  480MOL0     H64763   4.739   7.497   0.857 -0.5689 -2.9425  0.4635
  480MOL0     H64764   4.900   7.649   0.900 -2.8329  0.2490 -3.2175
  480MOL0     H64765   4.952   7.486   0.889 -0.1399  0.6525 -0.0089
  480MOL0     H64766   5.115   7.743   0.848 -0.9030 -0.3477 -3.4934
  480MOL0     H64767   5.117   7.650   0.997  1.4639  0.8638 -0.1928
  480MOL0     H64768   5.240   7.474   0.915  1.2582  1.5642  1.4076
  480MOL0     H64769   5.207   7.519   0.747 -1.5509 -0.4151 -0.8711
  480MOL0     H64770   5.382   7.646   0.967 -0.3479 -0.2645  0.2900
  480MOL0     H64771   5.352   7.721   0.807 -0.8875 -1.2612 -1.1664
  480MOL0     H64772   5.473   7.519   0.720 -2.1912  1.1293 -0.6522
  480MOL0     H64773   5.475   7.441   0.879  2.6087  0.1236 -0.1916
  480MOL0     H64774   5.606   7.706   0.821  2.6484 -0.6336 -2.6524
  480MOL0     H64775   5.608   7.605   0.968 -0.3464  1.4328 -0.9464
  480MOL0     H64776   5.690   7.511   0.691 -1.6894  0.8982  0.7507
  480MOL0     H64777   5.741   7.437   0.849 -0.6687 -0.1218 -0.5431
  480MOL0     H64778   5.932   7.574   0.742  0.8544  1.9790 -0.7192
  480MOL0     H64779   5.817   7.707   0.758 -2.7737 -1.3860 -0.5626
  480MOL0     H64780   4.897   7.525   0.458  1.4218 -1.1517  1.9165
  480MOL0     H64781   4.679   7.451   0.369 -0.0777  0.9487 -0.0880
  480MOL0     H64782   4.362   7.204   0.346 -1.0956 -1.4687 -1.7465
  480MOL0     H64783   4.185   7.075   0.248 -0.9037 -0.9391 -0.8212
  480MOL0     H64784   2.492   7.333   0.597  0.3522  3.3024 -2.2506
  480MOL0     H64785   2.281   7.250   0.693  3.2383  0.4015 -1.1484
  480MOL0     H64786   1.997   7.084   0.882  0.9250  0.5614  1.3904
  480MOL0     H64787   1.797   6.979   0.940  0.4752  0.2314 -0.4472
  480MOL0     H64788   1.597   6.953   1.176 -0.3660 -0.2609 -0.2140
  480MOL0     H64789   1.567   6.892   1.014  0.6744  1.8430 -1.3591
  480MOL0     H64790   1.380   6.842   1.134  0.8781  0.1823  0.3548
  480MOL0     H64791   1.339   6.992   1.028 -1.0480  1.0013  1.1666
  480MOL0     H64792   1.342   7.139   1.212  0.6432 -0.6774 -0.5231
  480MOL0     H64793   1.433   7.019   1.304  2.1171 -0.9941 -3.0736
  480MOL0     H64794   1.211   6.871   1.292 -2.7231  1.3359 -1.2873
  480MOL0     H64795   1.227   7.009   1.407  1.4524  1.1086 -0.0362
  480MOL0     H64796   0.919   7.137   1.136  1.1361  1.1577  0.0680
  480MOL0     H64797   1.636   7.352   1.094  0.9777 -0.9077  1.2444
  480MOL0     H64798   1.747   7.550   1.035 -2.3938 -5.1659 -4.3504
  480MOL0     H64799   1.899   7.521   1.133 -1.7711 -2.4034  1.7961
  480MOL0     H64800   1.893   7.558   0.953 -1.2470  0.6422 -0.6652
  481MOL0     O64801   6.393   2.880  10.207  0.1222 -0.5759  0.3439
  481MOL0     C64802   6.339   2.905  10.313 -0.1498 -0.4197  0.1568
  481MOL0     O64803   6.386   2.981  10.418 -0.0434 -0.2862  0.6180
  481MOL0     C64804   6.495   3.064  10.391  0.8859  0.3522 -0.0012
  481MOL0     C64805   6.499   3.141  10.278 -0.5117  0.0629  0.1355
  481MOL0     C64806   6.600   3.231  10.256 -1.0596 -0.3317  0.3868
  481MOL0     C64807   6.710   3.240  10.346 -0.1441 -0.0347 -0.3778
  481MOL0     O64808   6.804   3.337  10.312  0.4655  0.9221 -0.4373
  481MOL0     C64809   6.861   3.421  10.415 -0.1561 -0.0166  0.2055
  481MOL0     C64810   6.987   3.485  10.377 -0.6213  0.6161  0.2589
  481MOL0     C64811   6.979   3.576  10.248  0.1802 -0.7930  0.6082
  481MOL0     C64812   7.110   3.651  10.224  0.2021 -0.1273 -0.2270
  481MOL0     C64813   7.071   3.804  10.229 -0.5651 -0.3523  1.1049
  481MOL0     C64814   7.195   3.883  10.231  0.6902 -0.5055 -0.4755
  481MOL0     C64815   7.164   4.035  10.227 -0.5090 -0.6021  0.5565
  481MOL0     C64816   7.289   4.122  10.251  0.2142  0.2365  0.7971
  481MOL0     N64817   7.380   4.097  10.134  0.5923 -0.3808 -0.5665
  481MOL0     C64818   7.375   4.162  10.009  0.2601  0.1051  0.5426
  481MOL0     C64819   7.485   4.126   9.946 -0.7024  0.4123  0.2001
  481MOL0     C64820   7.520   4.187   9.804 -0.4993  0.4270  0.5365
  481MOL0     C64821   7.670   4.194   9.788  0.1530 -0.0296 -0.5865
  481MOL0     C64822   7.713   4.280   9.668 -0.6276 -0.1328  0.5697
  481MOL0     C64823   7.860   4.319   9.657 -0.4849  0.6637  0.1218
  481MOL0     O64824   7.951   4.208   9.664  0.7037  0.3137 -0.2837
  481MOL0     C64825   8.089   4.241   9.656 -0.4468  0.1410 -0.0717
  481MOL0     C64826   8.176   4.133   9.677 -0.0601  0.0107 -1.0378
  481MOL0     C64827   8.316   4.155   9.693  0.5841  0.3024 -0.2539
  481MOL0     C64828   8.373   4.289   9.684 -0.1296  0.4626  0.2631
  481MOL0     C64829   8.519   4.312   9.713 -0.8243  0.3197 -0.0387
  481MOL0     O64830   8.605   4.200   9.718 -0.2923 -0.0117 -0.0008
  481MOL0     C64831   8.739   4.213   9.756  0.0615 -0.1026  0.4456
  481MOL0     C64832   8.792   4.093   9.797 -0.3522  0.6493  0.4437
  481MOL0     C64833   8.932   4.078   9.819  0.7589 -0.1575 -0.3757
  481MOL0     C64834   9.012   4.182   9.805  0.4279 -0.6525 -0.5717
  481MOL0     O64835   9.146   4.177   9.820  0.5510  0.1156  0.1585
  481MOL0     C64836   9.204   4.053   9.876 -1.5030  0.2393 -0.0102
  481MOL0     C64837   9.351   4.071   9.901 -0.5880  0.3185  0.5957
  481MOL0     C64838   9.442   3.946   9.877  1.0355 -0.4920 -0.1424
  481MOL0     C64839   9.593   3.987   9.915  0.1821  0.5898  0.2836
  481MOL0     C64840   9.687   3.866   9.901  0.9671  0.7765  0.7827
  481MOL0     C64841   9.831   3.877   9.960 -0.2591 -0.3365  0.4798
  481MOL0     C64842   9.906   3.743   9.960 -0.8927 -0.5383  0.4243
  481MOL0     C64843  10.041   3.742  10.012 -0.2746 -0.0039  0.0198
  481MOL0    Cl64844  10.135   3.875   9.949 -0.3396 -0.1282 -0.1374
  481MOL0     C64845   8.958   4.306   9.777  0.1840 -1.1954  0.0799
  481MOL0     C64846   8.825   4.316   9.744  0.7882 -0.0032  0.0373
  481MOL0     O64847   8.549   4.430   9.735  0.2114  0.2078  0.0241
  481MOL0     C64848   8.280   4.393   9.649  0.2522 -0.4113  0.0744
  481MOL0     C64849   8.145   4.368   9.629  0.3537 -1.1603 -0.5402
  481MOL0     N64850   7.554   4.043  10.031 -0.5479 -0.3473 -0.7053
  481MOL0     N64851   7.486   4.014  10.131  1.1082  0.1032 -0.2440
  481MOL0     C64852   6.705   3.163  10.467 -0.1952 -0.4253  0.0345
  481MOL0     C64853   6.596   3.062  10.483 -1.0931 -0.6920 -0.1752
  481MOL0     C64854   6.220   2.822  10.346  0.9032 -0.1226  0.0219
  481MOL0     C64855   6.154   2.760  10.240 -0.4165  0.0998  0.1150
  481MOL0     C64856   6.040   2.677  10.250  0.2387 -0.0120 -0.0291
  481MOL0     C64857   5.970   2.667  10.372  0.3436  0.1546  1.0154
  481MOL0     O64858   5.837   2.618  10.375 -0.2124 -0.3271  0.1642
  481MOL0     C64859   5.826   2.488  10.304 -0.4291 -0.3609  0.8489
  481MOL0     C64860   5.726   2.496  10.187  0.3244  0.1061  0.5321
  481MOL0     C64861   5.587   2.486  10.245 -0.1600  0.0629  0.0350
  481MOL0     C64862   5.476   2.521  10.143  0.8132 -0.3311 -0.3471
  481MOL0     C64863   5.474   2.421  10.039 -0.7860 -0.0347  0.3765
  481MOL0     C64864   5.447   2.340   9.947 -0.8322  0.3972  0.1651
  481MOL0     C64865   6.032   2.720  10.483 -0.1471 -0.2964 -0.2255
  481MOL0     C64866   6.155   2.796  10.469  0.6579  0.6118  1.0435
  481MOL0     C64867   6.205   2.849  10.597  0.5457 -0.1472 -0.0177
  481MOL0     H64868   6.411   3.128  10.214  0.8688 -1.1519 -1.6156
  481MOL0     H64869   6.615   3.287  10.164  1.0091 -0.2713  0.7040
  481MOL0     H64870   6.782   3.489  10.450 -1.6706 -0.5339 -2.0115
  481MOL0     H64871   6.895   3.360  10.499  0.6751 -0.3176 -0.3358
  481MOL0     H64872   7.059   3.405  10.356 -2.5386 -1.0545 -0.3304
  481MOL0     H64873   7.012   3.544  10.465 -0.1576  0.5191  0.1977
  481MOL0     H64874   6.897   3.646  10.267  0.7211 -0.9529  4.3306
  481MOL0     H64875   6.970   3.507  10.164  0.5979  0.4075 -0.4623
  481MOL0     H64876   7.181   3.631  10.305  0.2512  1.0196  0.0388
  481MOL0     H64877   7.155   3.626  10.128  0.1090  0.5236 -0.4431
  481MOL0     H64878   7.006   3.830  10.144 -0.6359  1.2138  1.6079
  481MOL0     H64879   7.009   3.833  10.315 -2.8925  0.6490 -0.7850
  481MOL0     H64880   7.247   3.864  10.326 -2.6953 -0.1004  1.5933
  481MOL0     H64881   7.265   3.854  10.152  1.0777 -0.7237 -0.0591
  481MOL0     H64882   7.099   4.058  10.312  0.0147  0.5432  0.6679
  481MOL0     H64883   7.117   4.074  10.137  1.1772 -1.4511 -0.7557
  481MOL0     H64884   7.261   4.227  10.250 -0.9128 -0.0380 -1.4389
  481MOL0     H64885   7.339   4.085  10.342 -0.4056 -1.5845  0.4385
  481MOL0     H64886   7.301   4.230   9.969 -1.7217 -1.2848  1.6138
  481MOL0     H64887   7.472   4.148   9.714  3.4591  1.0070 -2.0807
  481MOL0     H64888   7.481   4.289   9.814 -2.0291 -0.2457  1.9451
  481MOL0     H64889   7.713   4.231   9.881  2.2066 -2.9583 -0.2539
  481MOL0     H64890   7.719   4.097   9.774  2.8331  0.7323  2.5259
  481MOL0     H64891   7.649   4.369   9.662 -2.5319 -1.4899 -0.4966
  481MOL0     H64892   7.704   4.234   9.569  0.3360  4.1418 -1.7406
  481MOL0     H64893   7.889   4.388   9.737  0.1912 -0.5450  0.9569
  481MOL0     H64894   7.881   4.367   9.562 -0.0030 -0.1858 -0.2076
  481MOL0     H64895   8.131   4.037   9.697 -0.6790  0.3311 -0.8606
  481MOL0     H64896   8.386   4.075   9.715  0.4267  0.7825  2.3365
  481MOL0     H64897   8.730   4.005   9.810  1.6729 -0.8632  0.4382
  481MOL0     H64898   8.966   3.978   9.845 -0.5775 -0.4388  0.3340
  481MOL0     H64899   9.151   4.022   9.966 -1.5451  0.2565 -0.0290
  481MOL0     H64900   9.189   3.971   9.806  0.9558 -0.0175 -0.3312
  481MOL0     H64901   9.386   4.135   9.819  0.5350 -1.4263 -0.3655
  481MOL0     H64902   9.378   4.126   9.992 -0.3010  0.2033  0.5809
  481MOL0     H64903   9.407   3.874   9.951  1.4208  1.1912  1.7789
  481MOL0     H64904   9.442   3.918   9.772 -0.7572  1.4023 -0.6956
  481MOL0     H64905   9.587   4.021  10.019 -2.3592  1.8072 -0.1657
  481MOL0     H64906   9.632   4.072   9.858  0.8857 -0.8794 -1.5069
  481MOL0     H64907   9.687   3.833   9.796 -4.2212 -0.5033  0.8719
  481MOL0     H64908   9.638   3.782   9.952 -2.1366  0.6248 -2.0196
  481MOL0     H64909   9.881   3.950   9.896 -3.1711  3.1286  1.7472
  481MOL0     H64910   9.829   3.918  10.061  1.4723 -1.7345  1.1256
  481MOL0     H64911   9.903   3.714   9.854 -0.0619 -0.9147  0.4917
  481MOL0     H64912   9.849   3.670  10.018 -0.1555 -0.3621  1.3915
  481MOL0     H64913  10.042   3.748  10.121 -0.3419 -0.2602  0.0357
  481MOL0     H64914  10.088   3.647   9.987  2.0114  0.2240  2.8665
  481MOL0     H64915   9.015   4.395   9.751 -2.7995  1.0064  0.4964
  481MOL0     H64916   8.789   4.416   9.720 -2.9521 -0.0875  4.1520
  481MOL0     H64917   8.314   4.495   9.642  1.1875 -0.7503 -0.5479
  481MOL0     H64918   8.078   4.453   9.621 -0.2201 -1.1331  2.8396
  481MOL0     H64919   6.797   3.161  10.524 -0.0182 -1.2156 -0.2654
  481MOL0     H64920   6.589   3.001  10.573  0.6097  1.0286  1.2073
  481MOL0     H64921   6.198   2.788  10.144 -0.1058  0.1769  0.2779
  481MOL0     H64922   5.984   2.652  10.161 -2.5444  1.9582  1.0064
  481MOL0     H64923   5.798   2.410  10.376  2.2940 -2.2100  0.0295
  481MOL0     H64924   5.924   2.459  10.267 -0.5561 -0.0129  0.2275
  481MOL0     H64925   5.745   2.413  10.118  0.8525 -1.9614  2.9736
  481MOL0     H64926   5.744   2.584  10.125  2.4713 -1.0851 -0.6800
  481MOL0     H64927   5.577   2.566  10.318 -3.3246  0.4381 -0.6665
  481MOL0     H64928   5.568   2.385  10.283  0.8989 -1.0474 -2.2095
  481MOL0     H64929   5.380   2.521  10.197  1.6508  4.3090  1.6356
  481MOL0     H64930   5.496   2.621  10.103  1.0081 -1.4268 -3.2451
  481MOL0     H64931   5.393   2.281   9.877  1.5724 -0.7438 -0.8527
  481MOL0     H64932   5.983   2.709  10.580 -0.8544  2.1886 -0.2285
  481MOL0     H64933   6.154   2.800  10.681  2.0275  2.6440  2.7267
  481MOL0     H64934   6.313   2.834  10.606  0.8799  0.9066 -1.7142
  481MOL0     H64935   6.188   2.957  10.605 -1.1087 -0.1165 -2.5547
  482MOL0     O64936   4.035   0.213   9.829 -0.5166 -0.1497  0.3563
  482MOL0     C64937   4.054   0.197   9.709 -0.0545  0.1906  0.4500
  482MOL0     O64938   4.158   0.246   9.634 -0.6970  0.9077 -0.3988
  482MOL0     C64939   4.268   0.281   9.702 -0.5415  0.0290 -0.2599
  482MOL0     C64940   4.385   0.187   9.705 -1.1586 -0.1514  0.7876
  482MOL0     C64941   4.506   0.230   9.765  0.9380 -0.7748 -0.0782
  482MOL0     C64942   4.503   0.353   9.844  0.4791 -0.5905  0.8654
  482MOL0     O64943   4.601   0.412   9.924  0.1132  0.3497 -0.0286
  482MOL0     C64944   4.725   0.335   9.942  0.7838 -0.5944  0.4194
  482MOL0     C64945   4.726   0.256  10.071  0.2203 -0.1267 -0.4337
  482MOL0     C64946   4.644   0.127  10.067  0.4909  0.1645 -0.4504
  482MOL0     C64947   4.663   0.027  10.192  0.0249 -0.0484  0.5811
  482MOL0     C64948   4.599   0.065  10.326 -0.2750  0.4590  0.7866
  482MOL0     C64949   4.447   0.031  10.306  0.1771  0.0541 -0.2448
  482MOL0     C64950   4.364   0.072  10.426  0.2915 -0.1930  0.0637
  482MOL0     C64951   4.229   0.001  10.427  0.7238 -0.2135  0.1318
  482MOL0     N64952   4.157   0.046  10.543 -0.6893  0.6899 -0.5593
  482MOL0     C64953   4.030   0.100  10.532 -0.2732  0.6594 -0.1024
  482MOL0     C64954   3.976   0.116  10.656 -0.6002  0.3189  0.2152
  482MOL0     C64955   3.843   0.162  10.695  0.1824 -0.1786  0.0609
  482MOL0     C64956   3.864   0.307  10.749  0.1029 -0.5163 -0.5276
  482MOL0     C64957   3.892   0.402  10.627 -0.1973  0.2933  0.0536
  482MOL0     C64958   3.888   0.541  10.680  0.2543  0.0836 -0.7808
  482MOL0     O64959   3.894   0.623  10.560 -0.4507 -0.4563 -0.2994
  482MOL0     C64960   3.899   0.758  10.564  0.2826 -0.9445  0.0838
  482MOL0     C64961   3.928   0.838  10.673 -0.2071  0.1822 -0.7860
  482MOL0     C64962   3.927   0.980  10.663  0.7371  0.3743 -0.6612
  482MOL0     C64963   3.899   1.041  10.546 -0.3813 -0.4996  0.3922
  482MOL0     C64964   3.868   1.189  10.537  0.0451 -0.0392 -0.2579
  482MOL0     O64965   3.797   1.229  10.429  0.1569  0.0556  0.3806
  482MOL0     C64966   3.749   1.352  10.445 -0.4870  0.3251 -0.4836
  482MOL0     C64967   3.817   1.473  10.425 -0.6201  0.1601  0.3060
  482MOL0     C64968   3.751   1.593  10.449  0.5687 -0.1767  0.6928
  482MOL0     C64969   3.617   1.596  10.490  1.1245  1.3664 -1.1742
  482MOL0     O64970   3.561   1.718  10.510  0.4984  0.0992 -0.1498
  482MOL0     C64971   3.517   1.774  10.382  0.5900 -0.2261 -0.6731
  482MOL0     C64972   3.459   1.909  10.422 -0.3885 -0.2184  0.6199
  482MOL0     C64973   3.417   1.994  10.295  0.5739 -0.2732 -0.2279
  482MOL0     C64974   3.310   1.933  10.207 -0.1336 -0.2693  0.1485
  482MOL0     C64975   3.181   1.902  10.289 -0.1832  0.3379  0.0108
  482MOL0     C64976   3.086   2.028  10.278 -0.5580  0.8247 -0.0330
  482MOL0     C64977   2.948   1.995  10.339  0.0961  0.1138 -0.3937
  482MOL0     C64978   2.867   1.891  10.266 -0.7062 -0.0985 -0.5161
  482MOL0    Cl64979   2.838   1.933  10.104  0.0223  0.4918  0.4799
  482MOL0     C64980   3.550   1.477  10.508 -0.6284  0.3913  0.0784
  482MOL0     C64981   3.614   1.353  10.480 -0.6496 -0.2989  0.2173
  482MOL0     O64982   3.912   1.264  10.627  0.0272 -0.7221  0.0956
  482MOL0     C64983   3.871   0.959  10.438 -0.7624 -0.3916  0.0435
  482MOL0     C64984   3.881   0.819  10.442  0.1944 -0.1746 -0.4027
  482MOL0     N64985   4.071   0.054  10.743 -0.8107  0.4394  0.7874
  482MOL0     N64986   4.174   0.005  10.675  0.4484 -0.5367  0.6452
  482MOL0     C64987   4.392   0.437   9.841 -0.2358  0.2837 -0.6373
  482MOL0     C64988   4.278   0.407   9.767 -0.4410  0.6743 -0.1517
  482MOL0     C64989   3.944   0.151   9.625  0.5220  0.4192  0.2102
  482MOL0     C64990   3.982   0.060   9.521  0.2561 -0.0602  0.2378
  482MOL0     C64991   3.875   0.004   9.443  0.3313  0.3097 -0.0959
  482MOL0     C64992   3.744   0.018   9.477  1.3859 -0.7552  0.5791
  482MOL0     O64993   3.656  -0.052   9.401 -0.2524  0.4526 -0.1896
  482MOL0     C64994   3.622  -0.173   9.481  0.2181 -0.1165 -0.3089
  482MOL0     C64995   3.515  -0.266   9.419  0.0538  0.1948 -0.3373
  482MOL0     C64996   3.385  -0.196   9.411 -0.3911  1.1955 -0.2891
  482MOL0     C64997   3.293  -0.278   9.309 -0.1480  0.4633  1.2480
  482MOL0     C64998   3.281  -0.426   9.336 -0.6011 -0.4336 -0.1351
  482MOL0     C64999   3.276  -0.539   9.368 -0.7536 -0.0937 -0.7232
  482MOL0     C65000   3.709   0.115   9.572  0.5551 -0.7345 -0.0348
  482MOL0     C65001   3.803   0.186   9.638 -0.2257 -0.0473 -0.0044
  482MOL0     C65002   3.758   0.307   9.728  0.4994  0.2535 -0.1425
  482MOL0     H65003   4.380   0.091   9.654 -0.8019  1.0918 -1.7879
  482MOL0     H65004   4.593   0.166   9.768  3.1453  1.7887 -2.7778
  482MOL0     H65005   4.734   0.258   9.865  1.1625 -0.3852  0.2553
  482MOL0     H65006   4.810   0.404   9.939  0.4555 -0.2228 -0.7207
  482MOL0     H65007   4.706   0.322  10.156  0.9112 -0.3782 -0.0671
  482MOL0     H65008   4.832   0.235  10.084  0.4237  1.7655  1.5567
  482MOL0     H65009   4.684   0.076   9.979  0.5407  0.7116 -0.7499
  482MOL0     H65010   4.537   0.149  10.056  0.8220  1.4765 -1.1538
  482MOL0     H65011   4.630  -0.074  10.166  0.7422  0.4770 -2.7246
  482MOL0     H65012   4.772   0.030  10.201  0.1146  5.0330  0.7639
  482MOL0     H65013   4.635   0.006  10.410 -1.3356 -1.2048  0.1392
  482MOL0     H65014   4.611   0.172  10.343  1.2966  0.6607 -1.2198
  482MOL0     H65015   4.410   0.082  10.217  3.5022 -0.2418 -1.9310
  482MOL0     H65016   4.442  -0.077  10.288 -0.7444 -0.0904  0.7839
  482MOL0     H65017   4.342   0.179  10.419  0.7401  0.0570  1.9822
  482MOL0     H65018   4.408   0.056  10.524  0.3448 -0.2510  0.0294
  482MOL0     H65019   4.179   0.032  10.334 -3.1820 -0.5869  1.9035
  482MOL0     H65020   4.240  -0.107  10.419  0.6087 -0.2122 -0.0895
  482MOL0     H65021   3.989   0.144  10.442  1.1263  0.5526 -0.8279
  482MOL0     H65022   3.782   0.168  10.604  0.2998  5.3188  0.0004
  482MOL0     H65023   3.801   0.096  10.771  0.3585  0.8132  1.0486
  482MOL0     H65024   3.770   0.339  10.795  0.8493  1.2928 -0.1713
  482MOL0     H65025   3.950   0.304  10.816 -0.5372  1.2332  0.4599
  482MOL0     H65026   3.829   0.383  10.540  1.1734 -0.1734 -0.8704
  482MOL0     H65027   3.994   0.397  10.588 -0.7754  1.9031 -1.8018
  482MOL0     H65028   3.977   0.561  10.741 -1.2075 -0.7900  1.7794
  482MOL0     H65029   3.802   0.553  10.746  1.2496  2.3586  0.2026
  482MOL0     H65030   3.950   0.780  10.762  0.4671  1.1722 -0.2889
  482MOL0     H65031   3.927   1.032  10.758 -1.4954 -1.1519  0.2621
  482MOL0     H65032   3.919   1.464  10.390 -0.3847  2.5201  0.2305
  482MOL0     H65033   3.799   1.687  10.426 -0.1828 -0.1939 -1.0818
  482MOL0     H65034   3.604   1.793  10.318  0.5009 -0.8991 -1.0037
  482MOL0     H65035   3.440   1.720  10.325 -0.0008  2.7826 -2.9804
  482MOL0     H65036   3.378   1.906  10.495  0.7276 -1.2006  1.8538
  482MOL0     H65037   3.538   1.955  10.481 -0.2547  1.3238 -0.6973
  482MOL0     H65038   3.382   2.087  10.343  0.2576 -1.3086  1.6718
  482MOL0     H65039   3.500   2.018  10.229  2.2900  1.4159  2.3413
  482MOL0     H65040   3.352   1.840  10.166 -0.2970 -0.3250  0.1080
  482MOL0     H65041   3.285   1.993  10.118 -0.8484  0.1327  0.6127
  482MOL0     H65042   3.186   1.858  10.389 -1.0116  0.5119  0.1360
  482MOL0     H65043   3.138   1.824  10.224 -0.4724 -0.5986  1.2874
  482MOL0     H65044   3.137   2.112  10.326  0.3945 -0.0832  0.5762
  482MOL0     H65045   3.061   2.049  10.174  0.4139 -1.0585 -0.6788
  482MOL0     H65046   2.882   2.082  10.335  0.7528  0.8234  2.1896
  482MOL0     H65047   2.963   1.977  10.446 -0.6073  1.3596 -0.0711
  482MOL0     H65048   2.935   1.805  10.269 -0.3805  0.1759  0.6356
  482MOL0     H65049   2.766   1.881  10.308 -0.3578  1.1267  0.6887
  482MOL0     H65050   3.446   1.466  10.538 -1.9209  2.7004 -3.0115
  482MOL0     H65051   3.553   1.265  10.500 -3.1883  1.5613  1.1499
  482MOL0     H65052   3.844   0.999  10.341 -1.7373 -2.0252 -0.3993
  482MOL0     H65053   3.866   0.759  10.353 -0.4756  0.0898 -0.4732
  482MOL0     H65054   4.399   0.524   9.906 -0.5989 -1.4874  1.9403
  482MOL0     H65055   4.202   0.483   9.781 -0.0103  1.0301  0.2661
  482MOL0     H65056   4.082   0.031   9.494  0.2551 -1.6263  1.7093
  482MOL0     H65057   3.897  -0.073   9.369  0.5218 -0.2019  0.4789
  482MOL0     H65058   3.589  -0.135   9.578  1.7293  0.4765  0.0028
  482MOL0     H65059   3.716  -0.227   9.495  0.0164 -0.3292  0.2642
  482MOL0     H65060   3.511  -0.353   9.486 -1.2050  1.5008  1.3665
  482MOL0     H65061   3.550  -0.295   9.320 -1.9147  0.6128 -1.1945
  482MOL0     H65062   3.397  -0.089   9.388  2.5810  1.5655  2.2537
  482MOL0     H65063   3.340  -0.206   9.510  0.5780  2.3152  0.2907
  482MOL0     H65064   3.198  -0.225   9.313  0.9318  2.5987  0.2087
  482MOL0     H65065   3.326  -0.258   9.207 -2.7858  0.7805  0.3722
  482MOL0     H65066   3.273  -0.637   9.411  1.8067 -0.1127 -0.4442
  482MOL0     H65067   3.604   0.140   9.579  0.1016 -1.6025 -2.6406
  482MOL0     H65068   3.840   0.376   9.749 -0.6228  1.5438  0.1296
  482MOL0     H65069   3.679   0.361   9.675  0.6761 -0.8622 -1.6270
  482MOL0     H65070   3.719   0.278   9.826 -2.0803  1.0462 -0.8598
  483MOL0     O65071   9.982  10.290   2.417  0.2712  0.1872  0.0687
  483MOL0     C65072   9.983  10.201   2.334 -0.5277 -0.5770 -0.3698
  483MOL0     O65073  10.083  10.107   2.314  0.3064 -0.3263 -0.0231
  483MOL0     C65074  10.202  10.128   2.382  0.5263  0.0106  0.1865
  483MOL0     C65075  10.219  10.132   2.526  0.1637 -0.1293  0.6049
  483MOL0     C65076  10.349  10.144   2.574  1.1409  0.6357 -0.2432
  483MOL0     C65077  10.457  10.163   2.493 -0.9142  0.3488 -0.0461
  483MOL0     O65078  10.575  10.178   2.560  0.3987  1.1047  1.1735
  483MOL0     C65079  10.704  10.166   2.487  1.1723 -0.3204 -0.3550
  483MOL0     C65080  10.821  10.182   2.582 -0.5854  0.7769 -0.1590
  483MOL0     C65081  10.956  10.177   2.505  0.2253 -0.2605 -0.3132
  483MOL0     C65082  10.993  10.297   2.423  0.1749 -0.7938 -0.3600
  483MOL0     C65083  11.134  10.299   2.361 -0.4672  0.2339 -0.2821
  483MOL0     C65084  11.170  10.452   2.320  0.1747  0.3402 -0.2182
  483MOL0     C65085  11.289  10.459   2.213  0.1535 -0.2855  0.0825
  483MOL0     C65086  11.418  10.406   2.265  1.1512  0.4206  0.1660
  483MOL0     N65087  11.491  10.500   2.355  0.9239  0.2300 -0.0841
  483MOL0     C65088  11.589  10.577   2.309 -0.0642 -0.0653 -0.1883
  483MOL0     C65089  11.623  10.649   2.409  0.3238 -0.0117  0.4915
  483MOL0     C65090  11.736  10.756   2.394 -0.4533 -0.5806 -0.1585
  483MOL0     C65091  11.874  10.690   2.382 -0.2357  0.4962  0.7399
  483MOL0     C65092  11.973  10.776   2.435 -0.5716 -0.8246  0.5598
  483MOL0     C65093  12.113  10.708   2.421  0.4215 -0.3508 -0.3013
  483MOL0     O65094  12.129  10.572   2.467  0.3693 -0.2989  0.4138
  483MOL0     C65095  12.246  10.506   2.452  0.1793 -0.4426  0.4572
  483MOL0     C65096  12.359  10.561   2.393  0.2642  0.1069  0.5844
  483MOL0     C65097  12.464  10.477   2.362 -0.4936 -0.3629 -0.0052
  483MOL0     C65098  12.467  10.343   2.406  0.4593  0.0895  0.4823
  483MOL0     C65099  12.587  10.245   2.391  0.9236 -0.5884  0.8374
  483MOL0     O65100  12.682  10.289   2.316 -0.2624  0.8071  0.0422
  483MOL0     C65101  12.793  10.204   2.301  0.1449  0.1454  0.3169
  483MOL0     C65102  12.832  10.152   2.174  0.2350  0.3096  1.3261
  483MOL0     C65103  12.944  10.060   2.161  0.0699 -1.2376  0.9373
  483MOL0     C65104  13.018  10.028   2.277  0.1617  0.4542  0.8770
  483MOL0     O65105  13.128   9.949   2.260 -1.2556 -0.2019  0.1493
  483MOL0     C65106  13.173   9.863   2.373  0.0431 -0.4160  0.4162
  483MOL0     C65107  13.239   9.741   2.308 -0.1294 -0.3381  0.8496
  483MOL0     C65108  13.312   9.644   2.411  0.5861  0.3167 -0.1626
  483MOL0     C65109  13.460   9.674   2.426  0.6137  0.4965  0.0673
  483MOL0     C65110  13.535   9.644   2.294 -0.0407  0.3507 -0.3392
  483MOL0     C65111  13.688   9.684   2.309 -0.6056  0.4930 -0.2006
  483MOL0     C65112  13.763   9.653   2.178  0.2478  0.2851 -0.6070
  483MOL0     C65113  13.902   9.722   2.165 -0.2487  0.7945 -0.0358
  483MOL0    Cl65114  14.030   9.636   2.248  0.1214 -0.0022 -0.0424
  483MOL0     C65115  12.984  10.089   2.400  0.0272 -0.1275  0.4823
  483MOL0     C65116  12.869  10.168   2.415 -1.2490  1.1170 -0.5687
  483MOL0     O65117  12.587  10.142   2.459  0.0001 -0.3509  0.1563
  483MOL0     C65118  12.352  10.296   2.467 -0.7241  0.2235 -0.2198
  483MOL0     C65119  12.245  10.373   2.491  0.9776  0.7620 -0.0722
  483MOL0     N65120  11.543  10.627   2.523 -0.5423  0.3894  0.1163
  483MOL0     N65121  11.464  10.528   2.484  0.0907  0.2819 -0.8825
  483MOL0     C65122  10.443  10.153   2.352  0.2263  0.1901  0.4567
  483MOL0     C65123  10.313  10.126   2.301  0.2217  0.2815  0.3220
  483MOL0     C65124   9.857  10.180   2.261 -0.2097 -1.3999 -0.1673
  483MOL0     C65125   9.839  10.049   2.205  0.9311  0.0798  0.1205
  483MOL0     C65126   9.714  10.024   2.145  0.1220 -0.1368  0.3954
  483MOL0     C65127   9.609  10.117   2.156  0.7878 -1.0232  1.0158
  483MOL0     O65128   9.478  10.089   2.123 -0.2080 -0.1712 -0.7983
  483MOL0     C65129   9.452  10.020   2.004 -0.4401 -1.1871  0.1703
  483MOL0     C65130   9.305   9.963   2.020 -0.3414  0.2054 -0.1590
  483MOL0     C65131   9.200  10.051   1.948  0.3552  0.1124  0.2024
  483MOL0     C65132   9.123  10.157   2.026  0.4639  0.7722  0.4444
  483MOL0     C65133   9.212  10.231   2.114 -0.4652  0.5195 -0.3208
  483MOL0     C65134   9.266  10.296   2.200 -0.1054  0.0049  0.5050
  483MOL0     C65135   9.627  10.246   2.205  0.1466 -0.9177  0.1937
  483MOL0     C65136   9.748  10.283   2.259 -0.5454  0.3370  0.5815
  483MOL0     C65137   9.775  10.433   2.282  1.1050 -0.0733  0.2756
  483MOL0     H65138  10.132  10.145   2.589 -0.7261  1.5398 -0.8677
  483MOL0     H65139  10.367  10.151   2.681 -0.0616  2.6632 -0.1193
  483MOL0     H65140  10.709  10.066   2.443  1.0497 -0.5561  0.1544
  483MOL0     H65141  10.719  10.239   2.407 -0.5472  0.1822 -0.2502
  483MOL0     H65142  10.809  10.102   2.655 -0.3135  1.1992  0.3556
  483MOL0     H65143  10.812  10.271   2.645 -0.8706 -0.2067  1.2363
  483MOL0     H65144  10.957  10.087   2.442  0.9888 -0.0627 -0.6012
  483MOL0     H65145  11.042  10.161   2.571 -0.3933 -0.1381  0.5357
  483MOL0     H65146  10.934  10.291   2.331  0.0403 -0.5619 -0.2914
  483MOL0     H65147  10.978  10.391   2.478  1.0206 -0.3038 -0.9533
  483MOL0     H65148  11.216  10.280   2.431  1.7453  2.5978 -2.0229
  483MOL0     H65149  11.147  10.226   2.281  0.7605 -0.0513  0.1525
  483MOL0     H65150  11.082  10.492   2.270 -1.0565 -3.9618 -1.9713
  483MOL0     H65151  11.176  10.519   2.406 -0.7896  0.9418 -0.6065
  483MOL0     H65152  11.311  10.566   2.199  0.1931 -0.2696  0.2782
  483MOL0     H65153  11.248  10.407   2.125 -3.6676  1.4103  0.6774
  483MOL0     H65154  11.402  10.311   2.317 -0.3784  0.9170  0.6534
  483MOL0     H65155  11.473  10.388   2.172 -0.8664  0.4790 -1.0988
  483MOL0     H65156  11.635  10.577   2.210 -0.6704 -0.9145 -0.4772
  483MOL0     H65157  11.726  10.837   2.321  2.5073  0.8363  0.8416
  483MOL0     H65158  11.732  10.819   2.484 -0.3323 -0.1270 -0.4705
  483MOL0     H65159  11.867  10.598   2.440 -2.1199  1.5194  2.2382
  483MOL0     H65160  11.897  10.679   2.275 -1.5871  0.4506  0.4254
  483MOL0     H65161  11.962  10.796   2.542 -2.7422 -0.4261  0.3008
  483MOL0     H65162  11.961  10.864   2.371 -2.0415 -0.3846  1.4034
  483MOL0     H65163  12.199  10.771   2.446 -1.0998  0.8175  2.3958
  483MOL0     H65164  12.113  10.687   2.314 -1.7845  2.3575 -0.9341
  483MOL0     H65165  12.365  10.666   2.366  0.4263  0.6603  2.5759
  483MOL0     H65166  12.552  10.525   2.321  0.2988 -3.1280 -1.8716
  483MOL0     H65167  12.779  10.180   2.083 -0.1894 -1.7045  0.8889
  483MOL0     H65168  12.962  10.029   2.059 -0.5334  0.5355  0.2544
  483MOL0     H65169  13.243   9.922   2.432 -1.0205 -0.7037  2.0534
  483MOL0     H65170  13.093   9.834   2.443  0.8716 -3.4753  0.2545
  483MOL0     H65171  13.151   9.693   2.265  0.5265  0.3563 -1.4241
  483MOL0     H65172  13.305   9.770   2.225  1.7724 -0.6506  2.1711
  483MOL0     H65173  13.261   9.642   2.508  0.5501  1.7373 -0.1329
  483MOL0     H65174  13.307   9.539   2.380  0.6453  0.2854 -0.0663
  483MOL0     H65175  13.505   9.611   2.503 -0.8703 -0.2139  0.3828
  483MOL0     H65176  13.466   9.783   2.437 -0.6715  0.9988 -2.9521
  483MOL0     H65177  13.492   9.707   2.216 -0.4864  0.8428  0.2944
  483MOL0     H65178  13.507   9.541   2.273 -3.1317  1.1544 -0.6367
  483MOL0     H65179  13.701   9.791   2.325 -1.4018  0.9315 -2.1498
  483MOL0     H65180  13.729   9.637   2.399 -3.3821  1.8851  1.9355
  483MOL0     H65181  13.700   9.679   2.092  0.6760 -3.7192 -2.3616
  483MOL0     H65182  13.784   9.548   2.158  2.2124  0.9106 -2.1888
  483MOL0     H65183  13.925   9.723   2.058 -1.2857  1.3610 -0.2661
  483MOL0     H65184  13.895   9.821   2.208  1.2603 -0.2261  2.7796
  483MOL0     H65185  13.033  10.060   2.492  0.7700 -0.0058  0.1288
  483MOL0     H65186  12.844  10.214   2.510 -2.1686  0.1746 -0.3429
  483MOL0     H65187  12.346  10.191   2.494  1.0031  0.1080 -0.2207
  483MOL0     H65188  12.157  10.323   2.529  0.6882  0.3340 -1.2614
  483MOL0     H65189  10.522  10.167   2.280 -0.6794  1.0396 -0.3991
  483MOL0     H65190  10.297  10.117   2.195 -0.8379 -1.4560  0.5996
  483MOL0     H65191   9.913   9.970   2.210 -1.7297 -2.6956 -1.3065
  483MOL0     H65192   9.687   9.932   2.095 -1.2835  1.0841 -1.1994
  483MOL0     H65193   9.520   9.936   1.987  1.1922  0.4707 -2.0507
  483MOL0     H65194   9.453  10.088   1.918 -1.3557 -0.9863  0.3085
  483MOL0     H65195   9.286   9.978   2.127  1.4139  0.3109  0.1813
  483MOL0     H65196   9.312   9.860   1.985  2.4596 -0.9364  3.1153
  483MOL0     H65197   9.133   9.984   1.893 -0.9163  1.2310  0.3387
  483MOL0     H65198   9.252  10.100   1.865 -0.9394  2.0998  0.4694
  483MOL0     H65199   9.067  10.224   1.960  0.8478  1.1540  0.5026
  483MOL0     H65200   9.047  10.105   2.085  0.8692 -0.7376 -0.3025
  483MOL0     H65201   9.325  10.348   2.272  0.7056  0.0006 -0.1349
  483MOL0     H65202   9.550  10.321   2.187  2.6365  2.4452  2.3067
  483MOL0     H65203   9.760  10.455   2.388 -1.5255  0.5023 -0.1575
  483MOL0     H65204   9.880  10.455   2.260  0.6649  0.4631 -1.4236
  483MOL0     H65205   9.709  10.492   2.218 -1.4218 -1.5533  1.3640
  484MOL0     O65206   6.438  10.168   2.452  0.4180  0.1167  0.2203
  484MOL0     C65207   6.380  10.164   2.345  0.1583 -0.7411 -0.0154
  484MOL0     O65208   6.413  10.231   2.221 -0.3867  0.4039  0.3958
  484MOL0     C65209   6.493  10.346   2.233  0.2999 -0.6750  0.5388
  484MOL0     C65210   6.564  10.381   2.114 -1.1726  0.5426 -0.3749
  484MOL0     C65211   6.650  10.498   2.106 -0.2021  0.7116 -0.3782
  484MOL0     C65212   6.672  10.576   2.226  0.2668 -0.4155 -0.1212
  484MOL0     O65213   6.753  10.686   2.233 -0.4688  0.7038 -0.3342
  484MOL0     C65214   6.851  10.700   2.131 -0.1400 -0.7943 -0.3235
  484MOL0     C65215   6.930  10.827   2.161  0.8354 -0.1919  0.0235
  484MOL0     C65216   7.049  10.849   2.072 -0.7544 -0.2683 -0.3189
  484MOL0     C65217   7.113  10.991   2.095  0.6504 -0.7626 -0.4295
  484MOL0     C65218   7.207  11.039   1.988 -0.1297  0.0183 -0.3095
  484MOL0     C65219   7.344  10.961   1.988  0.0424 -0.3422 -0.5200
  484MOL0     C65220   7.439  11.012   1.872  0.0946  0.0761 -0.4466
  484MOL0     C65221   7.505  11.152   1.902  0.2163 -0.5427 -0.1573
  484MOL0     N65222   7.624  11.182   1.815 -0.6889  0.5613 -0.4407
  484MOL0     C65223   7.634  11.272   1.706 -0.0938 -0.5552  0.9267
  484MOL0     C65224   7.762  11.255   1.657 -1.0601  0.7054 -0.2636
  484MOL0     C65225   7.830  11.309   1.534  0.1572 -0.2603  0.1166
  484MOL0     C65226   7.973  11.338   1.562 -0.1789 -0.0576  0.3284
  484MOL0     C65227   8.061  11.379   1.444  0.2610  0.8507  0.0556
  484MOL0     C65228   8.207  11.402   1.471 -1.5739 -0.4492  0.6005
  484MOL0     O65229   8.256  11.367   1.597 -0.1593  0.0644 -0.0711
  484MOL0     C65230   8.385  11.378   1.629 -0.4760  0.3652 -0.3246
  484MOL0     C65231   8.442  11.292   1.724  0.1150 -0.7787  0.4294
  484MOL0     C65232   8.575  11.299   1.756  0.2169 -0.3004  0.0948
  484MOL0     C65233   8.661  11.392   1.699  0.1664 -0.1101 -0.1539
  484MOL0     C65234   8.798  11.410   1.743  0.2637 -0.3083 -0.3484
  484MOL0     O65235   8.885  11.464   1.654 -0.7443 -0.0052  0.4152
  484MOL0     C65236   9.017  11.484   1.704 -0.6383 -1.3886 -0.2370
  484MOL0     C65237   9.050  11.558   1.820  0.0396  0.2917  0.1593
  484MOL0     C65238   9.182  11.587   1.847  0.5173  0.2694  0.4605
  484MOL0     C65239   9.289  11.536   1.772  0.5630 -0.0642  0.3032
  484MOL0     O65240   9.413  11.568   1.822  0.7671  0.1499 -0.0309
  484MOL0     C65241   9.530  11.491   1.780 -0.4278 -0.4827  0.1479
  484MOL0     C65242   9.641  11.536   1.869 -0.2006  0.1661 -0.3062
  484MOL0     C65243   9.773  11.483   1.832  1.1605  0.2704  0.7219
  484MOL0     C65244   9.876  11.574   1.876  0.2909 -0.2292 -0.6741
  484MOL0     C65245   9.885  11.587   2.031  0.1960  0.3687  0.3140
  484MOL0     C65246   9.998  11.677   2.090  0.2606 -0.2958 -0.0130
  484MOL0     C65247   9.965  11.824   2.097  0.1352 -0.3116 -0.5167
  484MOL0     C65248  10.060  11.897   2.189  0.3684  0.6517  0.4060
  484MOL0    Cl65249  10.229  11.875   2.135 -0.4686 -0.1483  0.1445
  484MOL0     C65250   9.266  11.457   1.660  1.4823  0.0435  0.2340
  484MOL0     C65251   9.128  11.434   1.627 -0.1697 -0.4132  0.4835
  484MOL0     O65252   8.822  11.374   1.849 -0.6732  0.9067  0.0584
  484MOL0     C65253   8.610  11.472   1.596  1.0791 -0.0862  0.1648
  484MOL0     C65254   8.470  11.468   1.564 -0.3145  0.3545 -0.4393
  484MOL0     N65255   7.830  11.176   1.750  1.0009  0.6955 -0.6372
  484MOL0     N65256   7.744  11.116   1.834  0.0319 -0.2113 -0.6466
  484MOL0     C65257   6.590  10.543   2.340 -0.0932 -0.8292 -0.4719
  484MOL0     C65258   6.506  10.430   2.349 -0.2383  0.0017 -0.5717
  484MOL0     C65259   6.265  10.070   2.328  0.4487 -0.0978  0.0730
  484MOL0     C65260   6.239  10.001   2.207  0.4701 -0.4446 -1.0936
  484MOL0     C65261   6.149   9.896   2.190 -0.2036  0.6918 -0.4098
  484MOL0     C65262   6.060   9.877   2.290  0.4263 -0.8755  0.6187
  484MOL0     O65263   5.952   9.793   2.268  0.1340  0.1278 -0.3574
  484MOL0     C65264   5.869   9.743   2.358  1.5073 -0.3111  0.0007
  484MOL0     C65265   5.738   9.725   2.282 -0.2146 -0.3207  0.1504
  484MOL0     C65266   5.636   9.637   2.363 -0.1308 -0.2765  0.1685
  484MOL0     C65267   5.499   9.649   2.311  0.2551 -0.2481  0.4249
  484MOL0     C65268   5.387   9.564   2.364 -0.4609  0.1704 -0.1088
  484MOL0     C65269   5.300   9.499   2.422  1.1111 -0.0629  0.0289
  484MOL0     C65270   6.083   9.940   2.408  0.3800 -0.0614 -0.0194
  484MOL0     C65271   6.172  10.043   2.434  0.0202  1.1172 -0.3767
  484MOL0     C65272   6.167  10.119   2.565  0.5689  0.9212  0.3674
  484MOL0     H65273   6.536  10.316   2.031 -2.0824 -0.1949  0.4913
  484MOL0     H65274   6.700  10.523   2.013 -2.8767  0.6100 -1.9309
  484MOL0     H65275   6.915  10.612   2.128 -0.1752 -0.8488 -4.3225
  484MOL0     H65276   6.799  10.704   2.034 -0.7493 -1.6765 -0.0470
  484MOL0     H65277   6.962  10.833   2.265  2.3013 -0.5128 -0.3827
  484MOL0     H65278   6.861  10.905   2.130  1.2186 -0.4794 -1.6686
  484MOL0     H65279   7.025  10.839   1.966  1.8247  0.1211 -0.9937
  484MOL0     H65280   7.124  10.772   2.092  1.0809  1.5310  0.0684
  484MOL0     H65281   7.024  11.054   2.100 -0.4664 -2.2511 -0.8819
  484MOL0     H65282   7.158  11.000   2.194  1.7600 -1.1539 -0.8844
  484MOL0     H65283   7.176  11.036   1.883  1.6095  1.3098 -0.9114
  484MOL0     H65284   7.223  11.146   2.005  0.5617  0.3514 -2.6357
  484MOL0     H65285   7.395  10.957   2.085  0.3445 -0.1593 -0.6718
  484MOL0     H65286   7.325  10.855   1.967 -0.6254  0.1794 -2.7990
  484MOL0     H65287   7.392  11.010   1.773 -1.3526  2.9928  0.0602
  484MOL0     H65288   7.519  10.938   1.871 -0.0709 -0.1108 -0.1303
  484MOL0     H65289   7.429  11.231   1.903 -1.9818 -2.5068  2.1084
  484MOL0     H65290   7.538  11.152   2.006  0.6528  1.4853 -0.2573
  484MOL0     H65291   7.548  11.321   1.662 -1.2148 -2.7945  0.4596
  484MOL0     H65292   7.821  11.238   1.451  0.4646  0.7938 -0.8470
  484MOL0     H65293   7.775  11.400   1.506 -0.5643 -0.1870  1.6875
  484MOL0     H65294   7.985  11.410   1.643 -0.7499 -1.0790  1.3471
  484MOL0     H65295   8.011  11.242   1.599 -0.3581 -0.2262  0.0770
  484MOL0     H65296   8.022  11.471   1.401  1.3616  0.9874 -0.6819
  484MOL0     H65297   8.047  11.307   1.362  1.4874 -2.4067  2.4679
  484MOL0     H65298   8.215  11.512   1.469 -0.0639 -0.4606  2.6755
  484MOL0     H65299   8.270  11.367   1.389 -0.3051 -1.3725  1.9357
  484MOL0     H65300   8.378  11.217   1.768 -0.2955 -0.7504 -0.1122
  484MOL0     H65301   8.614  11.241   1.839  2.3083  0.0914 -0.5362
  484MOL0     H65302   8.966  11.603   1.872 -0.6956 -0.1241 -0.6374
  484MOL0     H65303   9.201  11.645   1.937 -3.4220 -0.1233  1.7165
  484MOL0     H65304   9.508  11.383   1.781  0.8422 -0.7545  0.3725
  484MOL0     H65305   9.557  11.515   1.677  1.0928  1.5107  0.9423
  484MOL0     H65306   9.639  11.645   1.860  1.8294  0.0712 -3.2552
  484MOL0     H65307   9.623  11.501   1.971 -3.2476  1.3070 -0.3567
  484MOL0     H65308   9.786  11.385   1.879 -1.4360 -2.3799 -3.4338
  484MOL0     H65309   9.786  11.462   1.726  1.1372  2.8047  0.1582
  484MOL0     H65310   9.873  11.675   1.836  3.1195  0.4282  0.5272
  484MOL0     H65311   9.974  11.532   1.852  1.2244 -0.0894  2.4460
  484MOL0     H65312   9.902  11.485   2.066  0.1117  0.3290  0.2387
  484MOL0     H65313   9.788  11.607   2.078 -0.2447 -2.3698  0.7678
  484MOL0     H65314  10.009  11.637   2.191  0.7774  0.7839  0.3645
  484MOL0     H65315  10.095  11.652   2.047  0.7524  0.2963  0.7450
  484MOL0     H65316   9.865  11.852   2.131  0.7442  0.6786  0.5311
  484MOL0     H65317   9.971  11.862   1.995  1.8661  2.3036  0.4305
  484MOL0     H65318  10.033  12.000   2.165  2.8821  0.8455 -2.0313
  484MOL0     H65319  10.062  11.856   2.291  1.4786 -0.9501 -0.2219
  484MOL0     H65320   9.347  11.408   1.607  1.6878  0.5099  0.1145
  484MOL0     H65321   9.101  11.376   1.540  0.5064 -1.2536  0.8187
  484MOL0     H65322   8.688  11.532   1.550  1.0837 -0.3500 -0.1828
  484MOL0     H65323   8.429  11.546   1.501 -0.1311  1.1361  0.3870
  484MOL0     H65324   6.591  10.612   2.423  1.5088 -2.1735  0.7086
  484MOL0     H65325   6.448  10.423   2.440  2.2129  0.7251  1.1499
  484MOL0     H65326   6.314  10.008   2.129 -0.4110 -2.7990 -2.2376
  484MOL0     H65327   6.141   9.846   2.094  0.7844 -2.1331  0.8713
  484MOL0     H65328   5.855   9.811   2.442  0.3782  0.9777 -1.1943
  484MOL0     H65329   5.901   9.644   2.394 -0.3431 -1.5333 -1.4890
  484MOL0     H65330   5.753   9.684   2.182  1.2459  1.2678 -0.3246
  484MOL0     H65331   5.691   9.820   2.257 -1.2591 -1.4046 -2.3199
  484MOL0     H65332   5.644   9.663   2.469  1.5342 -1.3714  0.3435
  484MOL0     H65333   5.662   9.532   2.355 -2.8381 -1.3786  3.2512
  484MOL0     H65334   5.467   9.752   2.328 -0.8124 -0.3318 -0.9053
  484MOL0     H65335   5.505   9.631   2.204  1.9273 -4.6560  1.0495
  484MOL0     H65336   5.232   9.443   2.483  0.3607  4.6824  4.1767
  484MOL0     H65337   6.003   9.925   2.480 -1.1157 -1.1737 -1.8422
  484MOL0     H65338   6.172  10.227   2.548 -0.0393  0.9250  0.2078
  484MOL0     H65339   6.074  10.092   2.616  1.8671 -4.1674  0.5985
  484MOL0     H65340   6.246  10.095   2.638  2.5914  3.9564 -0.6328
  485MOL0     O65341   5.745   6.379   0.701  0.5465 -0.3430 -0.0321
  485MOL0     C65342   5.732   6.318   0.807  0.8853  0.1201 -1.2568
  485MOL0     O65343   5.831   6.290   0.896  0.4493 -0.4470  0.1514
  485MOL0     C65344   5.968   6.289   0.863 -0.6177  0.0330 -0.5865
  485MOL0     C65345   6.023   6.269   0.732  0.1875  0.8737  0.2334
  485MOL0     C65346   6.157   6.282   0.711 -0.0370  0.4029 -0.4802
  485MOL0     C65347   6.253   6.304   0.809  0.0584 -0.6703 -1.4145
  485MOL0     O65348   6.387   6.325   0.797 -0.1978  0.6269  0.9919
  485MOL0     C65349   6.441   6.333   0.663 -0.3314  0.1627 -0.3320
  485MOL0     C65350   6.597   6.322   0.675 -0.4559  0.6535 -0.5105
  485MOL0     C65351   6.662   6.413   0.775  0.8069  0.1975  0.1273
  485MOL0     C65352   6.810   6.388   0.757  0.0953  0.1732  0.2884
  485MOL0     C65353   6.895   6.476   0.842 -0.2725  0.3285  0.7717
  485MOL0     C65354   6.894   6.618   0.803 -0.4343 -0.3054 -0.3591
  485MOL0     C65355   7.015   6.708   0.854  0.2566 -0.6917  0.3221
  485MOL0     C65356   7.001   6.855   0.807  0.1032  0.5093  0.1282
  485MOL0     N65357   7.133   6.919   0.831 -0.2449 -0.1447 -0.3649
  485MOL0     C65358   7.252   6.874   0.782  0.0803 -0.7717  0.0930
  485MOL0     C65359   7.356   6.932   0.859  0.8242  0.6921 -0.2996
  485MOL0     C65360   7.505   6.913   0.838  0.5742 -0.1482 -0.5507
  485MOL0     C65361   7.533   6.759   0.833 -0.6837 -0.8032  0.2992
  485MOL0     C65362   7.681   6.718   0.805  0.6088  0.0648  0.1630
  485MOL0     C65363   7.741   6.777   0.676 -0.4948 -0.1158 -0.6981
  485MOL0     O65364   7.859   6.703   0.636  0.3167  0.5646  0.1550
  485MOL0     C65365   7.988   6.733   0.675  0.3212 -0.0183  0.0490
  485MOL0     C65366   8.020   6.836   0.761 -0.3523 -0.3190  0.8052
  485MOL0     C65367   8.159   6.863   0.792 -0.1065 -0.3463  0.0065
  485MOL0     C65368   8.265   6.795   0.735 -0.3316 -0.4668 -0.5904
  485MOL0     C65369   8.397   6.854   0.755 -1.1123  0.7301 -0.3700
  485MOL0     O65370   8.420   6.919   0.877  0.5003 -0.0566  0.4991
  485MOL0     C65371   8.526   7.005   0.887 -0.2477  0.2980  0.2877
  485MOL0     C65372   8.507   7.145   0.867 -0.6575  0.0987  0.0027
  485MOL0     C65373   8.613   7.234   0.897 -0.4692 -0.2530 -0.8674
  485MOL0     C65374   8.737   7.177   0.943  0.9697  0.3610  0.2626
  485MOL0     O65375   8.836   7.270   0.978 -0.4494  1.3278  0.5327
  485MOL0     C65376   8.962   7.227   1.008 -0.1127 -0.7763 -0.0859
  485MOL0     C65377   9.062   7.332   1.047  0.4597 -0.3242  0.0342
  485MOL0     C65378   9.085   7.439   0.942 -0.4182 -0.4082  0.3255
  485MOL0     C65379   9.221   7.506   0.972 -0.1291  0.5691 -0.9189
  485MOL0     C65380   9.299   7.557   0.861  0.4777  0.2711  0.1816
  485MOL0     C65381   9.440   7.604   0.902 -0.4330 -0.2458  0.0521
  485MOL0     C65382   9.551   7.515   0.851 -0.2894 -0.6147 -0.1620
  485MOL0     C65383   9.683   7.541   0.923 -0.4070  0.3330 -0.5321
  485MOL0    Cl65384   9.816   7.434   0.869 -0.0736  0.1426  0.7600
  485MOL0     C65385   8.748   7.036   0.962 -0.3698  0.0245 -0.0991
  485MOL0     C65386   8.649   6.953   0.920  0.3149 -0.7760  0.4007
  485MOL0     O65387   8.482   6.845   0.663  0.3171 -0.4975  0.2216
  485MOL0     C65388   8.233   6.683   0.652 -0.7087 -0.4696  0.3169
  485MOL0     C65389   8.097   6.654   0.631  0.3241 -0.5802  0.0403
  485MOL0     N65390   7.296   7.014   0.949 -0.2841 -0.4978 -0.2362
  485MOL0     N65391   7.161   7.009   0.931 -0.1127 -0.1606 -0.0775
  485MOL0     C65392   6.201   6.319   0.938  0.4864 -0.4135 -0.0291
  485MOL0     C65393   6.063   6.306   0.963 -0.4819 -1.5536 -0.2248
  485MOL0     C65394   5.600   6.266   0.848 -0.1278 -0.2174  0.0782
  485MOL0     C65395   5.591   6.165   0.950 -0.5739 -0.6300 -0.4140
  485MOL0     C65396   5.469   6.112   1.001 -0.0537  0.8438  0.5358
  485MOL0     C65397   5.348   6.158   0.946 -0.4430 -0.5583  0.0249
  485MOL0     O65398   5.232   6.132   1.007 -0.0639 -0.4270 -0.4612
  485MOL0     C65399   5.220   6.008   1.082 -0.1889  0.2945  0.6854
  485MOL0     C65400   5.080   5.973   1.113  0.1395 -0.3504  0.2708
  485MOL0     C65401   4.995   5.959   0.985 -0.7243  0.4681 -0.6876
  485MOL0     C65402   4.860   5.893   1.018 -0.3593  0.2376 -0.6207
  485MOL0     C65403   4.773   5.895   0.899 -0.2947  0.7589 -0.2113
  485MOL0     C65404   4.697   5.882   0.807  0.0927  0.1820 -0.5954
  485MOL0     C65405   5.354   6.244   0.836  0.1671  0.2526  0.1099
  485MOL0     C65406   5.478   6.308   0.788  0.1336 -0.0474 -0.8524
  485MOL0     C65407   5.467   6.415   0.677  0.3912  0.6402  0.6193
  485MOL0     H65408   5.957   6.257   0.646 -3.1063  1.5307  2.4737
  485MOL0     H65409   6.187   6.279   0.607  2.1496  1.6432  0.0573
  485MOL0     H65410   6.398   6.260   0.595 -0.2645 -2.1202  1.9500
  485MOL0     H65411   6.419   6.430   0.617  0.2804  0.3004 -0.3529
  485MOL0     H65412   6.637   6.342   0.575 -1.6074 -0.6868 -1.2760
  485MOL0     H65413   6.637   6.230   0.717  1.8621  3.2511  3.6543
  485MOL0     H65414   6.635   6.390   0.878  2.5199  1.5006  0.8993
  485MOL0     H65415   6.640   6.520   0.767 -2.1527 -0.3361 -0.0051
  485MOL0     H65416   6.828   6.285   0.790  0.2254  0.4437  1.0703
  485MOL0     H65417   6.836   6.410   0.653 -0.2295 -0.7192  0.0041
  485MOL0     H65418   6.883   6.459   0.950 -0.7933 -1.7436  0.4306
  485MOL0     H65419   6.998   6.441   0.829  0.0741  0.0060  3.6574
  485MOL0     H65420   6.915   6.604   0.697 -1.1068 -0.6610 -0.4524
  485MOL0     H65421   6.796   6.666   0.809 -0.4050  0.1163 -2.4547
  485MOL0     H65422   7.098   6.651   0.813 -0.1339 -1.1120  0.1001
  485MOL0     H65423   7.013   6.708   0.963  1.3506 -0.2996  0.3526
  485MOL0     H65424   6.969   6.868   0.703 -1.3044  1.3598  0.6409
  485MOL0     H65425   6.924   6.902   0.869  1.1887  1.5559  0.7199
  485MOL0     H65426   7.267   6.804   0.700 -2.3630 -0.3500 -0.7976
  485MOL0     H65427   7.535   6.964   0.745  2.4411 -1.2058 -0.5724
  485MOL0     H65428   7.561   6.951   0.924 -0.3061  0.2794 -0.1554
  485MOL0     H65429   7.509   6.718   0.932  0.7885  0.7501  1.3477
  485MOL0     H65430   7.474   6.704   0.760  0.6918  0.3438 -1.7783
  485MOL0     H65431   7.675   6.609   0.804 -1.2072  0.0593  2.4232
  485MOL0     H65432   7.731   6.748   0.898  0.1752  0.3930  0.2934
  485MOL0     H65433   7.767   6.883   0.690  1.9575 -0.7616  0.1433
  485MOL0     H65434   7.660   6.771   0.603 -0.7523  1.4629 -0.5905
  485MOL0     H65435   7.940   6.886   0.814  0.0742  0.5152  0.6794
  485MOL0     H65436   8.181   6.956   0.843  1.3343  0.0966 -1.3287
  485MOL0     H65437   8.407   7.169   0.832 -1.4811 -1.8188  0.9259
  485MOL0     H65438   8.613   7.342   0.890 -0.7458 -0.1553  0.3770
  485MOL0     H65439   8.955   7.155   1.090  0.7073 -0.7918 -0.0189
  485MOL0     H65440   8.995   7.173   0.919 -0.8407 -0.2646 -0.6765
  485MOL0     H65441   9.021   7.388   1.132 -1.4846 -2.0249  0.3134
  485MOL0     H65442   9.151   7.278   1.079 -1.1162 -2.8231  0.4428
  485MOL0     H65443   9.084   7.385   0.847  1.1811 -3.2377  1.7857
  485MOL0     H65444   9.006   7.515   0.944  1.6427  1.8254  2.2666
  485MOL0     H65445   9.283   7.437   1.030  1.0712  2.4700  0.1430
  485MOL0     H65446   9.197   7.592   1.035  0.2066  2.4578 -3.2216
  485MOL0     H65447   9.242   7.641   0.819 -0.9988 -0.6901  0.2254
  485MOL0     H65448   9.313   7.488   0.777 -0.1548  1.4600 -0.9356
  485MOL0     H65449   9.455   7.702   0.855 -0.9396 -0.7584 -1.2115
  485MOL0     H65450   9.444   7.622   1.010 -0.0043 -1.1163  0.1915
  485MOL0     H65451   9.567   7.532   0.745  3.3194 -0.6281  0.2524
  485MOL0     H65452   9.520   7.410   0.858  2.2505 -1.5876 -2.0592
  485MOL0     H65453   9.719   7.644   0.925  0.3622  0.0784 -0.5446
  485MOL0     H65454   9.671   7.504   1.025  0.9590  2.6992  0.5820
  485MOL0     H65455   8.841   6.990   0.994 -0.2148  0.5679  0.2361
  485MOL0     H65456   8.655   6.845   0.927 -2.4161 -1.2695 -2.5566
  485MOL0     H65457   8.313   6.635   0.597 -0.3968  0.3818  0.0048
  485MOL0     H65458   8.066   6.570   0.570 -2.9302  1.0746 -0.8402
  485MOL0     H65459   6.264   6.347   1.023  0.9384 -0.5642 -0.3088
  485MOL0     H65460   6.034   6.323   1.066 -2.7048 -1.3342 -0.8251
  485MOL0     H65461   5.683   6.119   0.986 -1.2520 -0.7706  1.1842
  485MOL0     H65462   5.466   6.045   1.086 -2.9774  2.5637  1.9187
  485MOL0     H65463   5.270   6.017   1.179  1.1628  0.1410  0.0354
  485MOL0     H65464   5.270   5.925   1.033 -2.0843 -0.3424 -0.2647
  485MOL0     H65465   5.043   6.056   1.174 -0.2911 -1.3697  1.4354
  485MOL0     H65466   5.083   5.879   1.168 -3.1788 -0.6983  0.0274
  485MOL0     H65467   5.039   5.890   0.913 -3.0159 -0.6865 -1.0861
  485MOL0     H65468   4.968   6.053   0.937 -1.1196  1.8533  2.0385
  485MOL0     H65469   4.871   5.790   1.054  0.1336  1.1109  2.0111
  485MOL0     H65470   4.804   5.941   1.099 -1.9892  0.3357 -1.7559
  485MOL0     H65471   4.624   5.877   0.729 -0.8582  0.6056  0.2530
  485MOL0     H65472   5.263   6.286   0.792 -0.3595 -0.8623  0.1016
  485MOL0     H65473   5.545   6.418   0.601 -0.5939  1.4271 -0.3806
  485MOL0     H65474   5.366   6.422   0.636  1.0427 -0.3321 -1.2848
  485MOL0     H65475   5.487   6.511   0.724 -2.1682  0.4512  2.2842
  486MOL0     O65476   6.950  10.122   9.809 -0.9092 -0.0950  0.2641
  486MOL0     C65477   6.979  10.009   9.843  0.2808 -0.1344  0.2656
  486MOL0     O65478   6.886   9.912   9.860  0.1573  1.1534  0.0918
  486MOL0     C65479   6.760   9.943   9.902  0.5274 -0.4343 -0.1955
  486MOL0     C65480   6.715  10.055   9.966  0.1471 -0.6964  0.1053
  486MOL0     C65481   6.585  10.086   9.995 -0.6031 -0.6729  0.7560
  486MOL0     C65482   6.489   9.981   9.986  1.3204 -0.9435  0.6859
  486MOL0     O65483   6.364  10.008  10.040  0.3027 -0.1010  0.0828
  486MOL0     C65484   6.283   9.896  10.078 -0.0788  0.4457  0.0175
  486MOL0     C65485   6.181   9.851   9.965 -0.3209  0.7499 -0.9665
  486MOL0     C65486   6.034   9.835  10.018 -0.1696 -0.5104  0.7096
  486MOL0     C65487   5.929   9.779   9.926  0.1026 -0.2559 -0.9050
  486MOL0     C65488   5.787   9.773   9.991 -0.1971  0.1268  0.4125
  486MOL0     C65489   5.708   9.905   9.957  0.8969  0.0337  0.0310
  486MOL0     C65490   5.590   9.941  10.049  0.0831  0.6386  0.4193
  486MOL0     C65491   5.632  10.051  10.145  0.3370 -0.5841 -0.3459
  486MOL0     N65492   5.739  10.003  10.226 -0.2079 -0.5566 -0.2044
  486MOL0     C65493   5.862  10.072  10.244 -0.2934  0.6628 -0.4144
  486MOL0     C65494   5.907  10.035  10.365  0.4650 -0.1905 -0.2640
  486MOL0     C65495   6.027  10.090  10.436 -0.3541  0.5620 -0.0699
  486MOL0     C65496   6.045  10.243  10.403  0.1439 -0.6051 -0.2124
  486MOL0     C65497   6.125  10.319  10.500 -0.0605 -0.0220 -0.3643
  486MOL0     C65498   6.272  10.271  10.512 -1.0720  0.0010  0.2242
  486MOL0     O65499   6.335  10.321  10.393 -0.0684  0.2152  0.3409
  486MOL0     C65500   6.456  10.280  10.362  0.2355 -0.4714 -0.0046
  486MOL0     C65501   6.532  10.180  10.421  0.1957  0.1733 -0.0417
  486MOL0     C65502   6.668  10.174  10.385 -0.1470  0.3063  0.5684
  486MOL0     C65503   6.730  10.268  10.300 -1.2537 -0.4917  0.3337
  486MOL0     C65504   6.879  10.262  10.276  0.1593 -0.3496 -0.2691
  486MOL0     O65505   6.941  10.358  10.198  0.2498 -0.3637  0.4917
  486MOL0     C65506   7.076  10.335  10.171  0.4843 -0.5007 -0.8292
  486MOL0     C65507   7.107  10.288  10.042  0.4350  0.1991  0.4521
  486MOL0     C65508   7.245  10.265  10.015 -0.3796 -1.0136 -0.4343
  486MOL0     C65509   7.345  10.288  10.112 -0.4889 -1.1683  0.1950
  486MOL0     O65510   7.485  10.266  10.101  0.5992  0.1900  0.6090
  486MOL0     C65511   7.524  10.147  10.035 -0.0753 -0.1371 -0.4117
  486MOL0     C65512   7.678  10.147  10.027 -0.0348  0.4606  0.7564
  486MOL0     C65513   7.749  10.138  10.160 -0.0114  0.1851 -0.1299
  486MOL0     C65514   7.901  10.149  10.140  0.9712  0.1244  0.2111
  486MOL0     C65515   7.971  10.149  10.276  0.2131  1.1358  0.0971
  486MOL0     C65516   8.120  10.110  10.259 -0.0884 -0.2678 -0.3359
  486MOL0     C65517   8.215  10.218  10.188  0.3957  0.3072 -0.4015
  486MOL0     C65518   8.203  10.364  10.251 -0.2369  0.1579 -0.4600
  486MOL0    Cl65519   8.269  10.364  10.416 -0.1344  0.3143 -0.1528
  486MOL0     C65520   7.307  10.337  10.237  0.0854 -0.2172 -0.7838
  486MOL0     C65521   7.175  10.360  10.272 -0.6979 -0.2703 -0.1736
  486MOL0     O65522   6.938  10.163  10.328 -0.3615 -0.6166  0.3364
  486MOL0     C65523   6.654  10.365  10.234 -0.1754  0.2112 -0.4050
  486MOL0     C65524   6.516  10.363  10.260 -0.4380 -0.7939  0.9370
  486MOL0     N65525   5.818   9.937  10.418 -0.0003  0.8321  0.0508
  486MOL0     N65526   5.725   9.914  10.331  0.0997  0.3347  0.7236
  486MOL0     C65527   6.530   9.861   9.918  0.6978 -0.5866 -0.5876
  486MOL0     C65528   6.665   9.845   9.870  0.9169  0.0264  0.0983
  486MOL0     C65529   7.121   9.972   9.838 -0.4728  0.1639 -0.4388
  486MOL0     C65530   7.163   9.857   9.915  0.0099 -0.1884  0.8852
  486MOL0     C65531   7.292   9.808   9.916 -0.5479  0.0344 -0.0252
  486MOL0     C65532   7.386   9.858   9.829  0.4124 -0.6433 -0.0603
  486MOL0     O65533   7.508   9.795   9.833 -0.1346 -0.1507  0.5904
  486MOL0     C65534   7.622   9.857   9.775  0.0817 -0.0198 -0.1427
  486MOL0     C65535   7.742   9.773   9.820  0.3187  0.2805  0.3854
  486MOL0     C65536   7.877   9.817   9.770  2.2428  0.9296  0.2627
  486MOL0     C65537   7.979   9.725   9.834 -0.1472  0.2223 -0.2305
  486MOL0     C65538   8.118   9.791   9.816  0.0137 -0.3375 -0.2137
  486MOL0     C65539   8.225   9.852   9.815  1.1691 -0.0173  0.0640
  486MOL0     C65540   7.348   9.968   9.740  0.3948  0.5138 -0.1699
  486MOL0     C65541   7.218  10.023   9.745 -0.4477 -0.1423 -0.7846
  486MOL0     C65542   7.180  10.132   9.653 -0.1656  0.1286  0.2642
  486MOL0     H65543   6.789  10.134   9.976  1.5489 -1.7890 -1.0892
  486MOL0     H65544   6.556  10.187  10.022 -0.9417 -0.2952 -0.9035
  486MOL0     H65545   6.346   9.814  10.113  0.7585  0.7715 -0.6803
  486MOL0     H65546   6.226   9.932  10.164 -1.0915 -0.1254 -0.3913
  486MOL0     H65547   6.218   9.758   9.920  0.8117  1.5653 -1.7631
  486MOL0     H65548   6.189   9.927   9.887  0.1438  3.4868  1.5632
  486MOL0     H65549   6.000   9.936  10.046 -0.2394  0.5754 -2.8025
  486MOL0     H65550   6.038   9.788  10.117  1.9126 -0.1339  0.8603
  486MOL0     H65551   5.925   9.838   9.834 -2.4788 -1.8722 -1.9433
  486MOL0     H65552   5.965   9.677   9.909 -0.4324 -0.8419  1.1360
  486MOL0     H65553   5.740   9.682   9.955  0.1376 -0.9276  2.4572
  486MOL0     H65554   5.792   9.776  10.101  0.7385 -0.2071  0.3905
  486MOL0     H65555   5.772   9.994   9.957 -1.0464  1.5787  2.7657
  486MOL0     H65556   5.674   9.894   9.854  1.6575 -1.4073 -0.0852
  486MOL0     H65557   5.561   9.858  10.114 -0.7567  0.3459 -0.3151
  486MOL0     H65558   5.505   9.968   9.986  0.2029 -1.2741 -0.6336
  486MOL0     H65559   5.661  10.136  10.083  0.2296 -0.1898  0.1373
  486MOL0     H65560   5.553  10.089  10.210  1.7522 -0.3537  1.3233
  486MOL0     H65561   5.906  10.147  10.180 -2.1091  0.6334 -1.7546
  486MOL0     H65562   6.008  10.075  10.543 -0.0009 -1.7821 -0.2827
  486MOL0     H65563   6.119  10.038  10.407 -0.5505  0.5903 -0.7590
  486MOL0     H65564   6.098  10.248  10.307 -0.2739 -1.6996 -0.5135
  486MOL0     H65565   5.949  10.290  10.382  0.2670  0.0258  0.6041
  486MOL0     H65566   6.075  10.307  10.597  0.9839 -0.5201  0.1206
  486MOL0     H65567   6.136  10.427  10.486  1.4210 -0.2435 -1.0278
  486MOL0     H65568   6.275  10.162  10.519  1.4652 -0.1504 -1.8076
  486MOL0     H65569   6.319  10.309  10.603 -0.3268  2.0936 -0.9667
  486MOL0     H65570   6.490  10.101  10.483  0.6723 -0.6386 -0.7192
  486MOL0     H65571   6.733  10.105  10.437  1.1247  2.2480  1.6758
  486MOL0     H65572   7.022  10.285   9.975 -0.2430  0.7108  1.2795
  486MOL0     H65573   7.277  10.241   9.914 -2.3026  1.2282 -1.6912
  486MOL0     H65574   7.497  10.057  10.091  1.1395  1.3985  2.9839
  486MOL0     H65575   7.476  10.148   9.937 -1.2179  0.5843  0.1313
  486MOL0     H65576   7.699  10.056   9.969 -1.4717 -0.4401  1.5864
  486MOL0     H65577   7.709  10.239   9.978 -0.2482  1.1899  1.9399
  486MOL0     H65578   7.718  10.219  10.227  3.0682  0.8185  0.6679
  486MOL0     H65579   7.723  10.040  10.200 -0.9040 -0.3124 -1.8226
  486MOL0     H65580   7.920  10.247  10.093 -0.9146  0.7615  0.6938
  486MOL0     H65581   7.926  10.067  10.072 -3.4872 -0.0951 -1.5044
  486MOL0     H65582   7.929  10.079  10.349  1.6177  2.5877  2.4093
  486MOL0     H65583   7.971  10.250  10.318  0.7230  0.2630  2.3377
  486MOL0     H65584   8.158  10.082  10.358  0.3159  0.0952 -0.3859
  486MOL0     H65585   8.125  10.016  10.203  2.7915 -1.6031  1.8857
  486MOL0     H65586   8.196  10.221  10.080 -2.4617 -0.1377  0.0113
  486MOL0     H65587   8.313  10.171  10.198 -0.2024 -0.9327 -0.1022
  486MOL0     H65588   8.262  10.429  10.185 -0.3567  0.2450 -0.4823
  486MOL0     H65589   8.106  10.414  10.256  0.6543  1.8869  1.4665
  486MOL0     H65590   7.376  10.352  10.320 -1.2887 -0.6811  0.4911
  486MOL0     H65591   7.137  10.409  10.362 -1.7931  2.3775 -1.9355
  486MOL0     H65592   6.707  10.432  10.167  1.8178 -3.0061 -2.3017
  486MOL0     H65593   6.451  10.444  10.229 -0.7393 -0.9852  1.0587
  486MOL0     H65594   6.453   9.787   9.896  0.1387 -0.3734  0.5907
  486MOL0     H65595   6.695   9.767   9.800 -1.8192 -0.5868 -0.5372
  486MOL0     H65596   7.098   9.806   9.985  0.4221 -0.7214  0.8765
  486MOL0     H65597   7.319   9.722   9.975 -0.5815  0.6383  0.8859
  486MOL0     H65598   7.635   9.960   9.810  0.6627 -0.9236  2.5420
  486MOL0     H65599   7.622   9.852   9.666  0.6795  0.0896 -0.1545
  486MOL0     H65600   7.730   9.668   9.790  0.3576  0.8090 -1.6253
  486MOL0     H65601   7.739   9.772   9.929  2.3780 -0.9392  0.4837
  486MOL0     H65602   7.888   9.921   9.803 -0.6561  1.5511 -0.4895
  486MOL0     H65603   7.890   9.809   9.662 -3.0898  0.6382 -0.5873
  486MOL0     H65604   7.966   9.724   9.942  0.7334  2.0021 -0.0655
  486MOL0     H65605   7.971   9.623   9.794  0.8307  0.3366 -0.7515
  486MOL0     H65606   8.319   9.905   9.817  1.6822 -0.8220  2.9157
  486MOL0     H65607   7.414  10.008   9.664 -2.0479  1.3690 -1.9461
  486MOL0     H65608   7.091  10.098   9.598 -1.8242  1.5380  1.9443
  486MOL0     H65609   7.156  10.222   9.710 -5.0264  0.1741 -1.4000
  486MOL0     H65610   7.268  10.153   9.592  0.2034 -1.3192  0.2708
  487MOL0     O65611   5.739  10.967   9.460 -0.1690 -0.1990 -0.1783
  487MOL0     C65612   5.669  11.030   9.543  0.5561  0.4297 -0.4801
  487MOL0     O65613   5.720  11.110   9.639  0.7035 -0.1816  0.1880
  487MOL0     C65614   5.851  11.119   9.628 -1.0396 -0.2257 -0.7273
  487MOL0     C65615   5.930  11.028   9.698 -0.1728 -0.6287  0.0699
  487MOL0     C65616   6.070  11.037   9.696 -0.7640 -0.5474 -0.0619
  487MOL0     C65617   6.125  11.156   9.646 -0.8807 -0.3191  0.7081
  487MOL0     O65618   6.262  11.166   9.664  0.8376  0.4570 -0.3550
  487MOL0     C65619   6.329  11.288   9.643 -0.4872  0.8767 -0.7310
  487MOL0     C65620   6.472  11.284   9.696 -0.3217  0.3286 -1.1728
  487MOL0     C65621   6.538  11.153   9.660 -0.1733 -0.3084  1.2492
  487MOL0     C65622   6.679  11.146   9.709 -0.2771 -0.0193 -0.0251
  487MOL0     C65623   6.759  11.020   9.680  0.0218 -0.3724  0.3161
  487MOL0     C65624   6.897  11.038   9.741 -0.3426 -0.0016 -0.2799
  487MOL0     C65625   6.991  10.923   9.698  0.4165 -0.5915 -0.4438
  487MOL0     C65626   7.132  10.944   9.762 -0.0325 -0.0430  0.8885
  487MOL0     N65627   7.224  10.843   9.724 -0.3445  0.7068 -0.5390
  487MOL0     C65628   7.229  10.713   9.767 -0.1522  0.4927  0.4815
  487MOL0     C65629   7.349  10.660   9.733 -0.0773  0.1482  0.4118
  487MOL0     C65630   7.403  10.522   9.771 -0.4545 -0.0133  0.5304
  487MOL0     C65631   7.544  10.516   9.816 -0.7615  0.3005 -0.0775
  487MOL0     C65632   7.640  10.503   9.688 -0.1373  0.8070  0.8419
  487MOL0     C65633   7.782  10.536   9.717  0.0432 -0.3088  0.3833
  487MOL0     O65634   7.832  10.445   9.809  0.0428  0.5795  0.0056
  487MOL0     C65635   7.967  10.414   9.796  0.2022 -0.0909  0.1668
  487MOL0     C65636   8.062  10.515   9.788 -0.0439 -0.6858 -0.1457
  487MOL0     C65637   8.199  10.489   9.782 -0.7062  0.4515 -0.3117
  487MOL0     C65638   8.248  10.353   9.793  0.3392 -1.0370  1.0508
  487MOL0     C65639   8.397  10.319   9.780  0.7338  0.0789 -0.3866
  487MOL0     O65640   8.467  10.386   9.692 -0.3110 -0.3551 -0.5034
  487MOL0     C65641   8.594  10.336   9.669 -0.3501 -0.4039 -0.3900
  487MOL0     C65642   8.693  10.351   9.772 -0.5323  0.1754  0.7369
  487MOL0     C65643   8.827  10.316   9.749 -0.1983 -0.3864 -1.1651
  487MOL0     C65644   8.864  10.263   9.623 -0.0041  0.2605 -0.5607
  487MOL0     O65645   8.994  10.226   9.595 -0.6891  0.0458 -0.2220
  487MOL0     C65646   9.068  10.161   9.696 -0.4356 -0.0714  0.4881
  487MOL0     C65647   9.216  10.211   9.695 -0.4553 -0.5587 -0.4264
  487MOL0     C65648   9.291  10.171   9.558 -0.7394 -0.2974  0.8319
  487MOL0     C65649   9.421  10.262   9.551  0.0772  0.0576  0.4612
  487MOL0     C65650   9.485  10.224   9.418  0.6073  0.4517  0.9563
  487MOL0     C65651   9.603  10.310   9.369  0.0757  0.2245  0.4698
  487MOL0     C65652   9.723  10.309   9.459  0.4094  0.0259  0.1930
  487MOL0     C65653   9.850  10.373   9.392  0.1859  0.4885 -0.1950
  487MOL0    Cl65654   9.993  10.280   9.430  0.1503  0.5140 -0.0370
  487MOL0     C65655   8.773  10.253   9.521 -0.0889  0.3952  0.1401
  487MOL0     C65656   8.641  10.297   9.544  0.0819  0.7361  0.4022
  487MOL0     O65657   8.433  10.219   9.845  0.3051  0.0506 -0.5137
  487MOL0     C65658   8.154  10.253   9.818  0.3870 -0.2251  0.1825
  487MOL0     C65659   8.015  10.281   9.817 -0.2034  0.5337 -0.6541
  487MOL0     N65660   7.405  10.759   9.650 -1.0413  0.3647  0.2555
  487MOL0     N65661   7.338  10.866   9.661 -0.3817 -1.0473 -0.0165
  487MOL0     C65662   6.050  11.255   9.587 -0.6126  0.0435  0.5171
  487MOL0     C65663   5.911  11.229   9.566 -0.4250 -0.1595  1.0983
  487MOL0     C65664   5.522  11.027   9.528  0.1705 -0.0573  0.7030
  487MOL0     C65665   5.451  11.116   9.610 -0.4209 -0.5970  0.3243
  487MOL0     C65666   5.317  11.143   9.588  0.2559  0.0148  0.4866
  487MOL0     C65667   5.242  11.064   9.493  0.3054 -0.5528  0.4483
  487MOL0     O65668   5.107  11.095   9.477 -0.5803 -0.6268 -0.5466
  487MOL0     C65669   5.046  11.022   9.365  1.4077  0.1551 -0.1286
  487MOL0     C65670   4.914  11.089   9.331  0.7852 -0.9094  0.8190
  487MOL0     C65671   4.936  11.238   9.290  0.2308  0.3134  0.1136
  487MOL0     C65672   4.971  11.271   9.143 -0.5314 -0.0107 -0.0155
  487MOL0     C65673   4.923  11.186   9.035 -0.0827  0.2863  0.6037
  487MOL0     C65674   4.869  11.140   8.935 -0.1427 -0.1795  0.0147
  487MOL0     C65675   5.312  10.961   9.416 -0.0995 -0.9112 -0.1397
  487MOL0     C65676   5.455  10.949   9.427  0.0866 -0.5187 -0.0792
  487MOL0     C65677   5.519  10.867   9.329 -0.0619 -0.2118  0.4042
  487MOL0     H65678   5.894  10.938   9.746  2.0742 -0.7983  1.5620
  487MOL0     H65679   6.143  10.969   9.739  1.9230  2.0177 -0.2478
  487MOL0     H65680   6.323  11.303   9.535 -2.1058  1.2595 -0.6148
  487MOL0     H65681   6.275  11.371   9.689 -2.9388 -2.5291  3.3601
  487MOL0     H65682   6.487  11.302   9.803 -1.2473  1.8375 -1.2740
  487MOL0     H65683   6.529  11.365   9.650 -0.9603  2.3097  1.3297
  487MOL0     H65684   6.537  11.138   9.552  1.0507  3.4233  0.5820
  487MOL0     H65685   6.481  11.067   9.695  0.4704 -3.3022 -3.9960
  487MOL0     H65686   6.736  11.232   9.672 -1.2308  0.5343 -0.2524
  487MOL0     H65687   6.674  11.155   9.818  0.9760 -0.0552  0.0536
  487MOL0     H65688   6.707  10.931   9.717 -0.1855 -0.4315 -0.1090
  487MOL0     H65689   6.770  11.023   9.571  3.3361  0.3258  0.5517
  487MOL0     H65690   6.936  11.139   9.727 -0.4579  0.6859  3.4810
  487MOL0     H65691   6.904  11.015   9.848 -1.2140  1.3377  0.0916
  487MOL0     H65692   6.999  10.921   9.589 -1.1843  0.0670 -0.5933
  487MOL0     H65693   6.949  10.831   9.740  0.2096  0.7317  2.4435
  487MOL0     H65694   7.174  11.038   9.727  1.3385 -0.9369  0.0552
  487MOL0     H65695   7.128  10.941   9.871 -0.1407 -1.9391  0.8787
  487MOL0     H65696   7.160  10.658   9.830 -1.4841  1.2786 -0.2433
  487MOL0     H65697   7.346  10.475   9.851 -2.3099  0.2407 -0.5774
  487MOL0     H65698   7.382  10.464   9.681 -1.8673 -0.5286  1.1668
  487MOL0     H65699   7.576  10.600   9.877 -0.9301  0.2701  0.0551
  487MOL0     H65700   7.542  10.423   9.873 -1.9234 -1.0756 -2.2365
  487MOL0     H65701   7.609  10.578   9.615  0.2170 -0.5547 -0.7601
  487MOL0     H65702   7.647  10.406   9.638  0.5053  1.6773 -0.8225
  487MOL0     H65703   7.784  10.638   9.758 -0.8747  0.2729 -0.9401
  487MOL0     H65704   7.833  10.532   9.621 -1.7786 -1.1598 -0.5905
  487MOL0     H65705   8.025  10.616   9.781  0.9264 -0.4434 -2.8850
  487MOL0     H65706   8.275  10.565   9.769  1.4558 -1.7605 -1.4777
  487MOL0     H65707   8.646  10.384   9.864 -2.2995  1.6871 -0.6369
  487MOL0     H65708   8.887  10.312   9.839 -0.7373 -1.9246 -0.8285
  487MOL0     H65709   9.030  10.174   9.797 -1.0468  1.3321  0.1070
  487MOL0     H65710   9.055  10.054   9.681 -4.6433  0.4612 -0.9643
  487MOL0     H65711   9.216  10.317   9.722 -0.7235 -0.7022  0.1426
  487MOL0     H65712   9.274  10.158   9.771  0.3668  1.3402  0.3175
  487MOL0     H65713   9.317  10.065   9.568  0.6319  0.0969  1.7208
  487MOL0     H65714   9.223  10.197   9.476 -0.1085  0.3160  0.4893
  487MOL0     H65715   9.493  10.238   9.630 -0.9663 -2.4531  0.7218
  487MOL0     H65716   9.399  10.369   9.551 -0.9924 -0.1447  1.1570
  487MOL0     H65717   9.406  10.236   9.344  0.6341  3.1026  1.2586
  487MOL0     H65718   9.518  10.120   9.419 -0.2049  0.1428  3.5133
  487MOL0     H65719   9.635  10.273   9.272  2.3366  0.4410  1.0595
  487MOL0     H65720   9.584  10.416   9.347 -1.2178  0.0736  0.7891
  487MOL0     H65721   9.748  10.206   9.484  0.0769 -0.1471 -0.1786
  487MOL0     H65722   9.711  10.377   9.544 -0.6915  1.5919 -1.1625
  487MOL0     H65723   9.836  10.375   9.283 -2.7156  0.6990  0.1257
  487MOL0     H65724   9.860  10.475   9.429 -3.8015  0.4374  1.4467
  487MOL0     H65725   8.799  10.205   9.427  1.7830  0.4792  0.5717
  487MOL0     H65726   8.566  10.284   9.467  0.8429  2.1204 -0.6231
  487MOL0     H65727   8.184  10.150   9.833 -0.6848 -0.3109  2.0002
  487MOL0     H65728   7.947  10.197   9.831  0.7884 -0.1744  0.0254
  487MOL0     H65729   6.100  11.343   9.551  2.5724 -1.3253  1.2971
  487MOL0     H65730   5.846  11.297   9.511 -1.3601 -0.1876  2.1419
  487MOL0     H65731   5.507  11.174   9.682 -3.7284  1.7717  1.2308
  487MOL0     H65732   5.259  11.199   9.661 -2.5192 -2.9638  0.7462
  487MOL0     H65733   5.030  10.918   9.396  1.7167  0.6829  2.0062
  487MOL0     H65734   5.099  11.027   9.270 -0.1081  1.9333 -0.9144
  487MOL0     H65735   4.848  11.071   9.417 -0.9650  1.1696  0.0313
  487MOL0     H65736   4.864  11.039   9.247  0.7003 -0.1351  0.3992
  487MOL0     H65737   5.018  11.285   9.346 -0.4987  1.7511  0.0334
  487MOL0     H65738   4.844  11.291   9.320 -0.7205 -1.6809  0.9068
  487MOL0     H65739   4.937  11.371   9.118 -0.3912 -0.6266 -3.0970
  487MOL0     H65740   5.081  11.263   9.143 -0.6014 -1.3718 -0.7915
  487MOL0     H65741   4.812  11.122   8.846 -1.4292  2.4225  0.2375
  487MOL0     H65742   5.260  10.906   9.338 -0.2014  2.0119 -2.2892
  487MOL0     H65743   5.572  10.926   9.254 -1.1605 -0.8903 -0.9680
  487MOL0     H65744   5.588  10.795   9.373  1.9203  1.0490 -0.5258
  487MOL0     H65745   5.450  10.806   9.270 -0.9996  1.9185 -0.8232
  488MOL0     O65746   5.925   3.343   8.680 -0.4649  0.7102 -0.0626
  488MOL0     C65747   5.854   3.442   8.664  0.0684  0.2848  0.7472
  488MOL0     O65748   5.902   3.567   8.654 -0.5014  0.3056 -0.4475
  488MOL0     C65749   6.039   3.575   8.641  0.0410  0.5005 -0.6398
  488MOL0     C65750   6.104   3.591   8.515  0.5160  1.0132 -0.2224
  488MOL0     C65751   6.244   3.600   8.504  0.8994  0.8243  0.4782
  488MOL0     C65752   6.316   3.614   8.620  0.9190 -0.0846  0.1670
  488MOL0     O65753   6.450   3.636   8.621  0.0623  0.3453 -0.7678
  488MOL0     C65754   6.508   3.689   8.508  0.6249  0.2184  0.4480
  488MOL0     C65755   6.645   3.733   8.561 -0.1931  0.7185 -0.1448
  488MOL0     C65756   6.731   3.807   8.462 -0.4057 -0.0999  0.2790
  488MOL0     C65757   6.873   3.835   8.522  0.5302  0.0942  0.2739
  488MOL0     C65758   6.962   3.925   8.433 -0.7061  0.0305 -0.1570
  488MOL0     C65759   7.104   3.894   8.457  0.1376  0.7152  0.2578
  488MOL0     C65760   7.197   3.998   8.421  0.6605 -0.7825  1.1423
  488MOL0     C65761   7.334   3.977   8.486  0.1932  0.8699  0.1376
  488MOL0     N65762   7.429   4.074   8.442  0.0155 -0.5028  0.2013
  488MOL0     C65763   7.465   4.182   8.514 -0.1470  0.3619 -0.0197
  488MOL0     C65764   7.561   4.242   8.436  0.3378 -0.5635 -0.2234
  488MOL0     C65765   7.637   4.361   8.479 -0.8917 -0.0396 -0.7945
  488MOL0     C65766   7.774   4.322   8.536 -0.0643 -0.2706 -0.4110
  488MOL0     C65767   7.763   4.266   8.686  0.0278 -0.2056 -0.7994
  488MOL0     C65768   7.905   4.229   8.735  0.2222 -0.8019 -0.2002
  488MOL0     O65769   8.001   4.336   8.713 -0.3097 -0.1018 -0.0532
  488MOL0     C65770   8.130   4.304   8.754 -0.9753  0.6703 -0.2849
  488MOL0     C65771   8.235   4.388   8.719  0.0293  0.0571 -0.5910
  488MOL0     C65772   8.375   4.370   8.755  0.1897 -0.7672  0.7343
  488MOL0     C65773   8.414   4.252   8.819  0.7158 -0.7290 -0.3052
  488MOL0     C65774   8.544   4.229   8.872 -0.1965  0.3229 -1.2230
  488MOL0     O65775   8.644   4.316   8.851 -0.2520  0.1941  0.1848
  488MOL0     C65776   8.779   4.299   8.879 -0.5562  0.9603 -1.0481
  488MOL0     C65777   8.835   4.239   8.997  1.0982  0.2570  0.0493
  488MOL0     C65778   8.967   4.220   9.027  0.1171  0.6070 -0.5740
  488MOL0     C65779   9.056   4.286   8.941 -1.0490 -1.0924  0.1740
  488MOL0     O65780   9.191   4.273   8.966  0.0224  0.0517  0.4681
  488MOL0     C65781   9.269   4.386   8.940 -0.0362 -0.8491  0.9658
  488MOL0     C65782   9.404   4.378   9.019 -0.6486 -0.4499 -0.0305
  488MOL0     C65783   9.495   4.506   9.001 -0.5873 -0.2731  0.3928
  488MOL0     C65784   9.578   4.500   8.871 -0.2263 -1.2236  0.5696
  488MOL0     C65785   9.679   4.607   8.865 -0.4710  0.2510 -0.8941
  488MOL0     C65786   9.634   4.750   8.843 -0.7779 -0.8498 -0.2322
  488MOL0     C65787   9.734   4.856   8.804 -0.2771  0.5139  0.8498
  488MOL0     C65788   9.706   4.949   8.684  1.0127 -0.0557  0.0223
  488MOL0    Cl65789   9.539   5.024   8.709  0.0103  0.1141 -0.1370
  488MOL0     C65790   9.017   4.343   8.821  0.1307  0.1381 -0.4320
  488MOL0     C65791   8.878   4.345   8.795 -1.1059  0.2233  0.2400
  488MOL0     O65792   8.566   4.121   8.931 -0.2295 -0.2416 -0.2293
  488MOL0     C65793   8.317   4.164   8.841 -0.4358  1.0952  0.2282
  488MOL0     C65794   8.177   4.184   8.807 -0.4988  0.6792  0.6438
  488MOL0     N65795   7.589   4.168   8.327  0.2734  0.5751  0.3224
  488MOL0     N65796   7.514   4.069   8.331 -0.4289  0.1558 -0.2579
  488MOL0     C65797   6.251   3.614   8.741  0.0646  0.3466 -0.5897
  488MOL0     C65798   6.112   3.585   8.754 -0.3647 -0.2903 -0.8322
  488MOL0     C65799   5.707   3.426   8.640  1.2146  0.7682 -0.0281
  488MOL0     C65800   5.635   3.526   8.564 -1.3452  0.1913 -0.5126
  488MOL0     C65801   5.502   3.523   8.539 -0.0271 -0.0020 -0.9983
  488MOL0     C65802   5.429   3.412   8.584 -0.6747  0.6877 -0.4515
  488MOL0     O65803   5.294   3.392   8.559 -0.5485  0.6418 -0.2584
  488MOL0     C65804   5.207   3.500   8.570  0.1538 -0.4607 -0.1349
  488MOL0     C65805   5.064   3.440   8.553  0.0072  0.1878 -0.3129
  488MOL0     C65806   5.045   3.377   8.419 -0.0024  0.1756  0.7228
  488MOL0     C65807   5.080   3.451   8.292  0.7211  0.0598  0.5298
  488MOL0     C65808   5.032   3.589   8.291  0.3132  0.1676 -0.1798
  488MOL0     C65809   4.986   3.702   8.295 -0.8386 -0.2387 -0.4996
  488MOL0     C65810   5.490   3.317   8.654 -0.1669  0.5580  0.4016
  488MOL0     C65811   5.629   3.317   8.682  0.3437  0.2128 -0.2336
  488MOL0     C65812   5.693   3.193   8.731  0.0400  0.6599  0.4166
  488MOL0     H65813   6.037   3.586   8.430  0.3804  0.2717 -0.0841
  488MOL0     H65814   6.290   3.601   8.406  3.0836  2.6016  1.4206
  488MOL0     H65815   6.512   3.614   8.429  2.2384  0.9990 -0.2561
  488MOL0     H65816   6.453   3.777   8.475  0.9828 -0.0635 -0.9416
  488MOL0     H65817   6.708   3.645   8.578 -0.2317  0.9489  1.2556
  488MOL0     H65818   6.633   3.789   8.654 -1.5021 -1.2367  0.9453
  488MOL0     H65819   6.678   3.893   8.419  1.0136  0.5848 -0.1664
  488MOL0     H65820   6.750   3.740   8.378 -5.7177  1.0289 -2.2250
  488MOL0     H65821   6.856   3.885   8.617  0.3446 -1.6706  1.2053
  488MOL0     H65822   6.924   3.739   8.535  0.1066 -0.0855  0.6367
  488MOL0     H65823   6.939   3.919   8.327 -0.2644 -0.0052 -0.2526
  488MOL0     H65824   6.947   4.026   8.471 -1.2423 -0.2545  0.4052
  488MOL0     H65825   7.121   3.862   8.560  0.0294 -2.7922 -0.6641
  488MOL0     H65826   7.126   3.807   8.394 -0.3204  0.0872  0.9588
  488MOL0     H65827   7.160   4.091   8.464  1.7151  0.3883 -0.3444
  488MOL0     H65828   7.206   3.996   8.312 -0.1216  2.6254  0.9120
  488MOL0     H65829   7.327   3.979   8.595  0.8372 -2.0113  0.3004
  488MOL0     H65830   7.373   3.883   8.447  2.0829  1.2713  0.9978
  488MOL0     H65831   7.425   4.229   8.603  1.8487 -0.0219  1.1344
  488MOL0     H65832   7.653   4.431   8.397 -2.1320 -1.4373 -2.3029
  488MOL0     H65833   7.585   4.412   8.560  1.3244 -0.0544  0.7403
  488MOL0     H65834   7.812   4.250   8.463 -4.1292 -1.5926 -1.5322
  488MOL0     H65835   7.839   4.410   8.531 -0.5579  0.1663  0.5059
  488MOL0     H65836   7.696   4.180   8.690 -1.6049  1.0705  1.5808
  488MOL0     H65837   7.725   4.342   8.754 -1.4450 -1.1971 -0.4883
  488MOL0     H65838   7.934   4.140   8.678 -2.0520 -2.5197  1.1506
  488MOL0     H65839   7.906   4.206   8.842  0.9672  1.1594  0.2463
  488MOL0     H65840   8.204   4.488   8.692 -0.9405 -0.0508  0.0757
  488MOL0     H65841   8.446   4.451   8.743  2.5256 -2.2813  3.1798
  488MOL0     H65842   8.763   4.202   9.069 -0.2518 -0.7640 -1.7438
  488MOL0     H65843   9.003   4.158   9.109  2.0647  0.7649 -1.2423
  488MOL0     H65844   9.276   4.372   8.832 -3.7421 -2.2398  0.7406
  488MOL0     H65845   9.228   4.483   8.969 -1.1415 -0.8847 -0.3941
  488MOL0     H65846   9.394   4.356   9.126  3.1941 -3.1332 -0.0227
  488MOL0     H65847   9.456   4.292   8.975 -0.0699 -0.2512  0.2507
  488MOL0     H65848   9.441   4.600   9.007 -1.5822 -0.8592  0.8946
  488MOL0     H65849   9.568   4.505   9.083 -0.5240  0.9136  0.3605
  488MOL0     H65850   9.512   4.503   8.784  1.1618  0.1765 -0.4831
  488MOL0     H65851   9.647   4.415   8.870  1.0328 -0.2412  0.4170
  488MOL0     H65852   9.737   4.582   8.776  0.0807  2.7843 -1.3028
  488MOL0     H65853   9.744   4.594   8.952  2.9366 -2.7415 -3.5909
  488MOL0     H65854   9.562   4.747   8.761  0.6111 -1.1152 -1.4874
  488MOL0     H65855   9.590   4.791   8.934 -3.2546  1.7436 -2.3933
  488MOL0     H65856   9.831   4.807   8.786 -0.1134  0.8564  0.7959
  488MOL0     H65857   9.760   4.923   8.886 -1.1221  0.9820  0.7467
  488MOL0     H65858   9.785   5.024   8.677 -0.0311  0.9012 -4.1415
  488MOL0     H65859   9.711   4.892   8.591  1.4399 -0.1136  0.0767
  488MOL0     H65860   9.076   4.372   8.734 -1.5474 -1.6902 -2.3139
  488MOL0     H65861   8.850   4.396   8.704  0.6073  0.8695  0.0350
  488MOL0     H65862   8.334   4.082   8.910  0.3625  2.5984  1.8997
  488MOL0     H65863   8.112   4.104   8.842  2.5922 -1.2886  2.3543
  488MOL0     H65864   6.305   3.635   8.833 -1.6970 -0.2643  0.6424
  488MOL0     H65865   6.071   3.581   8.854  1.9572  0.8057  0.2395
  488MOL0     H65866   5.700   3.612   8.548  0.3671 -0.6774  1.3148
  488MOL0     H65867   5.440   3.606   8.507 -2.4023  0.0125  2.9304
  488MOL0     H65868   5.225   3.576   8.494 -1.8027  0.1415 -0.0675
  488MOL0     H65869   5.222   3.546   8.669 -0.9955  0.6492 -0.4527
  488MOL0     H65870   5.006   3.532   8.566 -2.1456 -0.9828 -1.1416
  488MOL0     H65871   5.046   3.374   8.638 -1.6788 -0.1363 -0.8766
  488MOL0     H65872   4.937   3.368   8.410 -0.1538  3.1821 -5.5221
  488MOL0     H65873   5.079   3.273   8.420  0.0244  0.1086 -1.6326
  488MOL0     H65874   5.189   3.455   8.283  0.7741 -2.7195 -1.4315
  488MOL0     H65875   5.054   3.396   8.201 -2.1213 -1.8695  2.3326
  488MOL0     H65876   4.948   3.799   8.315 -2.2042 -0.6470 -1.0162
  488MOL0     H65877   5.428   3.236   8.691 -0.1620  0.3531 -0.0330
  488MOL0     H65878   5.729   3.132   8.648  0.8428 -0.6443  1.6774
  488MOL0     H65879   5.771   3.205   8.806 -2.5358  4.2799  2.8424
  488MOL0     H65880   5.622   3.139   8.795  0.2588 -1.6447 -1.1673
  489MOL0     O65881  10.550   3.733   6.039 -0.2538 -0.7745  0.3528
  489MOL0     C65882  10.482   3.761   5.937  0.4536  0.1412  0.3267
  489MOL0     O65883  10.537   3.783   5.813  0.0436 -0.4203 -0.2338
  489MOL0     C65884  10.660   3.726   5.792  0.4503  0.0582 -0.4480
  489MOL0     C65885  10.776   3.808   5.805  0.1496  0.5301  1.2772
  489MOL0     C65886  10.901   3.759   5.773  0.1294  1.3648  0.0436
  489MOL0     C65887  10.922   3.622   5.749 -0.7403  0.1012 -0.4689
  489MOL0     O65888  11.040   3.553   5.748  0.2485 -0.2820  0.2941
  489MOL0     C65889  11.161   3.616   5.783  0.1203  0.9021 -0.0098
  489MOL0     C65890  11.234   3.665   5.655 -0.1487 -0.7264 -0.3792
  489MOL0     C65891  11.322   3.790   5.692 -0.7401 -0.1700  0.2788
  489MOL0     C65892  11.381   3.850   5.563 -0.1422  0.1652  0.2021
  489MOL0     C65893  11.480   3.754   5.486  0.2898  0.0109  0.1667
  489MOL0     C65894  11.617   3.752   5.566  0.1806  0.5051  0.0909
  489MOL0     C65895  11.717   3.653   5.503  0.5743 -0.0440  0.1256
  489MOL0     C65896  11.745   3.686   5.357 -0.2107  0.4072  0.2657
  489MOL0     N65897  11.882   3.650   5.321 -0.1852 -0.4051 -0.0159
  489MOL0     C65898  11.940   3.521   5.293 -0.6140 -0.1607 -0.2015
  489MOL0     C65899  12.057   3.549   5.234 -0.2100  0.5245  0.4542
  489MOL0     C65900  12.155   3.441   5.194 -0.5749  0.7008  0.4031
  489MOL0     C65901  12.116   3.367   5.063  0.4919 -1.0555 -0.3374
  489MOL0     C65902  12.156   3.224   5.071 -0.1073  0.5473 -0.5707
  489MOL0     C65903  12.180   3.148   4.945  0.2477  0.1912  0.4381
  489MOL0     O65904  12.275   3.208   4.852  0.3142  0.2306  0.0622
  489MOL0     C65905  12.412   3.194   4.865  0.3881  0.5413  0.5939
  489MOL0     C65906  12.476   3.143   4.977 -0.9286  0.7974 -0.0688
  489MOL0     C65907  12.617   3.126   4.980  0.4520  0.3215 -0.2750
  489MOL0     C65908  12.698   3.160   4.872  0.0594  0.6015 -0.0581
  489MOL0     C65909  12.844   3.151   4.875 -0.0874 -0.1498  0.2027
  489MOL0     O65910  12.916   3.219   4.777  0.6752  0.2505 -0.5423
  489MOL0     C65911  13.053   3.227   4.785  0.6797  0.6466  0.5904
  489MOL0     C65912  13.125   3.183   4.671 -0.8461  0.0040 -0.6430
  489MOL0     C65913  13.268   3.185   4.666  0.4719  0.2597 -0.0476
  489MOL0     C65914  13.333   3.240   4.779 -0.7837 -0.3399  0.7094
  489MOL0     O65915  13.469   3.255   4.764 -0.3973 -0.4424  0.2959
  489MOL0     C65916  13.547   3.324   4.860 -0.6461 -0.4625 -0.1555
  489MOL0     C65917  13.693   3.340   4.818  1.0201  0.5180  0.2736
  489MOL0     C65918  13.769   3.433   4.914 -1.5618  0.1578  0.2295
  489MOL0     C65919  13.910   3.463   4.855 -0.8331  0.6263  0.4100
  489MOL0     C65920  13.968   3.600   4.901 -0.2719 -0.4719 -0.1362
  489MOL0     C65921  13.990   3.606   5.051 -0.3348 -0.0317  0.3163
  489MOL0     C65922  14.063   3.736   5.088  0.5797 -0.6372 -0.5870
  489MOL0     C65923  14.210   3.719   5.125  1.3563 -0.2845 -0.2939
  489MOL0    Cl65924  14.268   3.853   5.224  0.3992 -0.5332  0.2281
  489MOL0     C65925  13.256   3.273   4.896 -0.1637  0.2851 -0.6746
  489MOL0     C65926  13.121   3.264   4.903 -0.2371  0.3483 -0.0111
  489MOL0     O65927  12.896   3.079   4.959 -0.1130 -0.1058  0.2664
  489MOL0     C65928  12.635   3.220   4.766 -0.6587  0.1172 -0.0061
  489MOL0     C65929  12.495   3.235   4.762 -0.6742  0.8895  0.5911
  489MOL0     N65930  12.073   3.685   5.226 -0.9049 -0.3068  0.5218
  489MOL0     N65931  11.972   3.741   5.279  0.0958  0.0762  0.9009
  489MOL0     C65932  10.809   3.538   5.727 -0.8252 -0.6412 -0.1798
  489MOL0     C65933  10.676   3.593   5.745 -0.1446  0.0511 -0.5818
  489MOL0     C65934  10.336   3.788   5.952 -0.2285 -0.0751 -0.0606
  489MOL0     C65935  10.261   3.792   5.837  0.3573  0.1394  0.3063
  489MOL0     C65936  10.126   3.813   5.843  0.4118 -0.8055 -0.4460
  489MOL0     C65937  10.058   3.850   5.966 -0.5453 -0.3102 -0.7289
  489MOL0     O65938   9.919   3.886   5.969 -0.2869 -0.0400 -0.5729
  489MOL0     C65939   9.860   3.933   5.851  0.7782  0.2784  0.7659
  489MOL0     C65940   9.728   4.015   5.884 -0.2883  0.3632 -0.1873
  489MOL0     C65941   9.756   4.164   5.923 -0.1333  0.8382  0.5207
  489MOL0     C65942   9.640   4.223   6.005  0.1523  0.4698 -0.0148
  489MOL0     C65943   9.519   4.240   5.922 -0.9313 -0.2798 -0.0686
  489MOL0     C65944   9.415   4.243   5.857 -0.3193 -0.8892  1.0734
  489MOL0     C65945  10.139   3.844   6.080  0.4964 -0.6408  1.3281
  489MOL0     C65946  10.273   3.817   6.072  1.0595  0.4605 -0.2854
  489MOL0     C65947  10.328   3.829   6.209  0.0851  0.4996 -0.6519
  489MOL0     H65948  10.775   3.909   5.845 -0.0437 -0.6708  4.6234
  489MOL0     H65949  10.983   3.829   5.790  1.9907 -0.8330  0.6480
  489MOL0     H65950  11.138   3.703   5.846 -1.6529  0.5339 -0.0994
  489MOL0     H65951  11.228   3.552   5.840 -2.4241 -0.8795  1.1410
  489MOL0     H65952  11.161   3.705   5.584  1.2854  3.3077  0.1434
  489MOL0     H65953  11.296   3.584   5.615 -0.1027 -0.3785 -1.0325
  489MOL0     H65954  11.403   3.752   5.755 -0.0192 -1.2109 -1.1921
  489MOL0     H65955  11.264   3.863   5.749 -1.1643 -0.4869  0.2603
  489MOL0     H65956  11.298   3.887   5.502  0.4490  0.8696 -0.1898
  489MOL0     H65957  11.439   3.938   5.591  0.6728  0.0521 -1.0489
  489MOL0     H65958  11.444   3.652   5.467  2.8477 -0.3262 -4.1284
  489MOL0     H65959  11.494   3.787   5.383 -5.7603 -0.8127 -1.3216
  489MOL0     H65960  11.673   3.845   5.555 -0.0877  0.5753 -0.7743
  489MOL0     H65961  11.589   3.720   5.666 -3.7829  3.8262  0.2997
  489MOL0     H65962  11.682   3.549   5.506 -2.5959  0.9212  0.0153
  489MOL0     H65963  11.812   3.657   5.557  1.0551  0.2865 -0.7379
  489MOL0     H65964  11.685   3.628   5.285  2.6772 -1.0003 -1.1822
  489MOL0     H65965  11.728   3.791   5.330 -3.2019  0.2664  1.2504
  489MOL0     H65966  11.900   3.423   5.316 -0.9091 -0.3546 -1.4286
  489MOL0     H65967  12.259   3.470   5.176  0.5863 -3.6070 -1.2100
  489MOL0     H65968  12.154   3.364   5.272  5.1063  0.2281  0.4701
  489MOL0     H65969  12.008   3.377   5.046  0.7653 -0.3077 -1.8122
  489MOL0     H65970  12.159   3.415   4.974  0.3761 -1.1237 -0.4314
  489MOL0     H65971  12.077   3.169   5.123 -1.1345  0.2062 -2.4002
  489MOL0     H65972  12.245   3.209   5.133 -1.6509 -0.3827  1.5696
  489MOL0     H65973  12.083   3.137   4.896 -0.5444  2.5350  1.3617
  489MOL0     H65974  12.209   3.045   4.969 -2.3026 -1.6102 -3.2940
  489MOL0     H65975  12.419   3.095   5.055  0.9353 -0.1127  0.7999
  489MOL0     H65976  12.656   3.071   5.064 -1.0830 -1.2882 -0.5562
  489MOL0     H65977  13.072   3.137   4.588 -0.2784 -3.2226  0.6037
  489MOL0     H65978  13.313   3.149   4.574 -0.1936  1.1820 -0.7524
  489MOL0     H65979  13.516   3.428   4.873  2.7521  0.4989  1.4415
  489MOL0     H65980  13.540   3.270   4.955  0.6735  0.3182  0.4036
  489MOL0     H65981  13.723   3.235   4.820 -0.9718 -0.1022  1.7815
  489MOL0     H65982  13.695   3.379   4.716 -0.5256 -1.2329 -0.4833
  489MOL0     H65983  13.717   3.529   4.916  1.4297  1.9538 -0.9345
  489MOL0     H65984  13.779   3.403   5.018  0.1367 -0.9685 -0.2070
  489MOL0     H65985  13.902   3.452   4.747  0.1645 -2.7006  0.5718
  489MOL0     H65986  13.981   3.391   4.896 -0.5193 -0.3255 -1.7067
  489MOL0     H65987  13.894   3.677   4.879 -3.0769 -3.2259 -1.0394
  489MOL0     H65988  14.053   3.622   4.835 -1.1745 -1.6091 -1.7198
  489MOL0     H65989  13.890   3.601   5.096 -0.4430 -2.1389 -0.0548
  489MOL0     H65990  14.058   3.525   5.076  1.1958  1.2987  0.6270
  489MOL0     H65991  14.008   3.786   5.168 -0.7369  0.5049 -2.1367
  489MOL0     H65992  14.056   3.809   5.007 -0.1874 -0.2809 -0.2097
  489MOL0     H65993  14.219   3.632   5.191  0.9609 -1.0365 -1.2152
  489MOL0     H65994  14.273   3.696   5.039  0.1274 -3.7353 -0.4242
  489MOL0     H65995  13.313   3.310   4.981 -0.6868  0.7229 -0.5045
  489MOL0     H65996  13.061   3.287   4.990 -1.5227 -0.0456 -0.7623
  489MOL0     H65997  12.696   3.230   4.677  2.2370  0.3047  1.8626
  489MOL0     H65998  12.449   3.276   4.673 -1.5785 -0.2299  0.5056
  489MOL0     H65999  10.826   3.437   5.692 -0.7770  0.0029 -2.1644
  489MOL0     H66000  10.597   3.519   5.733  0.4877 -0.5824 -0.9116
  489MOL0     H66001  10.301   3.764   5.741 -2.2850 -3.1214 -0.0226
  489MOL0     H66002  10.056   3.812   5.760 -2.0287 -2.1020  1.4868
  489MOL0     H66003   9.834   3.843   5.794  1.4957 -0.8636  2.1732
  489MOL0     H66004   9.923   3.999   5.790  1.9573 -1.1515  0.3752
  489MOL0     H66005   9.676   3.961   5.963  0.4831  1.5453  1.1810
  489MOL0     H66006   9.657   4.010   5.801  0.3922  2.2017 -0.9416
  489MOL0     H66007   9.768   4.221   5.831 -0.2036 -2.1476 -1.4792
  489MOL0     H66008   9.849   4.170   5.980 -0.5262 -1.8415  1.5790
  489MOL0     H66009   9.624   4.161   6.093 -0.5127  0.5106 -0.1056
  489MOL0     H66010   9.661   4.325   6.040  1.3418  0.2115  0.0519
  489MOL0     H66011   9.326   4.250   5.798  1.3251 -0.6344 -1.5299
  489MOL0     H66012  10.093   3.878   6.173 -1.0232  0.0049  0.3757
  489MOL0     H66013  10.432   3.861   6.197  2.0756 -4.7376  0.0180
  489MOL0     H66014  10.283   3.893   6.285 -0.3178 -2.7546  2.1215
  489MOL0     H66015  10.341   3.735   6.263  2.0776  1.8682  1.4483
  490MOL0     O66016   8.677   1.435   1.320  0.3529  0.3398  0.0884
  490MOL0     C66017   8.595   1.477   1.402  0.2991 -0.4030 -0.6157
  490MOL0     O66018   8.616   1.577   1.490  0.0428  0.1625  0.2847
  490MOL0     C66019   8.737   1.645   1.518 -0.6493  0.1060  0.6056
  490MOL0     C66020   8.734   1.770   1.585  0.2132  0.0174  1.5330
  490MOL0     C66021   8.854   1.837   1.615  0.0493  0.3657 -0.2421
  490MOL0     C66022   8.986   1.776   1.594  0.6621 -1.3011  1.0779
  490MOL0     O66023   9.092   1.841   1.641 -0.5566  0.0568  0.0324
  490MOL0     C66024   9.216   1.762   1.664  0.3399 -0.8520  0.7462
  490MOL0     C66025   9.311   1.848   1.746  0.1712 -0.3009  0.5897
  490MOL0     C66026   9.438   1.764   1.772  0.2667  0.3032 -0.2922
  490MOL0     C66027   9.542   1.845   1.852 -0.2097  0.2809 -0.1102
  490MOL0     C66028   9.665   1.764   1.893  0.9441  0.4601 -0.2591
  490MOL0     C66029   9.761   1.845   1.976 -0.6448 -0.7427  0.4998
  490MOL0     C66030   9.810   1.976   1.909  0.6198  0.8063 -0.6514
  490MOL0     C66031   9.903   2.065   1.999  0.0170 -0.2091 -0.1683
  490MOL0     N66032  10.027   1.996   2.023  0.4723 -0.0715 -0.1848
  490MOL0     C66033  10.122   1.986   1.925  0.3020 -0.3981  0.5146
  490MOL0     C66034  10.207   1.896   1.972 -0.0813  0.3865  0.4561
  490MOL0     C66035  10.339   1.840   1.912 -0.8384  0.1488 -0.0147
  490MOL0     C66036  10.460   1.928   1.972 -0.7854  0.2639  0.7474
  490MOL0     C66037  10.596   1.855   1.945 -0.2155  0.3305  0.4151
  490MOL0     C66038  10.716   1.915   2.026 -0.0976  0.4121  0.5687
  490MOL0     O66039  10.826   1.824   2.014  0.1083 -0.3025 -0.6250
  490MOL0     C66040  10.949   1.867   2.084 -0.2312  1.1493 -0.5001
  490MOL0     C66041  10.959   1.964   2.184  1.2055  0.1396 -0.0591
  490MOL0     C66042  11.079   1.985   2.255 -0.1955  0.4298  0.3783
  490MOL0     C66043  11.202   1.917   2.219  0.0892  0.6107  0.5390
  490MOL0     C66044  11.323   1.935   2.302 -0.2136 -0.1467  0.5254
  490MOL0     O66045  11.437   1.879   2.240 -0.1406  0.1674 -0.2335
  490MOL0     C66046  11.557   1.877   2.305 -0.6590  0.5867 -0.0321
  490MOL0     C66047  11.661   1.961   2.256  0.6547 -0.0938  0.3379
  490MOL0     C66048  11.782   1.985   2.325 -0.5089  0.2629 -0.6035
  490MOL0     C66049  11.791   1.926   2.448 -0.3577 -0.8450  0.0460
  490MOL0     O66050  11.899   1.953   2.526 -0.6230  0.6398  0.2162
  490MOL0     C66051  12.030   1.920   2.467  0.2298  0.4563 -0.1821
  490MOL0     C66052  12.138   1.908   2.574 -0.8932 -0.3979  0.0382
  490MOL0     C66053  12.132   1.781   2.654 -0.1544 -0.7788  0.6596
  490MOL0     C66054  12.229   1.785   2.779 -1.0823  0.4392 -0.2439
  490MOL0     C66055  12.378   1.772   2.725 -0.1737  0.2153 -0.9084
  490MOL0     C66056  12.465   1.778   2.847  0.3865 -0.4750  0.6993
  490MOL0     C66057  12.617   1.784   2.806 -0.0076 -0.2532  1.0647
  490MOL0     C66058  12.708   1.776   2.934  0.0518  0.2243  0.4983
  490MOL0    Cl66059  12.666   1.897   3.050 -0.3121  0.3077  0.3264
  490MOL0     C66060  11.694   1.837   2.491  0.1457 -0.0911 -0.3683
  490MOL0     C66061  11.576   1.813   2.426  0.3067 -0.4455  0.4345
  490MOL0     O66062  11.322   1.996   2.411 -0.0069 -0.8712 -0.0522
  490MOL0     C66063  11.188   1.815   2.121 -0.1421 -0.4058 -0.0332
  490MOL0     C66064  11.067   1.790   2.054  0.0657  0.4716 -0.0261
  490MOL0     N66065  10.156   1.842   2.096 -0.3325 -0.9743 -0.5733
  490MOL0     N66066  10.057   1.906   2.123  0.0895 -0.2871  0.1501
  490MOL0     C66067   8.980   1.657   1.520 -0.2478 -0.1279 -0.5902
  490MOL0     C66068   8.863   1.594   1.480 -0.0583  0.4161 -0.9114
  490MOL0     C66069   8.451   1.442   1.375  0.8517  0.5625  0.0660
  490MOL0     C66070   8.345   1.516   1.423 -0.1355  0.5718 -0.6353
  490MOL0     C66071   8.213   1.476   1.426 -0.1341 -0.2896 -0.2420
  490MOL0     C66072   8.183   1.357   1.349  0.4319  0.0280 -0.5884
  490MOL0     O66073   8.049   1.320   1.351  0.4545 -0.2219 -0.1973
  490MOL0     C66074   8.003   1.247   1.229 -0.3998 -0.1725 -0.4275
  490MOL0     C66075   7.857   1.212   1.227  0.0096  1.0485  0.0205
  490MOL0     C66076   7.768   1.337   1.218  0.1878  0.4347  0.5764
  490MOL0     C66077   7.619   1.291   1.206  0.1467  0.0687 -0.4327
  490MOL0     C66078   7.569   1.229   1.331  1.1550  0.9935  0.8179
  490MOL0     C66079   7.509   1.176   1.427  0.3819  0.7904  0.5472
  490MOL0     C66080   8.281   1.306   1.268  0.2171  0.1025 -0.2860
  490MOL0     C66081   8.417   1.333   1.296  0.7924 -0.1288 -0.3282
  490MOL0     C66082   8.514   1.223   1.241  0.5814  0.1331 -1.2026
  490MOL0     H66083   8.632   1.806   1.600 -0.5370  0.1761 -2.6361
  490MOL0     H66084   8.846   1.929   1.672  3.7891  0.4016  0.4949
  490MOL0     H66085   9.186   1.676   1.724 -1.1617 -2.0945 -1.6534
  490MOL0     H66086   9.264   1.722   1.575  0.4803 -0.0295  0.4371
  490MOL0     H66087   9.263   1.873   1.841 -4.2627  0.9490 -1.7036
  490MOL0     H66088   9.321   1.942   1.691 -2.5734 -0.0791  0.3416
  490MOL0     H66089   9.487   1.735   1.679  1.0729  1.2435 -0.1705
  490MOL0     H66090   9.408   1.678   1.833  0.4828 -1.0993 -2.0650
  490MOL0     H66091   9.571   1.927   1.787  0.7449  2.0331  2.3739
  490MOL0     H66092   9.491   1.889   1.938 -0.3950 -0.1073 -0.0144
  490MOL0     H66093   9.634   1.675   1.948 -1.1800  2.3089  1.7560
  490MOL0     H66094   9.722   1.737   1.804 -0.4350 -2.2132 -0.4251
  490MOL0     H66095   9.713   1.871   2.071  0.4708 -0.5727  1.0379
  490MOL0     H66096   9.850   1.783   1.996  1.2029  1.5346 -0.1954
  490MOL0     H66097   9.720   2.033   1.884  0.2186  0.7635  0.6266
  490MOL0     H66098   9.865   1.944   1.820 -1.6067  2.0651 -2.6000
  490MOL0     H66099   9.922   2.162   1.953 -1.9733  0.3599  0.1090
  490MOL0     H66100   9.857   2.085   2.096 -1.2893  1.2576 -1.0518
  490MOL0     H66101  10.128   2.036   1.829 -1.1834  0.3980  0.8248
  490MOL0     H66102  10.341   1.736   1.946 -2.1639 -0.5699 -1.9349
  490MOL0     H66103  10.321   1.852   1.805 -1.4677 -0.6289 -0.0039
  490MOL0     H66104  10.466   2.030   1.932 -0.4079  0.0367  0.2199
  490MOL0     H66105  10.431   1.937   2.078 -1.5671 -0.7804  0.6383
  490MOL0     H66106  10.603   1.870   1.837  2.5281 -1.7892  0.1969
  490MOL0     H66107  10.588   1.748   1.962 -0.1853  0.3757  0.7176
  490MOL0     H66108  10.694   1.938   2.131  1.7334  1.4331  0.7631
  490MOL0     H66109  10.729   2.014   1.983 -1.1241  0.4244  0.2588
  490MOL0     H66110  10.874   2.022   2.220  1.1741 -1.4063  2.5663
  490MOL0     H66111  11.090   2.058   2.335 -3.0139 -1.6446  2.8560
  490MOL0     H66112  11.633   2.017   2.167 -2.6452 -0.2378  1.1323
  490MOL0     H66113  11.860   2.044   2.277  0.4027 -0.1062  0.4115
  490MOL0     H66114  12.021   1.826   2.411 -3.6655 -0.1085  1.0664
  490MOL0     H66115  12.057   2.004   2.402 -3.3484  1.4223 -0.6480
  490MOL0     H66116  12.234   1.927   2.526 -1.1220 -0.9909 -0.6716
  490MOL0     H66117  12.133   1.990   2.646 -0.5562  0.2129 -0.6205
  490MOL0     H66118  12.031   1.776   2.695 -0.1237  0.4559  0.9407
  490MOL0     H66119  12.148   1.702   2.580 -0.6600 -0.3107  0.0412
  490MOL0     H66120  12.212   1.702   2.847  0.1594 -1.8669 -2.5388
  490MOL0     H66121  12.215   1.882   2.828 -1.5481  0.4451 -0.3847
  490MOL0     H66122  12.412   1.855   2.663 -0.9447  0.4783 -0.9948
  490MOL0     H66123  12.386   1.676   2.674  0.6027 -0.5686  0.6235
  490MOL0     H66124  12.447   1.873   2.899  1.7328  1.4330 -2.0604
  490MOL0     H66125  12.443   1.695   2.914  3.6103  0.7129  3.5139
  490MOL0     H66126  12.639   1.880   2.760  1.6448 -0.9356  0.3733
  490MOL0     H66127  12.623   1.699   2.737 -3.0471 -1.7495  2.4184
  490MOL0     H66128  12.693   1.676   2.974  2.4314 -1.5221 -2.5232
  490MOL0     H66129  12.809   1.799   2.896 -0.6925 -0.1078 -1.8459
  490MOL0     H66130  11.711   1.787   2.586 -0.3538  1.0544  0.3498
  490MOL0     H66131  11.501   1.747   2.469 -0.4441  0.5249  0.6536
  490MOL0     H66132  11.270   1.747   2.100  0.4120 -0.7706  2.9482
  490MOL0     H66133  11.071   1.712   1.979  0.9228 -0.9835  1.4659
  490MOL0     H66134   9.078   1.615   1.498 -0.7610 -0.6372 -1.9949
  490MOL0     H66135   8.881   1.499   1.432 -0.7368 -1.0050  1.4876
  490MOL0     H66136   8.378   1.603   1.479  0.0292  0.6629 -0.8704
  490MOL0     H66137   8.137   1.524   1.488 -0.4310 -2.0431  0.8335
  490MOL0     H66138   8.056   1.152   1.215 -1.1141 -0.6788  0.2541
  490MOL0     H66139   8.025   1.310   1.142 -3.9805 -1.5409 -2.5202
  490MOL0     H66140   7.839   1.146   1.312 -2.2699  0.9068 -0.4885
  490MOL0     H66141   7.848   1.150   1.137  1.7439  1.1733 -0.2725
  490MOL0     H66142   7.794   1.399   1.132 -0.3711 -2.0048 -1.4998
  490MOL0     H66143   7.790   1.381   1.316  0.8756 -1.7524  1.4810
  490MOL0     H66144   7.563   1.382   1.186  0.8534  0.0074 -3.1044
  490MOL0     H66145   7.608   1.215   1.127 -1.6239 -0.1518 -0.0094
  490MOL0     H66146   7.474   1.111   1.505 -2.8795  0.9069 -0.6917
  490MOL0     H66147   8.263   1.211   1.217  0.6697  0.9278 -2.0648
  490MOL0     H66148   8.586   1.199   1.319 -0.4480  0.8927  0.0093
  490MOL0     H66149   8.460   1.134   1.209 -1.6901  0.5577  1.1704
  490MOL0     H66150   8.572   1.245   1.150 -0.3404 -2.6555 -2.5656
  491MOL0     O66151   1.903   8.220   4.939  0.2224  0.6513  0.6777
  491MOL0     C66152   1.856   8.197   4.824 -0.9826 -0.0376 -0.1784
  491MOL0     O66153   1.922   8.210   4.703 -0.4953 -0.3273  0.3593
  491MOL0     C66154   2.059   8.227   4.696  0.2239  0.2398  0.6222
  491MOL0     C66155   2.111   8.360   4.685 -0.1818 -0.4543  0.6985
  491MOL0     C66156   2.252   8.379   4.669 -0.4973  0.0637 -0.6100
  491MOL0     C66157   2.339   8.259   4.672 -0.2156 -0.4013 -1.1977
  491MOL0     O66158   2.476   8.267   4.655 -0.3369 -0.5704  0.1334
  491MOL0     C66159   2.537   8.399   4.686  0.3927  0.8616  0.8021
  491MOL0     C66160   2.683   8.367   4.715  0.9702  0.1348 -0.1265
  491MOL0     C66161   2.780   8.487   4.712  0.1892  0.1543 -0.4424
  491MOL0     C66162   2.911   8.453   4.784 -0.2209 -1.1348  0.0556
  491MOL0     C66163   3.042   8.537   4.772  0.2133  0.3263 -0.6334
  491MOL0     C66164   3.024   8.675   4.832  0.0215 -0.4292  0.3281
  491MOL0     C66165   3.166   8.735   4.839 -0.6502 -0.6248 -0.5199
  491MOL0     C66166   3.164   8.885   4.884 -0.3183 -1.2243  0.3813
  491MOL0     N66167   3.286   8.958   4.847  0.1729 -0.1147  0.1675
  491MOL0     C66168   3.405   8.934   4.903 -0.3682 -0.4719 -0.0562
  491MOL0     C66169   3.501   8.978   4.819  0.5226  0.7075 -0.4255
  491MOL0     C66170   3.647   8.983   4.848 -0.0543 -0.6145 -0.0756
  491MOL0     C66171   3.673   9.079   4.962 -0.3614 -0.4585  0.5990
  491MOL0     C66172   3.823   9.070   4.996  0.4348 -0.4813 -0.3521
  491MOL0     C66173   3.866   9.179   5.093 -0.5044 -0.2068 -0.5468
  491MOL0     O66174   3.777   9.197   5.210 -0.4069  0.0292  0.0296
  491MOL0     C66175   3.817   9.289   5.309 -0.5503 -1.3152  0.4003
  491MOL0     C66176   3.941   9.362   5.324 -0.2543  0.5245  0.1816
  491MOL0     C66177   3.986   9.426   5.441 -0.1796  0.4041 -0.4050
  491MOL0     C66178   3.882   9.450   5.538  0.9681 -0.1092 -0.6711
  491MOL0     C66179   3.921   9.514   5.669  0.5932 -0.1601  0.2068
  491MOL0     O66180   4.049   9.567   5.663  0.7705  0.4087  0.4139
  491MOL0     C66181   4.116   9.607   5.769 -0.2542  0.8763  0.5528
  491MOL0     C66182   4.121   9.544   5.896  0.4205 -0.0923  1.5407
  491MOL0     C66183   4.219   9.595   5.986  0.1361 -0.5437 -0.5106
  491MOL0     C66184   4.303   9.706   5.959  0.5488  0.3724 -0.5376
  491MOL0     O66185   4.388   9.772   6.048 -0.5432 -0.7641 -0.4484
  491MOL0     C66186   4.402   9.727   6.185 -1.1044 -0.4102 -0.4480
  491MOL0     C66187   4.510   9.816   6.260 -0.3355  0.0866 -0.1020
  491MOL0     C66188   4.537   9.761   6.394 -0.2563 -0.4586  0.0821
  491MOL0     C66189   4.647   9.844   6.458  0.4086  0.0380 -0.1368
  491MOL0     C66190   4.677   9.796   6.598  0.2173 -0.1699 -0.1907
  491MOL0     C66191   4.776   9.899   6.667 -0.2296  0.3158 -0.5675
  491MOL0     C66192   4.820   9.829   6.796  0.1161  0.9040  0.0321
  491MOL0     C66193   4.930   9.905   6.866 -1.4168  0.6452  0.5594
  491MOL0    Cl66194   5.079   9.909   6.761  0.2790  0.0507 -0.3378
  491MOL0     C66195   4.301   9.751   5.825 -0.0677 -0.1687 -0.2995
  491MOL0     C66196   4.205   9.711   5.734  0.5064 -0.4466 -0.4251
  491MOL0     O66197   3.840   9.538   5.756  0.1217  0.3553 -0.4784
  491MOL0     C66198   3.755   9.395   5.527  0.0557  0.1945 -0.0268
  491MOL0     C66199   3.735   9.302   5.419  0.1488 -0.2870 -0.3642
  491MOL0     N66200   3.434   9.030   4.714 -0.0606  0.5251  0.1320
  491MOL0     N66201   3.308   9.015   4.726 -0.0438  0.0302 -0.4994
  491MOL0     C66202   2.278   8.127   4.679  0.2098 -0.0255 -0.8509
  491MOL0     C66203   2.135   8.107   4.686 -0.4221 -0.7765  0.0737
  491MOL0     C66204   1.718   8.168   4.809 -0.2934  0.1687 -0.7923
  491MOL0     C66205   1.672   8.130   4.680  1.3107  0.0702  0.1785
  491MOL0     C66206   1.533   8.128   4.649  0.4318  0.5540  0.2437
  491MOL0     C66207   1.433   8.141   4.749 -0.8467  0.3335  0.3239
  491MOL0     O66208   1.297   8.123   4.730 -0.2551  0.0521 -0.0094
  491MOL0     C66209   1.246   8.101   4.596 -0.4549 -0.3964 -0.8129
  491MOL0     C66210   1.095   8.130   4.597  0.0784  0.0095 -0.5027
  491MOL0     C66211   1.054   8.271   4.627 -0.1677 -0.0267  0.4249
  491MOL0     C66212   0.903   8.280   4.637  0.2455 -0.1762 -0.2940
  491MOL0     C66213   0.847   8.409   4.671 -0.1416 -0.3051  0.1348
  491MOL0     C66214   0.803   8.506   4.719  0.2452 -0.2155 -1.3142
  491MOL0     C66215   1.477   8.158   4.876 -0.1145 -0.2562  0.2576
  491MOL0     C66216   1.618   8.169   4.912  0.7735  0.2587 -0.1038
  491MOL0     C66217   1.648   8.182   5.059  0.6456  0.2198  0.8781
  491MOL0     H66218   2.045   8.445   4.671 -0.0361 -0.4318  0.1204
  491MOL0     H66219   2.297   8.476   4.653  0.9439 -0.6608 -1.1528
  491MOL0     H66220   2.536   8.457   4.593  1.8510 -0.2442  0.0600
  491MOL0     H66221   2.498   8.461   4.768 -0.1624  2.9145 -0.9158
  491MOL0     H66222   2.727   8.292   4.648  2.4605  0.0878  0.8499
  491MOL0     H66223   2.676   8.319   4.813 -2.7685 -1.8611 -1.1948
  491MOL0     H66224   2.743   8.577   4.762  2.0084 -0.0253  1.3760
  491MOL0     H66225   2.798   8.511   4.607 -2.4888 -0.7962 -1.1789
  491MOL0     H66226   2.884   8.453   4.890  1.1621  1.2374  0.4644
  491MOL0     H66227   2.941   8.349   4.764 -1.6515 -1.3322 -1.2449
  491MOL0     H66228   3.118   8.481   4.827 -2.4163 -1.0710  1.8363
  491MOL0     H66229   3.064   8.549   4.665 -2.9162 -1.8883 -1.6679
  491MOL0     H66230   2.955   8.735   4.771 -1.0395 -1.3800  0.5485
  491MOL0     H66231   2.976   8.675   4.930 -2.3111 -0.3069 -0.7301
  491MOL0     H66232   3.215   8.723   4.742  1.1782 -0.2919  0.3038
  491MOL0     H66233   3.215   8.678   4.918 -0.7204 -1.3655 -1.0018
  491MOL0     H66234   3.085   8.930   4.823  0.8396  0.7928  0.2940
  491MOL0     H66235   3.148   8.902   4.991  1.4969  0.1069  0.4847
  491MOL0     H66236   3.412   8.874   4.993 -0.5830 -2.0643 -1.0592
  491MOL0     H66237   3.671   8.882   4.880  3.1975 -0.1490 -0.7307
  491MOL0     H66238   3.720   9.000   4.768 -1.8837  2.7445 -1.2502
  491MOL0     H66239   3.641   9.177   4.926 -0.4991  0.0122  1.9786
  491MOL0     H66240   3.607   9.063   5.048  0.5770 -2.4545  1.0177
  491MOL0     H66241   3.888   9.086   4.910 -0.0575 -0.3143 -0.7002
  491MOL0     H66242   3.842   8.968   5.029  0.4044 -0.6313 -0.7943
  491MOL0     H66243   3.878   9.272   5.036  0.4709  0.6052  0.8991
  491MOL0     H66244   3.963   9.151   5.136 -0.8217 -1.4579 -0.6189
  491MOL0     H66245   4.008   9.352   5.240  0.0155 -0.5603  0.5147
  491MOL0     H66246   4.088   9.462   5.444 -1.1005  3.2158  1.3660
  491MOL0     H66247   4.057   9.461   5.925 -1.8894  0.7224 -0.8147
  491MOL0     H66248   4.206   9.550   6.084 -4.5035  0.5582 -0.3641
  491MOL0     H66249   4.302   9.739   6.226 -1.4546  0.9902 -1.6596
  491MOL0     H66250   4.435   9.623   6.192 -1.5775 -0.7034 -2.3274
  491MOL0     H66251   4.607   9.808   6.211  0.1856  2.8084  0.3063
  491MOL0     H66252   4.478   9.921   6.258 -1.0751 -0.1079 -2.5990
  491MOL0     H66253   4.451   9.770   6.461  0.3967  1.3351  0.7444
  491MOL0     H66254   4.563   9.655   6.386 -1.6491 -1.0739  2.6860
  491MOL0     H66255   4.623   9.950   6.455 -2.0981 -0.3804  1.7205
  491MOL0     H66256   4.730   9.830   6.389  0.2841  0.3097 -0.3435
  491MOL0     H66257   4.720   9.696   6.593 -0.2649 -0.3259 -1.7246
  491MOL0     H66258   4.591   9.782   6.663  0.9156 -0.2885  0.7187
  491MOL0     H66259   4.860   9.923   6.601  0.6473  2.5644  1.2037
  491MOL0     H66260   4.721   9.991   6.692 -1.3752 -0.6520  0.6505
  491MOL0     H66261   4.849   9.725   6.780 -0.1033  0.9995 -1.0555
  491MOL0     H66262   4.741   9.820   6.871  2.8486 -0.3205  2.9624
  491MOL0     H66263   4.896  10.006   6.892 -0.1131  1.4537 -0.6749
  491MOL0     H66264   4.945   9.841   6.953  0.5191 -1.9878 -1.5274
  491MOL0     H66265   4.368   9.834   5.805  0.4744 -0.7664 -1.0359
  491MOL0     H66266   4.210   9.755   5.634 -0.9189 -0.3217 -0.4641
  491MOL0     H66267   3.678   9.398   5.604  1.1065 -0.5761  1.1021
  491MOL0     H66268   3.636   9.256   5.415 -0.0759 -0.1091  1.9253
  491MOL0     H66269   2.349   8.045   4.688  1.5060  1.0766 -0.7950
  491MOL0     H66270   2.085   8.010   4.693  0.0271 -0.9630  0.7965
  491MOL0     H66271   1.730   8.114   4.589  0.3447 -0.7426 -0.3067
  491MOL0     H66272   1.495   8.103   4.551 -2.2991 -2.1141  1.7903
  491MOL0     H66273   1.272   8.001   4.561 -0.0097 -0.1719 -1.1284
  491MOL0     H66274   1.294   8.178   4.536 -1.5005  2.8860  2.2133
  491MOL0     H66275   1.063   8.059   4.674  1.8673 -0.4738 -0.1601
  491MOL0     H66276   1.049   8.112   4.499 -1.0847  1.6613 -0.3121
  491MOL0     H66277   1.087   8.346   4.554  3.3596 -1.0772  0.7420
  491MOL0     H66278   1.102   8.311   4.718  2.1225 -1.3854 -0.1086
  491MOL0     H66279   0.872   8.263   4.534  0.8643  0.4267 -0.5889
  491MOL0     H66280   0.874   8.204   4.710 -0.8528 -1.1551 -1.7057
  491MOL0     H66281   0.764   8.593   4.767 -1.7291 -0.8996 -1.6026
  491MOL0     H66282   1.400   8.161   4.952 -2.1571 -2.8163 -1.5105
  491MOL0     H66283   1.743   8.132   5.082  0.3304 -1.2749 -0.8622
  491MOL0     H66284   1.642   8.286   5.091  1.4314 -0.1597  2.3142
  491MOL0     H66285   1.564   8.143   5.117 -0.8148  1.3279 -0.4026
  492MOL0     O66286  10.155  10.518   0.441  0.1406  0.0165 -0.4555
  492MOL0     C66287  10.087  10.555   0.535 -0.3349  0.4422 -0.5878
  492MOL0     O66288  10.133  10.585   0.655 -0.4798 -0.8347 -0.4209
  492MOL0     C66289  10.261  10.554   0.695 -0.1947 -0.2123  0.9643
  492MOL0     C66290  10.347  10.657   0.724 -0.7488 -0.7495  1.0338
  492MOL0     C66291  10.484  10.635   0.764 -0.2008  0.6144  1.0099
  492MOL0     C66292  10.519  10.501   0.781 -0.1943 -0.1878  0.7966
  492MOL0     O66293  10.649  10.455   0.804 -0.0518 -0.8146 -0.3680
  492MOL0     C66294  10.721  10.523   0.913  0.2602 -0.0632  0.5389
  492MOL0     C66295  10.863  10.467   0.938 -0.6084  0.5169 -0.6189
  492MOL0     C66296  10.855  10.333   1.014 -0.3665 -0.3913  0.1210
  492MOL0     C66297  10.971  10.239   0.989  1.3425  0.3922  0.1612
  492MOL0     C66298  11.107  10.301   1.031 -0.4179 -0.2674 -0.2107
  492MOL0     C66299  11.223  10.201   1.024  0.1606  0.0530  0.4919
  492MOL0     C66300  11.365  10.266   1.052 -0.4182 -0.1585 -0.1302
  492MOL0     C66301  11.385  10.396   0.978 -0.1158 -1.7640 -0.0651
  492MOL0     N66302  11.526  10.449   0.983  0.7579 -0.4666  0.1169
  492MOL0     C66303  11.565  10.578   1.002 -0.3699  0.8772 -0.7049
  492MOL0     C66304  11.697  10.574   0.981  0.6067  1.0039  0.3594
  492MOL0     C66305  11.784  10.695   0.984  0.6273  0.3718 -0.2684
  492MOL0     C66306  11.915  10.665   1.060 -0.8089 -0.0422  0.9869
  492MOL0     C66307  12.028  10.765   1.045 -0.1404 -0.2940 -0.4628
  492MOL0     C66308  12.151  10.723   1.114 -0.2554  0.2678 -0.7011
  492MOL0     O66309  12.238  10.833   1.132 -1.0134  0.1655  0.2315
  492MOL0     C66310  12.364  10.812   1.194  0.0591 -0.5891 -0.2942
  492MOL0     C66311  12.392  10.697   1.270 -0.1481  0.2920 -1.2771
  492MOL0     C66312  12.508  10.675   1.350  0.3383 -0.5101 -0.0582
  492MOL0     C66313  12.613  10.768   1.335  0.3725  0.3251 -0.7227
  492MOL0     C66314  12.739  10.738   1.407  0.1128  0.0913 -0.6294
  492MOL0     O66315  12.735  10.641   1.515  0.4419  0.0755  0.2199
  492MOL0     C66316  12.856  10.591   1.565 -0.2914  0.5860  0.6576
  492MOL0     C66317  12.966  10.550   1.485  0.1749  0.3293  0.4377
  492MOL0     C66318  13.082  10.503   1.559 -0.0091  0.3170  1.4980
  492MOL0     C66319  13.077  10.502   1.694 -0.8190  0.4625  0.0009
  492MOL0     O66320  13.193  10.485   1.774  0.4603 -0.5099 -0.4784
  492MOL0     C66321  13.310  10.424   1.717  0.3649  0.1320 -0.0369
  492MOL0     C66322  13.417  10.416   1.811  0.0042  0.6359 -0.0985
  492MOL0     C66323  13.550  10.377   1.747  0.2246  0.4579  0.1190
  492MOL0     C66324  13.673  10.372   1.848  0.1489  0.4813  0.7043
  492MOL0     C66325  13.776  10.285   1.789  0.3303  0.1478 -0.5435
  492MOL0     C66326  13.908  10.275   1.874 -0.1271 -0.0972 -0.3117
  492MOL0     C66327  13.891  10.210   2.011  0.2304 -0.5083  0.7986
  492MOL0     C66328  14.031  10.194   2.089  0.0046 -0.8308  0.4107
  492MOL0    Cl66329  13.984  10.113   2.245 -0.0505  0.0935  0.4860
  492MOL0     C66330  12.969  10.540   1.765  0.8328  0.2504 -0.0652
  492MOL0     C66331  12.854  10.571   1.705  0.0490 -0.3781 -0.1559
  492MOL0     O66332  12.833  10.824   1.390  0.1702  0.1741 -0.2283
  492MOL0     C66333  12.595  10.887   1.259 -0.3191  0.0537  0.3191
  492MOL0     C66334  12.468  10.906   1.195 -0.3008 -0.2879  0.0911
  492MOL0     N66335  11.738  10.441   0.957 -0.0945 -0.0826 -0.2246
  492MOL0     N66336  11.630  10.371   0.943  0.2700 -0.1525  1.0267
  492MOL0     C66337  10.430  10.393   0.752  0.0268  0.6305 -0.9264
  492MOL0     C66338  10.296  10.417   0.714  0.2118 -0.9064 -0.7957
  492MOL0     C66339   9.945  10.566   0.524  0.5744 -0.1129 -0.2580
  492MOL0     C66340   9.867  10.515   0.631 -0.2767  0.7036 -0.0181
  492MOL0     C66341   9.722  10.527   0.628 -0.3141 -0.9092 -1.3174
  492MOL0     C66342   9.656  10.582   0.520 -0.0271  0.5958 -0.0975
  492MOL0     O66343   9.519  10.581   0.506 -0.0201 -0.2223  0.3501
  492MOL0     C66344   9.451  10.646   0.617 -0.0083  0.5923 -0.1085
  492MOL0     C66345   9.306  10.585   0.616 -0.0106 -0.3894  0.4598
  492MOL0     C66346   9.299  10.436   0.665  0.4441  0.6017 -0.3002
  492MOL0     C66347   9.156  10.402   0.696 -0.4481 -0.3386 -0.6198
  492MOL0     C66348   9.155  10.277   0.773  0.2304 -0.7481  0.5273
  492MOL0     C66349   9.128  10.183   0.849 -1.2000 -0.3936 -0.0550
  492MOL0     C66350   9.731  10.623   0.415  0.3221 -0.6227  0.3217
  492MOL0     C66351   9.872  10.628   0.416 -1.7268  0.6040  0.2170
  492MOL0     C66352   9.953  10.690   0.311 -0.2007 -0.5565  0.1514
  492MOL0     H66353  10.307  10.757   0.710 -0.5276 -0.8466 -0.4458
  492MOL0     H66354  10.544  10.722   0.788 -0.0515 -0.2525  4.2977
  492MOL0     H66355  10.724  10.628   0.882 -3.1152 -0.4174 -1.4379
  492MOL0     H66356  10.660  10.514   1.003 -0.2481  4.8418  0.9127
  492MOL0     H66357  10.915  10.537   1.005  0.4934 -1.1373  0.3393
  492MOL0     H66358  10.914  10.455   0.842  0.3995  1.1520 -0.1750
  492MOL0     H66359  10.756  10.289   0.996 -0.9731  0.6131  0.8876
  492MOL0     H66360  10.854  10.373   1.116  0.0918  0.3299 -0.1466
  492MOL0     H66361  10.945  10.147   1.043  0.5521 -0.0075 -0.8694
  492MOL0     H66362  10.971  10.220   0.881 -0.7360  2.9277 -0.3900
  492MOL0     H66363  11.119  10.382   0.958  1.6773 -0.7797 -0.5098
  492MOL0     H66364  11.103  10.339   1.133 -1.4954  1.9142 -0.9814
  492MOL0     H66365  11.200  10.113   1.086  1.6195  0.1809  1.2430
  492MOL0     H66366  11.223  10.161   0.922 -1.7899  2.4091 -0.5506
  492MOL0     H66367  11.444  10.195   1.027 -0.8513 -1.3480  1.7127
  492MOL0     H66368  11.371  10.294   1.158 -0.9451 -3.2279  0.8106
  492MOL0     H66369  11.358  10.383   0.873  1.8656 -0.4651 -0.7798
  492MOL0     H66370  11.317  10.469   1.024 -0.0378 -0.7696 -1.4556
  492MOL0     H66371  11.512  10.666   1.035 -1.1480  0.2671 -0.3003
  492MOL0     H66372  11.813  10.704   0.879 -0.3467  1.1810 -0.4829
  492MOL0     H66373  11.719  10.776   1.019  0.0737 -0.2569  0.1642
  492MOL0     H66374  11.874  10.660   1.162 -2.5387  1.8174  0.4299
  492MOL0     H66375  11.947  10.567   1.023  1.5859 -0.0345  2.8008
  492MOL0     H66376  11.996  10.855   1.099  0.0758 -0.8169  0.5772
  492MOL0     H66377  12.060  10.782   0.942  0.1212  0.2918 -0.2915
  492MOL0     H66378  12.202  10.648   1.052 -0.2607 -0.9497  0.7189
  492MOL0     H66379  12.113  10.678   1.206  0.8896  2.4982  0.9599
  492MOL0     H66380  12.328  10.609   1.264 -0.6360  0.2223  2.5610
  492MOL0     H66381  12.524  10.586   1.410  0.0245  0.5068  1.6089
  492MOL0     H66382  12.965  10.551   1.376 -1.1728 -1.4385  0.3814
  492MOL0     H66383  13.166  10.470   1.500 -0.0470 -0.0105  1.6231
  492MOL0     H66384  13.281  10.325   1.680  3.8873 -1.3812  0.7782
  492MOL0     H66385  13.348  10.485   1.635 -0.0486  0.2356 -0.1538
  492MOL0     H66386  13.419  10.511   1.864  1.0982  0.8129 -0.4280
  492MOL0     H66387  13.390  10.333   1.878 -0.1534  0.2259 -0.6605
  492MOL0     H66388  13.538  10.279   1.698 -2.0603  0.9930 -0.5430
  492MOL0     H66389  13.567  10.448   1.665 -0.7886 -0.6594 -1.1161
  492MOL0     H66390  13.648  10.332   1.947  1.9802 -1.7593  0.3402
  492MOL0     H66391  13.712  10.473   1.841  0.8251  0.2222  0.7222
  492MOL0     H66392  13.794  10.318   1.686 -0.4025  0.5611 -0.5468
  492MOL0     H66393  13.725  10.189   1.796 -1.3803  1.1562  2.3409
  492MOL0     H66394  13.981  10.231   1.806 -1.1799 -1.7276 -0.4302
  492MOL0     H66395  13.943  10.374   1.906  1.3297  0.0632 -2.2803
  492MOL0     H66396  13.845  10.114   1.990 -0.9730 -0.2262  2.0218
  492MOL0     H66397  13.817  10.272   2.063  1.5451 -0.0330  2.1819
  492MOL0     H66398  14.098  10.135   2.025 -1.2320  0.1730 -1.9438
  492MOL0     H66399  14.085  10.284   2.119 -1.1372  0.9691 -2.5428
  492MOL0     H66400  12.963  10.556   1.872 -0.4824 -1.8315  0.2187
  492MOL0     H66401  12.760  10.603   1.750  0.5639  3.9411 -1.5838
  492MOL0     H66402  12.677  10.959   1.261  1.6651 -2.1000  0.1011
  492MOL0     H66403  12.449  10.989   1.128 -1.3390 -1.5043 -1.1859
  492MOL0     H66404  10.454  10.288   0.769 -0.4925  0.4643 -1.1893
  492MOL0     H66405  10.223  10.336   0.719  0.7054 -1.3239  4.0757
  492MOL0     H66406   9.901  10.477   0.726 -0.6021  0.5007  0.0197
  492MOL0     H66407   9.667  10.498   0.717  1.9482 -0.1432  0.4226
  492MOL0     H66408   9.453  10.752   0.590 -0.2336  0.8912  1.0030
  492MOL0     H66409   9.492  10.633   0.717 -1.7967  0.6677  0.6628
  492MOL0     H66410   9.258  10.604   0.519 -0.2364  0.8649  0.8077
  492MOL0     H66411   9.261  10.636   0.701  0.8875  0.4682  0.4377
  492MOL0     H66412   9.358  10.426   0.756  0.0416  1.5856  0.0837
  492MOL0     H66413   9.339  10.366   0.591  1.0722  0.5762  0.0590
  492MOL0     H66414   9.100  10.471   0.759  0.6396  0.6441 -0.7062
  492MOL0     H66415   9.093  10.394   0.607 -0.8597  0.7879 -0.4392
  492MOL0     H66416   9.098  10.106   0.918  1.8114  0.3681  2.3190
  492MOL0     H66417   9.680  10.659   0.326 -0.1944 -1.6874  0.1720
  492MOL0     H66418   9.956  10.625   0.223  0.1302 -0.3279 -0.0106
  492MOL0     H66419   9.907  10.788   0.294 -0.2720 -0.6703 -0.3231
  492MOL0     H66420  10.060  10.708   0.327  0.3125 -2.4569 -0.8932
  493MOL0     O66421   0.248   9.220   6.801 -0.4312 -0.0906 -0.7521
  493MOL0     C66422   0.241   9.225   6.679 -0.4214 -0.2952  0.4686
  493MOL0     O66423   0.356   9.197   6.606 -0.3457 -0.9044  0.0577
  493MOL0     C66424   0.471   9.173   6.678  0.6603  0.4575 -0.3939
  493MOL0     C66425   0.531   9.279   6.746 -0.6151  0.4009 -0.4314
  493MOL0     C66426   0.656   9.257   6.806 -0.1936 -0.5413 -0.8926
  493MOL0     C66427   0.715   9.136   6.809 -0.0063  0.4614  0.5501
  493MOL0     O66428   0.828   9.128   6.881  0.3021 -0.4548 -0.3789
  493MOL0     C66429   0.910   9.012   6.878  0.6970 -0.1293 -0.4142
  493MOL0     C66430   0.982   9.003   6.745  0.2467 -0.4582 -0.7122
  493MOL0     C66431   1.059   8.874   6.747 -0.0080  0.1473 -0.7573
  493MOL0     C66432   1.113   8.838   6.612 -0.1651 -0.9366  0.5473
  493MOL0     C66433   1.193   8.705   6.617  0.1385  0.4329  0.1963
  493MOL0     C66434   1.224   8.656   6.473 -0.1027  0.0258  0.0701
  493MOL0     C66435   1.286   8.513   6.477  0.6835 -0.1754  0.4884
  493MOL0     C66436   1.360   8.481   6.349 -0.0980  0.5812  0.7321
  493MOL0     N66437   1.384   8.336   6.344 -0.3311  0.3472 -0.3509
  493MOL0     C66438   1.511   8.276   6.354  0.4208  0.6714  1.9367
  493MOL0     C66439   1.489   8.144   6.350 -0.3574 -0.4739  0.4989
  493MOL0     C66440   1.588   8.041   6.384 -0.4595 -0.6631  0.0865
  493MOL0     C66441   1.567   7.913   6.304 -0.3193  0.6442 -0.4262
  493MOL0     C66442   1.669   7.806   6.350 -0.6026 -0.2816  0.2112
  493MOL0     C66443   1.636   7.674   6.268 -0.7298 -0.1541 -0.3782
  493MOL0     O66444   1.644   7.696   6.135 -0.2825  0.1813  0.2172
  493MOL0     C66445   1.764   7.734   6.067  0.0917 -0.4414 -1.1525
  493MOL0     C66446   1.892   7.699   6.115  0.1731 -0.4995 -0.8528
  493MOL0     C66447   2.001   7.746   6.042  0.4813 -0.4602 -0.3862
  493MOL0     C66448   1.988   7.818   5.925 -0.0119 -0.1171 -0.7750
  493MOL0     C66449   2.108   7.864   5.855 -0.0474  0.1298 -0.2843
  493MOL0     O66450   2.223   7.874   5.926  0.1189 -0.4044 -0.8596
  493MOL0     C66451   2.326   7.950   5.869  0.6736  0.0622  0.1819
  493MOL0     C66452   2.434   7.888   5.810 -1.1831  1.4062 -0.6695
  493MOL0     C66453   2.557   7.961   5.794  0.1443 -0.2646 -0.7934
  493MOL0     C66454   2.561   8.098   5.800  0.8501 -1.1749 -0.1953
  493MOL0     O66455   2.676   8.167   5.785 -0.4373  0.1891  0.4179
  493MOL0     C66456   2.747   8.175   5.911 -0.3058 -0.3019  0.4246
  493MOL0     C66457   2.873   8.260   5.889 -0.4203 -0.3105  0.0547
  493MOL0     C66458   2.966   8.282   6.011  0.0176  0.4995  0.2274
  493MOL0     C66459   3.080   8.377   5.972  0.0669  0.1171 -1.0381
  493MOL0     C66460   3.172   8.407   6.090 -0.5760 -0.3048  0.1516
  493MOL0     C66461   3.284   8.502   6.046 -0.1503 -0.6394  0.1949
  493MOL0     C66462   3.358   8.545   6.172 -0.6712 -0.6687 -0.7628
  493MOL0     C66463   3.441   8.680   6.154  0.3545  0.1182  0.1251
  493MOL0    Cl66464   3.516   8.669   5.987 -0.0118  0.2931 -0.0070
  493MOL0     C66465   2.441   8.167   5.835 -0.4991  0.9849 -0.2371
  493MOL0     C66466   2.322   8.092   5.878 -1.1730  0.1457 -0.7552
  493MOL0     O66467   2.099   7.904   5.741 -0.1902 -0.5430  0.0518
  493MOL0     C66468   1.867   7.846   5.873  0.9705 -0.0176  0.0788
  493MOL0     C66469   1.754   7.802   5.946  0.8816 -0.3881  0.6007
  493MOL0     N66470   1.345   8.122   6.348 -0.2824  0.1723  0.3732
  493MOL0     N66471   1.295   8.236   6.337  0.4792  0.2888 -0.0599
  493MOL0     C66472   0.649   9.022   6.748 -0.0833  0.2663  0.2483
  493MOL0     C66473   0.531   9.043   6.676  0.3888 -0.3129 -0.5072
  493MOL0     C66474   0.112   9.244   6.600 -0.0999  1.0351  0.1353
  493MOL0     C66475   0.104   9.222   6.463  0.3901 -0.3123 -0.1115
  493MOL0     C66476  -0.016   9.203   6.386 -0.1485 -0.3665  0.3465
  493MOL0     C66477  -0.134   9.229   6.451  0.1414  0.2870 -0.1891
  493MOL0     O66478  -0.261   9.231   6.395 -0.2731 -0.4093  0.0409
  493MOL0     C66479  -0.267   9.183   6.264 -0.2089 -0.2179  0.3592
  493MOL0     C66480  -0.414   9.197   6.209 -0.6017 -0.0091  0.5739
  493MOL0     C66481  -0.465   9.338   6.199 -0.3949  0.2193  0.1301
  493MOL0     C66482  -0.577   9.377   6.297 -0.4744 -0.4488  0.4210
  493MOL0     C66483  -0.610   9.516   6.285 -0.4861 -0.4446 -0.2162
  493MOL0     C66484  -0.637   9.636   6.292  0.5137  1.0729  0.1573
  493MOL0     C66485  -0.129   9.268   6.583 -1.2149 -0.6544 -0.3168
  493MOL0     C66486  -0.013   9.281   6.656 -0.0101 -0.6392  0.2675
  493MOL0     C66487  -0.030   9.325   6.806 -0.0790  0.4746 -0.5548
  493MOL0     H66488   0.492   9.380   6.745  0.2575  0.7524 -0.0491
  493MOL0     H66489   0.698   9.341   6.861 -0.9832  0.4271 -1.7213
  493MOL0     H66490   0.992   9.031   6.948  1.0645 -1.9924 -0.2930
  493MOL0     H66491   0.853   8.919   6.892  1.1333 -1.1719 -4.3831
  493MOL0     H66492   1.051   9.087   6.740  1.1211 -0.8727  2.3538
  493MOL0     H66493   0.908   9.013   6.665 -0.6704  0.4057  0.2217
  493MOL0     H66494   0.998   8.791   6.785  4.1847 -2.9362 -0.0807
  493MOL0     H66495   1.141   8.877   6.819 -0.5378 -0.4163 -0.1198
  493MOL0     H66496   1.028   8.826   6.544  0.7750  2.4063 -1.4635
  493MOL0     H66497   1.178   8.921   6.584  0.8281 -0.7664  3.0927
  493MOL0     H66498   1.290   8.720   6.664  0.2991  2.6021 -0.6939
  493MOL0     H66499   1.137   8.626   6.668  2.3816 -1.2070  0.2706
  493MOL0     H66500   1.127   8.659   6.421 -0.4499 -0.8889  0.6364
  493MOL0     H66501   1.299   8.725   6.434 -1.0906  1.4104  0.5568
  493MOL0     H66502   1.199   8.449   6.497  0.3505  0.0749 -0.1396
  493MOL0     H66503   1.357   8.514   6.560 -0.2589  1.2931  1.3171
  493MOL0     H66504   1.296   8.510   6.265  0.8984  0.9352  0.0904
  493MOL0     H66505   1.456   8.532   6.342 -1.1218  2.5580  0.4337
  493MOL0     H66506   1.605   8.326   6.370  0.5784  1.2137 -0.2778
  493MOL0     H66507   1.686   8.079   6.355 -1.6861  0.3903 -3.2032
  493MOL0     H66508   1.599   8.018   6.490  1.5788  0.4542  0.1683
  493MOL0     H66509   1.473   7.863   6.327 -0.3101 -0.4240 -2.5169
  493MOL0     H66510   1.575   7.934   6.197  3.2288  1.4187 -0.1297
  493MOL0     H66511   1.675   7.788   6.458  1.2273  0.1349  0.2143
  493MOL0     H66512   1.771   7.831   6.320 -0.4667 -3.0977 -2.0199
  493MOL0     H66513   1.534   7.650   6.299  0.0303 -1.5072  1.1979
  493MOL0     H66514   1.699   7.593   6.304 -0.9318 -0.0805  0.1551
  493MOL0     H66515   1.906   7.646   6.208 -1.6024  1.7142  0.8111
  493MOL0     H66516   2.100   7.732   6.085 -0.8990  0.0330  3.3333
  493MOL0     H66517   2.425   7.780   5.795  1.0432  1.1676 -0.7355
  493MOL0     H66518   2.654   7.921   5.767  0.8734  0.6405  0.4404
  493MOL0     H66519   2.689   8.216   5.995  0.7964  3.2965 -0.3634
  493MOL0     H66520   2.781   8.077   5.945 -1.0780 -0.9792 -0.6897
  493MOL0     H66521   2.933   8.215   5.809 -0.3058  2.9407 -1.8672
  493MOL0     H66522   2.837   8.357   5.852 -2.1644 -1.3107 -1.0357
  493MOL0     H66523   2.901   8.315   6.093  0.1004 -2.0143  1.3925
  493MOL0     H66524   3.005   8.189   6.052 -0.7660  0.9505  2.1329
  493MOL0     H66525   3.045   8.472   5.932  1.5596  1.0357 -0.2429
  493MOL0     H66526   3.138   8.323   5.896  2.7971  0.3563  0.7512
  493MOL0     H66527   3.221   8.319   6.133  0.3723  0.5827  0.9316
  493MOL0     H66528   3.117   8.447   6.176  1.6316 -0.0081  1.5112
  493MOL0     H66529   3.351   8.444   5.981 -0.6032 -1.0878  0.1220
  493MOL0     H66530   3.242   8.590   5.997  0.1309  2.2112  4.5084
  493MOL0     H66531   3.430   8.465   6.192  1.3264  1.1576 -0.3073
  493MOL0     H66532   3.301   8.545   6.266  1.1254 -3.1785  0.4654
  493MOL0     H66533   3.383   8.771   6.168 -0.4767 -0.2353 -0.8574
  493MOL0     H66534   3.517   8.683   6.232 -1.0239  0.7060  1.4838
  493MOL0     H66535   2.443   8.275   5.841  2.4623  0.9548  1.4033
  493MOL0     H66536   2.232   8.141   5.914 -1.3158 -0.4493 -0.2888
  493MOL0     H66537   1.856   7.905   5.783 -0.3799 -2.0780 -1.1881
  493MOL0     H66538   1.656   7.800   5.900  1.7775  1.1530 -1.5428
  493MOL0     H66539   0.693   8.923   6.763  2.4378  1.4295  1.2111
  493MOL0     H66540   0.475   8.962   6.629  1.0888 -1.0515 -0.0929
  493MOL0     H66541   0.195   9.194   6.411  1.6358  0.2115  1.7044
  493MOL0     H66542   0.004   9.184   6.281  1.2816  1.7176  0.1656
  493MOL0     H66543  -0.233   9.079   6.257  1.0084  0.1125  0.9507
  493MOL0     H66544  -0.202   9.249   6.205  1.6119 -2.7369 -0.6426
  493MOL0     H66545  -0.485   9.130   6.258 -0.4757 -0.6320 -0.0775
  493MOL0     H66546  -0.415   9.165   6.104 -0.0782 -2.1090  1.1628
  493MOL0     H66547  -0.498   9.356   6.097 -0.9060  2.8747  0.6789
  493MOL0     H66548  -0.392   9.415   6.224 -0.3129 -0.2966  1.6038
  493MOL0     H66549  -0.662   9.316   6.267  0.8208 -1.1859 -1.9917
  493MOL0     H66550  -0.539   9.366   6.399  0.4712 -0.8736  0.0411
  493MOL0     H66551  -0.649   9.742   6.287  0.1458  1.1506  1.9633
  493MOL0     H66552  -0.222   9.308   6.623 -0.9387 -1.6490  1.4455
  493MOL0     H66553   0.019   9.245   6.862  1.4505  1.9639  0.3186
  493MOL0     H66554   0.033   9.409   6.836  1.8247 -0.8812 -0.6014
  493MOL0     H66555  -0.136   9.339   6.831  0.0636  2.5785 -0.9683
  494MOL0     O66556   2.706   1.891   3.911  0.3588 -0.2187 -0.2128
  494MOL0     C66557   2.622   1.981   3.886  0.3683 -0.2661 -0.3276
  494MOL0     O66558   2.615   2.104   3.947 -0.4296 -0.2177  0.1327
  494MOL0     C66559   2.730   2.141   4.016 -0.5096 -0.2727 -0.3749
  494MOL0     C66560   2.848   2.174   3.946 -0.1137  0.1266 -0.3616
  494MOL0     C66561   2.957   2.215   4.021  0.2288 -0.5375 -0.7555
  494MOL0     C66562   2.948   2.226   4.167 -0.8563  0.2046  0.1882
  494MOL0     O66563   3.061   2.263   4.243 -0.0765 -0.0553  0.1312
  494MOL0     C66564   3.187   2.206   4.216  0.9004 -0.1758  0.6334
  494MOL0     C66565   3.276   2.210   4.340  0.3023 -0.3964 -0.8183
  494MOL0     C66566   3.420   2.154   4.322 -0.6389 -0.2367  0.7691
  494MOL0     C66567   3.492   2.156   4.457  0.6184 -0.2107 -1.2090
  494MOL0     C66568   3.648   2.161   4.432 -0.2223 -0.2163  0.5830
  494MOL0     C66569   3.729   2.249   4.527 -0.0905  0.0302  0.4969
  494MOL0     C66570   3.876   2.250   4.471  0.6118 -1.1082 -0.1013
  494MOL0     C66571   3.960   2.326   4.565  0.0282  0.1691  0.6796
  494MOL0     N66572   4.106   2.334   4.534  0.0684 -0.2313 -0.6201
  494MOL0     C66573   4.167   2.379   4.422 -0.3461 -0.5203 -0.1222
  494MOL0     C66574   4.290   2.321   4.418  1.2514 -0.4693 -0.0097
  494MOL0     C66575   4.400   2.344   4.314 -0.2798  0.4012  0.4127
  494MOL0     C66576   4.537   2.377   4.362 -0.9052 -0.4006 -0.2130
  494MOL0     C66577   4.603   2.298   4.483 -0.4244  0.0691  0.5328
  494MOL0     C66578   4.747   2.274   4.456  0.0459 -0.1430 -0.3083
  494MOL0     O66579   4.825   2.395   4.484  0.0142  0.4524 -1.0325
  494MOL0     C66580   4.957   2.387   4.468 -0.0913 -0.4112  0.1723
  494MOL0     C66581   5.033   2.266   4.444 -0.2929 -0.0777  0.2763
  494MOL0     C66582   5.175   2.272   4.420  0.2149 -0.1293  0.0422
  494MOL0     C66583   5.237   2.391   4.413 -0.6500 -0.4347 -0.6901
  494MOL0     C66584   5.381   2.412   4.380 -0.0945 -0.4740 -0.5710
  494MOL0     O66585   5.446   2.524   4.425  0.1547  0.0215 -0.3494
  494MOL0     C66586   5.582   2.534   4.399  1.0336  0.1205 -0.1778
  494MOL0     C66587   5.666   2.567   4.500 -0.1367  0.5859 -0.3725
  494MOL0     C66588   5.804   2.569   4.476 -0.1659  0.6236  0.1444
  494MOL0     C66589   5.854   2.552   4.349 -0.0681  0.5125 -0.7873
  494MOL0     O66590   5.987   2.545   4.315  0.6201 -0.1465 -0.2163
  494MOL0     C66591   6.068   2.469   4.411 -1.2784 -0.2497  0.3734
  494MOL0     C66592   6.183   2.415   4.327 -0.6562 -0.3327  1.1266
  494MOL0     C66593   6.140   2.333   4.207  0.0600  0.2323  0.2655
  494MOL0     C66594   6.254   2.263   4.138 -0.1155 -0.0243  0.6014
  494MOL0     C66595   6.207   2.208   4.003 -0.0523 -0.7954 -0.7169
  494MOL0     C66596   6.111   2.084   4.020 -1.0830  0.1127 -0.2281
  494MOL0     C66597   6.097   1.993   3.899  0.1946  0.3349 -0.0728
  494MOL0     C66598   6.041   2.077   3.778 -0.1124  0.0602 -0.6038
  494MOL0    Cl66599   5.872   2.128   3.802 -0.0349  0.1326  0.1509
  494MOL0     C66600   5.768   2.528   4.246  0.5128 -0.6050 -0.1304
  494MOL0     C66601   5.632   2.515   4.270 -0.3142 -1.2185 -0.0417
  494MOL0     O66602   5.429   2.320   4.320  0.3057  0.0463  0.2225
  494MOL0     C66603   5.167   2.509   4.435  0.5001 -0.7011 -0.2915
  494MOL0     C66604   5.030   2.507   4.458  0.0555  0.9679  0.7792
  494MOL0     N66605   4.299   2.236   4.519 -0.3731 -1.2170 -0.2162
  494MOL0     N66606   4.192   2.245   4.594 -0.1204 -0.3540  0.6172
  494MOL0     C66607   2.825   2.204   4.226 -0.5628 -0.5869  0.3639
  494MOL0     C66608   2.716   2.161   4.153 -0.6528  0.1278 -0.2807
  494MOL0     C66609   2.518   1.949   3.791  0.4507 -0.2649  0.2526
  494MOL0     C66610   2.471   2.065   3.713 -0.2816  0.3264 -0.2377
  494MOL0     C66611   2.369   2.050   3.625  0.7777 -0.2267  0.0082
  494MOL0     C66612   2.302   1.923   3.609  1.3176 -1.0748  0.1648
  494MOL0     O66613   2.187   1.894   3.531 -0.3405  0.3116  0.2988
  494MOL0     C66614   2.155   1.997   3.437 -1.1372 -0.2988  0.8629
  494MOL0     C66615   2.016   1.983   3.377  0.2820 -0.0464 -0.7455
  494MOL0     C66616   1.970   2.114   3.291  0.1036  0.2135 -0.8812
  494MOL0     C66617   1.832   2.079   3.227 -0.1815  0.3856 -0.6122
  494MOL0     C66618   1.855   1.989   3.112  0.3433  0.6513  0.1128
  494MOL0     C66619   1.863   1.905   3.023 -0.9557  0.6858 -0.2290
  494MOL0     C66620   2.347   1.818   3.681  0.1149 -0.2864 -0.4036
  494MOL0     C66621   2.452   1.823   3.772 -0.5778  0.4211 -0.0537
  494MOL0     C66622   2.498   1.695   3.842 -0.6820 -0.0571  0.3290
  494MOL0     H66623   2.846   2.168   3.837 -1.0136 -0.6992 -0.3068
  494MOL0     H66624   3.043   2.220   3.956  0.4942 -2.5627 -0.6160
  494MOL0     H66625   3.177   2.101   4.185 -2.6718  0.3582 -0.3611
  494MOL0     H66626   3.238   2.266   4.140  0.6316  0.9994  1.3668
  494MOL0     H66627   3.226   2.147   4.414 -2.4282 -0.5577 -2.6486
  494MOL0     H66628   3.285   2.311   4.382  0.8568 -0.7868  0.0271
  494MOL0     H66629   3.469   2.209   4.241  0.5761 -0.7645  1.1227
  494MOL0     H66630   3.402   2.049   4.297  0.1094 -0.9273  2.9351
  494MOL0     H66631   3.459   2.241   4.519  1.1659 -0.2682 -0.8301
  494MOL0     H66632   3.466   2.068   4.517  0.0084  0.6482 -0.1578
  494MOL0     H66633   3.685   2.058   4.439  1.6646  0.5282  2.7095
  494MOL0     H66634   3.672   2.190   4.330  0.5032 -1.1291  0.4890
  494MOL0     H66635   3.683   2.348   4.533  0.1512  0.0831  1.6825
  494MOL0     H66636   3.718   2.193   4.621 -1.5811 -3.1987 -1.4132
  494MOL0     H66637   3.874   2.306   4.377 -2.3811 -0.0443  0.4847
  494MOL0     H66638   3.911   2.151   4.442  3.5572  0.3681 -2.1781
  494MOL0     H66639   3.929   2.429   4.585  1.6769  0.8507 -0.1318
  494MOL0     H66640   3.956   2.271   4.660  2.9762  2.3757  2.2526
  494MOL0     H66641   4.123   2.454   4.357 -2.7647 -0.3380  1.6309
  494MOL0     H66642   4.411   2.250   4.259  0.2402  1.3936 -1.2541
  494MOL0     H66643   4.355   2.423   4.253 -2.5386 -0.1091  1.3031
  494MOL0     H66644   4.607   2.380   4.278 -0.1629  2.6046  0.4080
  494MOL0     H66645   4.532   2.479   4.402  1.3000 -0.2736 -0.1290
  494MOL0     H66646   4.561   2.197   4.485  2.1338 -1.0628  2.0531
  494MOL0     H66647   4.580   2.347   4.578 -0.7862 -0.1594  0.5635
  494MOL0     H66648   4.757   2.242   4.352  2.5522  0.4999 -0.3184
  494MOL0     H66649   4.779   2.188   4.515  0.1147 -0.1660 -0.3787
  494MOL0     H66650   4.984   2.169   4.451 -1.4839  0.4178 -0.8706
  494MOL0     H66651   5.233   2.181   4.406  0.6243  0.4698 -2.9771
  494MOL0     H66652   5.634   2.575   4.603  1.2856 -2.1286  0.3891
  494MOL0     H66653   5.864   2.579   4.566 -1.7015  2.2184  1.0517
  494MOL0     H66654   6.110   2.524   4.495 -2.0452  1.5086 -0.3455
  494MOL0     H66655   6.006   2.390   4.453 -2.7560  0.6397 -0.0525
  494MOL0     H66656   6.241   2.504   4.304 -1.7640  0.6839  2.1393
  494MOL0     H66657   6.244   2.346   4.386 -0.6775 -2.6635 -1.3425
  494MOL0     H66658   6.069   2.256   4.237 -0.2834 -0.2007 -1.5211
  494MOL0     H66659   6.080   2.393   4.138  2.3239  1.3348 -0.8751
  494MOL0     H66660   6.304   2.187   4.198  0.1928 -0.2354  0.0755
  494MOL0     H66661   6.335   2.331   4.110  1.7244 -2.0912  0.6901
  494MOL0     H66662   6.292   2.167   3.947 -2.2761 -2.4087 -3.1367
  494MOL0     H66663   6.160   2.293   3.952  0.9810  1.0787  1.3250
  494MOL0     H66664   6.147   2.016   4.098  1.4808 -0.8858 -2.1464
  494MOL0     H66665   6.009   2.112   4.049 -2.1022  0.9513 -4.0561
  494MOL0     H66666   6.023   1.914   3.916  0.5035 -0.1052 -0.7416
  494MOL0     H66667   6.196   1.949   3.885  1.5691  2.5475  1.8255
  494MOL0     H66668   6.103   2.167   3.775  0.6104 -0.1874  2.8004
  494MOL0     H66669   6.053   2.019   3.685  2.0857  0.8012 -0.8360
  494MOL0     H66670   5.806   2.505   4.147  0.3063 -1.2595 -0.0650
  494MOL0     H66671   5.555   2.480   4.202 -1.0533 -1.6750  1.0025
  494MOL0     H66672   5.210   2.609   4.432 -2.3783  0.9230  3.4386
  494MOL0     H66673   4.975   2.597   4.482  0.1527  1.4498 -0.7004
  494MOL0     H66674   2.811   2.222   4.332 -0.9546  1.5409  0.0034
  494MOL0     H66675   2.615   2.152   4.192 -0.4917  1.2964  0.4292
  494MOL0     H66676   2.519   2.162   3.724  1.5859 -0.6383  0.5217
  494MOL0     H66677   2.343   2.132   3.560 -1.4764 -2.5653 -2.2540
  494MOL0     H66678   2.232   1.998   3.359 -1.0094  1.0558  0.9861
  494MOL0     H66679   2.154   2.098   3.478 -2.0637 -0.2459  0.7386
  494MOL0     H66680   1.942   1.965   3.455  0.5751 -1.2979 -0.7378
  494MOL0     H66681   2.015   1.889   3.321  2.6845  0.5523 -1.9391
  494MOL0     H66682   2.056   2.134   3.226  0.9197  1.1315  0.4321
  494MOL0     H66683   1.970   2.195   3.364  0.7848  0.2386 -0.8979
  494MOL0     H66684   1.754   2.033   3.289 -1.2563 -0.4068 -2.4581
  494MOL0     H66685   1.787   2.171   3.188 -0.3307  0.4465 -0.2922
  494MOL0     H66686   1.877   1.840   2.939  1.9828  0.3355  0.4215
  494MOL0     H66687   2.307   1.719   3.665  0.7864 -0.8979  1.4078
  494MOL0     H66688   2.565   1.652   3.768 -0.5805  3.3698 -1.7828
  494MOL0     H66689   2.539   1.716   3.942 -4.9671  0.8588  2.1383
  494MOL0     H66690   2.417   1.627   3.869 -2.5329  2.3431  1.1933
  495MOL0     O66691   1.865   3.681   0.290  0.8598 -0.3569  0.1580
  495MOL0     C66692   1.759   3.621   0.262  0.2431 -0.0547 -0.1632
  495MOL0     O66693   1.756   3.492   0.214 -0.3785 -0.7154 -0.0053
  495MOL0     C66694   1.876   3.432   0.188  0.3369 -1.0054  0.2118
  495MOL0     C66695   1.919   3.436   0.060  0.1161  0.3677  0.6709
  495MOL0     C66696   2.049   3.390   0.034 -0.0845  0.0746  1.0041
  495MOL0     C66697   2.133   3.325   0.123  0.1197 -0.2987  0.4353
  495MOL0     O66698   2.255   3.278   0.080  0.1847  0.3007 -0.5280
  495MOL0     C66699   2.338   3.222   0.185  0.8181  0.4415 -0.0242
  495MOL0     C66700   2.476   3.177   0.143 -0.4946  0.1191 -0.2787
  495MOL0     C66701   2.550   3.123   0.262 -0.1301 -1.1395 -0.1407
  495MOL0     C66702   2.705   3.103   0.221  0.6888 -0.1691 -0.4930
  495MOL0     C66703   2.771   2.997   0.313 -0.9152 -0.2014  0.3663
  495MOL0     C66704   2.917   3.025   0.318 -1.0110  0.4707 -0.1595
  495MOL0     C66705   2.975   2.901   0.396 -0.3340  0.8084  0.2697
  495MOL0     C66706   3.127   2.923   0.425 -0.4970 -0.1600  0.3594
  495MOL0     N66707   3.202   2.800   0.412 -0.5947 -0.4944 -0.1252
  495MOL0     C66708   3.197   2.707   0.513 -1.1196  0.1704 -0.7446
  495MOL0     C66709   3.242   2.590   0.465 -0.3999  0.1386  0.2403
  495MOL0     C66710   3.252   2.456   0.527  0.3806 -0.6050  0.1356
  495MOL0     C66711   3.377   2.376   0.511  0.0956 -0.1450 -0.0243
  495MOL0     C66712   3.493   2.464   0.566  0.2979 -0.9810 -0.3243
  495MOL0     C66713   3.634   2.402   0.560 -0.4590  0.2698  0.2141
  495MOL0     O66714   3.677   2.361   0.693 -0.0049 -0.4853 -0.2216
  495MOL0     C66715   3.814   2.332   0.718 -0.4971  0.2674  0.1444
  495MOL0     C66716   3.851   2.279   0.841 -0.1044  0.1287 -0.5017
  495MOL0     C66717   3.985   2.249   0.876 -0.1990  0.0489  0.4930
  495MOL0     C66718   4.089   2.274   0.789  0.7669 -0.2002  0.8727
  495MOL0     C66719   4.224   2.235   0.825 -0.3269 -0.7610  0.1711
  495MOL0     O66720   4.313   2.234   0.719  0.0126 -0.1562  0.1240
  495MOL0     C66721   4.441   2.205   0.763  0.1170  0.0069 -0.5749
  495MOL0     C66722   4.537   2.292   0.724  0.3029  0.3061 -0.0125
  495MOL0     C66723   4.669   2.266   0.755 -0.1525 -0.2764  0.9808
  495MOL0     C66724   4.702   2.145   0.819 -0.3635  0.2830 -0.5719
  495MOL0     O66725   4.834   2.118   0.862 -0.3435  0.2505  0.5946
  495MOL0     C66726   4.946   2.207   0.819  0.1635  0.0462  0.2381
  495MOL0     C66727   5.075   2.153   0.856 -1.0059 -0.5285  0.2674
  495MOL0     C66728   5.077   2.121   1.009 -0.1364 -0.2461 -0.0681
  495MOL0     C66729   5.207   2.041   1.021 -0.0082  0.0138  0.0462
  495MOL0     C66730   5.241   1.994   1.156  0.2043 -0.0540 -0.6667
  495MOL0     C66731   5.163   1.870   1.203  0.4710  0.2988 -1.9255
  495MOL0     C66732   5.213   1.838   1.351  0.7781 -0.6890 -0.3189
  495MOL0     C66733   5.356   1.783   1.348  0.9112 -0.4427  0.5874
  495MOL0    Cl66734   5.417   1.737   1.514  0.8660 -0.1642 -0.0564
  495MOL0     C66735   4.603   2.061   0.858 -0.2325  0.3095 -0.5227
  495MOL0     C66736   4.474   2.084   0.823 -0.1155  0.3606 -0.4068
  495MOL0     O66737   4.248   2.215   0.943  0.1160  0.8354 -0.0500
  495MOL0     C66738   4.049   2.323   0.664 -0.2472 -0.7746 -0.3224
  495MOL0     C66739   3.919   2.348   0.628  0.3174 -0.3622 -0.4938
  495MOL0     N66740   3.266   2.619   0.325  0.7099 -0.1432  0.0770
  495MOL0     N66741   3.230   2.738   0.293  0.8640 -0.6206  0.5984
  495MOL0     C66742   2.076   3.312   0.254  0.8794 -0.1583  0.2836
  495MOL0     C66743   1.959   3.375   0.292 -0.4260  0.4777 -0.1885
  495MOL0     C66744   1.634   3.688   0.297 -0.7496  0.4948 -0.3736
  495MOL0     C66745   1.530   3.653   0.218  0.0827 -0.8133  0.4669
  495MOL0     C66746   1.401   3.710   0.237 -0.7619  0.5072  0.2979
  495MOL0     C66747   1.383   3.792   0.342 -0.6747 -0.0514 -0.3858
  495MOL0     O66748   1.256   3.845   0.341  0.2499 -0.5385 -0.3416
  495MOL0     C66749   1.240   3.974   0.406  0.0696 -0.3979 -0.3929
  495MOL0     C66750   1.082   4.005   0.420 -0.4935  0.6988 -0.4521
  495MOL0     C66751   1.024   4.017   0.281 -0.2257  0.1428 -0.9738
  495MOL0     C66752   1.025   4.167   0.240  0.3415  0.2990  0.2671
  495MOL0     C66753   1.152   4.203   0.170  0.8905 -0.1323  0.7582
  495MOL0     C66754   1.247   4.257   0.119  0.6277  0.3453  0.4379
  495MOL0     C66755   1.487   3.818   0.434 -0.5924  0.0211 -0.2633
  495MOL0     C66756   1.614   3.769   0.411  0.1638  0.4194 -0.3902
  495MOL0     C66757   1.707   3.802   0.520  0.0547 -0.2325  0.7927
  495MOL0     H66758   1.867   3.484  -0.023 -1.2891  2.2452  2.5358
  495MOL0     H66759   2.082   3.407  -0.068 -2.3934 -1.6417 -0.1218
  495MOL0     H66760   2.359   3.310   0.248 -0.7889 -0.7167  2.2740
  495MOL0     H66761   2.275   3.143   0.226  1.1645 -0.3602 -1.0189
  495MOL0     H66762   2.525   3.263   0.095  1.3695 -1.9098 -2.2293
  495MOL0     H66763   2.475   3.105   0.061  1.0684 -0.2366 -0.0270
  495MOL0     H66764   2.495   3.031   0.281 -2.0266 -0.1986 -0.7570
  495MOL0     H66765   2.539   3.189   0.348  2.7046  0.0854 -0.6003
  495MOL0     H66766   2.704   3.075   0.115 -3.5864  0.8853 -0.9347
  495MOL0     H66767   2.745   3.204   0.239  0.0393  0.6120 -2.9653
  495MOL0     H66768   2.732   2.993   0.415 -1.5820 -1.9945  0.0747
  495MOL0     H66769   2.742   2.901   0.270 -0.6932 -0.2325  0.2877
  495MOL0     H66770   2.955   3.030   0.215 -0.7527  1.7945 -0.0206
  495MOL0     H66771   2.938   3.122   0.364 -0.7760  1.2516 -1.8172
  495MOL0     H66772   2.971   2.813   0.331  4.4893 -2.4218  3.5993
  495MOL0     H66773   2.927   2.889   0.494  1.5172  0.4590  1.1905
  495MOL0     H66774   3.165   2.993   0.349 -1.6231 -0.6528 -0.6941
  495MOL0     H66775   3.134   2.972   0.522 -2.8086  1.4213 -0.1834
  495MOL0     H66776   3.166   2.720   0.616  0.9610 -0.0633 -0.0404
  495MOL0     H66777   3.231   2.464   0.634 -0.1621  1.4716 -0.0876
  495MOL0     H66778   3.169   2.395   0.490  0.3596 -0.3184 -0.2925
  495MOL0     H66779   3.367   2.281   0.565 -0.2382 -0.9795 -1.4928
  495MOL0     H66780   3.385   2.355   0.404 -1.3414  2.5395 -0.7442
  495MOL0     H66781   3.474   2.489   0.671  0.1274 -0.0637 -0.5663
  495MOL0     H66782   3.494   2.559   0.512  1.5033 -0.1635  1.0824
  495MOL0     H66783   3.713   2.467   0.520  0.3421 -0.1702  1.0151
  495MOL0     H66784   3.617   2.314   0.498 -0.8626 -0.2658  1.0604
  495MOL0     H66785   3.769   2.254   0.908  0.7042 -1.2147  0.0240
  495MOL0     H66786   4.007   2.205   0.973 -0.9500 -2.9583 -0.5859
  495MOL0     H66787   4.502   2.384   0.677 -0.5316  0.7656  1.4497
  495MOL0     H66788   4.740   2.344   0.730 -4.6097  3.6764 -0.9843
  495MOL0     H66789   4.945   2.216   0.710  2.3108  0.1883  0.1762
  495MOL0     H66790   4.939   2.310   0.857 -0.8358 -0.0642  0.3782
  495MOL0     H66791   5.090   2.064   0.793 -3.1132 -0.2940 -0.6391
  495MOL0     H66792   5.149   2.226   0.822 -1.4131  0.2685  1.0688
  495MOL0     H66793   5.073   2.213   1.067  0.9313 -0.9881  1.2227
  495MOL0     H66794   4.992   2.067   1.052 -0.0941  0.1514  0.5212
  495MOL0     H66795   5.289   2.103   0.985 -2.2398  1.1290 -3.6235
  495MOL0     H66796   5.202   1.958   0.950  2.4995  0.8592 -1.2228
  495MOL0     H66797   5.228   2.084   1.218  1.3306  0.0327 -0.5217
  495MOL0     H66798   5.349   1.974   1.153  0.3512 -0.0045  1.9642
  495MOL0     H66799   5.056   1.892   1.210 -0.2186 -3.0017  1.0685
  495MOL0     H66800   5.189   1.783   1.141  1.6704 -1.5244  0.9577
  495MOL0     H66801   5.146   1.765   1.398  2.3645 -0.1684  3.0781
  495MOL0     H66802   5.206   1.924   1.418  1.2457 -1.6874  1.0614
  495MOL0     H66803   5.361   1.702   1.275 -1.6684 -0.1350 -0.0079
  495MOL0     H66804   5.424   1.855   1.301 -1.3216  0.3614 -1.6126
  495MOL0     H66805   4.624   1.973   0.917 -1.8847 -0.3767 -0.9079
  495MOL0     H66806   4.398   2.021   0.868  1.9069 -0.3149  2.2756
  495MOL0     H66807   4.128   2.328   0.589  1.2074 -1.4038  1.1021
  495MOL0     H66808   3.896   2.374   0.525  2.4501  1.5195 -0.5607
  495MOL0     H66809   2.139   3.258   0.325 -1.0502  0.0528  2.2579
  495MOL0     H66810   1.927   3.373   0.395  0.5445 -3.1405  0.1690
  495MOL0     H66811   1.545   3.593   0.129 -0.4464  0.4063 -0.4824
  495MOL0     H66812   1.320   3.683   0.169 -1.4283 -1.0549  1.6411
  495MOL0     H66813   1.304   4.051   0.362 -0.4148  0.5079  0.4458
  495MOL0     H66814   1.283   3.955   0.505  0.4789 -0.9737 -0.6751
  495MOL0     H66815   1.061   4.100   0.469  0.0508  1.5907 -1.8779
  495MOL0     H66816   1.039   3.915   0.465  0.3251  0.1298 -0.7800
  495MOL0     H66817   0.919   3.987   0.284 -0.5647  0.7527 -3.7830
  495MOL0     H66818   1.081   3.954   0.213  0.6554  0.1912 -0.2970
  495MOL0     H66819   0.939   4.196   0.179  0.4828  1.0510  0.4111
  495MOL0     H66820   1.028   4.238   0.323  1.1643  1.9205 -1.0871
  495MOL0     H66821   1.336   4.297   0.074  0.1023  2.6887  1.3642
  495MOL0     H66822   1.475   3.871   0.528 -0.1706 -1.2017  0.5034
  495MOL0     H66823   1.781   3.723   0.538  1.5667  1.2797  1.3908
  495MOL0     H66824   1.773   3.882   0.486  0.1032  0.1537  1.7664
  495MOL0     H66825   1.656   3.832   0.612 -0.0510  1.1236  0.3110
  496MOL0     O66826  10.116   8.276   9.604 -0.8718  0.2213  0.2634
  496MOL0     C66827  10.127   8.185   9.684  0.5445 -0.7671  0.2978
  496MOL0     O66828  10.051   8.179   9.796  0.8324 -0.0461  0.1964
  496MOL0     C66829   9.938   8.256   9.801  0.1168  0.3722 -0.0349
  496MOL0     C66830   9.954   8.391   9.803  0.6465 -0.4996 -0.0161
  496MOL0     C66831   9.848   8.482   9.804  0.1179 -1.2077  0.0434
  496MOL0     C66832   9.719   8.434   9.798  0.4811  0.3475 -0.0995
  496MOL0     O66833   9.626   8.531   9.807 -0.3531  0.6558  0.2803
  496MOL0     C66834   9.502   8.495   9.878 -0.5285  0.1222  1.2053
  496MOL0     C66835   9.403   8.612   9.907 -0.4588 -0.0876  0.6083
  496MOL0     C66836   9.470   8.742   9.962 -0.4014  0.1103 -0.0164
  496MOL0     C66837   9.350   8.829   9.998  0.7145 -0.0525 -0.3239
  496MOL0     C66838   9.399   8.963  10.045 -0.3954  0.0460  0.1012
  496MOL0     C66839   9.442   9.061   9.936  0.0218  0.7090 -0.4333
  496MOL0     C66840   9.455   9.204   9.994 -0.1416  0.3679 -0.3726
  496MOL0     C66841   9.587   9.213  10.083 -1.1532 -0.1572 -0.2089
  496MOL0     N66842   9.706   9.195   9.998 -0.1325  0.5879  0.3777
  496MOL0     C66843   9.772   9.072   9.976  1.1888  0.1467  0.2236
  496MOL0     C66844   9.857   9.101   9.871  0.3052  1.0424  0.2084
  496MOL0     C66845   9.953   8.991   9.819  0.4152 -0.6525 -0.7299
  496MOL0     C66846  10.096   8.978   9.888 -0.3692  0.1061  0.5838
  496MOL0     C66847  10.187   8.886   9.805  0.9119 -0.1722 -0.2370
  496MOL0     C66848  10.323   8.883   9.869 -0.4645  0.5396  0.4771
  496MOL0     O66849  10.418   8.800   9.792  0.0167  0.1769  0.5433
  496MOL0     C66850  10.545   8.833   9.783 -0.6072 -0.5687 -0.0141
  496MOL0     C66851  10.616   8.903   9.882 -0.3265 -0.3154  0.3172
  496MOL0     C66852  10.742   8.944   9.860 -1.0761 -0.2118 -0.5361
  496MOL0     C66853  10.803   8.939   9.731 -0.0253 -0.0829 -0.5107
  496MOL0     C66854  10.936   8.997   9.703  0.3318  0.1447  0.1123
  496MOL0     O66855  10.971   9.024   9.578  0.8329  0.2130  0.6048
  496MOL0     C66856  11.104   9.069   9.558 -0.0655  0.5398 -0.1877
  496MOL0     C66857  11.138   9.201   9.585  0.0841  0.6830  0.2392
  496MOL0     C66858  11.270   9.245   9.572  0.0900 -0.2084 -0.5960
  496MOL0     C66859  11.367   9.154   9.536  0.2033  1.0138 -0.0884
  496MOL0     O66860  11.495   9.196   9.527 -0.3013  0.8807  0.0934
  496MOL0     C66861  11.553   9.258   9.638 -0.0555 -0.1589 -0.1710
  496MOL0     C66862  11.705   9.261   9.626  0.2565  0.2074 -0.2317
  496MOL0     C66863  11.744   9.325   9.766  0.2445 -0.1484  0.0915
  496MOL0     C66864  11.891   9.316   9.793  0.7387 -0.0246  0.6726
  496MOL0     C66865  11.942   9.372   9.926  1.1516  0.1119 -0.0182
  496MOL0     C66866  12.092   9.349   9.940  0.0985 -0.6748 -0.2957
  496MOL0     C66867  12.148   9.411  10.071  0.3531 -0.9210 -0.3278
  496MOL0     C66868  12.303   9.419  10.051 -0.5297 -0.1556  0.4361
  496MOL0    Cl66869  12.376   9.258  10.077  0.0064  0.0574 -0.0112
  496MOL0     C66870  11.325   9.024   9.497  0.4293 -0.2298  0.0471
  496MOL0     C66871  11.194   8.981   9.504 -0.1437  0.4682  0.2234
  496MOL0     O66872  11.004   9.013   9.800 -0.0309 -0.3136 -0.1604
  496MOL0     C66873  10.733   8.880   9.629  0.0184  0.0471  0.5373
  496MOL0     C66874  10.606   8.829   9.653 -0.1166 -0.3030 -0.6801
  496MOL0     N66875   9.850   9.235   9.838 -0.0712  0.3814  0.0091
  496MOL0     N66876   9.745   9.288   9.903 -0.5660 -0.1885 -0.0546
  496MOL0     C66877   9.702   8.295   9.782 -0.1519 -0.5249  0.2005
  496MOL0     C66878   9.809   8.202   9.793  1.0665 -0.0571 -0.3275
  496MOL0     C66879  10.235   8.084   9.663  0.3460 -0.3458 -0.5828
  496MOL0     C66880  10.246   7.987   9.775  0.1270 -0.3063  0.8465
  496MOL0     C66881  10.347   7.891   9.779  0.0891  0.4872 -0.3704
  496MOL0     C66882  10.440   7.884   9.673 -0.5379  0.0812 -0.8470
  496MOL0     O66883  10.545   7.797   9.689 -0.5566  0.2434 -0.6242
  496MOL0     C66884  10.617   7.759   9.570  0.3276  0.7128  0.2730
  496MOL0     C66885  10.736   7.662   9.597 -0.1550 -0.1055  1.2636
  496MOL0     C66886  10.710   7.531   9.676 -0.3752  0.4938 -0.2246
  496MOL0     C66887  10.807   7.404   9.644  0.4960 -0.6029 -0.5492
  496MOL0     C66888  10.946   7.426   9.689  0.3467 -0.8738  0.6610
  496MOL0     C66889  11.058   7.453   9.728  0.4400  0.2521  0.2781
  496MOL0     C66890  10.428   7.977   9.568  0.3203 -0.1308 -0.2802
  496MOL0     C66891  10.325   8.077   9.562 -0.4020 -0.5620  0.1479
  496MOL0     C66892  10.340   8.180   9.449 -0.8410 -0.7600  0.3146
  496MOL0     H66893  10.051   8.439   9.796  0.3424  0.0587 -0.5822
  496MOL0     H66894   9.872   8.588   9.809  0.3347 -1.2975  4.3120
  496MOL0     H66895   9.437   8.420   9.833 -0.1181 -0.3947  1.4592
  496MOL0     H66896   9.540   8.456   9.973  3.0853 -1.7543 -0.7976
  496MOL0     H66897   9.331   8.574   9.980  0.7076 -4.4356 -0.2028
  496MOL0     H66898   9.356   8.639   9.812  0.7819  0.3183  0.0920
  496MOL0     H66899   9.543   8.778   9.889  0.7695 -1.5739  0.2746
  496MOL0     H66900   9.520   8.719  10.056 -2.2904  1.0031  1.2741
  496MOL0     H66901   9.271   8.833   9.923 -3.8032  0.0234  3.9266
  496MOL0     H66902   9.298   8.769  10.074 -0.7900  0.1862 -1.1293
  496MOL0     H66903   9.321   9.017  10.099  0.8363  1.6033  0.4033
  496MOL0     H66904   9.480   8.939  10.115 -1.3623 -0.4961  1.0611
  496MOL0     H66905   9.538   9.027   9.896  0.0023 -1.1821  0.9813
  496MOL0     H66906   9.379   9.068   9.847 -0.3034 -0.8650 -0.3539
  496MOL0     H66907   9.373   9.233  10.060  1.8943  0.2659  2.4294
  496MOL0     H66908   9.458   9.276   9.913  0.2558  2.4533  1.4023
  496MOL0     H66909   9.592   9.310  10.132 -1.3074 -0.8282  1.2069
  496MOL0     H66910   9.592   9.133  10.157 -3.4879  0.4740  0.7184
  496MOL0     H66911   9.763   8.975  10.024  0.7467 -1.7586 -3.3500
  496MOL0     H66912   9.891   8.902   9.814 -1.3275  0.5164 -0.8361
  496MOL0     H66913   9.971   9.021   9.716 -2.3243 -0.7970 -1.3234
  496MOL0     H66914  10.144   9.076   9.887 -1.1922  0.6208 -3.2897
  496MOL0     H66915  10.104   8.947   9.993 -0.6943  1.0068  0.8842
  496MOL0     H66916  10.176   8.917   9.701  0.7603  2.7695  0.5765
  496MOL0     H66917  10.157   8.780   9.802  2.1064 -0.5109 -1.3331
  496MOL0     H66918  10.308   8.840   9.968 -0.5297 -0.4617  0.0410
  496MOL0     H66919  10.361   8.985   9.880  0.9386 -0.0619  1.5654
  496MOL0     H66920  10.576   8.924   9.980 -0.7797 -0.1033  0.0913
  496MOL0     H66921  10.798   8.990   9.941 -1.0721  0.2133 -0.7730
  496MOL0     H66922  11.085   9.279   9.640  2.7189  3.1123 -0.4005
  496MOL0     H66923  11.293   9.350   9.585  2.9164 -0.8853  0.5876
  496MOL0     H66924  11.520   9.362   9.639 -1.8528 -0.6927 -1.0062
  496MOL0     H66925  11.521   9.198   9.724 -0.6091 -3.8294 -2.7125
  496MOL0     H66926  11.732   9.155   9.622 -1.1120 -0.2356  1.2545
  496MOL0     H66927  11.743   9.320   9.542  0.3890  0.1185 -0.2345
  496MOL0     H66928  11.704   9.426   9.759 -0.1466 -0.2390  0.9334
  496MOL0     H66929  11.695   9.264   9.842  0.5561 -1.3173 -0.6063
  496MOL0     H66930  11.935   9.373   9.711 -1.3394 -0.0306 -0.5094
  496MOL0     H66931  11.917   9.211   9.773 -0.7779 -0.2297 -0.3630
  496MOL0     H66932  11.885   9.337  10.012 -1.4391  1.1606 -1.2019
  496MOL0     H66933  11.929   9.481   9.927  2.2578  0.2436  1.0892
  496MOL0     H66934  12.102   9.240   9.938 -1.0475 -0.8065  0.4646
  496MOL0     H66935  12.138   9.387   9.849 -0.2821 -1.9204 -1.0380
  496MOL0     H66936  12.130   9.354  10.163  0.4418 -0.5856 -0.0984
  496MOL0     H66937  12.105   9.511  10.082 -1.1323 -1.4567 -0.9590
  496MOL0     H66938  12.336   9.448   9.951 -2.4348 -1.3805 -0.6147
  496MOL0     H66939  12.344   9.488  10.125  2.0716 -1.5030  0.3818
  496MOL0     H66940  11.406   8.967   9.452  2.0530  1.9861 -0.0261
  496MOL0     H66941  11.170   8.876   9.492  1.7246  0.2876 -3.2875
  496MOL0     H66942  10.774   8.873   9.529  0.0826 -2.9240  0.6645
  496MOL0     H66943  10.555   8.770   9.578 -0.6560 -1.3833  0.4826
  496MOL0     H66944   9.605   8.249   9.773 -0.5320  0.6494 -2.9757
  496MOL0     H66945   9.788   8.095   9.786  1.4699 -0.0074 -3.7337
  496MOL0     H66946  10.174   7.986   9.856 -2.3138  0.5209 -1.1815
  496MOL0     H66947  10.363   7.830   9.867 -0.2593  0.2708 -0.4575
  496MOL0     H66948  10.656   7.850   9.525  0.3748  1.3356  1.5482
  496MOL0     H66949  10.557   7.705   9.496  0.8152 -3.2395  2.4779
  496MOL0     H66950  10.819   7.705   9.653 -2.7464  2.1383  3.6958
  496MOL0     H66951  10.762   7.630   9.496 -0.0060  1.8678  0.6361
  496MOL0     H66952  10.607   7.496   9.663  0.4007 -3.0490  1.8309
  496MOL0     H66953  10.721   7.550   9.784  0.9063  1.9327 -0.5722
  496MOL0     H66954  10.763   7.320   9.699  1.3190  0.2644  1.5527
  496MOL0     H66955  10.805   7.374   9.539  4.4079 -0.1853 -0.8880
  496MOL0     H66956  11.158   7.478   9.759  0.5377  0.6567 -0.3642
  496MOL0     H66957  10.510   7.979   9.496 -0.7033 -4.0353 -1.8186
  496MOL0     H66958  10.359   8.281   9.485  0.9244 -0.9404 -0.0206
  496MOL0     H66959  10.420   8.151   9.381 -1.8833 -0.0121 -1.2841
  496MOL0     H66960  10.255   8.184   9.380  0.9399  3.0719 -1.9749
  497MOL0     O66961   1.572   9.378   0.355  0.1746  0.5014 -0.3500
  497MOL0     C66962   1.484   9.428   0.430 -0.4727 -0.5972  0.7699
  497MOL0     O66963   1.501   9.511   0.535 -0.1907 -1.0498  0.2439
  497MOL0     C66964   1.623   9.570   0.577  0.0774  0.4791 -0.0896
  497MOL0     C66965   1.613   9.687   0.658 -0.8236  0.4972 -0.1504
  497MOL0     C66966   1.732   9.739   0.718 -0.3477 -0.0644  1.0166
  497MOL0     C66967   1.850   9.662   0.697  0.6056  0.5152 -0.7328
  497MOL0     O66968   1.960   9.709   0.766 -0.6704 -0.8907 -0.6198
  497MOL0     C66969   2.087   9.685   0.716  0.3640  0.5815  0.4638
  497MOL0     C66970   2.188   9.760   0.804  0.3628 -1.0440 -0.9586
  497MOL0     C66971   2.332   9.736   0.763 -0.5363  0.1246 -0.0040
  497MOL0     C66972   2.435   9.820   0.841 -0.0709 -0.3535 -0.1511
  497MOL0     C66973   2.569   9.817   0.764 -0.2044  0.1461  0.2803
  497MOL0     C66974   2.634   9.679   0.753 -0.6866  0.3802  0.0138
  497MOL0     C66975   2.772   9.698   0.684  1.0213 -0.2731  0.0971
  497MOL0     C66976   2.818   9.563   0.622 -0.0637 -0.7723 -0.4282
  497MOL0     N66977   2.949   9.569   0.564 -0.4232  0.0395 -0.0349
  497MOL0     C66978   3.065   9.616   0.622  0.3892 -0.3681 -0.0590
  497MOL0     C66979   3.160   9.580   0.531 -0.1646 -0.2767  0.4921
  497MOL0     C66980   3.313   9.584   0.551 -0.4334 -0.6280 -0.4773
  497MOL0     C66981   3.372   9.715   0.612 -0.5366  0.0402 -0.4761
  497MOL0     C66982   3.529   9.721   0.601  1.0218 -0.4661  0.2422
  497MOL0     C66983   3.582   9.743   0.456  0.0350 -0.9680  0.6106
  497MOL0     O66984   3.718   9.718   0.447 -0.4927  0.1464 -0.3334
  497MOL0     C66985   3.813   9.791   0.515  0.4668 -0.2884  0.2552
  497MOL0     C66986   3.790   9.917   0.572  0.6816  0.2824 -0.0488
  497MOL0     C66987   3.891   9.989   0.646  0.7884 -0.5987 -0.0773
  497MOL0     C66988   4.020   9.934   0.658  0.3157 -0.4358  0.4047
  497MOL0     C66989   4.129  10.011   0.714  0.1064 -0.8328 -0.8703
  497MOL0     O66990   4.237   9.933   0.767  0.1331 -0.1529 -0.0067
  497MOL0     C66991   4.337  10.008   0.831  0.0005  0.1398 -0.4750
  497MOL0     C66992   4.326  10.132   0.909  0.1677  0.7228 -1.1178
  497MOL0     C66993   4.440  10.184   0.977 -0.4570 -0.9184  0.1116
  497MOL0     C66994   4.564  10.110   0.969  0.2366  0.0580 -0.6004
  497MOL0     O66995   4.675  10.144   1.034 -0.1847 -0.3617 -0.3749
  497MOL0     C66996   4.675  10.269   1.108  0.7531 -0.7001 -0.4212
  497MOL0     C66997   4.811  10.285   1.169  0.0670 -0.0599  0.2019
  497MOL0     C66998   4.873  10.148   1.224  0.2030 -0.8572 -0.5596
  497MOL0     C66999   5.003  10.191   1.297 -0.2109  0.1189 -0.2489
  497MOL0     C67000   5.090  10.065   1.333 -0.2884 -0.1910  0.1777
  497MOL0     C67001   5.193  10.106   1.438 -0.4359 -0.5547 -0.3346
  497MOL0     C67002   5.120  10.122   1.573  0.2971 -0.2384  0.3220
  497MOL0     C67003   5.210  10.139   1.690 -0.6542 -0.5900  0.0773
  497MOL0    Cl67004   5.127  10.172   1.850  0.5809  0.5049  0.3213
  497MOL0     C67005   4.576   9.991   0.895 -0.0773 -0.5730  0.7669
  497MOL0     C67006   4.462   9.946   0.826  0.0202 -0.0036  0.2320
  497MOL0     O67007   4.118  10.134   0.708  0.2040  0.2384  0.0853
  497MOL0     C67008   4.039   9.810   0.594 -0.3551 -0.1610 -0.1625
  497MOL0     C67009   3.947   9.734   0.525 -0.5382  0.4645 -0.2535
  497MOL0     N67010   3.096   9.526   0.413  0.0848  0.3576  0.5862
  497MOL0     N67011   2.973   9.521   0.442 -0.3452  0.3353  0.1819
  497MOL0     C67012   1.857   9.550   0.627  0.4175 -0.1144  0.7320
  497MOL0     C67013   1.742   9.498   0.568 -0.1030 -0.8151  0.1780
  497MOL0     C67014   1.353   9.378   0.411  0.3594 -0.1093  0.3470
  497MOL0     C67015   1.281   9.350   0.529  0.2029 -0.1060 -0.0193
  497MOL0     C67016   1.149   9.310   0.520 -0.0244 -0.0978 -0.5869
  497MOL0     C67017   1.088   9.298   0.394  0.5699 -0.2734 -0.0082
  497MOL0     O67018   0.950   9.274   0.400 -1.0399  1.2262 -0.4030
  497MOL0     C67019   0.879   9.259   0.285 -0.7346  1.2124  0.2308
  497MOL0     C67020   0.740   9.219   0.314  0.5178 -0.1119 -0.3120
  497MOL0     C67021   0.671   9.276   0.437  0.7182  0.5892 -0.2448
  497MOL0     C67022   0.532   9.214   0.467 -0.4816  0.9103 -0.4134
  497MOL0     C67023   0.539   9.067   0.464  0.4417  0.3501  0.1732
  497MOL0     C67024   0.527   8.942   0.470  0.2436 -0.4056 -0.4427
  497MOL0     C67025   1.159   9.332   0.278 -0.0841 -0.4892 -0.5813
  497MOL0     C67026   1.291   9.371   0.285 -0.4450 -0.1006  0.1980
  497MOL0     C67027   1.357   9.428   0.154  0.1321 -0.0489  0.9445
  497MOL0     H67028   1.519   9.741   0.659 -0.7707  0.6275 -1.0366
  497MOL0     H67029   1.731   9.832   0.774 -0.3614 -0.3870  1.5690
  497MOL0     H67030   2.105   9.577   0.716 -0.3749  0.2795 -3.5864
  497MOL0     H67031   2.084   9.708   0.609 -1.1540 -0.2210  0.2895
  497MOL0     H67032   2.183   9.733   0.909 -2.1146 -0.7347 -0.9524
  497MOL0     H67033   2.165   9.867   0.796 -1.2945 -1.0453  2.2936
  497MOL0     H67034   2.334   9.756   0.655 -2.0834  1.5648  0.1865
  497MOL0     H67035   2.343   9.628   0.775 -1.5179 -0.2255 -1.7714
  497MOL0     H67036   2.403   9.923   0.826  0.6524 -0.0518  0.3282
  497MOL0     H67037   2.444   9.786   0.944 -0.2839  1.5166  0.5066
  497MOL0     H67038   2.574   9.860   0.664  2.0446 -1.0905 -0.1957
  497MOL0     H67039   2.624   9.886   0.828  0.1887  0.0619  0.0380
  497MOL0     H67040   2.656   9.637   0.851 -0.3242 -1.6848 -0.9101
  497MOL0     H67041   2.578   9.608   0.692  0.9668 -1.0085  0.0281
  497MOL0     H67042   2.855   9.741   0.741  1.9776  0.2882 -1.6529
  497MOL0     H67043   2.759   9.773   0.605  2.6823 -0.6361 -0.5464
  497MOL0     H67044   2.810   9.483   0.696  0.0020  0.2199  0.6761
  497MOL0     H67045   2.747   9.528   0.547  1.8113 -2.7755 -1.3977
  497MOL0     H67046   3.093   9.660   0.718 -0.6883  0.7679 -0.2395
  497MOL0     H67047   3.328   9.493   0.609 -3.3040 -1.3343 -0.6939
  497MOL0     H67048   3.359   9.569   0.453  2.1530  2.3671  0.0970
  497MOL0     H67049   3.327   9.803   0.567  0.1329  0.7625  0.2354
  497MOL0     H67050   3.351   9.711   0.720  1.7014 -0.0855  0.0114
  497MOL0     H67051   3.575   9.632   0.646  0.4434 -0.0466  1.7211
  497MOL0     H67052   3.562   9.802   0.667  0.5842 -0.8629  0.9628
  497MOL0     H67053   3.563   9.845   0.421  1.0482 -1.2470 -0.8859
  497MOL0     H67054   3.532   9.674   0.387 -3.4390 -0.9975  2.9157
  497MOL0     H67055   3.692   9.963   0.571  0.6711  0.2502 -0.4937
  497MOL0     H67056   3.872  10.080   0.701 -1.4853 -0.8482 -0.3742
  497MOL0     H67057   4.228  10.176   0.927 -0.0644 -0.5002  0.8736
  497MOL0     H67058   4.432  10.274   1.036  0.6967  0.0682 -1.1722
  497MOL0     H67059   4.659  10.353   1.041  1.0090 -0.6005 -0.3596
  497MOL0     H67060   4.600  10.270   1.188  2.2289  0.8516  1.0119
  497MOL0     H67061   4.866  10.316   1.080 -1.8895 -0.1514 -1.1175
  497MOL0     H67062   4.807  10.370   1.238 -2.2441  1.3047 -1.4756
  497MOL0     H67063   4.805  10.099   1.295  1.2972  1.6182  2.4174
  497MOL0     H67064   4.900  10.074   1.148  3.6414 -1.1016  0.7095
  497MOL0     H67065   4.967  10.246   1.384  0.4987  0.9070 -0.4403
  497MOL0     H67066   5.058  10.260   1.233  0.0843 -0.7980 -1.0043
  497MOL0     H67067   5.135  10.028   1.240 -1.6156 -0.8522 -0.2226
  497MOL0     H67068   5.032   9.980   1.370  0.6550 -0.8038  0.2968
  497MOL0     H67069   5.259  10.019   1.430 -0.0067 -0.0465 -3.5704
  497MOL0     H67070   5.238  10.201   1.409 -2.2658 -0.5332 -3.5554
  497MOL0     H67071   5.056  10.038   1.602 -2.1688  1.9103  1.4330
  497MOL0     H67072   5.052  10.207   1.567  0.9220  0.3153  0.9673
  497MOL0     H67073   5.278  10.054   1.699  3.6942  2.6013  0.6610
  497MOL0     H67074   5.279  10.223   1.677  2.7155 -2.6823  2.7475
  497MOL0     H67075   4.670   9.938   0.885  0.2300  0.3348 -1.7991
  497MOL0     H67076   4.475   9.857   0.764  0.3880  1.0037 -1.1908
  497MOL0     H67077   4.137   9.766   0.609  0.1353  0.1441 -2.2044
  497MOL0     H67078   3.965   9.634   0.487  0.8613 -0.6723  3.0611
  497MOL0     H67079   1.949   9.494   0.611  1.5178  2.3667 -2.5680
  497MOL0     H67080   1.736   9.397   0.529 -1.3198 -1.6902  2.4503
  497MOL0     H67081   1.336   9.347   0.623  0.2006  1.2375  0.0357
  497MOL0     H67082   1.101   9.293   0.616  1.9038  4.6753  1.5490
  497MOL0     H67083   0.918   9.185   0.215  3.4542  3.2737  0.0828
  497MOL0     H67084   0.873   9.355   0.233  2.5544  0.4367 -1.8580
  497MOL0     H67085   0.742   9.110   0.321 -2.4551 -0.2046  0.5918
  497MOL0     H67086   0.679   9.242   0.226 -0.3988 -1.2784 -0.0116
  497MOL0     H67087   0.649   9.382   0.420  0.6203  0.2713 -2.3291
  497MOL0     H67088   0.733   9.277   0.527 -0.5758 -0.5809  0.6993
  497MOL0     H67089   0.501   9.245   0.568  1.4035 -1.5317  1.0531
  497MOL0     H67090   0.463   9.246   0.389  0.3671  2.7719 -0.4634
  497MOL0     H67091   0.525   8.835   0.477 -1.2001 -0.3910 -0.3775
  497MOL0     H67092   1.110   9.341   0.182 -1.1648  0.6573  0.0295
  497MOL0     H67093   1.290   9.418   0.067 -0.4432  1.3125  1.2172
  497MOL0     H67094   1.388   9.531   0.174  1.3170  0.2448 -1.8095
  497MOL0     H67095   1.449   9.375   0.128  0.5848  0.4328  1.5440
  498MOL0     O67096   0.363   3.626   7.753 -0.0651 -0.0476  0.1571
  498MOL0     C67097   0.311   3.636   7.644 -0.9873  0.4450 -0.1063
  498MOL0     O67098   0.380   3.607   7.534 -0.5789  0.1104 -0.8686
  498MOL0     C67099   0.516   3.585   7.530  0.6851 -0.3016  0.9274
  498MOL0     C67100   0.615   3.657   7.604  0.2383 -0.7384 -0.2731
  498MOL0     C67101   0.746   3.627   7.594 -0.3201  0.4725  0.4370
  498MOL0     C67102   0.790   3.538   7.493 -0.8840  0.0153  0.1868
  498MOL0     O67103   0.924   3.492   7.498  0.6021 -0.1436 -0.8353
  498MOL0     C67104   0.995   3.449   7.377  0.5735 -0.6662 -1.2141
  498MOL0     C67105   1.135   3.505   7.381  0.1679 -0.1040 -0.2065
  498MOL0     C67106   1.212   3.489   7.250  0.0515  0.7344  0.1755
  498MOL0     C67107   1.348   3.556   7.256  0.7599 -0.3834 -0.2792
  498MOL0     C67108   1.420   3.538   7.122  0.2686 -0.7193 -0.6489
  498MOL0     C67109   1.567   3.568   7.128 -0.2133  0.2247 -0.7558
  498MOL0     C67110   1.603   3.663   7.016  0.7645  0.0987  0.4402
  498MOL0     C67111   1.757   3.666   6.978  0.3513 -0.4092  0.2901
  498MOL0     N67112   1.802   3.552   6.896 -0.3829 -0.0496 -0.5180
  498MOL0     C67113   1.829   3.424   6.932 -0.6964  0.2128 -0.3886
  498MOL0     C67114   1.829   3.357   6.814 -0.8803  0.4669  0.3518
  498MOL0     C67115   1.850   3.208   6.799 -0.5861  0.7564  0.1096
  498MOL0     C67116   1.720   3.127   6.802 -0.9466 -0.2160  0.7144
  498MOL0     C67117   1.598   3.183   6.728  0.3756  0.0685 -0.6395
  498MOL0     C67118   1.463   3.126   6.772 -0.5706 -0.4141  0.0550
  498MOL0     O67119   1.440   3.152   6.914  0.7020  0.0651  0.5928
  498MOL0     C67120   1.315   3.129   6.953  0.4024  0.3983 -0.3323
  498MOL0     C67121   1.200   3.084   6.886  0.4185  0.5063  0.1283
  498MOL0     C67122   1.077   3.071   6.948  0.4520  0.2670  0.1910
  498MOL0     C67123   1.061   3.090   7.085 -0.2387  0.0197  0.0017
  498MOL0     C67124   0.935   3.074   7.151 -0.1499  0.5372  0.1121
  498MOL0     O67125   0.836   3.040   7.072  0.2996  0.3739  0.5674
  498MOL0     C67126   0.713   3.008   7.131  0.4652 -0.1402 -0.1037
  498MOL0     C67127   0.596   3.071   7.078  0.4891  0.6675 -0.1394
  498MOL0     C67128   0.465   3.032   7.111 -0.2837 -0.5305 -0.2045
  498MOL0     C67129   0.453   2.939   7.212 -0.3816 -0.1499 -0.2134
  498MOL0     O67130   0.334   2.899   7.267 -0.1019 -0.0226  0.5503
  498MOL0     C67131   0.217   2.940   7.198 -0.1528 -0.3213 -0.4103
  498MOL0     C67132   0.098   2.875   7.279 -1.3597 -0.2577 -0.2038
  498MOL0     C67133  -0.032   2.894   7.200 -0.0127  0.2353 -0.5624
  498MOL0     C67134  -0.142   2.824   7.283  0.8804 -0.1821  0.3851
  498MOL0     C67135  -0.280   2.834   7.201 -0.6630 -0.0343  0.8193
  498MOL0     C67136  -0.392   2.762   7.279 -0.4809  0.1261  0.1987
  498MOL0     C67137  -0.520   2.771   7.199 -0.0407  0.3238 -0.4839
  498MOL0     C67138  -0.643   2.700   7.258 -0.1888 -0.1023 -0.3504
  498MOL0    Cl67139  -0.626   2.523   7.241  0.2129 -0.0966  0.2847
  498MOL0     C67140   0.564   2.871   7.261  0.1811  0.7096 -0.6583
  498MOL0     C67141   0.691   2.902   7.218 -0.7605 -0.6595  0.2187
  498MOL0     O67142   0.932   3.085   7.271  0.3789  0.2349 -0.1133
  498MOL0     C67143   1.182   3.125   7.158  0.6149 -0.5847 -0.4307
  498MOL0     C67144   1.308   3.137   7.092  0.2700  0.5329 -0.0502
  498MOL0     N67145   1.813   3.438   6.705  0.2515 -0.3229 -0.5376
  498MOL0     N67146   1.801   3.558   6.760 -0.4122 -0.0293 -0.1700
  498MOL0     C67147   0.696   3.473   7.408  0.5230 -1.0683 -0.1578
  498MOL0     C67148   0.561   3.501   7.417 -0.0549  0.4888 -0.4756
  498MOL0     C67149   0.165   3.659   7.623  0.1070 -0.0426  0.2128
  498MOL0     C67150   0.095   3.677   7.742  0.5199 -0.2551  0.3705
  498MOL0     C67151  -0.046   3.692   7.747  0.0717  0.0948  0.0116
  498MOL0     C67152  -0.114   3.692   7.627  0.1908  0.6505  0.4735
  498MOL0     O67153  -0.244   3.707   7.634 -0.2117 -0.7478 -0.5664
  498MOL0     C67154  -0.321   3.713   7.513  0.2910  0.0970 -0.2093
  498MOL0     C67155  -0.455   3.778   7.546 -0.8807  0.0629 -0.6535
  498MOL0     C67156  -0.540   3.703   7.656  0.0707  0.2282 -0.0701
  498MOL0     C67157  -0.575   3.564   7.602 -0.4002 -0.6284  0.0341
  498MOL0     C67158  -0.691   3.508   7.680 -0.8022  0.2015 -0.2827
  498MOL0     C67159  -0.782   3.469   7.751  0.6502 -0.1410  0.1498
  498MOL0     C67160  -0.048   3.675   7.508 -0.0322  0.5525 -0.1985
  498MOL0     C67161   0.094   3.661   7.497 -0.1708 -0.4341 -0.9451
  498MOL0     C67162   0.161   3.648   7.357 -0.2455  0.1827 -0.6012
  498MOL0     H67163   0.569   3.729   7.671 -1.5999 -2.2555  0.2100
  498MOL0     H67164   0.823   3.665   7.660 -0.7100  1.5218  0.3041
  498MOL0     H67165   1.004   3.340   7.389  3.2324 -0.2021  2.4493
  498MOL0     H67166   0.945   3.474   7.282 -0.1497  3.0497 -0.0011
  498MOL0     H67167   1.196   3.467   7.464 -3.7568 -1.3360  2.4381
  498MOL0     H67168   1.126   3.610   7.411  0.5185 -0.0324 -0.3490
  498MOL0     H67169   1.163   3.527   7.160 -2.2203 -0.1997  0.9381
  498MOL0     H67170   1.221   3.383   7.226 -2.1816  0.6084 -0.3663
  498MOL0     H67171   1.346   3.660   7.288 -0.8885 -1.3145  3.0889
  498MOL0     H67172   1.395   3.502   7.339 -1.0885 -1.0270  0.3811
  498MOL0     H67173   1.410   3.439   7.076 -1.2297 -1.0915  0.4226
  498MOL0     H67174   1.364   3.608   7.059 -0.2523  2.0396  2.5543
  498MOL0     H67175   1.591   3.608   7.227  2.7677 -2.9251 -0.0121
  498MOL0     H67176   1.617   3.472   7.114 -3.5449 -1.7947  0.0933
  498MOL0     H67177   1.573   3.766   7.039  0.9340  0.6378 -1.5302
  498MOL0     H67178   1.554   3.636   6.922 -0.8462 -1.3514  1.6515
  498MOL0     H67179   1.780   3.765   6.939  2.7590 -0.9963  0.0436
  498MOL0     H67180   1.817   3.654   7.069  0.5008 -0.5205  0.1797
  498MOL0     H67181   1.830   3.383   7.032 -1.0290  0.2408 -0.3711
  498MOL0     H67182   1.894   3.184   6.702  2.2650  2.4934  0.8664
  498MOL0     H67183   1.930   3.183   6.868 -0.8839 -2.5678 -0.6158
  498MOL0     H67184   1.744   3.025   6.769 -1.2552 -0.6017  1.6573
  498MOL0     H67185   1.689   3.126   6.907 -0.6441  1.6471  0.8536
  498MOL0     H67186   1.625   3.167   6.624  3.6086 -2.2491  0.3833
  498MOL0     H67187   1.595   3.290   6.749 -1.2407  0.0126 -0.4250
  498MOL0     H67188   1.454   3.021   6.746 -2.3816 -0.2036 -0.3380
  498MOL0     H67189   1.393   3.178   6.706  0.2423 -0.2331 -0.6879
  498MOL0     H67190   1.204   3.075   6.778  1.4234 -1.7032  0.2983
  498MOL0     H67191   0.997   3.022   6.894  2.1750 -1.2238 -1.1535
  498MOL0     H67192   0.615   3.140   6.997  2.8026 -2.4309 -2.4505
  498MOL0     H67193   0.381   3.082   7.064 -1.7049 -4.1561 -1.9422
  498MOL0     H67194   0.214   3.049   7.206  2.6008 -0.3243  2.0152
  498MOL0     H67195   0.199   2.903   7.097 -2.3900 -0.5305  0.0045
  498MOL0     H67196   0.131   2.771   7.273 -0.1385 -0.1129  2.6189
  498MOL0     H67197   0.103   2.926   7.376  1.6803  2.9633 -1.8283
  498MOL0     H67198  -0.050   3.000   7.181 -0.8171  0.4261  1.0888
  498MOL0     H67199  -0.022   2.850   7.101  1.0106  1.9164 -1.2361
  498MOL0     H67200  -0.156   2.870   7.381 -0.8168 -2.1336  1.1350
  498MOL0     H67201  -0.114   2.721   7.308  1.6970 -0.0503  0.0319
  498MOL0     H67202  -0.264   2.785   7.104  0.4305 -1.1042  1.5074
  498MOL0     H67203  -0.306   2.939   7.184 -0.1183  0.0112  0.2301
  498MOL0     H67204  -0.370   2.655   7.293  0.9827  0.0141 -2.4169
  498MOL0     H67205  -0.411   2.796   7.381  1.9953  0.1440  0.7262
  498MOL0     H67206  -0.501   2.713   7.108  2.2756 -2.7616  1.7359
  498MOL0     H67207  -0.540   2.876   7.175  0.3540  0.6956  0.7592
  498MOL0     H67208  -0.653   2.719   7.365 -1.2085 -0.4996 -0.3649
  498MOL0     H67209  -0.732   2.728   7.201  0.3055 -1.1171 -1.6839
  498MOL0     H67210   0.545   2.783   7.322 -2.2130 -0.1276 -2.4519
  498MOL0     H67211   0.773   2.845   7.262 -1.8750 -2.4936  0.0645
  498MOL0     H67212   1.170   3.147   7.263  0.0291  1.4083 -0.8724
  498MOL0     H67213   1.396   3.153   7.155  0.0051 -1.5520  0.9326
  498MOL0     H67214   0.726   3.409   7.325 -0.3096 -0.1941 -1.1661
  498MOL0     H67215   0.490   3.460   7.346 -1.3253  3.8911 -1.3919
  498MOL0     H67216   0.137   3.680   7.842 -0.9424  0.3878  1.0028
  498MOL0     H67217  -0.101   3.694   7.841  3.2768  4.6020  2.1498
  498MOL0     H67218  -0.334   3.612   7.473 -2.0653  0.8376 -1.4656
  498MOL0     H67219  -0.274   3.774   7.435 -1.7234 -1.2918 -2.6311
  498MOL0     H67220  -0.517   3.788   7.456 -0.7714 -1.7582 -0.9647
  498MOL0     H67221  -0.430   3.882   7.570  0.8463 -0.2647 -0.9657
  498MOL0     H67222  -0.630   3.762   7.674 -0.7247 -1.2427  1.0181
  498MOL0     H67223  -0.488   3.689   7.751 -1.6769 -0.5754  0.8146
  498MOL0     H67224  -0.587   3.560   7.493  0.4834 -2.2378 -0.0262
  498MOL0     H67225  -0.484   3.505   7.611  0.1627 -0.0278 -1.3903
  498MOL0     H67226  -0.865   3.431   7.806 -0.5801  1.7174 -0.3286
  498MOL0     H67227  -0.095   3.676   7.410  0.3819  1.5885 -0.4072
  498MOL0     H67228   0.097   3.674   7.273  0.3734 -3.1187 -2.2406
  498MOL0     H67229   0.255   3.703   7.361  1.2417 -2.2577  1.7903
  498MOL0     H67230   0.181   3.541   7.344 -4.9372 -1.1595  1.0603
  499MOL0     O67231   4.828   6.803   9.405 -1.2498 -0.6044  0.0731
  499MOL0     C67232   4.819   6.864   9.303  0.0530  0.2577  0.0169
  499MOL0     O67233   4.907   6.961   9.262  0.3243  0.8436  0.0359
  499MOL0     C67234   4.994   7.013   9.342 -0.3716 -0.1882 -0.7805
  499MOL0     C67235   5.125   6.962   9.359  0.2852 -0.2597 -0.2078
  499MOL0     C67236   5.223   7.027   9.433  0.0083  0.1892  0.3414
  499MOL0     C67237   5.194   7.146   9.499 -0.4765  0.4037 -0.3779
  499MOL0     O67238   5.287   7.227   9.567 -0.5500  0.1410  0.5053
  499MOL0     C67239   5.427   7.192   9.600  0.2730  0.1255 -0.0198
  499MOL0     C67240   5.421   7.077   9.698  0.8921  0.1724  0.0046
  499MOL0     C67241   5.562   7.034   9.746 -0.3984  0.5904  0.2861
  499MOL0     C67242   5.582   7.019   9.895  0.2370  0.2162 -0.4984
  499MOL0     C67243   5.730   6.999   9.935 -0.4168  1.1523  0.0209
  499MOL0     C67244   5.794   6.876   9.881 -0.5119  0.3922  0.0372
  499MOL0     C67245   5.949   6.888   9.895 -0.4432  0.9913 -0.8338
  499MOL0     C67246   6.026   6.770   9.829 -0.2464 -0.4707 -0.1835
  499MOL0     N67247   6.177   6.785   9.855  0.0424  0.4234  0.2071
  499MOL0     C67248   6.248   6.725   9.957 -0.3747  0.5289  0.1964
  499MOL0     C67249   6.373   6.775   9.948  0.0333  0.1420  0.8539
  499MOL0     C67250   6.488   6.713  10.023  0.4119  0.1668 -0.7290
  499MOL0     C67251   6.520   6.577   9.977 -0.0439 -0.0579 -0.1847
  499MOL0     C67252   6.597   6.486  10.082 -0.6228 -0.7522 -0.2839
  499MOL0     C67253   6.707   6.548  10.164  0.5139 -1.1379  0.1766
  499MOL0     O67254   6.798   6.591  10.063 -0.3261 -0.3056 -0.1415
  499MOL0     C67255   6.920   6.638  10.108  0.2300  0.6504  1.0117
  499MOL0     C67256   7.003   6.688  10.004 -0.4513  0.6484 -0.9796
  499MOL0     C67257   7.133   6.732  10.037  0.3150 -0.6024  0.5359
  499MOL0     C67258   7.185   6.718  10.169 -0.0275  0.6456  0.2706
  499MOL0     C67259   7.329   6.764  10.205  0.3194  0.1875  1.1482
  499MOL0     O67260   7.409   6.819  10.101  0.0439 -0.1392  0.2309
  499MOL0     C67261   7.540   6.850  10.115 -1.3759  0.6198 -0.4171
  499MOL0     C67262   7.629   6.789  10.196 -0.6387  0.4871  0.1109
  499MOL0     C67263   7.768   6.829  10.201  0.1765 -0.1122  0.4582
  499MOL0     C67264   7.813   6.924  10.113 -0.8088  0.7422  0.2682
  499MOL0     O67265   7.948   6.958  10.140  0.2821  0.8312 -0.2597
  499MOL0     C67266   7.995   7.064  10.063 -0.2557 -0.6684  0.0819
  499MOL0     C67267   8.133   7.111  10.118  0.3036  0.0925 -0.6902
  499MOL0     C67268   8.242   7.000  10.123  0.2363  0.0321  0.1987
  499MOL0     C67269   8.373   7.061  10.172 -0.6202 -0.5632 -0.5820
  499MOL0     C67270   8.484   6.960  10.154 -0.0254 -0.4575 -0.0715
  499MOL0     C67271   8.617   7.017  10.199 -0.6547  0.5094 -0.5702
  499MOL0     C67272   8.735   6.911  10.203  0.3027 -0.4724 -0.1733
  499MOL0     C67273   8.871   6.982  10.228 -0.5375 -0.1686 -1.1401
  499MOL0    Cl67274   8.912   7.095  10.101 -0.3107  0.0154  0.3001
  499MOL0     C67275   7.726   6.975  10.012 -0.0642 -0.7005  0.3447
  499MOL0     C67276   7.592   6.939  10.018  0.3345  1.2809  0.0188
  499MOL0     O67277   7.371   6.747  10.319  0.6186 -0.2289  0.0502
  499MOL0     C67278   7.100   6.658  10.268  0.3479 -1.1360  0.8806
  499MOL0     C67279   6.969   6.629  10.238  1.2192 -0.5532 -0.0956
  499MOL0     N67280   6.364   6.873   9.850 -0.6330  0.0149 -1.3990
  499MOL0     N67281   6.251   6.875   9.790  0.0518 -0.0854 -0.4591
  499MOL0     C67282   5.067   7.192   9.478  0.1238  0.7783  0.3238
  499MOL0     C67283   4.971   7.135   9.405  0.7414  0.0746 -0.1996
  499MOL0     C67284   4.717   6.818   9.200  0.0208  0.4479 -0.3967
  499MOL0     C67285   4.613   6.726   9.243 -0.3954 -0.2724  0.0140
  499MOL0     C67286   4.516   6.678   9.157 -0.3014 -0.4968 -0.6380
  499MOL0     C67287   4.515   6.713   9.026 -0.0391 -0.5851  0.1553
  499MOL0     O67288   4.417   6.667   8.941 -0.4563 -0.7697 -0.7178
  499MOL0     C67289   4.358   6.537   8.965 -0.0865 -0.0725 -0.9373
  499MOL0     C67290   4.286   6.492   8.833  0.0612  0.2426 -0.4760
  499MOL0     C67291   4.390   6.437   8.733  0.0381  0.9815  0.3918
  499MOL0     C67292   4.324   6.342   8.641 -0.8422  0.1161  0.5979
  499MOL0     C67293   4.224   6.415   8.561  1.0676  0.2308 -0.4032
  499MOL0     C67294   4.150   6.478   8.493  1.2398 -0.2897 -0.6595
  499MOL0     C67295   4.618   6.801   8.978  0.3443  0.2022  0.1125
  499MOL0     C67296   4.720   6.849   9.057 -0.0179 -1.0176 -0.1083
  499MOL0     C67297   4.815   6.954   8.995  0.4829 -0.0590  0.0861
  499MOL0     H67298   5.138   6.859   9.325  1.4285 -0.7843  1.6605
  499MOL0     H67299   5.322   6.983   9.433 -0.1433 -0.2058  1.9882
  499MOL0     H67300   5.473   7.153   9.509 -2.4706 -1.8598 -0.6533
  499MOL0     H67301   5.477   7.277   9.649 -2.5452  1.3998  0.8749
  499MOL0     H67302   5.378   6.986   9.654  0.7310 -0.1386  0.7802
  499MOL0     H67303   5.358   7.101   9.784  3.3611  1.7534  1.4615
  499MOL0     H67304   5.634   7.111   9.716 -1.0940  1.5257  0.9439
  499MOL0     H67305   5.593   6.948   9.687  2.8753  1.9519 -0.1918
  499MOL0     H67306   5.554   7.111   9.947  3.5976  1.6874 -1.0244
  499MOL0     H67307   5.521   6.934   9.928  2.0976 -0.1021  2.4380
  499MOL0     H67308   5.777   7.088   9.892 -0.7400  1.2353 -0.1639
  499MOL0     H67309   5.743   6.999  10.043  0.3355  1.1712 -0.0628
  499MOL0     H67310   5.757   6.792   9.942 -1.7516  3.2418  3.6104
  499MOL0     H67311   5.772   6.873   9.774 -3.2746  1.3961  0.4955
  499MOL0     H67312   5.982   6.890   9.999  0.8254  1.8451 -1.2257
  499MOL0     H67313   5.990   6.977   9.846  0.5337  0.5029 -0.9239
  499MOL0     H67314   5.996   6.672   9.866 -0.3804  0.1587  1.4596
  499MOL0     H67315   6.015   6.778   9.721  1.1024  0.0604 -0.3072
  499MOL0     H67316   6.206   6.643  10.014  0.4424 -0.9409 -1.2440
  499MOL0     H67317   6.576   6.776  10.005  0.4383  0.8478  1.5568
  499MOL0     H67318   6.463   6.716  10.129  2.6932 -1.6616 -0.0404
  499MOL0     H67319   6.431   6.524   9.941 -1.2770  2.2369 -0.7029
  499MOL0     H67320   6.567   6.588   9.879  0.8949 -0.5319  0.1985
  499MOL0     H67321   6.635   6.393  10.039 -1.7827 -1.7469  0.7700
  499MOL0     H67322   6.521   6.461  10.156 -0.5958  1.7675  0.6913
  499MOL0     H67323   6.758   6.474  10.227  0.3074 -2.6783 -1.3992
  499MOL0     H67324   6.668   6.631  10.223  1.3235  0.4902 -1.4502
  499MOL0     H67325   6.970   6.683   9.900 -0.2488 -1.9177 -0.9931
  499MOL0     H67326   7.197   6.768   9.958  0.4876 -0.3811  0.7739
  499MOL0     H67327   7.591   6.706  10.254 -0.6212  0.1561 -0.3444
  499MOL0     H67328   7.842   6.784  10.267  3.8715 -0.3143 -3.3565
  499MOL0     H67329   8.022   7.032   9.962  2.3950 -0.0571  0.5201
  499MOL0     H67330   7.920   7.143  10.051 -0.3690 -0.9908 -1.5158
  499MOL0     H67331   8.173   7.193  10.058  0.3628  0.0252 -0.7430
  499MOL0     H67332   8.122   7.147  10.220 -0.0233  1.0713 -1.0639
  499MOL0     H67333   8.212   6.918  10.188  0.8373 -0.5989 -0.3051
  499MOL0     H67334   8.242   6.966  10.019  1.3453  2.4892 -0.6961
  499MOL0     H67335   8.365   7.105  10.272  0.5503 -0.9342 -0.3105
  499MOL0     H67336   8.404   7.153  10.122  0.0789  2.1615  4.2628
  499MOL0     H67337   8.489   6.917  10.053 -0.4155 -0.5412 -0.0577
  499MOL0     H67338   8.452   6.873  10.212  1.5792 -1.0008  0.0435
  499MOL0     H67339   8.638   7.101  10.133 -1.1151  0.8149 -0.3298
  499MOL0     H67340   8.593   7.048  10.301 -1.7444 -0.6096 -0.4658
  499MOL0     H67341   8.750   6.856  10.110 -3.6400  1.1092 -1.9760
  499MOL0     H67342   8.719   6.840  10.285 -1.6585  0.8596  0.6649
  499MOL0     H67343   8.865   7.048  10.315 -2.1228  1.4344 -2.4104
  499MOL0     H67344   8.953   6.909  10.229  1.4179  1.9201 -0.3056
  499MOL0     H67345   7.749   7.052   9.939 -1.9500  0.4786  0.9485
  499MOL0     H67346   7.528   6.988   9.945  0.5515  1.0105 -0.3594
  499MOL0     H67347   7.130   6.657  10.373 -1.5179 -0.5389  1.4589
  499MOL0     H67348   6.903   6.594  10.317  1.0320 -0.5524 -0.2526
  499MOL0     H67349   5.053   7.297   9.503 -0.5062  0.9637 -0.7375
  499MOL0     H67350   4.882   7.195   9.386  1.9190  2.2909  0.8344
  499MOL0     H67351   4.605   6.688   9.344 -3.6505 -0.0178 -0.0595
  499MOL0     H67352   4.436   6.611   9.186 -0.4820 -1.5609 -3.2655
  499MOL0     H67353   4.279   6.555   9.039 -0.8590 -0.0715 -1.7460
  499MOL0     H67354   4.426   6.459   9.000 -0.7565 -0.8267 -1.2754
  499MOL0     H67355   4.227   6.575   8.791  1.4053  1.1066 -0.7168
  499MOL0     H67356   4.215   6.412   8.856 -1.4103  1.9007  1.1766
  499MOL0     H67357   4.469   6.385   8.787  0.4185  0.5149 -0.5960
  499MOL0     H67358   4.439   6.515   8.674  0.7580  0.3683  0.1715
  499MOL0     H67359   4.394   6.302   8.567 -1.2391 -1.2921  0.9532
  499MOL0     H67360   4.290   6.260   8.705  0.0704 -1.0217 -0.3473
  499MOL0     H67361   4.087   6.546   8.440  0.5885  0.2677  0.7661
  499MOL0     H67362   4.607   6.831   8.874  0.2290  0.9587  0.3322
  499MOL0     H67363   4.922   6.932   9.006  0.3045 -2.7511 -2.2734
  499MOL0     H67364   4.798   6.970   8.888  0.4888  0.9039  0.2222
  499MOL0     H67365   4.802   7.049   9.047  0.5737  0.6870 -1.2265
  500MOL0     O67366   4.510   3.583   4.313  0.0843  0.6290 -0.3894
  500MOL0     C67367   4.502   3.704   4.342  0.2581 -0.4661 -0.2956
  500MOL0     O67368   4.611   3.787   4.359  0.1631 -0.1874 -0.1527
  500MOL0     C67369   4.742   3.753   4.377 -0.2563 -0.3188 -0.6674
  500MOL0     C67370   4.801   3.620   4.383 -0.3470 -0.5393 -0.8829
  500MOL0     C67371   4.940   3.608   4.376  0.1585 -0.0515 -0.1449
  500MOL0     C67372   5.021   3.727   4.376  0.6572  0.0077  0.5686
  500MOL0     O67373   5.155   3.714   4.394 -0.3834  0.3064 -0.2820
  500MOL0     C67374   5.239   3.797   4.329 -0.1653  0.1259  0.1571
  500MOL0     C67375   5.372   3.726   4.331  0.1139 -0.1266 -0.3665
  500MOL0     C67376   5.494   3.806   4.315 -0.5433  0.2127 -0.1688
  500MOL0     C67377   5.624   3.729   4.300 -0.0361 -0.1513 -0.4418
  500MOL0     C67378   5.735   3.809   4.216  0.5019  0.1325  0.1347
  500MOL0     C67379   5.856   3.729   4.218 -0.1219 -0.1410 -0.1305
  500MOL0     C67380   5.963   3.822   4.159  0.1604 -1.2525 -1.1035
  500MOL0     C67381   6.112   3.768   4.172  1.4471 -0.0656  0.9227
  500MOL0     N67382   6.196   3.873   4.113 -0.0397 -0.4915 -1.0391
  500MOL0     C67383   6.224   3.900   3.983  0.0224 -0.1917 -0.2682
  500MOL0     C67384   6.330   3.982   3.978  0.3441  0.8615 -0.4295
  500MOL0     C67385   6.384   4.066   3.870 -0.0336 -0.4031  0.3086
  500MOL0     C67386   6.449   3.983   3.762 -0.2725 -1.2134  0.5419
  500MOL0     C67387   6.515   4.075   3.665 -0.4705 -0.1584 -0.1798
  500MOL0     C67388   6.633   4.160   3.718  0.0936 -0.2693  0.2066
  500MOL0     O67389   6.737   4.080   3.767 -1.2097  0.6148  0.0242
  500MOL0     C67390   6.819   4.124   3.861  0.3157 -0.7326 -0.3893
  500MOL0     C67391   6.900   4.021   3.913 -0.3989 -0.2327  0.3349
  500MOL0     C67392   6.981   4.050   4.023 -0.8919 -0.1533 -0.3524
  500MOL0     C67393   6.998   4.178   4.088 -0.5956  0.2097 -0.5821
  500MOL0     C67394   7.100   4.217   4.185  0.7712  1.2488 -0.0137
  500MOL0     O67395   7.112   4.351   4.226  0.0234  0.3639  0.5440
  500MOL0     C67396   7.215   4.382   4.308  0.1367 -0.3020  0.3736
  500MOL0     C67397   7.196   4.496   4.388  0.6541  0.5219 -0.6413
  500MOL0     C67398   7.289   4.531   4.485 -0.1555 -0.6060  0.2928
  500MOL0     C67399   7.407   4.459   4.491  0.3938 -0.5795  0.2556
  500MOL0     O67400   7.502   4.502   4.580 -0.4105  0.3187  0.3475
  500MOL0     C67401   7.554   4.403   4.677  0.0894 -0.7505 -0.7485
  500MOL0     C67402   7.592   4.488   4.801 -0.7259 -0.3995 -0.0094
  500MOL0     C67403   7.704   4.587   4.755 -0.2359  0.1998 -0.0880
  500MOL0     C67404   7.787   4.636   4.870 -0.1613 -0.3190 -0.1719
  500MOL0     C67405   7.851   4.775   4.851 -0.0576  0.1529  0.0141
  500MOL0     C67406   7.933   4.826   4.971 -0.5534  1.3232 -0.2474
  500MOL0     C67407   7.959   4.974   4.958 -0.3337  0.2903 -0.5664
  500MOL0     C67408   8.027   5.029   4.829  0.5675  0.5315  0.1589
  500MOL0    Cl67409   8.193   4.976   4.853  0.0739 -0.0754  0.2458
  500MOL0     C67410   7.438   4.358   4.401 -0.4147  0.4495  0.0035
  500MOL0     C67411   7.347   4.326   4.302 -0.0295  0.0381  0.3004
  500MOL0     O67412   7.163   4.119   4.231 -0.0028 -0.0298 -0.8702
  500MOL0     C67413   6.913   4.277   4.032  0.4185  0.3092 -0.8209
  500MOL0     C67414   6.831   4.251   3.927  0.2265 -0.5022  0.1043
  500MOL0     N67415   6.352   4.017   4.111 -0.0747  0.0624  0.2899
  500MOL0     N67416   6.282   3.941   4.195 -0.1871  0.0663  0.1358
  500MOL0     C67417   4.958   3.855   4.370 -0.3472 -0.4091 -0.3440
  500MOL0     C67418   4.826   3.863   4.362  0.4949  0.2396 -0.0404
  500MOL0     C67419   4.368   3.778   4.336  0.3495  0.9696  0.3246
  500MOL0     C67420   4.262   3.712   4.269  0.2049 -0.1220 -0.5854
  500MOL0     C67421   4.142   3.780   4.247 -0.0173 -0.1725  0.4939
  500MOL0     C67422   4.119   3.911   4.291 -0.7773  0.1271  0.6554
  500MOL0     O67423   4.016   3.996   4.258 -0.0593 -0.1552 -0.4497
  500MOL0     C67424   3.909   3.956   4.167  0.3605 -0.0223 -0.2984
  500MOL0     C67425   3.818   4.068   4.137  0.1719 -0.4141  0.4117
  500MOL0     C67426   3.771   4.139   4.264  0.1951 -0.0926  0.4936
  500MOL0     C67427   3.641   4.224   4.249 -0.6998  0.0530 -0.3819
  500MOL0     C67428   3.606   4.284   4.375 -0.2513 -0.0489 -0.1645
  500MOL0     C67429   3.568   4.344   4.472  0.2700 -0.5517 -0.4655
  500MOL0     C67430   4.225   3.972   4.367 -0.1796 -0.2095 -0.1418
  500MOL0     C67431   4.346   3.908   4.387 -0.9437 -0.2222  0.2043
  500MOL0     C67432   4.445   3.987   4.472 -0.4105 -0.9477 -0.1479
  500MOL0     H67433   4.733   3.535   4.385 -0.3634 -0.5462  1.8345
  500MOL0     H67434   4.983   3.509   4.370  0.3460  0.0445 -0.3942
  500MOL0     H67435   5.205   3.811   4.226  0.6177  0.7328 -0.0291
  500MOL0     H67436   5.239   3.890   4.387  0.1219  0.4909 -0.4160
  500MOL0     H67437   5.370   3.636   4.269  1.5673 -0.9385  0.7028
  500MOL0     H67438   5.387   3.689   4.433  0.9221  1.2654  0.0442
  500MOL0     H67439   5.510   3.864   4.405  0.5012  1.0496 -0.8715
  500MOL0     H67440   5.491   3.871   4.227 -1.4233 -1.1157 -1.1834
  500MOL0     H67441   5.669   3.717   4.399  0.5535  0.8764 -0.5702
  500MOL0     H67442   5.604   3.632   4.252  0.3655  0.5390 -2.0891
  500MOL0     H67443   5.696   3.823   4.115 -0.2671  0.0598  0.4188
  500MOL0     H67444   5.752   3.913   4.243  1.0327  0.1294 -0.1692
  500MOL0     H67445   5.895   3.698   4.315  0.0320  0.1513 -0.1004
  500MOL0     H67446   5.857   3.643   4.149  2.4926  1.8673 -2.8773
  500MOL0     H67447   5.963   3.921   4.203 -2.8610 -2.1540  1.2146
  500MOL0     H67448   5.944   3.822   4.051 -0.6814 -3.5232 -1.0068
  500MOL0     H67449   6.140   3.735   4.273  2.3678  1.3770  1.1752
  500MOL0     H67450   6.129   3.686   4.102  0.6107  2.1894 -2.1015
  500MOL0     H67451   6.175   3.866   3.893  0.4427  1.4758 -1.1657
  500MOL0     H67452   6.299   4.118   3.824  0.7804  0.7458  0.0395
  500MOL0     H67453   6.454   4.137   3.915  1.9576 -0.3469 -2.6176
  500MOL0     H67454   6.532   3.928   3.808  1.6202  0.8114 -0.2960
  500MOL0     H67455   6.376   3.920   3.711 -0.0299 -0.2898 -1.0046
  500MOL0     H67456   6.445   4.143   3.615  1.0890  1.1762 -0.6499
  500MOL0     H67457   6.546   4.012   3.581 -2.4481 -1.1994 -0.1816
  500MOL0     H67458   6.607   4.229   3.798  1.0249  2.9141 -2.0107
  500MOL0     H67459   6.675   4.224   3.639 -0.5088  2.9040  2.2808
  500MOL0     H67460   6.894   3.922   3.869 -1.5105 -0.1583  0.2773
  500MOL0     H67461   7.040   3.967   4.063 -2.5725 -2.9524 -3.2336
  500MOL0     H67462   7.105   4.554   4.375 -0.6946 -1.4585 -0.5328
  500MOL0     H67463   7.280   4.599   4.569  1.1844  0.0260 -0.0491
  500MOL0     H67464   7.473   4.334   4.702  0.8531 -1.3514  0.1276
  500MOL0     H67465   7.640   4.356   4.629  0.7586  0.2196 -0.5232
  500MOL0     H67466   7.506   4.552   4.821 -1.4745 -1.2616 -0.4093
  500MOL0     H67467   7.620   4.435   4.893 -0.9657 -1.0110 -0.2885
  500MOL0     H67468   7.772   4.541   4.682  1.4268  0.5048  1.2042
  500MOL0     H67469   7.665   4.681   4.715  3.4519  2.0331  0.1358
  500MOL0     H67470   7.870   4.571   4.896 -1.4868 -1.9591  0.1069
  500MOL0     H67471   7.722   4.634   4.958  0.4200 -1.8751  0.2522
  500MOL0     H67472   7.774   4.852   4.839  2.6664  2.8395 -1.6509
  500MOL0     H67473   7.911   4.784   4.760 -0.6070  1.4934 -0.2356
  500MOL0     H67474   7.882   4.805   5.065  3.2502  1.5090  2.0904
  500MOL0     H67475   8.032   4.778   4.972 -0.7443  0.8688 -1.3323
  500MOL0     H67476   8.016   5.008   5.044  0.1326  1.0107 -1.1519
  500MOL0     H67477   7.862   5.024   4.962  0.1375  1.1372  1.4492
  500MOL0     H67478   7.989   4.992   4.733 -2.5090 -1.1055  1.8470
  500MOL0     H67479   8.021   5.139   4.829  2.1138  0.6605  1.8665
  500MOL0     H67480   7.537   4.314   4.393 -0.4252  0.5643 -0.9534
  500MOL0     H67481   7.382   4.255   4.228  0.4818  0.5441  0.0498
  500MOL0     H67482   6.913   4.376   4.078  3.7902 -0.5836  1.4519
  500MOL0     H67483   6.764   4.330   3.894 -1.1740 -1.5144  0.4466
  500MOL0     H67484   5.006   3.952   4.380  0.9730 -1.2948  3.2038
  500MOL0     H67485   4.769   3.955   4.352  0.3684  0.3697  1.6101
  500MOL0     H67486   4.281   3.614   4.225 -1.5267 -0.7792  0.0662
  500MOL0     H67487   4.059   3.722   4.210 -0.2918  0.0480  0.7577
  500MOL0     H67488   3.839   3.882   4.205  0.0750  0.6148  0.4452
  500MOL0     H67489   3.947   3.918   4.072 -1.1538 -0.0058 -0.9376
  500MOL0     H67490   3.735   4.033   4.076  1.4230 -0.1797 -1.5200
  500MOL0     H67491   3.876   4.147   4.088  0.9903 -2.1197 -1.5243
  500MOL0     H67492   3.858   4.200   4.290  0.3618 -0.0097 -0.2528
  500MOL0     H67493   3.742   4.069   4.343 -1.2832 -0.3840 -0.2668
  500MOL0     H67494   3.661   4.297   4.170  0.5693 -0.4500 -0.5520
  500MOL0     H67495   3.562   4.156   4.216 -1.2852 -0.6080  2.2250
  500MOL0     H67496   3.553   4.394   4.565 -0.6675 -2.5075  0.4696
  500MOL0     H67497   4.211   4.065   4.421  3.0156  0.9247 -1.0495
  500MOL0     H67498   4.520   4.032   4.406  0.8497 -0.5032  1.5031
  500MOL0     H67499   4.399   4.063   4.535  2.0181  1.4941 -1.1347
  500MOL0     H67500   4.495   3.923   4.546 -0.0634  0.3709  0.7912
  501MOL0     O67501   9.937   9.439   7.570  0.7514  0.0036 -0.5925
  501MOL0     C67502   9.886   9.335   7.539 -1.0618 -0.8536  0.1102
  501MOL0     O67503   9.945   9.228   7.472  0.0461 -0.3683 -0.7236
  501MOL0     C67504  10.076   9.215   7.498 -1.4188  0.1783 -0.7534
  501MOL0     C67505  10.149   9.158   7.392 -0.2290 -0.2228 -0.4552
  501MOL0     C67506  10.285   9.141   7.394 -0.3369 -0.0059  0.9085
  501MOL0     C67507  10.362   9.164   7.506  0.0327 -0.3611 -0.0398
  501MOL0     O67508  10.493   9.117   7.515  0.4070 -0.4076 -0.5671
  501MOL0     C67509  10.596   9.212   7.513  0.4945 -0.1054 -0.5235
  501MOL0     C67510  10.728   9.156   7.570 -0.0104 -0.2651  0.5595
  501MOL0     C67511  10.815   9.075   7.470  0.5297  0.2632  0.8948
  501MOL0     C67512  10.960   9.057   7.516  0.5939 -0.1103  0.0036
  501MOL0     C67513  10.962   8.957   7.628 -0.7705  0.6910  0.1576
  501MOL0     C67514  11.100   8.906   7.667 -0.3617 -0.4846 -0.1204
  501MOL0     C67515  11.181   8.855   7.545  0.1060 -0.3700 -0.3287
  501MOL0     C67516  11.308   8.779   7.600 -1.0311 -0.2591  0.5619
  501MOL0     N67517  11.425   8.866   7.632  0.1450  0.1677 -0.2291
  501MOL0     C67518  11.478   8.955   7.547 -0.0421  0.0180  0.1029
  501MOL0     C67519  11.568   9.018   7.613 -0.0047  0.0889 -0.7901
  501MOL0     C67520  11.654   9.131   7.567  0.9934  0.0355 -0.0499
  501MOL0     C67521  11.656   9.237   7.676 -0.1740 -0.2355  0.4327
  501MOL0     C67522  11.555   9.356   7.657  0.3253 -0.0503  0.5703
  501MOL0     C67523  11.413   9.319   7.691  0.8696  0.2134  0.7869
  501MOL0     O67524  11.325   9.431   7.689  0.2230  0.1408 -0.0926
  501MOL0     C67525  11.187   9.414   7.705 -0.7855  0.6234 -1.0920
  501MOL0     C67526  11.103   9.523   7.667 -0.4583 -0.6479  0.1905
  501MOL0     C67527  10.970   9.533   7.711  0.9305 -0.0746  0.0969
  501MOL0     C67528  10.910   9.428   7.779 -0.3765 -0.0330  0.6015
  501MOL0     C67529  10.762   9.428   7.819 -0.0543  0.5932 -0.0152
  501MOL0     O67530  10.717   9.314   7.866 -0.2633  0.3555 -0.8206
  501MOL0     C67531  10.587   9.292   7.912  0.5155 -0.8825 -0.1504
  501MOL0     C67532  10.495   9.394   7.952 -0.8098  0.3586  0.6412
  501MOL0     C67533  10.369   9.363   8.008 -0.1243  1.1547  0.6597
  501MOL0     C67534  10.323   9.230   8.008  0.4180 -0.7542  0.1410
  501MOL0     O67535  10.195   9.189   8.045 -0.0124 -0.7982  0.3105
  501MOL0     C67536  10.093   9.287   8.074 -0.4031  0.5479 -0.6178
  501MOL0     C67537   9.960   9.220   8.101  0.4989 -0.8753 -0.3520
  501MOL0     C67538   9.850   9.330   8.138  0.3480 -0.0604 -0.0632
  501MOL0     C67539   9.720   9.274   8.193  0.0551  0.3939  0.2300
  501MOL0     C67540   9.617   9.389   8.211  0.7028 -0.0384 -0.5277
  501MOL0     C67541   9.476   9.339   8.258  0.5772 -0.1692  0.1060
  501MOL0     C67542   9.373   9.447   8.230  1.5024  0.8429 -0.8567
  501MOL0     C67543   9.242   9.392   8.295 -0.6119 -0.3421  0.7280
  501MOL0    Cl67544   9.260   9.427   8.470 -0.3708 -0.2543 -0.3418
  501MOL0     C67545  10.415   9.133   7.967  0.0284 -0.2270 -0.3705
  501MOL0     C67546  10.540   9.164   7.919 -0.6775 -0.5961 -1.1607
  501MOL0     O67547  10.696   9.530   7.797 -0.6748  0.5601 -0.3584
  501MOL0     C67548  10.989   9.315   7.811 -0.0029  0.2150 -0.5099
  501MOL0     C67549  11.124   9.306   7.775  0.5578  0.3514  0.0304
  501MOL0     N67550  11.576   8.963   7.742  0.3808  0.3009 -0.7149
  501MOL0     N67551  11.484   8.872   7.750  0.6257  0.1414 -0.0302
  501MOL0     C67552  10.300   9.227   7.615 -0.2243 -0.1075 -0.7117
  501MOL0     C67553  10.160   9.251   7.608 -0.3337  0.2017 -0.4743
  501MOL0     C67554   9.752   9.316   7.594  0.7447  0.6083 -0.0816
  501MOL0     C67555   9.735   9.349   7.733 -0.7481 -0.2639  0.1568
  501MOL0     C67556   9.608   9.346   7.789 -0.0262 -0.1638  0.9161
  501MOL0     C67557   9.499   9.290   7.728 -0.0303 -0.0904  0.1234
  501MOL0     O67558   9.377   9.285   7.795 -0.1809  0.5486 -0.1747
  501MOL0     C67559   9.264   9.225   7.735 -0.7282 -0.1295  0.1666
  501MOL0     C67560   9.140   9.265   7.807  0.0134  0.0229 -0.3118
  501MOL0     C67561   9.121   9.413   7.787  0.3070 -0.9666  0.2246
  501MOL0     C67562   8.982   9.460   7.802  0.0575 -0.4826  0.3293
  501MOL0     C67563   8.945   9.446   7.950  0.0691  0.2187 -0.1881
  501MOL0     C67564   8.944   9.426   8.064  0.4346  0.2066  0.3011
  501MOL0     C67565   9.524   9.241   7.600 -0.8660  0.1162  0.5258
  501MOL0     C67566   9.648   9.260   7.521  0.4535  0.7298 -0.5761
  501MOL0     C67567   9.660   9.201   7.385 -0.3520  1.4368  0.4365
  501MOL0     H67568  10.085   9.130   7.309 -1.4715  0.8968  0.0911
  501MOL0     H67569  10.328   9.082   7.314 -0.7765  1.7596 -0.7174
  501MOL0     H67570  10.602   9.242   7.408  1.2116 -1.8530 -1.0274
  501MOL0     H67571  10.564   9.291   7.581 -0.5881 -1.4481  0.5819
  501MOL0     H67572  10.716   9.097   7.661  2.2546 -1.3513  0.2406
  501MOL0     H67573  10.779   9.245   7.609 -0.0601 -0.2312  0.5479
  501MOL0     H67574  10.810   9.124   7.373 -2.5800 -2.1116 -0.3164
  501MOL0     H67575  10.768   8.977   7.453  2.0543 -1.0407  3.3916
  501MOL0     H67576  11.011   9.025   7.424 -0.4380 -1.4610 -0.1325
  501MOL0     H67577  10.996   9.151   7.557 -1.6119 -0.5728  3.4437
  501MOL0     H67578  10.927   9.007   7.719 -2.2425  0.2192 -0.1200
  501MOL0     H67579  10.900   8.873   7.597  1.7075 -0.3186 -2.4770
  501MOL0     H67580  11.166   8.978   7.716 -1.0403 -2.1264  3.6389
  501MOL0     H67581  11.074   8.830   7.742 -2.5458  0.5581  0.2505
  501MOL0     H67582  11.204   8.924   7.464 -1.1241 -1.3284 -1.5412
  501MOL0     H67583  11.119   8.777   7.500  0.0993 -0.6150  0.0940
  501MOL0     H67584  11.273   8.717   7.684 -0.4137 -0.5721  0.5966
  501MOL0     H67585  11.343   8.703   7.529  2.3565  0.9834  0.7178
  501MOL0     H67586  11.455   8.978   7.443 -0.1249  0.4970  0.2276
  501MOL0     H67587  11.751   9.084   7.549  0.4552 -0.6553 -1.2621
  501MOL0     H67588  11.617   9.164   7.470 -1.0000 -1.4708  0.1434
  501MOL0     H67589  11.653   9.209   7.782  2.1001  1.7363  1.1179
  501MOL0     H67590  11.750   9.292   7.664 -0.6237  0.4478  0.0189
  501MOL0     H67591  11.554   9.379   7.550 -1.4068 -3.7973 -0.3956
  501MOL0     H67592  11.587   9.448   7.706 -2.7426  2.9238 -2.4414
  501MOL0     H67593  11.415   9.273   7.790 -4.2558 -0.6955  0.7092
  501MOL0     H67594  11.379   9.244   7.621  0.9851 -0.0172  0.9767
  501MOL0     H67595  11.147   9.604   7.609 -0.7150  1.8213  3.2028
  501MOL0     H67596  10.908   9.619   7.688 -0.2208 -0.2765  2.1926
  501MOL0     H67597  10.527   9.496   7.932  0.4091 -0.0303  0.5021
  501MOL0     H67598  10.310   9.452   8.028  1.0301  1.8793  0.9418
  501MOL0     H67599  10.116   9.350   8.161 -1.3338  3.3610 -2.2944
  501MOL0     H67600  10.080   9.358   7.993  1.5661 -0.7889 -2.2290
  501MOL0     H67601   9.925   9.177   8.007  2.7706 -2.3749 -0.5722
  501MOL0     H67602   9.977   9.142   8.177  1.1720 -0.4258 -0.0390
  501MOL0     H67603   9.883   9.392   8.221  1.7375 -0.4128 -0.3251
  501MOL0     H67604   9.836   9.384   8.043 -3.4767 -0.2200  0.2325
  501MOL0     H67605   9.731   9.221   8.288 -0.8552 -3.0218 -1.4031
  501MOL0     H67606   9.673   9.205   8.123 -1.2402  0.9459  0.5250
  501MOL0     H67607   9.611   9.446   8.118  0.3879  1.7301  0.5407
  501MOL0     H67608   9.646   9.464   8.285  1.5212 -0.7627 -0.0777
  501MOL0     H67609   9.454   9.246   8.204  2.1075  0.4823 -1.7866
  501MOL0     H67610   9.479   9.323   8.366  0.7132 -3.7256 -0.2976
  501MOL0     H67611   9.364   9.453   8.121  2.5469 -2.4296 -1.1977
  501MOL0     H67612   9.408   9.545   8.266  0.3867  0.5829  1.1058
  501MOL0     H67613   9.160   9.451   8.255 -0.9420 -0.1755  1.6388
  501MOL0     H67614   9.222   9.285   8.279  1.4607 -0.6200 -0.4567
  501MOL0     H67615  10.364   9.037   7.967 -2.1278  0.8456  0.0456
  501MOL0     H67616  10.600   9.079   7.888  0.3160  0.1114 -1.2313
  501MOL0     H67617  10.954   9.222   7.853  0.3517 -0.3465 -1.4306
  501MOL0     H67618  11.170   9.209   7.790  1.3440  0.7071 -0.0414
  501MOL0     H67619  10.353   9.248   7.708 -3.2208 -0.0311  1.1032
  501MOL0     H67620  10.120   9.301   7.695  0.2968  0.1406 -0.1416
  501MOL0     H67621   9.814   9.399   7.788 -3.8477  2.9637  2.1659
  501MOL0     H67622   9.585   9.375   7.891 -1.3345  1.4773  0.1976
  501MOL0     H67623   9.254   9.116   7.739 -1.0664 -0.0739  2.2759
  501MOL0     H67624   9.263   9.233   7.626 -1.6064 -2.1217 -0.0228
  501MOL0     H67625   9.147   9.244   7.914  0.4317  1.0401 -0.1246
  501MOL0     H67626   9.060   9.203   7.766  0.8997 -1.3773  0.0080
  501MOL0     H67627   9.151   9.433   7.683  0.3901 -0.4291  0.3461
  501MOL0     H67628   9.186   9.461   7.861 -0.4357  2.6115 -1.2180
  501MOL0     H67629   8.971   9.560   7.759  1.5774 -1.5946 -3.0736
  501MOL0     H67630   8.916   9.399   7.739  3.1633 -2.8345 -0.9266
  501MOL0     H67631   8.941   9.402   8.168  0.8016  1.0811  0.5190
  501MOL0     H67632   9.459   9.171   7.548  2.0158 -1.1131 -1.7048
  501MOL0     H67633   9.748   9.229   7.326 -1.1640  0.5743 -1.2372
  501MOL0     H67634   9.655   9.092   7.391  2.1668  1.3122  3.3463
  501MOL0     H67635   9.569   9.223   7.330  0.8819  1.2287 -1.8445
  502MOL0     O67636   4.093   3.920   7.456 -0.3293 -0.4029 -0.1955
  502MOL0     C67637   4.117   3.816   7.516 -0.0397  0.5767  0.3841
  502MOL0     O67638   4.247   3.766   7.551  0.9484 -0.3658 -0.1071
  502MOL0     C67639   4.345   3.858   7.532 -0.3913  0.0019  0.0577
  502MOL0     C67640   4.409   3.912   7.636 -0.7742  0.3790  0.1832
  502MOL0     C67641   4.507   4.011   7.624 -0.0161 -0.3458  0.2428
  502MOL0     C67642   4.539   4.059   7.495 -0.2825 -0.2187 -1.0845
  502MOL0     O67643   4.636   4.151   7.495  0.1573 -0.2888  0.4444
  502MOL0     C67644   4.646   4.232   7.378 -0.1690  0.0624 -0.3958
  502MOL0     C67645   4.527   4.320   7.353 -0.2386 -0.0401  0.6488
  502MOL0     C67646   4.513   4.428   7.465 -0.5217  0.2408  0.4849
  502MOL0     C67647   4.430   4.545   7.411 -0.1220 -0.3439 -0.1951
  502MOL0     C67648   4.424   4.657   7.523  0.1722  0.0280 -0.0295
  502MOL0     C67649   4.336   4.767   7.463  0.0634 -0.7606 -1.0821
  502MOL0     C67650   4.297   4.869   7.580 -0.3245 -0.2074 -0.2227
  502MOL0     C67651   4.203   4.986   7.541  0.1865 -0.4809  0.9796
  502MOL0     N67652   4.243   5.073   7.425 -0.6426 -0.3467 -0.1390
  502MOL0     C67653   4.364   5.126   7.405 -0.4120 -0.2927 -0.3625
  502MOL0     C67654   4.352   5.217   7.305  0.5184 -0.7896 -0.2565
  502MOL0     C67655   4.458   5.311   7.250  0.2600 -0.8347  0.5767
  502MOL0     C67656   4.522   5.269   7.121 -0.8982 -0.8426  0.5779
  502MOL0     C67657   4.627   5.378   7.092 -0.8194 -0.3704 -0.0539
  502MOL0     C67658   4.672   5.372   6.949  0.3960 -0.5840  0.1669
  502MOL0     O67659   4.723   5.246   6.924  0.0052 -0.4083 -0.0963
  502MOL0     C67660   4.861   5.223   6.925  0.0780  1.1527  0.5646
  502MOL0     C67661   4.956   5.311   6.993  0.0770  0.0559  0.0102
  502MOL0     C67662   5.086   5.274   7.004 -0.2327  0.9943 -0.1834
  502MOL0     C67663   5.143   5.158   6.949  0.7204  1.0689  0.4422
  502MOL0     C67664   5.285   5.135   6.952  0.0646  0.2981 -0.1454
  502MOL0     O67665   5.336   5.015   6.901  0.2505 -0.1086  0.1429
  502MOL0     C67666   5.467   4.991   6.883 -0.0303  0.6784  0.7076
  502MOL0     C67667   5.499   4.858   6.853 -0.1042  0.5875  0.0847
  502MOL0     C67668   5.634   4.814   6.825 -0.0959 -0.0882 -0.0145
  502MOL0     C67669   5.741   4.908   6.843  0.1706 -0.2891  0.1405
  502MOL0     O67670   5.873   4.876   6.813  0.0178 -0.2652 -0.1574
  502MOL0     C67671   5.940   4.777   6.891  0.1846 -0.2611 -0.1950
  502MOL0     C67672   6.068   4.757   6.816 -0.7466  0.6063  0.2276
  502MOL0     C67673   6.150   4.670   6.907  0.1205 -0.0892  0.2941
  502MOL0     C67674   6.302   4.660   6.864 -0.4162  0.1883  0.0321
  502MOL0     C67675   6.381   4.550   6.932 -0.2119 -0.6017 -0.2177
  502MOL0     C67676   6.520   4.527   6.873 -0.2940 -0.0065 -0.3672
  502MOL0     C67677   6.593   4.421   6.958  0.1540  0.6495 -0.2489
  502MOL0     C67678   6.729   4.382   6.893  1.1837  0.0175  0.4102
  502MOL0    Cl67679   6.853   4.516   6.930 -0.4452 -0.0764 -0.2836
  502MOL0     C67680   5.704   5.047   6.871 -0.1653 -0.5186  0.1359
  502MOL0     C67681   5.574   5.082   6.885 -0.1622 -0.3980 -0.7384
  502MOL0     O67682   5.348   5.218   7.023 -0.1525  0.1355  0.2623
  502MOL0     C67683   5.050   5.072   6.878  0.1900 -1.0385 -0.0729
  502MOL0     C67684   4.914   5.103   6.874 -0.2860 -0.2639  0.1584
  502MOL0     N67685   4.230   5.216   7.264  0.3190  1.0054  0.0878
  502MOL0     N67686   4.162   5.135   7.340  0.6074  0.1759  0.2333
  502MOL0     C67687   4.479   3.997   7.384  0.0580  0.3796 -0.7573
  502MOL0     C67688   4.386   3.897   7.403  0.7564 -0.3773  0.3539
  502MOL0     C67689   4.002   3.725   7.546  0.6886 -0.3605 -0.4068
  502MOL0     C67690   3.929   3.741   7.664  0.5759  0.2811  1.3224
  502MOL0     C67691   3.816   3.654   7.690 -0.8699 -0.2015  0.2914
  502MOL0     C67692   3.787   3.551   7.608  0.4943 -0.2890  0.0347
  502MOL0     O67693   3.683   3.462   7.620  0.2181 -0.0359 -0.2286
  502MOL0     C67694   3.567   3.520   7.668  0.0870 -0.7997 -0.2978
  502MOL0     C67695   3.449   3.426   7.668  0.3735 -0.2957 -0.0345
  502MOL0     C67696   3.335   3.502   7.734  0.0489 -0.5676 -0.1109
  502MOL0     C67697   3.208   3.428   7.730  0.6612  0.0901  0.6284
  502MOL0     C67698   3.220   3.311   7.812 -0.1395 -0.7913 -0.3610
  502MOL0     C67699   3.243   3.206   7.876  0.2378 -1.0198  0.7693
  502MOL0     C67700   3.867   3.541   7.490  0.5079  0.1034  0.3858
  502MOL0     C67701   3.977   3.620   7.454 -0.1702  0.5952 -0.2218
  502MOL0     C67702   4.054   3.601   7.327  0.0576 -0.4975  0.0500
  502MOL0     H67703   4.394   3.877   7.738 -0.1669 -1.4242 -0.3177
  502MOL0     H67704   4.561   4.046   7.711 -1.5230  1.5986  0.4593
  502MOL0     H67705   4.738   4.291   7.376  1.1544 -1.9054 -1.1398
  502MOL0     H67706   4.653   4.161   7.296 -0.8564 -0.8414  0.3018
  502MOL0     H67707   4.437   4.262   7.331 -0.9631  1.8285 -1.7938
  502MOL0     H67708   4.547   4.367   7.256 -2.2044  1.2156  0.8115
  502MOL0     H67709   4.614   4.466   7.485  0.2188  0.4179 -2.9078
  502MOL0     H67710   4.466   4.388   7.555  2.3454 -0.6815  1.6993
  502MOL0     H67711   4.466   4.583   7.315 -0.1908 -0.7948 -0.3997
  502MOL0     H67712   4.332   4.500   7.395 -0.3789  0.3246 -0.5531
  502MOL0     H67713   4.379   4.630   7.619  1.2767  2.4081  1.2296
  502MOL0     H67714   4.518   4.708   7.545 -0.9733  3.2028 -1.7827
  502MOL0     H67715   4.400   4.813   7.387  0.7685 -1.2320 -0.7777
  502MOL0     H67716   4.246   4.734   7.411 -1.4741  1.6885 -0.1722
  502MOL0     H67717   4.393   4.905   7.619 -0.5510 -0.4121  0.5307
  502MOL0     H67718   4.242   4.817   7.658  0.6048  0.4783  0.9163
  502MOL0     H67719   4.106   4.946   7.510  0.0649  1.3224 -1.2586
  502MOL0     H67720   4.184   5.059   7.620  0.9728  1.2078 -0.3313
  502MOL0     H67721   4.455   5.107   7.463 -0.5044  1.0015  0.2456
  502MOL0     H67722   4.407   5.406   7.234 -1.0595 -1.7115 -0.6578
  502MOL0     H67723   4.538   5.328   7.323 -0.6482  0.3906  1.3254
  502MOL0     H67724   4.566   5.170   7.138 -0.1168 -0.4855  0.6804
  502MOL0     H67725   4.455   5.266   7.035 -2.4843  3.3166  1.4464
  502MOL0     H67726   4.713   5.358   7.157 -0.2258 -1.1016 -1.0428
  502MOL0     H67727   4.593   5.477   7.123  2.8989  1.1875 -0.4482
  502MOL0     H67728   4.745   5.451   6.928  0.9866 -0.9451  0.7757
  502MOL0     H67729   4.583   5.387   6.887  0.3245  0.4757  0.5028
  502MOL0     H67730   4.930   5.405   7.041  0.9479 -0.0246  0.6520
  502MOL0     H67731   5.151   5.343   7.058  2.8389 -1.6275 -0.2514
  502MOL0     H67732   5.423   4.781   6.854  0.6291 -0.3006 -2.7115
  502MOL0     H67733   5.658   4.711   6.797  1.0410 -0.2077  1.3374
  502MOL0     H67734   5.969   4.807   6.992  0.2953 -1.2962  0.0980
  502MOL0     H67735   5.894   4.678   6.898 -1.1741  0.4322  1.2051
  502MOL0     H67736   6.064   4.708   6.718 -0.4784  4.5762 -1.9836
  502MOL0     H67737   6.119   4.852   6.798  0.5002 -0.1840 -0.5194
  502MOL0     H67738   6.151   4.706   7.010  1.8198 -0.7852  0.5436
  502MOL0     H67739   6.095   4.576   6.901  0.6800 -0.3721 -0.6887
  502MOL0     H67740   6.345   4.756   6.892  1.0931 -0.4425 -0.0252
  502MOL0     H67741   6.309   4.655   6.755 -5.0622 -0.4314 -0.4611
  502MOL0     H67742   6.324   4.457   6.920 -0.8737 -0.1750 -0.4463
  502MOL0     H67743   6.385   4.585   7.036  3.5444  0.9919 -0.7426
  502MOL0     H67744   6.511   4.495   6.769 -0.8453 -0.3466 -0.2205
  502MOL0     H67745   6.584   4.616   6.878 -1.0134  0.5249 -0.4762
  502MOL0     H67746   6.529   4.333   6.971  1.1408  0.0775  1.0022
  502MOL0     H67747   6.612   4.469   7.055 -0.5494  0.8816 -0.2261
  502MOL0     H67748   6.765   4.289   6.938  0.8247 -0.1223  0.4106
  502MOL0     H67749   6.712   4.372   6.785  0.7757 -0.7875  0.5392
  502MOL0     H67750   5.782   5.122   6.874 -2.2509  1.8848 -1.4273
  502MOL0     H67751   5.545   5.185   6.902 -3.1523 -1.0906 -1.0114
  502MOL0     H67752   5.090   4.987   6.823  3.4916  0.9239 -1.0346
  502MOL0     H67753   4.845   5.035   6.825  0.5664 -1.5311  0.6882
  502MOL0     H67754   4.504   4.028   7.283 -2.2491  0.3210 -1.4126
  502MOL0     H67755   4.342   3.844   7.319 -1.3486  1.1469  0.4151
  502MOL0     H67756   3.973   3.818   7.726  3.5137  2.1340 -2.5601
  502MOL0     H67757   3.759   3.662   7.782 -0.2585  2.3884  0.5069
  502MOL0     H67758   3.546   3.613   7.614 -1.8272 -0.8538  0.2948
  502MOL0     H67759   3.581   3.550   7.772 -0.1267 -0.0889 -0.4659
  502MOL0     H67760   3.468   3.335   7.727  0.5628  0.7006  1.5088
  502MOL0     H67761   3.430   3.400   7.564  0.6935 -2.4003  0.3818
  502MOL0     H67762   3.323   3.590   7.671  0.5241 -1.7183 -1.8989
  502MOL0     H67763   3.355   3.522   7.839 -1.1664 -0.1479  0.0568
  502MOL0     H67764   3.127   3.495   7.761 -1.6857 -2.1318 -0.2959
  502MOL0     H67765   3.202   3.389   7.628 -0.1612 -1.1523  1.1303
  502MOL0     H67766   3.263   3.122   7.940 -2.2059 -1.8576  0.5508
  502MOL0     H67767   3.841   3.452   7.433  0.7368  0.1689  0.1775
  502MOL0     H67768   4.052   3.687   7.260  2.2516 -0.0994  0.4169
  502MOL0     H67769   4.158   3.575   7.350  0.0683 -3.0353 -2.3052
  502MOL0     H67770   4.003   3.523   7.270  0.2594  0.0692 -0.9229
  503MOL0     O67771   7.802   4.185   0.722  0.3459 -0.1626  0.3720
  503MOL0     C67772   7.709   4.135   0.778 -0.2330  0.1155  0.6169
  503MOL0     O67773   7.719   4.051   0.886  0.3271  0.4679  0.1075
  503MOL0     C67774   7.841   4.003   0.925  0.2457 -0.7151 -0.6010
  503MOL0     C67775   7.938   4.076   0.995 -0.3622  0.1283  0.2632
  503MOL0     C67776   8.059   4.012   1.027 -0.2012 -0.2099 -1.4337
  503MOL0     C67777   8.087   3.880   1.000  0.0848  0.5290  0.3852
  503MOL0     O67778   8.204   3.810   1.033  0.6381 -0.7468  0.2672
  503MOL0     C67779   8.325   3.879   1.012 -0.2427  0.4650  0.5794
  503MOL0     C67780   8.426   3.857   1.124 -0.0596  0.3009  0.8999
  503MOL0     C67781   8.438   3.708   1.173 -0.1371  0.4560  0.5460
  503MOL0     C67782   8.532   3.701   1.291 -0.0989 -1.0966 -0.2058
  503MOL0     C67783   8.530   3.575   1.385  0.0607 -0.0709 -0.0914
  503MOL0     C67784   8.637   3.578   1.493 -0.2576 -0.8396 -0.8782
  503MOL0     C67785   8.771   3.545   1.425  0.8295 -0.1603  0.4968
  503MOL0     C67786   8.867   3.491   1.531  0.0666 -0.3004 -0.5343
  503MOL0     N67787   9.009   3.492   1.490 -0.1300  0.7635 -0.2091
  503MOL0     C67788   9.107   3.570   1.545 -0.0468 -0.5228 -0.5022
  503MOL0     C67789   9.226   3.513   1.496 -0.2316  0.5432 -0.5329
  503MOL0     C67790   9.370   3.560   1.517  1.6355 -0.2558  0.2191
  503MOL0     C67791   9.430   3.622   1.388 -0.2571 -0.4060  0.4815
  503MOL0     C67792   9.537   3.727   1.445  0.5452  0.0050  0.8139
  503MOL0     C67793   9.622   3.771   1.320  1.2069 -0.2175  0.2527
  503MOL0     O67794   9.675   3.650   1.263 -0.5523 -0.3325 -0.0969
  503MOL0     C67795   9.784   3.578   1.296 -0.2241  0.3824 -0.1482
  503MOL0     C67796   9.887   3.623   1.385 -0.7234 -0.2411  0.5272
  503MOL0     C67797  10.003   3.542   1.394  0.1278 -0.2686  0.4071
  503MOL0     C67798  10.009   3.420   1.335  0.4165  0.4460 -0.3557
  503MOL0     C67799  10.127   3.328   1.357  0.1717  0.5090 -0.2500
  503MOL0     O67800  10.144   3.235   1.257 -0.1213  0.8495  0.1699
  503MOL0     C67801  10.252   3.155   1.270 -0.3816 -0.3493  0.0421
  503MOL0     C67802  10.371   3.200   1.216 -0.4552 -0.4810 -0.3752
  503MOL0     C67803  10.482   3.120   1.229  0.3002 -0.3062 -0.7613
  503MOL0     C67804  10.482   2.999   1.302  0.1499  0.2142 -0.9238
  503MOL0     O67805  10.595   2.930   1.325  0.0937 -0.3248  0.3729
  503MOL0     C67806  10.721   2.992   1.288  0.1843 -0.9704  0.2874
  503MOL0     C67807  10.820   2.887   1.333 -0.7954  0.9835 -0.5058
  503MOL0     C67808  10.801   2.743   1.274 -0.7409 -0.1077  0.0972
  503MOL0     C67809  10.827   2.756   1.131 -0.2977 -0.1765 -0.0319
  503MOL0     C67810  10.892   2.631   1.062 -0.9647  0.3388 -0.2783
  503MOL0     C67811  11.040   2.620   1.082 -0.1327 -0.9687 -0.1195
  503MOL0     C67812  11.116   2.521   0.982 -0.3046  0.3858  0.8023
  503MOL0     C67813  11.267   2.524   1.000 -0.6412 -0.1011  0.0512
  503MOL0    Cl67814  11.335   2.694   0.990 -0.9183 -0.1527 -0.3232
  503MOL0     C67815  10.359   2.953   1.351 -0.3171 -0.4689 -0.0401
  503MOL0     C67816  10.248   3.030   1.336  0.3332  0.5481 -1.1173
  503MOL0     O67817  10.203   3.343   1.455  0.0480 -0.1487 -0.4693
  503MOL0     C67818   9.905   3.371   1.247  0.1068  0.5242  0.5356
  503MOL0     C67819   9.791   3.454   1.235  0.3011 -0.5966  0.1370
  503MOL0     N67820   9.200   3.401   1.417 -0.4535  0.3716 -0.3276
  503MOL0     N67821   9.067   3.394   1.417 -0.4251  0.6604  0.5076
  503MOL0     C67822   7.984   3.804   0.935  0.4879 -0.1067 -0.4955
  503MOL0     C67823   7.867   3.873   0.897 -0.3419  0.5263  0.2481
  503MOL0     C67824   7.572   4.156   0.725 -0.1886 -0.5451 -0.0132
  503MOL0     C67825   7.465   4.067   0.770 -0.2832 -0.0397  0.2844
  503MOL0     C67826   7.334   4.081   0.727  0.1447  0.5477  0.1160
  503MOL0     C67827   7.293   4.175   0.639  0.2655 -0.2507  0.3919
  503MOL0     O67828   7.167   4.195   0.599 -0.0331  0.8012 -0.1787
  503MOL0     C67829   7.068   4.118   0.674  0.6238 -0.3744  0.1556
  503MOL0     C67830   6.929   4.133   0.605  0.1120 -0.5275  0.1301
  503MOL0     C67831   6.864   4.276   0.600  0.2043 -0.2429 -0.2097
  503MOL0     C67832   6.724   4.260   0.536  0.2847  0.5837 -0.2346
  503MOL0     C67833   6.635   4.193   0.634  0.0199 -0.5739  0.2453
  503MOL0     C67834   6.560   4.128   0.704  0.2118  0.7673  0.1310
  503MOL0     C67835   7.395   4.259   0.584  0.0553  0.1886 -0.0325
  503MOL0     C67836   7.536   4.252   0.625  0.3770  0.4676  0.1192
  503MOL0     C67837   7.640   4.335   0.554 -0.4687 -0.8982  0.7552
  503MOL0     H67838   7.918   4.177   1.029 -3.1208  0.0166 -0.7831
  503MOL0     H67839   8.136   4.077   1.066  0.0005 -2.1631  1.9038
  503MOL0     H67840   8.364   3.851   0.914  2.0644 -2.0702  2.0836
  503MOL0     H67841   8.311   3.987   1.001 -0.5138  0.2499 -1.5381
  503MOL0     H67842   8.397   3.914   1.212  1.7057  0.2399  1.5643
  503MOL0     H67843   8.525   3.893   1.092 -0.3561 -0.1642 -0.6283
  503MOL0     H67844   8.481   3.652   1.089  1.5553  1.6683  0.5457
  503MOL0     H67845   8.340   3.671   1.205 -0.4631 -0.1306 -1.0369
  503MOL0     H67846   8.629   3.708   1.240  0.1120  0.0017  0.3249
  503MOL0     H67847   8.513   3.794   1.344 -0.7171 -0.8168 -0.8997
  503MOL0     H67848   8.435   3.577   1.441 -0.1692 -0.2240 -0.4698
  503MOL0     H67849   8.537   3.485   1.323  0.4996  0.2235 -0.4755
  503MOL0     H67850   8.635   3.677   1.541 -1.5517 -0.9819 -0.6069
  503MOL0     H67851   8.609   3.503   1.567  0.3593 -0.4995 -0.2807
  503MOL0     H67852   8.803   3.641   1.384  0.0813  0.2709  0.9034
  503MOL0     H67853   8.768   3.482   1.336  1.4218  2.8520 -1.8309
  503MOL0     H67854   8.851   3.550   1.621 -1.8044  1.4561 -1.9254
  503MOL0     H67855   8.823   3.391   1.542 -1.8598  0.5620  0.1095
  503MOL0     H67856   9.084   3.641   1.624 -0.7917 -0.7850 -0.4738
  503MOL0     H67857   9.366   3.633   1.598 -1.8845 -1.8033  1.6407
  503MOL0     H67858   9.424   3.471   1.548  2.4481  0.6263  1.4154
  503MOL0     H67859   9.486   3.541   1.340  2.5385  3.0025 -2.5644
  503MOL0     H67860   9.348   3.667   1.331 -0.9342 -0.3764  1.4443
  503MOL0     H67861   9.600   3.670   1.514  1.3637  0.9258  0.8474
  503MOL0     H67862   9.486   3.812   1.492  1.1274 -0.3187  2.0975
  503MOL0     H67863   9.698   3.839   1.358  1.7667  0.3095 -1.7522
  503MOL0     H67864   9.567   3.823   1.241 -1.6023 -0.8250  1.6680
  503MOL0     H67865   9.882   3.714   1.444 -2.3643 -0.2095  0.3802
  503MOL0     H67866  10.085   3.582   1.453 -2.7090  2.0193  3.0659
  503MOL0     H67867  10.390   3.299   1.174 -0.6892  0.2965  1.2857
  503MOL0     H67868  10.573   3.153   1.179  0.2941 -0.2209 -0.7155
  503MOL0     H67869  10.732   3.004   1.180 -0.8817 -1.9497  0.0494
  503MOL0     H67870  10.748   3.083   1.343  1.0562  0.2445 -2.0204
  503MOL0     H67871  10.919   2.929   1.315 -1.3695  3.2723  1.1781
  503MOL0     H67872  10.822   2.881   1.442  3.3122  1.7645 -0.3776
  503MOL0     H67873  10.884   2.690   1.322  0.3195 -0.2850 -1.8450
  503MOL0     H67874  10.705   2.694   1.291 -1.1458 -0.7307 -3.3197
  503MOL0     H67875  10.887   2.843   1.104 -1.0025 -0.2340 -1.9596
  503MOL0     H67876  10.732   2.781   1.082  0.0991  0.2370 -0.5997
  503MOL0     H67877  10.863   2.627   0.957  0.0438 -2.0258 -0.5390
  503MOL0     H67878  10.856   2.539   1.109  1.6368  1.3729  4.4020
  503MOL0     H67879  11.070   2.725   1.075 -1.4378 -0.2888  2.9131
  503MOL0     H67880  11.069   2.596   1.184  0.5414  0.3120  0.0102
  503MOL0     H67881  11.091   2.550   0.880 -1.0589  0.1838  0.9209
  503MOL0     H67882  11.071   2.421   0.979  0.2533  0.0984 -3.1616
  503MOL0     H67883  11.298   2.489   1.098  2.7697  0.5205 -0.6871
  503MOL0     H67884  11.320   2.459   0.930  0.4396 -0.9063  1.5652
  503MOL0     H67885  10.361   2.856   1.399  3.1505 -1.2345 -1.4270
  503MOL0     H67886  10.150   3.005   1.377 -0.2452  2.8627 -0.9584
  503MOL0     H67887   9.911   3.281   1.186 -0.9748  0.9246 -0.2032
  503MOL0     H67888   9.707   3.454   1.166 -0.9581  1.3785  1.5658
  503MOL0     H67889   7.991   3.698   0.912 -1.8759  0.2017 -3.1515
  503MOL0     H67890   7.790   3.814   0.848  0.6882 -0.2052 -0.5198
  503MOL0     H67891   7.475   3.987   0.843 -3.2926 -1.9722 -1.2030
  503MOL0     H67892   7.268   4.008   0.773 -2.9216  2.3417 -1.0966
  503MOL0     H67893   7.057   4.136   0.782 -0.4742 -4.0230  0.7968
  503MOL0     H67894   7.087   4.011   0.680 -3.0401 -1.0716  4.1961
  503MOL0     H67895   6.860   4.072   0.665  0.7346 -0.9390  0.4396
  503MOL0     H67896   6.929   4.095   0.502  1.0312  1.5072 -0.6904
  503MOL0     H67897   6.924   4.337   0.531 -0.2576 -0.7057 -1.0323
  503MOL0     H67898   6.865   4.324   0.699  2.2899  0.0266 -0.3252
  503MOL0     H67899   6.688   4.359   0.507  1.8740  0.8335 -1.4831
  503MOL0     H67900   6.741   4.200   0.447  1.3083 -1.5419  1.3037
  503MOL0     H67901   6.493   4.069   0.764 -0.0097 -0.3994 -1.2122
  503MOL0     H67902   7.358   4.331   0.512  1.0160 -0.2955 -1.0366
  503MOL0     H67903   7.695   4.266   0.490  0.3178 -0.5021  1.0006
  503MOL0     H67904   7.586   4.409   0.495  1.4945 -0.1818 -0.2299
  503MOL0     H67905   7.708   4.398   0.611  0.0671  0.3613 -1.1895
  504MOL0     O67906   6.020   5.307   6.943 -0.2484 -0.8184  0.4116
  504MOL0     C67907   6.008   5.290   6.824 -0.7933  0.2067  0.3715
  504MOL0     O67908   6.104   5.238   6.749  0.3612  0.2634  0.8114
  504MOL0     C67909   6.222   5.186   6.797  0.0738 -0.5270 -0.8599
  504MOL0     C67910   6.335   5.199   6.717  0.2637  0.4818 -1.3986
  504MOL0     C67911   6.454   5.147   6.758  0.8434  0.3662  0.0874
  504MOL0     C67912   6.470   5.081   6.881  0.1858 -0.1570 -0.0859
  504MOL0     O67913   6.594   5.022   6.897 -0.0673 -0.6047  1.1117
  504MOL0     C67914   6.615   4.950   7.018 -0.9251  0.4944  0.0333
  504MOL0     C67915   6.759   4.917   7.034 -0.3902  0.2354  0.1131
  504MOL0     C67916   6.852   5.048   7.047 -0.2774  0.1205  0.0145
  504MOL0     C67917   7.003   5.007   7.055 -0.0388 -0.6557  0.4464
  504MOL0     C67918   7.093   5.120   7.028 -0.6097  0.0906 -0.8682
  504MOL0     C67919   7.238   5.078   7.059  0.2889 -0.0086 -1.1531
  504MOL0     C67920   7.339   5.190   7.018 -0.4088 -0.4940 -0.0127
  504MOL0     C67921   7.481   5.183   7.088 -0.0401 -0.4295 -0.2582
  504MOL0     N67922   7.538   5.055   7.062  0.0571 -0.0953  0.2344
  504MOL0     C67923   7.598   5.012   6.943  1.1071  0.4231 -0.0623
  504MOL0     C67924   7.651   4.893   6.968  0.3107  0.7216  0.2235
  504MOL0     C67925   7.704   4.808   6.854  0.4504 -0.1115  0.6596
  504MOL0     C67926   7.850   4.794   6.849 -0.8186 -0.0886 -0.5770
  504MOL0     C67927   7.887   4.676   6.758 -0.2053 -0.2021 -0.0577
  504MOL0     C67928   7.875   4.541   6.815  0.1559  0.2938  0.4899
  504MOL0     O67929   7.914   4.457   6.705 -0.3954 -0.3081 -0.1160
  504MOL0     C67930   7.898   4.324   6.716 -0.3196 -0.3057 -0.2262
  504MOL0     C67931   7.925   4.239   6.600 -0.1323 -0.4614 -0.4534
  504MOL0     C67932   7.914   4.103   6.609  0.9552 -0.1615  1.4412
  504MOL0     C67933   7.860   4.040   6.724 -0.0312 -0.1712  0.5730
  504MOL0     C67934   7.821   3.899   6.718  1.1450 -0.0332  0.1905
  504MOL0     O67935   7.909   3.812   6.653  0.3062  1.6872  0.2264
  504MOL0     C67936   7.878   3.672   6.651  0.6610 -0.8115 -0.9015
  504MOL0     C67937   7.886   3.602   6.537 -1.1290  0.4396  0.1176
  504MOL0     C67938   7.869   3.466   6.545 -0.5467 -0.2903 -0.2124
  504MOL0     C67939   7.836   3.395   6.665  0.5475  0.2282  0.4173
  504MOL0     O67940   7.799   3.266   6.647  0.2071 -0.2497  0.5360
  504MOL0     C67941   7.677   3.243   6.715  0.1842  0.6647  0.0220
  504MOL0     C67942   7.627   3.104   6.691  0.4738 -0.1813  0.4306
  504MOL0     C67943   7.483   3.073   6.720  0.3190 -1.0805 -0.0136
  504MOL0     C67944   7.442   2.944   6.644  0.0080 -0.3764 -0.9644
  504MOL0     C67945   7.296   2.911   6.641 -0.4448 -0.2417 -0.1896
  504MOL0     C67946   7.267   2.809   6.525  0.0912 -0.4888  1.2178
  504MOL0     C67947   7.113   2.788   6.495 -0.5254  0.2456  0.1875
  504MOL0     C67948   7.082   2.666   6.404  0.1592 -0.3452  0.0572
  504MOL0    Cl67949   7.145   2.524   6.493  0.5298  0.5593 -0.0499
  504MOL0     C67950   7.836   3.477   6.780 -1.3927  0.5566 -0.7083
  504MOL0     C67951   7.864   3.611   6.777  0.1605  0.4301  0.0074
  504MOL0     O67952   7.703   3.874   6.755 -0.1072 -0.0758 -0.1669
  504MOL0     C67953   7.836   4.120   6.841  0.0314 -0.2139  0.0410
  504MOL0     C67954   7.862   4.257   6.832  0.2715 -0.5994  1.2008
  504MOL0     N67955   7.619   4.846   7.091  0.3668 -0.9083 -1.2880
  504MOL0     N67956   7.542   4.951   7.148  0.8674  0.2142  0.0188
  504MOL0     C67957   6.356   5.057   6.964  0.6402 -0.0900 -0.1864
  504MOL0     C67958   6.235   5.112   6.922  0.3265  1.5692  0.3443
  504MOL0     C67959   5.888   5.353   6.753  0.0959 -0.5510 -0.7196
  504MOL0     C67960   5.887   5.350   6.617  0.6949  0.1730  0.5968
  504MOL0     C67961   5.777   5.384   6.534 -0.0252  0.4105 -0.4286
  504MOL0     C67962   5.659   5.422   6.596 -0.2319 -0.6244  0.6340
  504MOL0     O67963   5.556   5.465   6.523  0.3597 -0.0186  0.1663
  504MOL0     C67964   5.471   5.353   6.492  0.7394 -0.1428  0.1308
  504MOL0     C67965   5.362   5.319   6.599  0.0689 -0.3255 -0.3940
  504MOL0     C67966   5.270   5.443   6.619 -0.4479 -0.2888  0.2751
  504MOL0     C67967   5.165   5.406   6.723  1.0974  0.0478  0.3862
  504MOL0     C67968   5.048   5.489   6.703  0.3243  0.2642 -1.0693
  504MOL0     C67969   4.951   5.559   6.700 -0.0884 -0.7971 -0.2052
  504MOL0     C67970   5.659   5.427   6.735 -0.2177 -0.2499 -0.5374
  504MOL0     C67971   5.773   5.402   6.812 -0.4164  0.3439 -0.6382
  504MOL0     C67972   5.764   5.439   6.960 -0.0003  0.5571 -0.0864
  504MOL0     H67973   6.325   5.237   6.615  0.3995 -1.9045 -2.3745
  504MOL0     H67974   6.540   5.158   6.692  1.5031 -0.8961  0.7083
  504MOL0     H67975   6.590   5.001   7.112 -1.1684 -0.2561  0.3946
  504MOL0     H67976   6.565   4.852   7.019 -0.0515  0.0301  1.3681
  504MOL0     H67977   6.785   4.866   6.940  0.6557 -1.7743  1.4285
  504MOL0     H67978   6.768   4.861   7.128 -1.2887  0.2560  0.2243
  504MOL0     H67979   6.827   5.121   7.124  0.9113  3.1162 -2.2749
  504MOL0     H67980   6.843   5.091   6.947  0.6993  0.6956  0.1697
  504MOL0     H67981   7.016   4.967   7.156 -1.2321 -1.7836  0.1811
  504MOL0     H67982   7.026   4.922   6.990 -1.0813 -0.5686 -0.0641
  504MOL0     H67983   7.081   5.158   6.926 -2.2205 -1.1701 -1.1912
  504MOL0     H67984   7.072   5.205   7.094 -1.1646  0.1928 -1.1662
  504MOL0     H67985   7.249   5.050   7.165  1.6383 -1.5134 -1.6402
  504MOL0     H67986   7.271   4.988   7.006  1.7836  0.6539 -1.3983
  504MOL0     H67987   7.299   5.291   7.029 -3.6939 -0.9712 -4.6408
  504MOL0     H67988   7.342   5.197   6.909 -3.3093 -2.0309 -0.2832
  504MOL0     H67989   7.549   5.260   7.049  0.8086 -1.3021 -0.5279
  504MOL0     H67990   7.475   5.193   7.197  1.9949  1.3408 -0.2347
  504MOL0     H67991   7.600   5.073   6.853  1.1963  4.2187  2.2645
  504MOL0     H67992   7.658   4.712   6.878 -0.7540  0.6566  1.5623
  504MOL0     H67993   7.658   4.847   6.763 -2.1777 -1.7215  1.1848
  504MOL0     H67994   7.900   4.888   6.821  3.1420 -1.4338  1.1508
  504MOL0     H67995   7.895   4.769   6.946  0.6478  2.3218 -0.5470
  504MOL0     H67996   7.989   4.695   6.723 -1.5637  1.3471 -3.6677
  504MOL0     H67997   7.827   4.694   6.668 -0.0725  0.5549  0.0009
  504MOL0     H67998   7.772   4.514   6.843  0.8812 -1.5340  1.5747
  504MOL0     H67999   7.928   4.527   6.909 -2.3809  2.6754  2.4387
  504MOL0     H68000   7.973   4.285   6.514  0.5473 -0.1276  0.0915
  504MOL0     H68001   7.949   4.048   6.522 -1.9485  0.9930 -0.6442
  504MOL0     H68002   7.909   3.658   6.446 -0.2933  2.1949  1.3534
  504MOL0     H68003   7.876   3.407   6.453 -2.7938  0.9194 -1.2542
  504MOL0     H68004   7.689   3.260   6.823  1.0487 -2.1873  0.4645
  504MOL0     H68005   7.599   3.315   6.688 -2.2440 -1.3733  1.1188
  504MOL0     H68006   7.645   3.088   6.584  2.5575  4.1594 -0.0984
  504MOL0     H68007   7.697   3.034   6.737 -0.5994 -0.0315  2.4056
  504MOL0     H68008   7.477   3.050   6.827  1.1845 -1.7239 -0.0900
  504MOL0     H68009   7.417   3.157   6.698  1.4646 -0.3456 -0.7567
  504MOL0     H68010   7.489   2.855   6.686  1.2351  0.4971 -0.4039
  504MOL0     H68011   7.475   2.951   6.540 -1.5219  1.5232 -1.3859
  504MOL0     H68012   7.246   3.003   6.612 -1.7582 -0.4549  1.2643
  504MOL0     H68013   7.265   2.878   6.741  0.6172  2.1526  1.0039
  504MOL0     H68014   7.311   2.853   6.435 -2.0187  0.7092  0.7150
  504MOL0     H68015   7.311   2.716   6.562  1.2221 -0.4864 -0.0228
  504MOL0     H68016   7.078   2.880   6.448  1.0420  0.6881 -0.1792
  504MOL0     H68017   7.062   2.771   6.590  0.0932 -0.6543  0.3685
  504MOL0     H68018   6.973   2.664   6.391 -0.1667  1.0956  2.1061
  504MOL0     H68019   7.125   2.676   6.304  1.2973 -0.8061  0.4894
  504MOL0     H68020   7.835   3.429   6.878  3.0100 -2.3405 -1.7832
  504MOL0     H68021   7.867   3.676   6.864 -3.4193 -0.7110  1.1580
  504MOL0     H68022   7.811   4.068   6.933 -0.5225  2.6758  1.6518
  504MOL0     H68023   7.844   4.314   6.922 -1.0887 -0.0195  0.5790
  504MOL0     H68024   6.350   4.998   7.054 -0.3550 -0.6133 -0.5761
  504MOL0     H68025   6.150   5.104   6.990 -1.8093  2.2959 -2.0774
  504MOL0     H68026   5.977   5.326   6.561  0.5858  0.6696  0.1974
  504MOL0     H68027   5.789   5.391   6.426  2.8212  0.6832 -0.1746
  504MOL0     H68028   5.513   5.252   6.481 -1.9924 -1.3050 -0.7525
  504MOL0     H68029   5.423   5.369   6.395  0.5787  0.9474  0.3842
  504MOL0     H68030   5.418   5.295   6.690  1.5337 -1.4710 -1.5496
  504MOL0     H68031   5.304   5.230   6.571  2.2336 -2.4782  1.4892
  504MOL0     H68032   5.229   5.482   6.526 -1.4502  0.1717  0.8930
  504MOL0     H68033   5.330   5.520   6.669 -0.3315 -0.4049  0.3135
  504MOL0     H68034   5.128   5.306   6.699  0.6822  0.6684 -1.6913
  504MOL0     H68035   5.205   5.402   6.825  3.1586 -0.5352 -0.3921
  504MOL0     H68036   4.864   5.620   6.698 -0.3200 -1.1336 -1.1231
  504MOL0     H68037   5.567   5.455   6.786  0.0166 -0.6808  0.1412
  504MOL0     H68038   5.664   5.471   6.990 -0.1466 -1.6036  2.1100
  504MOL0     H68039   5.783   5.350   7.021 -0.9025  0.9561  0.7938
  504MOL0     H68040   5.835   5.521   6.976 -1.2906  1.9807 -1.3755
  505MOL0     O68041   9.280   0.208   1.196  0.2178  0.2327 -0.1843
  505MOL0     C68042   9.310   0.318   1.242  0.1832  0.2382  0.6253
  505MOL0     O68043   9.218   0.422   1.258  0.5631  0.5779 -0.5268
  505MOL0     C68044   9.079   0.410   1.238 -0.9596 -0.5168 -1.0077
  505MOL0     C68045   9.014   0.308   1.311 -0.1188 -0.1209  0.4115
  505MOL0     C68046   8.873   0.298   1.293 -0.3263  0.4332 -0.0801
  505MOL0     C68047   8.801   0.383   1.214  1.1550 -0.3182  0.2435
  505MOL0     O68048   8.667   0.357   1.196  0.0857 -0.1420 -0.7108
  505MOL0     C68049   8.585   0.471   1.232  0.6079  0.0893  0.0812
  505MOL0     C68050   8.435   0.437   1.245  0.6436  0.4385 -0.5356
  505MOL0     C68051   8.378   0.410   1.107 -0.0410  0.3793 -0.0280
  505MOL0     C68052   8.224   0.379   1.111  0.4120 -0.8054 -0.0316
  505MOL0     C68053   8.159   0.359   0.970 -0.3348  0.3873  0.0757
  505MOL0     C68054   8.176   0.219   0.934 -0.2431  0.4207 -0.3341
  505MOL0     C68055   8.106   0.189   0.796 -0.3903  0.4490  0.7125
  505MOL0     C68056   8.140   0.291   0.685  0.2978 -0.1556  0.5873
  505MOL0     N68057   8.050   0.397   0.655  0.2051 -0.1377 -0.1207
  505MOL0     C68058   8.054   0.526   0.703 -0.3091 -0.7075  0.8448
  505MOL0     C68059   7.947   0.583   0.631 -0.4318 -0.4465  0.1937
  505MOL0     C68060   7.896   0.726   0.627  0.6023 -0.1018 -0.5386
  505MOL0     C68061   7.897   0.780   0.478 -0.7847 -0.8651  0.0695
  505MOL0     C68062   8.035   0.791   0.410 -0.5334 -0.8976 -0.3150
  505MOL0     C68063   8.150   0.838   0.512  0.1636 -0.6112 -0.1527
  505MOL0     O68064   8.269   0.864   0.453 -0.0513 -0.1644 -0.1644
  505MOL0     C68065   8.381   0.841   0.531  0.5988  0.3553 -0.9026
  505MOL0     C68066   8.387   0.823   0.676  0.2546 -0.5068  0.1410
  505MOL0     C68067   8.504   0.783   0.753 -0.3906  0.0614  0.9857
  505MOL0     C68068   8.617   0.745   0.682  0.4238  0.3196 -0.5013
  505MOL0     C68069   8.735   0.691   0.759 -0.2612  0.0850  0.1532
  505MOL0     O68070   8.844   0.673   0.684  0.1052  0.2812 -0.2469
  505MOL0     C68071   8.965   0.664   0.735 -0.4331 -0.1787  0.0847
  505MOL0     C68072   9.014   0.733   0.838 -0.2030 -0.1049  0.2409
  505MOL0     C68073   9.151   0.722   0.882  0.2010  0.1662 -0.3214
  505MOL0     C68074   9.228   0.618   0.834 -0.4620  0.5801 -0.0559
  505MOL0     O68075   9.346   0.600   0.908 -0.7979  0.0698  0.2254
  505MOL0     C68076   9.415   0.484   0.871  0.0847 -0.2084  0.0708
  505MOL0     C68077   9.527   0.459   0.968 -0.4751  0.5571 -0.7942
  505MOL0     C68078   9.661   0.520   0.913  0.8327 -0.0098 -0.2901
  505MOL0     C68079   9.770   0.511   1.020 -1.0704  0.4891  0.5782
  505MOL0     C68080   9.906   0.555   0.970  0.7662 -0.1799 -0.8170
  505MOL0     C68081   9.951   0.486   0.851 -0.4092  0.1621  0.2710
  505MOL0     C68082  10.097   0.517   0.837  0.5449 -0.4391 -0.1562
  505MOL0     C68083  10.164   0.434   0.722  0.6434 -0.2591 -0.5468
  505MOL0    Cl68084  10.340   0.413   0.738 -0.0090  0.1545 -0.4035
  505MOL0     C68085   9.185   0.548   0.729 -0.0041 -0.6681  0.0757
  505MOL0     C68086   9.051   0.570   0.678 -0.0900 -0.8619 -0.8435
  505MOL0     O68087   8.729   0.682   0.885 -0.3235  0.1390 -0.0271
  505MOL0     C68088   8.615   0.758   0.541  0.1809  0.1960  0.2353
  505MOL0     C68089   8.502   0.807   0.474 -0.4751  0.1773  0.3252
  505MOL0     N68090   7.885   0.491   0.553  0.9672  0.6526  0.4975
  505MOL0     N68091   7.953   0.383   0.562  0.2139 -0.1582 -0.1154
  505MOL0     C68092   8.862   0.490   1.156  0.1930  0.2516  0.2713
  505MOL0     C68093   9.004   0.502   1.166 -0.0533 -0.4440  0.2028
  505MOL0     C68094   9.452   0.343   1.300  0.3365  1.2502  0.4189
  505MOL0     C68095   9.483   0.462   1.366  0.5417 -0.6307  0.7456
  505MOL0     C68096   9.603   0.486   1.433  0.4258  0.6442 -0.3627
  505MOL0     C68097   9.692   0.381   1.446  0.6162 -0.7205 -0.7293
  505MOL0     O68098   9.819   0.389   1.509 -0.2601  0.0448  0.1132
  505MOL0     C68099   9.860   0.520   1.544 -0.0444 -0.2116  0.2412
  505MOL0     C68100   9.888   0.612   1.429 -0.6527  0.0605 -0.3391
  505MOL0     C68101   9.900   0.760   1.475  1.0640 -0.0951 -0.6432
  505MOL0     C68102   9.890   0.871   1.360 -0.8113  0.3539  1.0590
  505MOL0     C68103   9.984   0.867   1.241  0.1401 -0.2832  0.2266
  505MOL0     C68104  10.049   0.866   1.141  0.5485  0.3455  0.5428
  505MOL0     C68105   9.669   0.261   1.387 -0.5100  0.0776  0.3801
  505MOL0     C68106   9.555   0.243   1.305  1.3431 -0.1743  0.1701
  505MOL0     C68107   9.541   0.121   1.218 -0.1058 -0.3047 -0.0973
  505MOL0     H68108   9.073   0.243   1.374  1.2724  1.7214  1.1283
  505MOL0     H68109   8.829   0.205   1.329 -2.0361  1.6154  1.1035
  505MOL0     H68110   8.616   0.515   1.327  1.9656 -1.1536  0.2531
  505MOL0     H68111   8.604   0.548   1.156  1.8618 -0.1271  0.1565
  505MOL0     H68112   8.387   0.527   1.284  0.3538  2.1941 -4.4690
  505MOL0     H68113   8.405   0.354   1.309 -1.4591 -0.8087 -2.9541
  505MOL0     H68114   8.417   0.317   1.065 -2.0880 -0.8387  0.6105
  505MOL0     H68115   8.394   0.489   1.033  0.2192 -0.2681 -0.6825
  505MOL0     H68116   8.201   0.292   1.173 -0.5033 -0.1429  0.5884
  505MOL0     H68117   8.176   0.468   1.154  1.4606  1.7924 -3.6591
  505MOL0     H68118   8.059   0.399   0.990  0.2122  1.4882  0.7171
  505MOL0     H68119   8.217   0.421   0.901  1.4916 -0.2750  0.9624
  505MOL0     H68120   8.281   0.188   0.940 -0.1533  0.7691 -0.1109
  505MOL0     H68121   8.132   0.157   1.013  0.6787  0.9405  0.6262
  505MOL0     H68122   8.000   0.182   0.822 -0.1108  0.8201  2.0454
  505MOL0     H68123   8.129   0.093   0.749  0.3747  0.7718  0.4153
  505MOL0     H68124   8.236   0.340   0.703 -0.4356  0.9106  1.7256
  505MOL0     H68125   8.147   0.239   0.589 -0.1752 -1.4287  1.2198
  505MOL0     H68126   8.109   0.580   0.778 -1.0881  1.6787 -0.1977
  505MOL0     H68127   7.792   0.716   0.659  0.3814 -0.9748 -1.4934
  505MOL0     H68128   7.950   0.794   0.693  1.2903 -1.1800  0.0322
  505MOL0     H68129   7.828   0.714   0.424 -1.2990 -0.9447  0.8071
  505MOL0     H68130   7.861   0.883   0.485 -1.4179 -1.1271  0.9457
  505MOL0     H68131   8.026   0.851   0.320 -0.3927 -1.2773 -0.5851
  505MOL0     H68132   8.062   0.688   0.388 -1.8662 -1.6786  1.4387
  505MOL0     H68133   8.149   0.755   0.582 -0.0497  1.2450  2.1684
  505MOL0     H68134   8.118   0.926   0.570 -1.0959 -0.8235 -0.4881
  505MOL0     H68135   8.303   0.834   0.743 -0.4226 -2.2773 -0.3577
  505MOL0     H68136   8.479   0.787   0.858 -0.1717 -0.9068  1.0803
  505MOL0     H68137   8.953   0.806   0.889 -0.0015 -0.2327  0.6673
  505MOL0     H68138   9.181   0.788   0.963 -0.5819  0.8019 -0.5359
  505MOL0     H68139   9.353   0.396   0.893 -1.4999  0.5989 -1.0237
  505MOL0     H68140   9.456   0.476   0.770 -0.8272  0.1318 -0.3375
  505MOL0     H68141   9.507   0.500   1.067  3.0346  0.0635  0.2590
  505MOL0     H68142   9.534   0.351   0.984  1.3919  0.7059 -0.3628
  505MOL0     H68143   9.688   0.486   0.812  0.2152  0.8293 -0.7564
  505MOL0     H68144   9.640   0.627   0.907  1.1164  0.0095 -1.0264
  505MOL0     H68145   9.778   0.409   1.057  2.2208  1.0795  1.8048
  505MOL0     H68146   9.739   0.566   1.109 -1.6189  0.7020  0.2664
  505MOL0     H68147   9.975   0.547   1.054  0.8800  1.3424 -0.7485
  505MOL0     H68148   9.902   0.656   0.928 -0.5067  0.3738  0.5273
  505MOL0     H68149   9.944   0.377   0.860 -0.3611 -0.1610 -2.6820
  505MOL0     H68150   9.897   0.507   0.759  1.1664 -2.0112 -1.2604
  505MOL0     H68151  10.143   0.509   0.936  1.3925  1.7576 -0.3090
  505MOL0     H68152  10.118   0.622   0.815 -0.7375 -0.2246 -0.4255
  505MOL0     H68153  10.110   0.338   0.722 -1.1265  0.6967 -0.2449
  505MOL0     H68154  10.138   0.472   0.623 -0.3257 -1.0429 -0.6091
  505MOL0     H68155   9.251   0.474   0.685  1.8550  0.1378  1.3698
  505MOL0     H68156   9.016   0.511   0.594  1.2394 -1.7398 -0.8023
  505MOL0     H68157   8.700   0.724   0.482 -0.9894  2.4477 -3.0765
  505MOL0     H68158   8.507   0.807   0.365 -1.1665 -0.7238  0.2795
  505MOL0     H68159   8.811   0.567   1.100  0.1800  0.8094  1.0401
  505MOL0     H68160   9.048   0.579   1.104  1.2720  0.6182  2.3245
  505MOL0     H68161   9.403   0.536   1.365 -0.0365 -1.2017  2.1455
  505MOL0     H68162   9.624   0.583   1.477 -2.2559  0.8124  0.7922
  505MOL0     H68163   9.949   0.528   1.606  2.1682 -0.8676 -2.6646
  505MOL0     H68164   9.778   0.565   1.601  0.3376 -0.0125  0.6375
  505MOL0     H68165   9.807   0.613   1.355 -0.7272  1.7262 -0.2822
  505MOL0     H68166   9.984   0.598   1.379 -1.6225 -0.0531 -2.2459
  505MOL0     H68167   9.985   0.782   1.540 -1.1243 -1.8766  3.1193
  505MOL0     H68168   9.814   0.769   1.543  2.0177  0.8975  0.4770
  505MOL0     H68169   9.788   0.887   1.324 -0.6614 -0.4604  0.2527
  505MOL0     H68170   9.907   0.969   1.407 -1.5914  1.3487 -0.6414
  505MOL0     H68171  10.109   0.840   1.057 -2.4074 -4.2171 -0.5087
  505MOL0     H68172   9.740   0.179   1.393 -0.9955 -0.6064 -2.1799
  505MOL0     H68173   9.466   0.053   1.258  1.8866 -2.4042  0.1952
  505MOL0     H68174   9.511   0.143   1.115  2.9617  0.1336 -0.9997
  505MOL0     H68175   9.631   0.061   1.209  1.6590  2.3422 -1.5984
  506MOL0     O68176   3.475   7.160   7.439 -0.2930  0.3172 -0.1359
  506MOL0     C68177   3.456   7.072   7.524 -0.3119 -0.4625 -0.3631
  506MOL0     O68178   3.557   7.024   7.602 -0.0057  0.0217  0.1131
  506MOL0     C68179   3.689   7.061   7.595 -0.1180 -0.4610  0.5938
  506MOL0     C68180   3.787   6.970   7.557 -0.2433  0.3636  0.7101
  506MOL0     C68181   3.922   7.007   7.550  0.2168  0.1829 -1.2617
  506MOL0     C68182   3.966   7.142   7.579 -0.0788 -1.0604  0.1052
  506MOL0     O68183   4.093   7.185   7.561 -0.6293  0.6029  0.6285
  506MOL0     C68184   4.199   7.094   7.579  0.3904 -0.2365  0.7092
  506MOL0     C68185   4.323   7.185   7.583 -0.9063  0.3294  0.1700
  506MOL0     C68186   4.459   7.115   7.593 -0.2556  0.0085 -0.2967
  506MOL0     C68187   4.468   7.020   7.710 -0.3433  0.3745 -0.1557
  506MOL0     C68188   4.619   6.989   7.732  0.4436  0.3341  0.3182
  506MOL0     C68189   4.692   7.095   7.817 -0.2038  0.2061 -0.4461
  506MOL0     C68190   4.819   7.036   7.874 -0.4798 -0.4637 -0.3406
  506MOL0     C68191   4.792   6.958   8.005 -0.6818  0.5548  0.0977
  506MOL0     N68192   4.918   6.911   8.063  0.2645  0.4210  0.8544
  506MOL0     C68193   5.023   6.992   8.102  0.3217 -0.1865 -0.5929
  506MOL0     C68194   5.125   6.906   8.149 -0.3167  0.2067 -0.2968
  506MOL0     C68195   5.263   6.956   8.190 -0.5448 -0.2661  0.0967
  506MOL0     C68196   5.360   6.840   8.237 -0.0245 -1.1153 -0.4442
  506MOL0     C68197   5.444   6.875   8.362  0.3897  0.1647 -0.6019
  506MOL0     C68198   5.549   6.979   8.340 -0.4541 -0.2017 -0.2175
  506MOL0     O68199   5.661   6.927   8.266 -0.5492  0.5294 -0.0026
  506MOL0     C68200   5.783   6.992   8.278 -0.3156  0.9831 -0.1799
  506MOL0     C68201   5.792   7.128   8.302 -0.4344 -0.0826  0.5629
  506MOL0     C68202   5.909   7.202   8.300  0.3775 -0.5117  0.0698
  506MOL0     C68203   6.036   7.138   8.281  0.6120 -0.6410  0.3341
  506MOL0     C68204   6.162   7.221   8.270  0.3245 -0.0914  1.0295
  506MOL0     O68205   6.275   7.159   8.223 -0.2704  0.2260 -0.1342
  506MOL0     C68206   6.395   7.225   8.229  1.3624 -0.3161  0.6103
  506MOL0     C68207   6.484   7.183   8.338  0.6045  0.0036  1.1597
  506MOL0     C68208   6.606   7.240   8.340 -0.5937 -0.0645 -0.1338
  506MOL0     C68209   6.655   7.319   8.236  0.2619  0.4525  0.3714
  506MOL0     O68210   6.786   7.357   8.244 -0.3825  0.4984 -0.3697
  506MOL0     C68211   6.857   7.430   8.147 -0.5000  0.5706  0.0617
  506MOL0     C68212   6.997   7.466   8.199 -0.4878 -0.3899  0.0401
  506MOL0     C68213   7.001   7.599   8.290 -0.5950  0.2389  0.1832
  506MOL0     C68214   7.143   7.616   8.354 -0.3107 -0.2973 -0.0336
  506MOL0     C68215   7.262   7.627   8.246 -1.0880  0.2642  0.1963
  506MOL0     C68216   7.236   7.739   8.141  0.6414  0.0542 -0.2015
  506MOL0     C68217   7.223   7.882   8.191 -0.7341 -0.8671  0.1013
  506MOL0     C68218   7.240   7.987   8.072  0.9046 -0.1497 -0.2227
  506MOL0    Cl68219   7.415   7.997   8.013 -0.1965  0.0858  0.0997
  506MOL0     C68220   6.571   7.365   8.134 -1.3957 -0.0932  0.3233
  506MOL0     C68221   6.442   7.322   8.136 -0.8449  0.1392  0.3146
  506MOL0     O68222   6.157   7.333   8.314  0.5020 -0.3798  1.0318
  506MOL0     C68223   6.032   6.998   8.260 -0.2225 -0.1524  0.7731
  506MOL0     C68224   5.901   6.926   8.258 -0.4319 -0.0671 -0.6002
  506MOL0     N68225   5.074   6.779   8.129 -0.2668  0.3220 -0.2047
  506MOL0     N68226   4.952   6.781   8.076  0.0066  0.3947 -0.3623
  506MOL0     C68227   3.865   7.238   7.612  0.2648  0.2431 -0.4549
  506MOL0     C68228   3.725   7.195   7.616  0.4452 -0.2715 -0.2825
  506MOL0     C68229   3.323   7.019   7.560  0.6737 -1.3208 -0.1592
  506MOL0     C68230   3.302   6.933   7.659 -0.9387  0.1417 -0.5770
  506MOL0     C68231   3.173   6.882   7.697 -0.3176  0.3585  0.6097
  506MOL0     C68232   3.065   6.919   7.636  0.6487  0.3885  0.5044
  506MOL0     O68233   2.949   6.871   7.690  0.0927  0.4637 -0.7523
  506MOL0     C68234   2.829   6.941   7.665  0.6730 -0.0229 -0.1297
  506MOL0     C68235   2.715   6.837   7.699  0.3556 -0.6274  0.6108
  506MOL0     C68236   2.570   6.897   7.648 -0.1675 -0.2690 -0.1680
  506MOL0     C68237   2.527   7.026   7.704  0.2187 -0.6518 -0.7621
  506MOL0     C68238   2.591   7.144   7.645 -0.1593  0.3513  0.5134
  506MOL0     C68239   2.663   7.236   7.615  0.2931 -1.0232  0.1062
  506MOL0     C68240   3.074   7.021   7.536  0.1508 -1.0038 -0.5265
  506MOL0     C68241   3.199   7.066   7.492 -0.8275  0.6144  0.1541
  506MOL0     C68242   3.193   7.161   7.376  0.1701  0.0481 -0.6079
  506MOL0     H68243   3.763   6.864   7.544  1.0573 -0.1246  2.0027
  506MOL0     H68244   3.999   6.942   7.509  1.2643  2.2035 -2.6388
  506MOL0     H68245   4.204   7.038   7.673  2.6372  1.2338  1.5527
  506MOL0     H68246   4.196   7.026   7.494 -1.5472 -1.6607  1.8103
  506MOL0     H68247   4.329   7.258   7.663  0.7227 -0.9186  1.2377
  506MOL0     H68248   4.327   7.233   7.484  4.3382 -0.8103 -0.4543
  506MOL0     H68249   4.539   7.189   7.596 -0.5712  0.3575 -0.3708
  506MOL0     H68250   4.491   7.060   7.504  0.6669  0.6862 -0.4052
  506MOL0     H68251   4.423   7.066   7.798  1.4878 -0.4182  1.2580
  506MOL0     H68252   4.405   6.933   7.690  2.6200 -1.1098 -4.6274
  506MOL0     H68253   4.627   6.895   7.786 -0.2404 -0.6403 -1.2032
  506MOL0     H68254   4.670   6.963   7.639 -0.1360  0.8456 -0.1471
  506MOL0     H68255   4.706   7.187   7.761  0.5871  0.5563  0.3070
  506MOL0     H68256   4.634   7.120   7.906  2.0040 -1.5469  1.6370
  506MOL0     H68257   4.893   7.115   7.890  1.3686 -2.2893  0.6108
  506MOL0     H68258   4.857   6.957   7.809  0.0632 -2.8459  2.6669
  506MOL0     H68259   4.745   7.033   8.070  0.2902  1.2785 -0.0070
  506MOL0     H68260   4.726   6.872   7.991  0.2077 -0.1923  0.4164
  506MOL0     H68261   5.016   7.100   8.094 -1.0718 -0.2940 -1.1677
  506MOL0     H68262   5.312   6.996   8.101 -0.6201 -2.4205 -0.9590
  506MOL0     H68263   5.250   7.045   8.252  3.9874  1.7997 -1.4596
  506MOL0     H68264   5.289   6.766   8.274 -0.8973  1.1092  2.7477
  506MOL0     H68265   5.421   6.801   8.155  1.3773  0.3048 -0.1346
  506MOL0     H68266   5.500   6.793   8.407  0.7357  2.4062  3.5099
  506MOL0     H68267   5.376   6.906   8.442 -0.4518 -2.5013 -0.1994
  506MOL0     H68268   5.580   7.018   8.437  1.1775 -3.2704  0.6088
  506MOL0     H68269   5.499   7.061   8.287  0.4145  1.6479  1.6597
  506MOL0     H68270   5.701   7.183   8.323 -0.7990 -0.4486 -0.0426
  506MOL0     H68271   5.903   7.306   8.328  1.3781 -0.1683 -0.9107
  506MOL0     H68272   6.450   7.105   8.405  1.2289  1.0500  2.7289
  506MOL0     H68273   6.673   7.228   8.425  1.6323  2.3077 -1.3945
  506MOL0     H68274   6.875   7.358   8.067  1.7895 -2.1696  2.7882
  506MOL0     H68275   6.806   7.524   8.123  1.6898  1.6426 -0.6712
  506MOL0     H68276   7.036   7.381   8.257 -0.2191 -0.5266 -0.3383
  506MOL0     H68277   7.066   7.484   8.116 -0.5605 -0.5358 -0.0513
  506MOL0     H68278   6.983   7.684   8.224 -0.3502 -0.2805 -0.5641
  506MOL0     H68279   6.928   7.600   8.372  0.8790 -0.4084  1.5706
  506MOL0     H68280   7.189   7.549   8.427  2.0097  0.3352 -0.8335
  506MOL0     H68281   7.147   7.712   8.406 -0.8565  0.5990 -1.5805
  506MOL0     H68282   7.258   7.529   8.198 -2.0404 -0.1378  1.0513
  506MOL0     H68283   7.355   7.658   8.294 -0.7546  2.1017 -1.4966
  506MOL0     H68284   7.330   7.734   8.086  0.5780  0.2441 -0.3245
  506MOL0     H68285   7.144   7.721   8.084  0.1862  1.9770 -0.1448
  506MOL0     H68286   7.303   7.915   8.259  0.3181 -1.4627 -0.8171
  506MOL0     H68287   7.129   7.898   8.245 -0.1963  0.4027  0.7242
  506MOL0     H68288   7.173   7.952   7.993  1.0686  1.8248 -1.3038
  506MOL0     H68289   7.208   8.085   8.108 -0.4593 -0.6359 -0.0463
  506MOL0     H68290   6.608   7.430   8.056 -0.4888  0.2713  1.0431
  506MOL0     H68291   6.383   7.370   8.059  1.4910  1.2660 -0.8804
  506MOL0     H68292   6.124   6.945   8.238  2.0917  4.0574 -0.6835
  506MOL0     H68293   5.905   6.821   8.230 -0.3689  0.2754 -1.9286
  506MOL0     H68294   3.898   7.340   7.623 -0.6654  0.5146 -0.0344
  506MOL0     H68295   3.645   7.260   7.649  0.4305 -0.4708  0.0773
  506MOL0     H68296   3.396   6.909   7.709  0.5462 -0.1601 -3.3320
  506MOL0     H68297   3.171   6.801   7.769  0.5490 -0.2284 -0.0036
  506MOL0     H68298   2.813   6.979   7.564 -2.5000 -0.1253  0.2396
  506MOL0     H68299   2.828   7.027   7.732 -0.1517 -0.9574  1.1234
  506MOL0     H68300   2.706   6.831   7.807 -1.4656  0.3087  0.5500
  506MOL0     H68301   2.731   6.747   7.639 -1.3478 -0.5446 -0.0208
  506MOL0     H68302   2.493   6.827   7.681 -0.4214 -0.7935 -1.7985
  506MOL0     H68303   2.559   6.891   7.539 -0.5702 -1.8863 -0.0592
  506MOL0     H68304   2.418   7.028   7.696  0.1033  1.6774  0.5049
  506MOL0     H68305   2.559   7.016   7.808  1.6647 -0.8878 -1.2072
  506MOL0     H68306   2.724   7.323   7.605 -0.2417 -0.6381  0.1550
  506MOL0     H68307   2.983   7.054   7.488  0.0111 -0.3225  0.1865
  506MOL0     H68308   3.092   7.184   7.340  0.0419  0.5155  0.0230
  506MOL0     H68309   3.243   7.254   7.404 -0.8748 -0.3442  3.1664
  506MOL0     H68310   3.236   7.119   7.285 -1.6173  1.8854 -2.3859
  507MOL0     O68311   3.076   6.046   6.602  0.7879  0.3699  0.7423
  507MOL0     C68312   3.031   5.985   6.506 -0.0024 -1.3332 -0.7485
  507MOL0     O68313   3.091   5.971   6.389  0.8218 -0.2061  0.0080
  507MOL0     C68314   3.215   6.021   6.353 -0.1006 -0.1694 -0.8489
  507MOL0     C68315   3.221   6.151   6.297 -0.3459  0.2355 -0.5217
  507MOL0     C68316   3.349   6.205   6.279  0.1536 -0.7548  0.2291
  507MOL0     C68317   3.469   6.141   6.311 -0.9048 -0.2813  0.6451
  507MOL0     O68318   3.588   6.197   6.263  0.5253 -0.5001  0.2145
  507MOL0     C68319   3.711   6.121   6.286 -0.3978 -0.5653  0.0541
  507MOL0     C68320   3.826   6.198   6.224  0.4950  0.1155  0.5380
  507MOL0     C68321   3.805   6.224   6.077  0.4165 -0.1892 -0.2473
  507MOL0     C68322   3.935   6.243   6.000  0.1555  0.7316  0.3917
  507MOL0     C68323   3.986   6.382   6.023  0.8267 -0.4687 -0.1686
  507MOL0     C68324   4.129   6.415   5.975 -0.6693  0.1757  0.2868
  507MOL0     C68325   4.237   6.314   6.016 -0.0065 -0.3696 -0.3906
  507MOL0     C68326   4.376   6.382   5.974  0.2434  0.1624 -0.0518
  507MOL0     N68327   4.387   6.397   5.826 -0.5982 -0.0040 -0.3194
  507MOL0     C68328   4.379   6.290   5.739  0.1841  0.7771 -0.0876
  507MOL0     C68329   4.432   6.335   5.629 -0.0921  1.1697  0.8397
  507MOL0     C68330   4.457   6.250   5.507 -0.1999  0.2087  0.2263
  507MOL0     C68331   4.589   6.260   5.436  0.1102  0.0443  1.2666
  507MOL0     C68332   4.699   6.211   5.536  0.7547 -0.7630  0.2331
  507MOL0     C68333   4.834   6.223   5.474 -0.4279 -0.4032  0.0036
  507MOL0     O68334   4.922   6.133   5.541 -0.1275  0.6213 -0.5479
  507MOL0     C68335   5.053   6.125   5.487 -0.6381 -1.0187  0.3415
  507MOL0     C68336   5.120   6.008   5.517 -0.2084  0.4569 -0.0920
  507MOL0     C68337   5.252   5.988   5.476  0.2941 -0.6435 -1.0181
  507MOL0     C68338   5.323   6.089   5.396  0.0286 -0.2310 -0.4966
  507MOL0     C68339   5.472   6.073   5.364 -0.1641 -0.2104 -0.0175
  507MOL0     O68340   5.537   5.956   5.410 -0.2887  0.9125  0.1513
  507MOL0     C68341   5.677   5.961   5.418 -0.6356  0.5661 -0.4899
  507MOL0     C68342   5.758   5.981   5.307 -0.3093 -0.6994  0.2447
  507MOL0     C68343   5.894   5.973   5.332  0.5558  0.1458 -0.2778
  507MOL0     C68344   5.953   5.952   5.454 -0.9712  0.6269 -0.4355
  507MOL0     O68345   6.092   5.951   5.455  0.1033 -0.0605  0.6225
  507MOL0     C68346   6.167   5.923   5.572 -0.0547 -0.1721 -0.0623
  507MOL0     C68347   6.151   6.032   5.670 -0.0788  0.0476 -0.2856
  507MOL0     C68348   6.276   6.111   5.705 -0.3334 -0.4563 -0.7545
  507MOL0     C68349   6.251   6.205   5.824  0.3759  0.3299  0.1402
  507MOL0     C68350   6.370   6.296   5.857  0.0680  0.1372 -0.1969
  507MOL0     C68351   6.466   6.222   5.954 -0.8330 -0.2423 -0.0416
  507MOL0     C68352   6.609   6.263   5.927  0.3232  0.3806 -0.0494
  507MOL0     C68353   6.717   6.183   6.009  0.4812  0.3796 -1.1509
  507MOL0    Cl68354   6.685   6.197   6.180 -0.8439  0.4261 -0.4682
  507MOL0     C68355   5.868   5.914   5.563 -0.5064 -1.0619  0.9854
  507MOL0     C68356   5.726   5.925   5.550 -0.2230  0.1837  0.9397
  507MOL0     O68357   5.531   6.160   5.303 -0.1118  0.7500 -0.8332
  507MOL0     C68358   5.259   6.212   5.369  0.1192  0.5633  0.5386
  507MOL0     C68359   5.123   6.226   5.405 -0.3008 -0.1008 -0.1244
  507MOL0     N68360   4.459   6.469   5.635 -0.1640  0.4906  0.0794
  507MOL0     N68361   4.442   6.504   5.759 -0.3282 -0.2274 -0.0520
  507MOL0     C68362   3.461   6.008   6.371 -0.4131 -0.7023  0.2064
  507MOL0     C68363   3.335   5.950   6.391  0.1484  0.2506  0.1503
  507MOL0     C68364   2.916   5.895   6.535  0.0416  0.5785  0.7549
  507MOL0     C68365   2.902   5.777   6.458 -0.2723 -0.1885 -0.1266
  507MOL0     C68366   2.792   5.687   6.490 -0.0343  0.0217  0.3517
  507MOL0     C68367   2.699   5.718   6.585 -0.2380 -0.0219 -0.1792
  507MOL0     O68368   2.599   5.634   6.629  0.3899 -0.2381  0.1342
  507MOL0     C68369   2.551   5.541   6.539  0.1048  0.3813  1.3786
  507MOL0     C68370   2.464   5.577   6.416  0.1567 -0.1615 -0.0079
  507MOL0     C68371   2.484   5.471   6.308 -0.3343  0.6752  0.1839
  507MOL0     C68372   2.400   5.506   6.187  0.6202  0.1944 -0.3349
  507MOL0     C68373   2.260   5.472   6.210  0.3222 -1.1437  0.1104
  507MOL0     C68374   2.143   5.428   6.205  0.1804  0.3372 -1.4028
  507MOL0     C68375   2.704   5.843   6.652  0.1707  0.2688 -0.2786
  507MOL0     C68376   2.816   5.925   6.629 -0.1206 -0.8813  0.4990
  507MOL0     C68377   2.818   6.051   6.729 -0.1394 -0.1246  0.1396
  507MOL0     H68378   3.128   6.201   6.273 -0.1200  2.0908  2.0434
  507MOL0     H68379   3.356   6.299   6.226  0.2430 -0.7423  0.2630
  507MOL0     H68380   3.726   6.108   6.394 -1.2827 -1.4382  0.0826
  507MOL0     H68381   3.716   6.025   6.234  0.6483  1.0195 -2.9801
  507MOL0     H68382   3.915   6.137   6.242  0.3694  0.3202  2.0154
  507MOL0     H68383   3.837   6.297   6.269  2.8821  0.0786  0.1706
  507MOL0     H68384   3.726   6.294   6.045 -0.0751 -1.0067 -0.8731
  507MOL0     H68385   3.768   6.125   6.047  1.2737 -0.1753 -1.4446
  507MOL0     H68386   3.996   6.164   6.044 -1.5403 -0.9788 -0.1783
  507MOL0     H68387   3.929   6.225   5.892 -2.3692 -2.2440  0.8979
  507MOL0     H68388   3.916   6.451   5.975  0.2954 -0.1579  1.0202
  507MOL0     H68389   3.972   6.414   6.127  0.2067 -0.6146 -0.2009
  507MOL0     H68390   4.128   6.423   5.866  1.9829 -0.4408  0.1499
  507MOL0     H68391   4.161   6.508   6.022  1.1265 -0.1570 -0.2276
  507MOL0     H68392   4.239   6.218   5.964 -0.8937 -0.0164 -1.1063
  507MOL0     H68393   4.242   6.285   6.121  1.3435 -1.4165 -0.7206
  507MOL0     H68394   4.385   6.482   6.018  0.7235  0.1575 -0.1397
  507MOL0     H68395   4.463   6.327   6.011  0.3870  1.4483  1.6392
  507MOL0     H68396   4.338   6.192   5.760  1.3022  0.6067  1.4319
  507MOL0     H68397   4.440   6.145   5.535 -1.6019  0.9753  2.5257
  507MOL0     H68398   4.386   6.277   5.428  0.2399 -0.9823 -0.6065
  507MOL0     H68399   4.592   6.214   5.337 -0.8890  0.0244  1.2307
  507MOL0     H68400   4.604   6.366   5.413 -0.8005 -0.3646 -1.7059
  507MOL0     H68401   4.680   6.110   5.573  0.2689 -0.2202  1.5406
  507MOL0     H68402   4.684   6.276   5.623 -1.8420 -0.5805 -0.2677
  507MOL0     H68403   4.864   6.328   5.484 -1.5568  0.0164 -0.7824
  507MOL0     H68404   4.831   6.197   5.368  1.5423 -0.2453 -0.1298
  507MOL0     H68405   5.077   5.927   5.576  0.2824  0.3936  0.1789
  507MOL0     H68406   5.300   5.896   5.506 -0.6864 -1.5775 -2.1959
  507MOL0     H68407   5.717   5.993   5.207 -0.2843 -1.5249  0.1349
  507MOL0     H68408   5.952   5.983   5.241 -1.5124 -2.5618 -2.0536
  507MOL0     H68409   6.131   5.826   5.607  0.7401 -0.9718 -1.4010
  507MOL0     H68410   6.272   5.924   5.540 -0.6784 -0.4386 -2.2442
  507MOL0     H68411   6.077   6.107   5.640 -0.1622  1.1161  2.2941
  507MOL0     H68412   6.116   5.984   5.762  3.7563 -0.4088  1.0870
  507MOL0     H68413   6.353   6.035   5.725  1.6685  1.3906 -0.9879
  507MOL0     H68414   6.296   6.170   5.615 -2.5802  1.0512 -0.3299
  507MOL0     H68415   6.227   6.144   5.911  0.8688  0.5537  0.4359
  507MOL0     H68416   6.159   6.262   5.808  0.4607 -0.2322 -3.3045
  507MOL0     H68417   6.327   6.387   5.898 -1.8103 -0.8212  0.0942
  507MOL0     H68418   6.429   6.321   5.768  1.6674 -1.0019  0.4977
  507MOL0     H68419   6.444   6.231   6.060 -0.4612  2.5875 -0.1379
  507MOL0     H68420   6.477   6.115   5.932  1.6904 -0.2754  1.0119
  507MOL0     H68421   6.621   6.370   5.949  1.2018  0.1301  0.7372
  507MOL0     H68422   6.626   6.238   5.821  2.0886 -0.3713  0.3800
  507MOL0     H68423   6.707   6.078   5.979  0.5361  0.6638 -2.1707
  507MOL0     H68424   6.817   6.221   5.985  2.0275 -2.0362  0.8744
  507MOL0     H68425   5.903   5.885   5.661  1.1085 -0.0055  0.7507
  507MOL0     H68426   5.654   5.918   5.631 -0.9938  0.5794  0.2926
  507MOL0     H68427   5.295   6.290   5.304 -1.8683 -1.7173 -3.6729
  507MOL0     H68428   5.070   6.319   5.388  0.5858  1.2053  3.4216
  507MOL0     H68429   3.546   5.944   6.392  0.5772  0.9232  1.3484
  507MOL0     H68430   3.322   5.850   6.431  0.8233  0.2235  0.3096
  507MOL0     H68431   2.983   5.751   6.391 -0.7324  1.3565 -1.3175
  507MOL0     H68432   2.796   5.596   6.432  1.0268  0.2616  0.0168
  507MOL0     H68433   2.478   5.485   6.599  0.3266 -2.0601 -0.4773
  507MOL0     H68434   2.628   5.476   6.496  0.6851  2.0166 -0.1858
  507MOL0     H68435   2.497   5.673   6.374  0.1154  1.1662  2.8078
  507MOL0     H68436   2.360   5.596   6.444 -0.4255 -0.5540 -1.7300
  507MOL0     H68437   2.462   5.368   6.339 -0.9747  1.4944  2.6920
  507MOL0     H68438   2.589   5.475   6.278 -0.4123 -0.4319 -0.2728
  507MOL0     H68439   2.405   5.615   6.181  0.4524  0.1525 -1.5005
  507MOL0     H68440   2.429   5.458   6.093 -2.9113 -1.4342 -0.7399
  507MOL0     H68441   2.036   5.421   6.205  0.1194  0.4761  0.9182
  507MOL0     H68442   2.616   5.858   6.714 -2.0560 -4.4581 -1.8061
  507MOL0     H68443   2.912   6.045   6.785 -1.4835 -3.5829  2.3899
  507MOL0     H68444   2.823   6.147   6.676 -0.7206  0.1152  0.5048
  507MOL0     H68445   2.729   6.051   6.792 -0.3841  1.3775 -0.1670
  508MOL0     O68446   1.702   5.844   6.130  0.4489  0.0560 -0.6994
  508MOL0     C68447   1.806   5.792   6.106  0.4705 -0.3313 -0.4942
  508MOL0     O68448   1.817   5.663   6.073  0.6427  0.2403 -0.1413
  508MOL0     C68449   1.707   5.583   6.045 -0.4799 -0.3751 -0.1710
  508MOL0     C68450   1.690   5.458   6.099  0.0592 -0.6095  0.2556
  508MOL0     C68451   1.579   5.378   6.068  0.4332  1.4450 -0.3416
  508MOL0     C68452   1.476   5.421   5.977 -0.6497 -0.4501 -0.0138
  508MOL0     O68453   1.357   5.352   5.953  0.3485  0.0740 -0.2416
  508MOL0     C68454   1.336   5.213   5.992  0.2365 -0.6337 -0.0234
  508MOL0     C68455   1.275   5.140   5.874  0.1464  0.7104  0.2915
  508MOL0     C68456   1.359   5.130   5.743  0.5206 -0.5669  0.1282
  508MOL0     C68457   1.506   5.111   5.757  0.6694  0.6146  0.7771
  508MOL0     C68458   1.537   4.980   5.818 -0.8602 -0.2322  0.3354
  508MOL0     C68459   1.682   4.975   5.863  0.0927  0.1708 -0.6708
  508MOL0     C68460   1.786   4.992   5.741 -0.0466 -1.0141 -0.3408
  508MOL0     C68461   1.937   4.977   5.792 -0.3025  0.5122 -0.0225
  508MOL0     N68462   2.040   4.971   5.682 -0.3733  0.8881  0.6950
  508MOL0     C68463   2.065   5.064   5.580  1.0514  0.3811  0.1505
  508MOL0     C68464   2.183   5.038   5.516  0.6426 -0.2969 -0.7967
  508MOL0     C68465   2.257   5.121   5.413  0.8656  0.4687 -1.0563
  508MOL0     C68466   2.362   5.042   5.336  0.5542 -0.3935 -0.1402
  508MOL0     C68467   2.435   5.131   5.228  0.6381 -0.3867 -0.1017
  508MOL0     C68468   2.559   5.066   5.177  0.1179  0.7001 -0.2233
  508MOL0     O68469   2.642   5.145   5.087  1.0418 -0.3379  0.3510
  508MOL0     C68470   2.770   5.097   5.081  0.5268 -0.0914 -0.1446
  508MOL0     C68471   2.801   4.964   5.080  0.7681 -0.0369 -0.4485
  508MOL0     C68472   2.934   4.928   5.065 -0.8010  0.1160 -0.3915
  508MOL0     C68473   3.036   5.027   5.072 -0.4342  0.9208  0.2898
  508MOL0     C68474   3.179   4.997   5.066 -0.1436  0.1904 -0.7430
  508MOL0     O68475   3.210   4.865   5.086 -0.1136  0.0360  0.9661
  508MOL0     C68476   3.339   4.835   5.116  0.1384 -0.0404 -0.1257
  508MOL0     C68477   3.433   4.793   5.019  0.3113 -0.0124  0.0204
  508MOL0     C68478   3.565   4.760   5.055  0.0764 -0.0353 -0.6674
  508MOL0     C68479   3.596   4.751   5.186  1.0097  0.0758 -0.1596
  508MOL0     O68480   3.715   4.702   5.215 -0.5275 -0.1083 -0.0460
  508MOL0     C68481   3.775   4.706   5.352  0.0425 -0.1663  0.3884
  508MOL0     C68482   3.918   4.647   5.356  0.4019 -0.1543 -0.2100
  508MOL0     C68483   3.941   4.523   5.287  0.7150 -0.0085 -0.4389
  508MOL0     C68484   3.890   4.389   5.350 -0.6471  1.3148  0.2970
  508MOL0     C68485   3.940   4.263   5.266  0.5974 -0.6922  0.4056
  508MOL0     C68486   3.859   4.237   5.146 -0.3624 -0.0281 -1.0191
  508MOL0     C68487   3.937   4.155   5.048 -0.5426  0.3561  0.0670
  508MOL0     C68488   3.885   4.012   5.054  0.8277 -0.1164 -0.0661
  508MOL0    Cl68489   3.716   4.017   4.980 -0.0242 -0.4586 -0.1933
  508MOL0     C68490   3.509   4.791   5.287  0.1055  0.1826  0.5201
  508MOL0     C68491   3.376   4.826   5.251  0.2625  0.3664  0.2513
  508MOL0     O68492   3.262   5.085   5.044 -0.6238 -0.3196 -0.5726
  508MOL0     C68493   3.002   5.160   5.072  0.2624 -0.2185 -0.6709
  508MOL0     C68494   2.871   5.197   5.080 -0.1315 -0.1149  0.1701
  508MOL0     N68495   2.230   4.928   5.585  0.6520  0.4356 -0.3726
  508MOL0     N68496   2.150   4.897   5.684 -0.8686  0.0086 -0.2662
  508MOL0     C68497   1.502   5.546   5.917 -0.2098 -0.6567 -0.4386
  508MOL0     C68498   1.605   5.627   5.953  0.0428  0.0896  0.1633
  508MOL0     C68499   1.933   5.870   6.143 -0.1731  0.0592  0.4598
  508MOL0     C68500   2.042   5.794   6.184 -0.7600 -0.0748  0.0323
  508MOL0     C68501   2.168   5.848   6.211 -0.9828  0.2025 -0.0056
  508MOL0     C68502   2.193   5.986   6.212  1.3735  0.1303  0.1875
  508MOL0     O68503   2.313   6.027   6.243 -0.1684  0.5835 -0.6385
  508MOL0     C68504   2.321   6.076   6.379  0.3383  0.1504  0.2625
  508MOL0     C68505   2.468   6.079   6.425 -0.2100 -0.6680  0.3174
  508MOL0     C68506   2.556   6.167   6.330  0.2460 -0.1529  0.3648
  508MOL0     C68507   2.690   6.225   6.395 -0.5285  0.1332 -0.1351
  508MOL0     C68508   2.658   6.281   6.525  0.3031 -0.3522  0.5328
  508MOL0     C68509   2.632   6.325   6.637 -0.8505  0.9105 -0.5870
  508MOL0     C68510   2.088   6.071   6.184  0.3022 -0.1635  0.5415
  508MOL0     C68511   1.963   6.010   6.152  0.0988  0.0572  0.7413
  508MOL0     C68512   1.859   6.117   6.104 -0.0243  0.9226 -0.4342
  508MOL0     H68513   1.759   5.434   6.179  0.1631 -0.4235  0.2223
  508MOL0     H68514   1.568   5.287   6.125  2.0978  0.2922 -1.7496
  508MOL0     H68515   1.433   5.170   6.023 -0.2004 -1.5263  0.1395
  508MOL0     H68516   1.259   5.209   6.070 -1.0656 -0.0895 -1.2567
  508MOL0     H68517   1.180   5.192   5.859  1.2290  2.3431 -1.2938
  508MOL0     H68518   1.256   5.034   5.892 -2.4218  0.5185 -2.7593
  508MOL0     H68519   1.344   5.226   5.692 -1.6179  0.2078  2.0069
  508MOL0     H68520   1.319   5.048   5.684 -3.6039  0.6083  0.9025
  508MOL0     H68521   1.538   5.134   5.655 -0.3310  2.9080  0.9208
  508MOL0     H68522   1.553   5.182   5.826  0.2885  0.3845  1.2746
  508MOL0     H68523   1.461   4.947   5.889 -0.0632 -1.6674  0.5691
  508MOL0     H68524   1.539   4.910   5.733  1.4449 -0.5935  0.6243
  508MOL0     H68525   1.704   5.052   5.937 -0.2629 -0.3274 -0.0341
  508MOL0     H68526   1.693   4.875   5.907  0.1983  1.4730  2.5034
  508MOL0     H68527   1.772   5.090   5.695  2.2198 -0.1401  0.7139
  508MOL0     H68528   1.761   4.918   5.664 -3.3882  0.1599 -0.5399
  508MOL0     H68529   1.960   5.054   5.866 -0.4873  0.0584  0.5215
  508MOL0     H68530   1.957   4.886   5.851  2.1435  1.9119  1.4666
  508MOL0     H68531   1.993   5.138   5.546 -0.6966 -1.4322 -0.3234
  508MOL0     H68532   2.185   5.171   5.347  0.0278  0.8740  0.1317
  508MOL0     H68533   2.304   5.197   5.476 -0.1004  0.0314  0.2348
  508MOL0     H68534   2.434   5.016   5.414  0.4463  2.0179  0.8585
  508MOL0     H68535   2.315   4.956   5.286 -1.3644  0.2241  0.5281
  508MOL0     H68536   2.465   5.224   5.276  0.1844 -0.1416 -0.2916
  508MOL0     H68537   2.371   5.149   5.141 -1.4161 -5.0946  0.0895
  508MOL0     H68538   2.535   4.973   5.123  1.8590 -0.4216  0.8538
  508MOL0     H68539   2.609   5.026   5.265 -0.2489 -0.2204 -0.4130
  508MOL0     H68540   2.726   4.886   5.091  0.4884  0.0276 -1.7665
  508MOL0     H68541   2.956   4.824   5.043  1.0419 -0.1946  2.3607
  508MOL0     H68542   3.401   4.789   4.915  0.5814 -1.1898 -0.0218
  508MOL0     H68543   3.633   4.744   4.972  0.1496  1.2313 -0.8630
  508MOL0     H68544   3.779   4.808   5.390  0.1701 -0.5730  1.4991
  508MOL0     H68545   3.718   4.648   5.425  0.3736 -2.0916 -0.7882
  508MOL0     H68546   3.982   4.721   5.309  1.4218 -1.7650 -1.4819
  508MOL0     H68547   3.941   4.636   5.462  0.6933 -0.4203 -0.2982
  508MOL0     H68548   3.892   4.530   5.190 -0.0740 -0.8418 -0.1105
  508MOL0     H68549   4.048   4.500   5.274  0.8362 -0.3325  0.9402
  508MOL0     H68550   3.781   4.380   5.356 -0.5955 -0.0848 -0.4379
  508MOL0     H68551   3.932   4.391   5.450 -0.4175 -1.2300  0.3194
  508MOL0     H68552   3.929   4.168   5.319  2.1836 -2.5765 -2.3740
  508MOL0     H68553   4.046   4.268   5.243  0.8469  0.5675  1.6511
  508MOL0     H68554   3.764   4.195   5.180  0.0398 -2.0146 -2.1289
  508MOL0     H68555   3.835   4.331   5.096 -2.1100 -0.5630 -1.2487
  508MOL0     H68556   4.045   4.166   5.053 -0.6063  0.3397  3.4182
  508MOL0     H68557   3.900   4.194   4.953 -2.4092 -2.2444 -0.4172
  508MOL0     H68558   3.946   3.943   4.995 -0.5671 -1.2149 -0.2767
  508MOL0     H68559   3.901   3.971   5.155 -0.1336 -0.9335 -0.2268
  508MOL0     H68560   3.538   4.777   5.391  1.3768 -0.9199  0.0405
  508MOL0     H68561   3.314   4.852   5.336 -0.5654 -1.5708  0.2971
  508MOL0     H68562   3.074   5.241   5.077 -1.7385  1.6737  4.0108
  508MOL0     H68563   2.847   5.303   5.079  0.6108  0.1776 -4.1286
  508MOL0     H68564   1.431   5.585   5.844  1.0738 -0.1231 -1.4398
  508MOL0     H68565   1.619   5.729   5.919  2.0258  0.0053  0.5693
  508MOL0     H68566   2.029   5.687   6.197 -1.5753 -0.1655 -1.3421
  508MOL0     H68567   2.255   5.788   6.236  0.8597  2.0005 -1.7242
  508MOL0     H68568   2.265   6.005   6.442  0.7559 -1.9353 -1.5976
  508MOL0     H68569   2.285   6.178   6.397  3.0251  0.8799  2.0162
  508MOL0     H68570   2.521   5.985   6.442  0.4249 -0.1860  1.0390
  508MOL0     H68571   2.457   6.130   6.521  0.1748  1.4453 -0.7126
  508MOL0     H68572   2.494   6.251   6.298  1.4883 -0.2481 -2.6492
  508MOL0     H68573   2.588   6.111   6.241  2.4635  1.6459 -0.0534
  508MOL0     H68574   2.762   6.146   6.419  2.0775  2.4086  0.1122
  508MOL0     H68575   2.741   6.299   6.333  2.7196  0.1282  2.2459
  508MOL0     H68576   2.609   6.353   6.738 -0.5676  1.3561 -0.6427
  508MOL0     H68577   2.088   6.179   6.178 -0.5593 -0.1167  1.1960
  508MOL0     H68578   1.885   6.210   6.154  0.5677  1.2130 -1.2496
  508MOL0     H68579   1.865   6.131   5.996 -0.1919  1.6608 -0.3500
  508MOL0     H68580   1.759   6.093   6.140  0.9755  0.5005  2.3175
  509MOL0     O68581   2.361   9.337   3.156  1.1464 -0.1291  0.0042
  509MOL0     C68582   2.400   9.248   3.221  0.6473  0.3458  0.8742
  509MOL0     O68583   2.529   9.217   3.228 -0.5872 -0.0331  0.3589
  509MOL0     C68584   2.618   9.239   3.123 -0.0054  0.1810 -0.3401
  509MOL0     C68585   2.589   9.218   2.988  0.0276  0.6796 -0.4666
  509MOL0     C68586   2.690   9.239   2.887  0.1505 -0.0730 -0.2714
  509MOL0     C68587   2.824   9.270   2.924  0.9300 -0.0300 -0.2534
  509MOL0     O68588   2.925   9.299   2.837  0.3436  0.1891  0.2203
  509MOL0     C68589   3.059   9.242   2.858 -0.8359 -1.2188  0.4797
  509MOL0     C68590   3.141   9.234   2.723 -0.2569 -0.8064 -0.4746
  509MOL0     C68591   3.133   9.368   2.635  0.1093  0.4267  0.6361
  509MOL0     C68592   3.014   9.388   2.547 -0.9218  0.5870 -0.9501
  509MOL0     C68593   3.035   9.501   2.446 -0.4028 -0.6994  1.2004
  509MOL0     C68594   3.021   9.641   2.507  0.4292 -0.2263  0.0858
  509MOL0     C68595   3.145   9.727   2.481 -0.1665  0.4853 -0.1163
  509MOL0     C68596   3.136   9.862   2.550  0.0954 -0.1457  0.1265
  509MOL0     N68597   3.253   9.945   2.557 -0.4606 -0.4833 -0.2996
  509MOL0     C68598   3.331   9.971   2.446  0.0955 -0.0403 -0.6629
  509MOL0     C68599   3.440  10.036   2.492  0.2914 -0.0228  0.2433
  509MOL0     C68600   3.544  10.075   2.397  0.4263 -0.3931  0.2061
  509MOL0     C68601   3.685  10.073   2.442 -0.1434  0.6434 -0.4051
  509MOL0     C68602   3.774  10.129   2.327 -0.2296 -0.5177  0.2653
  509MOL0     C68603   3.922  10.142   2.365 -0.3059  0.6085  0.2779
  509MOL0     O68604   3.984  10.014   2.404 -0.2003  0.4357  0.2432
  509MOL0     C68605   4.113  10.016   2.444  0.5111  0.0364  0.4427
  509MOL0     C68606   4.174   9.889   2.469 -0.7449  0.0935 -0.0215
  509MOL0     C68607   4.305   9.889   2.524  0.9932 -0.9907  0.4455
  509MOL0     C68608   4.369  10.007   2.556 -0.2619  0.5737  0.0345
  509MOL0     C68609   4.513  10.001   2.595  0.4190  0.0763 -0.4826
  509MOL0     O68610   4.571  10.123   2.625 -0.7531 -0.3857  0.4899
  509MOL0     C68611   4.702  10.128   2.676  0.0053 -0.4132  0.2713
  509MOL0     C68612   4.800  10.040   2.622 -0.6036  0.1003  0.7252
  509MOL0     C68613   4.931  10.035   2.677  0.5289 -0.1849  0.6651
  509MOL0     C68614   4.965  10.119   2.783 -0.6947  0.6201 -0.3105
  509MOL0     O68615   5.091  10.104   2.842  0.2520 -0.4767  0.2134
  509MOL0     C68616   5.199  10.063   2.756  0.4856 -0.6022  0.0396
  509MOL0     C68617   5.336  10.067   2.821  0.3596  0.7177 -0.4204
  509MOL0     C68618   5.440  10.049   2.703  0.4877 -0.9147 -0.9399
  509MOL0     C68619   5.577  10.014   2.756  0.0248 -0.2469 -0.1568
  509MOL0     C68620   5.591   9.869   2.799  0.3989 -0.2228  0.1007
  509MOL0     C68621   5.743   9.847   2.824 -0.6766 -0.5253  0.0823
  509MOL0     C68622   5.779   9.707   2.875 -0.1795  0.3345  0.7776
  509MOL0     C68623   5.768   9.612   2.756 -0.5999 -0.1168  0.3601
  509MOL0    Cl68624   5.671   9.477   2.801  0.1873  0.1130  0.2221
  509MOL0     C68625   4.873  10.202   2.847 -0.4562  0.6518  0.2766
  509MOL0     C68626   4.739  10.194   2.801  0.4709 -1.4618  0.0547
  509MOL0     O68627   4.561   9.889   2.606 -0.5687 -0.5238  0.8681
  509MOL0     C68628   4.317  10.129   2.519 -0.2364 -0.0909 -0.2998
  509MOL0     C68629   4.191  10.130   2.465  0.6798  0.3776  0.1237
  509MOL0     N68630   3.431  10.041   2.629 -0.0203 -0.1410 -0.3366
  509MOL0     N68631   3.319   9.992   2.667  0.4027 -0.6285  0.4449
  509MOL0     C68632   2.849   9.290   3.065 -0.1314 -0.4464 -0.2220
  509MOL0     C68633   2.751   9.282   3.160 -0.8756  0.3403 -0.2506
  509MOL0     C68634   2.295   9.166   3.302 -0.8449 -0.5816  0.4003
  509MOL0     C68635   2.162   9.223   3.307 -0.0128  0.5752  0.6346
  509MOL0     C68636   2.060   9.154   3.383 -0.2573 -0.2423  0.0413
  509MOL0     C68637   2.100   9.045   3.460  0.4248  0.4809 -0.3398
  509MOL0     O68638   2.021   8.970   3.545 -0.0807 -0.4228 -0.2330
  509MOL0     C68639   1.879   9.001   3.549 -0.1092 -0.3217  0.2405
  509MOL0     C68640   1.790   8.912   3.629 -0.0267 -0.6252 -0.1807
  509MOL0     C68641   1.787   8.770   3.578 -0.5964 -0.6971  0.6062
  509MOL0     C68642   1.683   8.689   3.661  0.6155 -0.7161  1.1998
  509MOL0     C68643   1.677   8.569   3.595 -0.0458  1.0821 -0.1565
  509MOL0     C68644   1.661   8.457   3.554  0.4270 -0.3081 -0.3957
  509MOL0     C68645   2.230   9.001   3.456 -0.3069  0.5087 -0.2734
  509MOL0     C68646   2.327   9.052   3.376 -0.6066  0.4881  0.5481
  509MOL0     C68647   2.474   9.005   3.403 -0.2141 -0.4425  0.4263
  509MOL0     H68648   2.489   9.187   2.958  0.3498 -1.1286  0.2041
  509MOL0     H68649   2.653   9.239   2.785 -2.1175  0.0550  0.4907
  509MOL0     H68650   3.118   9.303   2.926 -0.8479 -1.5986  0.8328
  509MOL0     H68651   3.049   9.142   2.902 -0.2049 -2.8300 -2.6977
  509MOL0     H68652   3.096   9.149   2.669 -1.6278 -0.1677 -0.3826
  509MOL0     H68653   3.248   9.221   2.741  0.1050  1.8288 -0.4404
  509MOL0     H68654   3.218   9.364   2.566  0.0447  2.0710  0.4031
  509MOL0     H68655   3.147   9.452   2.704  1.0606  1.2521 -0.5080
  509MOL0     H68656   2.995   9.303   2.481  2.2928  0.1404 -1.4607
  509MOL0     H68657   2.929   9.411   2.612  0.4979  1.0697  0.8278
  509MOL0     H68658   3.130   9.489   2.394 -1.2865  2.1158 -1.3042
  509MOL0     H68659   2.964   9.494   2.364  0.0780  0.6433  0.6524
  509MOL0     H68660   2.935   9.697   2.471  0.7138 -1.5327 -2.9178
  509MOL0     H68661   3.004   9.642   2.615 -3.3125 -0.2971 -0.3808
  509MOL0     H68662   3.158   9.748   2.375 -1.5306 -2.3812 -0.9430
  509MOL0     H68663   3.235   9.675   2.516 -0.0384  1.3407  0.8829
  509MOL0     H68664   3.063   9.920   2.494  0.6687  0.0342 -0.4445
  509MOL0     H68665   3.109   9.846   2.655  1.0111  0.5659  0.4889
  509MOL0     H68666   3.310   9.954   2.341 -0.1670 -3.3867 -0.1801
  509MOL0     H68667   3.531  10.013   2.307 -0.1608  0.3859 -0.2696
  509MOL0     H68668   3.513  10.175   2.362  1.8320  1.5456  3.9822
  509MOL0     H68669   3.691  10.142   2.526 -1.2718  1.8385 -1.2609
  509MOL0     H68670   3.718   9.973   2.472  2.7478  1.8007  0.5667
  509MOL0     H68671   3.730  10.218   2.282 -1.2106  0.3533  2.7813
  509MOL0     H68672   3.771  10.058   2.243  0.8127 -0.1439 -0.0980
  509MOL0     H68673   3.920  10.226   2.435 -1.8072  0.5010  0.3945
  509MOL0     H68674   3.971  10.184   2.277  0.7828 -0.0151  0.5622
  509MOL0     H68675   4.123   9.794   2.463  1.3864 -1.2955  2.1660
  509MOL0     H68676   4.336   9.788   2.550  1.7348 -0.4309  1.7832
  509MOL0     H68677   4.774   9.981   2.534 -1.6142  1.7716 -0.1436
  509MOL0     H68678   4.997   9.961   2.632  1.9179  0.2909  1.8519
  509MOL0     H68679   5.183   9.964   2.712  1.0907 -0.1036 -1.3548
  509MOL0     H68680   5.214  10.134   2.674  2.7686 -0.4937  0.4896
  509MOL0     H68681   5.354  10.151   2.888  2.1506  0.3304 -0.3518
  509MOL0     H68682   5.340   9.981   2.888 -1.2684  0.3016 -0.7981
  509MOL0     H68683   5.399   9.974   2.635  0.3325 -1.6576 -0.0493
  509MOL0     H68684   5.444  10.152   2.666 -2.1122  0.4006  1.9829
  509MOL0     H68685   5.599  10.074   2.845 -1.5246  0.2588 -0.0813
  509MOL0     H68686   5.650  10.034   2.677  0.0399 -0.3968 -0.1820
  509MOL0     H68687   5.544   9.800   2.729 -1.2493  1.3310 -0.4030
  509MOL0     H68688   5.531   9.856   2.890  0.8477  1.1115  0.6262
  509MOL0     H68689   5.799   9.863   2.731 -1.2787 -0.2228 -0.2323
  509MOL0     H68690   5.783   9.916   2.897 -0.0812 -0.1702 -0.5677
  509MOL0     H68691   5.707   9.675   2.950 -1.2518  1.4653  0.2814
  509MOL0     H68692   5.870   9.710   2.935 -0.3737 -1.1244  1.1594
  509MOL0     H68693   5.725   9.650   2.663  0.2221 -3.8856 -1.7705
  509MOL0     H68694   5.870   9.578   2.737  0.5013  2.7027  0.8030
  509MOL0     H68695   4.900  10.266   2.930  0.8081  2.0794 -1.1608
  509MOL0     H68696   4.670  10.248   2.864  2.5075  2.0332 -0.4572
  509MOL0     H68697   4.376  10.219   2.529  2.7014 -2.1405  4.1560
  509MOL0     H68698   4.154  10.231   2.447  1.7839  0.6473 -0.6846
  509MOL0     H68699   2.947   9.310   3.108 -0.6808 -1.2677  1.4800
  509MOL0     H68700   2.776   9.291   3.265  0.7204  0.0419 -0.5829
  509MOL0     H68701   2.132   9.318   3.265 -1.8005  0.2848  1.2023
  509MOL0     H68702   1.967   9.211   3.385  0.4451  1.0870 -1.9027
  509MOL0     H68703   1.845   8.997   3.445 -1.0008 -0.3324  0.5265
  509MOL0     H68704   1.872   9.106   3.579 -0.3922  0.4490 -2.3033
  509MOL0     H68705   1.689   8.953   3.637 -0.0843 -0.1148 -2.6330
  509MOL0     H68706   1.824   8.901   3.732  1.3442  1.2252 -0.4036
  509MOL0     H68707   1.880   8.715   3.595 -1.3394 -1.4511  2.4415
  509MOL0     H68708   1.772   8.783   3.470  1.0841 -0.9637  0.3022
  509MOL0     H68709   1.714   8.688   3.766  0.8247 -3.2168  1.1762
  509MOL0     H68710   1.582   8.731   3.652  0.5688 -1.1782 -0.7515
  509MOL0     H68711   1.653   8.360   3.510 -0.5662  0.5343 -2.1825
  509MOL0     H68712   2.256   8.917   3.521  3.0958  2.8567  1.7081
  509MOL0     H68713   2.536   9.091   3.429 -0.3026 -0.9270  2.4104
  509MOL0     H68714   2.478   8.934   3.486 -2.1466 -0.9788  0.1141
  509MOL0     H68715   2.510   8.960   3.310  0.5326  1.8339 -0.4660
  510MOL0     O68716   6.533  10.090   7.378 -0.7709  0.2217  0.0210
  510MOL0     C68717   6.532  10.021   7.481  0.0167 -0.7522 -0.0400
  510MOL0     O68718   6.640   9.973   7.541 -0.2775 -0.1763  0.4541
  510MOL0     C68719   6.767   9.990   7.488  0.1318  0.4188 -0.1439
  510MOL0     C68720   6.802  10.003   7.351  0.8085  0.4117 -0.2983
  510MOL0     C68721   6.943  10.019   7.318 -0.8425 -0.6991  0.2665
  510MOL0     C68722   7.038  10.022   7.428  0.4729 -0.3887  0.2538
  510MOL0     O68723   7.178  10.030   7.411  0.5637 -0.0575  0.0158
  510MOL0     C68724   7.217  10.124   7.307  0.4367  0.2430  0.2017
  510MOL0     C68725   7.348  10.177   7.370  0.4767  0.1133 -1.0420
  510MOL0     C68726   7.407  10.275   7.262 -0.1282 -0.7607  0.3374
  510MOL0     C68727   7.551  10.312   7.303  0.4161 -0.4773 -0.1476
  510MOL0     C68728   7.610  10.426   7.219  0.3789  0.0404  0.0907
  510MOL0     C68729   7.726  10.488   7.300  0.7412 -0.2329 -0.5368
  510MOL0     C68730   7.801  10.588   7.221 -0.4066 -0.2218  0.3951
  510MOL0     C68731   7.862  10.536   7.085 -0.3750  0.3857  0.5892
  510MOL0     N68732   7.990  10.602   7.064  0.1751  0.3345  0.0682
  510MOL0     C68733   8.003  10.740   7.059  0.8321  0.7689  0.4661
  510MOL0     C68734   8.138  10.754   7.077 -0.1084 -0.0218  0.3414
  510MOL0     C68735   8.213  10.885   7.064 -0.3435 -0.4627  0.4454
  510MOL0     C68736   8.365  10.883   7.035 -0.1271 -0.3518  0.0455
  510MOL0     C68737   8.418  11.019   7.017  0.8023  0.2541  0.1665
  510MOL0     C68738   8.563  11.014   6.993 -0.6486 -0.2350 -0.1082
  510MOL0     O68739   8.628  11.142   7.030 -0.5976  0.4968 -0.1656
  510MOL0     C68740   8.765  11.164   7.042  0.0645  0.4933  0.0099
  510MOL0     C68741   8.865  11.060   7.026 -0.3007  0.3855 -0.3909
  510MOL0     C68742   8.993  11.093   7.064  0.1771 -0.5976  0.9348
  510MOL0     C68743   9.036  11.223   7.080  0.2345 -0.3310 -0.6534
  510MOL0     C68744   9.179  11.254   7.109 -0.8380 -0.0439  0.1735
  510MOL0     O68745   9.215  11.383   7.127  0.1852 -1.1440  0.5041
  510MOL0     C68746   9.342  11.420   7.156  0.8454 -0.4830  0.9121
  510MOL0     C68747   9.429  11.350   7.242 -0.1089  0.2456  0.3732
  510MOL0     C68748   9.546  11.409   7.280  0.4427 -0.8654  0.1026
  510MOL0     C68749   9.591  11.533   7.225  0.0094  0.4065  0.0031
  510MOL0     O68750   9.724  11.563   7.238 -0.1520 -0.4037 -0.0112
  510MOL0     C68751   9.774  11.593   7.366 -0.7109 -0.5571  0.1426
  510MOL0     C68752   9.925  11.604   7.362 -0.0019 -0.1964 -0.3370
  510MOL0     C68753   9.974  11.710   7.273 -0.4774 -0.3347  0.1582
  510MOL0     C68754  10.128  11.710   7.302  0.0465 -0.3186  0.3159
  510MOL0     C68755  10.214  11.786   7.198  0.1714  0.3469 -0.0609
  510MOL0     C68756  10.360  11.770   7.234 -0.6738  0.5506  0.5010
  510MOL0     C68757  10.435  11.646   7.180  0.3387 -0.0848 -0.0495
  510MOL0     C68758  10.572  11.624   7.231  0.7553 -0.4775 -0.1528
  510MOL0    Cl68759  10.674  11.761   7.186  0.2381  0.1780  0.1433
  510MOL0     C68760   9.504  11.595   7.129 -0.6394 -0.1952  0.2588
  510MOL0     C68761   9.377  11.542   7.099 -0.3322  0.0771  0.8696
  510MOL0     O68762   9.253  11.160   7.115  0.0434 -0.1271 -0.2028
  510MOL0     C68763   8.936  11.325   7.094 -0.2366  0.4375  0.0417
  510MOL0     C68764   8.809  11.293   7.070  0.8338  0.3859  0.1569
  510MOL0     N68765   8.196  10.631   7.099 -0.0531 -0.9817  0.2641
  510MOL0     N68766   8.104  10.546   7.097 -0.4076  1.3141  0.1460
  510MOL0     C68767   6.997  10.009   7.559 -0.6382 -0.6059 -0.2301
  510MOL0     C68768   6.865   9.991   7.586  0.2962 -0.2088 -0.8393
  510MOL0     C68769   6.400   9.973   7.529  0.7773  0.0734  0.2624
  510MOL0     C68770   6.294  10.064   7.535 -0.3004 -0.3728  0.1013
  510MOL0     C68771   6.171  10.029   7.580  0.7527 -0.2577  0.6190
  510MOL0     C68772   6.149   9.890   7.604  0.7751 -0.6583 -0.9718
  510MOL0     O68773   6.031   9.840   7.655 -0.1645  0.0269 -0.8853
  510MOL0     C68774   5.927   9.925   7.705  0.6109 -0.5025 -0.5314
  510MOL0     C68775   5.826   9.836   7.774  0.2637  0.0457  0.5087
  510MOL0     C68776   5.761   9.741   7.677 -0.5485 -1.1415 -0.6222
  510MOL0     C68777   5.654   9.649   7.729 -0.2642 -0.0208  0.4416
  510MOL0     C68778   5.592   9.563   7.625 -0.3445  1.1427  0.9653
  510MOL0     C68779   5.530   9.496   7.540 -0.2544  0.7170 -0.3377
  510MOL0     C68780   6.254   9.801   7.605 -0.4158  0.5356 -0.2002
  510MOL0     C68781   6.388   9.843   7.570  0.7637 -0.5394  0.3836
  510MOL0     C68782   6.503   9.743   7.575  0.0274  0.0117 -0.1928
  510MOL0     H68783   6.730  10.006   7.269 -1.0151  0.0371  1.2191
  510MOL0     H68784   6.974  10.028   7.215 -0.2185 -0.6005  0.4577
  510MOL0     H68785   7.233  10.075   7.211  1.2720 -0.2319  0.5733
  510MOL0     H68786   7.146  10.207   7.298  0.1505 -0.0922 -0.7003
  510MOL0     H68787   7.420  10.097   7.385 -1.1786 -1.7045 -2.3068
  510MOL0     H68788   7.334  10.223   7.468  2.1789 -0.8228 -0.3304
  510MOL0     H68789   7.350  10.368   7.250 -0.7514 -1.4024 -2.2379
  510MOL0     H68790   7.414  10.226   7.164 -0.5135 -2.1240  0.9706
  510MOL0     H68791   7.533  10.347   7.405 -0.0624 -2.9394  0.6597
  510MOL0     H68792   7.615  10.223   7.304 -0.8196 -1.4175 -1.2129
  510MOL0     H68793   7.651  10.387   7.126 -1.5180  2.4055 -1.8720
  510MOL0     H68794   7.543  10.505   7.183 -0.8855 -1.1492 -0.2503
  510MOL0     H68795   7.682  10.532   7.390 -0.4451  0.9454 -1.6510
  510MOL0     H68796   7.793  10.404   7.322  0.1974 -0.6233 -0.3409
  510MOL0     H68797   7.879  10.631   7.285  2.6829 -1.1492 -2.4753
  510MOL0     H68798   7.732  10.673   7.211 -0.7040 -0.4873  0.1786
  510MOL0     H68799   7.876  10.428   7.091 -1.5219  0.2539  0.9563
  510MOL0     H68800   7.798  10.550   6.998  2.4315 -2.2595 -2.2073
  510MOL0     H68801   7.939  10.822   7.028  1.0797  1.5114  1.8359
  510MOL0     H68802   8.166  10.940   6.982  1.4696 -0.7135 -0.8255
  510MOL0     H68803   8.201  10.941   7.157 -2.5781 -1.1957  0.6518
  510MOL0     H68804   8.426  10.831   7.109  0.5465 -0.4684 -0.5760
  510MOL0     H68805   8.382  10.829   6.941 -1.3574 -0.8293  0.0788
  510MOL0     H68806   8.384  11.075   7.105 -2.3623  0.5230 -1.0856
  510MOL0     H68807   8.372  11.080   6.937 -3.2835  1.3876  3.0340
  510MOL0     H68808   8.579  10.991   6.887 -1.3019  2.1821 -0.8147
  510MOL0     H68809   8.609  10.948   7.067  1.8804  2.4621  0.9139
  510MOL0     H68810   8.838  10.957   7.005 -2.5240 -0.0631  3.5407
  510MOL0     H68811   9.070  11.015   7.065 -1.1371 -2.0336 -1.0935
  510MOL0     H68812   9.397  11.257   7.289 -0.6181  0.0417 -0.3665
  510MOL0     H68813   9.611  11.359   7.352 -0.7318 -1.6229  0.6684
  510MOL0     H68814   9.725  11.685   7.399 -1.1107 -1.3506  1.8971
  510MOL0     H68815   9.732  11.515   7.431  0.3803 -1.2588  0.0320
  510MOL0     H68816   9.968  11.610   7.462  0.5708 -3.4837 -0.2918
  510MOL0     H68817   9.962  11.510   7.320  0.0711 -0.8135  1.0445
  510MOL0     H68818   9.949  11.689   7.168  1.5297  0.4004 -0.5103
  510MOL0     H68819   9.939  11.809   7.303 -2.0973 -0.5171 -1.0273
  510MOL0     H68820  10.163  11.608   7.323 -3.2992 -0.9727  3.6643
  510MOL0     H68821  10.139  11.761   7.398  0.8342 -0.5983  0.3898
  510MOL0     H68822  10.174  11.888   7.198  0.5390  0.5161  1.5696
  510MOL0     H68823  10.209  11.750   7.095  1.4590  2.7443 -1.0528
  510MOL0     H68824  10.409  11.857   7.190  0.9852 -0.6832 -0.1900
  510MOL0     H68825  10.375  11.770   7.343 -0.6537 -1.5818  0.5274
  510MOL0     H68826  10.450  11.649   7.071 -1.2614 -1.5466 -0.3361
  510MOL0     H68827  10.370  11.561   7.201 -0.9809  1.1298  0.9428
  510MOL0     H68828  10.569  11.607   7.339  0.8474 -0.9693 -0.2251
  510MOL0     H68829  10.608  11.531   7.187 -1.3237 -1.3503 -0.1173
  510MOL0     H68830   9.533  11.688   7.081  2.3873 -1.5070 -0.7476
  510MOL0     H68831   9.313  11.587   7.024  1.3775 -0.6921 -1.1232
  510MOL0     H68832   8.969  11.424   7.126  0.2704 -0.1649  1.4715
  510MOL0     H68833   8.727  11.363   7.059  2.0959  1.8041 -0.7487
  510MOL0     H68834   7.070  10.013   7.640 -0.0308 -0.4525 -0.7730
  510MOL0     H68835   6.834   9.991   7.690  1.4505  0.2611 -0.4789
  510MOL0     H68836   6.321  10.169   7.523  3.8635 -0.9419  2.3665
  510MOL0     H68837   6.103  10.111   7.600 -1.1878 -1.3849 -1.0539
  510MOL0     H68838   5.869   9.981   7.631  1.8357 -1.3315 -2.1931
  510MOL0     H68839   5.973   9.994   7.777 -1.1970  3.0009 -2.4697
  510MOL0     H68840   5.747   9.894   7.823 -1.8330  0.3361 -2.8821
  510MOL0     H68841   5.884   9.785   7.852  0.1923 -0.5276  0.1899
  510MOL0     H68842   5.837   9.676   7.634 -1.5530 -1.7574 -1.5064
  510MOL0     H68843   5.717   9.808   7.602 -4.2228 -0.0306  2.1622
  510MOL0     H68844   5.710   9.593   7.804  2.8687  1.7154 -0.4400
  510MOL0     H68845   5.573   9.704   7.779  2.5700  1.6375  3.6548
  510MOL0     H68846   5.477   9.446   7.461 -0.5590  2.0608 -1.0090
  510MOL0     H68847   6.235   9.699   7.634 -0.2583  0.3189 -0.8451
  510MOL0     H68848   6.551   9.745   7.477 -0.5262 -0.0158 -0.4690
  510MOL0     H68849   6.573   9.768   7.655  0.3815 -2.4269  0.3347
  510MOL0     H68850   6.469   9.644   7.606  0.9490 -0.0496  0.6995
  511MOL0     O68851   4.528   9.294   6.136  0.4059  0.1840 -0.1192
  511MOL0     C68852   4.405   9.262   6.142 -0.4129 -0.1109  1.0664
  511MOL0     O68853   4.332   9.242   6.253 -0.4824  0.2259 -0.3044
  511MOL0     C68854   4.377   9.272   6.378 -0.0868 -0.6480  0.1547
  511MOL0     C68855   4.365   9.401   6.422  0.5238 -0.7381  0.1809
  511MOL0     C68856   4.400   9.441   6.554  0.6669  0.2851 -1.2263
  511MOL0     C68857   4.423   9.347   6.648  0.0041 -0.0775 -0.4802
  511MOL0     O68858   4.457   9.382   6.776  0.2920  0.2995 -0.5038
  511MOL0     C68859   4.378   9.470   6.853  0.4047  0.3064 -0.0200
  511MOL0     C68860   4.473   9.589   6.886  0.5135 -0.5948  0.3722
  511MOL0     C68861   4.574   9.564   6.997  0.2358  0.0577  0.2054
  511MOL0     C68862   4.503   9.541   7.137  0.3868 -0.2391  0.2343
  511MOL0     C68863   4.608   9.500   7.231 -0.0540  0.0055 -0.3071
  511MOL0     C68864   4.695   9.614   7.295 -0.3622 -0.1127  0.3577
  511MOL0     C68865   4.800   9.566   7.393 -0.2804  0.2041 -0.1149
  511MOL0     C68866   4.894   9.470   7.319 -0.1394  0.1948  0.4932
  511MOL0     N68867   5.007   9.427   7.395 -0.4353 -0.0976 -0.2994
  511MOL0     C68868   5.028   9.295   7.435  0.6322 -0.4271 -0.3152
  511MOL0     C68869   5.133   9.305   7.521  1.1213  1.0231  0.8150
  511MOL0     C68870   5.167   9.193   7.621 -0.0909 -0.5580  0.5084
  511MOL0     C68871   5.313   9.173   7.607 -0.0474  0.9681 -0.0202
  511MOL0     C68872   5.360   9.059   7.695 -0.5227 -0.3638 -0.9951
  511MOL0     C68873   5.495   8.993   7.667  0.7821 -1.4080  0.4651
  511MOL0     O68874   5.586   9.097   7.674 -0.4941  0.5585 -0.4538
  511MOL0     C68875   5.718   9.065   7.666 -0.8366  0.5700  0.5176
  511MOL0     C68876   5.788   8.960   7.720  0.3671  0.0772 -0.0753
  511MOL0     C68877   5.930   8.957   7.713 -0.5096 -0.3632  0.5014
  511MOL0     C68878   6.001   9.058   7.650 -0.5172 -0.2751 -0.7072
  511MOL0     C68879   6.151   9.062   7.663  0.0182 -0.1928 -0.3800
  511MOL0     O68880   6.214   9.151   7.578  0.1532 -0.3397 -0.7302
  511MOL0     C68881   6.350   9.164   7.559 -0.3899  1.0687  0.3030
  511MOL0     C68882   6.439   9.060   7.555 -0.2199  0.3402 -0.3023
  511MOL0     C68883   6.572   9.087   7.519 -0.1922  0.4484  0.5995
  511MOL0     C68884   6.622   9.214   7.501 -0.2271  0.0735 -0.5575
  511MOL0     O68885   6.755   9.242   7.470  0.3500  0.6885 -0.0123
  511MOL0     C68886   6.822   9.129   7.414  0.3569 -0.1428 -0.0044
  511MOL0     C68887   6.963   9.156   7.368 -0.3154 -1.1178  0.1022
  511MOL0     C68888   7.039   9.242   7.466  1.0497  0.5477 -0.7249
  511MOL0     C68889   7.192   9.233   7.437  0.4267  0.4169 -0.1203
  511MOL0     C68890   7.271   9.340   7.523 -0.0160  0.0393  0.5218
  511MOL0     C68891   7.320   9.295   7.656  0.7484 -0.2232  0.5846
  511MOL0     C68892   7.370   9.415   7.736 -0.3372  0.7902 -0.2189
  511MOL0     C68893   7.455   9.380   7.855  0.4422  0.0065 -0.4119
  511MOL0    Cl68894   7.607   9.298   7.805 -0.3170 -0.0329 -0.1168
  511MOL0     C68895   6.533   9.322   7.522  0.2926  0.4423  0.0876
  511MOL0     C68896   6.397   9.291   7.552 -0.5734 -0.0108  0.3301
  511MOL0     O68897   6.206   9.001   7.757 -0.4839 -0.9410 -0.6377
  511MOL0     C68898   5.926   9.158   7.589  0.0771  0.0164  0.2921
  511MOL0     C68899   5.790   9.162   7.601  0.6430  0.0409  0.7193
  511MOL0     N68900   5.189   9.431   7.520 -0.0014  0.7571 -0.4274
  511MOL0     N68901   5.106   9.508   7.451 -0.2513 -0.1973 -0.0019
  511MOL0     C68902   4.449   9.214   6.605 -0.6749  0.2857  0.5450
  511MOL0     C68903   4.411   9.177   6.482 -0.0720  0.7143  0.1127
  511MOL0     C68904   4.342   9.243   6.012 -0.6661  0.5571 -0.2775
  511MOL0     C68905   4.239   9.147   6.012 -1.0025  0.8334 -0.6874
  511MOL0     C68906   4.168   9.112   5.894 -0.6248 -0.1113 -0.5556
  511MOL0     C68907   4.209   9.182   5.775  1.0462  0.5006  0.1386
  511MOL0     O68908   4.149   9.158   5.655  0.2769 -0.2299 -0.1577
  511MOL0     C68909   4.021   9.100   5.651 -0.0367  0.4516  0.9524
  511MOL0     C68910   4.020   8.957   5.632 -0.3795 -0.0785  0.8259
  511MOL0     C68911   4.112   8.907   5.522  0.2142  0.1972 -0.0628
  511MOL0     C68912   4.109   8.752   5.493 -0.4560  0.0538 -0.0821
  511MOL0     C68913   4.238   8.689   5.527  0.9183 -1.2421 -0.0544
  511MOL0     C68914   4.323   8.610   5.556 -0.6391 -0.5432 -0.2441
  511MOL0     C68915   4.314   9.269   5.773  0.8132  0.3936 -0.7199
  511MOL0     C68916   4.375   9.307   5.890 -0.1615  0.1677 -1.4706
  511MOL0     C68917   4.477   9.415   5.880  0.2341 -0.2175  0.6119
  511MOL0     H68918   4.331   9.475   6.351  2.6575 -0.1583 -0.2937
  511MOL0     H68919   4.405   9.542   6.593 -1.7845 -0.2876  0.8414
  511MOL0     H68920   4.292   9.506   6.795  0.8741 -0.7401 -1.4552
  511MOL0     H68921   4.337   9.415   6.938  0.1797 -0.3574 -0.5459
  511MOL0     H68922   4.419   9.681   6.910  1.6837  0.5725 -1.2853
  511MOL0     H68923   4.530   9.622   6.799 -0.5375  0.2064 -0.0287
  511MOL0     H68924   4.641   9.651   7.003 -0.4325  0.5792  0.1677
  511MOL0     H68925   4.636   9.478   6.968 -2.6751 -1.6426 -1.4328
  511MOL0     H68926   4.456   9.632   7.176 -0.5343 -0.6703  0.1607
  511MOL0     H68927   4.423   9.468   7.128 -0.7327  0.6675  2.2078
  511MOL0     H68928   4.556   9.455   7.317 -1.7093  1.2138 -0.6405
  511MOL0     H68929   4.681   9.430   7.188  0.8942  0.0831  1.0987
  511MOL0     H68930   4.745   9.674   7.219  2.6091 -1.0522  1.4290
  511MOL0     H68931   4.637   9.679   7.361  0.8234 -0.6058  1.9384
  511MOL0     H68932   4.758   9.522   7.483 -0.7936 -1.9427 -1.3382
  511MOL0     H68933   4.862   9.653   7.416 -0.1969 -0.0773  0.7260
  511MOL0     H68934   4.843   9.379   7.287  0.7832 -0.4912  0.9426
  511MOL0     H68935   4.917   9.527   7.229 -0.1245  2.8228  2.0445
  511MOL0     H68936   4.960   9.211   7.424 -0.9044  0.6488  0.5277
  511MOL0     H68937   5.151   9.233   7.721  0.3845  2.2583 -0.4615
  511MOL0     H68938   5.103   9.108   7.594 -1.6819  0.5385  0.6862
  511MOL0     H68939   5.336   9.147   7.503  1.1909 -0.9448  0.6601
  511MOL0     H68940   5.372   9.264   7.624  3.0972 -0.0012 -3.9931
  511MOL0     H68941   5.288   8.977   7.697  0.3412 -1.1272 -0.3476
  511MOL0     H68942   5.362   9.097   7.798  0.9554 -1.1285 -0.7117
  511MOL0     H68943   5.498   8.961   7.562  1.5523 -0.9878  0.3483
  511MOL0     H68944   5.506   8.905   7.729  1.1291 -1.6393  0.0799
  511MOL0     H68945   5.742   8.874   7.767  0.9516  0.2179  0.7798
  511MOL0     H68946   5.984   8.877   7.761 -1.0680 -1.2814 -0.3604
  511MOL0     H68947   6.397   8.960   7.559  1.3130 -0.3445 -0.8758
  511MOL0     H68948   6.635   9.002   7.498  1.2443  1.6756 -0.2981
  511MOL0     H68949   6.838   9.057   7.494 -0.2802 -0.9125 -0.5619
  511MOL0     H68950   6.754   9.077   7.346 -0.2895 -0.4647  0.8650
  511MOL0     H68951   7.009   9.059   7.348 -2.7103 -2.0697 -1.2004
  511MOL0     H68952   6.972   9.213   7.275 -0.1884 -2.8939 -1.0197
  511MOL0     H68953   7.011   9.348   7.457  1.7113  0.7012 -1.0234
  511MOL0     H68954   7.035   9.203   7.568  1.6035 -1.2899 -1.3686
  511MOL0     H68955   7.199   9.253   7.330  1.4428 -1.8664 -0.5543
  511MOL0     H68956   7.236   9.134   7.457  1.5859  0.9357 -0.0222
  511MOL0     H68957   7.230   9.441   7.535  1.4257  0.6113  0.8386
  511MOL0     H68958   7.355   9.370   7.460 -1.3227  0.4410 -1.0933
  511MOL0     H68959   7.233   9.253   7.708 -0.2760  1.2318  0.1063
  511MOL0     H68960   7.398   9.223   7.631  0.4588 -0.0902 -0.7939
  511MOL0     H68961   7.278   9.463   7.770  0.3835  2.8772 -0.9999
  511MOL0     H68962   7.438   9.478   7.677 -2.2848  2.2489 -1.0029
  511MOL0     H68963   7.496   9.469   7.903  1.9698 -1.3383  0.9347
  511MOL0     H68964   7.405   9.308   7.921  1.0848  0.4358  0.5741
  511MOL0     H68965   6.579   9.419   7.506  1.9655 -0.6558 -2.2141
  511MOL0     H68966   6.315   9.361   7.553  0.3139  1.0715  1.8480
  511MOL0     H68967   5.973   9.228   7.521  0.9389 -2.2505 -1.6097
  511MOL0     H68968   5.727   9.224   7.538 -0.0888 -0.3631  1.0416
  511MOL0     H68969   4.479   9.148   6.685 -1.9078  0.8719  1.5144
  511MOL0     H68970   4.407   9.071   6.459  1.6848  0.6419  0.0488
  511MOL0     H68971   4.211   9.095   6.103 -0.0022 -1.9506 -1.8416
  511MOL0     H68972   4.102   9.027   5.900 -0.5162 -0.0815  1.8601
  511MOL0     H68973   3.981   9.142   5.558 -0.8285 -1.0468  0.5826
  511MOL0     H68974   3.952   9.117   5.734 -0.9162  0.7791  0.1780
  511MOL0     H68975   3.921   8.922   5.601  0.0847 -0.7891  0.0767
  511MOL0     H68976   4.051   8.910   5.726  0.9140  0.3066  0.6093
  511MOL0     H68977   4.214   8.944   5.535  1.4675 -1.9031 -2.7058
  511MOL0     H68978   4.068   8.944   5.429 -0.8810 -4.4361 -1.6376
  511MOL0     H68979   4.030   8.690   5.537  1.2781 -2.8348 -0.7863
  511MOL0     H68980   4.112   8.737   5.385 -0.3625 -1.8165  0.1459
  511MOL0     H68981   4.401   8.536   5.562 -0.3343 -0.1550  1.2018
  511MOL0     H68982   4.341   9.317   5.679  2.1895  0.2364 -0.4284
  511MOL0     H68983   4.431   9.477   5.802 -1.1107 -1.1689  0.6176
  511MOL0     H68984   4.493   9.465   5.976  2.3814  1.6825 -0.6275
  511MOL0     H68985   4.575   9.372   5.857  1.3384  1.6391  1.5962
  512MOL0     O68986   7.084   3.534   0.139  0.4715 -0.3360 -0.1072
  512MOL0     C68987   7.013   3.624   0.196 -0.1702 -0.0855  0.1266
  512MOL0     O68988   7.055   3.723   0.276  0.5887  0.6457  0.8543
  512MOL0     C68989   7.183   3.739   0.310 -0.3058  0.2422 -0.5282
  512MOL0     C68990   7.226   3.871   0.319 -0.6188 -0.5944 -0.6152
  512MOL0     C68991   7.352   3.904   0.367  0.5459  0.0307 -0.0162
  512MOL0     C68992   7.442   3.803   0.402 -0.3265 -0.5282 -0.1365
  512MOL0     O68993   7.571   3.824   0.446 -0.1005  0.0767 -0.7445
  512MOL0     C68994   7.635   3.950   0.420 -0.4499  0.4477 -0.4726
  512MOL0     C68995   7.783   3.939   0.473  0.3289  0.0796  0.4589
  512MOL0     C68996   7.872   3.865   0.360  0.0880  0.6277  0.7196
  512MOL0     C68997   7.999   3.814   0.410 -0.5158  0.1239 -0.0408
  512MOL0     C68998   8.079   3.928   0.474  0.5691  0.2141  0.2425
  512MOL0     C68999   8.221   3.877   0.497  0.0197 -0.4613  0.1934
  512MOL0     C69000   8.308   3.986   0.572  0.1723  0.0647  0.4111
  512MOL0     C69001   8.458   3.946   0.587  0.5391 -1.1134 -0.7073
  512MOL0     N69002   8.534   4.057   0.636  0.1328 -0.4565  0.1311
  512MOL0     C69003   8.623   4.121   0.555 -0.6482  0.4904 -0.8082
  512MOL0     C69004   8.701   4.193   0.629 -0.0647  0.7301 -0.4719
  512MOL0     C69005   8.823   4.275   0.589  0.6336  0.2488  0.0545
  512MOL0     C69006   8.848   4.412   0.656  0.1551  1.0367 -0.2236
  512MOL0     C69007   8.872   4.408   0.807  0.4223  0.4096 -0.3691
  512MOL0     C69008   8.977   4.304   0.844  0.1616 -0.1756 -0.0055
  512MOL0     O69009   9.102   4.357   0.797  0.1589 -0.2924 -0.1114
  512MOL0     C69010   9.217   4.278   0.804  0.5733  0.3223 -0.4770
  512MOL0     C69011   9.218   4.144   0.852  0.1700 -0.1046 -0.4743
  512MOL0     C69012   9.321   4.056   0.831 -0.2023  0.0549  0.0087
  512MOL0     C69013   9.443   4.107   0.787  0.3007  0.4104  0.4574
  512MOL0     C69014   9.563   4.021   0.766 -0.5235  0.6424  1.6810
  512MOL0     O69015   9.657   4.071   0.678  0.1154  0.3405  0.0886
  512MOL0     C69016   9.778   4.006   0.671 -0.3155 -0.4925 -0.1205
  512MOL0     C69017   9.833   3.943   0.561  0.4618  0.1367 -0.0911
  512MOL0     C69018   9.966   3.893   0.567 -0.6500  0.0398  1.1782
  512MOL0     C69019  10.043   3.895   0.686 -1.4642 -0.5289  0.1288
  512MOL0     O69020  10.174   3.858   0.693 -0.3653 -0.7056 -0.3958
  512MOL0     C69021  10.231   3.807   0.573 -0.0183 -0.0398  0.3534
  512MOL0     C69022  10.386   3.795   0.598 -0.2466  0.2487  0.7261
  512MOL0     C69023  10.456   3.705   0.499  0.3527  0.0670 -0.2344
  512MOL0     C69024  10.609   3.689   0.533 -0.0531  0.3780 -0.3321
  512MOL0     C69025  10.687   3.816   0.530  0.5928 -0.5384 -0.7485
  512MOL0     C69026  10.837   3.795   0.526 -0.6619  0.3651  0.0785
  512MOL0     C69027  10.911   3.922   0.529 -1.3534  0.5495 -0.1345
  512MOL0     C69028  11.061   3.884   0.506 -0.6244  0.3166  0.3717
  512MOL0    Cl69029  11.132   3.786   0.645  0.3808 -0.1282 -0.1676
  512MOL0     C69030   9.994   3.967   0.798  0.3075 -0.0751 -0.1351
  512MOL0     C69031   9.863   4.023   0.782 -0.7333  0.8013 -0.2860
  512MOL0     O69032   9.567   3.913   0.825 -0.2301 -0.4672  0.0548
  512MOL0     C69033   9.451   4.238   0.744  1.3124 -1.6330  0.3392
  512MOL0     C69034   9.337   4.323   0.752  0.7929  0.3595 -0.0246
  512MOL0     N69035   8.656   4.175   0.760 -0.2992  0.1689 -0.0870
  512MOL0     N69036   8.557   4.093   0.769 -0.3678 -0.0444  0.1636
  512MOL0     C69037   7.398   3.672   0.389 -0.0573  0.2655  0.0024
  512MOL0     C69038   7.274   3.634   0.341 -0.1725  0.9712 -0.4530
  512MOL0     C69039   6.865   3.611   0.163 -0.2296  0.0455  0.2217
  512MOL0     C69040   6.782   3.705   0.220 -0.2262 -0.9540 -0.4142
  512MOL0     C69041   6.642   3.716   0.190 -0.2625 -0.8156  0.8473
  512MOL0     C69042   6.584   3.619   0.101  0.0629 -0.2527 -0.3702
  512MOL0     O69043   6.461   3.637   0.055 -0.3627 -0.1686 -0.0521
  512MOL0     C69044   6.413   3.591  -0.071 -0.1550 -0.8272  0.6216
  512MOL0     C69045   6.360   3.449  -0.076 -0.2925  0.0025  0.5419
  512MOL0     C69046   6.207   3.431  -0.046  0.1011  0.3812  0.8589
  512MOL0     C69047   6.177   3.493   0.089 -0.3590  0.1393  0.3955
  512MOL0     C69048   6.037   3.469   0.125 -0.5148 -0.3295  0.7781
  512MOL0     C69049   5.919   3.451   0.137 -0.4475 -0.0677  0.1512
  512MOL0     C69050   6.665   3.516   0.065 -1.6744 -0.0007  0.5690
  512MOL0     C69051   6.805   3.506   0.090  0.0816 -0.5391 -1.1087
  512MOL0     C69052   6.871   3.389   0.035 -0.3136  0.1688 -0.1324
  512MOL0     H69053   7.161   3.949   0.280 -0.1844 -0.6429 -1.4628
  512MOL0     H69054   7.377   4.009   0.373 -2.5833  0.8557  0.4586
  512MOL0     H69055   7.649   3.967   0.313  0.0539 -0.1965 -0.5159
  512MOL0     H69056   7.583   4.027   0.479 -1.5731 -0.0358 -0.8019
  512MOL0     H69057   7.783   3.881   0.565 -2.3083 -1.8394 -0.6109
  512MOL0     H69058   7.815   4.041   0.494  0.8747  0.1448 -0.6243
  512MOL0     H69059   7.891   3.930   0.274 -0.3835 -2.0765 -1.5866
  512MOL0     H69060   7.814   3.775   0.337 -3.3262  2.1202  2.5941
  512MOL0     H69061   7.977   3.734   0.480 -0.6840  0.8772  0.7783
  512MOL0     H69062   8.063   3.773   0.331  1.0274  2.0476  0.1428
  512MOL0     H69063   8.068   4.014   0.408 -2.8393  1.8091  2.5734
  512MOL0     H69064   8.046   3.958   0.574  1.0878  2.8886 -0.3016
  512MOL0     H69065   8.226   3.783   0.553  1.2679  0.8991  2.5261
  512MOL0     H69066   8.269   3.857   0.400 -1.3906  1.8487 -1.0804
  512MOL0     H69067   8.261   3.991   0.671  0.0211 -1.0230  0.4137
  512MOL0     H69068   8.302   4.083   0.522  0.0332  0.3923  1.0448
  512MOL0     H69069   8.456   3.868   0.664  0.0045 -1.8265 -1.4222
  512MOL0     H69070   8.502   3.900   0.498  3.9642 -1.6929  1.1219
  512MOL0     H69071   8.623   4.110   0.447  1.9537 -0.0452 -0.8113
  512MOL0     H69072   8.910   4.211   0.604  0.1280 -0.2119  1.1328
  512MOL0     H69073   8.826   4.299   0.482  3.4479  1.7512  0.3669
  512MOL0     H69074   8.934   4.450   0.599  1.5199  0.6455  1.4827
  512MOL0     H69075   8.758   4.470   0.635 -1.7167 -2.0416 -1.3016
  512MOL0     H69076   8.773   4.391   0.851  0.8272  1.6336  1.0917
  512MOL0     H69077   8.902   4.507   0.843 -0.6351  0.7163 -0.2979
  512MOL0     H69078   8.949   4.206   0.805  0.5141 -0.2961  0.0448
  512MOL0     H69079   8.979   4.283   0.952 -1.5026  2.2082  0.5711
  512MOL0     H69080   9.122   4.105   0.883 -0.1882  1.3702  0.3914
  512MOL0     H69081   9.316   3.951   0.859  0.1188  0.1916  0.5857
  512MOL0     H69082   9.770   3.942   0.473  0.0765  0.8556  0.1623
  512MOL0     H69083  10.005   3.844   0.478 -1.8758  0.1665  0.5398
  512MOL0     H69084  10.196   3.705   0.549  1.2899 -0.4784  0.2504
  512MOL0     H69085  10.217   3.885   0.497 -1.6416 -1.7524 -1.2232
  512MOL0     H69086  10.432   3.894   0.606  0.6822 -0.1867  0.9039
  512MOL0     H69087  10.406   3.758   0.698  1.6330 -0.2738  0.2113
  512MOL0     H69088  10.404   3.609   0.505 -0.2244  0.3513 -0.6556
  512MOL0     H69089  10.444   3.750   0.400 -0.4404 -1.3151 -0.7973
  512MOL0     H69090  10.651   3.624   0.455 -0.8937  0.4315 -0.8522
  512MOL0     H69091  10.625   3.644   0.631  1.2825  1.0189 -0.2439
  512MOL0     H69092  10.652   3.876   0.614 -2.5952 -1.9165 -0.9629
  512MOL0     H69093  10.660   3.879   0.445 -0.2249 -1.0602 -0.8840
  512MOL0     H69094  10.862   3.737   0.616 -1.7268  1.5425  1.1876
  512MOL0     H69095  10.872   3.742   0.438  0.8545  3.2800 -1.2283
  512MOL0     H69096  10.899   3.958   0.632 -0.5402  0.5522 -0.0339
  512MOL0     H69097  10.874   3.986   0.448 -0.6106  0.1262 -0.8158
  512MOL0     H69098  11.067   3.829   0.411 -1.2490  2.2932 -0.8826
  512MOL0     H69099  11.127   3.970   0.490  0.2293 -0.2204  0.9503
  512MOL0     H69100  10.048   3.978   0.892  2.6675  2.2638 -1.6271
  512MOL0     H69101   9.830   4.073   0.873 -2.6430  3.6686 -2.3789
  512MOL0     H69102   9.544   4.281   0.706  0.2732  1.8163  1.2935
  512MOL0     H69103   9.343   4.427   0.722  0.3038  0.3572 -0.1407
  512MOL0     H69104   7.469   3.598   0.424 -1.6241 -1.1343  0.3922
  512MOL0     H69105   7.257   3.527   0.335 -2.5334  1.1670  1.0131
  512MOL0     H69106   6.812   3.783   0.289 -1.9871 -0.5856 -0.0257
  512MOL0     H69107   6.587   3.799   0.233  2.3599  0.8914  1.1243
  512MOL0     H69108   6.494   3.606  -0.143 -1.4457 -1.6641 -1.0824
  512MOL0     H69109   6.337   3.666  -0.092 -1.9182 -2.5484  0.6279
  512MOL0     H69110   6.408   3.387   0.001 -1.6745  0.6168  1.9606
  512MOL0     H69111   6.373   3.424  -0.181 -1.0189  1.5155  0.0539
  512MOL0     H69112   6.181   3.324  -0.042 -0.8803  0.6558  2.2059
  512MOL0     H69113   6.149   3.473  -0.128  0.2320  0.6141  0.8873
  512MOL0     H69114   6.246   3.457   0.166 -0.6328 -1.7795 -0.2100
  512MOL0     H69115   6.189   3.601   0.095 -3.8773  0.6082  1.2048
  512MOL0     H69116   5.814   3.434   0.144 -0.5691  0.6661  0.1870
  512MOL0     H69117   6.622   3.442  -0.001  0.5188  0.5611 -1.6150
  512MOL0     H69118   6.802   3.316  -0.007  0.5758  1.2253 -3.7840
  512MOL0     H69119   6.932   3.423  -0.049  1.4330 -0.2708  0.8953
  512MOL0     H69120   6.940   3.348   0.110  0.1475 -1.0034 -1.1667
  513MOL0     O69121  10.065   5.768   9.588 -0.4268  0.6717  0.1177
  513MOL0     C69122  10.088   5.662   9.657  0.2340  0.2988  0.3974
  513MOL0     O69123  10.025   5.539   9.655 -0.0372 -0.3243  0.5685
  513MOL0     C69124   9.907   5.527   9.590 -0.2698 -0.2083 -1.1654
  513MOL0     C69125   9.914   5.463   9.470  0.1046  0.2045  0.4006
  513MOL0     C69126   9.798   5.431   9.402  1.1027  0.1664  0.1344
  513MOL0     C69127   9.670   5.472   9.446 -0.3724 -0.4147 -0.2593
  513MOL0     O69128   9.548   5.446   9.383 -0.9836  0.4974 -1.2225
  513MOL0     C69129   9.520   5.322   9.308 -0.5816  0.1473 -0.0183
  513MOL0     C69130   9.462   5.355   9.172 -0.1059 -0.2285  0.4794
  513MOL0     C69131   9.454   5.230   9.077 -0.1493  0.5431  0.8311
  513MOL0     C69132   9.345   5.134   9.119 -0.2832  0.3191  0.0245
  513MOL0     C69133   9.358   5.018   9.021 -0.2051 -0.2109 -0.2067
  513MOL0     C69134   9.240   4.914   9.036 -0.5331  0.1627 -0.6078
  513MOL0     C69135   9.245   4.798   8.934  0.2719  0.1300  0.6552
  513MOL0     C69136   9.204   4.838   8.796 -0.3817 -0.5106  0.8088
  513MOL0     N69137   9.238   4.730   8.700 -0.6844 -0.1916 -0.1378
  513MOL0     C69138   9.335   4.740   8.607  0.6978 -0.6233 -0.0157
  513MOL0     C69139   9.336   4.625   8.540 -0.1683  0.4643 -0.0078
  513MOL0     C69140   9.431   4.586   8.432  0.0053  0.7643  0.2854
  513MOL0     C69141   9.571   4.636   8.469  0.5828  0.0372 -1.2207
  513MOL0     C69142   9.685   4.561   8.402  0.0377 -0.3003  1.0653
  513MOL0     C69143   9.822   4.607   8.460  0.8248 -0.9334  0.3382
  513MOL0     O69144   9.924   4.607   8.360 -0.3577 -0.5414  0.3382
  513MOL0     C69145  10.044   4.564   8.392 -0.9742 -0.3036 -0.8485
  513MOL0     C69146  10.110   4.482   8.299 -0.9680  0.1193 -0.4437
  513MOL0     C69147  10.234   4.429   8.333 -0.0347 -0.3693 -0.2709
  513MOL0     C69148  10.290   4.448   8.462  0.3690 -0.3362 -0.4804
  513MOL0     C69149  10.406   4.372   8.507 -0.0377 -0.7190 -0.0298
  513MOL0     O69150  10.461   4.279   8.425  0.9648 -0.1208  0.1424
  513MOL0     C69151  10.579   4.212   8.452  0.4815 -0.5825  0.1115
  513MOL0     C69152  10.584   4.076   8.403  0.3454  0.4208 -0.2777
  513MOL0     C69153  10.688   3.985   8.444 -0.0966 -0.1982 -0.2703
  513MOL0     C69154  10.785   4.023   8.538 -0.2257  0.1163 -0.4609
  513MOL0     O69155  10.883   3.933   8.567  0.1158 -0.6744 -0.5038
  513MOL0     C69156  10.976   3.975   8.668 -0.4259  0.2100 -1.4688
  513MOL0     C69157  11.086   3.873   8.685 -0.8742 -0.5006  0.0459
  513MOL0     C69158  11.192   3.943   8.765 -0.3257  0.2288 -0.6727
  513MOL0     C69159  11.157   3.947   8.911 -0.3061 -0.1376 -0.7294
  513MOL0     C69160  11.282   3.951   9.000  0.6807  1.1255  0.6427
  513MOL0     C69161  11.352   3.816   8.985  0.0682 -0.0297 -0.2925
  513MOL0     C69162  11.383   3.752   9.113 -0.3305  1.0186 -0.1536
  513MOL0     C69163  11.463   3.625   9.099  0.3910  0.3424  0.3993
  513MOL0    Cl69164  11.610   3.641   9.012 -0.8458  0.0618 -0.0664
  513MOL0     C69165  10.786   4.162   8.567 -0.0542  0.6077  0.4204
  513MOL0     C69166  10.686   4.256   8.533 -0.5520  0.2678 -0.2366
  513MOL0     O69167  10.453   4.395   8.619 -0.2866 -1.0061 -0.0757
  513MOL0     C69168  10.225   4.535   8.545 -0.5256  0.4878  0.3177
  513MOL0     C69169  10.103   4.596   8.512 -0.2081 -0.3218 -0.7267
  513MOL0     N69170   9.228   4.551   8.582 -0.5042  0.1188  0.0479
  513MOL0     N69171   9.176   4.611   8.678  0.3059 -0.0287 -0.6150
  513MOL0     C69172   9.666   5.539   9.572  0.2544 -0.6919  0.1655
  513MOL0     C69173   9.788   5.561   9.644  0.4790  0.4728  0.4058
  513MOL0     C69174  10.208   5.661   9.739  0.5027 -0.3032 -0.3042
  513MOL0     C69175  10.286   5.544   9.736  0.1616 -0.7811 -0.9263
  513MOL0     C69176  10.416   5.547   9.793 -0.7102  1.3259 -0.2673
  513MOL0     C69177  10.466   5.661   9.856 -0.0132  0.4686  0.4235
  513MOL0     O69178  10.586   5.655   9.915 -0.1678  0.2036  0.0521
  513MOL0     C69179  10.687   5.707   9.827  0.3562  0.5943 -0.0684
  513MOL0     C69180  10.804   5.602   9.847 -0.4250 -0.1012  0.8640
  513MOL0     C69181  10.803   5.490   9.741 -0.5149  0.3344  0.1563
  513MOL0     C69182  10.872   5.520   9.602  0.9135  0.3155  0.0802
  513MOL0     C69183  11.021   5.523   9.620 -0.5364 -0.6857 -0.0530
  513MOL0     C69184  11.141   5.530   9.613 -0.2488  0.3342  0.7045
  513MOL0     C69185  10.381   5.773   9.869 -0.1159 -0.4681  0.6438
  513MOL0     C69186  10.254   5.776   9.805  0.1744  0.7901 -0.6211
  513MOL0     C69187  10.169   5.903   9.821 -0.1621 -0.3725 -0.1830
  513MOL0     H69188  10.010   5.423   9.439  0.5653 -0.7233  2.8087
  513MOL0     H69189   9.803   5.367   9.314  0.2043  0.5605 -0.2101
  513MOL0     H69190   9.615   5.269   9.302  0.9573  2.5165  1.5581
  513MOL0     H69191   9.448   5.262   9.364 -1.9730  0.2738 -1.5616
  513MOL0     H69192   9.526   5.427   9.122 -0.1169 -0.8336 -0.4492
  513MOL0     H69193   9.362   5.394   9.192 -1.2354 -3.0745  0.9553
  513MOL0     H69194   9.553   5.184   9.083  0.7805  2.6057  4.2175
  513MOL0     H69195   9.427   5.262   8.975 -1.1656 -3.8230 -0.4914
  513MOL0     H69196   9.355   5.083   9.215  1.4607 -0.7128 -0.6582
  513MOL0     H69197   9.245   5.177   9.111 -1.3292 -1.5903  1.8023
  513MOL0     H69198   9.369   5.041   8.914 -0.4676 -3.3242 -0.9985
  513MOL0     H69199   9.450   4.962   9.039  1.6574  2.2521 -1.4213
  513MOL0     H69200   9.249   4.867   9.134  2.8639  0.4318 -0.6797
  513MOL0     H69201   9.144   4.968   9.035 -0.8611 -0.3622  0.5313
  513MOL0     H69202   9.184   4.715   8.970 -1.0888  0.7070 -0.2150
  513MOL0     H69203   9.345   4.755   8.922 -0.3153 -0.5834 -3.1576
  513MOL0     H69204   9.099   4.868   8.798  0.2886  2.0083  1.6827
  513MOL0     H69205   9.270   4.920   8.768  0.7717 -1.5785  0.3132
  513MOL0     H69206   9.413   4.815   8.595  0.9696 -0.4945  2.2652
  513MOL0     H69207   9.416   4.477   8.435  0.6476  0.6855  1.7694
  513MOL0     H69208   9.385   4.620   8.339 -1.1254 -0.9084  0.1755
  513MOL0     H69209   9.584   4.742   8.447  1.1657  0.2542  0.1078
  513MOL0     H69210   9.581   4.626   8.577  0.9732  2.0971 -1.0328
  513MOL0     H69211   9.684   4.581   8.294  2.3357  1.8804  1.3511
  513MOL0     H69212   9.672   4.452   8.407  1.8963 -0.5107  1.8334
  513MOL0     H69213   9.841   4.540   8.545  2.1580 -1.2008 -0.1384
  513MOL0     H69214   9.812   4.707   8.505 -1.3208  0.6912 -3.3578
  513MOL0     H69215  10.068   4.466   8.201 -0.0326 -4.8766 -0.2796
  513MOL0     H69216  10.285   4.364   8.263  2.0070  0.1326  0.6934
  513MOL0     H69217  10.514   4.048   8.326  1.5425 -0.0590 -1.2246
  513MOL0     H69218  10.690   3.891   8.390  0.3273 -0.7602  0.6980
  513MOL0     H69219  11.021   4.068   8.632  0.7710 -1.6617 -5.4817
  513MOL0     H69220  10.918   3.997   8.757  0.3692  2.0626 -1.3683
  513MOL0     H69221  11.061   3.779   8.737  3.4733 -1.4700  0.8039
  513MOL0     H69222  11.122   3.838   8.588  0.2566 -2.1657  0.9955
  513MOL0     H69223  11.284   3.888   8.748  1.4625  1.9289  2.4948
  513MOL0     H69224  11.195   4.042   8.719 -2.2319  1.2019  1.0905
  513MOL0     H69225  11.103   3.858   8.943  0.6864  0.3038  2.4579
  513MOL0     H69226  11.097   4.034   8.939  0.9582  1.2542 -2.0729
  513MOL0     H69227  11.260   3.960   9.106  1.0350  3.0732  0.5824
  513MOL0     H69228  11.342   4.040   8.977 -0.1095  1.4970 -0.0190
  513MOL0     H69229  11.286   3.751   8.926  1.8378 -0.6799 -1.6314
  513MOL0     H69230  11.446   3.829   8.931  0.0669 -2.8147 -1.1465
  513MOL0     H69231  11.289   3.737   9.167  0.2328  0.0494  0.6148
  513MOL0     H69232  11.437   3.819   9.180 -1.2533 -0.5009  2.2656
  513MOL0     H69233  11.475   3.588   9.201 -1.6994 -1.5237  0.0420
  513MOL0     H69234  11.404   3.547   9.050  3.6821 -0.8965 -2.0108
  513MOL0     H69235  10.871   4.207   8.617 -0.1045 -1.4203  2.5036
  513MOL0     H69236  10.695   4.358   8.569  1.0742  0.3672 -0.8320
  513MOL0     H69237  10.276   4.567   8.636  0.0832  1.4014 -0.3205
  513MOL0     H69238  10.064   4.665   8.587  1.4813 -0.6341  0.4944
  513MOL0     H69239   9.575   5.571   9.621 -0.9826 -2.2853 -1.0035
  513MOL0     H69240   9.788   5.617   9.737  1.7649 -1.1496  1.4296
  513MOL0     H69241  10.258   5.453   9.684  3.0208 -0.1585 -3.9459
  513MOL0     H69242  10.484   5.463   9.797 -0.4640  1.5597  3.1679
  513MOL0     H69243  10.720   5.809   9.848  3.8151 -0.3153 -0.5925
  513MOL0     H69244  10.661   5.706   9.721  1.2550  2.5519 -0.3610
  513MOL0     H69245  10.799   5.554   9.945 -1.6426  0.2599  1.0021
  513MOL0     H69246  10.898   5.658   9.842  0.0542 -0.7971  1.7776
  513MOL0     H69247  10.703   5.449   9.727 -0.4287  0.2613 -0.2638
  513MOL0     H69248  10.858   5.407   9.785 -1.2078 -1.2461 -1.8137
  513MOL0     H69249  10.839   5.443   9.532 -1.4103 -1.1061  2.5524
  513MOL0     H69250  10.837   5.611   9.553 -3.0607 -2.5901 -3.1718
  513MOL0     H69251  11.241   5.543   9.577 -1.1908  0.5466 -2.0964
  513MOL0     H69252  10.412   5.871   9.904  1.7517 -0.2785 -1.3249
  513MOL0     H69253  10.187   5.946   9.919 -1.9881 -0.8184  0.3993
  513MOL0     H69254  10.197   5.971   9.741  0.9866 -0.0360  0.4957
  513MOL0     H69255  10.062   5.879   9.811 -0.1292 -1.3055  1.3712
  514MOL0     O69256  10.277   1.893  11.176 -0.5344 -0.4947 -0.2692
  514MOL0     C69257  10.281   1.876  11.296  0.6436  0.4024 -0.9833
  514MOL0     O69258  10.394   1.884  11.373  0.2028 -0.0123  0.1450
  514MOL0     C69259  10.510   1.936  11.323 -0.1261 -0.3548 -0.0981
  514MOL0     C69260  10.604   1.855  11.259  0.0837  0.3106 -0.5752
  514MOL0     C69261  10.731   1.897  11.221  0.5703 -0.6413 -0.3993
  514MOL0     C69262  10.770   2.032  11.248 -0.0424 -0.2785 -0.7908
  514MOL0     O69263  10.898   2.079  11.235 -0.6617  0.0749  0.3867
  514MOL0     C69264  10.972   2.048  11.351  0.1914 -0.0026 -0.1289
  514MOL0     C69265  11.104   2.132  11.346 -0.0018  1.0963  0.0523
  514MOL0     C69266  11.219   2.089  11.444 -0.6536  0.3239  0.5600
  514MOL0     C69267  11.347   2.170  11.406  0.3763 -0.6981  0.2409
  514MOL0     C69268  11.438   2.208  11.528  0.6188 -0.0755 -0.3408
  514MOL0     C69269  11.583   2.234  11.487 -0.1329  0.0036 -0.1556
  514MOL0     C69270  11.679   2.222  11.608  0.2741  0.0609 -0.2226
  514MOL0     C69271  11.718   2.083  11.653 -0.0017  0.5329  0.6675
  514MOL0     N69272  11.845   2.093  11.715 -0.1677 -0.0995 -0.5095
  514MOL0     C69273  11.873   2.129  11.845 -0.0955  0.2058  0.9888
  514MOL0     C69274  12.006   2.118  11.856  0.0604  0.3863  0.0912
  514MOL0     C69275  12.085   2.156  11.977  0.0201  0.1724 -0.5983
  514MOL0     C69276  12.149   2.286  11.970 -0.1280  0.6377  0.4223
  514MOL0     C69277  12.238   2.315  12.085  0.3605 -0.0771 -0.3106
  514MOL0     C69278  12.306   2.458  12.076 -0.3852  0.3509  0.1357
  514MOL0     O69279  12.407   2.474  12.169 -0.2231 -0.0905 -0.2407
  514MOL0     C69280  12.496   2.575  12.159  0.5121 -0.1150 -0.0300
  514MOL0     C69281  12.616   2.548  12.228  1.5097  0.4602  0.0888
  514MOL0     C69282  12.723   2.637  12.223  0.5066 -0.2700 -0.4273
  514MOL0     C69283  12.715   2.761  12.153  0.6343 -0.0360  0.0065
  514MOL0     C69284  12.834   2.854  12.150 -0.8356 -0.8007  0.6520
  514MOL0     O69285  12.934   2.838  12.245  0.0934  1.0818  0.7094
  514MOL0     C69286  13.052   2.895  12.230  0.9286  0.0342  1.1953
  514MOL0     C69287  13.114   2.910  12.103  0.1144  0.0995  0.1106
  514MOL0     C69288  13.239   2.955  12.102  0.0220  0.1561 -0.0011
  514MOL0     C69289  13.311   2.987  12.212 -0.6207  0.2359  0.0434
  514MOL0     O69290  13.438   3.037  12.198 -0.9999 -0.3283 -0.1476
  514MOL0     C69291  13.543   2.938  12.153  0.7082 -0.3997 -0.2871
  514MOL0     C69292  13.606   2.857  12.266  0.5990  0.3120 -0.3262
  514MOL0     C69293  13.700   2.942  12.350 -1.1946 -0.3343  0.9493
  514MOL0     C69294  13.811   2.864  12.427  0.6969  0.4158  0.4674
  514MOL0     C69295  13.915   2.967  12.499  0.3922  0.4757 -0.6577
  514MOL0     C69296  14.042   2.893  12.550  0.1139 -0.4574  0.2955
  514MOL0     C69297  14.004   2.809  12.668  0.2780  0.5870 -0.0363
  514MOL0     C69298  14.123   2.729  12.722 -0.7408 -0.0528  0.3397
  514MOL0    Cl69299  14.195   2.608  12.615 -0.1616 -0.0118 -0.0363
  514MOL0     C69300  13.248   2.979  12.331  0.2044  0.3785 -0.2315
  514MOL0     C69301  13.121   2.924  12.345  0.0197  0.8020 -0.3579
  514MOL0     O69302  12.827   2.941  12.062  0.4488  0.0490  0.6895
  514MOL0     C69303  12.590   2.786  12.079  0.1574  0.2674 -0.9001
  514MOL0     C69304  12.487   2.691  12.077  0.0670 -0.0939  0.2137
  514MOL0     N69305  12.054   2.089  11.731 -0.0496 -0.2701 -0.3666
  514MOL0     N69306  11.962   2.076  11.649  0.6167  0.2781  0.0890
  514MOL0     C69307  10.672   2.112  11.307 -0.7150  0.3918  0.4597
  514MOL0     C69308  10.551   2.065  11.343  0.2499  0.3925  0.0379
  514MOL0     C69309  10.146   1.845  11.358 -0.0207  0.2189 -0.1037
  514MOL0     C69310  10.034   1.886  11.286  0.1448  0.5282 -0.2720
  514MOL0     C69311   9.899   1.851  11.320 -0.9556 -0.2054  0.0464
  514MOL0     C69312   9.874   1.776  11.434 -0.2002  0.9764 -0.2932
  514MOL0     O69313   9.756   1.740  11.493  0.1725 -0.0681 -0.8532
  514MOL0     C69314   9.633   1.783  11.435  0.0061 -0.0603 -0.0120
  514MOL0     C69315   9.521   1.717  11.513  0.5564 -0.0890 -0.3451
  514MOL0     C69316   9.398   1.803  11.539 -0.0553  0.0326  0.5553
  514MOL0     C69317   9.415   1.917  11.643  1.2063  0.2191 -0.4520
  514MOL0     C69318   9.298   1.999  11.661  0.4967 -0.7760  0.1488
  514MOL0     C69319   9.205   2.072  11.668 -0.1968 -0.7643 -0.6929
  514MOL0     C69320   9.983   1.730  11.508 -0.1969 -0.1658 -1.0665
  514MOL0     C69321  10.119   1.758  11.474 -0.1383  0.0754  0.5059
  514MOL0     C69322  10.240   1.702  11.547  0.5553  1.0696  0.0865
  514MOL0     H69323  10.577   1.751  11.247 -1.6362  0.5999  0.3382
  514MOL0     H69324  10.798   1.823  11.179 -1.0321 -2.4680  0.1236
  514MOL0     H69325  10.915   2.063  11.443 -2.6154 -0.6225 -1.6584
  514MOL0     H69326  11.002   1.943  11.344  1.0045  0.2030  0.1451
  514MOL0     H69327  11.082   2.237  11.368  2.6863  1.2516  2.6236
  514MOL0     H69328  11.143   2.131  11.244 -2.7170 -0.3921 -1.0759
  514MOL0     H69329  11.236   1.982  11.428  1.7917  0.9131 -1.3093
  514MOL0     H69330  11.206   2.100  11.552  3.3583 -1.6077  1.4091
  514MOL0     H69331  11.393   2.113  11.325  0.8862  1.5584 -1.1583
  514MOL0     H69332  11.320   2.258  11.348 -1.4980 -0.1430  1.8312
  514MOL0     H69333  11.403   2.289  11.592 -0.6471 -1.2060  0.4414
  514MOL0     H69334  11.441   2.121  11.594 -1.5711  0.8062  1.0348
  514MOL0     H69335  11.623   2.169  11.408  2.1135 -0.4336  1.2437
  514MOL0     H69336  11.600   2.333  11.443  1.3698  0.1586  0.6934
  514MOL0     H69337  11.639   2.289  11.685  1.3190  0.3155  0.1087
  514MOL0     H69338  11.773   2.265  11.574  1.4001 -4.6220 -4.2384
  514MOL0     H69339  11.645   2.030  11.715  0.4638 -0.4579  0.3789
  514MOL0     H69340  11.723   2.024  11.562  0.5823 -1.2978  1.8430
  514MOL0     H69341  11.801   2.162  11.920 -1.7756 -1.6397  0.2872
  514MOL0     H69342  12.020   2.159  12.065  0.5522  1.9294 -0.2315
  514MOL0     H69343  12.146   2.070  12.005 -1.0175 -0.9652 -1.7015
  514MOL0     H69344  12.223   2.288  11.889 -0.1753 -0.3992  0.3360
  514MOL0     H69345  12.067   2.358  11.962 -2.4379 -1.8766 -0.0225
  514MOL0     H69346  12.327   2.252  12.098  1.5810  1.4319 -0.9412
  514MOL0     H69347  12.173   2.318  12.173  0.7311  1.6413 -0.0589
  514MOL0     H69348  12.218   2.523  12.086 -0.4429  0.3427 -0.2727
  514MOL0     H69349  12.357   2.477  11.981  0.0667 -0.0185  0.3034
  514MOL0     H69350  12.624   2.457  12.285 -1.0689  0.9788  1.4318
  514MOL0     H69351  12.815   2.619  12.278 -0.1148  2.1501  1.5869
  514MOL0     H69352  13.062   2.872  12.016  0.3205  2.3630 -1.0755
  514MOL0     H69353  13.277   2.966  12.001 -1.0231 -4.1707 -1.0379
  514MOL0     H69354  13.502   2.864  12.084 -1.9013 -0.3297  1.0596
  514MOL0     H69355  13.622   2.992  12.102  0.1921  1.5482  0.8663
  514MOL0     H69356  13.526   2.814  12.327  0.7029 -0.9636 -1.0601
  514MOL0     H69357  13.662   2.771  12.227  1.2109  0.5110  0.1011
  514MOL0     H69358  13.747   3.021  12.291  0.7270 -0.4605  2.2142
  514MOL0     H69359  13.651   2.991  12.434 -1.6824 -0.8761  0.9839
  514MOL0     H69360  13.863   2.798  12.357 -0.7928 -1.1648  0.7823
  514MOL0     H69361  13.754   2.791  12.485 -1.6636  0.8787 -1.1326
  514MOL0     H69362  13.857   3.002  12.585  2.3080 -2.6498  2.1615
  514MOL0     H69363  13.928   3.058  12.440 -1.5904  0.4202 -1.2466
  514MOL0     H69364  14.097   2.847  12.468  0.4928  0.2685  0.1326
  514MOL0     H69365  14.109   2.969  12.593  0.9458 -1.6840  1.2730
  514MOL0     H69366  13.923   2.748  12.627 -0.7076  3.1611 -2.2158
  514MOL0     H69367  13.973   2.870  12.753 -1.1220  0.5877 -0.5149
  514MOL0     H69368  14.206   2.788  12.762 -0.3712 -1.1977  1.3174
  514MOL0     H69369  14.082   2.672  12.806 -1.6825 -0.7643 -0.5765
  514MOL0     H69370  13.296   3.019  12.419  0.1580  1.8354 -0.8277
  514MOL0     H69371  13.081   2.914  12.446  0.7714 -0.1542 -0.1418
  514MOL0     H69372  12.565   2.882  12.037 -1.6841  0.5047  0.5891
  514MOL0     H69373  12.403   2.711  12.011  0.8516 -0.7225 -1.0212
  514MOL0     H69374  10.702   2.216  11.320  2.8612 -0.4724  0.2188
  514MOL0     H69375  10.481   2.131  11.393 -1.6024 -2.1048  0.9569
  514MOL0     H69376  10.054   1.943  11.196  1.2799  0.7004  0.0729
  514MOL0     H69377   9.822   1.889  11.255  0.1553  0.0583 -1.1519
  514MOL0     H69378   9.626   1.759  11.328  0.9788  2.5953 -0.7682
  514MOL0     H69379   9.629   1.892  11.438 -0.0079 -0.0708  0.3635
  514MOL0     H69380   9.556   1.670  11.606 -0.9399 -0.8707 -0.1323
  514MOL0     H69381   9.486   1.626  11.463 -0.7262 -1.4779  2.7886
  514MOL0     H69382   9.313   1.737  11.557 -0.0303 -0.6160 -1.4708
  514MOL0     H69383   9.381   1.840  11.437 -0.5375 -1.4401  0.0799
  514MOL0     H69384   9.436   1.879  11.743 -1.3686  1.2610  0.5586
  514MOL0     H69385   9.499   1.983  11.621 -0.7985  2.7974 -0.8889
  514MOL0     H69386   9.117   2.134  11.666  1.0683  1.1365 -0.1947
  514MOL0     H69387   9.969   1.663  11.592 -0.6242 -1.0892 -1.8606
  514MOL0     H69388  10.205   1.629  11.619 -2.0141  1.8383 -0.2792
  514MOL0     H69389  10.313   1.662  11.476  0.6982  1.6832 -0.1262
  514MOL0     H69390  10.292   1.777  11.608  1.1450 -0.1518  1.1358
  515MOL0     O69391   0.179  10.350   5.392  0.2618 -0.1882 -0.0882
  515MOL0     C69392   0.121  10.424   5.470  0.2038  0.2980 -1.0168
  515MOL0     O69393   0.186  10.525   5.539  0.3437 -0.3913  0.0245
  515MOL0     C69394   0.308  10.568   5.492 -0.1270  1.1579  0.7993
  515MOL0     C69395   0.323  10.693   5.435 -1.2813  0.0106  0.2549
  515MOL0     C69396   0.453  10.746   5.405 -0.0396  1.1469  0.4681
  515MOL0     C69397   0.565  10.668   5.440  0.0484 -0.1519  0.2985
  515MOL0     O69398   0.692  10.703   5.403  0.0041  0.5928 -0.2878
  515MOL0     C69399   0.717  10.838   5.350  0.2271  0.4575  0.0491
  515MOL0     C69400   0.850  10.833   5.274 -0.1232 -0.6215  0.0929
  515MOL0     C69401   0.968  10.837   5.373 -0.0657 -0.2790  0.1117
  515MOL0     C69402   1.109  10.815   5.315  0.8839 -0.2240  0.4528
  515MOL0     C69403   1.201  10.821   5.428  0.1849 -0.9656 -0.5517
  515MOL0     C69404   1.350  10.795   5.386  0.5282  0.1345  0.0387
  515MOL0     C69405   1.451  10.825   5.495  1.0471 -0.3210 -0.1535
  515MOL0     C69406   1.588  10.827   5.420 -0.0300 -0.3447 -0.2783
  515MOL0     N69407   1.615  10.710   5.338 -0.0546  0.0615  0.3206
  515MOL0     C69408   1.606  10.576   5.373 -0.8824  1.2720  0.8785
  515MOL0     C69409   1.631  10.511   5.255  0.1333 -0.0699 -0.0001
  515MOL0     C69410   1.664  10.362   5.249  0.6658 -0.2144  0.3457
  515MOL0     C69411   1.752  10.329   5.135 -0.6655  0.3488 -0.4848
  515MOL0     C69412   1.796  10.177   5.137  0.0813 -0.0804  0.3548
  515MOL0     C69413   1.920  10.159   5.048 -0.2217 -0.3431  0.0110
  515MOL0     O69414   2.040  10.228   5.092  0.1635 -0.1663 -0.1441
  515MOL0     C69415   2.149  10.221   5.006 -0.5733  0.4567 -0.1567
  515MOL0     C69416   2.254  10.135   5.034 -0.1091 -0.1598  1.1501
  515MOL0     C69417   2.373  10.138   4.958 -0.3773 -0.3889 -0.3894
  515MOL0     C69418   2.393  10.233   4.856  0.5957  0.3860  0.1994
  515MOL0     C69419   2.523  10.242   4.789  0.9339 -0.6800 -0.3348
  515MOL0     O69420   2.621  10.156   4.840 -0.6965  0.2502  0.1802
  515MOL0     C69421   2.749  10.161   4.795 -0.5487  0.0024  0.5044
  515MOL0     C69422   2.791  10.075   4.695 -0.8606  0.0908  0.2220
  515MOL0     C69423   2.924  10.080   4.637  1.1259 -0.5011 -0.1894
  515MOL0     C69424   3.019  10.171   4.688  0.5446 -0.3304  0.3661
  515MOL0     O69425   3.138  10.166   4.622 -0.9075 -0.0400 -0.3812
  515MOL0     C69426   3.249  10.229   4.689 -0.1819 -0.9714  0.4217
  515MOL0     C69427   3.379  10.224   4.615  0.0920  0.8910  0.0210
  515MOL0     C69428   3.404  10.082   4.565  0.2639  0.2300 -0.3932
  515MOL0     C69429   3.542  10.066   4.493 -0.1740  0.0859  0.5675
  515MOL0     C69430   3.572   9.915   4.484 -0.7545 -0.0488 -0.5291
  515MOL0     C69431   3.462   9.839   4.404  0.1864  0.5888  0.3654
  515MOL0     C69432   3.502   9.698   4.393  0.0253  0.3369 -0.0651
  515MOL0     C69433   3.637   9.678   4.315  0.1015  0.5775 -0.0051
  515MOL0    Cl69434   3.628   9.521   4.240  0.3287 -0.5430 -0.0029
  515MOL0     C69435   2.979  10.254   4.798 -0.5755  0.1403  0.3341
  515MOL0     C69436   2.844  10.252   4.849 -0.1416  0.6663  0.1390
  515MOL0     O69437   2.529  10.323   4.694 -0.3530 -0.1401 -0.1215
  515MOL0     C69438   2.281  10.322   4.821  0.2413  0.9936  0.0405
  515MOL0     C69439   2.166  10.312   4.906  0.7697  0.0784  0.1912
  515MOL0     N69440   1.635  10.606   5.153 -0.6418  0.2969  0.4822
  515MOL0     N69441   1.605  10.728   5.204 -0.3681  0.2167 -0.1214
  515MOL0     C69442   0.545  10.543   5.493  0.4946 -0.6190  0.8122
  515MOL0     C69443   0.415  10.493   5.520 -0.2826 -0.3196  0.7204
  515MOL0     C69444  -0.021  10.395   5.496 -0.3191  0.0892 -0.1282
  515MOL0     C69445  -0.066  10.258   5.476 -0.2493 -0.7564 -0.3877
  515MOL0     C69446  -0.195  10.215   5.527 -0.3296  0.0491  1.1150
  515MOL0     C69447  -0.292  10.310   5.566  0.3359 -1.1643 -0.4550
  515MOL0     O69448  -0.424  10.261   5.575 -0.1416 -0.0646 -0.4481
  515MOL0     C69449  -0.518  10.333   5.664 -0.3654 -0.5948 -0.4426
  515MOL0     C69450  -0.552  10.253   5.795 -0.2052  1.1430  0.7599
  515MOL0     C69451  -0.434  10.188   5.868  1.1028 -0.2407  0.8149
  515MOL0     C69452  -0.340  10.280   5.936  0.3278 -0.2036 -0.2980
  515MOL0     C69453  -0.225  10.209   5.999  0.6156 -1.5128 -0.2915
  515MOL0     C69454  -0.119  10.166   6.028 -0.1172 -0.5316 -0.0638
  515MOL0     C69455  -0.256  10.445   5.565  0.4564 -0.9366 -0.0548
  515MOL0     C69456  -0.118  10.487   5.538 -0.0662  0.1991 -0.1604
  515MOL0     C69457  -0.091  10.642   5.540  0.4301 -0.2521  0.4077
  515MOL0     H69458   0.238  10.758   5.415  0.3520  2.0571 -0.5514
  515MOL0     H69459   0.458  10.849   5.370 -1.9294  0.6353 -1.6031
  515MOL0     H69460   0.641  10.876   5.280  0.1337  1.3168  0.5964
  515MOL0     H69461   0.728  10.920   5.422  1.4619  0.2297  0.1320
  515MOL0     H69462   0.861  10.922   5.211  0.3811 -0.8838 -0.1968
  515MOL0     H69463   0.862  10.749   5.205  0.5536  1.2022 -2.1428
  515MOL0     H69464   0.945  10.774   5.459 -1.7332 -0.5813 -0.5208
  515MOL0     H69465   0.962  10.938   5.414 -2.9913  0.1693 -1.1804
  515MOL0     H69466   1.113  10.717   5.266 -1.1397 -0.0845 -0.0815
  515MOL0     H69467   1.137  10.889   5.239  2.7373 -0.6076  0.7135
  515MOL0     H69468   1.201  10.922   5.470  1.7241 -1.5802  1.0786
  515MOL0     H69469   1.171  10.747   5.504 -2.1120  0.0368 -0.4227
  515MOL0     H69470   1.364  10.691   5.354  0.7257 -0.3811  1.7160
  515MOL0     H69471   1.375  10.850   5.295  0.4702 -0.5462 -0.3998
  515MOL0     H69472   1.450  10.750   5.574 -0.8858 -1.0295 -0.8047
  515MOL0     H69473   1.423  10.920   5.542  0.0068 -1.7599  2.3162
  515MOL0     H69474   1.585  10.914   5.354 -1.6286 -1.7529 -2.1999
  515MOL0     H69475   1.667  10.832   5.496  0.2592  1.0708 -0.6562
  515MOL0     H69476   1.599  10.537   5.474 -0.2136 -0.1574  0.4006
  515MOL0     H69477   1.702  10.336   5.348 -0.4982  0.4111  0.9821
  515MOL0     H69478   1.572  10.306   5.229  2.7004 -2.8196 -2.5216
  515MOL0     H69479   1.715  10.359   5.036  1.2715  1.4106 -0.9418
  515MOL0     H69480   1.840  10.393   5.149 -0.5134  0.0068  0.1584
  515MOL0     H69481   1.721  10.108   5.100 -0.3522  0.0880  0.9122
  515MOL0     H69482   1.830  10.149   5.237 -3.0354  0.4479  1.6520
  515MOL0     H69483   1.892  10.170   4.943 -0.7848 -0.4783  0.1419
  515MOL0     H69484   1.942  10.052   5.055  0.2478 -0.2376  0.1972
  515MOL0     H69485   2.239  10.058   5.110  0.6066 -1.4503  0.0277
  515MOL0     H69486   2.449  10.065   4.985 -0.1697  0.2006  0.6314
  515MOL0     H69487   2.721  10.006   4.649  0.6030 -1.4691  0.2745
  515MOL0     H69488   2.940  10.016   4.551 -1.1804  1.0544 -1.8772
  515MOL0     H69489   3.216  10.332   4.697 -1.4532 -1.4323  1.4131
  515MOL0     H69490   3.260  10.193   4.791 -1.0610  0.4477  1.0329
  515MOL0     H69491   3.372  10.294   4.532 -0.5341 -0.7806 -1.4165
  515MOL0     H69492   3.462  10.258   4.677  1.4009 -0.6580 -0.7942
  515MOL0     H69493   3.400  10.020   4.655  0.9692 -0.4596 -0.8226
  515MOL0     H69494   3.320  10.057   4.499 -3.0342  3.1296  2.2830
  515MOL0     H69495   3.613  10.126   4.550 -0.8883  0.9482  0.5822
  515MOL0     H69496   3.535  10.105   4.391  1.1496 -0.3977  0.2681
  515MOL0     H69497   3.584   9.877   4.586 -4.4245 -1.5572 -0.4940
  515MOL0     H69498   3.666   9.891   4.434  1.2262  1.5758  2.1809
  515MOL0     H69499   3.368   9.846   4.460  2.1320  1.6797  3.7826
  515MOL0     H69500   3.443   9.878   4.303 -0.1767 -1.8866 -0.6087
  515MOL0     H69501   3.422   9.652   4.335  3.3403 -1.6066 -3.6170
  515MOL0     H69502   3.513   9.643   4.486 -1.0729 -0.8137 -0.5916
  515MOL0     H69503   3.652   9.765   4.251  1.9232  2.0580  2.2577
  515MOL0     H69504   3.725   9.682   4.380 -0.7184  0.2040  1.1803
  515MOL0     H69505   3.048  10.325   4.841  1.3570 -2.0638  1.0479
  515MOL0     H69506   2.814  10.325   4.923 -0.8845 -1.8717  2.5334
  515MOL0     H69507   2.287  10.400   4.746  0.0327  0.3857 -0.6265
  515MOL0     H69508   2.085  10.383   4.890  1.9508  1.9362  1.8542
  515MOL0     H69509   0.635  10.491   5.526  0.6309  0.6527  2.5992
  515MOL0     H69510   0.404  10.402   5.579 -0.7803 -0.5776  0.2246
  515MOL0     H69511   0.007  10.182   5.452  2.0028  1.6871 -1.7350
  515MOL0     H69512  -0.223  10.112   5.548  0.3060 -0.9714 -2.3547
  515MOL0     H69513  -0.605  10.357   5.602  0.4997 -2.9668 -2.7606
  515MOL0     H69514  -0.470  10.424   5.702  1.6741 -2.0910  0.7981
  515MOL0     H69515  -0.617  10.172   5.760  3.1143 -1.1264 -0.7634
  515MOL0     H69516  -0.609  10.315   5.864  1.9295  2.4538  1.4305
  515MOL0     H69517  -0.379  10.122   5.801  0.4516  1.0544 -1.0494
  515MOL0     H69518  -0.479  10.125   5.946 -1.0889 -0.0532 -0.2084
  515MOL0     H69519  -0.305  10.351   5.860  2.8629 -1.0158  0.0117
  515MOL0     H69520  -0.391  10.336   6.015  1.1532  0.5390 -0.2775
  515MOL0     H69521  -0.028  10.117   6.055 -0.1794  0.4218  2.0934
  515MOL0     H69522  -0.323  10.528   5.583  1.5987  0.4722 -1.9261
  515MOL0     H69523  -0.085  10.669   5.435 -3.2646  2.0696  0.6045
  515MOL0     H69524  -0.179  10.692   5.582  0.5664  0.4812 -0.1712
  515MOL0     H69525   0.003  10.666   5.589  1.6670  0.0483 -1.9773
  516MOL0     O69526   8.197   9.707   3.225  0.1985  0.2620 -0.2727
  516MOL0     C69527   8.210   9.739   3.108 -0.0162  1.0192 -0.1934
  516MOL0     O69528   8.264   9.857   3.071  0.1949  0.1475  0.1328
  516MOL0     C69529   8.294   9.952   3.169 -0.1197  0.8068 -0.0408
  516MOL0     C69530   8.432   9.952   3.215 -0.4531 -0.2111  0.1739
  516MOL0     C69531   8.474  10.049   3.307 -0.0818  0.0587  0.3440
  516MOL0     C69532   8.380  10.152   3.345 -0.8895 -0.0501  0.6757
  516MOL0     O69533   8.422  10.257   3.420  0.4612  1.3858  0.2880
  516MOL0     C69534   8.325  10.359   3.455  0.0113  0.5986  0.9369
  516MOL0     C69535   8.402  10.461   3.527 -0.0893 -0.2912  0.0266
  516MOL0     C69536   8.527  10.518   3.456 -0.0076  0.4001  0.3365
  516MOL0     C69537   8.586  10.645   3.519  0.5504  0.3337 -1.2128
  516MOL0     C69538   8.712  10.695   3.445  0.6843  0.2024  0.3586
  516MOL0     C69539   8.780  10.814   3.511 -0.7153 -0.4398 -0.5083
  516MOL0     C69540   8.731  10.952   3.457  0.7119  0.0917  0.7703
  516MOL0     C69541   8.796  11.077   3.514  0.0668  0.1648 -0.2496
  516MOL0     N69542   8.942  11.076   3.502 -0.4727 -0.1138  0.1721
  516MOL0     C69543   9.016  11.148   3.412 -0.2544 -0.5768 -0.1342
  516MOL0     C69544   9.145  11.152   3.461 -0.8135  0.2224 -0.3770
  516MOL0     C69545   9.267  11.223   3.409  0.5301 -0.4264  0.3590
  516MOL0     C69546   9.276  11.201   3.259 -0.2775 -0.0935 -0.7508
  516MOL0     C69547   9.408  11.265   3.217  0.0533  1.1800 -0.5809
  516MOL0     C69548   9.441  11.227   3.076 -0.4216  0.7085  0.1791
  516MOL0     O69549   9.471  11.083   3.076 -0.5631  0.0054  0.5691
  516MOL0     C69550   9.600  11.040   3.085 -0.0986 -0.2371  0.1376
  516MOL0     C69551   9.625  10.904   3.068  0.2610 -0.3035 -0.4819
  516MOL0     C69552   9.745  10.838   3.088 -0.2172  0.1886 -0.6830
  516MOL0     C69553   9.864  10.917   3.084  0.0183 -1.0812  0.5050
  516MOL0     C69554   9.994  10.855   3.104  0.3450 -0.2925  0.8634
  516MOL0     O69555  10.102  10.939   3.078  0.2649  0.5837 -0.2099
  516MOL0     C69556  10.231  10.900   3.111  0.1284 -0.6363 -0.5629
  516MOL0     C69557  10.288  10.779   3.075 -0.2343 -0.5893 -0.0347
  516MOL0     C69558  10.426  10.759   3.080  0.5002 -0.4044  0.1400
  516MOL0     C69559  10.509  10.860   3.125 -0.2853  0.0112  0.1296
  516MOL0     O69560  10.649  10.846   3.113  0.2087 -0.2504 -0.5747
  516MOL0     C69561  10.738  10.898   3.216  0.4911 -0.4091 -1.2210
  516MOL0     C69562  10.881  10.858   3.168 -0.2562  0.3955 -0.8146
  516MOL0     C69563  10.986  10.938   3.248  0.0515 -0.1886  0.0937
  516MOL0     C69564  11.134  10.928   3.196 -0.2709  0.1980 -0.8891
  516MOL0     C69565  11.191  10.785   3.187 -0.2098 -0.4398  0.2952
  516MOL0     C69566  11.335  10.790   3.129 -0.6883  0.0408 -0.1971
  516MOL0     C69567  11.404  10.653   3.100 -0.1798  0.2237  0.0626
  516MOL0     C69568  11.359  10.590   2.969  0.2018  0.0266  0.2437
  516MOL0    Cl69569  11.362  10.694   2.823 -0.3647 -0.0699  0.5686
  516MOL0     C69570  10.456  10.981   3.162 -0.1737 -0.1546 -0.7238
  516MOL0     C69571  10.315  11.004   3.154 -0.4695 -0.2464 -1.0808
  516MOL0     O69572  10.005  10.739   3.139 -0.5629 -0.6889  0.1814
  516MOL0     C69573   9.850  11.060   3.076 -0.1159 -0.1543 -0.1452
  516MOL0     C69574   9.718  11.118   3.098  0.1572 -0.1907 -0.4798
  516MOL0     N69575   9.148  11.065   3.574  0.3524  0.1796  0.0694
  516MOL0     N69576   9.032  11.020   3.588  0.5500 -0.4565  0.0910
  516MOL0     C69577   8.240  10.129   3.311  0.0703 -0.3918  0.3429
  516MOL0     C69578   8.199  10.036   3.219 -0.8425 -0.3976 -0.6473
  516MOL0     C69579   8.165   9.647   3.002  0.0039 -0.1396 -0.1409
  516MOL0     C69580   8.217   9.681   2.872 -0.0536 -0.1995  0.2725
  516MOL0     C69581   8.160   9.626   2.758 -1.0678 -0.9593 -0.3521
  516MOL0     C69582   8.067   9.521   2.763 -0.9201 -0.1275 -1.0157
  516MOL0     O69583   8.024   9.452   2.656  0.0553 -0.4738  0.8412
  516MOL0     C69584   8.005   9.522   2.538  0.0544  0.1437  0.0696
  516MOL0     C69585   7.983   9.423   2.421 -0.0935 -0.3910  0.3974
  516MOL0     C69586   7.857   9.350   2.444  0.7186  0.0124 -0.9147
  516MOL0     C69587   7.810   9.256   2.334  0.0780 -0.0650  0.8417
  516MOL0     C69588   7.900   9.149   2.313  0.2986 -0.3679  0.3513
  516MOL0     C69589   7.992   9.066   2.327  0.6890  0.0924  0.2754
  516MOL0     C69590   8.033   9.467   2.888 -0.3862  0.6437 -0.0979
  516MOL0     C69591   8.074   9.535   3.011 -1.0092  0.6403 -0.1931
  516MOL0     C69592   8.026   9.490   3.147  0.5096 -0.0556 -0.3655
  516MOL0     H69593   8.508   9.887   3.176  0.1013  0.2431  0.4773
  516MOL0     H69594   8.574  10.054   3.349  0.2310 -2.0006 -0.0262
  516MOL0     H69595   8.283  10.388   3.358  0.8116 -0.2008  0.3316
  516MOL0     H69596   8.238  10.319   3.507 -0.3211 -0.7035 -0.5471
  516MOL0     H69597   8.418  10.414   3.624 -0.9771  1.4681  1.0812
  516MOL0     H69598   8.329  10.542   3.539 -1.4201 -1.4104 -0.2113
  516MOL0     H69599   8.496  10.535   3.353 -3.0914 -0.6384  0.9843
  516MOL0     H69600   8.607  10.443   3.458 -1.1409 -0.8507 -0.1625
  516MOL0     H69601   8.514  10.727   3.518  1.5271  1.2811  0.5899
  516MOL0     H69602   8.613  10.628   3.624 -0.4424  0.7855 -0.8679
  516MOL0     H69603   8.784  10.613   3.458  2.4853  1.6406 -0.1077
  516MOL0     H69604   8.698  10.716   3.338  2.0105 -0.7579 -0.0392
  516MOL0     H69605   8.781  10.815   3.620 -0.0074  1.5338 -0.4880
  516MOL0     H69606   8.883  10.794   3.480 -1.4313 -0.3763 -3.2170
  516MOL0     H69607   8.627  10.962   3.489  0.3411 -0.0376 -0.3481
  516MOL0     H69608   8.739  10.957   3.348  0.3181  1.9178  0.7987
  516MOL0     H69609   8.748  11.157   3.456  0.4221 -0.1753 -1.0259
  516MOL0     H69610   8.771  11.092   3.619 -0.2219  0.4858 -0.3608
  516MOL0     H69611   8.980  11.201   3.324 -0.4147 -2.4631 -1.2478
  516MOL0     H69612   9.263  11.327   3.441 -3.4190 -0.5832  0.8896
  516MOL0     H69613   9.345  11.164   3.457 -0.2824 -0.4023  1.7493
  516MOL0     H69614   9.271  11.094   3.234  0.2822  0.1000 -1.7531
  516MOL0     H69615   9.193  11.259   3.219  0.4096  2.6868  1.5566
  516MOL0     H69616   9.489  11.238   3.285 -2.0072 -1.1714  1.1207
  516MOL0     H69617   9.387  11.371   3.229 -0.1904  1.1128 -0.4218
  516MOL0     H69618   9.517  11.295   3.035 -1.3662  2.5745  1.3372
  516MOL0     H69619   9.347  11.235   3.020  0.7501  1.9825 -1.7372
  516MOL0     H69620   9.531  10.851   3.051 -1.6177  2.6159  0.0320
  516MOL0     H69621   9.741  10.731   3.105 -0.5072  0.1036 -1.2734
  516MOL0     H69622  10.224  10.704   3.029  1.2625 -1.9641  0.0179
  516MOL0     H69623  10.472  10.666   3.049 -0.2228 -0.5142 -0.6209
  516MOL0     H69624  10.712  11.005   3.217  0.8100 -0.3280 -1.5477
  516MOL0     H69625  10.723  10.856   3.316  2.5008  0.0611 -0.6693
  516MOL0     H69626  10.882  10.751   3.193  0.2521  0.2728 -1.3239
  516MOL0     H69627  10.902  10.869   3.061 -0.3423  2.1845 -0.6662
  516MOL0     H69628  10.960  11.044   3.253  1.8053  0.2345  1.0485
  516MOL0     H69629  10.993  10.897   3.349  0.2434  0.0883  0.1948
  516MOL0     H69630  11.193  10.975   3.275  1.1668  0.8245 -2.2818
  516MOL0     H69631  11.147  10.973   3.097  0.6918 -0.3828 -1.0365
  516MOL0     H69632  11.140  10.726   3.110 -0.7393 -0.3480  0.5694
  516MOL0     H69633  11.187  10.730   3.282 -1.2358 -1.4455 -0.2983
  516MOL0     H69634  11.329  10.845   3.035  1.1781 -1.2221 -1.1239
  516MOL0     H69635  11.393  10.840   3.207 -0.8258 -0.0396 -0.0416
  516MOL0     H69636  11.375  10.586   3.182  1.7973 -1.3046 -0.4124
  516MOL0     H69637  11.511  10.669   3.088 -0.1098 -2.0611 -6.8453
  516MOL0     H69638  11.435  10.513   2.953 -0.1121 -0.0220 -1.1806
  516MOL0     H69639  11.261  10.542   2.979 -1.2679  2.2614 -2.0055
  516MOL0     H69640  10.520  11.066   3.180 -1.7013  0.8962 -0.0744
  516MOL0     H69641  10.278  11.103   3.176  0.4827  0.0834 -0.9031
  516MOL0     H69642   9.935  11.126   3.065 -1.5560  2.3897  2.5248
  516MOL0     H69643   9.717  11.226   3.108  2.1998 -0.1010 -0.7074
  516MOL0     H69644   8.160  10.192   3.350  0.0154 -0.5400  0.4678
  516MOL0     H69645   8.094  10.027   3.197 -0.9979  0.4739 -0.2859
  516MOL0     H69646   8.290   9.760   2.862 -1.5048  1.4242  1.9148
  516MOL0     H69647   8.194   9.668   2.663 -2.6126 -0.7559 -0.8554
  516MOL0     H69648   8.103   9.564   2.511  1.2041 -1.3355  1.6924
  516MOL0     H69649   7.923   9.595   2.542  0.3326  0.5567 -1.3479
  516MOL0     H69650   8.057   9.342   2.418 -1.3265 -1.5938  1.2221
  516MOL0     H69651   7.986   9.487   2.333 -2.8824  0.9990  1.2146
  516MOL0     H69652   7.776   9.416   2.475  0.0682 -1.0418 -0.3179
  516MOL0     H69653   7.862   9.281   2.528 -3.1457  1.1186  0.4073
  516MOL0     H69654   7.721   9.199   2.359  1.0015 -1.2387  1.5828
  516MOL0     H69655   7.794   9.312   2.241  0.1675  4.6984  3.3612
  516MOL0     H69656   8.073   8.995   2.330  0.1036 -0.6272  3.9358
  516MOL0     H69657   7.977   9.374   2.892  2.3626 -1.1334 -0.5716
  516MOL0     H69658   7.966   9.399   3.141 -0.9857  0.9519 -1.2005
  516MOL0     H69659   8.105   9.478   3.222 -0.6609 -1.6486  0.7016
  516MOL0     H69660   7.959   9.569   3.182 -0.3293  0.0241 -2.0648
  517MOL0     O69661   3.350   4.770   9.569 -0.1936 -0.3775  0.1863
  517MOL0     C69662   3.322   4.846   9.477 -0.7446  1.5488  0.5838
  517MOL0     O69663   3.413   4.933   9.410  0.4970 -0.3451 -0.1672
  517MOL0     C69664   3.549   4.906   9.411  0.4787 -0.1335  0.6008
  517MOL0     C69665   3.635   5.008   9.425 -0.9557  0.3088  0.4553
  517MOL0     C69666   3.773   4.979   9.439 -0.2687  0.1508 -0.0695
  517MOL0     C69667   3.826   4.853   9.443 -0.2554 -0.2566 -0.2694
  517MOL0     O69668   3.957   4.832   9.472 -1.1468 -0.1652 -0.0937
  517MOL0     C69669   3.993   4.751   9.583 -0.0779  0.5571 -0.2239
  517MOL0     C69670   3.948   4.827   9.715 -0.0226  0.3749 -0.0785
  517MOL0     C69671   3.824   4.766   9.781 -0.5696 -0.0640  0.6576
  517MOL0     C69672   3.756   4.875   9.863  0.2464 -0.0136 -0.5503
  517MOL0     C69673   3.643   4.824   9.965  0.1064  0.1256 -0.1726
  517MOL0     C69674   3.547   4.729   9.897 -0.0428 -0.1332 -0.6109
  517MOL0     C69675   3.413   4.725   9.976 -0.2860 -0.5027  0.0373
  517MOL0     C69676   3.324   4.611   9.932  0.2069 -0.4296  0.0167
  517MOL0     N69677   3.187   4.632   9.985 -0.5051 -0.1908  0.6454
  517MOL0     C69678   3.144   4.598  10.105  1.2518  1.0173 -0.1471
  517MOL0     C69679   3.019   4.652  10.107  0.1549  0.5188 -0.3888
  517MOL0     C69680   2.919   4.632  10.216  0.4442 -0.1370  0.0807
  517MOL0     C69681   2.960   4.690  10.351  0.1005  0.2894 -1.4721
  517MOL0     C69682   2.967   4.846  10.352  0.0648  0.0566 -0.0270
  517MOL0     C69683   3.094   4.905  10.286  0.5975  0.9290 -0.5398
  517MOL0     O69684   3.218   4.858  10.352  0.1580  0.1137 -0.4192
  517MOL0     C69685   3.335   4.913  10.334 -0.0050 -0.3542 -0.0674
  517MOL0     C69686   3.428   4.883  10.435 -0.3289  0.6864 -0.1811
  517MOL0     C69687   3.559   4.916  10.422  0.0450 -0.1647 -0.0677
  517MOL0     C69688   3.598   5.002  10.316  0.5737  0.6278  1.3460
  517MOL0     C69689   3.728   5.057  10.305 -0.1578 -0.1589 -0.8978
  517MOL0     O69690   3.808   5.087  10.421 -0.1161  0.1778 -0.0232
  517MOL0     C69691   3.925   5.150  10.399  0.1948  0.8957  0.7883
  517MOL0     C69692   3.928   5.288  10.430 -0.3918 -0.0829  0.7638
  517MOL0     C69693   4.054   5.349  10.432 -0.4385  1.1192  0.1881
  517MOL0     C69694   4.170   5.275  10.409 -1.1083 -0.1747  0.0741
  517MOL0     O69695   4.288   5.344  10.428 -0.1086  1.1162  0.1070
  517MOL0     C69696   4.414   5.271  10.404  0.0504 -0.4050  0.4783
  517MOL0     C69697   4.525   5.372  10.419  0.5902  0.6454  0.0960
  517MOL0     C69698   4.675   5.328  10.402  0.4483 -0.4396  0.0141
  517MOL0     C69699   4.733   5.396  10.270 -0.2746 -0.2927 -0.0462
  517MOL0     C69700   4.882   5.367  10.247 -0.1060  0.2490 -0.0814
  517MOL0     C69701   4.978   5.413  10.357  0.1705 -0.0799 -1.0532
  517MOL0     C69702   5.129   5.382  10.333 -0.6112 -0.1685 -0.2531
  517MOL0     C69703   5.172   5.246  10.357 -0.5898 -0.2744 -0.1053
  517MOL0    Cl69704   5.085   5.121  10.260 -0.3598 -0.0231 -0.0199
  517MOL0     C69705   4.161   5.139  10.377  0.2512 -0.3617  1.0942
  517MOL0     C69706   4.037   5.074  10.370  0.1522  0.4775 -0.2652
  517MOL0     O69707   3.765   5.095  10.192 -0.0194  0.0107 -0.2642
  517MOL0     C69708   3.497   5.048  10.223 -0.3660  0.3583  0.3694
  517MOL0     C69709   3.369   5.008  10.238  0.7236  0.2153 -0.3905
  517MOL0     N69710   2.995   4.729   9.995  0.5469  1.0490  0.2556
  517MOL0     N69711   3.096   4.711   9.923  0.2232  0.0009 -0.0344
  517MOL0     C69712   3.738   4.749   9.425  0.4311 -0.5854  0.3816
  517MOL0     C69713   3.597   4.774   9.414 -0.2881  0.0403  0.8061
  517MOL0     C69714   3.181   4.851   9.438 -0.7333 -0.2326 -0.6555
  517MOL0     C69715   3.092   4.920   9.521  0.0920 -0.3254  0.9186
  517MOL0     C69716   2.951   4.932   9.498 -0.1932  0.1093 -0.0347
  517MOL0     C69717   2.891   4.861   9.391  0.1719 -0.5139 -0.2594
  517MOL0     O69718   2.756   4.866   9.361  0.2438  0.6836  0.3239
  517MOL0     C69719   2.667   4.803   9.450  0.4106 -0.3048 -0.8215
  517MOL0     C69720   2.532   4.860   9.434  0.4656 -0.1761  0.8350
  517MOL0     C69721   2.519   5.009   9.472 -0.2174 -0.2845  0.3751
  517MOL0     C69722   2.370   5.038   9.489  0.5307 -0.0028  0.2562
  517MOL0     C69723   2.353   5.167   9.555 -0.0370  0.4820  0.2506
  517MOL0     C69724   2.349   5.276   9.612 -0.7894 -0.1458  0.4487
  517MOL0     C69725   2.980   4.790   9.306 -0.5187 -0.5010 -0.9080
  517MOL0     C69726   3.126   4.790   9.326  0.7011  0.4618 -0.5587
  517MOL0     C69727   3.218   4.710   9.230  0.4176 -0.5857 -0.0125
  517MOL0     H69728   3.593   5.108   9.432 -0.0698  0.6092  1.8592
  517MOL0     H69729   3.843   5.057   9.466  0.1901 -0.2612 -0.0472
  517MOL0     H69730   3.950   4.651   9.579  1.1825  0.0301 -0.6243
  517MOL0     H69731   4.100   4.730   9.586 -0.0218  0.8895  0.4286
  517MOL0     H69732   3.925   4.934   9.705 -3.1197  0.1764  2.9178
  517MOL0     H69733   4.037   4.826   9.778  0.5615  2.7295 -0.7690
  517MOL0     H69734   3.851   4.680   9.843  1.8520  0.5426  0.5150
  517MOL0     H69735   3.750   4.729   9.709 -0.8512 -1.3994  1.6025
  517MOL0     H69736   3.827   4.938   9.918 -1.5208  1.7581 -0.1788
  517MOL0     H69737   3.716   4.947   9.790  1.5743 -0.6308 -1.9534
  517MOL0     H69738   3.687   4.784  10.058 -1.8016 -0.3738  0.5613
  517MOL0     H69739   3.599   4.919   9.994  0.2299  0.2319 -0.3351
  517MOL0     H69740   3.523   4.769   9.797  1.1819  2.0796 -0.0932
  517MOL0     H69741   3.588   4.628   9.899 -2.3153 -1.1517  2.7249
  517MOL0     H69742   3.365   4.820   9.954 -1.3026 -0.4629  2.1715
  517MOL0     H69743   3.433   4.716  10.083  0.6009 -0.3845 -0.1121
  517MOL0     H69744   3.328   4.604   9.823  0.4401  2.3891 -0.2229
  517MOL0     H69745   3.366   4.520   9.978 -3.2163 -1.4158  1.4919
  517MOL0     H69746   3.191   4.525  10.169  0.3606  0.1781 -0.4190
  517MOL0     H69747   2.820   4.673  10.195  0.5142  1.0419  1.8596
  517MOL0     H69748   2.906   4.523  10.216  0.2764 -0.2316 -3.1606
  517MOL0     H69749   2.885   4.659  10.424  1.0790 -0.9759 -0.9930
  517MOL0     H69750   3.055   4.653  10.389 -0.3328  1.2766  0.6909
  517MOL0     H69751   2.959   4.875  10.457  0.4325  0.6598 -0.1644
  517MOL0     H69752   2.876   4.876  10.299 -1.6484 -2.1261  1.4852
  517MOL0     H69753   3.091   5.014  10.291  3.3395  1.1027  4.3867
  517MOL0     H69754   3.094   4.878  10.180  0.0376 -2.9925  0.3018
  517MOL0     H69755   3.387   4.824  10.516 -3.4973  0.3158 -1.8823
  517MOL0     H69756   3.626   4.873  10.496  4.6069  2.6322 -2.1241
  517MOL0     H69757   3.839   5.338  10.465  0.0230  0.6254  0.8170
  517MOL0     H69758   4.057   5.452  10.467  0.0226  0.6923  1.4505
  517MOL0     H69759   4.422   5.183  10.467 -3.7016  0.3805  2.3610
  517MOL0     H69760   4.429   5.234  10.302 -0.0945 -3.0225  1.3392
  517MOL0     H69761   4.504   5.443  10.338 -3.0048 -1.4846 -1.0989
  517MOL0     H69762   4.523   5.424  10.516  1.8317 -0.1152  0.5466
  517MOL0     H69763   4.735   5.362  10.486 -0.6076  0.3017  0.4934
  517MOL0     H69764   4.693   5.222  10.379 -0.8494 -0.2662 -2.1150
  517MOL0     H69765   4.711   5.503  10.267  0.1727 -0.2205 -2.7009
  517MOL0     H69766   4.681   5.350  10.185 -0.3522 -1.1401  0.4436
  517MOL0     H69767   4.896   5.418  10.152 -2.7204  1.7368  0.2360
  517MOL0     H69768   4.891   5.260  10.227  1.2039 -0.2881  2.8907
  517MOL0     H69769   4.960   5.517  10.385 -2.2078 -0.6968 -0.0476
  517MOL0     H69770   4.958   5.353  10.447 -2.0647  2.6480  0.4253
  517MOL0     H69771   5.191   5.438  10.404  0.2714 -0.6541 -0.6151
  517MOL0     H69772   5.163   5.411  10.232  2.2263  1.6636  1.0781
  517MOL0     H69773   5.273   5.248  10.316 -1.0787 -1.1986 -1.4248
  517MOL0     H69774   5.159   5.219  10.463 -0.6586 -0.4576 -0.1612
  517MOL0     H69775   4.246   5.074  10.359 -1.2875 -1.9034 -1.2524
  517MOL0     H69776   4.033   4.969  10.346  0.2054 -0.3098  2.8068
  517MOL0     H69777   3.527   5.102  10.134 -0.2196  3.6169  2.2432
  517MOL0     H69778   3.295   5.045  10.168  1.7673  3.2271 -0.0527
  517MOL0     H69779   3.773   4.647   9.437 -1.2189 -1.0391  1.7537
  517MOL0     H69780   3.537   4.685   9.404 -0.6358  0.3245  0.3310
  517MOL0     H69781   3.138   4.978   9.600 -1.4540  1.0835  0.8269
  517MOL0     H69782   2.882   4.979   9.567 -2.9689 -2.2599 -0.9932
  517MOL0     H69783   2.702   4.811   9.554 -1.7457 -1.0317  0.0226
  517MOL0     H69784   2.680   4.696   9.432  3.2181  0.0704 -1.4658
  517MOL0     H69785   2.464   4.810   9.503  1.9024 -1.7500  1.1648
  517MOL0     H69786   2.492   4.849   9.333 -1.4684  1.9328  1.2695
  517MOL0     H69787   2.566   5.071   9.394  3.5313 -1.1261  1.7361
  517MOL0     H69788   2.577   5.027   9.563 -2.2226  0.4002  1.5708
  517MOL0     H69789   2.324   5.033   9.390 -1.6954  1.8298  1.0868
  517MOL0     H69790   2.325   4.968   9.561 -2.3400  4.3361  3.2153
  517MOL0     H69791   2.333   5.375   9.649  1.6818 -0.4983  2.7527
  517MOL0     H69792   2.932   4.748   9.218 -1.9550  0.2379 -0.5084
  517MOL0     H69793   3.306   4.678   9.286  0.5219  2.4288  1.7576
  517MOL0     H69794   3.173   4.624   9.180  2.8557 -2.0124  0.0679
  517MOL0     H69795   3.242   4.773   9.145  2.1657  0.1185  0.9598
  518MOL0     O69796   2.482   4.863   1.382 -0.5347 -0.0951 -0.1183
  518MOL0     C69797   2.388   4.790   1.352  0.9376 -1.0064 -0.1052
  518MOL0     O69798   2.367   4.730   1.234  1.1340 -0.1407 -0.6219
  518MOL0     C69799   2.444   4.750   1.124 -0.3936  1.1024  0.9138
  518MOL0     C69800   2.583   4.727   1.119 -0.9966 -0.1598 -0.7506
  518MOL0     C69801   2.656   4.734   1.001  0.1651 -0.2174  0.5615
  518MOL0     C69802   2.599   4.779   0.887  0.7308  0.5784 -0.0507
  518MOL0     O69803   2.681   4.796   0.781 -0.0562 -0.1164 -0.4541
  518MOL0     C69804   2.634   4.886   0.672 -0.1036 -0.8780  0.4859
  518MOL0     C69805   2.754   4.943   0.589 -0.2122 -0.0618  0.0397
  518MOL0     C69806   2.833   4.821   0.509  0.2527  0.5052  0.4912
  518MOL0     C69807   2.924   4.878   0.406 -1.2926  0.7723  0.1226
  518MOL0     C69808   2.970   4.770   0.306 -0.4753 -0.0035  0.1557
  518MOL0     C69809   3.059   4.675   0.382 -0.8661  0.3109 -0.8930
  518MOL0     C69810   3.128   4.579   0.287 -0.2586  0.2024 -0.2544
  518MOL0     C69811   3.208   4.473   0.369 -0.8795 -0.5171 -0.2460
  518MOL0     N69812   3.291   4.386   0.290 -0.1530  0.1361  0.3636
  518MOL0     C69813   3.404   4.321   0.328 -0.0453 -0.9482  0.3124
  518MOL0     C69814   3.399   4.192   0.273  0.4126  0.2793  0.0220
  518MOL0     C69815   3.508   4.093   0.274  0.1381  0.2694  0.2085
  518MOL0     C69816   3.653   4.152   0.246 -0.1022 -0.6776 -0.4188
  518MOL0     C69817   3.742   4.029   0.216 -0.2217 -0.4064  0.1392
  518MOL0     C69818   3.880   4.076   0.174  0.4359 -0.4761 -0.7682
  518MOL0     O69819   3.978   3.971   0.198  0.2795  0.4115  0.3056
  518MOL0     C69820   4.095   4.012   0.137  0.3889  0.1816 -0.5718
  518MOL0     C69821   4.170   4.114   0.194  0.4184 -0.2129  0.4988
  518MOL0     C69822   4.272   4.183   0.123 -0.2979 -0.2337 -0.5007
  518MOL0     C69823   4.320   4.136  -0.004 -0.4962 -0.6050 -0.6171
  518MOL0     C69824   4.434   4.198  -0.074  0.3053  0.0556 -0.0096
  518MOL0     O69825   4.442   4.174  -0.206 -0.7290 -0.1186 -0.1263
  518MOL0     C69826   4.559   4.218  -0.262  0.4300 -0.8588 -0.0132
  518MOL0     C69827   4.684   4.172  -0.224 -0.7881 -0.4027 -0.8913
  518MOL0     C69828   4.804   4.226  -0.289 -0.0469 -0.4946 -0.2050
  518MOL0     C69829   4.796   4.326  -0.393  0.2400  0.1500 -0.0184
  518MOL0     O69830   4.896   4.384  -0.468  0.4163 -0.0079 -0.3678
  518MOL0     C69831   5.035   4.379  -0.429 -0.3287  0.0266 -0.1175
  518MOL0     C69832   5.104   4.474  -0.521 -0.5589  0.1537 -0.0783
  518MOL0     C69833   5.253   4.494  -0.487 -0.5366  0.1800  0.1852
  518MOL0     C69834   5.335   4.592  -0.575  0.2246  0.4418  0.3686
  518MOL0     C69835   5.466   4.638  -0.507 -0.2725  0.0674 -0.0753
  518MOL0     C69836   5.541   4.725  -0.607  0.5194 -0.4065  0.0149
  518MOL0     C69837   5.683   4.750  -0.549 -0.4295 -0.3078 -0.6760
  518MOL0     C69838   5.787   4.794  -0.649  0.7714  0.0099  0.1990
  518MOL0    Cl69839   5.741   4.946  -0.741  0.2515 -0.3404  0.1622
  518MOL0     C69840   4.665   4.368  -0.419 -0.3704 -0.6238  0.6473
  518MOL0     C69841   4.551   4.317  -0.360 -0.4840  0.1363  0.3224
  518MOL0     O69842   4.502   4.276  -0.010 -0.4282  0.4242 -0.5901
  518MOL0     C69843   4.253   4.019  -0.051  0.5993 -1.1457  0.5207
  518MOL0     C69844   4.141   3.957   0.018  0.7070 -0.0591  0.0206
  518MOL0     N69845   3.280   4.187   0.204 -1.1922 -0.1070 -0.2728
  518MOL0     N69846   3.220   4.307   0.207  0.4583  0.8721 -0.5167
  518MOL0     C69847   2.457   4.815   0.892 -0.2609  0.4930 -0.1223
  518MOL0     C69848   2.388   4.804   1.009  0.3082 -0.1710 -0.0342
  518MOL0     C69849   2.281   4.776   1.459 -0.5078  0.3749  0.7007
  518MOL0     C69850   2.203   4.663   1.456  0.9070  1.3837 -0.5495
  518MOL0     C69851   2.091   4.644   1.546 -0.4200  0.7591  0.0182
  518MOL0     C69852   2.058   4.742   1.637 -0.1316  0.2645 -0.5765
  518MOL0     O69853   1.934   4.726   1.691 -0.3678  0.4655 -0.4888
  518MOL0     C69854   1.892   4.812   1.789 -0.0691  0.1592 -0.3231
  518MOL0     C69855   1.768   4.752   1.855  0.1371  0.2007 -0.0093
  518MOL0     C69856   1.795   4.611   1.909 -0.1383 -0.0729  0.1555
  518MOL0     C69857   1.683   4.566   1.990  0.2382  0.3607  0.1782
  518MOL0     C69858   1.674   4.643   2.112 -0.2908 -0.3683 -0.5074
  518MOL0     C69859   1.678   4.706   2.215 -0.2302 -0.5906 -0.1966
  518MOL0     C69860   2.155   4.842   1.655 -0.4787  0.2077 -0.4427
  518MOL0     C69861   2.259   4.866   1.565  0.1915  0.4056  0.0144
  518MOL0     C69862   2.332   4.998   1.603  0.3569  0.1005  1.3916
  518MOL0     H69863   2.632   4.689   1.208 -1.5532  0.5292 -0.1422
  518MOL0     H69864   2.761   4.708   0.996 -0.1849 -1.4957 -2.9148
  518MOL0     H69865   2.560   4.834   0.610 -0.0355 -0.6673  0.2265
  518MOL0     H69866   2.588   4.977   0.713 -2.4862  0.9003 -5.1445
  518MOL0     H69867   2.816   4.998   0.660  0.3664  0.0186 -0.5177
  518MOL0     H69868   2.703   5.001   0.512 -1.0038 -0.9942 -0.1629
  518MOL0     H69869   2.756   4.763   0.458  1.2709 -0.9699  0.5723
  518MOL0     H69870   2.885   4.755   0.579  0.4510 -0.1756 -0.2801
  518MOL0     H69871   2.870   4.954   0.348 -0.4356  1.1468 -0.2100
  518MOL0     H69872   3.013   4.921   0.453 -0.3955  0.5223 -1.2761
  518MOL0     H69873   2.884   4.714   0.268  0.3239 -0.8626 -0.4317
  518MOL0     H69874   3.023   4.819   0.224 -0.2237  2.7419  1.8357
  518MOL0     H69875   3.138   4.730   0.435 -0.3864  0.7980 -2.0866
  518MOL0     H69876   3.002   4.615   0.454  1.4611  0.0924  0.9095
  518MOL0     H69877   3.195   4.637   0.223  3.6340 -1.1003  2.2833
  518MOL0     H69878   3.051   4.530   0.227  0.2627 -0.6402 -0.2494
  518MOL0     H69879   3.279   4.518   0.440 -3.0482 -0.1037  1.8089
  518MOL0     H69880   3.134   4.417   0.427 -3.2010  0.2606 -2.2606
  518MOL0     H69881   3.483   4.358   0.393  1.3135 -1.1553 -1.1791
  518MOL0     H69882   3.514   4.035   0.366 -0.3579  0.3135  0.2659
  518MOL0     H69883   3.493   4.027   0.187  0.3055 -2.1455  1.8994
  518MOL0     H69884   3.624   4.207   0.156 -2.8745 -0.2908  0.6010
  518MOL0     H69885   3.695   4.207   0.330  1.3912  0.7148 -2.0142
  518MOL0     H69886   3.700   3.975   0.130 -0.5047  2.3926 -1.5830
  518MOL0     H69887   3.747   3.961   0.302 -0.9003 -0.4676  0.1369
  518MOL0     H69888   3.901   4.159   0.241 -1.6123 -1.2819  1.0083
  518MOL0     H69889   3.875   4.106   0.069  0.9923 -0.1881 -0.7150
  518MOL0     H69890   4.140   4.141   0.295 -2.1243 -0.8981  0.0033
  518MOL0     H69891   4.328   4.265   0.168 -0.4510 -0.3910 -0.0160
  518MOL0     H69892   4.709   4.103  -0.144  0.4725  0.7016 -0.2864
  518MOL0     H69893   4.907   4.203  -0.266  0.6523  2.2095 -0.3844
  518MOL0     H69894   5.035   4.420  -0.327 -0.8935  0.0462 -0.1273
  518MOL0     H69895   5.078   4.279  -0.437 -2.5164 -0.8830 -0.9232
  518MOL0     H69896   5.102   4.438  -0.625  5.3196 -0.8016 -0.2409
  518MOL0     H69897   5.063   4.575  -0.517  1.0088  0.8240 -0.1114
  518MOL0     H69898   5.250   4.532  -0.384  0.1519 -1.5929  0.8964
  518MOL0     H69899   5.312   4.402  -0.492 -1.9686 -0.7740  0.3806
  518MOL0     H69900   5.272   4.680  -0.589 -3.0314 -1.7943 -0.2651
  518MOL0     H69901   5.363   4.544  -0.668  1.5549  0.3580  0.7958
  518MOL0     H69902   5.537   4.557  -0.488  0.8724  0.7439 -1.2630
  518MOL0     H69903   5.456   4.683  -0.408  0.6155  0.4882 -0.1650
  518MOL0     H69904   5.548   4.678  -0.705 -2.2308 -2.2857  0.5952
  518MOL0     H69905   5.482   4.816  -0.618 -1.8461 -1.5998  1.9408
  518MOL0     H69906   5.730   4.664  -0.500 -0.5433  0.2127  0.3759
  518MOL0     H69907   5.663   4.830  -0.477 -4.3387 -0.7979 -0.9616
  518MOL0     H69908   5.884   4.797  -0.599  0.5654 -2.6064  0.9189
  518MOL0     H69909   5.791   4.709  -0.718 -1.2209  0.4928 -0.5843
  518MOL0     H69910   4.655   4.448  -0.492  2.6161 -0.2301  0.5696
  518MOL0     H69911   4.456   4.363  -0.384 -0.6431 -0.4820 -0.2652
  518MOL0     H69912   4.282   3.978  -0.148  0.0731  1.2290 -0.7322
  518MOL0     H69913   4.090   3.872  -0.025 -0.3571  0.3167  0.5095
  518MOL0     H69914   2.412   4.845   0.797  0.0107  1.1364 -0.0501
  518MOL0     H69915   2.281   4.818   1.022  0.2640 -0.4094 -0.1344
  518MOL0     H69916   2.228   4.592   1.379 -1.7139  0.3524 -0.5190
  518MOL0     H69917   2.026   4.560   1.523 -1.7044  2.0460 -1.1668
  518MOL0     H69918   1.870   4.912   1.750 -3.0286  0.1637  1.0929
  518MOL0     H69919   1.975   4.806   1.861  2.3757 -0.7905 -3.0181
  518MOL0     H69920   1.695   4.742   1.774  2.5320  1.3877 -2.4410
  518MOL0     H69921   1.729   4.823   1.928  2.7918  0.1810  1.5458
  518MOL0     H69922   1.884   4.605   1.974 -1.8401 -0.3161  2.6039
  518MOL0     H69923   1.814   4.539   1.829 -0.0759  0.3053 -0.1749
  518MOL0     H69924   1.593   4.582   1.930  1.0937  0.2527 -1.1737
  518MOL0     H69925   1.710   4.463   2.013 -1.1650  0.0555  0.5433
  518MOL0     H69926   1.668   4.763   2.304 -0.5822 -0.6875 -0.1715
  518MOL0     H69927   2.142   4.912   1.737 -2.6888  0.7307 -1.1947
  518MOL0     H69928   2.425   4.973   1.655  0.7413  1.8034  1.5675
  518MOL0     H69929   2.355   5.053   1.511  1.9735  0.5471  2.0150
  518MOL0     H69930   2.265   5.062   1.660 -0.8759  0.5128 -0.4472
  519MOL0     O69931   8.584   3.108   6.349  0.3666  0.6653 -0.1267
  519MOL0     C69932   8.502   3.018   6.330 -0.1386  0.8980 -0.0357
  519MOL0     O69933   8.537   2.887   6.339 -0.2323  0.7578  0.2853
  519MOL0     C69934   8.650   2.836   6.393  0.0033 -0.3289 -0.6040
  519MOL0     C69935   8.777   2.892   6.418 -0.1833  0.0268 -0.1001
  519MOL0     C69936   8.881   2.810   6.468  0.0316 -0.4126 -0.1748
  519MOL0     C69937   8.860   2.678   6.499  0.0106  0.2739  0.0675
  519MOL0     O69938   8.950   2.597   6.552 -1.2085 -0.1084 -0.0008
  519MOL0     C69939   9.085   2.620   6.522 -0.9488 -0.3953  0.1481
  519MOL0     C69940   9.157   2.701   6.632 -1.0420  0.1468  0.3221
  519MOL0     C69941   9.300   2.729   6.591  0.0133 -0.3517 -0.1674
  519MOL0     C69942   9.371   2.811   6.703  0.2579  0.1513  0.3506
  519MOL0     C69943   9.511   2.837   6.640 -0.5576 -0.0264  0.2404
  519MOL0     C69944   9.611   2.925   6.722 -0.3715  0.6112  0.2679
  519MOL0     C69945   9.748   2.932   6.651 -0.4181 -0.0100 -0.0355
  519MOL0     C69946   9.851   3.010   6.739  0.7636 -0.1478  0.2003
  519MOL0     N69947   9.801   3.147   6.760 -0.2012  0.6075  0.3238
  519MOL0     C69948   9.816   3.248   6.671 -0.3622  0.6643  0.2464
  519MOL0     C69949   9.780   3.357   6.732  0.5300  0.1838  0.2778
  519MOL0     C69950   9.767   3.487   6.665  0.5057  0.2938  0.1843
  519MOL0     C69951   9.895   3.564   6.697  0.3153  0.0492 -0.3635
  519MOL0     C69952   9.858   3.710   6.668  0.9013  0.1363 -0.2845
  519MOL0     C69953   9.976   3.809   6.683 -0.5296 -0.7227  0.4136
  519MOL0     O69954  10.075   3.789   6.585  0.0034  0.1171 -1.0498
  519MOL0     C69955  10.197   3.834   6.622  1.2926  0.8343 -0.7509
  519MOL0     C69956  10.213   3.941   6.707  0.3028  0.1706  0.2400
  519MOL0     C69957  10.343   3.990   6.731  0.5820 -0.0031  0.3247
  519MOL0     C69958  10.451   3.933   6.666 -0.4129  0.1265 -0.3166
  519MOL0     C69959  10.588   3.979   6.690 -0.2564 -0.6288  0.2428
  519MOL0     O69960  10.607   4.062   6.802 -0.4133  0.2894 -0.4588
  519MOL0     C69961  10.733   4.105   6.825 -1.0655  0.0977  0.6689
  519MOL0     C69962  10.846   4.015   6.848  0.3478  0.5928  0.0767
  519MOL0     C69963  10.971   4.076   6.871  0.5806 -0.2179 -0.0817
  519MOL0     C69964  10.992   4.213   6.848 -0.3943 -0.2089 -0.0045
  519MOL0     O69965  11.118   4.279   6.850 -0.0757  0.6697  0.1991
  519MOL0     C69966  11.236   4.208   6.892 -0.1971  0.4366  0.0850
  519MOL0     C69967  11.354   4.293   6.864 -0.4445 -0.1796 -0.1509
  519MOL0     C69968  11.486   4.223   6.860  0.0207  0.3802 -0.0915
  519MOL0     C69969  11.605   4.320   6.821  0.2913  1.0358 -0.5267
  519MOL0     C69970  11.737   4.265   6.849 -0.0505 -0.3205  0.1250
  519MOL0     C69971  11.837   4.365   6.802 -0.8646 -0.2536 -0.7578
  519MOL0     C69972  11.976   4.337   6.850  0.0209 -0.1157 -1.0772
  519MOL0     C69973  12.051   4.228   6.779  0.4029  0.1870 -0.6376
  519MOL0    Cl69974  12.222   4.228   6.846  0.0403 -0.4794 -0.1260
  519MOL0     C69975  10.879   4.298   6.815 -0.3446 -0.7060  0.4469
  519MOL0     C69976  10.752   4.242   6.799  0.3287  0.3054  0.4541
  519MOL0     O69977  10.677   3.945   6.606 -0.0027 -0.7342 -0.7244
  519MOL0     C69978  10.426   3.826   6.583  0.1671 -0.3492 -0.5986
  519MOL0     C69979  10.301   3.776   6.560 -0.4023  0.3156 -0.5383
  519MOL0     N69980   9.741   3.332   6.859  0.3160  0.3913  0.6494
  519MOL0     N69981   9.758   3.207   6.879  0.4713  0.5497  0.1882
  519MOL0     C69982   8.725   2.633   6.500 -0.4366 -0.7237  0.4109
  519MOL0     C69983   8.622   2.708   6.435 -0.8725  0.3368  0.0717
  519MOL0     C69984   8.364   3.038   6.275  0.3672 -0.1801  0.2179
  519MOL0     C69985   8.285   2.927   6.248  0.3457  0.2214  0.1747
  519MOL0     C69986   8.157   2.937   6.189 -0.1064 -1.0219 -0.3191
  519MOL0     C69987   8.098   3.062   6.164  0.9451 -0.0742 -0.4153
  519MOL0     O69988   7.965   3.055   6.122 -0.7025 -0.3376  0.4040
  519MOL0     C69989   7.886   3.172   6.137  0.8616  0.4577  0.1379
  519MOL0     C69990   7.807   3.169   6.268  0.0102  0.0736 -0.3112
  519MOL0     C69991   7.700   3.063   6.280 -0.6260 -0.2896  0.5998
  519MOL0     C69992   7.755   2.921   6.307  0.3317  0.5434 -0.5582
  519MOL0     C69993   7.641   2.833   6.336  1.3736 -1.4418 -0.1253
  519MOL0     C69994   7.553   2.748   6.324 -0.2959  0.8086  0.4916
  519MOL0     C69995   8.183   3.173   6.187  0.2431 -0.9180 -0.0687
  519MOL0     C69996   8.308   3.169   6.246  0.2346  0.9088 -0.6884
  519MOL0     C69997   8.393   3.301   6.250 -0.1270 -0.1320  0.2912
  519MOL0     H69998   8.794   2.995   6.387  1.4632 -0.3405 -0.4598
  519MOL0     H69999   8.979   2.857   6.478  0.2621 -0.9278  0.0264
  519MOL0     H70000   9.137   2.524   6.522  2.5383  1.3068 -0.2528
  519MOL0     H70001   9.089   2.670   6.424 -0.0654  0.7636  0.7465
  519MOL0     H70002   9.153   2.645   6.726 -1.1206 -0.7767 -0.2196
  519MOL0     H70003   9.108   2.799   6.642  1.0708  1.7921 -3.2769
  519MOL0     H70004   9.296   2.779   6.494 -2.0057 -1.3950 -0.6841
  519MOL0     H70005   9.354   2.634   6.586 -2.3727 -1.7761 -0.5075
  519MOL0     H70006   9.317   2.902   6.730  1.1707  0.5068  1.0622
  519MOL0     H70007   9.363   2.744   6.789 -0.6243 -0.7534 -0.4162
  519MOL0     H70008   9.558   2.745   6.605  0.2639  0.8553 -1.0777
  519MOL0     H70009   9.491   2.899   6.552  0.7997  0.7169  0.4369
  519MOL0     H70010   9.570   3.026   6.728  0.4430  0.9315  0.5967
  519MOL0     H70011   9.630   2.892   6.825  1.6758 -0.0824 -0.2807
  519MOL0     H70012   9.732   2.984   6.556 -1.2215  1.8911  1.0925
  519MOL0     H70013   9.789   2.832   6.633  3.0064  1.0808  0.9514
  519MOL0     H70014   9.867   2.963   6.837  3.7788  0.7856  0.2600
  519MOL0     H70015   9.953   3.003   6.700  0.9225  1.2272  0.3411
  519MOL0     H70016   9.852   3.240   6.569  2.0820  0.0334  1.0688
  519MOL0     H70017   9.765   3.479   6.556  1.5350 -2.3042  0.2901
  519MOL0     H70018   9.674   3.542   6.685  0.1124 -0.2964  0.0265
  519MOL0     H70019   9.918   3.549   6.802  3.9963  0.3362 -0.9865
  519MOL0     H70020   9.972   3.515   6.636  0.6827 -2.2250  1.7929
  519MOL0     H70021   9.775   3.750   6.725  0.2950 -2.5334  0.8845
  519MOL0     H70022   9.832   3.715   6.562 -2.2681 -1.6853  0.2875
  519MOL0     H70023  10.012   3.795   6.785 -0.1932  0.8911  0.5457
  519MOL0     H70024   9.946   3.914   6.677  1.9918 -0.0236 -1.6651
  519MOL0     H70025  10.132   3.994   6.756 -0.3963 -0.8858  0.2722
  519MOL0     H70026  10.358   4.067   6.805  4.5173 -1.1933  1.0170
  519MOL0     H70027  10.842   3.907   6.856 -1.3342  0.6233  0.0721
  519MOL0     H70028  11.059   4.013   6.880 -0.3246 -1.2232  2.5771
  519MOL0     H70029  11.230   4.173   6.995 -0.8492  3.2892  1.1101
  519MOL0     H70030  11.248   4.118   6.830 -0.7321  1.6959 -1.9420
  519MOL0     H70031  11.328   4.347   6.773 -3.0622  1.7616  1.6117
  519MOL0     H70032  11.362   4.371   6.940  0.0805  0.4749 -0.8677
  519MOL0     H70033  11.498   4.179   6.960 -3.6227  0.4834  0.5113
  519MOL0     H70034  11.485   4.141   6.787  1.3731  1.8462 -1.8346
  519MOL0     H70035  11.589   4.412   6.878 -0.1150  0.0572  1.0138
  519MOL0     H70036  11.598   4.331   6.713 -1.8899  1.1175 -0.4231
  519MOL0     H70037  11.740   4.173   6.790 -1.5361  1.7504 -3.5306
  519MOL0     H70038  11.743   4.248   6.957 -2.2982 -1.2635  0.1632
  519MOL0     H70039  11.838   4.381   6.694  0.3194  1.7176 -0.5140
  519MOL0     H70040  11.801   4.459   6.844 -2.1217 -0.9695 -0.2055
  519MOL0     H70041  11.973   4.294   6.951 -0.9699  0.3253 -0.9156
  519MOL0     H70042  12.043   4.422   6.860  1.1153 -1.1468  1.1065
  519MOL0     H70043  12.015   4.126   6.797  0.3337  0.5806  1.8287
  519MOL0     H70044  12.046   4.249   6.672 -1.8228  1.2784 -0.3685
  519MOL0     H70045  10.891   4.404   6.798 -0.6855 -0.7779 -0.2804
  519MOL0     H70046  10.659   4.294   6.777 -0.4784 -1.3955 -0.3630
  519MOL0     H70047  10.513   3.787   6.531  1.1249  1.8743 -0.7500
  519MOL0     H70048  10.288   3.694   6.489 -0.3233  1.1810 -1.5846
  519MOL0     H70049   8.711   2.530   6.532  1.5424 -1.4500 -0.8485
  519MOL0     H70050   8.528   2.664   6.402 -0.7428  0.0544  0.0732
  519MOL0     H70051   8.324   2.826   6.256 -2.5142 -1.1229 -1.3775
  519MOL0     H70052   8.098   2.849   6.166 -0.8290 -1.5075  2.9500
  519MOL0     H70053   7.820   3.169   6.050  1.7161 -0.8064 -0.4909
  519MOL0     H70054   7.956   3.255   6.139  1.1064  0.5227 -3.6936
  519MOL0     H70055   7.762   3.266   6.291  0.0444 -0.4104  2.0219
  519MOL0     H70056   7.879   3.159   6.350 -0.8549  0.3505  0.4918
  519MOL0     H70057   7.653   3.058   6.182  2.3058  0.0907 -0.9327
  519MOL0     H70058   7.619   3.093   6.347 -1.0628  3.0837 -1.2244
  519MOL0     H70059   7.816   2.884   6.224  2.0542 -0.0812  0.9244
  519MOL0     H70060   7.818   2.913   6.395  1.2822 -0.6304 -1.3165
  519MOL0     H70061   7.477   2.673   6.325  1.0347 -0.5736  0.2311
  519MOL0     H70062   8.148   3.275   6.179  1.4975 -0.4015  0.7496
  519MOL0     H70063   8.423   3.340   6.348 -0.7340  1.8778 -0.2754
  519MOL0     H70064   8.482   3.287   6.189 -1.0517  0.0856 -1.1345
  519MOL0     H70065   8.343   3.384   6.199  0.2838  0.1781  0.3899
  520MOL0     O70066   2.438   5.416   7.679 -0.1185 -0.4667 -0.2357
  520MOL0     C70067   2.415   5.365   7.568 -0.0225 -0.2655  0.1599
  520MOL0     O70068   2.482   5.390   7.452  0.4920  0.3689  0.4635
  520MOL0     C70069   2.604   5.443   7.447 -0.4873  0.9045 -1.4144
  520MOL0     C70070   2.632   5.497   7.324  0.0373  0.1669 -0.2814
  520MOL0     C70071   2.755   5.564   7.308  0.3366 -0.0783  0.1430
  520MOL0     C70072   2.850   5.559   7.406 -0.5911 -0.5457  0.6483
  520MOL0     O70073   2.976   5.623   7.379  0.3653  0.0006  0.1960
  520MOL0     C70074   3.085   5.597   7.460  0.1272 -0.2675 -0.3500
  520MOL0     C70075   3.204   5.669   7.405 -0.2531  0.2219 -0.1404
  520MOL0     C70076   3.271   5.571   7.310  0.0382 -0.4404  0.2042
  520MOL0     C70077   3.408   5.633   7.266 -0.0802 -0.4550  0.1892
  520MOL0     C70078   3.490   5.528   7.179  0.0784 -0.1648  0.4617
  520MOL0     C70079   3.620   5.580   7.145  0.0582 -0.4775  0.8590
  520MOL0     C70080   3.743   5.527   7.228  0.3735 -0.2974  0.0210
  520MOL0     C70081   3.874   5.581   7.172 -0.5276  0.5127 -0.7359
  520MOL0     N70082   3.917   5.516   7.044 -0.2549 -0.2142 -0.5896
  520MOL0     C70083   3.986   5.404   7.026  0.2145 -0.4079 -0.1395
  520MOL0     C70084   4.028   5.401   6.894 -0.1536  0.2825 -1.3280
  520MOL0     C70085   4.107   5.283   6.834 -0.2331  0.3071 -1.1938
  520MOL0     C70086   4.203   5.321   6.729 -0.1965 -1.1813  0.1909
  520MOL0     C70087   4.262   5.210   6.651 -0.4786  0.2251  0.1773
  520MOL0     C70088   4.344   5.120   6.749  0.3173 -0.1857  0.4290
  520MOL0     O70089   4.417   5.024   6.676  0.6164  0.3350  0.3782
  520MOL0     C70090   4.547   5.042   6.634 -0.6372 -0.7887  0.4187
  520MOL0     C70091   4.611   4.932   6.577  0.4112  0.2744 -1.2401
  520MOL0     C70092   4.742   4.931   6.534  0.0985  0.0987 -0.0475
  520MOL0     C70093   4.815   5.047   6.543 -0.6826  0.4433  0.2462
  520MOL0     C70094   4.961   5.054   6.506  0.9423 -0.7569  1.5977
  520MOL0     O70095   5.026   4.935   6.486  0.0307  0.2246  0.2623
  520MOL0     C70096   5.159   4.949   6.446  0.5911  0.2821  0.1734
  520MOL0     C70097   5.262   4.929   6.539  0.4629 -0.3057  0.5199
  520MOL0     C70098   5.391   4.956   6.501  0.8093 -0.4433  0.0536
  520MOL0     C70099   5.422   4.997   6.373  0.0749  0.3010  0.0860
  520MOL0     O70100   5.551   5.046   6.345  0.3274  1.4419  0.2498
  520MOL0     C70101   5.658   4.993   6.424  1.0166  0.1386 -0.4475
  520MOL0     C70102   5.792   5.030   6.355  1.1165 -0.7411  0.3819
  520MOL0     C70103   5.905   4.972   6.447  0.1800 -0.0685  0.1316
  520MOL0     C70104   6.040   5.017   6.401  0.2242 -0.5013  0.2725
  520MOL0     C70105   6.151   4.947   6.477  1.0557  0.5177  0.6822
  520MOL0     C70106   6.292   4.966   6.422 -0.1584  0.0944 -0.1232
  520MOL0     C70107   6.384   4.908   6.521  0.4231  0.5342 -0.3346
  520MOL0     C70108   6.527   4.962   6.492 -0.4314  0.4351  0.5478
  520MOL0    Cl70109   6.608   4.902   6.336  0.1501 -0.2307 -0.3039
  520MOL0     C70110   5.319   5.014   6.277 -0.0472 -0.3585  0.4123
  520MOL0     C70111   5.188   5.012   6.324  0.4200  0.5656  0.3390
  520MOL0     O70112   5.014   5.159   6.492  0.6423  0.7938 -0.5186
  520MOL0     C70113   4.755   5.160   6.598  0.5373 -0.1251  0.5655
  520MOL0     C70114   4.617   5.157   6.643 -0.8036 -0.5861 -0.3212
  520MOL0     N70115   3.976   5.517   6.841  0.0355  0.1507 -0.0819
  520MOL0     N70116   3.912   5.586   6.926  0.5039  0.0084 -0.1965
  520MOL0     C70117   2.828   5.498   7.530  0.4679  0.1670  0.1927
  520MOL0     C70118   2.705   5.441   7.548  0.2423  0.0675  0.0885
  520MOL0     C70119   2.293   5.281   7.544  0.5392  0.0196  0.9388
  520MOL0     C70120   2.272   5.227   7.416  0.5085 -0.2973 -0.0645
  520MOL0     C70121   2.159   5.156   7.383 -0.2326  0.4323 -0.3850
  520MOL0     C70122   2.056   5.122   7.473 -0.7157  0.0329 -0.0882
  520MOL0     O70123   1.933   5.051   7.444 -0.5051 -0.2814 -0.4472
  520MOL0     C70124   1.937   4.959   7.332  0.8800  0.3052  0.0906
  520MOL0     C70125   1.833   4.847   7.330  0.5050  0.0884 -0.0578
  520MOL0     C70126   1.691   4.904   7.323 -0.6245 -1.0679 -0.1437
  520MOL0     C70127   1.639   4.933   7.471  0.9671  0.1676 -0.2890
  520MOL0     C70128   1.509   5.008   7.467 -0.4118 -0.1352 -0.1233
  520MOL0     C70129   1.400   5.060   7.475  0.5763  0.3506  0.1563
  520MOL0     C70130   2.077   5.176   7.600  0.0857  0.4185 -0.5033
  520MOL0     C70131   2.188   5.250   7.638 -0.0704 -0.4683  0.4429
  520MOL0     C70132   2.200   5.283   7.778  0.2853 -0.2350  0.8518
  520MOL0     H70133   2.557   5.492   7.245 -1.7759  1.1946  1.2913
  520MOL0     H70134   2.773   5.612   7.212  0.6398  2.6649  1.4631
  520MOL0     H70135   3.070   5.643   7.559 -1.6221 -0.3345 -0.5543
  520MOL0     H70136   3.105   5.490   7.475 -0.9834 -0.2608  1.5571
  520MOL0     H70137   3.274   5.693   7.485 -0.1133 -2.5453  0.6701
  520MOL0     H70138   3.173   5.763   7.359  1.1120  0.2296 -1.1253
  520MOL0     H70139   3.202   5.559   7.225 -0.3127 -1.7738  0.6529
  520MOL0     H70140   3.287   5.471   7.353 -2.2038 -1.5690 -1.3601
  520MOL0     H70141   3.397   5.724   7.206  0.7058 -0.1695  0.4699
  520MOL0     H70142   3.475   5.657   7.349 -0.1235 -1.6777  0.5938
  520MOL0     H70143   3.496   5.433   7.233 -0.1674  0.9719  2.6072
  520MOL0     H70144   3.436   5.510   7.086  0.0693 -1.6705  0.7378
  520MOL0     H70145   3.641   5.538   7.046 -0.1579  2.1701 -0.4003
  520MOL0     H70146   3.623   5.690   7.141  4.2516 -0.4459 -0.3065
  520MOL0     H70147   3.749   5.418   7.230 -2.6830 -0.5415  2.1123
  520MOL0     H70148   3.727   5.572   7.326 -0.5532 -0.5600 -0.0047
  520MOL0     H70149   3.863   5.688   7.153 -2.6477  1.1257  3.0376
  520MOL0     H70150   3.948   5.582   7.253 -1.0856  1.1710 -0.2142
  520MOL0     H70151   3.992   5.326   7.102 -1.6929 -0.4573  0.0087
  520MOL0     H70152   4.164   5.233   6.913  0.2356  0.1490 -1.6249
  520MOL0     H70153   4.038   5.211   6.790 -1.6094  1.2059 -0.5697
  520MOL0     H70154   4.149   5.389   6.664  3.2852  0.9169 -0.7852
  520MOL0     H70155   4.273   5.387   6.782 -0.8775 -0.1153 -0.2066
  520MOL0     H70156   4.324   5.255   6.573  0.3466 -0.9326  0.1387
  520MOL0     H70157   4.185   5.151   6.601 -1.3674  0.3316  1.3758
  520MOL0     H70158   4.281   5.067   6.822 -0.3926 -0.7067 -0.5281
  520MOL0     H70159   4.410   5.180   6.811  1.6048  0.8301 -1.7883
  520MOL0     H70160   4.547   4.845   6.561 -2.1226  1.8969 -0.4427
  520MOL0     H70161   4.790   4.846   6.488  0.2369 -0.0827  0.4227
  520MOL0     H70162   5.238   4.906   6.642 -0.8665 -0.0867  0.2725
  520MOL0     H70163   5.465   4.962   6.579 -0.7552  0.5008  1.5426
  520MOL0     H70164   5.656   5.020   6.530 -0.2149 -0.2653 -0.3534
  520MOL0     H70165   5.659   4.883   6.424  0.3669  0.1132 -1.4957
  520MOL0     H70166   5.787   4.990   6.253 -1.6374  1.0190 -0.2693
  520MOL0     H70167   5.805   5.138   6.355 -0.7591 -0.3963 -2.4232
  520MOL0     H70168   5.902   5.004   6.552  1.7108 -0.2428  0.2602
  520MOL0     H70169   5.904   4.863   6.451 -1.6691 -0.0459  2.3700
  520MOL0     H70170   6.050   5.125   6.417 -1.0297 -0.2805 -0.2819
  520MOL0     H70171   6.049   4.988   6.296  3.0665  0.6062  0.1311
  520MOL0     H70172   6.129   4.840   6.472 -1.8751  0.9959  1.3979
  520MOL0     H70173   6.149   4.983   6.580 -1.5524 -0.2342  0.9538
  520MOL0     H70174   6.300   4.913   6.327 -0.4333  0.6391 -0.4567
  520MOL0     H70175   6.323   5.063   6.380  0.8376  0.1279  0.6470
  520MOL0     H70176   6.390   4.799   6.515  0.0679  0.5529 -1.1391
  520MOL0     H70177   6.365   4.921   6.628  1.3366 -0.6968  0.0005
  520MOL0     H70178   6.520   5.071   6.496 -1.5182  0.3660  0.7178
  520MOL0     H70179   6.599   4.929   6.568 -0.6334 -1.5475 -0.0609
  520MOL0     H70180   5.344   5.059   6.182  2.2376 -3.3432 -0.5520
  520MOL0     H70181   5.111   5.037   6.252 -1.2033 -3.3057  0.5090
  520MOL0     H70182   4.806   5.254   6.616 -0.3735  0.5265 -0.1633
  520MOL0     H70183   4.585   5.249   6.690 -1.8851 -1.3970  0.5857
  520MOL0     H70184   2.890   5.482   7.618  2.4112  0.1754 -1.0924
  520MOL0     H70185   2.680   5.410   7.649 -1.6963  1.9226  0.2596
  520MOL0     H70186   2.350   5.243   7.342  0.0070  2.3760 -0.1434
  520MOL0     H70187   2.149   5.126   7.279  0.1720 -0.6916 -0.1152
  520MOL0     H70188   2.040   4.923   7.327  1.0062  0.7767 -0.9663
  520MOL0     H70189   1.918   5.025   7.247 -2.6165  0.5515  0.8907
  520MOL0     H70190   1.839   4.788   7.422 -1.5019  3.1400  2.2841
  520MOL0     H70191   1.846   4.791   7.238 -1.0303  0.3300 -0.4568
  520MOL0     H70192   1.639   4.820   7.276 -1.0214 -1.2370  0.5979
  520MOL0     H70193   1.689   4.995   7.263  0.2799 -1.8711 -1.4462
  520MOL0     H70194   1.621   4.834   7.513  0.3766  0.1910 -0.4755
  520MOL0     H70195   1.714   4.985   7.532  0.9981  0.7530 -0.8188
  520MOL0     H70196   1.306   5.111   7.485 -1.1077 -1.2716 -4.6460
  520MOL0     H70197   2.002   5.160   7.676  1.6859  0.1118  1.0949
  520MOL0     H70198   2.114   5.254   7.838 -0.6944  1.2563  0.2444
  520MOL0     H70199   2.291   5.247   7.827  1.5961  1.5191 -0.1564
  520MOL0     H70200   2.198   5.390   7.803 -0.2345 -0.0442  0.0326
  521MOL0     O70201   6.578   8.570   6.461 -0.3273  0.3819 -0.7456
  521MOL0     C70202   6.547   8.554   6.579  0.0197  0.2769  0.3621
  521MOL0     O70203   6.637   8.527   6.678 -0.6546 -0.2287  0.2394
  521MOL0     C70204   6.762   8.487   6.656  0.2919 -0.0360 -0.6412
  521MOL0     C70205   6.798   8.403   6.544 -0.7539 -0.8343 -0.2894
  521MOL0     C70206   6.933   8.374   6.515 -0.1763 -0.1329  0.3956
  521MOL0     C70207   7.024   8.408   6.612 -0.1988  0.3993 -0.4563
  521MOL0     O70208   7.159   8.381   6.608 -0.7484 -0.0411 -0.6105
  521MOL0     C70209   7.192   8.257   6.565 -0.7550 -0.3679  0.1068
  521MOL0     C70210   7.330   8.218   6.608 -0.1282  0.4482 -0.0754
  521MOL0     C70211   7.359   8.202   6.757  0.4363  0.0096  0.3562
  521MOL0     C70212   7.501   8.159   6.786  0.2442 -0.2414  0.5247
  521MOL0     C70213   7.591   8.256   6.857  0.3816  0.1940 -0.1752
  521MOL0     C70214   7.662   8.362   6.776 -0.5463  0.2535  0.5446
  521MOL0     C70215   7.759   8.311   6.663  0.5026 -0.1441  0.9222
  521MOL0     C70216   7.855   8.215   6.724 -0.4462  0.2580  0.3649
  521MOL0     N70217   7.940   8.263   6.838  0.1742  0.2676 -0.0521
  521MOL0     C70218   7.979   8.196   6.952 -0.4744  0.4135 -0.5241
  521MOL0     C70219   8.080   8.273   7.015  0.6274 -0.4631 -0.4808
  521MOL0     C70220   8.139   8.243   7.151  0.2321 -0.2196 -0.0453
  521MOL0     C70221   8.293   8.281   7.152 -0.1984 -0.0270  0.9001
  521MOL0     C70222   8.330   8.321   7.293  0.2064 -0.4846 -0.1539
  521MOL0     C70223   8.491   8.335   7.300  0.5909  0.5203 -0.6149
  521MOL0     O70224   8.534   8.452   7.245  0.3096 -0.0498  0.5622
  521MOL0     C70225   8.671   8.453   7.231 -0.2812 -0.6676 -0.1262
  521MOL0     C70226   8.740   8.524   7.321 -0.2897 -0.4178 -0.1657
  521MOL0     C70227   8.880   8.532   7.327  0.1221  0.2140  0.9366
  521MOL0     C70228   8.947   8.464   7.218 -0.2711 -0.5253 -0.6145
  521MOL0     C70229   9.094   8.459   7.201  0.3091  0.3569 -0.4166
  521MOL0     O70230   9.150   8.423   7.079  0.2597 -0.1469 -0.7578
  521MOL0     C70231   9.282   8.401   7.076  0.2850 -0.9569 -0.1031
  521MOL0     C70232   9.339   8.284   7.127  0.2334  0.2019 -0.2766
  521MOL0     C70233   9.475   8.269   7.122  0.2891  0.0170  0.1201
  521MOL0     C70234   9.556   8.368   7.054 -0.1084 -1.0463 -0.9400
  521MOL0     O70235   9.696   8.365   7.047  0.2016 -0.2808 -0.1259
  521MOL0     C70236   9.760   8.243   7.096 -0.2201 -0.1294 -0.0412
  521MOL0     C70237   9.905   8.292   7.084 -0.0529 -0.5531 -0.3078
  521MOL0     C70238  10.005   8.192   7.143 -0.0180 -0.3228 -0.9249
  521MOL0     C70239  10.047   8.090   7.034 -0.3595  1.1686  0.3717
  521MOL0     C70240  10.097   7.957   7.083  0.0207 -0.7624  0.2539
  521MOL0     C70241  10.207   7.974   7.185 -0.3758  1.2210  0.3861
  521MOL0     C70242  10.276   7.837   7.221 -0.6489 -0.1300 -0.9189
  521MOL0     C70243  10.187   7.725   7.257 -0.3679 -0.4075  0.0295
  521MOL0    Cl70244  10.089   7.772   7.394 -0.2044 -0.0262  0.0491
  521MOL0     C70245   9.494   8.486   7.001 -0.2642  0.2540  0.0958
  521MOL0     C70246   9.361   8.493   7.010  0.3064 -0.6328 -0.0323
  521MOL0     O70247   9.151   8.515   7.292 -1.0688 -0.6588  0.8876
  521MOL0     C70248   8.876   8.392   7.122 -0.2974  0.2592  0.1925
  521MOL0     C70249   8.740   8.389   7.132  1.4425 -0.1265 -0.5726
  521MOL0     N70250   8.101   8.385   6.937  0.1860  0.6745  0.2056
  521MOL0     N70251   8.024   8.373   6.834  0.7222 -0.2316  0.3302
  521MOL0     C70252   6.992   8.479   6.730  0.2431  0.7292  0.3069
  521MOL0     C70253   6.859   8.523   6.748 -0.0510  0.4188  0.1921
  521MOL0     C70254   6.423   8.619   6.627  0.6024  0.0107  0.3566
  521MOL0     C70255   6.425   8.709   6.741 -0.3104  0.2613  0.4830
  521MOL0     C70256   6.314   8.781   6.775  0.0937 -0.1327  0.0397
  521MOL0     C70257   6.197   8.772   6.702 -0.7388  0.6696 -0.3086
  521MOL0     O70258   6.091   8.846   6.746  0.4838  0.0226 -0.8871
  521MOL0     C70259   5.971   8.835   6.671  0.5383 -0.6869  0.1214
  521MOL0     C70260   5.877   8.930   6.734  0.3642 -0.1266 -0.4831
  521MOL0     C70261   5.839   8.883   6.880 -0.2423 -0.5602  0.3313
  521MOL0     C70262   5.748   8.992   6.946 -0.1490 -1.2827 -0.1541
  521MOL0     C70263   5.612   8.991   6.886  0.2103 -0.0159 -0.3477
  521MOL0     C70264   5.501   8.962   6.844  0.5408  0.2031  0.6952
  521MOL0     C70265   6.192   8.681   6.592 -0.4529 -0.1500 -0.6759
  521MOL0     C70266   6.305   8.605   6.553 -0.3274 -0.3102  0.5799
  521MOL0     C70267   6.277   8.489   6.457 -0.1474 -0.1546 -0.8474
  521MOL0     H70268   6.721   8.375   6.473 -0.8877  1.0905 -0.9847
  521MOL0     H70269   6.959   8.316   6.427  2.2506 -0.5455  1.3024
  521MOL0     H70270   7.119   8.176   6.575 -1.4936  0.3554  0.8061
  521MOL0     H70271   7.193   8.268   6.457 -1.6682 -0.5826  0.0621
  521MOL0     H70272   7.402   8.287   6.563 -0.1530 -0.1565 -1.0789
  521MOL0     H70273   7.354   8.123   6.558  0.1841  0.3575  0.2416
  521MOL0     H70274   7.293   8.131   6.808  3.4318 -3.3802 -0.0967
  521MOL0     H70275   7.342   8.302   6.799  0.7517  1.0185 -1.7708
  521MOL0     H70276   7.511   8.074   6.854  2.8160 -1.4292 -1.2184
  521MOL0     H70277   7.543   8.120   6.693 -1.7280 -0.4704 -0.3264
  521MOL0     H70278   7.527   8.318   6.920  1.1602 -0.4732  1.3097
  521MOL0     H70279   7.654   8.203   6.929 -0.6533  0.7687  1.1983
  521MOL0     H70280   7.585   8.429   6.737  2.0567  2.7477 -0.7205
  521MOL0     H70281   7.723   8.430   6.837 -0.4402  2.9072 -2.2468
  521MOL0     H70282   7.817   8.394   6.623  0.6225 -0.2585  0.8595
  521MOL0     H70283   7.711   8.267   6.575  0.2243  0.1667  0.9144
  521MOL0     H70284   7.799   8.124   6.747  1.1284 -0.2579  2.4575
  521MOL0     H70285   7.933   8.203   6.648 -0.4273 -0.2251  0.4546
  521MOL0     H70286   7.942   8.098   6.982  3.0567 -0.4783  1.5379
  521MOL0     H70287   8.085   8.301   7.227  2.6142  1.3427  0.5703
  521MOL0     H70288   8.127   8.137   7.173 -0.3369 -0.4831 -1.5072
  521MOL0     H70289   8.352   8.199   7.110 -1.6642  0.4926 -2.5237
  521MOL0     H70290   8.306   8.367   7.085 -0.6898 -0.3231  0.4117
  521MOL0     H70291   8.295   8.243   7.361  1.1462 -1.5381 -0.8452
  521MOL0     H70292   8.281   8.416   7.313 -1.5920 -1.6836  1.5444
  521MOL0     H70293   8.539   8.244   7.262  1.3690  0.6157  0.1186
  521MOL0     H70294   8.511   8.339   7.407  1.0537  1.1416 -0.7197
  521MOL0     H70295   8.684   8.586   7.391  2.7895  2.0796  0.3351
  521MOL0     H70296   8.928   8.596   7.400 -0.4791 -0.3257  1.8081
  521MOL0     H70297   9.261   8.224   7.173  0.8102 -1.0529 -0.8690
  521MOL0     H70298   9.521   8.183   7.169 -0.6948 -1.2517 -1.1373
  521MOL0     H70299   9.737   8.190   7.189 -0.0798 -1.8516 -0.9514
  521MOL0     H70300   9.754   8.162   7.022  0.1893  0.0260 -0.2497
  521MOL0     H70301   9.920   8.314   6.978 -0.5134  1.3692 -0.0155
  521MOL0     H70302   9.919   8.385   7.140  1.5966 -1.5068  0.9530
  521MOL0     H70303  10.082   8.259   7.182  0.1055 -1.0010  0.0519
  521MOL0     H70304   9.964   8.142   7.232 -2.6558  1.4616 -1.0320
  521MOL0     H70305  10.130   8.131   6.976  0.9649 -1.9727 -0.1801
  521MOL0     H70306   9.965   8.064   6.966  0.8715 -0.6593 -0.4894
  521MOL0     H70307  10.129   7.904   6.992 -2.8443  2.1722 -2.7524
  521MOL0     H70308  10.019   7.900   7.134  0.3814 -1.6740 -0.1795
  521MOL0     H70309  10.284   8.042   7.147  1.5682 -0.7252  0.6357
  521MOL0     H70310  10.165   8.012   7.278  1.3423  0.5924  1.4727
  521MOL0     H70311  10.337   7.858   7.310 -2.3171  1.7137 -0.1545
  521MOL0     H70312  10.342   7.802   7.140 -0.4470 -1.7698 -0.0820
  521MOL0     H70313  10.120   7.700   7.175 -0.4361 -0.5749  0.1365
  521MOL0     H70314  10.256   7.642   7.275 -1.4639 -1.2224  0.5708
  521MOL0     H70315   9.556   8.560   6.952 -0.3592  1.9309  2.2959
  521MOL0     H70316   9.308   8.577   6.967  1.5704 -0.2011 -0.8290
  521MOL0     H70317   8.929   8.327   7.054  1.5238  0.5490  1.2697
  521MOL0     H70318   8.678   8.325   7.070  1.5623 -2.8765  1.9798
  521MOL0     H70319   7.074   8.497   6.799  0.0570 -1.2421  1.1281
  521MOL0     H70320   6.843   8.589   6.833  0.9540  1.4389 -0.3880
  521MOL0     H70321   6.516   8.711   6.800 -0.2001 -1.5541  0.4142
  521MOL0     H70322   6.324   8.846   6.861  0.2594  1.8935 -1.4619
  521MOL0     H70323   5.937   8.731   6.677  0.2570 -0.5391  1.3014
  521MOL0     H70324   5.981   8.857   6.564  1.4164 -2.3602 -0.1822
  521MOL0     H70325   5.785   8.958   6.682 -1.5546 -1.8251  1.7319
  521MOL0     H70326   5.926   9.026   6.749  0.3946 -0.2366  0.1742
  521MOL0     H70327   5.934   8.871   6.933  1.8558  0.7317 -2.8272
  521MOL0     H70328   5.787   8.788   6.899 -0.9541 -0.0450  1.0221
  521MOL0     H70329   5.739   8.975   7.054  3.0317  0.1376  0.4526
  521MOL0     H70330   5.788   9.093   6.932  2.7536 -1.9102  2.4890
  521MOL0     H70331   5.405   8.932   6.806  1.0072 -1.5674  0.8213
  521MOL0     H70332   6.107   8.657   6.529 -0.7080  1.4149 -0.9764
  521MOL0     H70333   6.171   8.489   6.428 -0.1206 -1.9945 -1.0165
  521MOL0     H70334   6.332   8.486   6.363 -2.0733 -0.0285 -2.0414
  521MOL0     H70335   6.294   8.388   6.494  0.6046  0.0817 -0.5212
  522MOL0     O70336   7.626   4.189  10.539  0.1805  0.5173  0.5352
  522MOL0     C70337   7.642   4.078  10.481 -0.6205 -0.4831  0.6466
  522MOL0     O70338   7.730   4.065  10.378  0.1074 -0.6917 -0.1377
  522MOL0     C70339   7.815   4.166  10.353 -0.1652 -0.1238  0.3668
  522MOL0     C70340   7.894   4.230  10.459 -0.4406 -0.3643  0.9183
  522MOL0     C70341   8.001   4.311  10.410 -0.9660  0.0652 -0.6805
  522MOL0     C70342   8.033   4.330  10.276 -0.5609  0.1922 -0.5804
  522MOL0     O70343   8.142   4.405  10.235  0.6732 -0.0451 -0.6394
  522MOL0     C70344   8.263   4.345  10.276  0.2862  0.8588  0.4410
  522MOL0     C70345   8.363   4.344  10.150  0.8664 -0.5723 -0.1420
  522MOL0     C70346   8.504   4.307  10.189 -0.3946 -0.0334  0.0316
  522MOL0     C70347   8.602   4.328  10.075 -0.7723  0.1803  0.2712
  522MOL0     C70348   8.744   4.305  10.117 -0.2320 -0.9476 -0.3661
  522MOL0     C70349   8.790   4.174  10.163 -0.1488  0.3372 -0.2586
  522MOL0     C70350   8.940   4.163  10.176 -0.8856  1.4412  0.1270
  522MOL0     C70351   8.977   4.021  10.241 -0.3688  0.0481  0.8084
  522MOL0     N70352   8.906   3.902  10.190  0.5865  0.3833 -0.9276
  522MOL0     C70353   8.818   3.823  10.272  0.5154 -0.9006  0.3505
  522MOL0     C70354   8.779   3.727  10.179 -0.1017 -0.4075 -0.8771
  522MOL0     C70355   8.688   3.611  10.207  1.2758  0.1437  0.3852
  522MOL0     C70356   8.752   3.467  10.210  0.1802 -0.6340 -0.6686
  522MOL0     C70357   8.818   3.454  10.348 -0.8156  0.7056  0.2781
  522MOL0     C70358   8.876   3.319  10.366  0.5753 -0.5851 -0.1010
  522MOL0     O70359   8.937   3.318  10.488  0.5088  0.6458  0.0541
  522MOL0     C70360   9.069   3.344  10.515  0.4481  0.7388  0.5068
  522MOL0     C70361   9.168   3.404  10.429 -0.2732  0.6455  0.1501
  522MOL0     C70362   9.293   3.431  10.471 -0.0251  0.0250  0.2039
  522MOL0     C70363   9.334   3.416  10.609 -0.4766  0.4664 -0.3283
  522MOL0     C70364   9.463   3.451  10.669 -0.2025 -0.3437 -1.0396
  522MOL0     O70365   9.469   3.431  10.808  0.7696 -0.2347 -0.8387
  522MOL0     C70366   9.578   3.462  10.887 -0.3079 -0.3899  0.0037
  522MOL0     C70367   9.582   3.386  11.007  0.1917 -0.3221 -0.8641
  522MOL0     C70368   9.677   3.400  11.111 -0.6512 -0.7380 -0.6057
  522MOL0     C70369   9.765   3.519  11.101  0.2963 -0.4686 -0.2624
  522MOL0     O70370   9.857   3.533  11.193 -0.2227 -0.0614  1.1522
  522MOL0     C70371   9.971   3.610  11.157 -0.6034  0.0210  0.1551
  522MOL0     C70372  10.070   3.599  11.265  0.2486  0.3063  0.1719
  522MOL0     C70373  10.205   3.646  11.214  0.8394  0.9472 -0.5129
  522MOL0     C70374  10.307   3.597  11.321 -0.4887 -0.0895 -0.1825
  522MOL0     C70375  10.453   3.616  11.273 -0.6385 -0.8715 -0.3550
  522MOL0     C70376  10.552   3.576  11.381  0.5535  1.0247  0.2912
  522MOL0     C70377  10.699   3.594  11.335 -0.5661 -0.1690  0.3271
  522MOL0     C70378  10.795   3.514  11.422  0.4788 -0.2388 -0.5795
  522MOL0    Cl70379  10.950   3.592  11.422 -0.4394  0.1801  0.1044
  522MOL0     C70380   9.759   3.593  10.982  1.1441  0.7110 -0.4035
  522MOL0     C70381   9.669   3.568  10.879 -0.5930  0.7677 -0.4255
  522MOL0     O70382   9.552   3.498  10.599  0.0671 -0.1935  0.1401
  522MOL0     C70383   9.230   3.362  10.691  0.5498  0.1580 -0.3570
  522MOL0     C70384   9.101   3.333  10.646 -0.1893  0.0966  0.3827
  522MOL0     N70385   8.835   3.757  10.057 -0.2983  0.2849  0.0767
  522MOL0     N70386   8.908   3.861  10.055  0.1061  0.4585 -0.9849
  522MOL0     C70387   7.967   4.250  10.185  0.4145  1.4783  0.5434
  522MOL0     C70388   7.864   4.165  10.224  1.0700 -0.1560  0.7129
  522MOL0     C70389   7.549   3.968  10.511  0.4053 -0.1881 -0.3256
  522MOL0     C70390   7.454   3.982  10.616  0.6305  0.4534  1.3636
  522MOL0     C70391   7.357   3.880  10.639  0.2988 -0.8114  0.3714
  522MOL0     C70392   7.364   3.758  10.575  0.9577 -0.0887 -0.4738
  522MOL0     O70393   7.294   3.645  10.594 -1.0993 -0.0234 -0.5543
  522MOL0     C70394   7.325   3.588  10.722  0.1579  0.1380 -0.1507
  522MOL0     C70395   7.321   3.435  10.718 -1.3881 -0.0599 -0.1232
  522MOL0     C70396   7.184   3.379  10.700  0.9096  0.7011  0.6758
  522MOL0     C70397   7.131   3.270  10.802 -0.4463 -0.0573 -0.2595
  522MOL0     C70398   7.127   3.322  10.939 -0.2379  0.3921  1.1784
  522MOL0     C70399   7.141   3.373  11.046  0.6916  0.5441  0.5754
  522MOL0     C70400   7.469   3.741  10.479  0.1220  0.5095  0.3498
  522MOL0     C70401   7.562   3.839  10.449 -0.0408 -0.0635  0.5307
  522MOL0     C70402   7.665   3.804  10.341  0.0510 -0.0182 -0.1242
  522MOL0     H70403   7.868   4.212  10.562  0.2095 -1.1514  0.9588
  522MOL0     H70404   8.065   4.358  10.484 -1.7485 -1.2564  0.9038
  522MOL0     H70405   8.304   4.409  10.355  2.0372  0.8532 -0.4144
  522MOL0     H70406   8.250   4.242  10.313  0.2439  0.9832  0.7755
  522MOL0     H70407   8.366   4.444  10.105 -0.1654  0.4850  2.0112
  522MOL0     H70408   8.329   4.272  10.075  2.8278  2.0895 -3.9243
  522MOL0     H70409   8.509   4.205  10.227  0.8211  0.0895  0.2595
  522MOL0     H70410   8.532   4.373  10.272 -0.2872 -2.3649  1.9433
  522MOL0     H70411   8.581   4.252   9.998  1.9178 -1.7425  1.2841
  522MOL0     H70412   8.586   4.428  10.033 -0.3292 -0.6754 -2.1017
  522MOL0     H70413   8.805   4.342  10.034  0.3934  0.2760  0.6038
  522MOL0     H70414   8.761   4.371  10.203  0.2857 -4.2354  2.2515
  522MOL0     H70415   8.737   4.129  10.247 -0.4337 -0.3910 -0.8141
  522MOL0     H70416   8.755   4.102  10.088 -0.5071 -1.1898  1.3080
  522MOL0     H70417   8.977   4.246  10.237 -0.9869  2.1801 -0.8013
  522MOL0     H70418   8.994   4.171  10.081 -0.4674 -1.3475  0.0251
  522MOL0     H70419   9.086   4.013  10.241 -0.2180  1.6873  0.1760
  522MOL0     H70420   8.947   4.036  10.345 -2.3252  1.9356  0.0588
  522MOL0     H70421   8.778   3.831  10.372  0.4481  0.8119  0.2212
  522MOL0     H70422   8.629   3.631  10.297  2.7469 -2.3432  2.0256
  522MOL0     H70423   8.609   3.605  10.132  0.1344 -2.2722  1.6565
  522MOL0     H70424   8.685   3.381  10.198  1.0877 -1.2326 -1.6980
  522MOL0     H70425   8.820   3.459  10.125 -0.3488  1.0979 -1.3071
  522MOL0     H70426   8.760   3.490  10.434 -0.4448 -0.1014  0.8787
  522MOL0     H70427   8.907   3.516  10.339  0.6188 -1.1843  0.9623
  522MOL0     H70428   8.943   3.301  10.282  0.8314 -1.4144  0.2675
  522MOL0     H70429   8.807   3.234  10.364  1.8354 -1.7737  2.4201
  522MOL0     H70430   9.138   3.426  10.327 -0.5575 -1.3550 -0.2334
  522MOL0     H70431   9.362   3.483  10.404  0.1058 -1.7312 -1.1098
  522MOL0     H70432   9.518   3.301  11.025  0.5262 -0.5777 -0.8885
  522MOL0     H70433   9.661   3.329  11.191  0.0652 -1.9416 -1.4969
  522MOL0     H70434  10.021   3.574  11.066  0.4600  0.3838  0.5749
  522MOL0     H70435   9.949   3.715  11.136  1.9820  0.8363  1.0788
  522MOL0     H70436  10.042   3.659  11.352 -0.1451  4.9742 -2.8400
  522MOL0     H70437  10.075   3.494  11.293  2.1216  0.5630  0.9710
  522MOL0     H70438  10.221   3.599  11.116  2.1228 -1.8706  0.9314
  522MOL0     H70439  10.198   3.755  11.211 -1.5244  1.1409  3.7050
  522MOL0     H70440  10.295   3.491  11.347 -1.7902 -0.4729 -2.1060
  522MOL0     H70441  10.315   3.656  11.412 -1.5305  1.9780 -1.3445
  522MOL0     H70442  10.472   3.717  11.237 -2.7218 -0.2218  0.2495
  522MOL0     H70443  10.459   3.549  11.186 -1.4012  0.2720 -1.3273
  522MOL0     H70444  10.540   3.627  11.478  2.9915 -2.4459  2.6693
  522MOL0     H70445  10.535   3.473  11.415  1.9885  0.4310 -0.6955
  522MOL0     H70446  10.727   3.699  11.351  3.2058 -0.6971 -1.6869
  522MOL0     H70447  10.719   3.572  11.230  2.4116  0.4907  0.6438
  522MOL0     H70448  10.754   3.510  11.524  2.2506  3.6065  0.4327
  522MOL0     H70449  10.808   3.415  11.377  0.8024 -0.1148 -0.7610
  522MOL0     H70450   9.824   3.678  10.961  1.5749  0.6072  0.4752
  522MOL0     H70451   9.673   3.625  10.786 -0.9531 -0.7832 -1.4251
  522MOL0     H70452   9.250   3.330  10.792  1.2802  0.8238 -0.2779
  522MOL0     H70453   9.023   3.293  10.710  1.0419 -1.6299  0.8873
  522MOL0     H70454   8.001   4.255  10.082  2.1386 -0.7455  0.9246
  522MOL0     H70455   7.834   4.089  10.152  2.7236 -1.3302  1.1879
  522MOL0     H70456   7.453   4.075  10.673  1.7606  1.3241  0.0240
  522MOL0     H70457   7.269   3.878  10.703  0.9738  1.0001  1.4459
  522MOL0     H70458   7.250   3.621  10.795  1.2317 -0.7349  1.3943
  522MOL0     H70459   7.423   3.618  10.760 -0.3892  2.4086 -0.3888
  522MOL0     H70460   7.373   3.391  10.803 -2.1496  1.7510  1.3589
  522MOL0     H70461   7.372   3.424  10.621 -0.5986  1.5304  0.0804
  522MOL0     H70462   7.183   3.330  10.602 -2.1664  0.1545  0.8846
  522MOL0     H70463   7.116   3.465  10.699  2.4910  2.0480 -1.9765
  522MOL0     H70464   7.032   3.232  10.778 -0.7934 -0.7954  2.0742
  522MOL0     H70465   7.203   3.188  10.795  2.9444  2.5580  0.9910
  522MOL0     H70466   7.155   3.417  11.143 -0.7658  1.6350  0.3319
  522MOL0     H70467   7.486   3.652  10.420  1.3095  1.7557 -1.2912
  522MOL0     H70468   7.668   3.696  10.320 -1.4368  0.2512 -1.9596
  522MOL0     H70469   7.650   3.860  10.249 -0.1426 -1.1586 -0.8025
  522MOL0     H70470   7.770   3.818  10.367 -0.1560 -0.0415  0.7608
  523MOL0     O70471   2.202   5.248   4.719 -0.2405 -0.0165  0.3778
  523MOL0     C70472   2.155   5.287   4.824  0.1373 -0.2935  0.0209
  523MOL0     O70473   2.217   5.367   4.914 -0.7268 -0.3740 -0.5906
  523MOL0     C70474   2.351   5.411   4.897 -0.5191 -0.1354  0.4214
  523MOL0     C70475   2.461   5.316   4.890  0.8126  0.1881  0.7557
  523MOL0     C70476   2.594   5.355   4.878  0.0401 -0.7603 -0.7633
  523MOL0     C70477   2.629   5.489   4.870 -0.4780 -0.5355  0.2100
  523MOL0     O70478   2.761   5.518   4.858  0.1918 -0.0132  0.0414
  523MOL0     C70479   2.812   5.641   4.906 -0.4676  0.4077  0.0616
  523MOL0     C70480   2.960   5.648   4.879 -0.3552 -0.5794 -0.2989
  523MOL0     C70481   3.035   5.539   4.959  0.2285 -0.1675  0.3148
  523MOL0     C70482   3.171   5.517   4.870 -0.1257  0.7772 -0.2651
  523MOL0     C70483   3.282   5.457   4.946  0.5571 -0.2840 -0.4537
  523MOL0     C70484   3.424   5.458   4.889 -0.1414 -0.4858 -0.2884
  523MOL0     C70485   3.435   5.340   4.795 -0.9179  0.7997  0.4239
  523MOL0     C70486   3.568   5.338   4.709  0.4632 -0.3163 -0.0680
  523MOL0     N70487   3.674   5.260   4.775 -0.0497 -0.5097 -0.5277
  523MOL0     C70488   3.661   5.129   4.811 -0.2122 -0.9969 -0.9961
  523MOL0     C70489   3.789   5.088   4.831  0.6077 -0.2431 -0.3629
  523MOL0     C70490   3.821   4.945   4.858  0.1750 -0.2665 -0.1257
  523MOL0     C70491   3.976   4.932   4.879 -0.0576 -0.3757  0.5253
  523MOL0     C70492   4.011   4.785   4.895 -1.0087 -0.0604  0.0991
  523MOL0     C70493   4.174   4.757   4.891  0.3510 -0.0330  0.0474
  523MOL0     O70494   4.229   4.781   4.760  0.0450 -0.6990 -0.3638
  523MOL0     C70495   4.360   4.744   4.743 -0.1039  0.4789 -0.2888
  523MOL0     C70496   4.401   4.739   4.611  0.0191 -0.5402 -0.0276
  523MOL0     C70497   4.530   4.705   4.577  0.2634 -0.7596 -0.1375
  523MOL0     C70498   4.618   4.667   4.673  0.0768  0.7651 -0.3570
  523MOL0     C70499   4.753   4.616   4.642 -0.2368  0.1037  0.0344
  523MOL0     O70500   4.851   4.640   4.738  0.7389  0.5573 -0.0927
  523MOL0     C70501   4.977   4.595   4.708  0.0945  0.4961 -0.6217
  523MOL0     C70502   5.045   4.624   4.585  0.2635  0.6660 -0.4812
  523MOL0     C70503   5.180   4.581   4.566  0.4664 -0.4179 -0.9638
  523MOL0     C70504   5.248   4.511   4.664 -0.2563  1.0115  0.6304
  523MOL0     O70505   5.372   4.467   4.630 -0.2706  0.3101 -0.7088
  523MOL0     C70506   5.480   4.516   4.720  0.1431  0.0117  0.5040
  523MOL0     C70507   5.611   4.451   4.680  0.3463 -0.0894  1.3679
  523MOL0     C70508   5.732   4.511   4.748  0.8202  0.3843 -0.2122
  523MOL0     C70509   5.870   4.504   4.686 -0.3327  1.0680 -0.0665
  523MOL0     C70510   5.968   4.584   4.768  0.2903  0.1811  0.0068
  523MOL0     C70511   6.109   4.554   4.739 -0.0176 -0.4594 -0.0688
  523MOL0     C70512   6.199   4.636   4.834  0.5580  0.5168 -0.1314
  523MOL0     C70513   6.253   4.768   4.777 -0.0993  0.3514  0.2128
  523MOL0    Cl70514   6.129   4.868   4.690  0.0870 -0.2488 -0.2280
  523MOL0     C70515   5.187   4.480   4.788 -0.1778  0.3682  0.3183
  523MOL0     C70516   5.055   4.524   4.803 -0.6037  0.5112  0.2763
  523MOL0     O70517   4.766   4.549   4.540 -0.3165 -0.1623 -0.0190
  523MOL0     C70518   4.582   4.681   4.812 -0.7163  0.3742 -0.3216
  523MOL0     C70519   4.456   4.719   4.845 -0.5911 -0.4353  0.2048
  523MOL0     N70520   3.877   5.187   4.827  0.2042  1.1002 -0.4359
  523MOL0     N70521   3.807   5.294   4.788  0.1396  0.3577  0.5739
  523MOL0     C70522   2.526   5.588   4.884 -0.4293  0.4732  0.6370
  523MOL0     C70523   2.399   5.544   4.886  1.0093 -0.5651  0.2943
  523MOL0     C70524   2.013   5.253   4.843 -0.1179  0.1148 -1.3781
  523MOL0     C70525   1.924   5.311   4.757 -0.8111  0.5089 -0.5144
  523MOL0     C70526   1.792   5.274   4.757 -0.3235  0.3033  0.4386
  523MOL0     C70527   1.740   5.182   4.857 -0.3587 -0.0841 -1.0765
  523MOL0     O70528   1.608   5.165   4.850  0.5536 -0.3545 -0.3783
  523MOL0     C70529   1.549   5.064   4.940 -0.1041 -0.1119  0.2817
  523MOL0     C70530   1.397   5.045   4.905  0.9357  0.1576 -0.0051
  523MOL0     C70531   1.309   5.167   4.960  0.9843  0.8132  0.3679
  523MOL0     C70532   1.314   5.300   4.880  0.0221  0.7536  0.4440
  523MOL0     C70533   1.233   5.275   4.760 -0.4470  0.0570 -0.7885
  523MOL0     C70534   1.170   5.257   4.663  0.4158  0.8034  0.0806
  523MOL0     C70535   1.835   5.127   4.948  0.6480 -0.2112  0.4471
  523MOL0     C70536   1.967   5.172   4.946  0.5705  0.4225 -0.1596
  523MOL0     C70537   2.063   5.123   5.046 -0.4366 -0.2550  0.3714
  523MOL0     H70538   2.448   5.208   4.886 -0.9734  0.3589  1.4323
  523MOL0     H70539   2.674   5.282   4.879 -0.3778 -1.2314  0.8045
  523MOL0     H70540   2.767   5.726   4.854 -0.0984  1.4891  1.4494
  523MOL0     H70541   2.793   5.655   5.013 -0.6098  0.2175  0.0607
  523MOL0     H70542   3.002   5.742   4.915  1.5408  0.1266 -3.9181
  523MOL0     H70543   2.985   5.641   4.773  2.3662 -1.0511  0.2911
  523MOL0     H70544   2.971   5.451   4.970 -2.1569  1.6280  1.7309
  523MOL0     H70545   3.056   5.574   5.061 -1.5284 -1.8250  1.3047
  523MOL0     H70546   3.147   5.465   4.777 -0.9510 -1.8198  1.2988
  523MOL0     H70547   3.203   5.618   4.843  0.6484  0.1865 -1.6346
  523MOL0     H70548   3.278   5.512   5.041  1.6747  0.5652 -0.8801
  523MOL0     H70549   3.257   5.352   4.966  2.9927 -0.6664  1.0261
  523MOL0     H70550   3.443   5.553   4.838 -0.9013 -0.3051 -0.2374
  523MOL0     H70551   3.497   5.441   4.969 -0.3595 -5.0691 -0.8152
  523MOL0     H70552   3.357   5.340   4.718  0.7606 -1.7467 -1.4425
  523MOL0     H70553   3.414   5.242   4.839  2.1037 -0.2689 -0.2294
  523MOL0     H70554   3.545   5.289   4.613  0.6424 -1.3524  0.4048
  523MOL0     H70555   3.598   5.441   4.689  1.5381 -0.3441  1.3162
  523MOL0     H70556   3.575   5.065   4.828  0.7637 -1.9103  0.7925
  523MOL0     H70557   3.758   4.910   4.940 -2.7196  1.4108 -1.4889
  523MOL0     H70558   3.797   4.887   4.769  1.7546 -0.3134 -0.5385
  523MOL0     H70559   4.014   4.972   4.785  0.7685 -1.5409  0.3344
  523MOL0     H70560   4.005   4.991   4.967  0.2423 -1.1181  0.9329
  523MOL0     H70561   3.962   4.731   4.814  1.5080 -4.4954  1.2081
  523MOL0     H70562   3.970   4.742   4.987 -0.8573  0.4084  0.3889
  523MOL0     H70563   4.183   4.651   4.915  4.3670  0.2211  0.3018
  523MOL0     H70564   4.221   4.818   4.969  0.0667 -3.3360  3.0504
  523MOL0     H70565   4.341   4.767   4.526  1.2224 -0.4165 -0.8593
  523MOL0     H70566   4.565   4.710   4.474 -0.0707 -1.4902 -0.2938
  523MOL0     H70567   4.986   4.675   4.510 -0.0878  0.9247 -0.0367
  523MOL0     H70568   5.231   4.599   4.472 -0.1800 -0.7476 -1.3877
  523MOL0     H70569   5.487   4.625   4.723  1.7768  0.0610 -1.8704
  523MOL0     H70570   5.454   4.488   4.822 -2.2309  0.1207 -0.0081
  523MOL0     H70571   5.593   4.344   4.688  2.2888 -0.3819  2.5284
  523MOL0     H70572   5.630   4.476   4.575 -0.9784  0.0987  1.1514
  523MOL0     H70573   5.721   4.620   4.752  3.8276  0.7712  0.3433
  523MOL0     H70574   5.735   4.470   4.849 -1.1190  1.6739  0.4353
  523MOL0     H70575   5.875   4.540   4.583  0.3220 -0.8114 -0.7399
  523MOL0     H70576   5.906   4.400   4.681  0.9182  1.4979 -0.3368
  523MOL0     H70577   5.958   4.571   4.877  0.2569  0.7104  0.0695
  523MOL0     H70578   5.945   4.691   4.765 -0.1775  0.0860  0.0423
  523MOL0     H70579   6.129   4.447   4.752 -0.2358 -0.3026  1.8613
  523MOL0     H70580   6.132   4.564   4.633  0.9449  0.1218  0.1885
  523MOL0     H70581   6.294   4.586   4.851  1.4772  1.9681 -0.7864
  523MOL0     H70582   6.138   4.648   4.924 -1.8061  0.8131 -1.6730
  523MOL0     H70583   6.298   4.824   4.859 -0.1949 -1.5115  1.5786
  523MOL0     H70584   6.338   4.743   4.712 -0.0902  1.4805 -0.2316
  523MOL0     H70585   5.246   4.432   4.865  1.4726  0.4071 -0.8834
  523MOL0     H70586   5.011   4.505   4.901  0.2390 -0.7885  0.4167
  523MOL0     H70587   4.664   4.671   4.882  1.4210  0.2153 -2.7072
  523MOL0     H70588   4.441   4.722   4.952 -1.8986 -1.8183  0.0991
  523MOL0     H70589   2.540   5.694   4.870 -0.4301  0.5273  1.0547
  523MOL0     H70590   2.326   5.625   4.882  2.1671  0.4908 -0.2528
  523MOL0     H70591   1.974   5.361   4.674 -0.7821  0.2782 -0.6367
  523MOL0     H70592   1.720   5.312   4.686  0.8820  1.8643 -0.0154
  523MOL0     H70593   1.564   5.110   5.038 -0.4981 -0.3492  0.4513
  523MOL0     H70594   1.609   4.972   4.944 -0.6896 -0.6069 -1.3945
  523MOL0     H70595   1.371   4.947   4.947  2.1222 -0.5628 -0.8865
  523MOL0     H70596   1.394   5.047   4.796  0.9094  0.0472 -0.0064
  523MOL0     H70597   1.351   5.192   5.058  2.6458  1.0356 -0.3585
  523MOL0     H70598   1.206   5.130   4.967  2.0336 -2.1240  1.9388
  523MOL0     H70599   1.269   5.387   4.929 -1.1179  0.5856 -0.2597
  523MOL0     H70600   1.418   5.313   4.849 -0.3176 -2.6577 -2.8098
  523MOL0     H70601   1.121   5.239   4.569  1.2483  0.4535 -0.2990
  523MOL0     H70602   1.794   5.057   5.020  1.9091 -2.9568 -1.3623
  523MOL0     H70603   2.115   5.208   5.091 -1.4705  0.3139  0.5268
  523MOL0     H70604   2.011   5.062   5.122  1.3855 -2.3189  0.0608
  523MOL0     H70605   2.133   5.055   4.997  0.6717  0.5532  0.7907
  524MOL0     O70606   8.036   2.909   2.455  0.5487  0.2367  0.3736
  524MOL0     C70607   7.952   2.991   2.495 -0.4946  0.6452  0.2311
  524MOL0     O70608   7.981   3.104   2.568 -0.6082  0.0201  0.4226
  524MOL0     C70609   8.107   3.162   2.541  0.7240 -0.3738 -0.6411
  524MOL0     C70610   8.191   3.158   2.427  0.3789 -0.0781 -0.1778
  524MOL0     C70611   8.315   3.220   2.433  0.0804  0.1048 -0.6978
  524MOL0     C70612   8.375   3.266   2.555  0.7778 -0.3641  0.0612
  524MOL0     O70613   8.508   3.300   2.557 -0.3629 -0.6804  0.3804
  524MOL0     C70614   8.594   3.268   2.450  0.0298 -0.4902 -0.2360
  524MOL0     C70615   8.738   3.257   2.507 -0.0843  0.8673 -0.0317
  524MOL0     C70616   8.834   3.239   2.390  0.1414 -0.0398 -0.2209
  524MOL0     C70617   8.975   3.208   2.444 -0.4706  0.8572 -0.8025
  524MOL0     C70618   9.071   3.197   2.326 -0.1074 -0.1905  0.2085
  524MOL0     C70619   9.221   3.191   2.374  0.3947 -0.0072 -0.4643
  524MOL0     C70620   9.308   3.141   2.261 -0.6465 -0.1073  0.4266
  524MOL0     C70621   9.450   3.190   2.282 -0.3898 -1.2807 -0.3658
  524MOL0     N70622   9.511   3.124   2.399 -0.2291 -1.3704  0.7604
  524MOL0     C70623   9.565   3.186   2.506 -0.0976  0.3531  0.6752
  524MOL0     C70624   9.639   3.088   2.565 -0.6686  0.5098 -0.2746
  524MOL0     C70625   9.732   3.118   2.677  0.8436 -0.0950  0.2396
  524MOL0     C70626   9.875   3.146   2.646 -0.5023  0.1529  0.3388
  524MOL0     C70627   9.941   3.020   2.579 -0.3522 -0.4549 -0.3171
  524MOL0     C70628  10.099   3.038   2.574  0.0869 -0.4084 -0.0640
  524MOL0     O70629  10.148   3.006   2.705  0.5193  0.6516  0.3883
  524MOL0     C70630  10.281   3.036   2.727 -0.0949 -0.4691  0.5694
  524MOL0     C70631  10.317   3.118   2.833  0.2959  0.0164  0.2923
  524MOL0     C70632  10.448   3.154   2.857  0.5091 -0.7125  0.3532
  524MOL0     C70633  10.555   3.102   2.780 -0.6403  0.1471  0.4888
  524MOL0     C70634  10.692   3.133   2.815 -0.1659 -0.5182 -0.5304
  524MOL0     O70635  10.775   3.105   2.718 -0.5879 -0.8692  0.5075
  524MOL0     C70636  10.904   3.139   2.731 -0.4591 -0.1583 -0.6297
  524MOL0     C70637  10.946   3.258   2.689 -0.0037 -0.4497 -0.0567
  524MOL0     C70638  11.076   3.296   2.711 -0.3833  0.2398 -0.5348
  524MOL0     C70639  11.174   3.210   2.758 -0.5776  0.7631  0.5696
  524MOL0     O70640  11.298   3.269   2.766 -0.0532 -0.5018 -0.6975
  524MOL0     C70641  11.411   3.178   2.771  0.6613 -0.3664  0.5027
  524MOL0     C70642  11.530   3.283   2.770  0.9688  0.5719 -0.0178
  524MOL0     C70643  11.665   3.234   2.726 -0.1073  0.3251  0.4072
  524MOL0     C70644  11.768   3.355   2.748 -0.2857 -0.2415  0.5152
  524MOL0     C70645  11.908   3.334   2.687  0.5144 -0.4121  0.1424
  524MOL0     C70646  11.984   3.224   2.759 -0.0581  0.0281  0.1315
  524MOL0     C70647  12.057   3.288   2.884  0.4283  1.1998 -0.1561
  524MOL0     C70648  12.024   3.191   3.005 -0.6993  0.1582  0.1762
  524MOL0    Cl70649  12.098   3.035   2.978  0.1134 -0.0157  0.2307
  524MOL0     C70650  11.136   3.076   2.777  0.2863  0.7629  0.1170
  524MOL0     C70651  11.003   3.044   2.758 -0.6967  0.3585  0.0738
  524MOL0     O70652  10.718   3.203   2.919 -0.1107 -0.1192  0.1663
  524MOL0     C70653  10.521   3.029   2.665 -0.0224 -0.3760 -0.3375
  524MOL0     C70654  10.384   2.997   2.645 -0.1479  0.4993  0.3535
  524MOL0     N70655   9.652   2.974   2.485  0.8179  0.2326  0.1627
  524MOL0     N70656   9.569   3.000   2.389 -0.5987  0.0557 -0.3649
  524MOL0     C70657   8.293   3.282   2.660 -0.2912 -0.1314 -0.2711
  524MOL0     C70658   8.155   3.229   2.651  0.1378 -0.3296  0.0120
  524MOL0     C70659   7.808   2.943   2.503  0.4909  0.4743  1.3193
  524MOL0     C70660   7.709   3.041   2.529  0.6433 -0.3456  0.3520
  524MOL0     C70661   7.576   3.012   2.554  0.4062  0.7210  0.3148
  524MOL0     C70662   7.526   2.884   2.536 -0.2339 -0.6885  0.5050
  524MOL0     O70663   7.406   2.857   2.585 -0.2448 -0.2721 -0.1828
  524MOL0     C70664   7.351   2.728   2.596  0.1836 -0.5867  0.3527
  524MOL0     C70665   7.239   2.735   2.703  0.2898  1.2008 -0.2819
  524MOL0     C70666   7.126   2.824   2.659 -1.2782  0.0312  0.4931
  524MOL0     C70667   7.023   2.850   2.762 -0.2571 -0.0218 -0.3420
  524MOL0     C70668   6.953   2.971   2.726 -0.1460  0.2504  0.0040
  524MOL0     C70669   6.881   3.069   2.708  0.7901  1.0171 -0.2851
  524MOL0     C70670   7.617   2.786   2.490  0.8031 -0.5289  0.3178
  524MOL0     C70671   7.756   2.815   2.478 -1.4185 -0.1168  0.2634
  524MOL0     C70672   7.835   2.697   2.459 -0.8777  0.6270  1.4226
  524MOL0     H70673   8.155   3.110   2.337 -0.1817 -0.2660  0.1392
  524MOL0     H70674   8.367   3.212   2.338 -0.6921  2.3200 -1.3523
  524MOL0     H70675   8.566   3.182   2.388  1.2869 -0.3940 -0.9626
  524MOL0     H70676   8.589   3.355   2.384 -1.9328 -1.1904 -1.1098
  524MOL0     H70677   8.748   3.169   2.572 -1.1313  2.1573  1.9829
  524MOL0     H70678   8.756   3.340   2.576 -1.0257  1.0575 -0.0047
  524MOL0     H70679   8.839   3.326   2.325 -1.5552  0.7536  0.6471
  524MOL0     H70680   8.788   3.149   2.348 -1.0018 -1.7302  4.0829
  524MOL0     H70681   9.004   3.277   2.524  0.4704 -1.6297  1.1569
  524MOL0     H70682   8.972   3.113   2.498 -3.9094  0.6061 -1.2205
  524MOL0     H70683   9.031   3.113   2.269 -0.5103 -0.6411  1.1350
  524MOL0     H70684   9.067   3.291   2.270  3.9602  0.3949  0.5543
  524MOL0     H70685   9.246   3.292   2.408  2.7342  0.4277 -3.0834
  524MOL0     H70686   9.226   3.127   2.462  0.0127  2.8007  1.7535
  524MOL0     H70687   9.267   3.188   2.171  1.4122  0.3492 -0.3422
  524MOL0     H70688   9.315   3.033   2.251  1.1730  0.0812 -1.0393
  524MOL0     H70689   9.517   3.163   2.200 -0.7360 -2.4523 -0.2797
  524MOL0     H70690   9.444   3.299   2.291 -1.8116 -1.3049 -0.8601
  524MOL0     H70691   9.568   3.291   2.536  4.0430  0.9386 -1.0776
  524MOL0     H70692   9.694   3.207   2.727  0.9736  0.9946 -1.5340
  524MOL0     H70693   9.730   3.035   2.749  0.2564  0.9862  1.5173
  524MOL0     H70694   9.879   3.231   2.577 -2.4722  0.8183  0.9880
  524MOL0     H70695   9.926   3.173   2.740 -0.1706  3.9454 -0.7627
  524MOL0     H70696   9.904   3.006   2.477 -1.5799 -0.1552  0.0620
  524MOL0     H70697   9.905   2.939   2.644 -1.7769  1.8675  2.0130
  524MOL0     H70698  10.124   3.141   2.549 -0.2503 -0.2450  0.2670
  524MOL0     H70699  10.141   2.971   2.497 -0.8260 -1.5316  0.3772
  524MOL0     H70700  10.234   3.157   2.891 -0.1102  1.3468 -1.1314
  524MOL0     H70701  10.472   3.222   2.938  0.0911 -0.4881  0.2897
  524MOL0     H70702  10.882   3.330   2.639  2.4670  0.5739 -1.9673
  524MOL0     H70703  11.108   3.397   2.690  0.0019  0.5088  1.1672
  524MOL0     H70704  11.421   3.114   2.859  1.3738 -1.1970 -0.1683
  524MOL0     H70705  11.414   3.115   2.682 -4.5670 -1.2923  0.6417
  524MOL0     H70706  11.498   3.360   2.700 -0.5482 -2.8160 -3.4296
  524MOL0     H70707  11.545   3.316   2.873  0.5127 -1.3143  0.6967
  524MOL0     H70708  11.699   3.145   2.780 -1.2694 -0.9809 -0.9795
  524MOL0     H70709  11.666   3.203   2.622  1.2005 -0.4606  0.6218
  524MOL0     H70710  11.790   3.369   2.855 -0.5966  1.1307  0.4163
  524MOL0     H70711  11.721   3.444   2.706 -1.2234 -0.9100  0.0892
  524MOL0     H70712  11.961   3.430   2.690  0.6424 -0.4143 -1.2204
  524MOL0     H70713  11.907   3.310   2.580 -0.3756 -0.9519  0.2629
  524MOL0     H70714  11.923   3.137   2.784  1.6197 -1.5114 -0.8498
  524MOL0     H70715  12.065   3.195   2.691  1.2333 -2.6558  2.5783
  524MOL0     H70716  12.011   3.384   2.909 -1.1720  0.2526  0.6530
  524MOL0     H70717  12.164   3.299   2.862  0.9267 -0.7916  0.9788
  524MOL0     H70718  12.061   3.233   3.099 -2.4746  0.3743  0.8050
  524MOL0     H70719  11.917   3.187   3.024 -1.0901 -1.5040 -1.9892
  524MOL0     H70720  11.207   3.007   2.822 -0.0935 -1.3491 -2.3389
  524MOL0     H70721  10.955   2.947   2.765 -1.3761  0.4470 -2.3767
  524MOL0     H70722  10.591   3.003   2.586  2.9644  0.7913  1.7320
  524MOL0     H70723  10.359   2.937   2.558 -0.3573  1.3146 -0.1617
  524MOL0     H70724   8.342   3.324   2.747  0.1061  0.3453 -0.7206
  524MOL0     H70725   8.100   3.224   2.744 -1.4843  0.2933 -0.8798
  524MOL0     H70726   7.752   3.139   2.543  0.4140  0.2459 -2.5353
  524MOL0     H70727   7.510   3.089   2.592 -2.1685 -0.1028 -2.1946
  524MOL0     H70728   7.424   2.651   2.623  0.1652 -0.4551  0.7913
  524MOL0     H70729   7.312   2.689   2.502  4.0544  1.7273 -2.4843
  524MOL0     H70730   7.289   2.775   2.791 -1.0855  4.1569 -0.7183
  524MOL0     H70731   7.210   2.634   2.734  2.1737 -0.1471 -2.5121
  524MOL0     H70732   7.079   2.796   2.564 -1.7885  3.3295 -0.3592
  524MOL0     H70733   7.167   2.922   2.631 -2.3113  0.6909  1.2116
  524MOL0     H70734   6.953   2.765   2.760 -0.0089 -0.2255 -1.6323
  524MOL0     H70735   7.057   2.862   2.865  1.8917  2.0487 -1.2224
  524MOL0     H70736   6.830   3.163   2.699 -2.0653 -0.1446  2.0452
  524MOL0     H70737   7.583   2.684   2.478  0.7756 -0.5335  0.4354
  524MOL0     H70738   7.887   2.670   2.552 -1.6860 -3.8068  0.8485
  524MOL0     H70739   7.771   2.620   2.415  1.4989  0.3619 -1.9261
  524MOL0     H70740   7.916   2.704   2.386 -1.9846  0.5606  0.1682
  525MOL0     O70741   3.604   5.569   0.679  0.3272  0.3636  0.4187
  525MOL0     C70742   3.595   5.608   0.560 -0.4833  0.8552 -0.6573
  525MOL0     O70743   3.703   5.643   0.484 -0.2550  0.3266  0.0592
  525MOL0     C70744   3.823   5.595   0.527 -0.2624 -0.4127  0.1553
  525MOL0     C70745   3.929   5.684   0.544  0.1351 -0.1791  0.2722
  525MOL0     C70746   4.063   5.641   0.576 -0.3184  0.5549  0.1462
  525MOL0     C70747   4.085   5.506   0.611  1.1351  0.2912  0.7022
  525MOL0     O70748   4.213   5.460   0.643  0.1968  0.0122 -0.0288
  525MOL0     C70749   4.318   5.549   0.651 -0.5214 -0.1980  0.5510
  525MOL0     C70750   4.424   5.458   0.701  0.0125 -0.3262  0.0279
  525MOL0     C70751   4.550   5.542   0.730 -0.1971 -0.1393  0.1351
  525MOL0     C70752   4.658   5.451   0.782 -0.2523  0.3146 -0.3665
  525MOL0     C70753   4.796   5.519   0.795  0.2759 -0.4436 -0.2003
  525MOL0     C70754   4.867   5.537   0.657 -0.6920 -0.1460 -1.1268
  525MOL0     C70755   5.015   5.587   0.678 -0.3832  0.8217  0.1330
  525MOL0     C70756   5.047   5.712   0.605  0.2324  0.0905  0.1736
  525MOL0     N70757   5.179   5.759   0.659  0.4534  0.6946  0.0756
  525MOL0     C70758   5.284   5.674   0.648 -0.0582 -1.0639 -0.4090
  525MOL0     C70759   5.393   5.748   0.682  0.0533 -0.7581 -0.1630
  525MOL0     C70760   5.540   5.703   0.680 -0.0254 -0.0453  0.9109
  525MOL0     C70761   5.644   5.811   0.715 -0.3666 -0.4574  0.6314
  525MOL0     C70762   5.775   5.758   0.749  0.2324  0.1986 -0.0045
  525MOL0     C70763   5.868   5.876   0.754 -0.0447 -0.6962 -0.9966
  525MOL0     O70764   5.995   5.837   0.815  0.7968 -0.1680 -0.2278
  525MOL0     C70765   6.106   5.872   0.742  0.3397 -0.7795  0.1444
  525MOL0     C70766   6.130   5.824   0.613  0.1250  0.1578  0.3312
  525MOL0     C70767   6.245   5.854   0.536 -0.0474 -0.0940 -0.0857
  525MOL0     C70768   6.352   5.934   0.594  0.6059  0.9436 -0.3667
  525MOL0     C70769   6.480   5.963   0.527  0.0223 -0.2613 -0.0187
  525MOL0     O70770   6.581   6.022   0.600 -0.6482 -0.5465 -0.0961
  525MOL0     C70771   6.713   6.042   0.545 -0.5594  0.3571  0.1933
  525MOL0     C70772   6.737   6.071   0.409 -0.1889 -0.3329  0.9646
  525MOL0     C70773   6.864   6.068   0.355  0.0625  0.5207 -0.5705
  525MOL0     C70774   6.977   6.036   0.429 -0.1327 -0.3855  0.3153
  525MOL0     O70775   7.102   6.039   0.370 -0.3666 -0.0297 -0.3793
  525MOL0     C70776   7.225   6.002   0.438 -0.0564 -0.1039 -0.0756
  525MOL0     C70777   7.329   6.047   0.347 -0.3895  0.2061  0.2771
  525MOL0     C70778   7.456   6.010   0.411 -0.5777 -0.3929  0.3020
  525MOL0     C70779   7.575   6.048   0.322  0.5416  0.6065 -0.0354
  525MOL0     C70780   7.709   6.004   0.373 -0.9462  0.4338  0.1871
  525MOL0     C70781   7.821   6.068   0.295  0.3774 -0.6273 -0.1283
  525MOL0     C70782   7.962   6.029   0.341 -0.1491  0.4133  0.3588
  525MOL0     C70783   8.067   6.132   0.303  0.7753 -0.2655  0.4386
  525MOL0    Cl70784   8.235   6.051   0.291 -0.1696  0.2369  0.1200
  525MOL0     C70785   6.956   6.010   0.565 -0.7096  1.3319 -0.1575
  525MOL0     C70786   6.824   6.017   0.626 -0.3476 -0.2386 -0.9061
  525MOL0     O70787   6.491   5.925   0.414 -0.2257  0.2100 -0.1530
  525MOL0     C70788   6.333   5.955   0.733 -0.4911  0.8310  0.5575
  525MOL0     C70789   6.211   5.925   0.810 -0.9299 -0.6004 -0.2071
  525MOL0     N70790   5.347   5.871   0.722 -0.7718 -0.0358 -0.1409
  525MOL0     N70791   5.223   5.884   0.702  0.5706  0.3253  0.1358
  525MOL0     C70792   3.978   5.412   0.584 -0.2007 -0.2318  0.0796
  525MOL0     C70793   3.850   5.456   0.543 -0.0485 -0.4481 -0.3980
  525MOL0     C70794   3.461   5.630   0.507  0.4037  0.0027 -0.7296
  525MOL0     C70795   3.449   5.663   0.372  0.0439  0.3727  0.0381
  525MOL0     C70796   3.331   5.707   0.314  0.3144  0.1634 -0.2009
  525MOL0     C70797   3.214   5.674   0.384 -0.5921 -0.7610  0.1739
  525MOL0     O70798   3.087   5.705   0.335  0.8027  0.1895  0.4551
  525MOL0     C70799   3.060   5.764   0.197  0.0335  0.4203 -0.3483
  525MOL0     C70800   3.045   5.643   0.102  0.2324  0.1082 -0.4925
  525MOL0     C70801   2.943   5.534   0.150 -0.5523 -0.1590 -0.0608
  525MOL0     C70802   2.804   5.569   0.109  0.2053 -0.1505 -0.0328
  525MOL0     C70803   2.709   5.458   0.137  0.0248 -0.1345 -0.0343
  525MOL0     C70804   2.623   5.377   0.154 -0.2405  1.0974 -0.9589
  525MOL0     C70805   3.223   5.634   0.516  0.1409 -0.2393 -0.2468
  525MOL0     C70806   3.344   5.603   0.582 -0.8994  0.1055 -0.2833
  525MOL0     C70807   3.335   5.528   0.712 -0.3808  0.3561 -0.3138
  525MOL0     H70808   3.910   5.790   0.532  0.8420 -0.2007 -1.2684
  525MOL0     H70809   4.140   5.715   0.595 -0.8262  1.1804 -0.1784
  525MOL0     H70810   4.343   5.576   0.548 -2.7353  0.2810  0.0817
  525MOL0     H70811   4.316   5.646   0.700 -1.0632 -0.1248  0.3975
  525MOL0     H70812   4.446   5.387   0.620 -2.5158  0.9950 -1.9701
  525MOL0     H70813   4.390   5.408   0.792  0.5420  0.0767  0.4565
  525MOL0     H70814   4.523   5.617   0.805  0.0945 -1.8098  1.9953
  525MOL0     H70815   4.595   5.586   0.641  1.1364 -0.9217  0.3915
  525MOL0     H70816   4.641   5.405   0.880  0.6968 -0.0964 -0.3830
  525MOL0     H70817   4.669   5.369   0.711  2.9179 -1.5789  2.0210
  525MOL0     H70818   4.790   5.615   0.847 -2.5648 -0.6602  0.0741
  525MOL0     H70819   4.860   5.452   0.853  1.5134  1.0897  0.2579
  525MOL0     H70820   4.859   5.440   0.608 -0.5629 -0.9790  0.4427
  525MOL0     H70821   4.815   5.611   0.596  1.1231  1.3276 -0.9824
  525MOL0     H70822   5.085   5.512   0.640 -0.4465  0.5949  0.4616
  525MOL0     H70823   5.019   5.601   0.786 -0.3809  0.7284  0.1449
  525MOL0     H70824   5.057   5.686   0.499  0.8102  1.9590 -0.2840
  525MOL0     H70825   4.971   5.790   0.622  1.0629  0.7569  0.9345
  525MOL0     H70826   5.300   5.568   0.634 -1.0743 -1.3009  0.0972
  525MOL0     H70827   5.540   5.618   0.749 -4.7074 -1.3747 -0.3373
  525MOL0     H70828   5.565   5.666   0.580  1.8026 -1.0446  1.6896
  525MOL0     H70829   5.651   5.870   0.623 -0.2191 -1.9978 -0.3784
  525MOL0     H70830   5.608   5.874   0.797 -1.3076  0.3946 -0.3931
  525MOL0     H70831   5.800   5.687   0.670  1.1895  0.8712 -0.3266
  525MOL0     H70832   5.776   5.705   0.844  1.2050  4.0471  2.3575
  525MOL0     H70833   5.820   5.957   0.810 -0.0579 -1.2446 -0.1921
  525MOL0     H70834   5.881   5.918   0.654  0.3295 -1.2192 -1.1704
  525MOL0     H70835   6.064   5.745   0.579  1.3088 -0.9967  0.6060
  525MOL0     H70836   6.263   5.814   0.437  4.7604  3.5617 -1.0641
  525MOL0     H70837   6.656   6.093   0.341  0.8742 -1.2923 -0.6849
  525MOL0     H70838   6.881   6.087   0.250 -1.7249 -0.7588 -1.1386
  525MOL0     H70839   7.229   6.044   0.539  1.4005 -0.1786 -0.0759
  525MOL0     H70840   7.224   5.894   0.449 -0.5500  0.0076  1.0976
  525MOL0     H70841   7.324   6.006   0.246 -2.0734  0.3417  0.2815
  525MOL0     H70842   7.331   6.156   0.338  2.7985  0.2347  0.2267
  525MOL0     H70843   7.459   6.054   0.511  0.5346 -0.0800  0.1456
  525MOL0     H70844   7.472   5.902   0.419  0.4731 -0.1087  2.9989
  525MOL0     H70845   7.581   6.157   0.317 -1.0301  0.6852 -1.0062
  525MOL0     H70846   7.556   6.007   0.223  0.8550 -0.1930  0.2318
  525MOL0     H70847   7.723   5.896   0.371 -2.6370  0.1648  1.2408
  525MOL0     H70848   7.720   6.034   0.478 -0.7106  0.3994  0.1713
  525MOL0     H70849   7.814   6.020   0.197 -1.9723  0.7092 -0.6854
  525MOL0     H70850   7.807   6.176   0.285  0.9169 -0.5835 -0.4377
  525MOL0     H70851   7.991   5.931   0.301  0.1918  0.3061  0.8624
  525MOL0     H70852   7.952   6.014   0.449  0.8550  0.0361  0.4063
  525MOL0     H70853   8.046   6.175   0.205 -0.2006  0.3682  0.9111
  525MOL0     H70854   8.060   6.214   0.376 -0.0063  0.1634 -0.1071
  525MOL0     H70855   7.039   5.983   0.629 -0.9743 -0.6275 -0.5711
  525MOL0     H70856   6.818   6.003   0.734  1.5200 -2.9294 -1.0311
  525MOL0     H70857   6.416   6.004   0.784 -0.0068 -0.7527  1.3635
  525MOL0     H70858   6.206   5.958   0.913  1.1877  0.8759 -0.4896
  525MOL0     H70859   3.994   5.305   0.586  1.1898 -0.0633 -0.5433
  525MOL0     H70860   3.775   5.379   0.529  0.7999 -1.7564  1.8393
  525MOL0     H70861   3.529   5.662   0.298 -1.5382  2.6973 -1.8565
  525MOL0     H70862   3.334   5.732   0.208  0.9714  1.7744  0.1712
  525MOL0     H70863   3.137   5.823   0.146  0.4492  1.6376  1.5646
  525MOL0     H70864   2.965   5.819   0.192  0.0228  0.2941 -2.2283
  525MOL0     H70865   3.143   5.602   0.075  0.5661  0.1262  0.6518
  525MOL0     H70866   3.014   5.683   0.005  1.1496  3.3415  0.4342
  525MOL0     H70867   2.956   5.513   0.257  2.2189  1.4395  0.0080
  525MOL0     H70868   2.971   5.445   0.093 -1.8601 -1.2818  0.9829
  525MOL0     H70869   2.767   5.660   0.157  1.1044  0.1919  0.0352
  525MOL0     H70870   2.795   5.581   0.000  3.0141 -0.0513 -0.3174
  525MOL0     H70871   2.568   5.286   0.166  0.7714  0.7390  1.9053
  525MOL0     H70872   3.124   5.638   0.560 -0.9209  2.5192 -2.5383
  525MOL0     H70873   3.378   5.430   0.687 -0.2621  0.1816  0.5490
  525MOL0     H70874   3.400   5.569   0.790  2.0448  0.2524 -2.1703
  525MOL0     H70875   3.234   5.516   0.753 -0.4289 -0.7052 -0.7234
  526MOL0     O70876   3.534   8.571  10.847 -0.1127 -0.2712  0.2166
  526MOL0     C70877   3.490   8.475  10.785  0.2246  1.0533 -0.5095
  526MOL0     O70878   3.544   8.419  10.673 -0.5473 -0.4722  0.4183
  526MOL0     C70879   3.667   8.470  10.641  0.2756 -0.8650 -0.4690
  526MOL0     C70880   3.694   8.567  10.546 -0.2690  0.7870 -0.2919
  526MOL0     C70881   3.828   8.592  10.504  0.2435  0.0209 -0.4891
  526MOL0     C70882   3.934   8.524  10.565 -0.9984  0.0990  0.9782
  526MOL0     O70883   4.064   8.560  10.527 -0.7807 -0.2634 -0.5113
  526MOL0     C70884   4.175   8.489  10.581  0.1749  0.3730  0.0321
  526MOL0     C70885   4.297   8.532  10.504 -0.2240 -0.4427 -0.1261
  526MOL0     C70886   4.429   8.458  10.557  0.0472  0.2084 -0.3309
  526MOL0     C70887   4.419   8.310  10.529 -0.3871  0.5334  0.6382
  526MOL0     C70888   4.547   8.238  10.562 -0.1683 -0.5306  0.0770
  526MOL0     C70889   4.512   8.089  10.569 -0.5052  0.3978 -0.0995
  526MOL0     C70890   4.624   8.018  10.651 -0.1537 -0.3541 -0.2261
  526MOL0     C70891   4.609   7.864  10.648 -0.8544 -0.5849 -0.3781
  526MOL0     N70892   4.492   7.809  10.708 -0.1874 -0.1764 -0.2535
  526MOL0     C70893   4.412   7.709  10.648 -0.9883  0.4054  0.0533
  526MOL0     C70894   4.299   7.705  10.727 -0.0120  0.0277 -0.3201
  526MOL0     C70895   4.187   7.612  10.703 -0.2034 -0.1075  0.5030
  526MOL0     C70896   4.059   7.682  10.654  0.3858  0.0353  0.2147
  526MOL0     C70897   4.005   7.793  10.742 -0.5502 -0.0787 -0.1121
  526MOL0     C70898   3.853   7.815  10.706 -0.1642 -0.1842 -0.0839
  526MOL0     O70899   3.790   7.714  10.800 -0.9416 -0.6774 -0.0492
  526MOL0     C70900   3.655   7.714  10.818  0.4932 -0.4645  0.5409
  526MOL0     C70901   3.571   7.791  10.745  0.3972 -0.6717  0.0145
  526MOL0     C70902   3.437   7.793  10.767 -0.2232  0.2944  0.0739
  526MOL0     C70903   3.378   7.730  10.870 -0.5930 -0.7788  0.1741
  526MOL0     C70904   3.234   7.722  10.903  0.1875 -0.4004 -0.2995
  526MOL0     O70905   3.191   7.668  11.018  0.1564 -0.0813 -0.1658
  526MOL0     C70906   3.059   7.651  11.040  0.1152 -0.0550  0.0663
  526MOL0     C70907   3.008   7.699  11.158  0.0249  0.4874 -0.0297
  526MOL0     C70908   2.879   7.666  11.200 -1.3404 -0.7535 -0.1755
  526MOL0     C70909   2.806   7.582  11.119  1.7826  0.0946  0.6990
  526MOL0     O70910   2.672   7.548  11.142  0.1821 -0.0526 -0.3464
  526MOL0     C70911   2.600   7.552  11.266  0.2246  0.2455 -0.4128
  526MOL0     C70912   2.517   7.684  11.275  0.1914  0.0978 -0.2286
  526MOL0     C70913   2.462   7.701  11.410  0.1699 -0.0321  0.5390
  526MOL0     C70914   2.374   7.827  11.417  0.0471  0.2419 -0.6615
  526MOL0     C70915   2.325   7.859  11.558  0.4037  0.7851 -0.0508
  526MOL0     C70916   2.253   7.996  11.568 -0.1964 -0.1966  0.4455
  526MOL0     C70917   2.146   8.037  11.463  0.3405  0.1845  0.4944
  526MOL0     C70918   2.026   7.943  11.479 -1.1805  0.3407  0.2309
  526MOL0    Cl70919   1.938   7.986  11.639  0.1116  0.1614  0.2729
  526MOL0     C70920   2.847   7.539  10.997 -0.1009 -0.4981  0.0330
  526MOL0     C70921   2.976   7.573  10.960  0.2877  0.2635  0.4764
  526MOL0     O70922   3.171   7.775  10.811 -0.3041  0.0555 -0.6532
  526MOL0     C70923   3.461   7.653  10.951 -0.5120  0.2541 -0.1214
  526MOL0     C70924   3.600   7.637  10.924 -0.1535  0.0099 -0.2380
  526MOL0     N70925   4.308   7.801  10.831  0.1367  0.1724  0.9917
  526MOL0     N70926   4.420   7.863  10.811 -0.6716  0.4206 -0.5704
  526MOL0     C70927   3.911   8.433  10.664  0.2785  0.2350 -0.6469
  526MOL0     C70928   3.776   8.407  10.708 -0.0444  0.1364 -0.8048
  526MOL0     C70929   3.378   8.404  10.839 -0.4998 -0.0889 -0.0882
  526MOL0     C70930   3.303   8.305  10.768  0.2881  0.0594  0.4846
  526MOL0     C70931   3.191   8.243  10.821  0.1491  0.3892 -0.0840
  526MOL0     C70932   3.145   8.262  10.946 -0.0363  0.4343 -0.0002
  526MOL0     O70933   3.034   8.204  11.002  0.3266 -0.5285  0.0231
  526MOL0     C70934   2.971   8.091  10.939  0.3178 -0.3118  0.9250
  526MOL0     C70935   2.893   8.005  11.035 -0.2857  0.0473 -0.5718
  526MOL0     C70936   2.788   8.100  11.104  0.4864 -0.1610 -0.3701
  526MOL0     C70937   2.682   8.022  11.199  0.4249 -0.3641 -0.2899
  526MOL0     C70938   2.590   8.110  11.267 -0.1441 -0.0110  0.1758
  526MOL0     C70939   2.508   8.177  11.330 -0.2461 -0.3502 -0.6509
  526MOL0     C70940   3.216   8.354  11.021 -0.0135 -0.0282 -0.6061
  526MOL0     C70941   3.329   8.420  10.973 -0.3933 -0.0155  0.1233
  526MOL0     C70942   3.410   8.493  11.075  0.2150 -0.2404  0.4120
  526MOL0     H70943   3.612   8.613  10.494 -0.4922  1.0104  0.2515
  526MOL0     H70944   3.852   8.655  10.419  3.5925 -3.3523 -2.3903
  526MOL0     H70945   4.177   8.496  10.690  0.0721 -0.8960  0.1226
  526MOL0     H70946   4.162   8.385  10.549  0.0371  0.4469 -0.1587
  526MOL0     H70947   4.308   8.641  10.505 -0.6935 -0.2690 -3.5916
  526MOL0     H70948   4.278   8.504  10.400 -1.4431 -0.4590  0.0786
  526MOL0     H70949   4.438   8.465  10.666  2.8650 -0.4120 -0.4519
  526MOL0     H70950   4.514   8.508  10.509 -1.4601  2.9470 -0.3726
  526MOL0     H70951   4.337   8.263  10.585 -2.1825 -1.9833 -3.5782
  526MOL0     H70952   4.389   8.291  10.425  0.6630 -0.0549  0.4214
  526MOL0     H70953   4.631   8.255  10.493 -1.1568 -2.5144 -1.7380
  526MOL0     H70954   4.584   8.270  10.659 -2.1697  1.4088  0.2866
  526MOL0     H70955   4.415   8.079  10.618 -2.3840  2.1189 -3.2043
  526MOL0     H70956   4.494   8.049  10.469  0.6237  0.7250 -0.4499
  526MOL0     H70957   4.623   8.053  10.755 -0.5810 -0.1304 -0.3041
  526MOL0     H70958   4.721   8.048  10.610 -0.5887  1.4247 -0.0073
  526MOL0     H70959   4.619   7.837  10.542 -0.1107  2.9604 -1.3220
  526MOL0     H70960   4.695   7.821  10.701 -0.8905  0.4028  0.5214
  526MOL0     H70961   4.420   7.664  10.550  3.9703  1.7043 -0.3946
  526MOL0     H70962   4.213   7.535  10.631 -1.1066 -0.8741  0.9765
  526MOL0     H70963   4.160   7.554  10.791  0.9639 -2.3507 -0.5467
  526MOL0     H70964   4.086   7.718  10.554 -0.7286  0.7027  0.1375
  526MOL0     H70965   3.979   7.610  10.633  1.2848 -1.0157  0.2706
  526MOL0     H70966   4.052   7.888  10.717 -4.4780  1.5508 -2.3283
  526MOL0     H70967   4.014   7.772  10.849  1.0990 -1.1984 -0.4372
  526MOL0     H70968   3.827   7.796  10.601 -0.2546 -1.0591  0.0892
  526MOL0     H70969   3.823   7.918  10.725  1.6247  0.2666  0.4895
  526MOL0     H70970   3.609   7.848  10.661  0.8424 -0.6277  0.2442
  526MOL0     H70971   3.382   7.854  10.696 -0.1520 -0.3625 -0.5527
  526MOL0     H70972   3.064   7.776  11.211 -0.8364  0.2375  1.3045
  526MOL0     H70973   2.826   7.716  11.281 -0.9793 -1.3463  0.4305
  526MOL0     H70974   2.528   7.470  11.274 -2.1592  2.3555  1.3577
  526MOL0     H70975   2.666   7.538  11.352  1.0625  0.1656 -1.0527
  526MOL0     H70976   2.572   7.774  11.245  0.5343  1.1413  3.0952
  526MOL0     H70977   2.431   7.667  11.209  0.6802 -1.6127 -0.4728
  526MOL0     H70978   2.397   7.614  11.421 -0.1877 -0.4382 -3.4059
  526MOL0     H70979   2.540   7.705  11.486  0.4773 -0.1472  0.2287
  526MOL0     H70980   2.288   7.811  11.353  0.8214 -0.0510 -1.6519
  526MOL0     H70981   2.436   7.906  11.375  0.7603  0.7016  1.1312
  526MOL0     H70982   2.417   7.856  11.617  0.2901 -1.9122  0.1244
  526MOL0     H70983   2.261   7.778  11.595  0.8308 -0.0520 -1.0793
  526MOL0     H70984   2.216   8.007  11.670 -1.8208  0.2500 -0.1608
  526MOL0     H70985   2.335   8.068  11.557  0.0276 -0.3752  0.9341
  526MOL0     H70986   2.181   8.029  11.360 -0.5160 -1.2029  0.2865
  526MOL0     H70987   2.116   8.141  11.481  0.1493  0.2003  0.0837
  526MOL0     H70988   1.955   7.947  11.395 -1.4516  0.6811  0.4712
  526MOL0     H70989   2.056   7.838  11.472  0.0683  0.7350 -0.6218
  526MOL0     H70990   2.779   7.490  10.928  0.0971 -0.0431 -0.4997
  526MOL0     H70991   3.014   7.539  10.864  1.4377  0.3340  0.9032
  526MOL0     H70992   3.422   7.607  11.041  0.4096  1.8729  1.1600
  526MOL0     H70993   3.672   7.574  10.974  1.0411  0.3498 -1.4861
  526MOL0     H70994   3.980   8.361  10.708 -0.8788  0.1422  1.1370
  526MOL0     H70995   3.749   8.330  10.780  2.1761  1.1272  1.2266
  526MOL0     H70996   3.339   8.273  10.670  3.3155  1.1770  1.1005
  526MOL0     H70997   3.139   8.179  10.751 -1.8854  2.7566 -0.8649
  526MOL0     H70998   3.042   8.030  10.882 -0.2387  1.1725 -1.4988
  526MOL0     H70999   2.903   8.122  10.859  1.3519 -2.4858 -0.8839
  526MOL0     H71000   2.945   7.971  11.125 -3.9045  0.5664  1.9737
  526MOL0     H71001   2.847   7.919  10.985 -0.1908 -1.1413  1.2892
  526MOL0     H71002   2.726   8.147  11.026 -1.4744 -0.4187  0.9554
  526MOL0     H71003   2.831   8.175  11.170  1.1880 -1.6603  0.9454
  526MOL0     H71004   2.617   7.964  11.132  0.2568  0.9757 -1.3234
  526MOL0     H71005   2.741   7.966  11.272  2.0527 -0.4295 -1.5978
  526MOL0     H71006   2.424   8.233  11.365 -0.0648 -0.9618  0.8213
  526MOL0     H71007   3.182   8.374  11.123 -0.7635 -0.5576 -0.7432
  526MOL0     H71008   3.378   8.462  11.174 -3.7582 -0.0613 -0.6451
  526MOL0     H71009   3.514   8.466  11.052  0.5447  2.7867 -2.5172
  526MOL0     H71010   3.386   8.600  11.066 -4.3496 -0.9427  1.7651
  527MOL0     O71011   4.445  11.220   3.898  0.2110 -0.6097  0.1496
  527MOL0     C71012   4.419  11.335   3.863  0.8045 -0.1742  1.0089
  527MOL0     O71013   4.512  11.439   3.881 -0.3797  0.1586  0.2150
  527MOL0     C71014   4.642  11.410   3.918 -0.3010 -0.1655 -0.4463
  527MOL0     C71015   4.698  11.354   4.034 -0.7006 -0.2870 -0.5905
  527MOL0     C71016   4.839  11.351   4.059  0.0280  0.3089 -0.0452
  527MOL0     C71017   4.925  11.386   3.956 -0.7029 -0.1519  0.6925
  527MOL0     O71018   5.060  11.380   3.979  0.0679  0.0372  0.0592
  527MOL0     C71019   5.150  11.443   3.883  0.4029  0.3192  0.4240
  527MOL0     C71020   5.291  11.414   3.927  0.6139  0.0530  0.3187
  527MOL0     C71021   5.387  11.480   3.836  0.0126 -0.2047  0.0888
  527MOL0     C71022   5.529  11.430   3.843 -0.3120  0.3518 -0.5342
  527MOL0     C71023   5.617  11.483   3.960  0.2210 -0.1995 -0.3841
  527MOL0     C71024   5.763  11.438   3.945  0.3550 -0.5654  0.3438
  527MOL0     C71025   5.861  11.517   4.032  0.6085  0.4240  0.1317
  527MOL0     C71026   5.882  11.459   4.168 -0.0097  0.4692 -0.1853
  527MOL0     N71027   5.971  11.532   4.252  0.1966  0.4796 -0.2300
  527MOL0     C71028   5.991  11.668   4.261 -0.2989 -0.5101  0.2359
  527MOL0     C71029   6.075  11.684   4.367  0.3748  1.0727 -0.2177
  527MOL0     C71030   6.132  11.813   4.419  1.0289 -0.6261 -0.3464
  527MOL0     C71031   6.004  11.886   4.486 -0.9059  0.6618 -0.2933
  527MOL0     C71032   6.008  12.038   4.475  0.3516 -0.3927 -0.4046
  527MOL0     C71033   6.076  12.115   4.592 -0.0672  0.4570 -0.5624
  527MOL0     O71034   6.214  12.073   4.587  0.1711  0.0216  0.0302
  527MOL0     C71035   6.314  12.169   4.608 -0.7763 -0.1555 -1.3924
  527MOL0     C71036   6.443  12.119   4.593 -0.5748  0.4442 -1.0162
  527MOL0     C71037   6.560  12.197   4.619  0.2732 -0.2638  0.1647
  527MOL0     C71038   6.553  12.328   4.672 -0.1410  0.4643 -0.0616
  527MOL0     C71039   6.674  12.406   4.715 -0.9766 -0.3966  0.0962
  527MOL0     O71040   6.793  12.372   4.655  1.2812 -0.3069  0.3545
  527MOL0     C71041   6.914  12.416   4.703 -0.8866  1.0661  0.7782
  527MOL0     C71042   6.945  12.500   4.813  0.4374  0.9265 -0.0034
  527MOL0     C71043   7.073  12.540   4.840 -0.5390 -0.7117 -0.2649
  527MOL0     C71044   7.180  12.504   4.747 -0.1299  0.0173 -0.5765
  527MOL0     O71045   7.311  12.532   4.780 -0.3007 -0.6000  0.6630
  527MOL0     C71046   7.405  12.547   4.676  0.1964 -0.0990  0.9322
  527MOL0     C71047   7.516  12.634   4.727 -0.2581  0.0394 -0.9804
  527MOL0     C71048   7.628  12.637   4.624 -0.4479  0.1002 -0.3587
  527MOL0     C71049   7.735  12.740   4.653 -0.4321  0.8203 -0.2180
  527MOL0     C71050   7.813  12.760   4.531 -0.0599 -0.5469  0.2578
  527MOL0     C71051   7.917  12.879   4.545  0.4335 -0.0283  0.0410
  527MOL0     C71052   8.013  12.902   4.432 -0.6484 -0.1745  0.3216
  527MOL0     C71053   8.115  13.018   4.451 -0.9230 -0.0991 -0.1897
  527MOL0    Cl71054   8.264  13.035   4.363  0.7548  0.0045  0.3448
  527MOL0     C71055   7.155  12.426   4.635 -0.1990  0.5384  0.2873
  527MOL0     C71056   7.019  12.386   4.613  0.1775  0.8690 -0.4655
  527MOL0     O71057   6.655  12.487   4.803 -0.3655 -0.6519  0.0001
  527MOL0     C71058   6.424  12.376   4.698  0.3274  0.3792 -0.0826
  527MOL0     C71059   6.310  12.295   4.671  0.1209 -0.1453  0.0341
  527MOL0     N71060   6.094  11.554   4.416 -0.5749 -0.0274 -0.2409
  527MOL0     N71061   6.042  11.469   4.347  0.8757  0.2759  0.5769
  527MOL0     C71062   4.872  11.421   3.827 -0.2922 -0.3747  0.4058
  527MOL0     C71063   4.730  11.434   3.816  0.8083 -0.1267  0.0050
  527MOL0     C71064   4.286  11.372   3.789 -0.1232  0.2765  0.1060
  527MOL0     C71065   4.262  11.500   3.731 -0.7618  0.4218 -0.4498
  527MOL0     C71066   4.141  11.536   3.681  0.7940 -0.2275 -0.1028
  527MOL0     C71067   4.031  11.452   3.693 -0.2636  0.5136  0.7146
  527MOL0     O71068   3.911  11.495   3.631  0.3597 -0.6922  0.0762
  527MOL0     C71069   3.779  11.422   3.632 -0.6858  0.2385  0.2661
  527MOL0     C71070   3.676  11.486   3.545  0.3417 -1.1290  0.1270
  527MOL0     C71071   3.725  11.494   3.404 -0.2063 -0.1251  0.2864
  527MOL0     C71072   3.719  11.634   3.330 -0.6277  0.9772  0.5194
  527MOL0     C71073   3.582  11.680   3.298  0.8010 -0.1661 -0.2563
  527MOL0     C71074   3.467  11.722   3.270 -0.0606  0.3717  0.2163
  527MOL0     C71075   4.047  11.324   3.748  0.1217 -0.3043  0.2704
  527MOL0     C71076   4.173  11.279   3.796  0.4170 -0.7272  0.2401
  527MOL0     C71077   4.181  11.148   3.877 -0.0953  0.0004 -0.4253
  527MOL0     H71078   4.621  11.318   4.103 -0.1861 -1.8763 -0.8044
  527MOL0     H71079   4.878  11.315   4.154 -1.9482 -0.5773  0.4906
  527MOL0     H71080   5.138  11.387   3.789  1.2138 -0.0165  0.5176
  527MOL0     H71081   5.140  11.551   3.869  1.8838  0.5255  0.8437
  527MOL0     H71082   5.298  11.305   3.932 -1.5735 -0.1141  1.2091
  527MOL0     H71083   5.325  11.449   4.025  0.9964 -1.1828  0.6366
  527MOL0     H71084   5.401  11.589   3.835  0.2415 -0.2032 -1.8027
  527MOL0     H71085   5.346  11.467   3.735 -2.0488 -3.7449  1.2325
  527MOL0     H71086   5.528  11.321   3.832  1.2838  0.3071 -0.4823
  527MOL0     H71087   5.581  11.464   3.753 -0.6855 -1.7263 -1.5931
  527MOL0     H71088   5.607  11.592   3.960  0.3999 -0.1288 -2.4847
  527MOL0     H71089   5.585  11.452   4.059  1.1310  2.3038  0.7708
  527MOL0     H71090   5.770  11.335   3.980  1.0748 -1.7132 -2.8504
  527MOL0     H71091   5.781  11.433   3.838 -2.8739  0.7418 -0.3558
  527MOL0     H71092   5.815  11.616   4.045 -0.5505 -0.2200  1.2080
  527MOL0     H71093   5.961  11.511   3.987  0.4984 -1.4923  0.0916
  527MOL0     H71094   5.782  11.452   4.213 -0.3335  3.1444 -0.3395
  527MOL0     H71095   5.917  11.356   4.162 -0.9488 -0.0628  2.0873
  527MOL0     H71096   5.962  11.748   4.193  1.1661  2.3846  2.7458
  527MOL0     H71097   6.211  11.790   4.492 -0.0791  0.0632  1.1108
  527MOL0     H71098   6.164  11.867   4.330 -0.7580  0.2454 -0.4877
  527MOL0     H71099   5.912  11.845   4.442  0.0915 -0.7231 -1.1464
  527MOL0     H71100   6.001  11.864   4.593  2.3318  0.3122 -0.1774
  527MOL0     H71101   5.905  12.073   4.482 -0.8549 -3.6263 -0.3176
  527MOL0     H71102   6.045  12.078   4.380 -0.1871  1.4525  0.1189
  527MOL0     H71103   6.047  12.101   4.696  2.4073  0.8766  0.2638
  527MOL0     H71104   6.063  12.220   4.565 -0.2711  0.4499 -0.4875
  527MOL0     H71105   6.456  12.013   4.573  0.4268 -0.0068  1.6871
  527MOL0     H71106   6.659  12.156   4.599 -0.1353 -0.7517 -0.8857
  527MOL0     H71107   6.868  12.535   4.881 -1.6236 -0.1947 -1.6565
  527MOL0     H71108   7.089  12.609   4.923 -1.7348  0.6535 -1.1141
  527MOL0     H71109   7.437  12.448   4.644  3.6746  1.0290  0.4159
  527MOL0     H71110   7.372  12.589   4.581  3.6750 -1.0774 -0.9018
  527MOL0     H71111   7.475  12.735   4.736 -3.0045 -1.1504  2.0207
  527MOL0     H71112   7.553  12.598   4.824  0.3910 -1.1077 -1.6333
  527MOL0     H71113   7.670  12.536   4.623  0.1224  0.3261 -1.7496
  527MOL0     H71114   7.584  12.662   4.526  0.6880  3.0050 -0.2218
  527MOL0     H71115   7.797  12.710   4.738 -3.3713 -1.0485  1.4579
  527MOL0     H71116   7.693  12.838   4.675 -1.1363  0.7409 -1.1461
  527MOL0     H71117   7.754  12.780   4.441  1.1552 -3.0367 -1.1983
  527MOL0     H71118   7.863  12.664   4.513 -1.2516 -0.7733 -2.1678
  527MOL0     H71119   7.855  12.970   4.547  2.4482  1.4535 -1.3728
  527MOL0     H71120   7.962  12.869   4.644 -1.1897 -0.3022  0.8018
  527MOL0     H71121   7.958  12.925   4.340  0.8668 -1.7622 -1.0482
  527MOL0     H71122   8.065  12.806   4.419  0.5347  0.4020  0.6349
  527MOL0     H71123   8.067  13.116   4.450 -0.0293  0.3512 -0.2663
  527MOL0     H71124   8.148  12.999   4.554 -0.2597  2.2939  0.1009
  527MOL0     H71125   7.235  12.402   4.566  1.3626 -0.3367  2.2972
  527MOL0     H71126   6.992  12.338   4.520 -0.2020 -1.5101  0.8104
  527MOL0     H71127   6.397  12.474   4.737  0.2837 -1.3389  4.9106
  527MOL0     H71128   6.214  12.338   4.698 -1.0166 -2.4352 -0.0927
  527MOL0     H71129   4.930  11.429   3.735 -2.0197  0.5773 -0.6640
  527MOL0     H71130   4.690  11.453   3.717  0.8936 -0.9993 -0.1998
  527MOL0     H71131   4.346  11.567   3.718  0.4154 -1.1624 -1.4425
  527MOL0     H71132   4.133  11.635   3.637  0.7626  0.1031  0.6237
  527MOL0     H71133   3.747  11.417   3.737 -0.9556 -1.0305  0.1327
  527MOL0     H71134   3.787  11.318   3.599 -0.0908  0.1699  0.6064
  527MOL0     H71135   3.662  11.590   3.574  2.4790 -0.7515  0.0160
  527MOL0     H71136   3.579  11.437   3.557 -1.6000  2.5168  0.7240
  527MOL0     H71137   3.667  11.431   3.336  0.9146 -0.7497 -0.1182
  527MOL0     H71138   3.829  11.463   3.390  0.2735  1.9061 -1.2370
  527MOL0     H71139   3.762  11.714   3.393  0.9495 -0.0675  0.8252
  527MOL0     H71140   3.770  11.640   3.234 -0.5127  2.3898  0.6445
  527MOL0     H71141   3.367  11.741   3.235 -0.6110 -1.0289  0.9255
  527MOL0     H71142   3.956  11.266   3.744  0.7775 -1.2609 -1.5049
  527MOL0     H71143   4.080  11.112   3.897 -0.7794  1.4004 -1.2946
  527MOL0     H71144   4.230  11.070   3.817  0.9890  0.4820 -0.1865
  527MOL0     H71145   4.233  11.170   3.971 -2.7379  0.4748  1.0003
  528MOL0     O71146  11.028   4.466   0.622  0.0458 -0.6503  0.2859
  528MOL0     C71147  10.965   4.395   0.699  1.3450  0.4747 -0.2314
  528MOL0     O71148  11.012   4.286   0.771  0.0161 -0.4924 -0.1803
  528MOL0     C71149  11.147   4.256   0.802 -0.0479  0.5620  0.4867
  528MOL0     C71150  11.184   4.123   0.832  0.3480  0.5798  0.5564
  528MOL0     C71151  11.318   4.088   0.869  0.6476 -0.7753  0.0969
  528MOL0     C71152  11.413   4.196   0.890  0.1253  0.4984  0.4014
  528MOL0     O71153  11.537   4.160   0.947  0.1057 -0.6109  0.1976
  528MOL0     C71154  11.546   4.103   1.079 -0.0723 -0.4189  0.0426
  528MOL0     C71155  11.661   4.147   1.162 -0.1695 -0.1358  0.6675
  528MOL0     C71156  11.793   4.086   1.111  0.4088  0.5654  0.4301
  528MOL0     C71157  11.900   4.083   1.221 -0.2055  0.0777  0.1677
  528MOL0     C71158  12.022   3.994   1.189 -0.2134  0.1141  0.1946
  528MOL0     C71159  11.985   3.848   1.194  0.0786  0.2844 -0.5345
  528MOL0     C71160  11.971   3.788   1.055  0.3716  0.4888  0.5497
  528MOL0     C71161  11.974   3.633   1.054 -0.0121  0.4566 -0.4210
  528MOL0     N71162  12.101   3.573   1.106  0.3029 -0.2903  0.1244
  528MOL0     C71163  12.233   3.615   1.085  0.2504  1.2445  0.0146
  528MOL0     C71164  12.312   3.541   1.174  1.1368 -0.3270  0.4992
  528MOL0     C71165  12.458   3.546   1.187  0.3147 -0.2053 -0.4845
  528MOL0     C71166  12.496   3.678   1.255 -0.0901 -0.4243  0.0845
  528MOL0     C71167  12.643   3.686   1.282  0.6148  0.5117  0.1856
  528MOL0     C71168  12.707   3.813   1.339  0.0229 -0.1098  0.7539
  528MOL0     O71169  12.844   3.793   1.355 -0.1228  0.2189 -0.0404
  528MOL0     C71170  12.928   3.904   1.395  0.3408  0.1254 -0.1016
  528MOL0     C71171  12.894   4.043   1.373  0.7189  0.3674 -0.5284
  528MOL0     C71172  12.986   4.134   1.425 -0.2440 -0.5258 -0.2017
  528MOL0     C71173  13.118   4.100   1.466 -0.6569 -0.1004  0.0873
  528MOL0     C71174  13.220   4.189   1.524 -0.4105 -0.4959  1.0644
  528MOL0     O71175  13.322   4.132   1.591 -0.0421  0.1249  0.2127
  528MOL0     C71176  13.425   4.206   1.636  0.0975  0.2350 -0.7163
  528MOL0     C71177  13.556   4.156   1.610  0.9454 -0.7727  0.2092
  528MOL0     C71178  13.669   4.231   1.649 -0.5751 -0.5432 -0.7298
  528MOL0     C71179  13.652   4.344   1.731 -0.0159  1.0184  0.6037
  528MOL0     O71180  13.762   4.413   1.783  0.4730 -0.5376 -0.2922
  528MOL0     C71181  13.774   4.552   1.736  0.1110 -0.1566 -0.2575
  528MOL0     C71182  13.890   4.612   1.809 -1.2381  0.3637 -0.5583
  528MOL0     C71183  14.020   4.536   1.767 -0.3351  0.4873 -0.0887
  528MOL0     C71184  14.138   4.620   1.817 -0.2017  0.0846 -0.8610
  528MOL0     C71185  14.270   4.558   1.802  0.2949  0.6497  0.1659
  528MOL0     C71186  14.383   4.649   1.848  0.2593 -0.4467  0.4934
  528MOL0     C71187  14.521   4.583   1.818  0.0484  0.6886  0.0814
  528MOL0     C71188  14.638   4.672   1.841  0.3495  1.0196 -0.8402
  528MOL0    Cl71189  14.791   4.587   1.800  0.7989  0.1152  0.1266
  528MOL0     C71190  13.525   4.383   1.768 -0.5973  0.7318 -0.4865
  528MOL0     C71191  13.416   4.313   1.727  0.7917  0.4993  0.1653
  528MOL0     O71192  13.212   4.309   1.494  0.0687 -0.8170  0.7283
  528MOL0     C71193  13.153   3.970   1.454  0.5679 -0.1066 -0.6636
  528MOL0     C71194  13.056   3.870   1.429 -0.6341 -0.2455 -0.2251
  528MOL0     N71195  12.224   3.457   1.237 -0.3974 -0.0799 -0.6802
  528MOL0     N71196  12.099   3.478   1.202  0.9945  0.4338 -0.8813
  528MOL0     C71197  11.381   4.326   0.853 -0.2963  0.4381 -0.8429
  528MOL0     C71198  11.253   4.346   0.811 -0.6837 -0.4560 -0.4117
  528MOL0     C71199  10.816   4.406   0.700  0.9337  1.3601  0.7388
  528MOL0     C71200  10.732   4.289   0.729 -0.6318 -0.3513 -0.2327
  528MOL0     C71201  10.590   4.302   0.719  0.2216 -0.0497  0.2651
  528MOL0     C71202  10.525   4.414   0.656 -0.7786 -0.2151  0.2377
  528MOL0     O71203  10.389   4.421   0.623 -0.3130  0.6765  0.5546
  528MOL0     C71204  10.311   4.301   0.608  0.1955  0.6521 -0.4781
  528MOL0     C71205  10.179   4.327   0.533 -0.8010  0.2974  0.2241
  528MOL0     C71206  10.091   4.433   0.609  0.0270  0.3496  0.7562
  528MOL0     C71207  10.131   4.584   0.578  0.1646  0.6995 -0.8604
  528MOL0     C71208  10.016   4.671   0.609  0.4403  1.0269  0.4544
  528MOL0     C71209   9.924   4.737   0.644 -0.7804  0.3378  0.6119
  528MOL0     C71210  10.605   4.523   0.638 -0.2066 -0.3643  0.4578
  528MOL0     C71211  10.742   4.528   0.665  0.4673 -0.0238  0.6964
  528MOL0     C71212  10.810   4.670   0.646  0.2076  0.4755  0.3382
  528MOL0     H71213  11.107   4.047   0.821  0.2090  0.1767  3.5097
  528MOL0     H71214  11.355   3.988   0.886  1.2411 -0.3993  1.1395
  528MOL0     H71215  11.457   4.131   1.135 -0.2338 -2.0943  0.6853
  528MOL0     H71216  11.548   3.993   1.074 -2.2182 -0.4917 -0.2174
  528MOL0     H71217  11.656   4.109   1.264 -1.0974 -3.0356 -0.3800
  528MOL0     H71218  11.658   4.256   1.150  1.8237 -0.3467 -3.1783
  528MOL0     H71219  11.834   4.149   1.032  1.7021 -1.4213 -0.5643
  528MOL0     H71220  11.768   3.987   1.072 -1.5429  1.0089  0.4428
  528MOL0     H71221  11.933   4.187   1.216 -1.3077  0.3684 -3.0819
  528MOL0     H71222  11.863   4.058   1.321 -1.2130  1.6391  0.2185
  528MOL0     H71223  12.063   4.029   1.094 -0.7545 -0.3510 -0.2195
  528MOL0     H71224  12.104   4.010   1.260  2.0393 -3.5146 -1.3008
  528MOL0     H71225  12.062   3.805   1.259 -0.7635  2.2055  1.8951
  528MOL0     H71226  11.898   3.823   1.255 -0.2477 -0.3570 -1.2576
  528MOL0     H71227  12.052   3.831   0.994  0.0230 -0.9926 -1.0525
  528MOL0     H71228  11.872   3.818   1.020 -1.3425 -4.0930  0.8916
  528MOL0     H71229  11.899   3.593   1.123  1.3447  0.1724  0.9451
  528MOL0     H71230  11.952   3.596   0.954  0.5473 -0.8573 -0.0722
  528MOL0     H71231  12.274   3.701   1.031 -0.1543  0.5603 -1.4407
  528MOL0     H71232  12.488   3.460   1.247 -2.3826 -0.2954  0.8802
  528MOL0     H71233  12.508   3.544   1.090  2.2319  0.5627  0.4222
  528MOL0     H71234  12.442   3.757   1.201 -1.8095 -0.4989  1.6150
  528MOL0     H71235  12.449   3.676   1.354 -0.7878 -2.1583 -0.2532
  528MOL0     H71236  12.691   3.674   1.185  1.7145  1.5222  0.5704
  528MOL0     H71237  12.661   3.608   1.357 -1.1082 -1.4127 -1.2944
  528MOL0     H71238  12.657   3.821   1.436  1.8154  2.7240  1.5555
  528MOL0     H71239  12.679   3.897   1.275 -2.5729  0.8920  3.0374
  528MOL0     H71240  12.793   4.068   1.341 -0.2941 -3.4969 -0.8544
  528MOL0     H71241  12.944   4.231   1.448 -0.1692 -0.7898  1.1665
  528MOL0     H71242  13.566   4.069   1.547  0.9727  0.0077 -0.9078
  528MOL0     H71243  13.771   4.199   1.630  0.2895  2.0004 -0.7465
  528MOL0     H71244  13.789   4.560   1.628 -3.6007  0.1808 -0.8694
  528MOL0     H71245  13.679   4.602   1.754  0.7069  0.4252  1.4358
  528MOL0     H71246  13.884   4.720   1.789 -2.7006  0.2042 -1.0754
  528MOL0     H71247  13.876   4.602   1.917 -0.0665  2.1649 -0.1939
  528MOL0     H71248  14.027   4.437   1.814 -0.0986  0.6696  0.2639
  528MOL0     H71249  14.037   4.525   1.659  1.0001 -2.1585  0.3220
  528MOL0     H71250  14.134   4.645   1.923  0.7757 -1.6376 -0.3870
  528MOL0     H71251  14.150   4.714   1.761  1.9010  1.7678  2.1156
  528MOL0     H71252  14.288   4.534   1.697 -1.2758 -0.5762  0.1458
  528MOL0     H71253  14.277   4.467   1.863 -0.6883 -1.5592 -2.8086
  528MOL0     H71254  14.371   4.745   1.797  0.4934  0.2214  1.6652
  528MOL0     H71255  14.375   4.659   1.957 -0.3993 -0.2108  0.4326
  528MOL0     H71256  14.525   4.550   1.714 -2.0702 -0.8207  0.4274
  528MOL0     H71257  14.534   4.493   1.879  4.2133  2.1227  1.6672
  528MOL0     H71258  14.642   4.759   1.776  0.1941  1.4246 -0.3168
  528MOL0     H71259  14.645   4.705   1.946 -0.5515 -2.0820  0.3109
  528MOL0     H71260  13.519   4.469   1.835 -0.2350  0.1936  0.2490
  528MOL0     H71261  13.319   4.353   1.757  1.0532  1.9797 -0.8800
  528MOL0     H71262  13.253   3.930   1.464  0.6038  0.2816  0.7921
  528MOL0     H71263  13.089   3.766   1.434 -1.5986 -0.5064  1.7336
  528MOL0     H71264  11.452   4.409   0.850 -0.5404  0.9823  3.0941
  528MOL0     H71265  11.242   4.451   0.786  2.6301  0.1129  0.0840
  528MOL0     H71266  10.776   4.194   0.758  1.5086  0.4451 -0.6393
  528MOL0     H71267  10.538   4.208   0.729  1.7808 -1.2754 -2.0804
  528MOL0     H71268  10.275   4.272   0.707 -3.1997  0.8463 -1.5526
  528MOL0     H71269  10.374   4.222   0.565  0.2860  0.7302 -0.4926
  528MOL0     H71270  10.119   4.235   0.535 -1.4439  0.6960 -0.2949
  528MOL0     H71271  10.200   4.355   0.429 -1.2757 -0.1325  0.0056
  528MOL0     H71272  10.085   4.399   0.713 -1.8300 -4.7002 -0.6836
  528MOL0     H71273   9.994   4.419   0.559  1.6074 -0.8710 -2.2568
  528MOL0     H71274  10.222   4.605   0.634  0.9886 -1.0235 -1.4593
  528MOL0     H71275  10.164   4.605   0.475  1.4906 -0.0275 -0.6041
  528MOL0     H71276   9.855   4.815   0.671 -1.4381  0.4922 -1.3231
  528MOL0     H71277  10.548   4.611   0.608  2.0846  1.6387  1.6274
  528MOL0     H71278  10.831   4.682   0.540 -1.2200  3.4961  0.2765
  528MOL0     H71279  10.744   4.751   0.680  1.8504  2.6360 -1.3020
  528MOL0     H71280  10.900   4.681   0.707  0.3098  0.8921  0.1194
  529MOL0     O71281   2.924   5.999   4.651 -0.1522  0.7883  0.1047
  529MOL0     C71282   2.913   6.073   4.554 -0.8585 -0.2709 -0.7432
  529MOL0     O71283   3.019   6.137   4.484  0.3532  0.6052  0.3388
  529MOL0     C71284   3.133   6.096   4.542 -0.2061 -0.1966 -0.6200
  529MOL0     C71285   3.215   6.171   4.628 -0.3632 -0.3033 -0.1191
  529MOL0     C71286   3.336   6.124   4.680  0.3791 -0.2633  0.8206
  529MOL0     C71287   3.383   6.004   4.634  0.6312 -0.4797 -0.2392
  529MOL0     O71288   3.502   5.955   4.682  0.0798  0.1068  0.2613
  529MOL0     C71289   3.490   5.870   4.801 -0.3365  0.8570  0.6163
  529MOL0     C71290   3.607   5.768   4.788  0.0861  0.0353 -0.0713
  529MOL0     C71291   3.759   5.820   4.775 -0.4103  0.1028  0.7958
  529MOL0     C71292   3.848   5.709   4.732  0.3428 -0.6037 -0.3525
  529MOL0     C71293   3.847   5.686   4.579  0.9564  0.4441  0.5081
  529MOL0     C71294   3.858   5.535   4.529  0.7221  0.4346 -0.4476
  529MOL0     C71295   3.988   5.481   4.571 -0.6518  0.5499 -0.9697
  529MOL0     C71296   4.027   5.350   4.497 -0.1590 -0.2364  0.4940
  529MOL0     N71297   4.149   5.301   4.549 -0.7563 -0.0394  0.1040
  529MOL0     C71298   4.167   5.242   4.674  0.9615 -0.0596  0.6688
  529MOL0     C71299   4.293   5.200   4.677 -0.1123 -0.0739 -1.1231
  529MOL0     C71300   4.370   5.140   4.794  0.1058  0.4063 -1.2477
  529MOL0     C71301   4.507   5.081   4.756 -0.6073 -0.2628  0.0513
  529MOL0     C71302   4.615   5.183   4.719 -0.0822  0.2745 -0.5045
  529MOL0     C71303   4.741   5.105   4.670  0.7432 -0.0864 -1.3662
  529MOL0     O71304   4.819   5.034   4.769  0.5962  0.5520  0.1962
  529MOL0     C71305   4.946   5.004   4.740 -0.4334  0.2928  0.2267
  529MOL0     C71306   5.025   4.977   4.849  0.4972  0.3168 -0.6628
  529MOL0     C71307   5.160   4.945   4.827 -0.6816 -0.3374  0.6458
  529MOL0     C71308   5.216   4.927   4.704 -0.3741  0.1731 -0.2595
  529MOL0     C71309   5.360   4.909   4.676  0.5112 -0.2288  0.2800
  529MOL0     O71310   5.403   4.931   4.555 -0.3134 -0.0839  0.7285
  529MOL0     C71311   5.539   4.916   4.533 -0.1218  0.5045  0.2090
  529MOL0     C71312   5.648   4.952   4.618  0.3876  0.8358  0.3712
  529MOL0     C71313   5.780   4.913   4.577  0.3054 -0.9204 -0.5245
  529MOL0     C71314   5.808   4.847   4.459 -0.3778  0.0432  0.5906
  529MOL0     O71315   5.940   4.820   4.423 -0.2274  0.6628 -0.1989
  529MOL0     C71316   5.970   4.796   4.285  1.1596 -0.6059  0.2200
  529MOL0     C71317   6.113   4.781   4.276  0.1513 -0.3062  0.5728
  529MOL0     C71318   6.193   4.903   4.292 -0.0901 -0.1882  1.0264
  529MOL0     C71319   6.344   4.874   4.291  0.4108  0.3165 -0.0543
  529MOL0     C71320   6.441   4.982   4.343 -0.1167 -0.2628  1.2771
  529MOL0     C71321   6.427   5.022   4.485 -0.6983 -1.0402 -0.4650
  529MOL0     C71322   6.553   5.108   4.528  0.1162 -0.2011  0.1306
  529MOL0     C71323   6.547   5.146   4.680  0.9788 -0.0031  0.3340
  529MOL0    Cl71324   6.565   5.010   4.775  0.2623  0.0540  0.1974
  529MOL0     C71325   5.694   4.803   4.382 -0.4306 -0.4206  0.5969
  529MOL0     C71326   5.566   4.836   4.425  0.5326  0.0249  0.0651
  529MOL0     O71327   5.435   4.871   4.772  0.5901  0.0625 -0.0016
  529MOL0     C71328   5.138   4.951   4.590  0.0684  0.6825 -0.1248
  529MOL0     C71329   4.999   4.981   4.613  0.0097  0.2637 -0.4981
  529MOL0     N71330   4.344   5.235   4.558 -0.0286 -0.1407  0.2621
  529MOL0     N71331   4.268   5.301   4.484  0.3472  0.0465 -0.2618
  529MOL0     C71332   3.311   5.934   4.540  0.0450  0.1177  0.6082
  529MOL0     C71333   3.186   5.972   4.497 -0.9701  0.9394  0.5350
  529MOL0     C71334   2.775   6.117   4.507 -0.0577 -0.0525  0.3621
  529MOL0     C71335   2.761   6.230   4.421 -0.4751 -0.0176 -0.0781
  529MOL0     C71336   2.632   6.262   4.371 -0.0699  0.0794  1.6516
  529MOL0     C71337   2.522   6.196   4.412 -0.1184 -0.0456  0.0155
  529MOL0     O71338   2.400   6.238   4.356  0.1395  0.4955 -0.3950
  529MOL0     C71339   2.383   6.197   4.221  0.4662  0.4089  0.5913
  529MOL0     C71340   2.230   6.197   4.182  0.1852  0.3408 -0.0539
  529MOL0     C71341   2.145   6.107   4.270  0.1600 -0.0955 -0.4107
  529MOL0     C71342   2.011   6.074   4.199 -0.4927  0.5320  1.0549
  529MOL0     C71343   2.020   5.973   4.089  0.4580 -0.4974 -0.5821
  529MOL0     C71344   2.012   5.904   3.987 -0.5326  0.7949  0.8397
  529MOL0     C71345   2.529   6.087   4.492 -0.4891 -0.3603  0.5019
  529MOL0     C71346   2.652   6.044   4.543 -0.3691  0.3808 -0.0241
  529MOL0     C71347   2.659   5.935   4.644 -0.0567 -0.0870  0.1861
  529MOL0     H71348   3.184   6.272   4.652  0.2048 -0.0086 -0.6045
  529MOL0     H71349   3.384   6.192   4.748 -0.3125 -0.7702  1.8345
  529MOL0     H71350   3.497   5.938   4.887 -3.8272  1.5095  0.5620
  529MOL0     H71351   3.396   5.815   4.801  0.9335 -1.4348 -0.5343
  529MOL0     H71352   3.570   5.726   4.694 -2.0791  1.8121 -0.0984
  529MOL0     H71353   3.605   5.702   4.876 -2.2014  1.7924  1.3070
  529MOL0     H71354   3.797   5.851   4.873  1.5096 -0.2553  0.1972
  529MOL0     H71355   3.760   5.904   4.705 -1.4007 -0.2201  0.3707
  529MOL0     H71356   3.950   5.735   4.765 -0.0457 -0.7991  1.0912
  529MOL0     H71357   3.816   5.612   4.773 -2.1973 -1.0924 -3.1553
  529MOL0     H71358   3.749   5.722   4.547  0.1338 -1.1699  1.1171
  529MOL0     H71359   3.929   5.745   4.536  1.6634 -1.0007 -0.1950
  529MOL0     H71360   3.780   5.474   4.576  1.3194  0.0276  0.0505
  529MOL0     H71361   3.856   5.538   4.420 -2.5633 -0.9336 -0.5420
  529MOL0     H71362   3.977   5.453   4.676  0.2138  4.0106  0.1811
  529MOL0     H71363   4.073   5.549   4.573 -0.7134  0.8646  4.6830
  529MOL0     H71364   3.954   5.269   4.508 -3.1942  2.1461 -0.4638
  529MOL0     H71365   4.036   5.377   4.391 -0.5734 -0.4477  0.4047
  529MOL0     H71366   4.095   5.236   4.755  1.9237  0.8483  1.6378
  529MOL0     H71367   4.374   5.214   4.874 -2.1389  0.5686 -1.2290
  529MOL0     H71368   4.300   5.065   4.832  1.5562 -0.6687 -0.5990
  529MOL0     H71369   4.549   5.030   4.843  0.5189  0.5706  0.0204
  529MOL0     H71370   4.483   5.011   4.677 -0.9336  0.0538 -0.1332
  529MOL0     H71371   4.633   5.238   4.812  2.6396 -2.7659  0.9925
  529MOL0     H71372   4.577   5.251   4.643 -2.2656 -0.4610 -0.1589
  529MOL0     H71373   4.804   5.175   4.614  0.7848  0.0602 -1.1342
  529MOL0     H71374   4.714   5.033   4.592 -1.2471  0.3601 -1.1584
  529MOL0     H71375   4.978   4.979   4.946 -2.4200 -0.0499 -1.9761
  529MOL0     H71376   5.233   4.945   4.908  2.4143 -1.0782 -1.9443
  529MOL0     H71377   5.622   5.009   4.706  0.4904  0.8297  0.4058
  529MOL0     H71378   5.870   4.936   4.632  0.1619  1.1675 -1.0757
  529MOL0     H71379   5.916   4.707   4.252 -0.4930 -0.7808  3.0315
  529MOL0     H71380   5.927   4.877   4.226 -1.3649  0.1682  2.8557
  529MOL0     H71381   6.146   4.714   4.356  0.0613 -3.1461 -1.6222
  529MOL0     H71382   6.121   4.729   4.180 -3.0188 -3.0440  1.5834
  529MOL0     H71383   6.174   4.978   4.215  1.6242  1.3174  1.9843
  529MOL0     H71384   6.170   4.948   4.389 -1.2985  1.9335 -0.1695
  529MOL0     H71385   6.361   4.858   4.184 -0.8306  0.1973 -0.2477
  529MOL0     H71386   6.352   4.778   4.344 -2.3694 -0.9065 -1.6248
  529MOL0     H71387   6.434   5.068   4.276 -1.2670 -0.6239  0.9113
  529MOL0     H71388   6.542   4.941   4.335 -0.2929 -0.5580  0.4153
  529MOL0     H71389   6.338   5.085   4.486 -0.9388 -1.3834 -0.0520
  529MOL0     H71390   6.411   4.934   4.548 -1.1852 -0.7113 -0.1178
  529MOL0     H71391   6.571   5.199   4.470  2.2550  0.8127  2.2279
  529MOL0     H71392   6.637   5.040   4.510  0.4118 -0.2685  1.6704
  529MOL0     H71393   6.625   5.219   4.703 -0.1097  1.9676 -1.7963
  529MOL0     H71394   6.447   5.187   4.700 -0.2440 -3.4752  1.9780
  529MOL0     H71395   5.699   4.739   4.294  1.9212  0.8425 -0.2635
  529MOL0     H71396   5.481   4.788   4.378  0.2007 -1.0926  1.7362
  529MOL0     H71397   5.192   4.939   4.497  2.6242  0.9885  1.2278
  529MOL0     H71398   4.943   4.992   4.520 -0.0492  0.5100 -0.4348
  529MOL0     H71399   3.350   5.845   4.491  0.5169 -0.3469  1.7805
  529MOL0     H71400   3.139   5.897   4.434  2.8084 -1.1613 -0.0504
  529MOL0     H71401   2.847   6.288   4.390 -0.5686 -0.4355 -1.1504
  529MOL0     H71402   2.615   6.362   4.332  2.6093  0.5060  1.4124
  529MOL0     H71403   2.427   6.097   4.216 -3.4811 -1.7040  2.7997
  529MOL0     H71404   2.445   6.256   4.153 -1.5686  1.6883 -0.2453
  529MOL0     H71405   2.229   6.156   4.081 -0.6029  1.2899 -0.4473
  529MOL0     H71406   2.193   6.300   4.183  0.1372  0.3429  2.1073
  529MOL0     H71407   2.138   6.158   4.366  1.0352  1.2918 -1.0412
  529MOL0     H71408   2.196   6.012   4.287 -1.9093 -1.3733 -0.9487
  529MOL0     H71409   1.938   6.033   4.269  1.3026 -2.3104  1.4152
  529MOL0     H71410   1.969   6.167   4.158  3.0313  2.1166  0.6066
  529MOL0     H71411   1.992   5.849   3.897  1.5602  1.0546  0.1402
  529MOL0     H71412   2.438   6.030   4.507  0.7428 -2.6425 -0.2101
  529MOL0     H71413   2.558   5.897   4.657 -0.2369 -1.9916 -4.5020
  529MOL0     H71414   2.712   5.849   4.601 -1.1902 -0.8418  0.2772
  529MOL0     H71415   2.710   5.959   4.738 -1.2322 -2.2342  1.4400
  530MOL0     O71416   4.851   6.982   3.102 -0.3219 -0.0291 -0.0824
  530MOL0     C71417   4.792   7.087   3.068  0.3682 -0.0499 -0.6866
  530MOL0     O71418   4.832   7.169   2.975 -0.0384 -0.0315 -0.2326
  530MOL0     C71419   4.946   7.125   2.913  0.5338  0.4798 -0.2136
  530MOL0     C71420   4.940   7.029   2.815 -0.8443  0.1065 -0.7156
  530MOL0     C71421   5.062   6.972   2.755 -0.5255 -0.3947 -0.1003
  530MOL0     C71422   5.193   7.020   2.798 -0.0561 -0.8164 -0.3715
  530MOL0     O71423   5.318   6.967   2.761 -0.1615  0.1198 -0.0640
  530MOL0     C71424   5.322   6.826   2.755 -0.2172  0.8068  0.2222
  530MOL0     C71425   5.404   6.776   2.868  0.8770  0.3448 -0.2359
  530MOL0     C71426   5.545   6.830   2.868 -0.4702 -0.7770 -0.0437
  530MOL0     C71427   5.630   6.751   2.961 -0.0446  0.7315  0.2442
  530MOL0     C71428   5.779   6.803   2.979 -0.0979 -0.0155 -0.4817
  530MOL0     C71429   5.843   6.764   3.114  0.2681  0.1106 -1.0967
  530MOL0     C71430   5.999   6.776   3.100  0.0473 -0.6567 -0.0388
  530MOL0     C71431   6.053   6.917   3.062 -0.4115  0.2002  1.5234
  530MOL0     N71432   6.200   6.915   3.047  0.6500  0.6560 -0.5504
  530MOL0     C71433   6.291   6.954   3.146  0.6058  0.1867  0.0642
  530MOL0     C71434   6.410   6.960   3.087 -0.7702  0.5900 -0.5793
  530MOL0     C71435   6.529   6.994   3.170  0.4767  0.1048  0.3662
  530MOL0     C71436   6.572   7.141   3.150 -0.3220 -0.5843 -0.9605
  530MOL0     C71437   6.709   7.171   3.211  0.6807  0.7390 -0.2973
  530MOL0     C71438   6.733   7.315   3.239  0.4854 -0.8750 -0.1475
  530MOL0     O71439   6.867   7.335   3.189 -0.0563  0.1847 -0.3622
  530MOL0     C71440   6.935   7.452   3.214  0.4867  0.0724  0.1979
  530MOL0     C71441   6.892   7.557   3.295  0.0332 -0.5374  0.0119
  530MOL0     C71442   6.965   7.674   3.305  0.6642  0.8276 -0.5731
  530MOL0     C71443   7.092   7.679   3.254  0.0061 -0.8315 -0.4060
  530MOL0     C71444   7.169   7.803   3.258  0.6510  0.0805 -0.7864
  530MOL0     O71445   7.282   7.809   3.181 -0.1876 -0.2852 -0.2071
  530MOL0     C71446   7.371   7.915   3.181  0.3885  1.1746  0.5714
  530MOL0     C71447   7.327   8.050   3.203 -0.6005 -0.0497 -0.0752
  530MOL0     C71448   7.425   8.151   3.205  0.2230 -0.3277  0.3716
  530MOL0     C71449   7.560   8.122   3.174  0.8928 -0.2301 -0.0352
  530MOL0     O71450   7.640   8.235   3.168 -0.3770 -0.1438 -0.5640
  530MOL0     C71451   7.775   8.220   3.118 -0.3673 -0.1072  0.6414
  530MOL0     C71452   7.847   8.354   3.131  0.4890 -0.2376 -0.5463
  530MOL0     C71453   7.998   8.354   3.121  0.3543 -0.3486 -0.0211
  530MOL0     C71454   8.054   8.492   3.147  0.5496 -0.4718  0.6549
  530MOL0     C71455   8.207   8.488   3.121 -0.0513 -0.1979  0.1644
  530MOL0     C71456   8.265   8.628   3.134  0.0588  0.2970  0.6977
  530MOL0     C71457   8.219   8.734   3.032  0.4716  0.2586 -0.0134
  530MOL0     C71458   8.315   8.829   2.970 -0.1866  0.0341 -0.7531
  530MOL0    Cl71459   8.425   8.728   2.870 -0.4247  0.0834 -0.1333
  530MOL0     C71460   7.597   7.990   3.149 -0.2473  0.4974 -0.2703
  530MOL0     C71461   7.505   7.881   3.156 -0.0182 -0.0888 -0.3029
  530MOL0     O71462   7.123   7.897   3.325  0.2571 -0.4294  0.2678
  530MOL0     C71463   7.145   7.568   3.190  0.1574  0.3360  0.1322
  530MOL0     C71464   7.063   7.462   3.152  0.3728  0.6131 -1.2464
  530MOL0     N71465   6.400   6.915   2.956 -0.1812 -0.0876 -0.1278
  530MOL0     N71466   6.273   6.886   2.936  1.1259  0.4028  0.7350
  530MOL0     C71467   5.191   7.124   2.900  0.3374 -0.0174 -0.0786
  530MOL0     C71468   5.073   7.178   2.955  0.3362  0.8762  0.7585
  530MOL0     C71469   4.669   7.126   3.146 -0.3541  0.7111  0.0547
  530MOL0     C71470   4.637   7.263   3.145  0.0259 -0.4239  0.6674
  530MOL0     C71471   4.531   7.317   3.214  0.8159 -0.5391  0.2514
  530MOL0     C71472   4.453   7.233   3.296 -0.3598 -0.4298  0.3736
  530MOL0     O71473   4.347   7.301   3.360  1.0959 -0.0421 -0.0483
  530MOL0     C71474   4.306   7.246   3.484 -0.0151 -0.2045  0.7273
  530MOL0     C71475   4.169   7.179   3.470 -0.8063 -0.1215  0.3713
  530MOL0     C71476   4.050   7.275   3.441 -1.2108  0.2052  0.5662
  530MOL0     C71477   3.928   7.197   3.425 -0.5087  0.4321  0.3759
  530MOL0     C71478   3.822   7.299   3.435  1.2037 -0.1409 -0.2027
  530MOL0     C71479   3.740   7.391   3.454  0.1240 -0.0631 -0.5018
  530MOL0     C71480   4.476   7.092   3.294  0.8542 -0.1734 -0.2230
  530MOL0     C71481   4.589   7.043   3.223  0.3973  0.3357 -0.5612
  530MOL0     C71482   4.614   6.894   3.238 -0.2291 -0.3455 -0.0619
  530MOL0     H71483   4.839   7.008   2.780 -0.5614  0.3454 -1.7195
  530MOL0     H71484   5.049   6.901   2.674 -3.7247  3.5695 -3.5461
  530MOL0     H71485   5.226   6.776   2.769 -0.3194  1.0280  0.3094
  530MOL0     H71486   5.364   6.809   2.655 -1.6948  0.8530 -0.4348
  530MOL0     H71487   5.403   6.667   2.870  0.5425  0.3472  1.3139
  530MOL0     H71488   5.359   6.798   2.966  2.2018 -5.9231  2.2690
  530MOL0     H71489   5.542   6.934   2.902 -0.3014 -0.1228 -1.9286
  530MOL0     H71490   5.600   6.838   2.774 -0.2315 -1.7183  0.0019
  530MOL0     H71491   5.580   6.752   3.058 -1.5968  1.8918 -0.5218
  530MOL0     H71492   5.654   6.650   2.929 -0.8698 -0.6288  3.5085
  530MOL0     H71493   5.840   6.757   2.900 -0.8707 -2.8905  0.4759
  530MOL0     H71494   5.785   6.911   2.958 -0.4975 -0.2315 -1.8574
  530MOL0     H71495   5.796   6.824   3.193 -0.9070  0.5022 -2.0531
  530MOL0     H71496   5.819   6.659   3.130  1.3831 -0.1083 -0.7609
  530MOL0     H71497   6.025   6.707   3.020  1.2166  1.8476 -1.9772
  530MOL0     H71498   6.054   6.748   3.191 -3.4470 -0.9125  2.1919
  530MOL0     H71499   6.011   6.961   2.971 -1.4837 -2.1236  0.8133
  530MOL0     H71500   6.041   6.989   3.143  0.2033  0.3666  1.4711
  530MOL0     H71501   6.270   6.975   3.250  1.1022 -0.0947  0.2222
  530MOL0     H71502   6.510   6.979   3.277 -1.3401  1.5687  0.2963
  530MOL0     H71503   6.616   6.932   3.144  0.2708  0.4849 -1.3464
  530MOL0     H71504   6.576   7.176   3.046 -1.0997  2.5100 -0.0541
  530MOL0     H71505   6.499   7.211   3.191  0.1397  0.7779 -2.3381
  530MOL0     H71506   6.788   7.121   3.155 -0.2806 -0.7804 -0.3691
  530MOL0     H71507   6.699   7.119   3.306 -0.1787  3.6563  1.3411
  530MOL0     H71508   6.713   7.345   3.343 -4.9027 -1.7815 -0.6123
  530MOL0     H71509   6.658   7.381   3.195  1.4677  0.6667  0.4004
  530MOL0     H71510   6.794   7.540   3.340  0.0437 -0.2692  0.1398
  530MOL0     H71511   6.918   7.758   3.355  0.1874 -0.1641  0.7009
  530MOL0     H71512   7.222   8.073   3.211 -0.8373 -1.0033 -0.2935
  530MOL0     H71513   7.394   8.255   3.214  1.8165  0.2766 -0.8224
  530MOL0     H71514   7.831   8.145   3.175  3.4633 -0.8327 -3.4248
  530MOL0     H71515   7.767   8.183   3.015 -0.4184 -0.2360  0.6904
  530MOL0     H71516   7.804   8.407   3.046  3.2756 -0.9072 -2.4953
  530MOL0     H71517   7.820   8.396   3.229 -1.3135  1.4105 -1.6773
  530MOL0     H71518   8.040   8.290   3.200  1.1239  1.1816  0.8526
  530MOL0     H71519   8.027   8.308   3.026 -3.6059 -0.9567 -1.1091
  530MOL0     H71520   8.037   8.533   3.247 -1.5178  3.1927 -0.9877
  530MOL0     H71521   8.006   8.573   3.091  4.7601  1.3184 -0.7657
  530MOL0     H71522   8.240   8.445   3.026 -0.8487 -2.0686  0.6880
  530MOL0     H71523   8.248   8.422   3.198 -1.7623 -2.8502 -1.0485
  530MOL0     H71524   8.247   8.652   3.239  0.6777  1.2354  0.5973
  530MOL0     H71525   8.373   8.615   3.120  0.3995  1.8294  1.6596
  530MOL0     H71526   8.140   8.795   3.078 -1.7297 -1.1842 -1.6672
  530MOL0     H71527   8.160   8.690   2.952 -3.2550 -0.2591  2.7069
  530MOL0     H71528   8.261   8.902   2.909 -0.6821  1.6080  1.4788
  530MOL0     H71529   8.369   8.885   3.046 -0.9062  0.4149 -0.5170
  530MOL0     H71530   7.695   7.961   3.112  0.0722 -0.9916  1.6023
  530MOL0     H71531   7.525   7.776   3.141 -0.6628 -0.4874  1.4631
  530MOL0     H71532   7.242   7.564   3.141 -0.5758 -0.6478 -1.3207
  530MOL0     H71533   7.103   7.370   3.111 -2.2237 -1.9839  1.4738
  530MOL0     H71534   5.289   7.158   2.932 -0.2882  0.7631  1.0834
  530MOL0     H71535   5.063   7.248   3.037 -1.5575 -0.6772  1.9528
  530MOL0     H71536   4.700   7.337   3.097 -1.2243 -0.3796 -1.0098
  530MOL0     H71537   4.516   7.424   3.218 -0.6499 -0.7233  0.0681
  530MOL0     H71538   4.297   7.335   3.547  3.2386  0.3718  0.5848
  530MOL0     H71539   4.377   7.174   3.526  0.6379 -0.9991 -1.6068
  530MOL0     H71540   4.147   7.119   3.559 -2.6696 -3.8752 -2.3106
  530MOL0     H71541   4.179   7.105   3.390  1.9591 -2.3357  2.5256
  530MOL0     H71542   4.072   7.326   3.347  0.9636 -1.1518  0.2490
  530MOL0     H71543   4.046   7.344   3.525  1.7336 -0.6330  1.5399
  530MOL0     H71544   3.928   7.156   3.324  0.0537 -0.8827  0.8867
  530MOL0     H71545   3.915   7.113   3.494  0.4975 -0.1967 -0.1797
  530MOL0     H71546   3.671   7.468   3.483 -0.4669 -1.1533  1.1758
  530MOL0     H71547   4.415   7.022   3.350  0.9307  1.0578  1.4835
  530MOL0     H71548   4.649   6.857   3.141 -1.0401 -0.2921 -0.3823
  530MOL0     H71549   4.686   6.877   3.318 -0.4181  1.3141  0.5019
  530MOL0     H71550   4.516   6.855   3.268 -1.3083  1.5275 -0.9799
  531MOL0     O71551   4.916   4.849   9.758 -0.5932 -0.5775 -0.2147
  531MOL0     C71552   4.823   4.824   9.684  1.0411  1.0610  0.2284
  531MOL0     O71553   4.829   4.831   9.546  0.4475 -0.6211 -0.8388
  531MOL0     C71554   4.941   4.886   9.496  0.7274 -0.3447  0.1216
  531MOL0     C71555   4.964   5.024   9.508  0.6511  0.3667 -0.0897
  531MOL0     C71556   5.082   5.073   9.463 -0.8190 -0.1502 -0.0857
  531MOL0     C71557   5.177   4.997   9.390  0.3609  0.1258  0.2275
  531MOL0     O71558   5.289   5.058   9.334 -0.0321  0.0469 -0.7403
  531MOL0     C71559   5.403   4.980   9.283  0.5829 -0.0252  0.5150
  531MOL0     C71560   5.485   5.101   9.230  0.1901  0.3308  0.2378
  531MOL0     C71561   5.620   5.058   9.185  0.2076 -0.2697 -0.2694
  531MOL0     C71562   5.710   4.983   9.296 -0.0593 -0.8247  0.4996
  531MOL0     C71563   5.846   4.969   9.239  0.5922  0.0202 -0.3224
  531MOL0     C71564   5.942   4.929   9.343  0.0142 -0.3525 -0.5980
  531MOL0     C71565   5.982   5.033   9.444 -0.7667  0.3831  0.2238
  531MOL0     C71566   6.109   5.006   9.535 -0.6774  0.3038  0.7750
  531MOL0     N71567   6.226   4.986   9.453 -0.5125  0.2184 -0.3899
  531MOL0     C71568   6.284   5.075   9.372 -0.5423  0.4778  0.2490
  531MOL0     C71569   6.399   5.010   9.328  0.5957 -0.0078  0.4945
  531MOL0     C71570   6.492   5.070   9.227 -0.0017 -0.6879  0.0506
  531MOL0     C71571   6.594   5.168   9.299 -0.1939 -0.7143  0.7483
  531MOL0     C71572   6.663   5.250   9.187 -0.1353  0.3241  0.8694
  531MOL0     C71573   6.789   5.342   9.220  0.5449  0.7823 -0.1559
  531MOL0     O71574   6.871   5.273   9.324  0.6340 -0.2820  0.4876
  531MOL0     C71575   6.974   5.345   9.382 -0.2269 -0.1188 -0.3596
  531MOL0     C71576   7.038   5.275   9.487  0.0024 -0.0332 -0.1026
  531MOL0     C71577   7.155   5.330   9.538 -0.0026 -0.4301  0.3930
  531MOL0     C71578   7.207   5.460   9.494  0.4915 -0.8258  0.2416
  531MOL0     C71579   7.325   5.517   9.557 -0.2072  0.0186 -0.3000
  531MOL0     O71580   7.395   5.451   9.650 -0.4796  0.0265  0.2234
  531MOL0     C71581   7.509   5.502   9.705 -0.3117 -0.4400  0.3263
  531MOL0     C71582   7.628   5.430   9.679  0.0208 -0.4150 -0.9615
  531MOL0     C71583   7.746   5.467   9.737  0.6367 -0.3124  0.5681
  531MOL0     C71584   7.751   5.587   9.812 -0.3951 -0.2727 -0.2394
  531MOL0     O71585   7.866   5.638   9.869  0.0020 -0.2551  0.6903
  531MOL0     C71586   7.982   5.556   9.885 -0.8894 -0.8550 -0.6391
  531MOL0     C71587   8.101   5.655   9.913  0.8536  0.6495  0.4997
  531MOL0     C71588   8.228   5.573   9.932 -0.0026  0.2604  0.4661
  531MOL0     C71589   8.348   5.662   9.922 -0.4945 -0.2886 -0.3761
  531MOL0     C71590   8.484   5.584   9.956  0.5932  0.3830  0.6346
  531MOL0     C71591   8.618   5.657   9.957  0.6344  0.6242  0.9343
  531MOL0     C71592   8.732   5.557   9.965 -0.4438 -0.2675 -0.2378
  531MOL0     C71593   8.856   5.648   9.981  0.4626 -0.0981 -0.3135
  531MOL0    Cl71594   8.977   5.537  10.050  0.2168  0.0941  0.1712
  531MOL0     C71595   7.637   5.670   9.826  0.9212 -0.0099  0.0928
  531MOL0     C71596   7.521   5.626   9.771  0.6807  0.0465 -0.6160
  531MOL0     O71597   7.366   5.620   9.508  0.3739  0.3296 -0.3329
  531MOL0     C71598   7.136   5.529   9.397 -0.0056  1.2101  0.4958
  531MOL0     C71599   7.014   5.474   9.345 -0.4047 -0.4700  0.9381
  531MOL0     N71600   6.404   4.889   9.386 -0.2374 -0.9131  0.2491
  531MOL0     N71601   6.303   4.877   9.464  0.4740  0.2731 -0.5786
  531MOL0     C71602   5.155   4.856   9.386  0.0676  0.0079 -0.0024
  531MOL0     C71603   5.034   4.799   9.434  0.2536  0.1423 -1.6564
  531MOL0     C71604   4.691   4.782   9.730  0.1934 -0.0508  0.0627
  531MOL0     C71605   4.587   4.775   9.634  0.1967 -0.7763  0.3853
  531MOL0     C71606   4.461   4.723   9.657  0.2074  0.0757  0.3578
  531MOL0     C71607   4.431   4.688   9.787 -0.4251  0.1360 -0.4028
  531MOL0     O71608   4.309   4.634   9.798 -0.2715 -0.2446  0.3361
  531MOL0     C71609   4.266   4.555   9.909  0.3366 -0.2168 -0.0598
  531MOL0     C71610   4.125   4.502   9.878  0.2593 -0.3539  0.1167
  531MOL0     C71611   4.119   4.388   9.779 -0.4523  1.0245 -0.4595
  531MOL0     C71612   3.971   4.341   9.739  0.7691  0.2231  0.3137
  531MOL0     C71613   3.909   4.272   9.845 -0.0083  0.2327  0.1773
  531MOL0     C71614   3.857   4.199   9.929  0.5944 -0.2736 -0.3684
  531MOL0     C71615   4.526   4.686   9.889 -0.3720 -0.7713 -0.2250
  531MOL0     C71616   4.654   4.733   9.858 -0.0666 -0.3509  0.3995
  531MOL0     C71617   4.755   4.729   9.974 -0.8216 -0.1704 -0.2274
  531MOL0     H71618   4.900   5.088   9.568  1.0956  0.6121  0.1261
  531MOL0     H71619   5.091   5.180   9.482 -1.5419 -0.3601  1.6405
  531MOL0     H71620   5.455   4.928   9.364  2.9009  0.7864 -0.3510
  531MOL0     H71621   5.362   4.909   9.211 -1.9470  1.6240  0.2103
  531MOL0     H71622   5.501   5.173   9.311  0.4681 -0.5632  0.9970
  531MOL0     H71623   5.435   5.149   9.146  0.9973  3.7640  1.5532
  531MOL0     H71624   5.674   5.148   9.154 -1.7264  0.0530 -3.1425
  531MOL0     H71625   5.603   4.996   9.096 -1.0096  1.3621 -1.2232
  531MOL0     H71626   5.713   5.039   9.390  0.1316  1.5515 -0.8453
  531MOL0     H71627   5.673   4.884   9.327  0.9767 -1.3285  0.1731
  531MOL0     H71628   5.841   4.887   9.167  3.1572 -0.3342 -0.1897
  531MOL0     H71629   5.885   5.063   9.198 -2.5982  0.8975 -1.6650
  531MOL0     H71630   5.910   4.841   9.401 -0.1343 -0.4011 -0.7530
  531MOL0     H71631   6.025   4.896   9.281  0.2506 -0.1787 -0.3741
  531MOL0     H71632   5.910   5.058   9.522 -0.5782  1.6373  0.0206
  531MOL0     H71633   6.006   5.125   9.389  0.3761  0.9328  1.5734
  531MOL0     H71634   6.115   5.084   9.612 -1.8376 -1.0670  2.3212
  531MOL0     H71635   6.087   4.914   9.588 -3.7868  0.8338  0.6151
  531MOL0     H71636   6.261   5.176   9.341 -0.7593  0.2262 -0.4446
  531MOL0     H71637   6.545   4.991   9.173 -0.8426 -1.5484  0.4362
  531MOL0     H71638   6.434   5.131   9.157 -0.1620 -0.8242  0.0625
  531MOL0     H71639   6.541   5.238   9.363 -0.4271 -2.3051  2.3619
  531MOL0     H71640   6.659   5.112   9.367 -2.6470 -3.0493  1.3096
  531MOL0     H71641   6.589   5.313   9.137  0.9776 -0.1902 -1.5613
  531MOL0     H71642   6.682   5.182   9.104 -0.8109 -0.8735  1.6666
  531MOL0     H71643   6.750   5.436   9.261 -1.3390  0.7180 -1.6439
  531MOL0     H71644   6.836   5.361   9.124 -1.5896 -3.6302 -2.3972
  531MOL0     H71645   7.006   5.187   9.544  1.7471  0.8965  2.5046
  531MOL0     H71646   7.204   5.287   9.624  0.2583 -2.2624 -0.6244
  531MOL0     H71647   7.621   5.333   9.632  1.3118 -0.9232 -0.1353
  531MOL0     H71648   7.839   5.414   9.721  1.2144  0.5028  1.1908
  531MOL0     H71649   7.966   5.473   9.955  2.1697 -1.4323 -0.4711
  531MOL0     H71650   8.017   5.513   9.791  0.0344  2.9996 -2.2497
  531MOL0     H71651   8.108   5.711   9.819  0.7567  1.3898  0.9231
  531MOL0     H71652   8.089   5.711  10.006 -0.2323 -0.8419  1.2838
  531MOL0     H71653   8.213   5.527  10.030 -2.4448 -0.1510 -0.0302
  531MOL0     H71654   8.228   5.496   9.854 -5.0567  2.0407 -1.7477
  531MOL0     H71655   8.339   5.751   9.984  1.9313  0.6481 -1.2256
  531MOL0     H71656   8.370   5.693   9.820 -0.1419 -0.7205 -0.4376
  531MOL0     H71657   8.496   5.501   9.885  1.4086 -1.4097  2.7365
  531MOL0     H71658   8.457   5.529  10.046 -0.2855 -1.4354 -0.6668
  531MOL0     H71659   8.632   5.717   9.867 -2.8459  1.5628  0.8590
  531MOL0     H71660   8.618   5.722  10.045 -3.1898  1.3074  0.6132
  531MOL0     H71661   8.741   5.495   9.876  0.8180 -1.0098  0.3681
  531MOL0     H71662   8.715   5.496  10.054 -2.6613  2.0287  1.0523
  531MOL0     H71663   8.902   5.682   9.888  3.9494 -1.2082  0.8234
  531MOL0     H71664   8.837   5.732  10.048  0.5561  0.3441 -0.8323
  531MOL0     H71665   7.646   5.767   9.873  1.0154 -0.6262  1.3887
  531MOL0     H71666   7.440   5.698   9.777  0.6759 -0.0649  1.3495
  531MOL0     H71667   7.164   5.628   9.361  2.0948  1.3660  2.3524
  531MOL0     H71668   6.954   5.531   9.274 -2.0881 -1.7837  1.2187
  531MOL0     H71669   5.219   4.782   9.340 -2.0462 -2.4658  0.8069
  531MOL0     H71670   5.028   4.691   9.441 -0.7722  0.2586 -0.2981
  531MOL0     H71671   4.609   4.802   9.531 -0.2190 -0.7260  0.3090
  531MOL0     H71672   4.388   4.727   9.577 -1.4225  1.2302  1.8383
  531MOL0     H71673   4.261   4.620   9.997  1.1928  0.5493 -0.5468
  531MOL0     H71674   4.340   4.475   9.914 -2.7318 -3.2068  0.5197
  531MOL0     H71675   4.078   4.583   9.821  0.5397  1.9482  2.9102
  531MOL0     H71676   4.052   4.486   9.958  1.1635  1.2860  1.3389
  531MOL0     H71677   4.161   4.303   9.834 -1.6059  0.5417 -0.2951
  531MOL0     H71678   4.184   4.407   9.693  0.7484 -0.6570  0.0043
  531MOL0     H71679   3.917   4.424   9.694  2.1720  1.4223  0.7631
  531MOL0     H71680   3.983   4.264   9.663  2.5565  0.1670  0.5969
  531MOL0     H71681   3.813   4.135  10.003 -0.5307  1.4598  0.5239
  531MOL0     H71682   4.496   4.658   9.989  0.6268 -1.9947 -0.2462
  531MOL0     H71683   4.844   4.669   9.953  0.3632  1.4802 -0.1095
  531MOL0     H71684   4.766   4.834  10.003 -2.4272 -0.4152  1.4255
  531MOL0     H71685   4.705   4.701  10.067  0.3037  1.6848  0.9945
  532MOL0     O71686   0.530   9.711   1.962 -0.3310  0.7272  0.2712
  532MOL0     C71687   0.482   9.728   1.846  0.4130  0.1979 -0.3158
  532MOL0     O71688   0.556   9.720   1.730  0.0859 -0.4928  1.0658
  532MOL0     C71689   0.687   9.685   1.715  0.1878 -0.4349  0.3738
  532MOL0     C71690   0.724   9.643   1.582 -1.2526  0.2726 -1.0093
  532MOL0     C71691   0.858   9.605   1.548 -0.1350  0.7191 -0.0744
  532MOL0     C71692   0.959   9.599   1.651 -0.2328 -0.0231 -0.0364
  532MOL0     O71693   1.078   9.567   1.600  0.5008 -0.3816  0.3214
  532MOL0     C71694   1.183   9.510   1.677  0.8224  0.1966  0.1181
  532MOL0     C71695   1.161   9.355   1.695  0.7316 -0.8688 -0.5170
  532MOL0     C71696   1.273   9.284   1.777  0.3257 -0.2698 -0.1319
  532MOL0     C71697   1.289   9.135   1.753 -0.1255 -0.1615 -0.1373
  532MOL0     C71698   1.406   9.078   1.834  0.1273  1.0875 -0.1022
  532MOL0     C71699   1.420   8.927   1.811 -0.0856  0.6727 -0.5402
  532MOL0     C71700   1.564   8.874   1.850 -0.1871 -0.7710 -0.6159
  532MOL0     C71701   1.670   8.920   1.751 -0.7891  0.5074 -0.1126
  532MOL0     N71702   1.793   8.857   1.784 -0.1205  0.3199  0.3232
  532MOL0     C71703   1.877   8.884   1.879 -1.1691 -0.1263 -0.8875
  532MOL0     C71704   2.001   8.833   1.852  0.1115 -0.2389 -0.2617
  532MOL0     C71705   2.126   8.870   1.923  0.7918 -0.1010  0.9680
  532MOL0     C71706   2.243   8.805   1.859  0.1124 -0.2791  0.3783
  532MOL0     C71707   2.369   8.866   1.908  0.0316 -0.8618 -0.1187
  532MOL0     C71708   2.505   8.794   1.901 -0.0648  0.6208 -0.1809
  532MOL0     O71709   2.610   8.877   1.952 -0.5248 -0.3429  0.6938
  532MOL0     C71710   2.744   8.850   1.923  0.3421 -0.7823 -0.4996
  532MOL0     C71711   2.799   8.745   1.856 -0.6055 -0.4250  0.1883
  532MOL0     C71712   2.934   8.732   1.840 -0.6439  0.0005  0.7248
  532MOL0     C71713   3.022   8.830   1.869  0.1370  0.0434 -0.5823
  532MOL0     C71714   3.165   8.796   1.837  0.3151  0.7671  0.2298
  532MOL0     O71715   3.190   8.766   1.708 -0.1627  0.7362 -0.1805
  532MOL0     C71716   3.310   8.784   1.645 -0.7188 -0.8291 -0.3176
  532MOL0     C71717   3.381   8.681   1.604 -0.0228  1.0557  0.0494
  532MOL0     C71718   3.499   8.683   1.540 -0.4369 -0.1732 -0.5383
  532MOL0     C71719   3.567   8.808   1.538 -0.0078 -0.1237 -0.3569
  532MOL0     O71720   3.690   8.805   1.487 -0.5251 -0.3059 -0.3099
  532MOL0     C71721   3.705   8.788   1.342  0.0639  0.3164  0.1916
  532MOL0     C71722   3.808   8.681   1.302  0.5362 -0.4146  0.0795
  532MOL0     C71723   3.956   8.692   1.361 -0.6095 -0.2706  0.9210
  532MOL0     C71724   4.021   8.555   1.379  0.3892 -0.2807  0.4747
  532MOL0     C71725   4.016   8.517   1.525  0.0387 -0.2253 -0.9296
  532MOL0     C71726   3.987   8.362   1.540  0.0868  0.1016 -0.4994
  532MOL0     C71727   3.996   8.316   1.687 -0.4223  0.4279 -0.4952
  532MOL0     C71728   4.132   8.326   1.756 -0.0788  0.9241  0.2266
  532MOL0    Cl71729   4.236   8.192   1.691 -0.2382 -0.0179  0.1585
  532MOL0     C71730   3.513   8.917   1.597  0.2595 -0.1699  0.0931
  532MOL0     C71731   3.383   8.908   1.649 -0.1834  0.3962 -0.3128
  532MOL0     O71732   3.252   8.836   1.919  0.0476  0.4329 -0.2056
  532MOL0     C71733   2.966   8.937   1.935 -0.1829 -0.0191 -0.7943
  532MOL0     C71734   2.834   8.948   1.968  0.3062  0.0857 -0.5003
  532MOL0     N71735   1.986   8.771   1.732  0.2744 -0.4854 -0.3896
  532MOL0     N71736   1.863   8.782   1.694 -0.7198  0.0114 -0.0277
  532MOL0     C71737   0.915   9.631   1.786  0.0065 -0.2639 -0.1552
  532MOL0     C71738   0.786   9.677   1.815 -0.5899  0.6630 -0.0446
  532MOL0     C71739   0.339   9.754   1.838 -0.1984  0.4757 -0.1494
  532MOL0     C71740   0.295   9.827   1.720 -0.5047 -0.0396  0.3596
  532MOL0     C71741   0.164   9.847   1.699  0.8060 -0.2562  0.1095
  532MOL0     C71742   0.068   9.819   1.798  0.1723 -0.1063  0.3384
  532MOL0     O71743  -0.066   9.832   1.783 -0.0142 -0.2650  0.4891
  532MOL0     C71744  -0.139   9.707   1.798  0.3647  0.0526  0.1233
  532MOL0     C71745  -0.258   9.711   1.703 -0.1455  1.4528  0.4206
  532MOL0     C71746  -0.339   9.590   1.716  1.0936 -0.4339  0.4276
  532MOL0     C71747  -0.473   9.602   1.631  0.4218  0.3678 -0.3784
  532MOL0     C71748  -0.556   9.713   1.670 -0.3213 -0.9335 -0.4145
  532MOL0     C71749  -0.624   9.814   1.686  0.0634  0.4410 -0.3635
  532MOL0     C71750   0.120   9.765   1.915  0.1811  0.4399  1.0158
  532MOL0     C71751   0.252   9.724   1.938  0.2356  0.6416 -0.8374
  532MOL0     C71752   0.292   9.645   2.065 -0.2495 -0.1356 -0.0715
  532MOL0     H71753   0.637   9.644   1.517 -2.0250  1.5261 -0.0019
  532MOL0     H71754   0.881   9.588   1.444  1.5411  1.1712  0.1986
  532MOL0     H71755   1.278   9.522   1.624  0.1248 -2.6576 -1.9757
  532MOL0     H71756   1.196   9.571   1.767  1.3414  0.8378 -0.3706
  532MOL0     H71757   1.167   9.298   1.602 -1.1887  1.4658 -2.2368
  532MOL0     H71758   1.058   9.343   1.732  1.2860 -1.3759  0.9295
  532MOL0     H71759   1.257   9.304   1.884  3.3235  0.7335  0.2368
  532MOL0     H71760   1.361   9.345   1.754 -0.4909 -0.0463 -2.9923
  532MOL0     H71761   1.197   9.080   1.777 -0.1551  0.1369  0.4662
  532MOL0     H71762   1.306   9.124   1.646  0.2290  2.1984 -0.3775
  532MOL0     H71763   1.494   9.136   1.807  1.4892  0.2459  2.1911
  532MOL0     H71764   1.392   9.101   1.940  2.0511 -1.7247  0.8823
  532MOL0     H71765   1.354   8.870   1.877  0.7748  1.9330  1.5081
  532MOL0     H71766   1.402   8.894   1.708  2.7091 -2.5657 -0.1902
  532MOL0     H71767   1.556   8.765   1.855  3.2280 -1.0940  0.5429
  532MOL0     H71768   1.599   8.908   1.948  0.3350 -1.7757 -0.4364
  532MOL0     H71769   1.628   8.885   1.657 -1.8815  3.4787 -0.8329
  532MOL0     H71770   1.682   9.029   1.750 -2.5927  0.7338  0.5852
  532MOL0     H71771   1.865   8.947   1.967 -1.9892 -1.3859 -0.0652
  532MOL0     H71772   2.135   8.977   1.907 -1.3897 -0.1985 -1.5624
  532MOL0     H71773   2.128   8.846   2.030  3.0265  0.6145  1.1263
  532MOL0     H71774   2.245   8.699   1.886  1.1928 -0.1657  0.8120
  532MOL0     H71775   2.242   8.811   1.750  0.2629  2.0086  0.4487
  532MOL0     H71776   2.370   8.885   2.016  4.0220 -1.3875  0.0991
  532MOL0     H71777   2.377   8.962   1.856 -0.7365 -0.0327  1.2251
  532MOL0     H71778   2.528   8.757   1.801 -4.0930 -0.4504 -0.8659
  532MOL0     H71779   2.488   8.709   1.968  1.1935  0.2780 -0.2751
  532MOL0     H71780   2.730   8.673   1.813 -0.9046 -0.0813  0.0872
  532MOL0     H71781   2.973   8.638   1.803  0.6215  1.0970 -0.8817
  532MOL0     H71782   3.331   8.585   1.608  1.8094  0.0808  0.4433
  532MOL0     H71783   3.540   8.589   1.505 -1.5527 -0.6535 -0.5835
  532MOL0     H71784   3.612   8.771   1.286  1.0835  0.2853 -1.5931
  532MOL0     H71785   3.747   8.879   1.300  0.3761 -0.2284 -0.7193
  532MOL0     H71786   3.763   8.587   1.336 -0.7462  1.1788  3.1920
  532MOL0     H71787   3.830   8.690   1.195  1.9774 -2.2250  0.1874
  532MOL0     H71788   4.014   8.756   1.294  0.1737 -1.6350  0.2545
  532MOL0     H71789   3.962   8.746   1.455  1.9934  1.5993 -0.1946
  532MOL0     H71790   4.122   8.554   1.338 -0.7963 -2.3465 -2.8131
  532MOL0     H71791   3.959   8.484   1.323  0.2182  0.6102 -0.4886
  532MOL0     H71792   3.932   8.565   1.575  2.2798  1.5418  1.4064
  532MOL0     H71793   4.102   8.549   1.584 -2.6150  3.5267  1.3740
  532MOL0     H71794   3.886   8.329   1.514  0.5838 -0.4979 -1.7273
  532MOL0     H71795   4.065   8.303   1.491 -1.7191 -2.4147 -0.5243
  532MOL0     H71796   3.959   8.214   1.679 -2.5840  0.9916  1.4356
  532MOL0     H71797   3.929   8.385   1.737 -0.5647 -1.5608  2.2542
  532MOL0     H71798   4.188   8.419   1.738  0.0748  0.5672 -1.3057
  532MOL0     H71799   4.124   8.305   1.863  2.3732  0.8737  0.4683
  532MOL0     H71800   3.575   9.004   1.615 -0.2964  0.2504  0.0146
  532MOL0     H71801   3.344   8.992   1.705 -0.1533  0.3230 -0.1812
  532MOL0     H71802   3.028   9.017   1.974 -1.3561  0.1594  0.7919
  532MOL0     H71803   2.804   9.029   2.035  1.0057  0.3409 -0.4910
  532MOL0     H71804   0.992   9.625   1.863  0.1181  2.1069 -0.0280
  532MOL0     H71805   0.765   9.707   1.917  0.6330  1.1487  0.0830
  532MOL0     H71806   0.360   9.868   1.644 -1.4756  0.0946 -0.4136
  532MOL0     H71807   0.133   9.898   1.608 -0.7241 -1.4481 -0.0711
  532MOL0     H71808  -0.165   9.683   1.902 -1.0758 -2.0844 -0.6501
  532MOL0     H71809  -0.075   9.622   1.770  1.4117  0.8498  0.0525
  532MOL0     H71810  -0.220   9.733   1.603  0.6313 -0.3698  0.2682
  532MOL0     H71811  -0.316   9.801   1.725 -0.3860  1.8380 -1.5797
  532MOL0     H71812  -0.374   9.584   1.820 -0.6905  0.0464 -0.0936
  532MOL0     H71813  -0.277   9.505   1.685 -1.0449 -1.8964 -0.1382
  532MOL0     H71814  -0.453   9.610   1.524 -1.5005  0.7655 -0.7536
  532MOL0     H71815  -0.533   9.513   1.654 -0.4428  1.1377  0.4046
  532MOL0     H71816  -0.688   9.898   1.706  0.7018  0.5199  1.5307
  532MOL0     H71817   0.046   9.738   1.991  0.0019 -0.6863  0.4611
  532MOL0     H71818   0.342   9.716   2.132  0.1734  1.4984 -2.0269
  532MOL0     H71819   0.203   9.610   2.118 -0.1749  1.8860  1.5420
  532MOL0     H71820   0.360   9.563   2.038 -1.3212 -0.8748 -0.5900
  533MOL0     O71821   0.072   9.888   7.947 -1.3889 -0.2274 -0.7278
  533MOL0     C71822  -0.012   9.897   7.865  0.1995  0.1385 -0.0377
  533MOL0     O71823   0.011   9.892   7.732 -0.0738  0.4089  0.7090
  533MOL0     C71824   0.144   9.878   7.696  0.8425 -0.3052  0.8403
  533MOL0     C71825   0.221   9.996   7.681  1.2488  0.6364  0.3570
  533MOL0     C71826   0.358   9.983   7.648  0.0173 -0.0892  0.2516
  533MOL0     C71827   0.416   9.858   7.634 -0.2310  0.9207  0.0766
  533MOL0     O71828   0.546   9.826   7.605  0.1829  0.3897  0.0053
  533MOL0     C71829   0.638   9.935   7.621  0.5311  0.5401  0.2023
  533MOL0     C71830   0.776   9.890   7.594  0.0853  1.3656 -0.3975
  533MOL0     C71831   0.875  10.003   7.629  0.7256  1.0985 -0.1023
  533MOL0     C71832   1.012   9.945   7.611 -0.4961 -0.2723  0.1334
  533MOL0     C71833   1.112  10.045   7.681  0.2210 -0.4829 -0.3859
  533MOL0     C71834   1.255   9.993   7.649  0.0997 -0.1551 -0.3305
  533MOL0     C71835   1.366  10.048   7.736  0.3549 -0.5501 -0.1436
  533MOL0     C71836   1.391  10.196   7.719 -0.0701 -1.3692 -0.4461
  533MOL0     N71837   1.498  10.243   7.812 -0.1784  0.9196  0.3355
  533MOL0     C71838   1.517  10.235   7.949 -0.2517  0.2005  0.2588
  533MOL0     C71839   1.631  10.305   7.973 -0.6170 -0.3578 -0.6056
  533MOL0     C71840   1.690  10.331   8.107 -0.3389 -0.4600 -0.2421
  533MOL0     C71841   1.842  10.338   8.116 -0.5247 -0.4968  0.3245
  533MOL0     C71842   1.904  10.315   8.257 -0.0463  0.0693 -0.4852
  533MOL0     C71843   2.048  10.339   8.239  0.3312  0.1164  0.2875
  533MOL0     O71844   2.111  10.212   8.187 -0.4815 -0.0446 -0.1450
  533MOL0     C71845   2.246  10.184   8.206 -0.9569  0.2109  0.2531
  533MOL0     C71846   2.342  10.279   8.231  0.0896 -0.3309 -0.4592
  533MOL0     C71847   2.475  10.240   8.244 -0.0675 -0.3104 -0.1208
  533MOL0     C71848   2.503  10.105   8.252 -0.4091  0.5132 -0.5908
  533MOL0     C71849   2.634  10.062   8.301  0.0770 -0.3529  0.4472
  533MOL0     O71850   2.732  10.154   8.328  0.3203  0.0933 -0.0116
  533MOL0     C71851   2.861  10.125   8.356  0.1093 -0.5033 -0.3868
  533MOL0     C71852   2.921   9.997   8.391  0.5038 -1.0195 -0.5859
  533MOL0     C71853   3.055   9.996   8.436 -0.8150  0.4523  0.6044
  533MOL0     C71854   3.134  10.108   8.444  0.1020 -0.7714 -0.0631
  533MOL0     O71855   3.267  10.099   8.483 -0.1029  0.2110 -0.1609
  533MOL0     C71856   3.314   9.973   8.536 -1.0430  0.0704 -0.0671
  533MOL0     C71857   3.462   9.992   8.572 -0.9804  0.0280  1.5028
  533MOL0     C71858   3.523   9.855   8.622  0.6153 -0.7033  0.1363
  533MOL0     C71859   3.668   9.877   8.659  0.7577  0.2972 -0.8984
  533MOL0     C71860   3.676   9.920   8.804  0.8141  0.2549  0.0932
  533MOL0     C71861   3.818   9.964   8.848  0.3463  0.6784  0.2911
  533MOL0     C71862   3.811  10.044   8.978 -0.5267 -0.5168  0.0078
  533MOL0     C71863   3.948  10.059   9.060 -0.2182 -0.2730 -0.4441
  533MOL0    Cl71864   4.074  10.126   8.953 -0.0533 -0.1590 -0.3169
  533MOL0     C71865   3.081  10.233   8.408  0.0787 -0.2471 -0.0475
  533MOL0     C71866   2.944  10.243   8.369 -0.2474  0.6300 -0.0360
  533MOL0     O71867   2.637   9.940   8.325  0.5445  0.9153  0.4487
  533MOL0     C71868   2.403  10.014   8.214 -0.0038  0.6562 -0.0163
  533MOL0     C71869   2.274  10.049   8.191  0.0179 -0.1536 -0.5926
  533MOL0     N71870   1.684  10.360   7.854  0.3612  0.0541 -0.3738
  533MOL0     N71871   1.604  10.321   7.757  0.3276  0.7375 -0.0123
  533MOL0     C71872   0.332   9.740   7.645 -0.1074 -0.1142 -0.8238
  533MOL0     C71873   0.198   9.751   7.675 -0.0045  0.0657 -0.3697
  533MOL0     C71874  -0.155   9.900   7.912 -0.0195  0.1902  1.3840
  533MOL0     C71875  -0.177   9.897   8.049 -0.1243  0.7670 -0.2474
  533MOL0     C71876  -0.309   9.901   8.097  0.3008 -0.3365  0.1903
  533MOL0     C71877  -0.420   9.910   8.016  0.4146  1.0022 -0.4237
  533MOL0     O71878  -0.556   9.903   8.062 -0.7961 -0.2500  0.1949
  533MOL0     C71879  -0.583   9.918   8.199 -0.3963 -0.2711  0.8339
  533MOL0     C71880  -0.590  10.075   8.215  0.3865 -0.0604  0.0783
  533MOL0     C71881  -0.592  10.124   8.366  0.2525  0.0661 -1.4828
  533MOL0     C71882  -0.732  10.133   8.425  0.9445 -0.2527 -0.0694
  533MOL0     C71883  -0.818  10.021   8.394 -0.4829 -0.6902 -0.2840
  533MOL0     C71884  -0.898   9.936   8.367 -0.7222 -0.4019 -0.1374
  533MOL0     C71885  -0.400   9.908   7.881 -0.5100  1.4097  0.2938
  533MOL0     C71886  -0.268   9.901   7.824  0.1627  0.1248 -0.3569
  533MOL0     C71887  -0.266   9.899   7.677  0.0512 -0.6273 -0.2413
  533MOL0     H71888   0.176  10.095   7.680  0.4815  0.3023  0.4926
  533MOL0     H71889   0.404  10.082   7.649  0.3964 -0.0801 -3.5471
  533MOL0     H71890   0.614  10.014   7.548  3.8709  0.6740 -0.9345
  533MOL0     H71891   0.635   9.976   7.722  0.9427 -1.0666  0.8874
  533MOL0     H71892   0.777   9.867   7.487 -1.5949 -1.2122  0.0615
  533MOL0     H71893   0.793   9.800   7.653 -0.4835 -0.9789 -3.5676
  533MOL0     H71894   0.855  10.021   7.736 -0.1244 -0.5202  0.0381
  533MOL0     H71895   0.845  10.091   7.571 -1.8797  0.5364  0.2541
  533MOL0     H71896   1.017   9.838   7.632  0.6983 -0.3892 -0.6352
  533MOL0     H71897   1.029   9.960   7.504 -2.2531  4.0128  0.2636
  533MOL0     H71898   1.098  10.147   7.644  1.4896 -0.7245 -1.6302
  533MOL0     H71899   1.108  10.039   7.790  0.2313 -0.4316 -0.3828
  533MOL0     H71900   1.275   9.886   7.654  4.5362  0.5706  3.0429
  533MOL0     H71901   1.271  10.034   7.549 -0.8327 -0.0451 -0.4406
  533MOL0     H71902   1.458  10.002   7.699 -0.0530  0.2342 -2.2764
  533MOL0     H71903   1.345  10.010   7.836  0.6944 -0.3220  0.0164
  533MOL0     H71904   1.431  10.204   7.618 -1.2003  1.5384 -0.7796
  533MOL0     H71905   1.303  10.259   7.737  0.2512 -1.3665  1.3730
  533MOL0     H71906   1.454  10.176   8.015 -1.5886 -1.4305 -2.2936
  533MOL0     H71907   1.647  10.417   8.158 -0.2684 -0.7978  0.3908
  533MOL0     H71908   1.657  10.253   8.176  2.3460  2.1468  4.4362
  533MOL0     H71909   1.890  10.265   8.050  2.5066  0.7010  1.0375
  533MOL0     H71910   1.875  10.437   8.083 -1.6816 -0.0368  0.5084
  533MOL0     H71911   1.875  10.215   8.290  2.4412 -0.5133  0.1075
  533MOL0     H71912   1.861  10.383   8.332 -0.7520  0.2356 -1.0382
  533MOL0     H71913   2.090  10.356   8.339 -0.6616  0.0121  0.7352
  533MOL0     H71914   2.067  10.423   8.171 -1.9285  1.4730  1.2381
  533MOL0     H71915   2.324  10.385   8.248 -1.5451 -0.8266  1.1644
  533MOL0     H71916   2.548  10.317   8.267  0.9169 -0.1354 -3.2964
  533MOL0     H71917   2.861   9.907   8.391  0.3850 -1.1385  3.2428
  533MOL0     H71918   3.084   9.898   8.471  1.2786 -0.6623 -3.6338
  533MOL0     H71919   3.262   9.952   8.630 -0.9894 -1.7975 -0.4064
  533MOL0     H71920   3.303   9.884   8.474 -0.0599 -1.0344  1.2700
  533MOL0     H71921   3.516  10.047   8.494 -2.6418  0.8388  0.8760
  533MOL0     H71922   3.464  10.070   8.649  1.3344  0.8882  0.6671
  533MOL0     H71923   3.458   9.814   8.701 -2.0091  3.5407  0.4875
  533MOL0     H71924   3.538   9.779   8.544  1.0594 -4.1454  3.2633
  533MOL0     H71925   3.706   9.959   8.597  0.8398  1.9274  1.1869
  533MOL0     H71926   3.729   9.788   8.644  5.1632  2.5226  1.6320
  533MOL0     H71927   3.629   9.847   8.871 -0.6646 -1.8225 -2.9692
  533MOL0     H71928   3.618  10.012   8.808 -1.4751 -1.1863  2.3507
  533MOL0     H71929   3.880   9.876   8.870  0.9786  1.1739  0.5223
  533MOL0     H71930   3.863  10.016   8.764  1.0923  0.3298  0.4628
  533MOL0     H71931   3.730  10.001   9.037 -1.1337 -1.9574 -1.7627
  533MOL0     H71932   3.776  10.147   8.969  0.3428  0.1188  2.7927
  533MOL0     H71933   3.933  10.126   9.145  2.9812 -2.0168  1.6868
  533MOL0     H71934   3.976   9.964   9.105 -1.7170  0.4034  2.1360
  533MOL0     H71935   3.137  10.325   8.414  0.5939 -0.2393 -3.4006
  533MOL0     H71936   2.908  10.341   8.340 -0.0298  0.8324  0.3711
  533MOL0     H71937   2.439   9.914   8.189 -1.2889  0.4973 -1.4000
  533MOL0     H71938   2.199   9.972   8.180 -0.8233  0.5929 -0.2094
  533MOL0     H71939   0.381   9.645   7.627  0.1272  0.1669 -1.6997
  533MOL0     H71940   0.128   9.669   7.691  0.7691 -0.5674 -0.1281
  533MOL0     H71941  -0.094   9.892   8.119 -0.1085  0.5176 -0.2857
  533MOL0     H71942  -0.315   9.904   8.206 -1.6624 -2.8257  0.2395
  533MOL0     H71943  -0.512   9.873   8.268  1.2327  0.2375 -0.4527
  533MOL0     H71944  -0.685   9.880   8.213 -1.3441  1.9398  0.3547
  533MOL0     H71945  -0.681  10.102   8.161  1.1381  1.3782 -0.5369
  533MOL0     H71946  -0.503  10.127   8.172 -0.1896  0.3676 -0.5882
  533MOL0     H71947  -0.550  10.225   8.372  2.1584 -0.7727  0.8827
  533MOL0     H71948  -0.537  10.052   8.427 -0.7060  0.4598 -0.1040
  533MOL0     H71949  -0.725  10.157   8.531  1.2794  3.0446 -0.7096
  533MOL0     H71950  -0.775  10.224   8.382  0.8296  0.1860  0.9487
  533MOL0     H71951  -0.969   9.862   8.335 -2.7731  1.6376 -0.5204
  533MOL0     H71952  -0.491   9.908   7.822 -1.2755  1.0406  1.4486
  533MOL0     H71953  -0.369   9.899   7.640 -0.2676  1.7725  0.5050
  533MOL0     H71954  -0.230   9.996   7.642 -2.6636 -0.6693 -3.7159
  533MOL0     H71955  -0.197   9.823   7.638 -2.0157 -1.4066 -2.7135
  534MOL0     O71956   3.308   4.900   2.362  1.0045  0.7342  0.4013
  534MOL0     C71957   3.217   4.980   2.365 -0.6571  0.6273 -0.0910
  534MOL0     O71958   3.234   5.114   2.361  0.0091  0.6462 -0.1622
  534MOL0     C71959   3.360   5.165   2.353 -0.2107 -0.6524 -0.3365
  534MOL0     C71960   3.446   5.172   2.464  0.3477 -0.3161 -0.0303
  534MOL0     C71961   3.579   5.213   2.446  0.4251 -0.0215 -0.5327
  534MOL0     C71962   3.636   5.244   2.321  0.5271 -0.9869  0.1204
  534MOL0     O71963   3.771   5.272   2.316  0.1681 -0.5970 -0.1496
  534MOL0     C71964   3.842   5.256   2.189  1.1237 -0.0774 -0.3590
  534MOL0     C71965   3.860   5.105   2.156  0.0597 -0.1120 -0.2975
  534MOL0     C71966   3.956   5.039   2.255 -0.5651 -0.2879  0.7031
  534MOL0     C71967   3.991   4.902   2.193 -0.3628  1.5728  0.5538
  534MOL0     C71968   4.097   4.838   2.284 -0.1921 -0.0967 -0.0229
  534MOL0     C71969   4.113   4.687   2.256  0.3062 -0.7950 -0.3156
  534MOL0     C71970   4.207   4.614   2.351  0.2907 -0.4364  0.2831
  534MOL0     C71971   4.189   4.465   2.346 -0.7019  0.4141 -1.1791
  534MOL0     N71972   4.286   4.400   2.434 -0.6896 -0.3948 -0.0233
  534MOL0     C71973   4.370   4.299   2.399 -0.1617 -0.3885  0.3188
  534MOL0     C71974   4.439   4.257   2.507  0.0367 -1.8478 -0.6269
  534MOL0     C71975   4.524   4.136   2.529  1.7247 -0.2542  0.1360
  534MOL0     C71976   4.654   4.126   2.445  0.0168 -0.4385 -0.5155
  534MOL0     C71977   4.745   4.022   2.504  0.0896  0.6196 -0.3333
  534MOL0     C71978   4.810   4.054   2.639  0.1580 -0.7834 -0.2595
  534MOL0     O71979   4.877   4.178   2.636 -0.0057 -0.2772  0.2339
  534MOL0     C71980   5.006   4.191   2.583 -0.4360 -0.0166  0.0460
  534MOL0     C71981   5.092   4.091   2.537  0.5731  0.0624 -1.0953
  534MOL0     C71982   5.221   4.112   2.502 -0.5064 -0.1789 -0.6893
  534MOL0     C71983   5.277   4.241   2.501  0.7038 -0.0797 -0.3411
  534MOL0     C71984   5.414   4.270   2.468  0.6631  0.1289  0.0620
  534MOL0     O71985   5.437   4.399   2.434 -0.2157  0.1352  0.4209
  534MOL0     C71986   5.569   4.442   2.441  0.6665  0.2301  0.3550
  534MOL0     C71987   5.633   4.472   2.320  0.1129  0.4509 -0.4198
  534MOL0     C71988   5.772   4.512   2.315  0.4745  0.6785 -1.3905
  534MOL0     C71989   5.836   4.511   2.442  0.7628 -0.0601  0.3730
  534MOL0     O71990   5.962   4.562   2.416  0.2850 -0.1926 -0.1844
  534MOL0     C71991   6.038   4.576   2.533  0.0101 -0.2194  0.8339
  534MOL0     C71992   6.173   4.617   2.492 -0.5308  0.4021  0.0623
  534MOL0     C71993   6.274   4.602   2.600  0.2546 -0.1873 -1.1158
  534MOL0     C71994   6.408   4.669   2.582 -0.3904  0.0352  0.3441
  534MOL0     C71995   6.521   4.596   2.669 -1.2048 -0.0895  0.2490
  534MOL0     C71996   6.663   4.654   2.669 -0.3564  0.0538  0.3337
  534MOL0     C71997   6.747   4.615   2.539  0.1405  0.0222 -0.4633
  534MOL0     C71998   6.898   4.647   2.561  0.5764  0.6942 -0.7029
  534MOL0    Cl71999   6.977   4.627   2.407 -0.5844 -0.0050 -0.2294
  534MOL0     C72000   5.769   4.477   2.562  0.0715  0.0675  0.2827
  534MOL0     C72001   5.635   4.441   2.561 -0.4470  0.0507 -0.5662
  534MOL0     O72002   5.484   4.166   2.453 -0.1530 -0.1135  0.4440
  534MOL0     C72003   5.191   4.339   2.530  0.8251 -0.1207 -0.4980
  534MOL0     C72004   5.058   4.321   2.579 -0.4036 -0.2490 -0.4357
  534MOL0     N72005   4.391   4.345   2.604  0.7207 -0.3707  0.3596
  534MOL0     N72006   4.303   4.431   2.564  0.1037 -0.4720 -0.0642
  534MOL0     C72007   3.540   5.260   2.217  0.4383 -0.4136  0.0202
  534MOL0     C72008   3.410   5.215   2.228  0.8036 -0.1042 -0.4297
  534MOL0     C72009   3.077   4.940   2.370 -0.1263 -0.1828 -0.1186
  534MOL0     C72010   2.979   5.039   2.415  0.3584  0.7356 -0.4831
  534MOL0     C72011   2.844   4.992   2.439  1.1823  0.6108  0.7888
  534MOL0     C72012   2.802   4.861   2.404 -0.4447  0.9591 -0.1031
  534MOL0     O72013   2.676   4.804   2.399 -0.5995  0.2635 -0.3498
  534MOL0     C72014   2.571   4.897   2.430  1.8008 -0.3447 -0.1296
  534MOL0     C72015   2.440   4.839   2.396 -0.8839 -0.0862  0.0219
  534MOL0     C72016   2.385   4.736   2.495 -0.9019  0.5416 -0.1707
  534MOL0     C72017   2.254   4.677   2.432 -0.7722  0.1302 -0.4171
  534MOL0     C72018   2.147   4.772   2.422 -0.8171 -0.2846 -0.1647
  534MOL0     C72019   2.058   4.854   2.431  0.0367 -0.2463  0.2874
  534MOL0     C72020   2.900   4.776   2.355  0.1106  0.1360 -0.3178
  534MOL0     C72021   3.029   4.810   2.336  0.2302  0.0579  0.1013
  534MOL0     C72022   3.115   4.698   2.288 -0.2250 -0.4322 -0.2679
  534MOL0     H72023   3.409   5.138   2.560 -0.9298 -1.9309 -1.0356
  534MOL0     H72024   3.635   5.229   2.538  0.6237  1.2656 -0.8682
  534MOL0     H72025   3.790   5.307   2.108  0.4440 -0.2779 -0.0603
  534MOL0     H72026   3.943   5.297   2.188  0.9650  0.3177 -1.5861
  534MOL0     H72027   3.908   5.100   2.058 -0.5123 -1.3185 -0.5293
  534MOL0     H72028   3.763   5.054   2.158  0.9888 -2.1399 -2.0347
  534MOL0     H72029   3.917   5.037   2.357  1.1728  0.6152  1.4466
  534MOL0     H72030   4.052   5.092   2.264 -0.1376 -0.8770 -0.3121
  534MOL0     H72031   3.898   4.845   2.191  3.1215 -5.2258  2.2769
  534MOL0     H72032   4.030   4.912   2.091  0.2593 -2.2824  0.2554
  534MOL0     H72033   4.193   4.889   2.279 -0.1753  0.2774  2.7121
  534MOL0     H72034   4.058   4.856   2.385 -0.3227  0.9545 -0.2460
  534MOL0     H72035   4.017   4.635   2.265 -0.1242 -0.7289 -3.3776
  534MOL0     H72036   4.151   4.668   2.155 -0.1823 -1.3943 -0.3960
  534MOL0     H72037   4.191   4.653   2.452 -0.2484 -2.9048  1.2243
  534MOL0     H72038   4.313   4.636   2.335  0.7465 -0.7575  2.5185
  534MOL0     H72039   4.086   4.443   2.376 -0.4104  1.3836  0.6123
  534MOL0     H72040   4.212   4.424   2.247  3.9173 -0.4170 -0.0069
  534MOL0     H72041   4.385   4.253   2.301 -3.1493 -0.4467 -0.2032
  534MOL0     H72042   4.534   4.137   2.638 -3.0747  0.7662  0.7783
  534MOL0     H72043   4.453   4.057   2.505  0.0372  0.9836  0.8466
  534MOL0     H72044   4.623   4.105   2.342  0.5007  1.7738 -1.1585
  534MOL0     H72045   4.709   4.220   2.446 -0.7286  0.0274 -1.5948
  534MOL0     H72046   4.826   3.993   2.436  0.6537 -2.0117  1.3013
  534MOL0     H72047   4.697   3.925   2.517  0.5479  0.4576  0.1844
  534MOL0     H72048   4.887   3.980   2.660  3.7063  3.2536  3.0189
  534MOL0     H72049   4.727   4.058   2.711  0.3356  1.3312 -0.1052
  534MOL0     H72050   5.062   3.987   2.531  3.7385 -1.2350  2.1274
  534MOL0     H72051   5.279   4.025   2.473  0.0839  0.3306 -1.0763
  534MOL0     H72052   5.571   4.473   2.231 -0.4890  2.2594 -0.0121
  534MOL0     H72053   5.824   4.524   2.221  1.2885  1.2178 -0.8861
  534MOL0     H72054   5.982   4.645   2.596 -3.3591 -0.2712 -1.8419
  534MOL0     H72055   6.041   4.476   2.578 -0.1411 -1.1151 -1.0350
  534MOL0     H72056   6.211   4.550   2.415  1.5174  1.3852  0.1618
  534MOL0     H72057   6.164   4.722   2.460  1.4148  0.8960  0.9638
  534MOL0     H72058   6.235   4.659   2.685  0.0804  2.6145 -2.9530
  534MOL0     H72059   6.293   4.497   2.626 -1.5831 -0.0685  1.0036
  534MOL0     H72060   6.405   4.773   2.614  0.3236  0.4259 -0.8063
  534MOL0     H72061   6.445   4.667   2.479  3.1795  2.0799  1.3985
  534MOL0     H72062   6.533   4.493   2.635 -0.0108  0.7890 -2.2193
  534MOL0     H72063   6.493   4.597   2.775 -2.2757 -0.2695 -0.0235
  534MOL0     H72064   6.662   4.764   2.667 -0.3966  0.0499 -1.6202
  534MOL0     H72065   6.726   4.613   2.749 -1.2055 -0.2053  0.8800
  534MOL0     H72066   6.710   4.666   2.450 -1.2604 -0.9106 -0.4383
  534MOL0     H72067   6.744   4.508   2.518 -0.9545  0.0352 -0.4030
  534MOL0     H72068   6.905   4.752   2.591 -1.8526  1.1817 -1.6183
  534MOL0     H72069   6.949   4.586   2.636  0.2920  1.4667  0.1331
  534MOL0     H72070   5.817   4.469   2.660  0.5816 -1.1574 -0.0439
  534MOL0     H72071   5.587   4.406   2.652  2.8538 -2.3112  0.4391
  534MOL0     H72072   5.223   4.442   2.544 -1.5637  0.5821  0.1680
  534MOL0     H72073   4.991   4.400   2.612 -0.9331 -0.7908 -0.1990
  534MOL0     H72074   3.577   5.292   2.120 -0.6789 -2.3304 -1.0891
  534MOL0     H72075   3.341   5.210   2.145  0.6443  0.4211 -0.3310
  534MOL0     H72076   3.004   5.140   2.444  0.8518  0.4160  0.2327
  534MOL0     H72077   2.772   5.060   2.483  0.1165 -1.0358  1.6705
  534MOL0     H72078   2.579   4.993   2.377 -3.3037  0.3320 -0.1975
  534MOL0     H72079   2.580   4.915   2.538 -0.1994 -0.1535  0.0409
  534MOL0     H72080   2.441   4.793   2.297 -0.9122 -2.1593  0.9499
  534MOL0     H72081   2.372   4.924   2.386 -1.1521 -0.5409 -2.8860
  534MOL0     H72082   2.368   4.777   2.595 -0.9310  2.1401 -0.8099
  534MOL0     H72083   2.455   4.653   2.505 -0.1123  1.3620  1.6441
  534MOL0     H72084   2.285   4.629   2.339  0.2644 -0.3615  0.1670
  534MOL0     H72085   2.209   4.598   2.492  0.4369  1.5583  2.5631
  534MOL0     H72086   1.973   4.918   2.445  1.5874  2.1775 -0.7668
  534MOL0     H72087   2.857   4.677   2.341 -0.5020 -0.2088  3.1626
  534MOL0     H72088   3.189   4.680   2.367 -1.9628 -0.7915  1.3810
  534MOL0     H72089   3.053   4.608   2.274 -3.4847  1.3814  1.2123
  534MOL0     H72090   3.166   4.729   2.197  1.0545 -3.2584 -0.6134
  535MOL0     O72091   7.494   7.900   1.514  0.4054  0.1903  0.5315
  535MOL0     C72092   7.421   7.986   1.460  0.7818  0.2600 -0.3916
  535MOL0     O72093   7.464   8.100   1.392 -0.3405  0.7008  0.0500
  535MOL0     C72094   7.600   8.126   1.396  0.3899 -0.4355 -1.4394
  535MOL0     C72095   7.648   8.237   1.457 -0.8203  0.1379  0.2645
  535MOL0     C72096   7.785   8.270   1.451  0.4456  0.1327  0.2330
  535MOL0     C72097   7.876   8.198   1.374  0.0636 -0.6508 -0.1230
  535MOL0     O72098   8.006   8.229   1.349 -0.2955  0.6728  0.0058
  535MOL0     C72099   8.090   8.151   1.253 -0.3515 -1.3386  0.2265
  535MOL0     C72100   8.211   8.239   1.207 -0.0019  0.2903 -0.6754
  535MOL0     C72101   8.336   8.170   1.171  1.2196 -0.2323 -0.0643
  535MOL0     C72102   8.458   8.259   1.176  0.1180 -0.4094 -0.3090
  535MOL0     C72103   8.572   8.176   1.132 -0.3175 -0.0228  0.3317
  535MOL0     C72104   8.701   8.255   1.118  0.6865  0.1219  0.8933
  535MOL0     C72105   8.819   8.171   1.063 -0.8603  0.2674  0.2654
  535MOL0     C72106   8.948   8.257   1.054 -0.8691 -0.0284  0.8125
  535MOL0     N72107   9.054   8.237   1.163  0.3072 -0.5716 -0.2151
  535MOL0     C72108   9.081   8.330   1.258  0.1178  0.0809  0.7298
  535MOL0     C72109   9.166   8.267   1.344  0.1602 -0.3912  0.5728
  535MOL0     C72110   9.217   8.334   1.466 -0.1925 -0.4670  0.1035
  535MOL0     C72111   9.360   8.284   1.535 -0.0498 -0.1492  0.7612
  535MOL0     C72112   9.408   8.398   1.621  0.4073  0.0273  0.4883
  535MOL0     C72113   9.555   8.361   1.661  0.7980  0.3969  0.0495
  535MOL0     O72114   9.634   8.477   1.691  0.3067  0.0130 -0.1142
  535MOL0     C72115   9.774   8.475   1.703  0.1597 -0.3651  0.7104
  535MOL0     C72116   9.843   8.573   1.776 -0.5548 -0.3800 -0.1043
  535MOL0     C72117   9.983   8.575   1.783 -0.2087  0.4744  0.7802
  535MOL0     C72118  10.060   8.465   1.728  0.9477 -0.2383 -0.0906
  535MOL0     C72119  10.204   8.464   1.747 -0.7860  1.5477  0.2797
  535MOL0     O72120  10.251   8.569   1.807 -0.8050  0.5329 -0.0479
  535MOL0     C72121  10.385   8.588   1.826 -0.3447  0.6316  0.4624
  535MOL0     C72122  10.449   8.558   1.949  0.6392 -0.4457  0.2631
  535MOL0     C72123  10.588   8.582   1.964  0.7666  0.2998 -0.3217
  535MOL0     C72124  10.666   8.644   1.862 -0.0831  0.8764 -0.4610
  535MOL0     O72125  10.801   8.670   1.893  0.0836 -0.8148 -0.3703
  535MOL0     C72126  10.857   8.780   1.827 -0.2042  0.0495  0.4516
  535MOL0     C72127  10.984   8.822   1.905 -0.2635 -0.1766 -0.1324
  535MOL0     C72128  10.955   8.897   2.031  0.5521  0.2058  0.4865
  535MOL0     C72129  11.077   8.945   2.104 -0.1811  0.3371 -0.0294
  535MOL0     C72130  11.044   8.977   2.245 -0.4501 -0.3690  0.2131
  535MOL0     C72131  11.068   8.856   2.341 -0.6965  0.2411  0.2915
  535MOL0     C72132  11.059   8.896   2.485  0.3698  0.7792 -0.0182
  535MOL0     C72133  11.086   8.759   2.567 -0.1026 -0.8110 -0.4733
  535MOL0    Cl72134  11.144   8.797   2.734  0.7249  0.2793  0.6420
  535MOL0     C72135  10.600   8.680   1.743 -0.5876 -0.3830  0.5107
  535MOL0     C72136  10.467   8.644   1.723  0.6402 -0.9032 -0.6101
  535MOL0     O72137  10.263   8.368   1.698  0.2899  0.6789  0.4033
  535MOL0     C72138   9.988   8.356   1.668  0.4639  0.2894 -1.4441
  535MOL0     C72139   9.852   8.367   1.660  0.7045  0.1005  1.3482
  535MOL0     N72140   9.187   8.140   1.304  0.1688  0.0050  0.1488
  535MOL0     N72141   9.119   8.124   1.187 -0.5076  0.4750  0.1430
  535MOL0     C72142   7.825   8.083   1.308 -0.2731  0.3296 -0.0734
  535MOL0     C72143   7.687   8.047   1.324  0.3783  0.2452  0.2059
  535MOL0     C72144   7.278   7.965   1.450  0.1616  1.0278 -0.4130
  535MOL0     C72145   7.190   8.074   1.462 -0.0769  0.1249  0.6343
  535MOL0     C72146   7.053   8.059   1.459 -0.1936 -0.1661 -0.5022
  535MOL0     C72147   6.996   7.943   1.430 -0.5971  0.9977  0.7050
  535MOL0     O72148   6.863   7.943   1.414  0.6825 -0.3632 -0.0673
  535MOL0     C72149   6.802   7.833   1.356 -0.4841  1.0462  0.7306
  535MOL0     C72150   6.664   7.891   1.309 -0.4253 -0.4951 -0.0064
  535MOL0     C72151   6.584   7.927   1.428  0.1954 -0.0099  0.0418
  535MOL0     C72152   6.437   7.906   1.403  0.7249  0.5327 -0.1354
  535MOL0     C72153   6.360   7.914   1.526 -0.5597 -0.3603 -0.9281
  535MOL0     C72154   6.308   7.934   1.634  0.1895 -0.1536  1.1076
  535MOL0     C72155   7.079   7.826   1.418  0.4617  0.3555  0.8121
  535MOL0     C72156   7.219   7.839   1.424  0.1251 -0.6402 -0.0147
  535MOL0     C72157   7.297   7.707   1.403  0.3845 -1.1084  0.0410
  535MOL0     H72158   7.591   8.307   1.517  0.9756  1.4273  0.5368
  535MOL0     H72159   7.818   8.360   1.502  3.5318  0.0401 -1.3355
  535MOL0     H72160   8.118   8.048   1.277  0.2162 -0.8552  1.7739
  535MOL0     H72161   8.026   8.140   1.165  0.0279 -1.5878 -0.0235
  535MOL0     H72162   8.225   8.310   1.290 -3.0742  1.1542 -0.7966
  535MOL0     H72163   8.182   8.313   1.133 -3.6508  2.4799  2.5420
  535MOL0     H72164   8.330   8.132   1.068  2.1942  2.7635 -1.3257
  535MOL0     H72165   8.350   8.086   1.240 -2.7057 -0.5195  0.6008
  535MOL0     H72166   8.438   8.348   1.115  2.2534  0.6215  0.4151
  535MOL0     H72167   8.476   8.291   1.279  2.0946 -0.1054 -0.7277
  535MOL0     H72168   8.577   8.095   1.205  0.6618 -1.0547 -0.8357
  535MOL0     H72169   8.552   8.142   1.030 -1.5670  1.8876 -0.1332
  535MOL0     H72170   8.679   8.337   1.049 -1.4025  0.4205  1.8355
  535MOL0     H72171   8.723   8.299   1.216 -0.0468  0.2486  1.0101
  535MOL0     H72172   8.802   8.130   0.963  3.6043 -0.2558 -0.4809
  535MOL0     H72173   8.832   8.079   1.120  1.5044  0.9470  0.9087
  535MOL0     H72174   9.001   8.237   0.960  1.7804 -4.3858  2.9058
  535MOL0     H72175   8.905   8.357   1.065 -2.9039 -0.9943  2.3314
  535MOL0     H72176   9.062   8.436   1.264  0.0894  0.1567 -0.4517
  535MOL0     H72177   9.252   8.433   1.436 -0.7925  0.2639  1.7347
  535MOL0     H72178   9.133   8.331   1.536 -0.8704 -1.6802 -0.7334
  535MOL0     H72179   9.351   8.199   1.603 -0.6850 -0.0225  0.8405
  535MOL0     H72180   9.429   8.258   1.455 -0.8307  2.0904 -0.7540
  535MOL0     H72181   9.358   8.411   1.717  1.4170 -0.1412  1.0583
  535MOL0     H72182   9.395   8.490   1.563  1.3638  0.3362  0.7427
  535MOL0     H72183   9.605   8.301   1.584 -0.1832 -2.1826  1.3064
  535MOL0     H72184   9.555   8.302   1.752 -0.6162 -0.4101 -0.4340
  535MOL0     H72185   9.778   8.649   1.819 -1.0699 -0.2919 -1.0125
  535MOL0     H72186  10.037   8.660   1.825  1.1638 -0.9493  2.0015
  535MOL0     H72187  10.389   8.497   2.016  0.9028  0.0385  0.9468
  535MOL0     H72188  10.640   8.547   2.054  0.6126 -2.5231 -1.2151
  535MOL0     H72189  10.875   8.742   1.726 -0.7355  2.1187 -0.4693
  535MOL0     H72190  10.790   8.866   1.817 -0.6028 -0.2970  0.0813
  535MOL0     H72191  11.044   8.735   1.933  1.1619  0.3591 -1.3834
  535MOL0     H72192  11.043   8.888   1.840 -1.8573  0.2111 -1.2334
  535MOL0     H72193  10.888   8.982   2.013  1.8726  1.4769  1.3440
  535MOL0     H72194  10.905   8.825   2.096  3.2720 -3.4354 -1.1196
  535MOL0     H72195  11.120   9.024   2.042 -0.6737  0.1175 -0.6590
  535MOL0     H72196  11.155   8.867   2.103 -0.0168  0.5002 -0.6731
  535MOL0     H72197  10.938   9.004   2.250 -0.6952 -1.0109 -1.1267
  535MOL0     H72198  11.103   9.066   2.270 -0.1487 -0.5630  0.1979
  535MOL0     H72199  11.001   8.774   2.312 -0.8373  0.3510  0.3073
  535MOL0     H72200  11.172   8.824   2.329 -1.0955 -1.2995  0.6624
  535MOL0     H72201  10.963   8.942   2.512  0.4573  1.4768 -0.8424
  535MOL0     H72202  11.143   8.960   2.512  1.1385 -1.2953  3.0674
  535MOL0     H72203  10.993   8.702   2.562 -1.3451  1.0659 -0.0409
  535MOL0     H72204  11.159   8.696   2.516  2.8160  1.3245  0.7665
  535MOL0     H72205  10.657   8.720   1.660  0.5939 -5.7917 -1.7172
  535MOL0     H72206  10.434   8.679   1.625  0.6430  1.3498  0.1520
  535MOL0     H72207  10.037   8.272   1.621  0.6066 -1.1968  1.2050
  535MOL0     H72208   9.812   8.283   1.605  2.4613 -0.2385  0.5458
  535MOL0     H72209   7.878   8.000   1.262 -0.8861 -1.4924  2.3129
  535MOL0     H72210   7.637   7.960   1.282  2.1143  0.2614 -2.0370
  535MOL0     H72211   7.232   8.174   1.470 -1.3525  0.6373  1.1489
  535MOL0     H72212   6.985   8.143   1.466  1.6349  1.4928 -1.7430
  535MOL0     H72213   6.794   7.747   1.423 -0.4649  2.1704  2.2186
  535MOL0     H72214   6.854   7.792   1.269 -3.6530 -2.5964  0.3139
  535MOL0     H72215   6.617   7.816   1.244  2.6539 -0.8266 -2.1004
  535MOL0     H72216   6.682   7.980   1.249 -2.1570 -1.5592 -2.2526
  535MOL0     H72217   6.593   8.032   1.460 -2.8618  0.0289  1.1483
  535MOL0     H72218   6.615   7.861   1.510  0.5876 -0.3119 -0.3439
  535MOL0     H72219   6.409   7.986   1.335  0.6345 -1.9548 -3.2731
  535MOL0     H72220   6.420   7.806   1.360  0.1247  0.4819  0.2028
  535MOL0     H72221   6.259   7.966   1.724  1.4709  1.1533  1.3886
  535MOL0     H72222   7.039   7.729   1.389 -2.1555  1.9609 -1.3728
  535MOL0     H72223   7.291   7.640   1.488 -2.7170 -0.2709  0.6129
  535MOL0     H72224   7.249   7.650   1.322 -2.8170 -0.4213  1.2847
  535MOL0     H72225   7.401   7.725   1.377  0.0207  0.3772 -0.5048
  536MOL0     O72226   4.438   7.320   3.843  0.2280 -0.1080 -0.1143
  536MOL0     C72227   4.369   7.422   3.860 -0.5567  1.6506 -0.1511
  536MOL0     O72228   4.422   7.539   3.903  0.3403 -0.7191  0.8826
  536MOL0     C72229   4.556   7.547   3.942  0.3642  0.4202 -0.8246
  536MOL0     C72230   4.657   7.475   3.874 -0.2001 -0.4489  0.2354
  536MOL0     C72231   4.790   7.491   3.914  0.3308 -0.2065 -0.8221
  536MOL0     C72232   4.830   7.566   4.030  0.1830  0.7229  0.2071
  536MOL0     O72233   4.957   7.572   4.065  0.0024  0.3312  0.4386
  536MOL0     C72234   5.002   7.662   4.173  0.4840 -0.2104 -1.2277
  536MOL0     C72235   5.139   7.622   4.214  0.1063  0.3646 -0.1070
  536MOL0     C72236   5.207   7.736   4.287 -0.1949 -0.2289  0.4664
  536MOL0     C72237   5.318   7.679   4.385 -0.3487 -0.4221  0.3832
  536MOL0     C72238   5.337   7.765   4.517 -0.3998 -0.9419 -0.0237
  536MOL0     C72239   5.430   7.702   4.616 -0.5479 -0.5806 -0.3503
  536MOL0     C72240   5.574   7.665   4.567  0.2154 -0.8951  0.1058
  536MOL0     C72241   5.659   7.792   4.570  1.6600  0.3147 -0.0008
  536MOL0     N72242   5.800   7.766   4.549  0.2654 -0.7621 -0.2820
  536MOL0     C72243   5.872   7.645   4.572  0.3043 -1.2806  0.5711
  536MOL0     C72244   6.003   7.688   4.565  0.5404  0.4986  0.1009
  536MOL0     C72245   6.109   7.599   4.607 -0.0009  0.6422 -0.7180
  536MOL0     C72246   6.085   7.555   4.751  0.0290  0.0087  0.4461
  536MOL0     C72247   6.198   7.498   4.821 -0.2122  0.9444 -0.3163
  536MOL0     C72248   6.257   7.367   4.761 -0.4179  0.3086  0.0129
  536MOL0     O72249   6.343   7.390   4.647  0.3432 -0.8518 -0.5342
  536MOL0     C72250   6.470   7.440   4.665  0.8238  0.3990 -0.0881
  536MOL0     C72251   6.514   7.533   4.572 -0.2662  0.1733  0.2653
  536MOL0     C72252   6.632   7.604   4.592 -0.4149 -0.2044  0.0150
  536MOL0     C72253   6.718   7.579   4.697  1.0403  0.1289  0.0656
  536MOL0     C72254   6.841   7.657   4.704  0.1675 -0.0660 -0.0855
  536MOL0     O72255   6.865   7.748   4.610  0.9438  0.7761  0.5205
  536MOL0     C72256   6.933   7.860   4.647 -0.6625  0.2916 -0.3417
  536MOL0     C72257   6.886   7.944   4.742  0.4970  0.2559  0.5613
  536MOL0     C72258   6.960   8.058   4.782 -0.5065  0.0071 -0.0725
  536MOL0     C72259   7.073   8.087   4.718  0.0592  0.7120 -0.1694
  536MOL0     O72260   7.152   8.192   4.757  0.3431 -0.6908 -0.3633
  536MOL0     C72261   7.264   8.152   4.836 -0.4336  0.2975 -0.4910
  536MOL0     C72262   7.337   8.261   4.916 -0.6094  0.5560 -0.3982
  536MOL0     C72263   7.410   8.366   4.823 -0.5679  1.4431 -0.2696
  536MOL0     C72264   7.523   8.435   4.895  0.3202 -0.1445 -0.0348
  536MOL0     C72265   7.629   8.482   4.789 -0.2175 -0.5174 -0.3264
  536MOL0     C72266   7.740   8.553   4.864 -0.6054  0.3689  0.5102
  536MOL0     C72267   7.847   8.598   4.780  1.0383  0.0198 -0.5050
  536MOL0     C72268   7.973   8.651   4.846 -0.1460 -0.7299 -0.4757
  536MOL0    Cl72269   8.108   8.683   4.724  0.1616 -0.2803  0.4390
  536MOL0     C72270   7.120   7.994   4.624  0.8958 -0.3321 -0.1894
  536MOL0     C72271   7.059   7.878   4.595  0.4720 -0.3586  0.3131
  536MOL0     O72272   6.928   7.620   4.783 -0.3757 -0.1362 -0.4894
  536MOL0     C72273   6.673   7.484   4.799 -0.0990  0.2244 -0.7116
  536MOL0     C72274   6.554   7.415   4.775  0.0627  0.3960  1.0829
  536MOL0     N72275   6.012   7.821   4.547  0.0899  0.3312  0.4507
  536MOL0     N72276   5.892   7.871   4.552 -0.1241 -0.7615  0.5550
  536MOL0     C72277   4.726   7.628   4.097  0.3128 -0.5565  0.7901
  536MOL0     C72278   4.592   7.616   4.057  1.1283 -0.5273 -0.1944
  536MOL0     C72279   4.224   7.415   3.843 -0.5917 -0.3310 -0.2671
  536MOL0     C72280   4.158   7.533   3.844 -0.0136 -0.0162 -0.6779
  536MOL0     C72281   4.016   7.541   3.838 -0.1572  0.2939  0.8403
  536MOL0     C72282   3.941   7.426   3.825 -0.4442 -0.3395 -0.3914
  536MOL0     O72283   3.803   7.432   3.819 -0.7155 -0.3909  0.0296
  536MOL0     C72284   3.728   7.316   3.846  0.9921  1.0443 -0.4948
  536MOL0     C72285   3.582   7.356   3.883  0.5444  0.2979  0.3671
  536MOL0     C72286   3.491   7.381   3.758 -0.3760  0.4442 -0.2793
  536MOL0     C72287   3.354   7.437   3.806 -0.3487  0.4397 -0.4945
  536MOL0     C72288   3.268   7.336   3.873 -0.7218  0.7171 -0.1909
  536MOL0     C72289   3.186   7.265   3.920  0.5818  1.2998  0.4222
  536MOL0     C72290   4.012   7.304   3.818 -0.3329 -0.3830 -0.1981
  536MOL0     C72291   4.153   7.295   3.818  0.4276  0.5885 -0.1138
  536MOL0     C72292   4.217   7.156   3.833  0.1275  0.2068  0.5215
  536MOL0     H72293   4.647   7.417   3.783  2.7456  0.1290 -0.5518
  536MOL0     H72294   4.871   7.441   3.861  0.2426 -1.2997  0.0503
  536MOL0     H72295   5.010   7.768   4.147  4.3337  0.4881  1.8184
  536MOL0     H72296   4.933   7.653   4.257  0.1746 -2.4548 -1.6634
  536MOL0     H72297   5.195   7.589   4.126 -0.3975  1.1510 -0.7318
  536MOL0     H72298   5.135   7.528   4.270 -1.4614 -0.2665 -1.2174
  536MOL0     H72299   5.136   7.794   4.347  0.8619  2.1035 -0.4142
  536MOL0     H72300   5.251   7.804   4.214 -0.6740  0.2336  0.6027
  536MOL0     H72301   5.292   7.577   4.415  1.0880 -1.6860 -2.3222
  536MOL0     H72302   5.415   7.667   4.336 -0.9450 -2.5163 -0.3645
  536MOL0     H72303   5.381   7.858   4.479 -0.7317 -1.5720 -2.0327
  536MOL0     H72304   5.243   7.805   4.556  1.4719  3.3068  0.7612
  536MOL0     H72305   5.432   7.773   4.699 -1.5036  0.4937 -1.2012
  536MOL0     H72306   5.381   7.611   4.651 -1.8515  0.7825  1.5858
  536MOL0     H72307   5.574   7.616   4.469  2.3975 -1.0686  0.1285
  536MOL0     H72308   5.609   7.590   4.639 -2.1335 -1.5760  0.6363
  536MOL0     H72309   5.624   7.857   4.489 -2.5647 -2.3227 -0.6129
  536MOL0     H72310   5.641   7.855   4.658 -0.2761 -1.0880  0.6896
  536MOL0     H72311   5.839   7.543   4.591  2.4757 -2.3811 -1.0273
  536MOL0     H72312   6.114   7.515   4.537 -0.8721  0.2113 -0.2641
  536MOL0     H72313   6.203   7.653   4.588  0.3389 -0.1943 -1.5105
  536MOL0     H72314   6.066   7.652   4.797 -2.5254  0.9175 -2.2053
  536MOL0     H72315   5.991   7.500   4.765 -0.4154  1.4851  4.3906
  536MOL0     H72316   6.148   7.470   4.914  0.8819  1.4817  0.4561
  536MOL0     H72317   6.276   7.571   4.844  0.7849  0.3656 -1.7626
  536MOL0     H72318   6.170   7.307   4.735 -0.8621  0.5230  0.9511
  536MOL0     H72319   6.305   7.303   4.836  1.0445 -0.5312 -1.5703
  536MOL0     H72320   6.462   7.561   4.481 -1.6202  0.1667  1.0106
  536MOL0     H72321   6.661   7.671   4.512  2.6046  0.1523  1.2892
  536MOL0     H72322   6.790   7.922   4.786  0.1789  0.5634  0.0228
  536MOL0     H72323   6.927   8.115   4.867 -1.1977 -2.4500  1.4067
  536MOL0     H72324   7.233   8.090   4.922 -0.5036 -1.1916 -1.5515
  536MOL0     H72325   7.329   8.094   4.770 -2.1279  0.2748 -2.2136
  536MOL0     H72326   7.273   8.319   4.984 -2.5253 -2.0920  0.1976
  536MOL0     H72327   7.402   8.199   4.978 -2.6392  0.6955  2.0291
  536MOL0     H72328   7.452   8.298   4.748  0.0973  0.6950  0.7448
  536MOL0     H72329   7.335   8.435   4.784 -0.8545  0.3166 -1.8413
  536MOL0     H72330   7.573   8.365   4.963 -1.7301  0.2403  2.0279
  536MOL0     H72331   7.489   8.521   4.955 -1.0738  0.8918 -2.1857
  536MOL0     H72332   7.583   8.545   4.712  1.4182 -0.6464 -1.4892
  536MOL0     H72333   7.654   8.389   4.736 -1.7511 -2.6691  2.4956
  536MOL0     H72334   7.702   8.635   4.925 -1.6701  0.1134  0.2213
  536MOL0     H72335   7.791   8.495   4.942  0.9685  2.0360  0.7873
  536MOL0     H72336   7.809   8.687   4.727  1.4057  1.7763  2.0228
  536MOL0     H72337   7.880   8.521   4.709  0.1322 -0.1783 -0.7333
  536MOL0     H72338   7.943   8.741   4.900  0.2942 -0.5715 -0.4886
  536MOL0     H72339   8.002   8.582   4.925  0.4797  0.5816  0.4801
  536MOL0     H72340   7.212   8.011   4.568 -0.2002  0.6611 -1.7985
  536MOL0     H72341   7.101   7.796   4.537 -2.3829 -1.6335 -0.1310
  536MOL0     H72342   6.728   7.460   4.889  0.8668  1.9252 -0.8150
  536MOL0     H72343   6.518   7.344   4.849 -1.3402 -1.7974 -1.5025
  536MOL0     H72344   4.756   7.694   4.178 -1.6475 -1.0130  1.9398
  536MOL0     H72345   4.507   7.664   4.105 -1.2149 -2.5856 -1.9737
  536MOL0     H72346   4.203   7.632   3.847  0.4579 -0.2092 -1.1697
  536MOL0     H72347   3.970   7.640   3.836 -0.9322 -0.0578  0.9636
  536MOL0     H72348   3.770   7.259   3.929 -0.7141  0.4566  0.0067
  536MOL0     H72349   3.725   7.253   3.757  2.0671 -0.4856  0.5096
  536MOL0     H72350   3.587   7.453   3.934 -0.9704  0.4353  0.2910
  536MOL0     H72351   3.552   7.280   3.956  1.3954 -0.7454 -0.3296
  536MOL0     H72352   3.489   7.279   3.718  2.5354 -0.0032  0.4987
  536MOL0     H72353   3.540   7.450   3.690 -1.2007  0.3603 -0.9759
  536MOL0     H72354   3.358   7.525   3.871 -0.9605  1.4634 -1.7945
  536MOL0     H72355   3.318   7.478   3.711  1.1898 -0.7140 -1.6313
  536MOL0     H72356   3.106   7.209   3.964  2.0761 -0.3132  1.2091
  536MOL0     H72357   3.969   7.206   3.802  0.3213 -0.5161 -1.2689
  536MOL0     H72358   4.143   7.077   3.816 -0.1014  0.6773 -0.6996
  536MOL0     H72359   4.290   7.146   3.752 -2.0420 -0.0945 -1.4962
  536MOL0     H72360   4.263   7.145   3.932  0.8827 -0.5662  0.0989
  537MOL0     O72361   4.858   5.986   5.107  0.5658 -0.1808  0.0073
  537MOL0     C72362   4.830   5.918   5.207 -1.2484  0.6309  0.1696
  537MOL0     O72363   4.918   5.829   5.264 -0.2735 -0.3531  0.5529
  537MOL0     C72364   5.053   5.812   5.227  0.3048  0.2970 -0.1518
  537MOL0     C72365   5.119   5.692   5.267 -0.2427  0.2109  0.3697
  537MOL0     C72366   5.251   5.680   5.226  0.5602 -0.1612  0.0146
  537MOL0     C72367   5.328   5.779   5.157  0.4112  0.3754  0.3355
  537MOL0     O72368   5.458   5.768   5.122  0.4490  0.0198  0.4916
  537MOL0     C72369   5.511   5.636   5.130  0.4015 -0.0146  0.0057
  537MOL0     C72370   5.639   5.620   5.048  1.1552  0.4770 -0.8124
  537MOL0     C72371   5.764   5.647   5.137 -0.1426 -0.1786 -0.4784
  537MOL0     C72372   5.883   5.577   5.052  0.2889 -0.1244  0.5647
  537MOL0     C72373   6.009   5.575   5.123 -0.5295  0.2026  0.2602
  537MOL0     C72374   6.084   5.714   5.124  0.2011  0.2527 -0.1840
  537MOL0     C72375   6.232   5.697   5.169 -1.0873  0.2525  0.1584
  537MOL0     C72376   6.294   5.835   5.165  0.4476 -0.1442  0.3853
  537MOL0     N72377   6.426   5.838   5.237 -0.4173  0.0064 -0.2710
  537MOL0     C72378   6.535   5.775   5.188  0.2267  0.5460 -0.1180
  537MOL0     C72379   6.625   5.775   5.294  0.7701  0.5219 -0.5661
  537MOL0     C72380   6.764   5.715   5.288  0.1210  0.5266 -0.2459
  537MOL0     C72381   6.852   5.788   5.184 -0.5003  0.3636  0.0412
  537MOL0     C72382   6.980   5.710   5.166  0.2322  0.1438  0.0533
  537MOL0     C72383   7.019   5.726   5.024  0.1748  0.1950 -0.2566
  537MOL0     O72384   7.130   5.637   4.999  0.9722 -0.0843  0.3964
  537MOL0     C72385   7.260   5.676   5.015 -1.0016  0.5994 -0.1980
  537MOL0     C72386   7.301   5.797   5.082 -0.9804 -0.2274 -0.2264
  537MOL0     C72387   7.438   5.820   5.103 -1.2099 -0.2593  0.0295
  537MOL0     C72388   7.533   5.723   5.063  0.2301  0.7168  0.3493
  537MOL0     C72389   7.680   5.745   5.089  0.2900 -0.1198 -0.0249
  537MOL0     O72390   7.720   5.865   5.142  0.1891  0.1200  0.7128
  537MOL0     C72391   7.855   5.881   5.159  0.0162 -0.5263  0.2944
  537MOL0     C72392   7.939   5.893   5.055 -0.1809 -0.2315 -0.5106
  537MOL0     C72393   8.078   5.898   5.080  0.6154  0.0147 -0.0263
  537MOL0     C72394   8.138   5.903   5.205 -0.1420  0.4537 -0.5070
  537MOL0     O72395   8.273   5.913   5.210 -0.3354 -0.4304  0.4384
  537MOL0     C72396   8.340   5.971   5.316  0.5446 -0.1750 -0.0637
  537MOL0     C72397   8.478   6.013   5.273  0.2672 -0.1006 -0.7321
  537MOL0     C72398   8.565   6.086   5.379  0.3841 -0.2003  0.1075
  537MOL0     C72399   8.598   6.005   5.505  0.2508 -0.4546  0.2985
  537MOL0     C72400   8.726   6.066   5.579 -0.2777  0.5599 -0.2798
  537MOL0     C72401   8.697   6.207   5.635 -0.3769 -0.1983  0.2596
  537MOL0     C72402   8.759   6.317   5.545 -0.1082 -0.4715  0.0308
  537MOL0     C72403   8.911   6.315   5.551 -0.4584 -0.1915  1.1151
  537MOL0    Cl72404   8.989   6.423   5.435  0.0345 -0.0722 -0.3057
  537MOL0     C72405   8.050   5.898   5.316 -0.3420 -0.2652  0.6311
  537MOL0     C72406   7.907   5.890   5.295  0.0925  0.1862  0.5088
  537MOL0     O72407   7.749   5.648   5.066  0.2040 -0.2560 -0.0585
  537MOL0     C72408   7.486   5.607   4.993 -1.4556  0.1231 -0.6993
  537MOL0     C72409   7.354   5.583   4.973  0.7924 -1.2818  0.2174
  537MOL0     N72410   6.571   5.854   5.395 -0.2221  0.3853 -0.2562
  537MOL0     N72411   6.445   5.878   5.366 -0.3239 -0.0697 -0.3731
  537MOL0     C72412   5.268   5.900   5.139  0.7011 -0.2232  0.1341
  537MOL0     C72413   5.131   5.910   5.171 -0.6721 -0.1780  0.2045
  537MOL0     C72414   4.693   5.924   5.262 -0.2917  0.7114  0.3499
  537MOL0     C72415   4.606   6.006   5.186 -0.0730 -0.0594  0.4468
  537MOL0     C72416   4.471   6.005   5.215 -0.3100 -0.1608 -0.5994
  537MOL0     C72417   4.428   5.941   5.330 -0.0374  0.3439  0.1946
  537MOL0     O72418   4.303   5.974   5.386  0.0346 -0.0204  0.1223
  537MOL0     C72419   4.186   5.994   5.296  0.2483  0.4679 -0.9302
  537MOL0     C72420   4.066   6.049   5.380  0.1791  0.3598  0.2509
  537MOL0     C72421   4.098   6.186   5.425  0.0732 -0.3663  0.3111
  537MOL0     C72422   3.974   6.285   5.447  0.5203  0.6982  0.7064
  537MOL0     C72423   3.884   6.232   5.548  0.7376  0.3398 -0.4303
  537MOL0     C72424   3.815   6.198   5.641  0.1992 -0.3333  0.1733
  537MOL0     C72425   4.517   5.867   5.408  0.1745  0.5646 -0.3761
  537MOL0     C72426   4.648   5.849   5.370 -0.5551  0.3537  0.4998
  537MOL0     C72427   4.729   5.752   5.440  0.3784 -0.5777 -0.7908
  537MOL0     H72428   5.063   5.616   5.321 -2.1161  0.5864 -0.9259
  537MOL0     H72429   5.288   5.579   5.242  0.6692  0.0499  1.1694
  537MOL0     H72430   5.524   5.600   5.232  0.3044 -0.9775 -0.3187
  537MOL0     H72431   5.448   5.562   5.081  1.0324 -0.8895  0.5057
  537MOL0     H72432   5.632   5.676   4.955 -1.5156  0.6967 -0.5366
  537MOL0     H72433   5.642   5.514   5.019 -0.3892  0.1378  0.1479
  537MOL0     H72434   5.770   5.597   5.234 -3.3569  1.1609  0.5744
  537MOL0     H72435   5.781   5.752   5.160  2.5898 -0.4087 -1.1287
  537MOL0     H72436   5.860   5.471   5.036  0.6918 -0.4080  1.7157
  537MOL0     H72437   5.893   5.631   4.958 -0.9187 -0.1088  0.4326
  537MOL0     H72438   5.988   5.546   5.227 -1.5709  0.7755  0.2173
  537MOL0     H72439   6.073   5.503   5.070 -0.7766  0.4832 -0.4169
  537MOL0     H72440   6.089   5.774   5.033  0.1388  0.1386 -0.2625
  537MOL0     H72441   6.023   5.770   5.196 -0.8400  0.3645 -1.1318
  537MOL0     H72442   6.284   5.624   5.106 -1.0674  0.8488 -0.5225
  537MOL0     H72443   6.220   5.662   5.272  0.2305  0.3556  0.3682
  537MOL0     H72444   6.301   5.862   5.059 -3.8647 -1.8008 -0.5370
  537MOL0     H72445   6.217   5.899   5.207 -0.0098 -1.1467  1.1144
  537MOL0     H72446   6.561   5.741   5.089 -0.3340  1.2484 -0.5203
  537MOL0     H72447   6.798   5.726   5.391 -2.3252  3.3559  0.3791
  537MOL0     H72448   6.744   5.610   5.262  3.1532 -0.7031  1.8113
  537MOL0     H72449   6.804   5.801   5.087 -0.1084 -2.1059 -0.5557
  537MOL0     H72450   6.877   5.881   5.235 -1.6274  0.9188 -0.3982
  537MOL0     H72451   6.966   5.607   5.200  1.3882  0.5966  2.0443
  537MOL0     H72452   7.046   5.754   5.242 -2.0252  0.7337  1.7889
  537MOL0     H72453   7.034   5.829   4.992  1.2356  0.5354  1.2168
  537MOL0     H72454   6.933   5.691   4.966 -0.4184 -1.8763  1.7438
  537MOL0     H72455   7.231   5.864   5.131 -1.0148  0.3910 -1.1031
  537MOL0     H72456   7.461   5.916   5.149 -1.5728 -0.5978  0.9387
  537MOL0     H72457   7.900   5.878   4.955 -0.8792  2.4843 -0.7136
  537MOL0     H72458   8.161   5.891   5.010  3.0401  0.9384  2.5309
  537MOL0     H72459   8.280   6.050   5.362 -0.9976 -2.1115  1.4283
  537MOL0     H72460   8.348   5.897   5.397  0.1974 -0.8770 -0.6661
  537MOL0     H72461   8.530   5.921   5.242  0.7703 -0.1045  0.0759
  537MOL0     H72462   8.485   6.079   5.186  0.5994  1.2076  0.2519
  537MOL0     H72463   8.660   6.116   5.333  0.1307  0.6393  0.1140
  537MOL0     H72464   8.520   6.180   5.410 -0.4697 -1.6047  3.5742
  537MOL0     H72465   8.634   5.910   5.464  4.9238  0.9529  0.5934
  537MOL0     H72466   8.517   5.981   5.576 -0.2750 -1.1018 -0.5072
  537MOL0     H72467   8.805   6.069   5.503  1.7910 -0.7796  1.6963
  537MOL0     H72468   8.757   5.997   5.658 -1.1881  0.8534  0.3514
  537MOL0     H72469   8.589   6.226   5.633 -0.4653 -0.3804  1.9367
  537MOL0     H72470   8.731   6.215   5.738  1.0509 -1.6611 -0.0496
  537MOL0     H72471   8.728   6.419   5.567 -1.9648 -0.4627 -2.1820
  537MOL0     H72472   8.732   6.306   5.439  0.6726 -0.9644 -0.1299
  537MOL0     H72473   8.937   6.348   5.652 -0.9277  0.9985  0.8608
  537MOL0     H72474   8.952   6.215   5.533  2.5429  1.3685 -1.7173
  537MOL0     H72475   8.093   5.900   5.415 -2.3811 -1.6728  1.6235
  537MOL0     H72476   7.846   5.874   5.383 -1.6770  3.3811  0.0283
  537MOL0     H72477   7.555   5.547   4.935 -1.6098 -0.0128 -0.7433
  537MOL0     H72478   7.318   5.507   4.905 -0.0075  0.2719 -1.1793
  537MOL0     H72479   5.325   5.985   5.104  0.8334 -0.7815 -1.0505
  537MOL0     H72480   5.089   6.009   5.162  3.7931  2.0256  1.0519
  537MOL0     H72481   4.623   6.055   5.091 -1.5667 -0.5155 -0.0840
  537MOL0     H72482   4.415   6.080   5.160  1.2489  2.6730  1.3920
  537MOL0     H72483   4.152   5.895   5.265 -3.3299  0.1682  3.1159
  537MOL0     H72484   4.205   6.057   5.208 -0.3410 -0.1829 -1.5343
  537MOL0     H72485   4.064   5.984   5.468  0.4005 -1.6758 -1.1624
  537MOL0     H72486   3.977   6.048   5.315 -0.4685  0.1282  1.1249
  537MOL0     H72487   4.167   6.225   5.349 -1.9273  0.4691 -1.1657
  537MOL0     H72488   4.151   6.173   5.520  0.8573  0.1623 -0.0461
  537MOL0     H72489   3.998   6.385   5.483 -1.6946  1.4288  0.3070
  537MOL0     H72490   3.917   6.285   5.354  1.6267 -0.9858 -0.0184
  537MOL0     H72491   3.765   6.147   5.720 -1.0308 -2.2026 -1.7086
  537MOL0     H72492   4.479   5.803   5.487  1.7077 -0.8171 -0.6862
  537MOL0     H72493   4.756   5.674   5.368  1.6907 -0.1167 -0.8317
  537MOL0     H72494   4.821   5.801   5.473 -0.1807  0.0013 -0.0461
  537MOL0     H72495   4.674   5.708   5.524  2.0556 -0.9580  0.1633
  538MOL0     O72496   0.979   1.951   9.275 -0.6375  0.1788  0.7107
  538MOL0     C72497   0.923   1.972   9.159  0.7745 -0.0317 -0.6280
  538MOL0     O72498   0.959   2.064   9.065  0.0381 -0.6264 -0.2547
  538MOL0     C72499   1.089   2.106   9.067  0.3076 -0.1757  0.6253
  538MOL0     C72500   1.136   2.214   9.141 -0.0992 -0.5323 -0.2144
  538MOL0     C72501   1.266   2.248   9.120 -0.3697  1.0437 -0.2670
  538MOL0     C72502   1.349   2.185   9.031  0.3057 -0.2202 -0.4752
  538MOL0     O72503   1.479   2.228   9.015 -0.3846  0.3934  0.4236
  538MOL0     C72504   1.500   2.346   8.940 -0.3825  0.2774  0.1759
  538MOL0     C72505   1.482   2.318   8.795  0.1818 -0.1681  1.1163
  538MOL0     C72506   1.562   2.192   8.742 -0.3418  0.2621 -0.7703
  538MOL0     C72507   1.717   2.209   8.731  0.2747 -0.6485  0.8324
  538MOL0     C72508   1.777   2.112   8.830  0.0072  0.2779  0.2921
  538MOL0     C72509   1.762   1.960   8.792 -0.5254 -0.3542 -0.3139
  538MOL0     C72510   1.786   1.927   8.648 -0.2480 -0.0110 -0.7387
  538MOL0     C72511   1.925   1.976   8.589 -0.0246 -0.1852 -0.4727
  538MOL0     N72512   1.929   1.930   8.448 -0.2700 -0.1398 -0.7406
  538MOL0     C72513   1.937   1.798   8.416  0.4064 -0.2414  0.6764
  538MOL0     C72514   1.964   1.796   8.283 -1.1703 -0.1640  0.5788
  538MOL0     C72515   1.976   1.672   8.195 -0.4841 -0.2859 -0.1826
  538MOL0     C72516   2.115   1.612   8.213 -0.4700 -0.5644  0.4770
  538MOL0     C72517   2.118   1.469   8.157 -0.0100 -0.3074  0.4939
  538MOL0     C72518   2.264   1.411   8.141  0.0324 -0.0647 -0.0517
  538MOL0     O72519   2.337   1.471   8.039 -0.2841  0.0217  0.1970
  538MOL0     C72520   2.476   1.477   8.063  0.7030 -0.3443 -0.5181
  538MOL0     C72521   2.541   1.367   8.111 -1.2819  0.7832  0.3279
  538MOL0     C72522   2.681   1.375   8.125  0.1165 -0.7487 -0.0220
  538MOL0     C72523   2.747   1.496   8.088 -0.8655 -0.0023 -0.7807
  538MOL0     C72524   2.892   1.503   8.107  0.0870  1.0225  0.5795
  538MOL0     O72525   2.947   1.624   8.134  0.3286  0.8444 -0.8838
  538MOL0     C72526   3.074   1.630   8.180  0.0861  1.4532  0.3095
  538MOL0     C72527   3.140   1.750   8.154 -0.6285  0.7540  0.0771
  538MOL0     C72528   3.261   1.775   8.211 -0.6642 -0.3553 -0.2682
  538MOL0     C72529   3.325   1.688   8.297  0.6154  0.0955  0.1699
  538MOL0     O72530   3.447   1.709   8.372 -0.2290 -0.1759 -0.3211
  538MOL0     C72531   3.515   1.837   8.364  0.6724  0.7662 -0.4650
  538MOL0     C72532   3.642   1.819   8.444  0.0741  0.2416  0.0568
  538MOL0     C72533   3.719   1.942   8.473 -0.4343 -0.0474  0.2409
  538MOL0     C72534   3.853   1.893   8.536  0.3090 -0.1523  0.4383
  538MOL0     C72535   3.931   2.004   8.601 -0.1167  0.1338  0.5174
  538MOL0     C72536   4.072   1.954   8.658 -0.7551  0.2013 -0.1387
  538MOL0     C72537   4.155   2.073   8.697 -0.7457 -0.6880  0.3062
  538MOL0     C72538   4.293   2.019   8.752  1.0732  0.1544  0.2349
  538MOL0    Cl72539   4.412   2.037   8.618  0.1445 -0.2791 -0.0311
  538MOL0     C72540   3.265   1.562   8.314 -0.7245  0.0249  0.1906
  538MOL0     C72541   3.144   1.536   8.259  0.5685  0.5075  1.2316
  538MOL0     O72542   2.957   1.393   8.109  0.1470 -0.2222  1.2969
  538MOL0     C72543   2.675   1.604   8.035  0.0353  1.0731  0.8162
  538MOL0     C72544   2.534   1.592   8.026 -0.0621 -0.3728 -0.8530
  538MOL0     N72545   1.961   1.932   8.248 -0.3527 -0.3604  0.5033
  538MOL0     N72546   1.927   2.015   8.340  0.2337  0.1541 -0.4189
  538MOL0     C72547   1.302   2.078   8.966  0.0393 -0.0184  0.9292
  538MOL0     C72548   1.168   2.044   8.972  0.2545  0.0188  0.1692
  538MOL0     C72549   0.809   1.877   9.143  0.0678  0.6519 -0.8490
  538MOL0     C72550   0.829   1.746   9.191  0.2907 -0.2514  0.4650
  538MOL0     C72551   0.726   1.653   9.197  0.8863 -0.1511  0.4171
  538MOL0     C72552   0.595   1.696   9.149 -0.5903  0.0333  0.7591
  538MOL0     O72553   0.493   1.600   9.138 -0.5924 -0.2020  0.5475
  538MOL0     C72554   0.361   1.638   9.094 -0.3136 -0.2802  0.5490
  538MOL0     C72555   0.298   1.512   9.061 -0.3489 -0.8435 -0.5007
  538MOL0     C72556   0.162   1.528   8.993  0.9147 -0.2509 -0.0574
  538MOL0     C72557   0.085   1.397   8.998 -0.0400  0.1699 -0.6533
  538MOL0     C72558  -0.046   1.413   8.931  0.0873  0.1767 -0.8108
  538MOL0     C72559  -0.158   1.415   8.897 -0.2522 -0.4688  0.9418
  538MOL0     C72560   0.582   1.826   9.096  0.4257  0.0635  0.4224
  538MOL0     C72561   0.684   1.917   9.099  0.0374 -0.3963  1.2774
  538MOL0     C72562   0.655   2.058   9.065  0.2357 -0.3719  0.8082
  538MOL0     H72563   1.074   2.265   9.215  1.2837 -0.5886  1.0269
  538MOL0     H72564   1.309   2.329   9.179  0.4563 -1.0629  2.2066
  538MOL0     H72565   1.426   2.424   8.961 -0.4862  0.9668 -2.3997
  538MOL0     H72566   1.601   2.381   8.963 -0.7033 -0.3305  2.9109
  538MOL0     H72567   1.520   2.411   8.752 -0.4530  1.3455  3.6159
  538MOL0     H72568   1.377   2.309   8.768  0.3092  0.1033  0.5253
  538MOL0     H72569   1.523   2.166   8.643  0.6396 -0.9756 -0.8691
  538MOL0     H72570   1.539   2.102   8.800 -0.5685 -0.1190 -1.4308
  538MOL0     H72571   1.741   2.171   8.632 -0.5326  0.9888 -0.0401
  538MOL0     H72572   1.753   2.313   8.733  0.0948 -0.5197  4.2546
  538MOL0     H72573   1.885   2.129   8.838  0.6884 -1.0212 -3.8761
  538MOL0     H72574   1.743   2.118   8.934  1.4207  3.0057  0.7180
  538MOL0     H72575   1.846   1.917   8.847  0.9869  1.8078 -0.8130
  538MOL0     H72576   1.666   1.918   8.824 -1.5551  1.7611 -0.4637
  538MOL0     H72577   1.698   1.964   8.594 -1.4662 -0.2154  1.0049
  538MOL0     H72578   1.773   1.820   8.631 -2.4515  0.4540 -2.5886
  538MOL0     H72579   1.938   2.085   8.589 -2.5590  0.1941 -1.4809
  538MOL0     H72580   2.005   1.925   8.643  0.5056 -2.0288 -2.8247
  538MOL0     H72581   1.952   1.714   8.483 -1.5555 -1.1142  0.1011
  538MOL0     H72582   1.893   1.608   8.227 -2.8417  1.9953 -1.3865
  538MOL0     H72583   1.964   1.690   8.088  0.4657 -0.0129 -0.2494
  538MOL0     H72584   2.183   1.685   8.168 -0.9184  0.4171  1.3596
  538MOL0     H72585   2.137   1.601   8.319 -2.1308  1.1620  1.0524
  538MOL0     H72586   2.065   1.471   8.062  2.3547 -0.4458 -0.9000
  538MOL0     H72587   2.072   1.390   8.217  2.2500 -0.0038  2.8258
  538MOL0     H72588   2.270   1.302   8.135  2.5663  0.0479 -0.5865
  538MOL0     H72589   2.309   1.439   8.236 -0.6210 -2.3274  0.9826
  538MOL0     H72590   2.488   1.273   8.125 -1.9881  0.4357 -3.6369
  538MOL0     H72591   2.729   1.283   8.156 -1.6162 -1.8330 -0.4101
  538MOL0     H72592   3.098   1.829   8.092  1.0663  1.6674  0.0483
  538MOL0     H72593   3.308   1.870   8.188 -1.1177  0.2583  1.2359
  538MOL0     H72594   3.549   1.851   8.261  2.1903 -1.4988 -0.3509
  538MOL0     H72595   3.457   1.922   8.400  0.7743  1.4893 -1.9634
  538MOL0     H72596   3.611   1.787   8.544 -0.0129  1.7046  0.5359
  538MOL0     H72597   3.701   1.739   8.399  0.1767  0.8191 -0.8542
  538MOL0     H72598   3.735   2.007   8.386  0.8257 -0.1462  0.3757
  538MOL0     H72599   3.658   1.999   8.543 -0.8042  2.3152 -1.8439
  538MOL0     H72600   3.916   1.855   8.455  0.4437 -0.1125  0.5226
  538MOL0     H72601   3.839   1.808   8.605  1.1465 -1.1363 -0.5714
  538MOL0     H72602   3.872   2.048   8.682  1.1527 -0.8416  2.0235
  538MOL0     H72603   3.944   2.074   8.517 -1.1066  0.0390  0.2799
  538MOL0     H72604   4.061   1.889   8.745 -0.8634 -0.3867 -0.5803
  538MOL0     H72605   4.131   1.894   8.588  1.7722  1.9136  0.3956
  538MOL0     H72606   4.097   2.116   8.779 -0.6448  2.0575 -0.9641
  538MOL0     H72607   4.164   2.152   8.622 -0.6028 -1.7316 -0.8094
  538MOL0     H72608   4.331   2.077   8.837  1.0342 -0.4532  0.6763
  538MOL0     H72609   4.277   1.914   8.781  4.4055 -1.3201 -2.5244
  538MOL0     H72610   3.310   1.484   8.375  2.4912 -0.9849 -3.0751
  538MOL0     H72611   3.104   1.439   8.286  1.1598 -1.1428 -3.1735
  538MOL0     H72612   2.726   1.694   8.004  0.6064  0.7633  0.8487
  538MOL0     H72613   2.481   1.676   7.983 -0.1722 -0.7837 -1.5424
  538MOL0     H72614   1.372   2.023   8.904 -1.0023  0.1956 -0.4765
  538MOL0     H72615   1.144   1.949   8.925  2.5631 -0.4718 -0.1120
  538MOL0     H72616   0.920   1.730   9.247 -0.7000  2.9573  3.3553
  538MOL0     H72617   0.735   1.557   9.247 -1.5062 -0.2899  0.7217
  538MOL0     H72618   0.369   1.693   9.000  3.4444 -1.6860 -0.1274
  538MOL0     H72619   0.315   1.698   9.174  0.5736  0.0529  0.8256
  538MOL0     H72620   0.291   1.462   9.158  4.0151  0.6806  0.8688
  538MOL0     H72621   0.359   1.445   8.999 -1.6178 -2.6913  0.1662
  538MOL0     H72622   0.178   1.551   8.887 -0.4402  0.1372 -0.1919
  538MOL0     H72623   0.110   1.612   9.040  1.1725  0.7502 -1.4897
  538MOL0     H72624   0.144   1.333   8.931 -3.3192 -1.4859 -2.2286
  538MOL0     H72625   0.073   1.347   9.095 -1.6214  1.1081 -0.3303
  538MOL0     H72626  -0.260   1.420   8.865 -0.2148 -1.0866  0.7067
  538MOL0     H72627   0.491   1.870   9.056  0.3043  1.1422  1.8055
  538MOL0     H72628   0.554   2.067   9.024  0.8848 -1.4393 -1.1789
  538MOL0     H72629   0.666   2.117   9.157 -1.1486 -1.1482  1.5089
  538MOL0     H72630   0.720   2.102   8.990 -0.0031  1.6585  1.7337
  539MOL0     O72631   3.405   1.937   1.844  0.4295  0.3711  0.1568
  539MOL0     C72632   3.428   1.861   1.750 -0.1154 -0.5048 -0.4969
  539MOL0     O72633   3.545   1.823   1.710 -0.5221 -0.3303  0.5597
  539MOL0     C72634   3.655   1.842   1.791  0.0412 -0.6963  0.7542
  539MOL0     C72635   3.698   1.968   1.837  0.5061  0.4460  1.1920
  539MOL0     C72636   3.814   1.983   1.916  0.7687 -0.8945 -0.2586
  539MOL0     C72637   3.894   1.876   1.944  0.8345  0.8943 -0.9290
  539MOL0     O72638   4.008   1.893   2.018 -0.3835  0.1274  0.3117
  539MOL0     C72639   4.028   1.811   2.137  0.5805  1.0269  1.3333
  539MOL0     C72640   4.122   1.884   2.239  0.5190  0.2687  0.0855
  539MOL0     C72641   4.268   1.905   2.194  0.2120  0.0605 -0.5660
  539MOL0     C72642   4.361   1.890   2.306  0.4826  0.7095  0.0623
  539MOL0     C72643   4.499   1.953   2.282  0.0464 -0.1863  0.3952
  539MOL0     C72644   4.601   1.918   2.384 -0.5720  0.3787  0.0008
  539MOL0     C72645   4.727   2.001   2.375 -0.8127  0.4177  0.3299
  539MOL0     C72646   4.826   1.961   2.478  0.4209 -0.3468 -0.1872
  539MOL0     N72647   4.921   1.859   2.436 -0.0319 -0.0629 -0.3839
  539MOL0     C72648   5.017   1.802   2.514 -0.6903  0.0811 -0.5060
  539MOL0     C72649   5.053   1.688   2.461 -0.1639 -0.8968  0.7298
  539MOL0     C72650   5.158   1.600   2.513 -1.1142 -0.1599  0.9567
  539MOL0     C72651   5.298   1.641   2.484 -0.3982 -0.0498  0.2643
  539MOL0     C72652   5.420   1.551   2.530 -0.7535 -0.5453 -0.0642
  539MOL0     C72653   5.561   1.607   2.479 -0.0170 -0.2184  0.7521
  539MOL0     O72654   5.596   1.720   2.556  0.3071  0.1094 -0.5068
  539MOL0     C72655   5.707   1.795   2.528  0.3030  0.2820  0.6211
  539MOL0     C72656   5.760   1.881   2.626 -0.8241 -0.3431 -1.4908
  539MOL0     C72657   5.864   1.965   2.603  0.3232 -0.3840  0.1879
  539MOL0     C72658   5.921   1.982   2.469 -0.1202  1.2602 -0.4186
  539MOL0     C72659   6.042   2.068   2.443 -0.0872  0.3603 -0.3758
  539MOL0     O72660   6.108   2.050   2.326  0.2798 -0.0879  0.2665
  539MOL0     C72661   6.186   2.146   2.276 -0.2329 -0.4763  0.3415
  539MOL0     C72662   6.301   2.179   2.349  0.4796 -0.6637 -0.1664
  539MOL0     C72663   6.385   2.280   2.300  0.0717 -0.1350 -0.0557
  539MOL0     C72664   6.375   2.335   2.173  0.9030  0.4563 -0.0540
  539MOL0     O72665   6.466   2.426   2.137  0.1010  0.0521 -0.6635
  539MOL0     C72666   6.433   2.525   2.041 -0.0437 -1.1509  0.5062
  539MOL0     C72667   6.540   2.629   2.042 -0.7394 -0.5552  0.1548
  539MOL0     C72668   6.658   2.560   1.975 -0.1535 -0.8432 -0.2513
  539MOL0     C72669   6.772   2.656   1.946 -0.0622  0.1262 -0.6226
  539MOL0     C72670   6.903   2.593   1.889 -0.4423  0.3378  0.3758
  539MOL0     C72671   7.007   2.713   1.888 -0.1376 -0.1227 -0.3612
  539MOL0     C72672   7.128   2.667   1.815  0.7542  0.2419 -0.2955
  539MOL0     C72673   7.203   2.781   1.757 -0.0867 -0.6497  0.7866
  539MOL0    Cl72674   7.235   2.909   1.868  0.3398 -0.0042 -0.5448
  539MOL0     C72675   6.268   2.294   2.094 -0.5071  0.4545 -0.0275
  539MOL0     C72676   6.170   2.201   2.147 -0.2751  0.4626 -0.3212
  539MOL0     O72677   6.068   2.162   2.523 -0.2147  0.1021  0.8426
  539MOL0     C72678   5.880   1.890   2.373 -0.0790  0.0117  0.4110
  539MOL0     C72679   5.769   1.799   2.405 -0.6254  0.0598 -0.1913
  539MOL0     N72680   4.975   1.670   2.342  0.3290 -0.2946 -0.2659
  539MOL0     N72681   4.901   1.776   2.333 -0.4050  0.0181  0.3977
  539MOL0     C72682   3.850   1.750   1.901  0.1061  0.0876  0.5750
  539MOL0     C72683   3.732   1.737   1.829  0.5692 -0.0053 -0.5851
  539MOL0     C72684   3.313   1.812   1.668  0.2297  0.0259  0.1751
  539MOL0     C72685   3.187   1.879   1.678  0.7022 -0.2810  0.8733
  539MOL0     C72686   3.068   1.837   1.618  0.3770 -0.3990 -0.6599
  539MOL0     C72687   3.058   1.726   1.541 -0.6694 -0.2129 -1.0823
  539MOL0     O72688   2.933   1.697   1.491  0.4182 -0.1743 -0.0972
  539MOL0     C72689   2.918   1.580   1.418 -0.5265  0.0782  0.7863
  539MOL0     C72690   2.780   1.573   1.345 -0.1770  0.0934  1.5694
  539MOL0     C72691   2.742   1.434   1.277 -0.2845  0.7684  1.0675
  539MOL0     C72692   2.602   1.441   1.215 -0.4811 -0.2878 -0.3857
  539MOL0     C72693   2.606   1.536   1.102  0.7765  0.4321 -0.5763
  539MOL0     C72694   2.613   1.625   1.017 -0.4562  0.8143 -0.1703
  539MOL0     C72695   3.180   1.663   1.526  0.3530  0.4864 -0.5183
  539MOL0     C72696   3.303   1.702   1.583  0.6221  0.2039  0.5808
  539MOL0     C72697   3.419   1.609   1.549 -1.1139 -0.0183  1.2048
  539MOL0     H72698   3.637   2.057   1.821 -1.4790 -0.4276  3.3460
  539MOL0     H72699   3.831   2.083   1.953  0.0707 -1.3150  1.2608
  539MOL0     H72700   3.928   1.790   2.177 -0.1954 -0.9491 -1.3698
  539MOL0     H72701   4.079   1.719   2.109 -0.4273  0.4090  1.4669
  539MOL0     H72702   4.123   1.830   2.334 -2.4358 -2.1711 -1.1154
  539MOL0     H72703   4.079   1.982   2.263  2.6974  0.8823  1.8756
  539MOL0     H72704   4.280   2.009   2.164 -2.1182  0.7515  0.6327
  539MOL0     H72705   4.292   1.836   2.112  2.0811  1.9014 -1.6675
  539MOL0     H72706   4.313   1.940   2.391  0.0090  0.6094 -0.1449
  539MOL0     H72707   4.377   1.782   2.316 -2.3254  0.0803 -1.3995
  539MOL0     H72708   4.538   1.924   2.184 -0.6154 -0.4141  0.1949
  539MOL0     H72709   4.484   2.061   2.290 -2.6039 -0.5939  2.0145
  539MOL0     H72710   4.552   1.928   2.482 -0.3354 -0.8941  0.2728
  539MOL0     H72711   4.640   1.816   2.375  2.0937  0.7482  4.5076
  539MOL0     H72712   4.721   2.110   2.387  2.3350  0.9960 -1.9484
  539MOL0     H72713   4.769   1.982   2.275  0.7646 -1.0045  1.2032
  539MOL0     H72714   4.886   2.046   2.510 -2.2264  0.2761  3.8487
  539MOL0     H72715   4.773   1.934   2.570  1.2028  0.8582  0.6438
  539MOL0     H72716   5.052   1.841   2.609 -2.8904 -1.3304  0.9628
  539MOL0     H72717   5.150   1.579   2.620  1.0587 -0.5039  1.1013
  539MOL0     H72718   5.149   1.505   2.458 -1.5456  0.0874  0.5920
  539MOL0     H72719   5.307   1.644   2.375  3.4085 -0.4797  0.4519
  539MOL0     H72720   5.319   1.744   2.514  1.3700 -0.1312 -0.5614
  539MOL0     H72721   5.416   1.450   2.486  0.8309 -1.1047  0.9677
  539MOL0     H72722   5.422   1.541   2.639 -3.3338  0.9870  0.1783
  539MOL0     H72723   5.546   1.634   2.374 -2.4610 -0.1518  1.0436
  539MOL0     H72724   5.639   1.532   2.492  2.3828  2.1800  0.8482
  539MOL0     H72725   5.721   1.870   2.727  1.0812  1.4779 -0.4785
  539MOL0     H72726   5.896   2.026   2.686  0.8990  1.6739 -1.4433
  539MOL0     H72727   6.308   2.138   2.449  2.2336  0.5773  0.2631
  539MOL0     H72728   6.469   2.314   2.360  0.2720 -0.4543 -0.1526
  539MOL0     H72729   6.428   2.477   1.943  0.6277 -1.4463  0.6127
  539MOL0     H72730   6.337   2.573   2.062  0.1490  0.3830 -1.8582
  539MOL0     H72731   6.509   2.719   1.989 -1.4604  1.0285  3.0359
  539MOL0     H72732   6.575   2.649   2.143  2.2487 -4.3460  0.0976
  539MOL0     H72733   6.702   2.481   2.037  0.9748  0.9869  1.4073
  539MOL0     H72734   6.632   2.523   1.876  1.6960 -0.8030 -0.7844
  539MOL0     H72735   6.806   2.691   2.044 -1.8252  2.3373 -0.7144
  539MOL0     H72736   6.737   2.745   1.892  1.0064  0.8520 -0.1505
  539MOL0     H72737   6.875   2.562   1.788  0.2138  0.6654  0.0833
  539MOL0     H72738   6.934   2.501   1.939 -0.3982 -0.0792 -0.3958
  539MOL0     H72739   6.962   2.797   1.834 -0.2072  0.4699  0.6012
  539MOL0     H72740   7.041   2.752   1.985  0.3094 -0.5108 -0.3599
  539MOL0     H72741   7.106   2.604   1.729 -2.1045  1.4020 -0.5385
  539MOL0     H72742   7.192   2.617   1.888 -1.3620 -2.1707  0.0468
  539MOL0     H72743   7.295   2.751   1.705 -1.6793  1.0449 -3.3930
  539MOL0     H72744   7.132   2.815   1.682 -1.4486 -2.2157  1.3087
  539MOL0     H72745   6.247   2.327   1.993 -1.7901  0.0042  0.0760
  539MOL0     H72746   6.086   2.168   2.087  0.1392 -1.8839  0.2563
  539MOL0     H72747   5.929   1.893   2.276  1.5311  0.3654  1.1873
  539MOL0     H72748   5.748   1.732   2.323 -3.2734 -0.3446  0.7303
  539MOL0     H72749   3.920   1.671   1.925  0.1277 -0.0524  0.0632
  539MOL0     H72750   3.706   1.634   1.804  1.1881 -0.3152  0.0259
  539MOL0     H72751   3.180   1.962   1.748  1.0608 -0.3495  0.9915
  539MOL0     H72752   2.977   1.890   1.641  1.0058  1.6722 -2.5998
  539MOL0     H72753   2.935   1.488   1.474  0.3995 -0.0106  0.3688
  539MOL0     H72754   2.992   1.587   1.338 -1.3331  0.6537  0.0588
  539MOL0     H72755   2.785   1.647   1.264  3.4043 -2.2487 -0.6285
  539MOL0     H72756   2.701   1.588   1.419 -1.5517 -1.8524  0.5855
  539MOL0     H72757   2.756   1.352   1.347  3.4866  0.3394  0.0550
  539MOL0     H72758   2.810   1.417   1.193  0.6001 -1.4108  2.1639
  539MOL0     H72759   2.575   1.342   1.177 -2.5894 -1.0783  2.7917
  539MOL0     H72760   2.532   1.471   1.293 -0.2535  0.8748 -0.6094
  539MOL0     H72761   2.612   1.696   0.936  0.5004 -0.1727 -1.0781
  539MOL0     H72762   3.174   1.575   1.462 -1.7189  0.4563 -0.3710
  539MOL0     H72763   3.480   1.589   1.637  2.2617 -0.2677 -0.9927
  539MOL0     H72764   3.385   1.511   1.512 -0.7792  0.3954 -0.2631
  539MOL0     H72765   3.494   1.653   1.483  0.3024 -0.3205  2.5554
  540MOL0     O72766   6.395   1.193   9.910 -1.1019 -0.1524  0.3701
  540MOL0     C72767   6.327   1.227  10.008 -0.4763  1.3075  0.7162
  540MOL0     O72768   6.360   1.311  10.111 -0.6743 -0.6102  0.5143
  540MOL0     C72769   6.488   1.351  10.127 -0.3229 -0.1150  0.1498
  540MOL0     C72770   6.527   1.468  10.061  0.5763 -0.7961 -0.6206
  540MOL0     C72771   6.656   1.513  10.074 -0.3256 -0.3664  0.0587
  540MOL0     C72772   6.752   1.434  10.138 -0.1052  0.0517  0.5148
  540MOL0     O72773   6.886   1.460  10.140  0.2200  0.4443 -0.2716
  540MOL0     C72774   6.927   1.580  10.076 -0.4356 -0.7459  1.1797
  540MOL0     C72775   7.071   1.612  10.108 -0.2522  0.6390 -0.4466
  540MOL0     C72776   7.101   1.762  10.100  0.1689  0.4776  0.3404
  540MOL0     C72777   7.227   1.796  10.014  0.2986 -0.7885  0.1456
  540MOL0     C72778   7.222   1.733   9.871 -0.8845  0.7575  0.0972
  540MOL0     C72779   7.317   1.806   9.771  1.0739  0.1462  0.0100
  540MOL0     C72780   7.456   1.823   9.839 -0.0296  0.0803 -0.4926
  540MOL0     C72781   7.574   1.846   9.728 -0.2795  0.3750 -0.4174
  540MOL0     N72782   7.703   1.833   9.791  0.8018  0.0847 -0.8799
  540MOL0     C72783   7.820   1.868   9.726 -0.0630 -0.6588 -0.0118
  540MOL0     C72784   7.918   1.857   9.821  0.4410  0.0339  0.2354
  540MOL0     C72785   8.069   1.879   9.813 -0.2794  0.1399 -0.5129
  540MOL0     C72786   8.111   2.024   9.808  0.4686 -0.2787 -0.1031
  540MOL0     C72787   8.072   2.094   9.682 -0.3432 -0.0738  0.0588
  540MOL0     C72788   8.114   2.034   9.551 -0.0251 -0.3538 -0.1301
  540MOL0     O72789   8.255   2.001   9.558 -0.2441 -0.2671 -0.1354
  540MOL0     C72790   8.319   1.956   9.450  0.7753  0.8437  0.7864
  540MOL0     C72791   8.269   1.950   9.317 -0.3838  0.5810 -0.6942
  540MOL0     C72792   8.355   1.912   9.206  0.6370 -1.2321 -0.2655
  540MOL0     C72793   8.493   1.902   9.231  0.2351 -0.0403 -1.2175
  540MOL0     C72794   8.583   1.889   9.125 -0.6260  0.0164 -0.3821
  540MOL0     O72795   8.714   1.869   9.159 -0.1514  0.1695  0.5458
  540MOL0     C72796   8.813   1.826   9.074  0.5932  0.4430  0.0271
  540MOL0     C72797   8.935   1.890   9.088  0.3903 -0.5478  0.3932
  540MOL0     C72798   9.042   1.857   9.005 -0.6343  0.5412  0.3195
  540MOL0     C72799   9.039   1.755   8.915 -0.1942 -0.4045  0.3665
  540MOL0     O72800   9.136   1.724   8.824  0.4954 -0.6582  0.1448
  540MOL0     C72801   9.268   1.715   8.883 -0.1112 -0.9157  0.2758
  540MOL0     C72802   9.354   1.623   8.801 -0.2213  0.1398  0.1444
  540MOL0     C72803   9.492   1.629   8.855  0.4029  0.2025  0.3947
  540MOL0     C72804   9.591   1.561   8.752  0.0631  0.3919 -0.4394
  540MOL0     C72805   9.737   1.578   8.795  0.7922  0.5134  0.3348
  540MOL0     C72806   9.820   1.571   8.675  0.0532  0.3633  0.3834
  540MOL0     C72807   9.970   1.606   8.697  0.0146  0.5259  0.5001
  540MOL0     C72808  10.000   1.753   8.741 -0.0995 -0.0533 -0.3293
  540MOL0    Cl72809   9.977   1.773   8.923  0.1910  0.1009 -0.1489
  540MOL0     C72810   8.917   1.691   8.895 -0.6305  1.2058 -0.0994
  540MOL0     C72811   8.806   1.721   8.976  0.3638 -0.4721  0.3374
  540MOL0     O72812   8.531   1.889   9.016  0.1277 -0.1233 -0.0804
  540MOL0     C72813   8.536   1.895   9.365  0.2081 -0.7791  0.0892
  540MOL0     C72814   8.445   1.910   9.469 -0.3799 -0.8357 -0.6835
  540MOL0     N72815   7.856   1.805   9.938  0.4211 -0.3732  0.5137
  540MOL0     N72816   7.729   1.779   9.918 -0.0848  0.2881  0.4728
  540MOL0     C72817   6.715   1.312  10.192 -0.4572  0.2361  0.7069
  540MOL0     C72818   6.582   1.272  10.188 -0.6265  0.7340 -0.4240
  540MOL0     C72819   6.189   1.180  10.029 -0.5002  0.2724  0.3431
  540MOL0     C72820   6.104   1.245  10.119 -0.5042  0.0696 -0.0336
  540MOL0     C72821   5.967   1.210  10.135  0.0750 -0.6370 -0.4385
  540MOL0     C72822   5.918   1.093  10.082  0.2990 -1.0026 -0.0502
  540MOL0     O72823   5.788   1.060  10.118 -0.0327  0.0896 -0.8873
  540MOL0     C72824   5.718   0.944  10.061 -0.4596 -0.5900 -0.3650
  540MOL0     C72825   5.680   0.968   9.916  0.2881 -0.8279 -0.5927
  540MOL0     C72826   5.571   1.076   9.923 -0.1931  0.4261 -0.0745
  540MOL0     C72827   5.473   1.069   9.802  0.1511  0.5766  0.6416
  540MOL0     C72828   5.404   0.937   9.801  0.5695 -0.6050  0.7734
  540MOL0     C72829   5.342   0.828   9.789 -0.0170  0.2024 -0.5079
  540MOL0     C72830   5.999   1.026   9.998 -0.5288  1.3445 -0.1520
  540MOL0     C72831   6.132   1.066   9.968 -0.0511  0.2561  0.8077
  540MOL0     C72832   6.211   0.986   9.878 -1.0955  0.1431 -0.6432
  540MOL0     H72833   6.451   1.518  10.002  0.9867  0.6331  0.0097
  540MOL0     H72834   6.678   1.609  10.029  0.4832 -0.4474  0.2662
  540MOL0     H72835   6.922   1.565   9.968 -0.6354 -0.3250  1.1270
  540MOL0     H72836   6.869   1.668  10.104 -1.6522 -1.4408  0.8988
  540MOL0     H72837   7.139   1.552  10.047  0.4802  0.4678  0.5092
  540MOL0     H72838   7.096   1.581  10.210 -0.4643  3.0495  0.4129
  540MOL0     H72839   7.113   1.804  10.200  2.1019  0.8023  0.0151
  540MOL0     H72840   7.020   1.812  10.045  0.9267  2.3016  0.7810
  540MOL0     H72841   7.225   1.906  10.019  2.2345 -0.7220  0.0599
  540MOL0     H72842   7.319   1.757  10.057  1.4795  2.0098  0.4028
  540MOL0     H72843   7.250   1.627   9.870 -3.0706  0.1230 -0.2584
  540MOL0     H72844   7.120   1.733   9.831 -0.8922 -1.3561 -0.0056
  540MOL0     H72845   7.326   1.752   9.676 -1.9939  3.7914 -2.6716
  540MOL0     H72846   7.285   1.907   9.747  2.2603  0.4221 -0.5091
  540MOL0     H72847   7.471   1.725   9.886  1.0735 -0.9865 -2.8656
  540MOL0     H72848   7.456   1.906   9.909  1.1273 -0.1610 -0.2011
  540MOL0     H72849   7.561   1.776   9.645 -0.7336  1.9441 -1.7227
  540MOL0     H72850   7.572   1.945   9.681  2.2557  1.4216  1.4579
  540MOL0     H72851   7.837   1.904   9.625  1.1300  0.4012  0.5371
  540MOL0     H72852   8.122   1.833   9.896  1.1610  1.3980 -0.6909
  540MOL0     H72853   8.107   1.822   9.728  0.5902 -1.8743  1.1582
  540MOL0     H72854   8.064   2.086   9.885  1.0099  0.8256 -0.6352
  540MOL0     H72855   8.217   2.044   9.826  0.4220  2.6857 -2.3492
  540MOL0     H72856   8.107   2.197   9.686 -1.6399  0.4046 -0.5053
  540MOL0     H72857   7.965   2.097   9.662 -0.2982 -2.0393 -0.7038
  540MOL0     H72858   8.084   2.104   9.472  0.4357 -0.7775 -0.6880
  540MOL0     H72859   8.060   1.941   9.533 -2.3314  1.1568 -1.5285
  540MOL0     H72860   8.164   1.969   9.297 -0.9166 -1.9709 -0.7368
  540MOL0     H72861   8.313   1.911   9.106  1.2199 -1.8715 -0.5070
  540MOL0     H72862   8.940   1.977   9.153  0.1005  0.1897 -0.5550
  540MOL0     H72863   9.134   1.914   9.014  0.8518 -1.6657 -0.2130
  540MOL0     H72864   9.314   1.814   8.885 -2.0665  0.0381  0.7910
  540MOL0     H72865   9.271   1.685   8.988  1.6493 -1.8437 -0.0058
  540MOL0     H72866   9.322   1.519   8.804  2.0028 -0.6334 -0.7400
  540MOL0     H72867   9.346   1.657   8.698  1.8340  0.3708  0.0072
  540MOL0     H72868   9.519   1.734   8.871  1.0482  0.3844 -1.6361
  540MOL0     H72869   9.499   1.579   8.951 -0.0163 -0.3802  0.1240
  540MOL0     H72870   9.562   1.594   8.652 -0.2070 -0.6652 -0.7192
  540MOL0     H72871   9.562   1.456   8.743 -0.9241  0.5578  0.4994
  540MOL0     H72872   9.771   1.503   8.866 -0.4783  1.2651  1.8093
  540MOL0     H72873   9.746   1.682   8.828  2.5715  0.3663  0.3990
  540MOL0     H72874   9.826   1.470   8.633 -2.2714  0.2794  0.1304
  540MOL0     H72875   9.780   1.631   8.593 -0.4375  0.7984  0.9341
  540MOL0     H72876  10.013   1.598   8.597  0.1156 -0.5848  0.6173
  540MOL0     H72877  10.020   1.541   8.769 -0.6848 -0.1401  0.4011
  540MOL0     H72878  10.105   1.759   8.714  0.2015 -1.6686  0.4017
  540MOL0     H72879   9.939   1.832   8.694  1.0768  0.1455 -1.5697
  540MOL0     H72880   8.907   1.609   8.826  1.0466  0.0598  0.9597
  540MOL0     H72881   8.711   1.671   8.967 -0.4168  0.9673  0.2255
  540MOL0     H72882   8.638   1.886   9.402  0.2398 -3.3307 -0.4040
  540MOL0     H72883   8.468   1.921   9.575 -2.7398  0.1817 -0.2197
  540MOL0     H72884   6.785   1.241  10.235 -0.1161  0.5945  0.7478
  540MOL0     H72885   6.563   1.180  10.242  2.4388  0.6757  0.7139
  540MOL0     H72886   6.134   1.329  10.181 -1.9637  0.7491 -0.2017
  540MOL0     H72887   5.901   1.259  10.205  0.8084  2.0206 -1.4841
  540MOL0     H72888   5.637   0.907  10.125  0.0250 -0.2900  0.4405
  540MOL0     H72889   5.790   0.862  10.072  0.4702  0.3288  0.7843
  540MOL0     H72890   5.640   0.872   9.882 -2.6002  0.1648 -0.3377
  540MOL0     H72891   5.763   1.007   9.857 -0.8459  3.5878  0.3731
  540MOL0     H72892   5.615   1.176   9.926  2.3283 -0.6240  0.4537
  540MOL0     H72893   5.501   1.070  10.007 -1.4478  2.8873 -0.8276
  540MOL0     H72894   5.403   1.153   9.813 -0.6250 -0.0338  0.4828
  540MOL0     H72895   5.536   1.085   9.714  0.6288  0.3696  0.9423
  540MOL0     H72896   5.287   0.737   9.788 -2.3711  1.5102  1.0712
  540MOL0     H72897   5.970   0.930   9.959  2.9641 -0.9364  2.2712
  540MOL0     H72898   6.305   0.948   9.919 -1.6194  0.6181  1.0578
  540MOL0     H72899   6.158   0.894   9.852 -0.7959  0.0024 -0.7677
  540MOL0     H72900   6.221   1.036   9.781  1.4499 -1.1724 -1.1580
  541MOL0     O72901  10.081  10.961  10.468  0.3516 -0.0933  0.0340
  541MOL0     C72902   9.979  10.952  10.536 -0.7274 -0.1811 -0.3091
  541MOL0     O72903   9.978  10.880  10.656 -0.2679 -0.0019 -0.1441
  541MOL0     C72904  10.089  10.817  10.712 -0.3471 -0.4874 -0.1901
  541MOL0     C72905  10.084  10.684  10.753 -0.6082 -0.1219  0.0778
  541MOL0     C72906  10.194  10.613  10.804 -1.0603 -0.0342  0.2022
  541MOL0     C72907  10.325  10.673  10.811  0.2636 -0.0609 -0.4439
  541MOL0     O72908  10.438  10.615  10.856  0.5863 -0.8078  0.1091
  541MOL0     C72909  10.488  10.673  10.983 -0.0357 -0.0478 -0.9200
  541MOL0     C72910  10.626  10.601  11.022 -0.5516 -0.1202 -0.2787
  541MOL0     C72911  10.683  10.660  11.151  0.6943 -0.7847  0.1363
  541MOL0     C72912  10.830  10.613  11.179 -0.6024 -0.4199  0.0392
  541MOL0     C72913  10.854  10.639  11.339  0.7798  0.2255  0.1222
  541MOL0     C72914  10.993  10.634  11.397 -1.2728 -0.7495  0.3394
  541MOL0     C72915  11.089  10.515  11.352 -0.2322  0.2147 -0.2122
  541MOL0     C72916  11.225  10.530  11.403 -0.9163  0.4195  0.2896
  541MOL0     N72917  11.320  10.420  11.367 -0.5205 -0.1854  0.5785
  541MOL0     C72918  11.385  10.411  11.245  0.3776  0.2936  0.0418
  541MOL0     C72919  11.471  10.314  11.264  0.4065  0.3066 -0.9562
  541MOL0     C72920  11.578  10.272  11.169 -0.0830 -0.8034 -0.1263
  541MOL0     C72921  11.705  10.350  11.185 -0.7538  0.2544 -0.6995
  541MOL0     C72922  11.789  10.303  11.304 -0.1927  0.4412  0.1404
  541MOL0     C72923  11.794  10.152  11.328 -1.0719  0.1134  0.4140
  541MOL0     O72924  11.829  10.093  11.208  0.3356  0.1742  0.0840
  541MOL0     C72925  11.958  10.046  11.213  0.0490  0.0387  0.7259
  541MOL0     C72926  11.989   9.919  11.269  0.7618 -0.0287  0.0870
  541MOL0     C72927  12.118   9.862  11.269 -0.0797  0.0178  0.2968
  541MOL0     C72928  12.227   9.932  11.211  0.1935 -0.4244  0.5562
  541MOL0     C72929  12.362   9.881  11.200  0.5487  1.0435  0.8227
  541MOL0     O72930  12.458   9.977  11.212  0.2207 -0.6668 -0.1691
  541MOL0     C72931  12.582   9.923  11.190  0.0788 -0.3094 -0.4392
  541MOL0     C72932  12.640   9.812  11.259 -0.0540  0.0741 -0.1053
  541MOL0     C72933  12.770   9.763  11.223  0.0659 -1.3914 -0.0794
  541MOL0     C72934  12.842   9.815  11.114  0.4763 -0.2450 -0.1398
  541MOL0     O72935  12.966   9.756  11.085 -0.2176  0.0721 -0.1304
  541MOL0     C72936  13.007   9.772  10.944 -0.1988  0.2282 -0.0328
  541MOL0     C72937  13.155   9.732  10.945 -0.4356 -0.0979 -0.1616
  541MOL0     C72938  13.198   9.593  10.993 -0.3214  0.2466 -0.5876
  541MOL0     C72939  13.350   9.568  11.013 -0.4408 -1.1073  0.2863
  541MOL0     C72940  13.380   9.424  11.060  0.5294 -0.8097  0.3540
  541MOL0     C72941  13.528   9.389  11.093 -0.1176 -0.5119  0.0427
  541MOL0     C72942  13.627   9.435  10.974 -0.9095 -0.1830  0.0856
  541MOL0     C72943  13.766   9.364  10.980 -0.2139 -0.0703  0.4155
  541MOL0    Cl72944  13.867   9.403  10.845 -0.0712 -0.1554 -0.2711
  541MOL0     C72945  12.780   9.922  11.051 -1.0599 -0.0724 -0.2153
  541MOL0     C72946  12.656   9.976  11.086 -0.0868  0.2113 -0.1648
  541MOL0     O72947  12.382   9.761  11.178  0.0476 -0.1806 -0.0233
  541MOL0     C72948  12.199  10.056  11.163  0.0154 -0.9871 -0.4571
  541MOL0     C72949  12.069  10.112  11.160  0.1350  0.0768  0.0932
  541MOL0     N72950  11.456  10.258  11.391 -0.5508  0.1330  0.0281
  541MOL0     N72951  11.364  10.319  11.447  0.9429  0.3541 -0.0174
  541MOL0     C72952  10.325  10.809  10.771 -0.5995  0.1768 -0.3285
  541MOL0     C72953  10.210  10.881  10.728 -0.4423  0.0877  0.5389
  541MOL0     C72954   9.853  11.006  10.488 -0.6892 -0.1149  0.2956
  541MOL0     C72955   9.743  11.002  10.568 -0.2414 -0.1828  0.6135
  541MOL0     C72956   9.617  11.048  10.518  0.0680 -0.3995  0.1485
  541MOL0     C72957   9.599  11.103  10.394  0.5308  0.5865  0.1219
  541MOL0     O72958   9.474  11.144  10.362  0.4426 -0.6828 -0.8241
  541MOL0     C72959   9.450  11.192  10.230  0.1696 -0.3826  0.5096
  541MOL0     C72960   9.299  11.185  10.211  0.3317 -0.7704  0.7901
  541MOL0     C72961   9.226  11.279  10.298 -0.3433  0.3413 -0.3486
  541MOL0     C72962   9.125  11.207  10.388 -0.6623 -0.1474  0.9925
  541MOL0     C72963   9.017  11.293  10.432 -0.7352 -0.2372 -0.0760
  541MOL0     C72964   8.923  11.366  10.454 -0.3310  0.6089  0.1053
  541MOL0     C72965   9.710  11.112  10.320 -0.5733 -0.7646  0.1083
  541MOL0     C72966   9.838  11.062  10.358 -0.3142  0.1016 -0.2705
  541MOL0     C72967   9.953  11.086  10.258 -0.3703 -0.1806  0.6081
  541MOL0     H72968   9.992  10.626  10.746  0.3499 -1.7807  0.7677
  541MOL0     H72969  10.167  10.514  10.839  0.2434 -0.5318 -0.1449
  541MOL0     H72970  10.513  10.779  10.971  0.5314 -0.0168  0.3675
  541MOL0     H72971  10.423  10.655  11.069  0.1645 -1.9471 -1.1290
  541MOL0     H72972  10.697  10.625  10.942  0.2132 -0.8262  0.1652
  541MOL0     H72973  10.623  10.492  11.033  1.3333 -0.1815 -0.0424
  541MOL0     H72974  10.620  10.635  11.236 -0.7325  2.1193  0.0450
  541MOL0     H72975  10.673  10.769  11.143  1.2935 -0.5889  1.6948
  541MOL0     H72976  10.836  10.505  11.160  2.8030  0.0395 -2.7006
  541MOL0     H72977  10.897  10.672  11.115 -1.8619  1.3764  0.3091
  541MOL0     H72978  10.806  10.734  11.364  2.2815  1.4933 -1.5119
  541MOL0     H72979  10.805  10.562  11.399 -1.4070  2.0753  0.8407
  541MOL0     H72980  11.045  10.727  11.371 -0.8013 -1.3371 -0.8595
  541MOL0     H72981  10.973  10.625  11.504 -0.5225 -1.2962  0.4419
  541MOL0     H72982  11.094  10.499  11.244 -0.1388  0.1442 -0.1978
  541MOL0     H72983  11.047  10.425  11.397 -1.0679 -0.4213 -2.1815
  541MOL0     H72984  11.278  10.619  11.366  1.2807  0.6138  3.4689
  541MOL0     H72985  11.234  10.528  11.512  0.9725 -0.4416  0.1702
  541MOL0     H72986  11.380  10.472  11.156 -1.5783  0.1748  0.0315
  541MOL0     H72987  11.598  10.164  11.176 -0.0485 -0.7625  0.4816
  541MOL0     H72988  11.546  10.289  11.066 -1.2472  0.8750  0.4834
  541MOL0     H72989  11.764  10.326  11.096 -2.1654 -1.8685 -1.1563
  541MOL0     H72990  11.693  10.458  11.174  0.2618  0.2850 -1.6940
  541MOL0     H72991  11.746  10.360  11.387 -2.4104 -0.1294 -0.5478
  541MOL0     H72992  11.891  10.338  11.288 -0.7250  2.1133  0.2709
  541MOL0     H72993  11.694  10.119  11.360 -1.5110  0.1325 -0.8997
  541MOL0     H72994  11.861  10.131  11.413  0.6125  0.7595 -0.7177
  541MOL0     H72995  11.916   9.848  11.307  1.8392  0.3842  3.1660
  541MOL0     H72996  12.110   9.772  11.329 -0.5722  1.3634  2.3538
  541MOL0     H72997  12.600   9.763  11.348  1.7976 -2.2683 -0.4754
  541MOL0     H72998  12.804   9.675  11.276 -1.5119 -0.8616  1.9224
  541MOL0     H72999  12.950   9.701  10.884  2.5603 -2.0762 -0.1006
  541MOL0     H73000  12.990   9.872  10.901 -1.4873  0.5651  1.1941
  541MOL0     H73001  13.189   9.747  10.842  1.1184 -3.1532 -0.1917
  541MOL0     H73002  13.201   9.810  11.006  0.3409 -3.3504  3.8178
  541MOL0     H73003  13.138   9.562  11.079  1.0395 -1.2673 -0.1425
  541MOL0     H73004  13.162   9.524  10.916 -0.6539  0.2958 -0.4771
  541MOL0     H73005  13.393   9.634  11.089 -1.4436 -1.0448  0.8175
  541MOL0     H73006  13.404   9.584  10.919  0.2934  0.6919  0.9763
  541MOL0     H73007  13.363   9.353  10.979  4.4990 -1.3297 -0.2348
  541MOL0     H73008  13.306   9.403  11.138 -0.2577 -1.8829 -0.6492
  541MOL0     H73009  13.557   9.435  11.187  0.0123  0.0125 -0.2508
  541MOL0     H73010  13.532   9.280  11.104 -0.8453 -0.4919  0.5388
  541MOL0     H73011  13.629   9.544  10.983  0.3054 -0.0831 -1.1069
  541MOL0     H73012  13.581   9.405  10.880  1.9804 -0.8052 -1.2267
  541MOL0     H73013  13.816   9.417  11.062  1.5751  0.2142 -0.8068
  541MOL0     H73014  13.760   9.256  10.993  1.3393 -0.5054 -1.9570
  541MOL0     H73015  12.825   9.960  10.960  0.7615 -2.6541 -0.4992
  541MOL0     H73016  12.622  10.071  11.046 -1.5191 -0.7884 -1.4476
  541MOL0     H73017  12.279  10.120  11.126 -1.7342  1.5551 -0.1543
  541MOL0     H73018  12.057  10.200  11.099  1.6384 -0.0592 -0.4336
  541MOL0     H73019  10.414  10.868  10.791 -2.1136  2.6833 -0.4997
  541MOL0     H73020  10.220  10.988  10.719 -2.3538  0.4744  2.3486
  541MOL0     H73021   9.756  10.961  10.667  1.4013  0.9336  0.8914
  541MOL0     H73022   9.540  11.048  10.595 -2.0877 -1.4993 -1.8798
  541MOL0     H73023   9.492  11.127  10.153 -1.3094 -1.2279  0.3762
  541MOL0     H73024   9.485  11.295  10.220 -1.8761  0.4967  1.6445
  541MOL0     H73025   9.261  11.083  10.214 -7.2605  1.2095 -2.2862
  541MOL0     H73026   9.276  11.211  10.107 -0.0974  2.6585  1.6081
  541MOL0     H73027   9.165  11.338  10.229  0.5689  0.3603 -1.1589
  541MOL0     H73028   9.289  11.341  10.362 -2.6642  0.2776  2.1560
  541MOL0     H73029   9.091  11.118  10.335  2.9252 -0.9120 -0.3280
  541MOL0     H73030   9.183  11.167  10.473  1.1685  2.1330  0.9052
  541MOL0     H73031   8.852  11.445  10.468 -0.9853  0.1599 -0.6080
  541MOL0     H73032   9.710  11.170  10.228 -0.7985 -0.5461  0.2451
  541MOL0     H73033  10.042  11.134  10.301  0.7581  0.9295 -2.6501
  541MOL0     H73034   9.996  10.994  10.218  1.6518  1.8274 -2.2015
  541MOL0     H73035   9.930  11.145  10.169  1.1341 -0.7913 -0.2163
  542MOL0     O73036   5.079   0.408   8.029  0.7695 -0.1626 -1.3366
  542MOL0     C73037   4.987   0.331   8.050  1.6149 -0.4062 -0.5073
  542MOL0     O73038   4.966   0.258   8.161  0.0598  0.3813  0.1422
  542MOL0     C73039   5.053   0.276   8.267 -0.3314 -0.2531  0.1877
  542MOL0     C73040   5.173   0.210   8.273 -0.1018 -0.1417 -0.1741
  542MOL0     C73041   5.252   0.210   8.394  0.0693 -0.2405  0.4531
  542MOL0     C73042   5.213   0.286   8.502 -0.5938 -0.7333 -0.6743
  542MOL0     O73043   5.298   0.304   8.611  0.2521  0.1935 -0.2528
  542MOL0     C73044   5.407   0.216   8.640 -0.2265 -0.3055 -0.2455
  542MOL0     C73045   5.428   0.199   8.784  0.0501  0.1583 -0.5937
  542MOL0     C73046   5.555   0.122   8.822  0.1230  0.1229 -0.2797
  542MOL0     C73047   5.518   0.006   8.922  0.3453  0.2629  0.1006
  542MOL0     C73048   5.648  -0.077   8.947  0.2136  0.4475  0.2191
  542MOL0     C73049   5.732  -0.023   9.063 -0.8495 -0.1967  0.2688
  542MOL0     C73050   5.865  -0.110   9.081 -0.2420  0.9758  0.6377
  542MOL0     C73051   5.929  -0.096   9.216  0.9001 -0.3102 -0.6787
  542MOL0     N73052   6.059  -0.157   9.231 -0.8282 -0.1482 -0.3569
  542MOL0     C73053   6.090  -0.272   9.295  0.6748 -0.1988  0.1966
  542MOL0     C73054   6.217  -0.263   9.335 -0.0738 -0.6986 -0.3670
  542MOL0     C73055   6.298  -0.361   9.416 -0.6424  0.3283 -0.0421
  542MOL0     C73056   6.440  -0.388   9.358 -0.0312 -1.0502 -0.2737
  542MOL0     C73057   6.511  -0.473   9.458  1.3347 -0.1802 -1.2965
  542MOL0     C73058   6.653  -0.482   9.405  0.0863  0.6426  0.0459
  542MOL0     O73059   6.737  -0.566   9.494 -0.3397  0.5785  0.0747
  542MOL0     C73060   6.870  -0.589   9.454  0.4774 -0.5625  0.6421
  542MOL0     C73061   6.917  -0.710   9.498  0.7095  1.6826 -0.2234
  542MOL0     C73062   7.047  -0.759   9.470 -0.2788 -0.0076  0.4970
  542MOL0     C73063   7.136  -0.671   9.401  0.5993 -0.8988 -0.6295
  542MOL0     C73064   7.274  -0.711   9.358 -0.9157 -0.5377 -0.4340
  542MOL0     O73065   7.340  -0.633   9.268 -0.2425  0.9275 -0.8430
  542MOL0     C73066   7.481  -0.638   9.277  0.3999  0.4015 -0.1482
  542MOL0     C73067   7.540  -0.544   9.364  0.7852  0.1722 -0.6906
  542MOL0     C73068   7.680  -0.544   9.371 -0.5068 -0.1909 -0.4207
  542MOL0     C73069   7.760  -0.637   9.298 -0.2928  0.4923  0.5069
  542MOL0     O73070   7.898  -0.634   9.329  0.2932 -0.6552 -0.6830
  542MOL0     C73071   7.966  -0.754   9.343  0.6342  0.0133  0.5392
  542MOL0     C73072   8.112  -0.721   9.299  0.6139  0.0929  0.1968
  542MOL0     C73073   8.198  -0.646   9.406  0.9693  0.0908  0.4237
  542MOL0     C73074   8.341  -0.646   9.361 -0.5619  0.4150  0.5900
  542MOL0     C73075   8.434  -0.587   9.466 -0.3908 -0.6775  0.1730
  542MOL0     C73076   8.578  -0.575   9.429 -0.6226  0.1071 -0.5551
  542MOL0     C73077   8.663  -0.501   9.535 -0.1523  0.2486  0.2367
  542MOL0     C73078   8.803  -0.489   9.498 -0.7262 -0.5199 -0.1458
  542MOL0    Cl73079   8.873  -0.397   9.635 -0.0430 -0.1618  0.0182
  542MOL0     C73080   7.697  -0.742   9.227  0.4215  0.1788 -0.1503
  542MOL0     C73081   7.558  -0.739   9.212  0.0467 -0.6614  0.2487
  542MOL0     O73082   7.315  -0.807   9.417 -0.0256 -0.2231 -0.0472
  542MOL0     C73083   7.081  -0.542   9.357  0.6046  0.6916  0.2339
  542MOL0     C73084   6.951  -0.499   9.382  0.1577  0.6803 -0.3051
  542MOL0     N73085   6.268  -0.150   9.266  0.1140 -0.0017  0.0781
  542MOL0     N73086   6.171  -0.084   9.212  0.2119  0.7441 -0.3054
  542MOL0     C73087   5.087   0.350   8.501  0.3027  0.3551 -0.5113
  542MOL0     C73088   5.005   0.336   8.383 -0.1325  0.9333 -0.7528
  542MOL0     C73089   4.891   0.317   7.931  0.6148 -0.0923  0.4564
  542MOL0     C73090   4.889   0.419   7.838 -0.4210 -0.6935 -0.1091
  542MOL0     C73091   4.800   0.420   7.728  0.2352  0.2447 -0.4612
  542MOL0     C73092   4.721   0.309   7.700 -0.7865  0.0666  0.4017
  542MOL0     O73093   4.659   0.313   7.579  0.7181  0.1157  0.1300
  542MOL0     C73094   4.546   0.233   7.550 -0.0023  0.0165  0.4257
  542MOL0     C73095   4.535   0.218   7.398  0.2481 -0.0240  0.7310
  542MOL0     C73096   4.545   0.359   7.326 -0.0706  0.7758 -0.9688
  542MOL0     C73097   4.418   0.437   7.363 -0.3760  0.4203  0.1118
  542MOL0     C73098   4.411   0.544   7.260  0.0483 -0.1166 -0.3958
  542MOL0     C73099   4.403   0.624   7.169  0.0150 -0.3547  0.1308
  542MOL0     C73100   4.728   0.200   7.779 -0.5127 -0.0114 -0.5711
  542MOL0     C73101   4.817   0.203   7.899 -0.0461  0.3240 -0.1160
  542MOL0     C73102   4.800   0.082   7.990  0.6185  0.0425  0.6377
  542MOL0     H73103   5.193   0.153   8.183 -0.8969  0.8426 -0.9997
  542MOL0     H73104   5.345   0.155   8.390 -0.3178 -0.8192 -1.8963
  542MOL0     H73105   5.398   0.120   8.589 -2.6115 -0.5841  0.5781
  542MOL0     H73106   5.494   0.261   8.591 -0.0066  0.3994  0.7587
  542MOL0     H73107   5.337   0.160   8.830  0.5754  0.5897  0.8459
  542MOL0     H73108   5.443   0.301   8.821  0.6471 -0.0833 -0.1582
  542MOL0     H73109   5.616   0.201   8.866 -0.7323  1.3127 -1.1710
  542MOL0     H73110   5.609   0.079   8.737  2.3209  0.6992  0.7458
  542MOL0     H73111   5.472   0.050   9.011 -0.8191 -1.3444  0.3547
  542MOL0     H73112   5.442  -0.054   8.871  0.4099 -0.6748  1.0670
  542MOL0     H73113   5.625  -0.180   8.977 -0.2990 -0.0609 -1.7650
  542MOL0     H73114   5.701  -0.094   8.853 -1.0315  1.4052 -0.6834
  542MOL0     H73115   5.752   0.081   9.036 -1.0591  0.2111  1.6287
  542MOL0     H73116   5.669  -0.012   9.152 -1.6071 -0.4057 -0.2244
  542MOL0     H73117   5.932  -0.075   9.002 -1.6213  0.3255 -0.8864
  542MOL0     H73118   5.840  -0.214   9.061 -3.4654  1.5715  1.0405
  542MOL0     H73119   5.943   0.008   9.244  0.3883 -0.0927 -1.2057
  542MOL0     H73120   5.858  -0.141   9.286  1.8546 -3.2538 -1.4506
  542MOL0     H73121   6.021  -0.351   9.321  0.0321  0.1179 -0.5276
  542MOL0     H73122   6.321  -0.301   9.505  2.5062  0.5530 -0.8819
  542MOL0     H73123   6.238  -0.451   9.431  1.4542 -0.7821  2.5418
  542MOL0     H73124   6.439  -0.449   9.267  3.3149 -1.9596  0.1780
  542MOL0     H73125   6.496  -0.296   9.341 -0.4339 -0.5073  1.1651
  542MOL0     H73126   6.458  -0.568   9.458  0.1540  0.4604 -1.5412
  542MOL0     H73127   6.512  -0.436   9.561  0.6872 -0.2501 -1.2586
  542MOL0     H73128   6.705  -0.386   9.403  0.7229  0.3094  0.2713
  542MOL0     H73129   6.646  -0.519   9.302  0.7416  0.8533 -0.0746
  542MOL0     H73130   6.846  -0.779   9.543  2.1277  0.7666  0.6801
  542MOL0     H73131   7.065  -0.865   9.486  1.5460 -0.1247 -1.8296
  542MOL0     H73132   7.477  -0.471   9.415 -2.4622 -0.8639 -2.9132
  542MOL0     H73133   7.715  -0.466   9.437  0.8848 -1.5309  0.4901
  542MOL0     H73134   7.963  -0.787   9.448 -0.1151  2.0212  1.2009
  542MOL0     H73135   7.928  -0.833   9.278 -1.9477  1.0213  0.6657
  542MOL0     H73136   8.154  -0.821   9.286 -0.0988 -0.2406  0.3647
  542MOL0     H73137   8.110  -0.685   9.196  0.4691 -1.0437 -0.2123
  542MOL0     H73138   8.157  -0.545   9.409  2.2246  0.7480 -1.9059
  542MOL0     H73139   8.187  -0.697   9.502 -1.6688 -1.1044 -0.4096
  542MOL0     H73140   8.365  -0.592   9.269  1.0754 -3.6710 -1.6497
  542MOL0     H73141   8.361  -0.752   9.345 -2.4585  0.1984 -0.6401
  542MOL0     H73142   8.438  -0.655   9.552  0.0799  0.2404  0.8941
  542MOL0     H73143   8.394  -0.490   9.497  0.4656  0.0835 -1.0142
  542MOL0     H73144   8.627  -0.673   9.428  2.3505  1.4782 -1.0033
  542MOL0     H73145   8.596  -0.522   9.335 -0.8929  3.3939  1.0762
  542MOL0     H73146   8.661  -0.541   9.637  3.5641  0.9539  0.7118
  542MOL0     H73147   8.616  -0.403   9.548 -3.6346 -0.9809 -1.6748
  542MOL0     H73148   8.840  -0.591   9.495  1.9241  0.3524  0.3439
  542MOL0     H73149   8.816  -0.449   9.397  2.3026 -1.9191 -0.4113
  542MOL0     H73150   7.762  -0.814   9.178  1.8084 -0.0607  1.9124
  542MOL0     H73151   7.513  -0.816   9.149  1.6311 -2.2888  1.0118
  542MOL0     H73152   7.150  -0.474   9.308 -1.1665  2.1435 -0.3413
  542MOL0     H73153   6.922  -0.397   9.361 -0.0122  1.0282  1.4286
  542MOL0     H73154   5.050   0.407   8.585 -0.5391 -0.8954  0.0067
  542MOL0     H73155   4.902   0.367   8.392 -0.8967 -1.4440 -0.6080
  542MOL0     H73156   4.945   0.509   7.864 -0.7559 -0.5866  0.2424
  542MOL0     H73157   4.798   0.500   7.654  0.4030  1.0205  0.3562
  542MOL0     H73158   4.457   0.272   7.599 -0.3096 -0.7624  0.5003
  542MOL0     H73159   4.562   0.131   7.589  1.8751 -0.2254 -0.8049
  542MOL0     H73160   4.445   0.159   7.375 -0.6088  1.3574  0.3948
  542MOL0     H73161   4.620   0.155   7.373  1.3799  0.4157  3.1939
  542MOL0     H73162   4.535   0.328   7.221  3.3218 -0.0481 -1.1405
  542MOL0     H73163   4.639   0.412   7.342  1.0697 -1.5196  0.4074
  542MOL0     H73164   4.323   0.384   7.351  0.3167 -1.3282  1.7370
  542MOL0     H73165   4.429   0.463   7.469  3.1139 -1.6907  0.4532
  542MOL0     H73166   4.392   0.700   7.093  0.2246  0.5142  0.9535
  542MOL0     H73167   4.676   0.107   7.757 -0.8647  0.0608 -0.0598
  542MOL0     H73168   4.717   0.096   8.060  1.7676 -0.0135  2.0593
  542MOL0     H73169   4.781  -0.002   7.922 -1.1022  1.5700 -0.8799
  542MOL0     H73170   4.887   0.066   8.054 -0.2586  0.9961  2.1198
  543MOL0     O73171   2.034   4.507   6.887  0.1019 -0.1792 -0.1490
  543MOL0     C73172   1.947   4.544   6.966  0.0908 -0.0730  0.3817
  543MOL0     O73173   1.960   4.639   7.064 -0.0678 -0.7298  0.2894
  543MOL0     C73174   2.087   4.692   7.090  0.6026 -0.4922 -0.0114
  543MOL0     C73175   2.155   4.767   6.992  0.2005 -0.6513  1.2745
  543MOL0     C73176   2.275   4.828   7.018  0.3456 -1.1459  0.3352
  543MOL0     C73177   2.330   4.814   7.149 -0.2948 -0.6511 -0.0314
  543MOL0     O73178   2.446   4.878   7.173 -0.5211  0.3953 -0.1826
  543MOL0     C73179   2.470   4.933   7.301  0.6706  0.2035  0.6701
  543MOL0     C73180   2.576   5.038   7.292 -0.1622  0.4888 -0.3780
  543MOL0     C73181   2.713   4.971   7.258 -0.6273  0.2041  0.2278
  543MOL0     C73182   2.804   5.091   7.211  0.5489  0.5459  0.4942
  543MOL0     C73183   2.944   5.042   7.196 -0.0677 -0.2565  0.0347
  543MOL0     C73184   3.027   5.167   7.151 -0.0147 -0.8323 -0.0425
  543MOL0     C73185   3.169   5.126   7.113 -0.5519  0.6910 -0.2438
  543MOL0     C73186   3.229   5.248   7.052  0.5272 -1.0920  0.3873
  543MOL0     N73187   3.367   5.219   7.005  0.4507  0.7175 -0.2037
  543MOL0     C73188   3.466   5.185   7.085 -0.2319  0.3870 -0.7817
  543MOL0     C73189   3.571   5.161   7.003  0.0517 -0.3602  0.0247
  543MOL0     C73190   3.708   5.128   7.051  0.3222  0.3470  0.3808
  543MOL0     C73191   3.720   5.014   7.147  0.3602 -0.0173 -0.4506
  543MOL0     C73192   3.863   4.993   7.180 -0.1971  0.0107 -0.1276
  543MOL0     C73193   3.890   4.899   7.303  0.3245  0.2523  0.2264
  543MOL0     O73194   3.856   4.976   7.414  0.0386 -0.4648 -0.3618
  543MOL0     C73195   3.830   4.905   7.530 -0.9366 -1.2049  0.0990
  543MOL0     C73196   3.896   4.787   7.548  0.1002 -0.5839 -0.1517
  543MOL0     C73197   3.869   4.715   7.663 -0.0525 -0.3106  0.1593
  543MOL0     C73198   3.784   4.760   7.769  0.1854 -0.5910 -0.4708
  543MOL0     C73199   3.773   4.682   7.890 -0.9304 -0.1067  0.0635
  543MOL0     O73200   3.881   4.595   7.904  0.4608  0.1229  1.2473
  543MOL0     C73201   3.894   4.527   8.016 -0.2679  0.1153 -0.6471
  543MOL0     C73202   3.818   4.423   8.048  0.8759  0.2718 -0.6673
  543MOL0     C73203   3.842   4.345   8.158 -0.2449  0.3218  0.2183
  543MOL0     C73204   3.951   4.372   8.244 -0.1404 -0.0679  0.5814
  543MOL0     O73205   3.980   4.293   8.354 -0.0364 -0.4290  1.0095
  543MOL0     C73206   4.003   4.150   8.321  0.4634 -0.0603 -0.2779
  543MOL0     C73207   4.103   4.080   8.412  0.8440 -0.0400 -0.0504
  543MOL0     C73208   4.239   4.143   8.387 -0.5215  0.3788  0.5657
  543MOL0     C73209   4.350   4.038   8.387  1.1562  1.2410  0.6990
  543MOL0     C73210   4.484   4.104   8.409 -1.0851 -0.0461  0.4934
  543MOL0     C73211   4.597   4.010   8.365 -0.7548 -0.8669  0.7086
  543MOL0     C73212   4.742   4.056   8.392 -0.2057  0.2465 -0.3919
  543MOL0     C73213   4.762   4.182   8.310 -0.9931 -0.1849  0.0022
  543MOL0    Cl73214   4.757   4.153   8.134 -0.4851 -0.4678 -0.0926
  543MOL0     C73215   4.034   4.478   8.200  0.4708  0.0325  0.1890
  543MOL0     C73216   4.015   4.555   8.088  0.3566 -0.4786  1.1837
  543MOL0     O73217   3.681   4.695   7.972  0.0373 -0.2846  0.3498
  543MOL0     C73218   3.725   4.879   7.750 -0.0751  0.3025 -0.0678
  543MOL0     C73219   3.754   4.958   7.635  0.1137  0.1085 -0.4601
  543MOL0     N73220   3.533   5.183   6.868  0.2705 -0.0745 -0.3710
  543MOL0     N73221   3.410   5.225   6.876  0.5492  0.2294  0.0284
  543MOL0     C73222   2.260   4.740   7.252  0.0495 -0.2167  0.1834
  543MOL0     C73223   2.139   4.683   7.218 -0.2915  0.7379 -0.2339
  543MOL0     C73224   1.798   4.512   6.954  0.2783  0.4944 -0.9001
  543MOL0     C73225   1.703   4.604   6.987  0.2317 -1.0031 -0.4018
  543MOL0     C73226   1.571   4.582   6.962 -0.2069 -0.0182  0.6031
  543MOL0     C73227   1.527   4.461   6.901  1.1533 -0.2560 -0.6106
  543MOL0     O73228   1.391   4.457   6.874  0.0414  0.3366 -0.2156
  543MOL0     C73229   1.328   4.328   6.860  0.0618  1.1839 -0.3834
  543MOL0     C73230   1.324   4.256   6.724 -0.1531  0.1058 -0.1414
  543MOL0     C73231   1.260   4.348   6.619  0.0695  0.2160  0.5743
  543MOL0     C73232   1.244   4.278   6.489  0.1376  0.2453  0.2923
  543MOL0     C73233   1.107   4.238   6.446  0.0588  0.1632 -0.4363
  543MOL0     C73234   0.994   4.208   6.409 -0.8811 -0.5297  0.3211
  543MOL0     C73235   1.624   4.363   6.873 -0.2788 -0.0690 -0.7664
  543MOL0     C73236   1.761   4.391   6.896  0.6916 -0.1551  0.6073
  543MOL0     C73237   1.858   4.288   6.856 -0.0788 -0.7021 -0.7303
  543MOL0     H73238   2.109   4.766   6.894  0.8969  0.4402  0.9212
  543MOL0     H73239   2.333   4.876   6.940  1.5185 -0.5566  1.5422
  543MOL0     H73240   2.380   4.987   7.333  1.2188  1.7547 -0.3127
  543MOL0     H73241   2.490   4.855   7.375 -0.4382 -2.0568 -1.2661
  543MOL0     H73242   2.593   5.093   7.385 -2.4776  1.8880 -0.7258
  543MOL0     H73243   2.554   5.114   7.217  0.8220 -0.1583 -1.3431
  543MOL0     H73244   2.704   4.887   7.188 -0.5170 -0.8258  1.4293
  543MOL0     H73245   2.758   4.943   7.353  0.2399  0.2313 -0.1584
  543MOL0     H73246   2.773   5.118   7.110  0.1886 -0.5412  0.2980
  543MOL0     H73247   2.787   5.179   7.273  0.4865  1.4598 -0.7693
  543MOL0     H73248   2.985   5.008   7.292  0.6355 -2.3760 -0.9624
  543MOL0     H73249   2.958   4.957   7.129  3.5322 -1.2007  1.7400
  543MOL0     H73250   2.983   5.215   7.063 -1.7692 -1.2413  0.5704
  543MOL0     H73251   3.037   5.241   7.230 -3.9087  0.3839 -0.4994
  543MOL0     H73252   3.168   5.052   7.033  1.7665 -0.6207  0.8517
  543MOL0     H73253   3.220   5.100   7.206 -2.2560  3.5524  1.6694
  543MOL0     H73254   3.164   5.269   6.967  2.1205 -0.7313 -0.7937
  543MOL0     H73255   3.224   5.333   7.120 -1.1942 -2.7909  2.5571
  543MOL0     H73256   3.465   5.180   7.194  3.1427  0.2505 -0.6761
  543MOL0     H73257   3.768   5.104   6.963 -0.8878  0.4627 -0.5019
  543MOL0     H73258   3.736   5.217   7.109  1.0160  0.1886  0.3030
  543MOL0     H73259   3.664   5.038   7.238  0.0644 -1.9189 -0.0917
  543MOL0     H73260   3.686   4.921   7.101 -3.4032  1.5353 -1.1227
  543MOL0     H73261   3.900   5.094   7.199 -1.6190  1.3766 -3.6275
  543MOL0     H73262   3.928   4.964   7.097  1.8657  3.3683  0.1313
  543MOL0     H73263   3.998   4.881   7.303  0.3457 -0.0271  3.0021
  543MOL0     H73264   3.829   4.809   7.301 -1.6955  1.5566  0.1893
  543MOL0     H73265   3.971   4.749   7.480  1.3192 -2.4585  2.0816
  543MOL0     H73266   3.921   4.620   7.672  4.3711  2.0627  3.3193
  543MOL0     H73267   3.733   4.404   7.984 -0.2453  2.0848  0.1926
  543MOL0     H73268   3.785   4.254   8.174  0.2895  0.0355  0.5336
  543MOL0     H73269   3.907   4.099   8.329 -0.5384  1.7414 -0.2716
  543MOL0     H73270   4.032   4.134   8.217  1.4415  0.8796 -0.1725
  543MOL0     H73271   4.074   4.098   8.516  0.0219  0.9817 -0.4382
  543MOL0     H73272   4.110   3.973   8.391  3.9485 -0.4250  2.3136
  543MOL0     H73273   4.239   4.195   8.291 -0.5506  0.7564  0.7664
  543MOL0     H73274   4.254   4.221   8.463  0.3865  0.5871  0.1881
  543MOL0     H73275   4.341   3.979   8.296 -2.9716  0.5901  1.3611
  543MOL0     H73276   4.332   3.969   8.470 -1.7822 -0.9419 -1.5524
  543MOL0     H73277   4.504   4.130   8.513  0.4324  0.2225  0.1560
  543MOL0     H73278   4.491   4.199   8.354  2.1692 -0.6707 -0.3545
  543MOL0     H73279   4.584   3.916   8.419 -0.4997 -0.9647  0.6020
  543MOL0     H73280   4.572   3.986   8.261 -2.1227  1.0639  0.5413
  543MOL0     H73281   4.812   3.990   8.339 -0.9380 -0.8252 -0.0575
  543MOL0     H73282   4.754   4.050   8.501  0.8849 -1.9291 -0.5650
  543MOL0     H73283   4.698   4.263   8.344  1.6340  2.0804 -0.1351
  543MOL0     H73284   4.860   4.228   8.324 -1.1813  0.3378 -0.3753
  543MOL0     H73285   4.112   4.491   8.275  0.9345 -4.3933  0.7552
  543MOL0     H73286   4.095   4.614   8.045  1.5067 -2.7065  0.0713
  543MOL0     H73287   3.658   4.910   7.831  0.6604 -1.8501  1.4536
  543MOL0     H73288   3.722   5.061   7.624  1.2907  0.4371 -1.0046
  543MOL0     H73289   2.294   4.743   7.355 -3.4713  4.5213  1.5625
  543MOL0     H73290   2.079   4.635   7.295 -0.5818 -0.7887 -1.3553
  543MOL0     H73291   1.732   4.700   7.027 -1.3103  0.0035 -1.6121
  543MOL0     H73292   1.496   4.652   6.999 -3.6423 -3.5357  0.8999
  543MOL0     H73293   1.223   4.352   6.881 -0.8893 -1.7297 -1.3070
  543MOL0     H73294   1.361   4.261   6.939 -0.0670 -1.7457 -2.6580
  543MOL0     H73295   1.263   4.166   6.732  2.1539 -1.7073 -1.6982
  543MOL0     H73296   1.428   4.235   6.697  0.5335  1.0937  1.5757
  543MOL0     H73297   1.314   4.440   6.595 -0.4964  0.3217 -0.3167
  543MOL0     H73298   1.158   4.367   6.652 -1.0276 -2.0729 -1.1793
  543MOL0     H73299   1.285   4.347   6.415 -2.1048 -0.2381 -1.4961
  543MOL0     H73300   1.307   4.188   6.488  0.1441  0.2315  1.1269
  543MOL0     H73301   0.896   4.180   6.378 -0.3769 -1.9331 -0.0536
  543MOL0     H73302   1.604   4.262   6.838  0.8301 -1.1523  1.4987
  543MOL0     H73303   1.917   4.266   6.946 -2.8675 -2.8663  0.7108
  543MOL0     H73304   1.807   4.195   6.832  1.3035 -1.5066 -0.6421
  543MOL0     H73305   1.923   4.323   6.775  2.6402 -0.6844  1.2807
  544MOL0     O73306   5.968   6.559   4.053  0.2001 -0.5422 -0.4363
  544MOL0     C73307   5.935   6.499   3.957  0.3281  1.1354  0.3532
  544MOL0     O73308   6.026   6.432   3.873  0.2497  0.0878 -0.1835
  544MOL0     C73309   6.158   6.418   3.909 -0.7057 -0.1661  0.2026
  544MOL0     C73310   6.193   6.392   4.034  0.2791 -0.0205  0.3149
  544MOL0     C73311   6.326   6.381   4.067  0.1514 -0.0681 -1.2234
  544MOL0     C73312   6.429   6.391   3.976 -0.3860  0.4883 -0.3174
  544MOL0     O73313   6.555   6.382   4.014 -1.0532 -0.8033  0.0876
  544MOL0     C73314   6.658   6.454   3.942  0.0885 -1.3197 -0.5250
  544MOL0     C73315   6.784   6.427   4.008 -0.2378  0.3046 -0.0549
  544MOL0     C73316   6.909   6.462   3.924 -0.8072 -0.5849  0.4915
  544MOL0     C73317   6.945   6.608   3.930 -0.1651  0.3724 -0.7913
  544MOL0     C73318   7.079   6.645   3.871  0.3803  0.3707  0.7372
  544MOL0     C73319   7.109   6.574   3.728 -0.3793 -0.6903  0.5249
  544MOL0     C73320   7.246   6.617   3.668  0.3903 -0.8599 -0.4885
  544MOL0     C73321   7.305   6.550   3.543  0.3586  0.6165  0.5548
  544MOL0     N73322   7.426   6.617   3.493  0.4791  0.2132  0.1981
  544MOL0     C73323   7.463   6.609   3.361 -0.9053  0.3529 -0.4431
  544MOL0     C73324   7.591   6.652   3.359 -0.2162 -0.3550 -0.4982
  544MOL0     C73325   7.673   6.671   3.235 -0.1412  0.3441  0.0768
  544MOL0     C73326   7.825   6.668   3.259 -0.1473  0.0473 -1.1377
  544MOL0     C73327   7.871   6.552   3.350  0.0988  0.4407  0.5356
  544MOL0     C73328   8.016   6.500   3.317 -0.1115 -0.4364 -0.0196
  544MOL0     O73329   8.111   6.604   3.346 -0.0561  0.1923  0.5223
  544MOL0     C73330   8.240   6.565   3.372 -0.3702 -0.7356 -0.1736
  544MOL0     C73331   8.302   6.628   3.479 -0.6806 -0.3662  0.7814
  544MOL0     C73332   8.433   6.601   3.505 -0.3029 -0.9095  0.6321
  544MOL0     C73333   8.501   6.495   3.431  0.3837  0.2922  0.1086
  544MOL0     C73334   8.639   6.458   3.459 -0.7112 -0.2878 -0.0322
  544MOL0     O73335   8.697   6.365   3.377  0.3257  0.0678 -0.1897
  544MOL0     C73336   8.820   6.320   3.394 -0.4918 -0.4157 -0.4388
  544MOL0     C73337   8.924   6.363   3.310  1.0617  0.3176  0.2579
  544MOL0     C73338   9.051   6.317   3.339  0.4801  0.5859  1.0744
  544MOL0     C73339   9.088   6.230   3.442 -0.4657  0.7908  0.1305
  544MOL0     O73340   9.205   6.172   3.477  0.5420 -0.0679 -0.5577
  544MOL0     C73341   9.313   6.161   3.387 -0.4271 -0.1424  0.0897
  544MOL0     C73342   9.443   6.160   3.469 -0.2554 -0.2695 -0.9091
  544MOL0     C73343   9.474   6.023   3.529  0.2581 -0.2531 -0.2688
  544MOL0     C73344   9.623   6.002   3.579 -0.1821  0.7439 -0.2686
  544MOL0     C73345   9.621   5.867   3.655  0.4623 -0.3311  0.1255
  544MOL0     C73346   9.770   5.825   3.689  0.5336  1.2650 -0.1708
  544MOL0     C73347   9.776   5.684   3.749 -1.2476 -1.0295  0.2682
  544MOL0     C73348   9.920   5.641   3.803  0.1123  0.8416  0.2227
  544MOL0    Cl73349  10.022   5.600   3.656 -0.1004  0.3093 -0.0429
  544MOL0     C73350   8.979   6.199   3.519  0.3479  0.1645 -0.2509
  544MOL0     C73351   8.848   6.236   3.501 -0.2530 -0.4370  0.3293
  544MOL0     O73352   8.701   6.508   3.546  0.2201 -0.4404 -0.0087
  544MOL0     C73353   8.433   6.437   3.323 -0.4553  0.0272  0.6322
  544MOL0     C73354   8.306   6.473   3.294 -0.2278  0.4027 -0.4357
  544MOL0     N73355   7.617   6.694   3.488 -0.8732 -0.0955  0.2610
  544MOL0     N73356   7.525   6.671   3.572 -0.4553  0.1062  0.5751
  544MOL0     C73357   6.389   6.417   3.840 -0.1038 -1.3668 -0.1098
  544MOL0     C73358   6.253   6.428   3.808  0.5251  0.2828 -0.1941
  544MOL0     C73359   5.788   6.478   3.923  0.0405 -0.6900  0.2659
  544MOL0     C73360   5.753   6.402   3.803  0.0028 -0.5023  0.0573
  544MOL0     C73361   5.612   6.375   3.772  0.0147 -0.1208 -0.0826
  544MOL0     C73362   5.509   6.415   3.848 -0.7008  0.3464 -0.9116
  544MOL0     O73363   5.385   6.372   3.819 -0.7963  0.2528  0.3015
  544MOL0     C73364   5.282   6.393   3.910 -0.5720 -0.9601 -0.6723
  544MOL0     C73365   5.285   6.298   4.029  0.1061  0.7442  0.1750
  544MOL0     C73366   5.304   6.155   3.976  0.6053  0.2731  0.6392
  544MOL0     C73367   5.233   6.048   4.057  0.0041 -1.1344 -0.1840
  544MOL0     C73368   5.282   6.037   4.193 -0.3095  0.3507 -0.3504
  544MOL0     C73369   5.324   6.038   4.309  0.4188 -0.1149  0.6162
  544MOL0     C73370   5.546   6.496   3.965 -0.7658  0.6239 -0.3069
  544MOL0     C73371   5.678   6.523   4.003  0.3869 -0.4247 -0.5378
  544MOL0     C73372   5.699   6.604   4.123 -0.0949 -0.6838  0.2154
  544MOL0     H73373   6.132   6.371   4.121  1.8550 -1.1533  1.1969
  544MOL0     H73374   6.365   6.359   4.166 -0.1176  1.7743 -0.6628
  544MOL0     H73375   6.653   6.432   3.835  1.2108  1.3736 -1.2125
  544MOL0     H73376   6.628   6.557   3.961  0.3046 -1.2871 -0.3440
  544MOL0     H73377   6.786   6.320   4.028  2.2552  0.2925 -0.1044
  544MOL0     H73378   6.783   6.473   4.107 -0.2264  0.0744  0.0524
  544MOL0     H73379   6.900   6.440   3.817  0.6671  0.5601  0.0954
  544MOL0     H73380   6.993   6.405   3.964  1.0850  1.1349 -0.8424
  544MOL0     H73381   6.862   6.657   3.878  0.3486  1.7812 -0.3317
  544MOL0     H73382   6.941   6.644   4.033  0.1535 -0.8573 -0.3398
  544MOL0     H73383   7.098   6.753   3.869 -1.2584  0.7278 -2.4600
  544MOL0     H73384   7.148   6.605   3.945  0.7380 -0.9338 -0.2657
  544MOL0     H73385   7.102   6.464   3.725 -0.6560 -0.6455 -1.9500
  544MOL0     H73386   7.024   6.605   3.668 -0.2091 -0.3196  0.4763
  544MOL0     H73387   7.312   6.615   3.755 -0.2750  2.6494  0.2721
  544MOL0     H73388   7.226   6.717   3.628 -1.4996 -1.7054 -1.8135
  544MOL0     H73389   7.336   6.445   3.555  2.5727  0.9320 -1.4556
  544MOL0     H73390   7.227   6.540   3.466  0.2104 -0.0527  0.7805
  544MOL0     H73391   7.408   6.559   3.281 -1.1458 -0.6681  0.3400
  544MOL0     H73392   7.638   6.599   3.161  0.3275 -2.8919  2.7272
  544MOL0     H73393   7.650   6.772   3.200  0.7538  0.2264 -0.9065
  544MOL0     H73394   7.871   6.669   3.160  1.5105  1.7350 -0.4243
  544MOL0     H73395   7.849   6.765   3.305 -0.1829 -0.6354  0.3785
  544MOL0     H73396   7.801   6.469   3.339 -1.8978  1.8258  1.8976
  544MOL0     H73397   7.863   6.577   3.456 -1.1942 -0.6921  0.7350
  544MOL0     H73398   8.024   6.475   3.211  1.9006 -0.1636  0.0355
  544MOL0     H73399   8.046   6.406   3.364  0.4247 -0.7786 -1.0184
  544MOL0     H73400   8.238   6.687   3.544  0.7445 -0.3082  2.1729
  544MOL0     H73401   8.492   6.655   3.577 -0.2478 -1.8988  1.3581
  544MOL0     H73402   8.910   6.430   3.226  1.4424  0.8607  0.6200
  544MOL0     H73403   9.130   6.356   3.274  0.4942 -0.3858  0.4932
  544MOL0     H73404   9.308   6.064   3.338  0.2831 -1.1168  1.8569
  544MOL0     H73405   9.320   6.237   3.309  3.7272  0.3857  0.7467
  544MOL0     H73406   9.528   6.181   3.403  2.0725 -1.1028  1.6296
  544MOL0     H73407   9.441   6.232   3.552  1.1751 -0.6557 -0.5114
  544MOL0     H73408   9.401   6.011   3.609 -0.5955 -0.2170 -1.0204
  544MOL0     H73409   9.454   5.949   3.451 -0.9298  2.2829 -2.5437
  544MOL0     H73410   9.652   6.085   3.644  1.0085 -0.7867  1.2424
  544MOL0     H73411   9.687   6.003   3.490  0.4808  0.4722  0.2017
  544MOL0     H73412   9.577   5.781   3.604  0.0366  1.0703 -2.0008
  544MOL0     H73413   9.562   5.892   3.743 -1.5169  1.4045 -1.6206
  544MOL0     H73414   9.831   5.826   3.598  3.2277  0.1931  1.4954
  544MOL0     H73415   9.827   5.892   3.755  1.9887  2.2223 -2.2964
  544MOL0     H73416   9.748   5.610   3.673 -0.2091 -0.4433 -0.7278
  544MOL0     H73417   9.696   5.681   3.824 -1.9926 -1.1392 -0.5100
  544MOL0     H73418   9.961   5.721   3.865  0.4695 -0.4932  1.8012
  544MOL0     H73419   9.898   5.548   3.857 -0.6950  0.4727 -0.7041
  544MOL0     H73420   8.998   6.166   3.620 -2.5102  1.5737  0.8525
  544MOL0     H73421   8.761   6.220   3.563 -0.4823 -1.0835 -0.1450
  544MOL0     H73422   8.489   6.374   3.254 -0.3475 -0.8061  1.4651
  544MOL0     H73423   8.252   6.429   3.211 -3.1838 -0.2425  1.6827
  544MOL0     H73424   6.455   6.431   3.755 -0.4665  1.1575 -0.0561
  544MOL0     H73425   6.237   6.452   3.703 -1.6152 -0.2768 -0.0531
  544MOL0     H73426   5.826   6.369   3.730  0.3294  0.4862 -0.0677
  544MOL0     H73427   5.592   6.308   3.689  0.6216 -0.5992  0.1450
  544MOL0     H73428   5.182   6.379   3.867 -1.2053 -0.1937  0.4816
  544MOL0     H73429   5.277   6.492   3.956 -0.5827 -0.9474 -0.7005
  544MOL0     H73430   5.196   6.322   4.089  1.4011  1.8261  1.7274
  544MOL0     H73431   5.369   6.311   4.097 -1.4141 -1.0377  2.5398
  544MOL0     H73432   5.410   6.131   3.978  1.0579  2.1274  0.1869
  544MOL0     H73433   5.267   6.151   3.874 -0.9282  1.0311  1.1314
  544MOL0     H73434   5.129   6.082   4.061  0.2958  0.2094 -2.6068
  544MOL0     H73435   5.248   5.950   4.011  0.0609 -1.7843  1.1502
  544MOL0     H73436   5.359   6.040   4.410  1.2939  0.3387  0.3100
  544MOL0     H73437   5.469   6.515   4.040  0.3839  1.3048  0.7334
  544MOL0     H73438   5.604   6.641   4.164  0.3101  0.4600  0.1482
  544MOL0     H73439   5.748   6.547   4.202  1.5002  0.8125  0.3627
  544MOL0     H73440   5.763   6.685   4.088 -0.8148  0.3895  1.3279
  545MOL0     O73441   3.895   4.261  10.576  0.0914  0.3331 -0.5842
  545MOL0     C73442   3.901   4.355  10.659  0.5954 -0.2541  0.7220
  545MOL0     O73443   4.008   4.387  10.736  0.4272 -0.5500  0.4765
  545MOL0     C73444   4.116   4.305  10.728 -1.1458 -0.2273 -0.8209
  545MOL0     C73445   4.227   4.331  10.647  0.1659 -0.2855 -0.0273
  545MOL0     C73446   4.331   4.246  10.652  0.3486  0.4113  0.1162
  545MOL0     C73447   4.336   4.130  10.725 -0.1105  0.1686 -0.1469
  545MOL0     O73448   4.440   4.041  10.724  0.0172  0.0949 -0.1667
  545MOL0     C73449   4.553   4.064  10.631 -0.5767  0.3322  0.1780
  545MOL0     C73450   4.631   3.933  10.628 -0.4742  0.1155 -0.4661
  545MOL0     C73451   4.734   3.918  10.515  0.5300  0.7793 -0.1878
  545MOL0     C73452   4.825   4.032  10.501  0.2194  0.1777  0.3128
  545MOL0     C73453   4.916   4.060  10.615  0.2145  0.5400 -0.2815
  545MOL0     C73454   5.019   3.944  10.626 -0.3081 -0.4324  0.8045
  545MOL0     C73455   5.130   3.987  10.725  0.0532  0.0551  0.5948
  545MOL0     C73456   5.217   4.105  10.681 -0.8044  0.5185  0.3574
  545MOL0     N73457   5.344   4.114  10.757  0.2131 -0.6411  1.3379
  545MOL0     C73458   5.456   4.052  10.715 -0.2731 -0.2909  0.2397
  545MOL0     C73459   5.536   4.034  10.817 -0.6466  0.2366 -0.2499
  545MOL0     C73460   5.676   3.978  10.798 -0.4230  0.4361 -0.4907
  545MOL0     C73461   5.701   3.849  10.868  0.4735  0.1335  0.0882
  545MOL0     C73462   5.593   3.740  10.837  0.2697 -0.5302 -0.7714
  545MOL0     C73463   5.631   3.679  10.704  1.1509 -0.5351 -0.2108
  545MOL0     O73464   5.560   3.558  10.676 -0.1748 -0.1522  0.7554
  545MOL0     C73465   5.425   3.557  10.639  0.2336  0.6401 -0.2733
  545MOL0     C73466   5.360   3.665  10.586  0.2916  0.2270 -0.3834
  545MOL0     C73467   5.231   3.645  10.533  0.1380 -0.5108  0.3677
  545MOL0     C73468   5.162   3.522  10.528 -0.9585  0.2436 -0.3826
  545MOL0     C73469   5.023   3.509  10.471  0.4731 -0.4058  0.5339
  545MOL0     O73470   4.978   3.614  10.405 -0.4278 -0.2166 -0.4056
  545MOL0     C73471   4.854   3.615  10.348 -0.3508 -0.7672 -0.3801
  545MOL0     C73472   4.734   3.553  10.397  0.1246  0.2075  0.2177
  545MOL0     C73473   4.620   3.546  10.316 -0.7314 -0.2827 -0.1341
  545MOL0     C73474   4.618   3.617  10.196  0.1682 -0.0220 -0.3904
  545MOL0     O73475   4.501   3.615  10.121 -0.8315  0.4747  0.1635
  545MOL0     C73476   4.367   3.584  10.180  0.4871  0.2744  0.5216
  545MOL0     C73477   4.328   3.685  10.288 -0.5843 -0.2291 -0.1027
  545MOL0     C73478   4.172   3.709  10.292 -0.9080 -0.6947 -0.1249
  545MOL0     C73479   4.123   3.745  10.428  0.0627 -1.0845 -0.2871
  545MOL0     C73480   3.977   3.784  10.427 -0.7534  0.4120 -0.2873
  545MOL0     C73481   3.960   3.919  10.349 -0.0851 -0.3309 -0.2143
  545MOL0     C73482   3.835   3.993  10.396 -0.2564 -0.6140  0.0064
  545MOL0     C73483   3.707   3.907  10.384 -0.3946  0.3621  0.0560
  545MOL0    Cl73484   3.682   3.833  10.218  0.0628 -0.3251  0.0288
  545MOL0     C73485   4.726   3.695  10.155  0.3021  0.7277 -0.5759
  545MOL0     C73486   4.844   3.695  10.233  0.3594  0.2025  0.7442
  545MOL0     O73487   4.967   3.401  10.487  0.5751  0.4498  1.0456
  545MOL0     C73488   5.230   3.416  10.581 -0.7996  0.0883  0.1836
  545MOL0     C73489   5.358   3.427  10.642 -0.7575 -0.5427 -0.3332
  545MOL0     N73490   5.470   4.083  10.933  0.2827 -0.2543 -0.0307
  545MOL0     N73491   5.353   4.129  10.890  0.0964  0.1937 -0.1079
  545MOL0     C73492   4.232   4.111  10.815 -0.3613 -0.3643 -0.2495
  545MOL0     C73493   4.118   4.192  10.814  0.7683  0.1076  0.7915
  545MOL0     C73494   3.771   4.426  10.692  0.2149  0.0868  0.4479
  545MOL0     C73495   3.769   4.548  10.763  0.1830  0.9879  0.7082
  545MOL0     C73496   3.663   4.633  10.775  0.1590 -0.6204  0.2326
  545MOL0     C73497   3.538   4.580  10.745 -0.8872 -0.3973  0.0950
  545MOL0     O73498   3.418   4.650  10.749 -1.2213  0.1942  0.6826
  545MOL0     C73499   3.397   4.733  10.873  0.1994 -0.0017  0.3297
  545MOL0     C73500   3.292   4.665  10.956 -0.1379  0.2796  0.1715
  545MOL0     C73501   3.262   4.717  11.096 -0.4902  0.0873  0.4921
  545MOL0     C73502   3.242   4.872  11.109 -0.5105 -0.0104  0.7807
  545MOL0     C73503   3.224   4.904  11.253  0.4950  0.3150  0.1797
  545MOL0     C73504   3.214   4.938  11.371  0.3138  0.2017 -0.2501
  545MOL0     C73505   3.527   4.458  10.682 -1.2511  0.1880  0.0206
  545MOL0     C73506   3.643   4.375  10.652  0.4369 -0.3857 -0.6870
  545MOL0     C73507   3.626   4.247  10.572 -0.6675  0.4416 -0.7818
  545MOL0     H73508   4.227   4.422  10.587 -1.7469  0.3636  0.8579
  545MOL0     H73509   4.417   4.272  10.592  0.8162 -0.9061  0.1844
  545MOL0     H73510   4.512   4.087  10.532  1.2507  0.2426 -0.6312
  545MOL0     H73511   4.602   4.156  10.663  0.0596 -0.2747  0.9834
  545MOL0     H73512   4.555   3.855  10.618 -0.4978  0.1239 -0.3520
  545MOL0     H73513   4.686   3.917  10.721  0.9665  0.3327 -1.2348
  545MOL0     H73514   4.683   3.909  10.419  4.0628 -1.7616 -2.0547
  545MOL0     H73515   4.786   3.822  10.519 -0.0344  0.3201 -2.3722
  545MOL0     H73516   4.888   4.021  10.412  1.8667  0.5834  1.3863
  545MOL0     H73517   4.764   4.122  10.488 -1.4045 -1.2193 -2.6830
  545MOL0     H73518   4.949   4.160  10.587 -2.1400  1.1576 -1.0459
  545MOL0     H73519   4.874   4.070  10.716 -2.2854 -0.4532 -1.1371
  545MOL0     H73520   4.970   3.858  10.672  0.2005 -0.5988  1.0405
  545MOL0     H73521   5.066   3.919  10.530 -0.4698 -1.3397  0.9512
  545MOL0     H73522   5.194   3.902  10.751 -0.6456  0.1614  2.9475
  545MOL0     H73523   5.086   4.019  10.820 -1.8525 -2.4592  0.6689
  545MOL0     H73524   5.240   4.093  10.574  3.0619 -0.4177  1.1464
  545MOL0     H73525   5.156   4.196  10.690  0.4856  1.6040 -1.2376
  545MOL0     H73526   5.479   4.030  10.611  0.2797  1.1994  0.0144
  545MOL0     H73527   5.699   3.952  10.695  2.4969 -1.5458  0.5518
  545MOL0     H73528   5.745   4.054  10.837 -0.4442 -1.3996  3.6605
  545MOL0     H73529   5.804   3.824  10.843  0.1079  0.7772 -2.2602
  545MOL0     H73530   5.714   3.869  10.975  0.0388 -1.6147  0.4911
  545MOL0     H73531   5.487   3.766  10.851  0.1897 -1.5413  0.6956
  545MOL0     H73532   5.607   3.657  10.906  0.8978  0.0517 -0.1789
  545MOL0     H73533   5.735   3.651  10.721  0.7492 -2.0588 -0.1056
  545MOL0     H73534   5.623   3.745  10.617 -0.6228  2.8590  2.2559
  545MOL0     H73535   5.401   3.765  10.579 -1.3833  1.1009  1.3468
  545MOL0     H73536   5.173   3.729  10.496 -1.6365 -2.1556 -0.7183
  545MOL0     H73537   4.744   3.503  10.493  1.4385  1.9937  1.0688
  545MOL0     H73538   4.537   3.483  10.348  0.4776 -0.0452  4.2104
  545MOL0     H73539   4.288   3.596  10.105  0.1665 -0.7359  0.6836
  545MOL0     H73540   4.373   3.482  10.218 -0.5155  0.0610  0.1294
  545MOL0     H73541   4.364   3.656  10.388 -0.3767 -0.9413 -0.3733
  545MOL0     H73542   4.376   3.781  10.268 -0.8648  0.3923  2.0118
  545MOL0     H73543   4.147   3.792  10.225  1.1681  1.0039  1.0656
  545MOL0     H73544   4.120   3.617  10.265 -1.3161  0.0962 -2.2742
  545MOL0     H73545   4.172   3.839  10.457  0.9917 -1.0527 -1.8416
  545MOL0     H73546   4.144   3.661  10.495  1.2204  1.0228  2.1664
  545MOL0     H73547   3.943   3.795  10.531 -0.7885  0.6702 -0.3249
  545MOL0     H73548   3.912   3.708  10.382 -1.3168  1.9227 -2.1626
  545MOL0     H73549   4.036   3.991  10.380  1.3774 -1.7421 -0.4246
  545MOL0     H73550   3.970   3.912  10.240 -0.8708 -0.5738 -0.2805
  545MOL0     H73551   3.824   4.088  10.343 -1.1360  0.8831  2.6751
  545MOL0     H73552   3.852   4.016  10.502 -0.4901  1.3426 -0.3594
  545MOL0     H73553   3.698   3.820  10.451 -0.3728 -0.3401 -0.8288
  545MOL0     H73554   3.626   3.978  10.403  2.8180  3.8188  1.9491
  545MOL0     H73555   4.719   3.756  10.066  1.9859  1.3863 -0.2982
  545MOL0     H73556   4.931   3.749  10.198 -1.1289  2.9121  1.0261
  545MOL0     H73557   5.177   3.321  10.586 -0.2433 -0.2719 -0.5814
  545MOL0     H73558   5.410   3.340  10.681 -0.2631 -1.1044 -2.1661
  545MOL0     H73559   4.228   4.027  10.883 -0.7303  0.3432  0.6274
  545MOL0     H73560   4.038   4.163  10.881  0.6727 -1.7614 -0.0673
  545MOL0     H73561   3.860   4.588  10.808  1.3605  2.3481 -2.6093
  545MOL0     H73562   3.681   4.731  10.817  0.6185 -1.2109  1.4383
  545MOL0     H73563   3.371   4.837  10.852 -0.4180 -0.3033 -0.4181
  545MOL0     H73564   3.487   4.732  10.936  1.4549 -0.0687 -1.4052
  545MOL0     H73565   3.322   4.560  10.966 -0.5864  0.0020 -1.2140
  545MOL0     H73566   3.202   4.670  10.895 -0.6467  0.7639  0.9363
  545MOL0     H73567   3.344   4.703  11.168  0.5285 -0.0060 -0.6571
  545MOL0     H73568   3.163   4.670  11.103 -1.9836  1.3493 -6.0293
  545MOL0     H73569   3.329   4.917  11.060 -1.6873 -2.9788 -4.8909
  545MOL0     H73570   3.154   4.900  11.050  0.7562  0.5007 -0.9544
  545MOL0     H73571   3.198   4.962  11.474  0.1380 -1.0861  0.0298
  545MOL0     H73572   3.430   4.429  10.645 -1.5760  2.1959 -0.7972
  545MOL0     H73573   3.662   4.259  10.470 -1.6166  0.5244 -1.1238
  545MOL0     H73574   3.662   4.159  10.626 -1.5965  1.5527  1.8598
  545MOL0     H73575   3.520   4.226  10.556 -1.0881  1.9331 -0.1570
  546MOL0     O73576   0.467   8.819   2.005 -1.0819 -0.3780 -0.5237
  546MOL0     C73577   0.370   8.750   2.015 -0.0108  0.2064 -0.6274
  546MOL0     O73578   0.333   8.674   2.127 -1.1070 -1.0091  0.1769
  546MOL0     C73579   0.412   8.669   2.232  0.0680  0.2675 -0.4645
  546MOL0     C73580   0.541   8.617   2.240  0.1829  0.4926 -0.3823
  546MOL0     C73581   0.629   8.623   2.360  0.3442  0.1603 -0.4531
  546MOL0     C73582   0.575   8.665   2.487  0.3799  0.7628  0.4437
  546MOL0     O73583   0.645   8.673   2.604 -0.3224  0.4899  0.3408
  546MOL0     C73584   0.682   8.541   2.655  0.7650  0.2858  0.1137
  546MOL0     C73585   0.740   8.556   2.789  0.1463 -0.0728  0.7917
  546MOL0     C73586   0.773   8.429   2.867 -0.2782 -0.2434  1.2266
  546MOL0     C73587   0.650   8.356   2.941  0.0608  0.1613 -0.3342
  546MOL0     C73588   0.700   8.251   3.039 -0.2333  0.3907  0.7637
  546MOL0     C73589   0.596   8.209   3.133  0.3511 -0.4704  0.0847
  546MOL0     C73590   0.668   8.118   3.237 -0.0610 -0.2821 -0.4352
  546MOL0     C73591   0.570   8.020   3.298 -0.1269 -0.2645 -0.6342
  546MOL0     N73592   0.647   7.914   3.363  1.3685  0.0851 -0.1695
  546MOL0     C73593   0.669   7.789   3.309 -0.1797  0.7608  0.4574
  546MOL0     C73594   0.716   7.715   3.409 -1.0374 -0.4588  0.0790
  546MOL0     C73595   0.749   7.570   3.399 -0.6592 -0.2613  0.1787
  546MOL0     C73596   0.871   7.547   3.307 -0.5445  0.7562  0.4115
  546MOL0     C73597   0.991   7.520   3.398  0.4465  0.4309  0.4058
  546MOL0     C73598   1.119   7.530   3.306  0.5078 -0.2731 -0.8958
  546MOL0     O73599   1.238   7.511   3.391  0.1894  0.8638  0.7281
  546MOL0     C73600   1.360   7.516   3.328  1.0624  0.6735 -0.6864
  546MOL0     C73601   1.440   7.395   3.315 -0.3310 -0.2093  0.2891
  546MOL0     C73602   1.568   7.391   3.264  1.2828  0.1642 -0.0877
  546MOL0     C73603   1.625   7.506   3.213  0.5917  0.1711 -0.4416
  546MOL0     C73604   1.768   7.507   3.167  0.4579  0.0784 -0.1321
  546MOL0     O73605   1.840   7.390   3.186  0.1599  0.4214 -0.5409
  546MOL0     C73606   1.966   7.381   3.139 -0.2300 -0.0773  0.1063
  546MOL0     C73607   2.075   7.374   3.227 -0.0190 -0.1708 -0.2226
  546MOL0     C73608   2.207   7.383   3.189 -0.3738  0.1131  0.5941
  546MOL0     C73609   2.239   7.384   3.053 -0.6692 -0.0121  0.6295
  546MOL0     O73610   2.367   7.399   2.992 -0.4390 -0.0800  0.0870
  546MOL0     C73611   2.480   7.392   3.084 -0.0927 -0.4008  0.1710
  546MOL0     C73612   2.605   7.385   2.988  0.1661 -0.4151  0.1246
  546MOL0     C73613   2.725   7.388   3.086 -0.6134  0.2282  0.3772
  546MOL0     C73614   2.851   7.368   3.001  0.8747 -0.1050 -0.4655
  546MOL0     C73615   2.976   7.346   3.084  0.9187 -0.1126 -0.0958
  546MOL0     C73616   3.032   7.479   3.133 -0.1798 -0.4191 -0.0728
  546MOL0     C73617   3.165   7.459   3.207 -0.4907 -0.2084  0.3173
  546MOL0     C73618   3.174   7.531   3.342  0.0088 -0.3132  0.3622
  546MOL0    Cl73619   3.342   7.509   3.394 -0.4909  0.1186  0.3519
  546MOL0     C73620   2.127   7.374   2.970  0.1233 -0.5970  0.1941
  546MOL0     C73621   1.997   7.373   3.006 -0.5266 -0.2714  0.9034
  546MOL0     O73622   1.812   7.607   3.117  0.1314  0.0067 -1.1400
  546MOL0     C73623   1.544   7.622   3.216 -0.1165  0.3031 -0.2017
  546MOL0     C73624   1.417   7.628   3.269  1.0068  0.4034 -0.6951
  546MOL0     N73625   0.734   7.802   3.521 -0.1781  0.7140  0.5695
  546MOL0     N73626   0.690   7.920   3.488 -0.4365  0.0047  0.7732
  546MOL0     C73627   0.433   8.693   2.483 -0.1107 -0.4049 -0.4195
  546MOL0     C73628   0.353   8.696   2.359  1.1833 -0.6805 -0.8017
  546MOL0     C73629   0.275   8.736   1.901  0.0624  0.1209 -0.3096
  546MOL0     C73630   0.142   8.708   1.924  0.9324 -0.0037 -0.1838
  546MOL0     C73631   0.050   8.678   1.825 -0.3474  0.6297  0.2016
  546MOL0     C73632   0.088   8.691   1.690  0.5273 -0.1361 -0.1991
  546MOL0     O73633   0.001   8.651   1.596  0.0629 -0.5584  0.3791
  546MOL0     C73634  -0.010   8.747   1.487 -0.0285  0.3300  0.5597
  546MOL0     C73635  -0.158   8.772   1.465  0.5201 -0.0483  0.3514
  546MOL0     C73636  -0.252   8.658   1.488  0.3381  0.3308  0.4192
  546MOL0     C73637  -0.244   8.555   1.372  0.4809  0.3733  0.7086
  546MOL0     C73638  -0.307   8.598   1.246  0.4868 -0.5611 -0.5154
  546MOL0     C73639  -0.360   8.613   1.139 -0.1464 -0.0069 -0.2666
  546MOL0     C73640   0.225   8.714   1.662 -0.4895 -0.3065 -0.0815
  546MOL0     C73641   0.320   8.733   1.764  0.5810 -1.4718  0.5712
  546MOL0     C73642   0.466   8.753   1.726 -0.1029 -0.4618 -0.2656
  546MOL0     H73643   0.600   8.592   2.152 -1.8634 -1.8609 -1.1923
  546MOL0     H73644   0.727   8.577   2.350 -1.1904 -3.0918 -2.0639
  546MOL0     H73645   0.594   8.478   2.674  1.7944 -0.3724  3.4384
  546MOL0     H73646   0.760   8.489   2.599  0.5880 -0.6373  0.7020
  546MOL0     H73647   0.662   8.605   2.849 -1.9235 -1.1978 -0.8271
  546MOL0     H73648   0.826   8.622   2.775  0.7555 -1.3051 -1.7410
  546MOL0     H73649   0.850   8.453   2.941  1.7417  0.5373 -0.9950
  546MOL0     H73650   0.829   8.356   2.807 -1.8804  1.0641 -2.0788
  546MOL0     H73651   0.587   8.430   2.990  0.7454  1.3171 -1.1599
  546MOL0     H73652   0.582   8.308   2.870  1.3604 -0.1836 -1.3877
  546MOL0     H73653   0.719   8.162   2.977 -1.3059  1.5737 -1.3679
  546MOL0     H73654   0.792   8.280   3.090  2.1084 -1.3448 -2.0889
  546MOL0     H73655   0.557   8.294   3.190 -0.9308 -1.3115  0.5063
  546MOL0     H73656   0.508   8.158   3.093  1.0246 -0.6416 -1.2114
  546MOL0     H73657   0.722   8.176   3.312 -1.3934 -0.4297  0.6663
  546MOL0     H73658   0.745   8.053   3.195  1.3547 -1.0468  3.0158
  546MOL0     H73659   0.506   8.076   3.366 -0.0635 -1.9414  0.8885
  546MOL0     H73660   0.504   7.970   3.226 -4.1898  2.8179  0.6093
  546MOL0     H73661   0.654   7.758   3.206  6.1421  0.7632 -0.8258
  546MOL0     H73662   0.773   7.525   3.496 -2.7174 -1.6153  0.1238
  546MOL0     H73663   0.665   7.516   3.354 -0.7116  0.4586 -0.6055
  546MOL0     H73664   0.865   7.457   3.246  1.6128 -0.0879  1.3467
  546MOL0     H73665   0.881   7.633   3.240 -1.0578  0.8211  0.4123
  546MOL0     H73666   0.976   7.420   3.440 -2.0801  0.8761  0.6992
  546MOL0     H73667   0.991   7.590   3.482  0.3983 -0.6329  1.3085
  546MOL0     H73668   1.117   7.624   3.251 -0.1018 -0.4576 -1.1988
  546MOL0     H73669   1.125   7.455   3.226  0.7651 -0.8569 -0.3420
  546MOL0     H73670   1.400   7.300   3.349 -1.1404  0.2497  0.6751
  546MOL0     H73671   1.621   7.297   3.261 -1.3904 -1.4491 -2.3015
  546MOL0     H73672   2.053   7.380   3.334 -0.5666  1.8919 -0.3969
  546MOL0     H73673   2.288   7.377   3.260  0.3267 -2.0856 -0.2966
  546MOL0     H73674   2.483   7.481   3.148  0.1926 -0.4433  0.2165
  546MOL0     H73675   2.464   7.297   3.134 -0.7069  0.6711  2.1128
  546MOL0     H73676   2.602   7.291   2.931 -2.2458  0.4756 -1.3800
  546MOL0     H73677   2.615   7.473   2.924 -2.4384 -0.1190  0.0359
  546MOL0     H73678   2.720   7.487   3.133 -1.1664  0.2026  0.3748
  546MOL0     H73679   2.715   7.306   3.157 -0.8428  0.2680  0.3914
  546MOL0     H73680   2.861   7.453   2.933  0.5438  1.5707  1.4949
  546MOL0     H73681   2.847   7.277   2.940 -2.0845  1.4083 -2.8510
  546MOL0     H73682   3.042   7.281   3.026 -1.8116 -1.8873 -1.4071
  546MOL0     H73683   2.955   7.279   3.168  0.7117 -0.2390 -0.2485
  546MOL0     H73684   3.036   7.541   3.043  0.0071 -0.9307 -0.4173
  546MOL0     H73685   2.958   7.530   3.196 -0.9485 -0.2147 -1.1133
  546MOL0     H73686   3.247   7.503   3.151 -0.7471 -0.1989 -0.0580
  546MOL0     H73687   3.181   7.352   3.220 -0.4674 -0.0567  1.6389
  546MOL0     H73688   3.155   7.636   3.318 -0.5559 -0.2156  1.2007
  546MOL0     H73689   3.103   7.497   3.417  0.3724  2.8646  2.3500
  546MOL0     H73690   2.134   7.379   2.862  0.2113 -2.9104  0.0549
  546MOL0     H73691   1.919   7.376   2.931 -1.0314  2.2562  1.4325
  546MOL0     H73692   1.587   7.716   3.182  2.8834 -0.1750  1.9016
  546MOL0     H73693   1.356   7.717   3.269 -0.1939 -0.3984 -1.2281
  546MOL0     H73694   0.399   8.705   2.585  2.5548  0.0817  0.5100
  546MOL0     H73695   0.248   8.721   2.359  0.8396 -2.0404 -0.9711
  546MOL0     H73696   0.097   8.695   2.022  0.9536  0.0230 -0.1705
  546MOL0     H73697  -0.049   8.647   1.856  0.6626 -2.3010  0.8903
  546MOL0     H73698   0.040   8.711   1.397  0.6373  1.1102  0.6062
  546MOL0     H73699   0.046   8.837   1.514  0.6178 -0.3214  1.4467
  546MOL0     H73700  -0.180   8.820   1.369 -0.4501 -0.5021  0.3446
  546MOL0     H73701  -0.190   8.854   1.530 -0.8666  0.5032 -0.9689
  546MOL0     H73702  -0.352   8.701   1.491  0.5175  0.6964  2.4158
  546MOL0     H73703  -0.235   8.610   1.585  0.6280 -0.6989 -0.1225
  546MOL0     H73704  -0.145   8.516   1.346 -0.2826  0.6360 -3.3255
  546MOL0     H73705  -0.297   8.470   1.417 -0.4796  1.5045  1.7770
  546MOL0     H73706  -0.411   8.636   1.047  1.4788  2.0338 -0.7417
  546MOL0     H73707   0.249   8.714   1.556  0.8772 -0.2978  0.2111
  546MOL0     H73708   0.473   8.753   1.616 -1.2838  2.6801 -0.4445
  546MOL0     H73709   0.500   8.857   1.740 -2.7810  0.3224  1.0089
  546MOL0     H73710   0.536   8.682   1.770 -0.4288 -0.0913  0.8669
  547MOL0     O73711   8.560   1.339   3.140 -0.5448 -0.1129  0.4756
  547MOL0     C73712   8.563   1.395   3.248  0.6018  0.4375 -0.3946
  547MOL0     O73713   8.674   1.452   3.315  0.1564  0.1757  0.3132
  547MOL0     C73714   8.791   1.420   3.256 -0.0454  0.2759 -0.2134
  547MOL0     C73715   8.889   1.517   3.223  0.2214  0.5539 -0.1530
  547MOL0     C73716   9.016   1.481   3.177  0.7136 -0.3833 -0.5109
  547MOL0     C73717   9.047   1.340   3.170 -0.5088  0.0898 -0.1859
  547MOL0     O73718   9.176   1.297   3.136 -0.5272 -0.1625 -0.5911
  547MOL0     C73719   9.284   1.383   3.144  0.6653  0.1981  0.5645
  547MOL0     C73720   9.415   1.302   3.144  0.5705  0.1639 -0.6382
  547MOL0     C73721   9.550   1.373   3.137  0.3494  0.5191  0.1601
  547MOL0     C73722   9.577   1.422   3.281 -0.2955 -0.5087  0.1643
  547MOL0     C73723   9.708   1.501   3.268 -0.0267  0.3502  0.0675
  547MOL0     C73724   9.835   1.420   3.220 -0.2481  0.4923  0.3609
  547MOL0     C73725   9.956   1.496   3.216 -0.9499 -0.6430  0.0949
  547MOL0     C73726  10.067   1.438   3.133 -0.2272  0.3907  0.2999
  547MOL0     N73727  10.125   1.308   3.172 -0.5549 -0.1103 -1.0032
  547MOL0     C73728  10.237   1.281   3.249  0.1911 -0.1130 -0.3834
  547MOL0     C73729  10.264   1.150   3.228  0.2056  0.5172  0.2714
  547MOL0     C73730  10.372   1.076   3.289  0.2330  0.6849 -0.1321
  547MOL0     C73731  10.435   0.959   3.210  0.3852 -0.0451 -1.2128
  547MOL0     C73732  10.522   0.875   3.296  0.3827 -0.3802 -0.1071
  547MOL0     C73733  10.671   0.897   3.291 -0.1934  0.1578  0.2385
  547MOL0     O73734  10.746   0.783   3.339 -0.2568 -0.0446  0.6313
  547MOL0     C73735  10.884   0.797   3.316  0.4200 -0.7128 -0.6189
  547MOL0     C73736  10.949   0.689   3.375 -0.1011 -0.3423 -0.5248
  547MOL0     C73737  11.089   0.687   3.367  0.0596  0.3451 -0.5410
  547MOL0     C73738  11.164   0.782   3.290  0.3614 -0.6655  0.3330
  547MOL0     C73739  11.311   0.768   3.267  0.4571  0.8017 -0.0223
  547MOL0     O73740  11.353   0.826   3.153 -1.3354  0.1409 -0.5963
  547MOL0     C73741  11.493   0.812   3.133  0.2308 -1.1646  0.1309
  547MOL0     C73742  11.542   0.712   3.051 -0.2349 -0.7288  0.6968
  547MOL0     C73743  11.683   0.698   3.031 -0.1607  0.0140 -0.2780
  547MOL0     C73744  11.768   0.780   3.103  0.2242  0.2842  0.3682
  547MOL0     O73745  11.902   0.771   3.103  0.1603 -0.0301 -0.4354
  547MOL0     C73746  11.975   0.655   3.087 -0.0087 -0.1294 -1.1588
  547MOL0     C73747  12.117   0.673   3.149 -0.1693 -0.2989  0.8720
  547MOL0     C73748  12.201   0.539   3.154 -0.0588 -0.4755  0.6481
  547MOL0     C73749  12.334   0.562   3.213  1.2194  0.1683  0.2507
  547MOL0     C73750  12.402   0.428   3.253 -0.2996  0.2676  0.6755
  547MOL0     C73751  12.550   0.441   3.267  0.0090 -0.4755 -1.2301
  547MOL0     C73752  12.620   0.306   3.300  0.0004 -0.4008 -1.0827
  547MOL0     C73753  12.664   0.244   3.168  0.4243 -1.0226  0.7864
  547MOL0    Cl73754  12.687   0.068   3.195 -0.0851  0.3071  0.1925
  547MOL0     C73755  11.716   0.878   3.187  0.2002 -0.7621  0.4298
  547MOL0     C73756  11.579   0.903   3.192 -0.6780 -0.0518  0.0067
  547MOL0     O73757  11.382   0.722   3.355 -0.3466  0.4442 -0.1818
  547MOL0     C73758  11.094   0.909   3.245  0.0701  0.2192  0.0778
  547MOL0     C73759  10.953   0.912   3.259  0.5342  0.6155  0.0874
  547MOL0     N73760  10.164   1.097   3.146  0.4192 -0.1695 -0.7514
  547MOL0     N73761  10.082   1.191   3.118  0.3357 -1.3151  0.4920
  547MOL0     C73762   8.960   1.238   3.219  0.0029  0.2923 -0.5223
  547MOL0     C73763   8.836   1.280   3.262  0.3022 -0.1071 -0.1800
  547MOL0     C73764   8.435   1.386   3.340 -1.0339  0.1141  0.5049
  547MOL0     C73765   8.450   1.417   3.478 -0.5471  0.4630 -0.3602
  547MOL0     C73766   8.339   1.395   3.557 -0.1145 -0.2609 -0.5836
  547MOL0     C73767   8.218   1.349   3.511 -0.2235 -0.0900  0.0478
  547MOL0     O73768   8.112   1.328   3.601 -0.4645  0.2561 -0.3513
  547MOL0     C73769   8.009   1.239   3.578  0.2904 -0.4730 -0.0293
  547MOL0     C73770   7.879   1.299   3.520  0.1358 -0.4562 -0.5985
  547MOL0     C73771   7.841   1.408   3.619 -0.7225  0.1544  0.3748
  547MOL0     C73772   7.699   1.456   3.594 -0.2562 -0.5796 -0.5551
  547MOL0     C73773   7.635   1.490   3.725 -0.3587  0.0833  0.3845
  547MOL0     C73774   7.596   1.511   3.840  0.0436 -0.9252 -0.1411
  547MOL0     C73775   8.203   1.336   3.374 -0.0866 -0.3444 -0.0312
  547MOL0     C73776   8.306   1.360   3.284 -0.4689 -0.3353  0.0387
  547MOL0     C73777   8.278   1.359   3.138  0.4045  0.1094 -0.7456
  547MOL0     H73778   8.877   1.624   3.237  0.8236  0.9817 -2.4645
  547MOL0     H73779   9.086   1.562   3.158 -2.0904  2.3060 -0.1714
  547MOL0     H73780   9.291   1.451   3.058 -0.4597  0.1447  0.4086
  547MOL0     H73781   9.275   1.448   3.231  0.9200 -1.1907  1.6497
  547MOL0     H73782   9.410   1.219   3.072  1.3834 -0.2353 -0.2492
  547MOL0     H73783   9.405   1.236   3.230 -0.2964 -1.4152 -1.8798
  547MOL0     H73784   9.554   1.447   3.057  2.1516  2.2459  1.7384
  547MOL0     H73785   9.622   1.295   3.109 -3.1446 -2.4875 -1.2201
  547MOL0     H73786   9.498   1.487   3.318  2.0492  1.9222  1.2271
  547MOL0     H73787   9.595   1.340   3.352  1.4137 -0.3662 -0.0663
  547MOL0     H73788   9.685   1.584   3.200  3.1139  1.2811 -0.0454
  547MOL0     H73789   9.718   1.548   3.367  1.2724 -0.4516  0.3337
  547MOL0     H73790   9.863   1.352   3.300  2.0499  1.9009  0.8393
  547MOL0     H73791   9.812   1.372   3.124  0.8192  1.8298 -0.6014
  547MOL0     H73792   9.985   1.533   3.315 -0.6224  4.0425 -1.5179
  547MOL0     H73793   9.930   1.583   3.155 -1.6673 -1.0397 -0.1748
  547MOL0     H73794  10.036   1.429   3.029 -2.1287 -2.4295  1.0000
  547MOL0     H73795  10.158   1.499   3.139  1.4733 -2.0486  5.9028
  547MOL0     H73796  10.293   1.341   3.321  0.4770  0.0709 -0.7577
  547MOL0     H73797  10.451   1.144   3.319  2.1180 -2.0257  1.4238
  547MOL0     H73798  10.325   1.053   3.385 -0.8668  0.3110 -0.7365
  547MOL0     H73799  10.355   0.891   3.178  0.4289 -0.6422 -0.0907
  547MOL0     H73800  10.485   1.003   3.124 -2.0163  1.2539 -2.0523
  547MOL0     H73801  10.501   0.773   3.264  2.5925 -0.1969 -2.5178
  547MOL0     H73802  10.489   0.902   3.397 -1.9373  0.9235 -1.1271
  547MOL0     H73803  10.696   0.976   3.362 -1.2086 -1.3152  2.3373
  547MOL0     H73804  10.690   0.922   3.186 -1.4639  1.1839  0.2278
  547MOL0     H73805  10.885   0.611   3.414 -1.5925  2.0362  2.1178
  547MOL0     H73806  11.133   0.599   3.413 -2.0758  1.0268  3.1905
  547MOL0     H73807  11.463   0.650   3.010  1.7136 -2.8681  0.0134
  547MOL0     H73808  11.714   0.613   2.970  1.3066 -0.1097  0.5963
  547MOL0     H73809  11.931   0.579   3.151  1.3404  1.6378  2.1071
  547MOL0     H73810  11.980   0.618   2.984 -1.4111  1.1681 -1.7304
  547MOL0     H73811  12.165   0.741   3.078  0.0053 -2.1353 -0.8591
  547MOL0     H73812  12.101   0.727   3.243 -1.0434  0.5693  0.2458
  547MOL0     H73813  12.150   0.465   3.218  1.8929 -1.4028  1.1993
  547MOL0     H73814  12.221   0.492   3.057  1.1399  0.2466  0.5261
  547MOL0     H73815  12.323   0.617   3.307  1.3546  0.8870 -0.1454
  547MOL0     H73816  12.399   0.622   3.149  1.2922 -1.0690 -0.8849
  547MOL0     H73817  12.377   0.358   3.173  0.5955 -0.7557  1.2684
  547MOL0     H73818  12.358   0.380   3.340  1.9842 -1.5028  0.9478
  547MOL0     H73819  12.591   0.492   3.180 -1.7662 -0.0096 -1.8433
  547MOL0     H73820  12.567   0.510   3.350  0.3049 -1.0871 -0.7759
  547MOL0     H73821  12.546   0.239   3.345 -0.5884  1.1293  0.3166
  547MOL0     H73822  12.703   0.317   3.370 -0.9550 -4.1851  0.9077
  547MOL0     H73823  12.588   0.253   3.089 -2.4446  2.4850  3.6310
  547MOL0     H73824  12.754   0.288   3.125 -0.7378  0.5479 -0.1519
  547MOL0     H73825  11.787   0.939   3.242 -0.0041  0.7408 -0.9222
  547MOL0     H73826  11.541   0.972   3.267 -0.9951 -2.3996  2.1503
  547MOL0     H73827  11.140   0.999   3.208  3.0355 -1.3274 -0.2558
  547MOL0     H73828  10.898   0.995   3.217  0.8509  0.5669 -0.4379
  547MOL0     H73829   8.993   1.136   3.231  1.9919  1.0113  0.6579
  547MOL0     H73830   8.761   1.210   3.295  0.0104  0.4319  0.3166
  547MOL0     H73831   8.546   1.444   3.521  0.0635 -0.0198 -1.3995
  547MOL0     H73832   8.345   1.413   3.664  0.8220 -0.5951 -0.5770
  547MOL0     H73833   7.976   1.200   3.675  0.5026 -0.4425  0.0550
  547MOL0     H73834   8.034   1.149   3.523  1.3676 -0.3460  0.2330
  547MOL0     H73835   7.799   1.224   3.519 -0.7873  0.4981 -0.2792
  547MOL0     H73836   7.893   1.336   3.418 -1.3393 -1.5549 -1.2401
  547MOL0     H73837   7.903   1.496   3.601 -1.2615  0.1722 -1.6356
  547MOL0     H73838   7.865   1.390   3.723  0.4696  1.0613  0.2780
  547MOL0     H73839   7.703   1.541   3.526 -2.3143 -0.0246 -0.0728
  547MOL0     H73840   7.641   1.380   3.540  0.1284 -0.3309 -1.3270
  547MOL0     H73841   7.553   1.534   3.935 -1.1226 -0.0942 -0.8318
  547MOL0     H73842   8.107   1.304   3.334 -0.8270  1.4636  0.2012
  547MOL0     H73843   8.170   1.369   3.125  0.3533  0.3593 -0.1781
  547MOL0     H73844   8.321   1.442   3.082 -3.5426  1.0226 -2.7344
  547MOL0     H73845   8.322   1.273   3.086  0.4010 -0.6289  0.4159
  548MOL0     O73846   0.188   1.452   2.187  0.2974  0.4756 -0.5276
  548MOL0     C73847   0.157   1.458   2.304  0.3950  1.0458  0.4774
  548MOL0     O73848   0.235   1.422   2.404 -0.6887  0.3212 -0.1304
  548MOL0     C73849   0.358   1.370   2.370  0.4491 -1.3912  0.0061
  548MOL0     C73850   0.471   1.456   2.372 -0.6097  0.3366  0.0216
  548MOL0     C73851   0.595   1.392   2.365 -0.3339  0.3195  0.1388
  548MOL0     C73852   0.608   1.258   2.317  0.4954  0.6035 -0.7099
  548MOL0     O73853   0.724   1.188   2.301 -0.3085  0.1560 -0.8124
  548MOL0     C73854   0.806   1.226   2.198 -0.7373 -0.2787  0.1766
  548MOL0     C73855   0.953   1.196   2.220 -0.3780 -0.1471 -1.2051
  548MOL0     C73856   1.016   1.300   2.318 -0.5177  0.5101  0.9820
  548MOL0     C73857   1.149   1.254   2.386 -0.5283 -0.0500 -0.3142
  548MOL0     C73858   1.208   1.358   2.480 -0.1026  0.1683 -0.4739
  548MOL0     C73859   1.359   1.329   2.512 -0.7013 -0.9598  0.3157
  548MOL0     C73860   1.426   1.433   2.608 -0.3216  0.5892  0.1077
  548MOL0     C73861   1.575   1.395   2.623 -0.2032  0.2163 -0.1108
  548MOL0     N73862   1.650   1.481   2.723 -0.2361  0.5758  1.0336
  548MOL0     C73863   1.735   1.417   2.811 -0.0126  0.4705 -1.1856
  548MOL0     C73864   1.784   1.521   2.880  0.2322 -1.0724  0.6793
  548MOL0     C73865   1.895   1.519   2.982 -0.2841  0.0948 -1.4437
  548MOL0     C73866   2.043   1.540   2.934  0.0640  0.8925 -0.3989
  548MOL0     C73867   2.078   1.465   2.794 -0.3007  0.1985 -0.8448
  548MOL0     C73868   2.064   1.315   2.798  0.5781 -0.3650  0.6516
  548MOL0     O73869   2.073   1.257   2.930  0.0852 -0.6531 -0.0671
  548MOL0     C73870   2.192   1.227   2.986 -0.7866  0.4961 -0.1020
  548MOL0     C73871   2.317   1.254   2.940 -0.5529  0.0693  0.2041
  548MOL0     C73872   2.427   1.231   3.026  0.0352 -0.4663  0.0379
  548MOL0     C73873   2.411   1.186   3.158  0.2004  0.1291  0.0751
  548MOL0     C73874   2.523   1.169   3.248  0.3662 -0.6159  0.0861
  548MOL0     O73875   2.644   1.186   3.178  0.4311 -0.0147 -0.8400
  548MOL0     C73876   2.764   1.180   3.240 -0.3219 -0.1130  0.5634
  548MOL0     C73877   2.789   1.096   3.343  0.0477 -0.8065 -0.1644
  548MOL0     C73878   2.916   1.093   3.404 -0.0112  0.2160  0.4414
  548MOL0     C73879   3.022   1.155   3.340 -0.8038  0.9048  0.2382
  548MOL0     O73880   3.144   1.124   3.392 -0.0610  0.4988  0.3378
  548MOL0     C73881   3.231   1.236   3.396 -0.7860  0.1051 -0.2221
  548MOL0     C73882   3.322   1.225   3.517 -0.6882 -0.3494  0.7238
  548MOL0     C73883   3.417   1.343   3.515  0.2727 -0.2584  0.1778
  548MOL0     C73884   3.520   1.346   3.400  0.1105 -0.6091  0.6977
  548MOL0     C73885   3.625   1.466   3.408  0.3636  0.8047  0.6761
  548MOL0     C73886   3.742   1.411   3.508 -0.5525 -0.1545  0.2431
  548MOL0     C73887   3.845   1.528   3.531 -0.2691 -0.1723 -0.3461
  548MOL0     C73888   3.953   1.523   3.411  1.2051  0.2395 -0.2149
  548MOL0    Cl73889   4.059   1.382   3.436 -0.1277 -0.0160  0.5577
  548MOL0     C73890   2.998   1.231   3.226  0.2892  0.2885 -0.3357
  548MOL0     C73891   2.868   1.243   3.171 -0.2687  0.2848  0.2567
  548MOL0     O73892   2.516   1.137   3.365 -0.3699  0.6962  0.1648
  548MOL0     C73893   2.289   1.156   3.198 -0.2390 -0.1914 -0.1662
  548MOL0     C73894   2.178   1.167   3.112  0.9095 -0.1627 -0.3721
  548MOL0     N73895   1.730   1.640   2.835 -0.5236  0.3133 -0.8114
  548MOL0     N73896   1.638   1.617   2.745  0.7640  0.1773  0.5973
  548MOL0     C73897   0.493   1.185   2.299  0.1358 -0.3784 -0.0858
  548MOL0     C73898   0.365   1.243   2.330  0.0526  1.2250  0.0400
  548MOL0     C73899   0.018   1.498   2.345  0.4142  1.1001 -0.1536
  548MOL0     C73900  -0.075   1.496   2.235  0.2381  0.5509 -0.1811
  548MOL0     C73901  -0.212   1.516   2.265  0.4237 -0.8498 -0.4575
  548MOL0     C73902  -0.258   1.534   2.396  0.2114  0.1360  0.0545
  548MOL0     O73903  -0.395   1.546   2.423 -0.1597  0.8072 -0.0650
  548MOL0     C73904  -0.464   1.649   2.352 -0.2080 -0.3236  0.2421
  548MOL0     C73905  -0.568   1.583   2.261  0.2772  0.5372  0.4126
  548MOL0     C73906  -0.659   1.500   2.354 -0.0069  0.5851 -0.3871
  548MOL0     C73907  -0.801   1.517   2.297  0.2856 -0.1656 -0.6804
  548MOL0     C73908  -0.903   1.432   2.360 -0.2798  0.0171  0.1698
  548MOL0     C73909  -0.991   1.358   2.400 -0.0423  0.7873  0.0912
  548MOL0     C73910  -0.160   1.532   2.495  0.6918  0.2076 -0.3494
  548MOL0     C73911  -0.025   1.515   2.475 -0.1963  1.1270  0.2894
  548MOL0     C73912   0.066   1.522   2.596  0.3428  0.4545 -0.5062
  548MOL0     H73913   0.463   1.559   2.406 -1.0914  0.0472  0.8131
  548MOL0     H73914   0.681   1.456   2.381  0.8107 -0.7417 -1.4931
  548MOL0     H73915   0.786   1.173   2.105  0.1949  0.4343 -0.4483
  548MOL0     H73916   0.799   1.333   2.176 -0.4146 -0.7579 -2.5643
  548MOL0     H73917   1.007   1.194   2.125  1.4981 -0.1834 -0.1705
  548MOL0     H73918   0.983   1.098   2.258  3.8233  0.8658 -1.4914
  548MOL0     H73919   0.944   1.313   2.399  0.5635 -0.7712  2.1960
  548MOL0     H73920   1.021   1.396   2.265 -0.0295 -0.9896 -1.9308
  548MOL0     H73921   1.137   1.163   2.446  1.4970 -0.0594  0.1381
  548MOL0     H73922   1.225   1.216   2.318  1.3380  1.2048  0.9563
  548MOL0     H73923   1.191   1.460   2.444 -1.0598  0.8061  1.5877
  548MOL0     H73924   1.155   1.343   2.575 -0.7134 -0.1178 -0.8487
  548MOL0     H73925   1.373   1.228   2.552 -1.0399 -0.1233  2.7418
  548MOL0     H73926   1.420   1.328   2.421  1.3694  0.8088  1.5680
  548MOL0     H73927   1.385   1.432   2.710  2.6800  0.3889  1.4126
  548MOL0     H73928   1.418   1.534   2.567 -5.9778  0.6818  0.6700
  548MOL0     H73929   1.575   1.290   2.654 -0.2835  0.7374  1.7794
  548MOL0     H73930   1.624   1.425   2.530 -1.0735  0.0009 -0.6421
  548MOL0     H73931   1.764   1.313   2.825  0.4066  0.5406 -1.5184
  548MOL0     H73932   1.869   1.586   3.064 -0.7175 -0.1134 -1.4098
  548MOL0     H73933   1.897   1.414   3.013  1.1315 -0.3845 -2.9898
  548MOL0     H73934   2.054   1.647   2.914 -0.8586  1.6695  2.6830
  548MOL0     H73935   2.101   1.513   3.022 -3.8529  1.4006  2.6284
  548MOL0     H73936   2.182   1.484   2.764 -0.0643  1.6127  0.7156
  548MOL0     H73937   2.017   1.525   2.726  0.3951  1.7978 -0.1363
  548MOL0     H73938   2.131   1.267   2.726  1.1030 -0.9347  1.4908
  548MOL0     H73939   1.964   1.298   2.758  0.3006  1.4880  0.4771
  548MOL0     H73940   2.343   1.309   2.850  2.0270 -0.5133  0.5040
  548MOL0     H73941   2.522   1.274   2.998 -0.6793  0.3161 -1.2845
  548MOL0     H73942   2.729   1.018   3.389 -2.0903  1.7759  1.7345
  548MOL0     H73943   2.927   1.031   3.493  1.5879  0.7582  0.6431
  548MOL0     H73944   3.293   1.244   3.305  1.6507 -0.3632  1.3074
  548MOL0     H73945   3.173   1.324   3.425 -2.3860 -0.6853 -0.9084
  548MOL0     H73946   3.255   1.241   3.603 -0.7453  2.7379  0.2153
  548MOL0     H73947   3.387   1.137   3.523  0.1697  0.2792  0.8767
  548MOL0     H73948   3.366   1.439   3.519 -0.7350 -0.7937  0.6324
  548MOL0     H73949   3.471   1.334   3.609 -2.6621 -1.4823  1.9105
  548MOL0     H73950   3.472   1.359   3.302  4.3294  1.4441 -1.3289
  548MOL0     H73951   3.559   1.245   3.414 -0.3562 -0.9846 -0.5705
  548MOL0     H73952   3.581   1.564   3.431  0.6361  1.9505 -3.0321
  548MOL0     H73953   3.670   1.474   3.309 -0.4595 -1.6141  0.0410
  548MOL0     H73954   3.701   1.382   3.605  1.9618  0.2548  1.5002
  548MOL0     H73955   3.788   1.323   3.464  0.4490  0.0162  0.9156
  548MOL0     H73956   3.895   1.522   3.628 -0.5112  0.0784 -0.2046
  548MOL0     H73957   3.790   1.622   3.521 -0.3029 -0.3244 -1.9362
  548MOL0     H73958   3.909   1.512   3.311  0.4093 -1.4514  0.2761
  548MOL0     H73959   4.007   1.618   3.404  2.8732 -0.5381  1.3684
  548MOL0     H73960   3.085   1.262   3.169  4.1209 -3.5835  2.7263
  548MOL0     H73961   2.841   1.304   3.086  0.7050  1.6669  0.9022
  548MOL0     H73962   2.272   1.105   3.292 -1.2614 -1.5086 -1.0295
  548MOL0     H73963   2.081   1.138   3.149  0.6671  0.7569 -0.2617
  548MOL0     H73964   0.497   1.083   2.260  1.4365 -0.1911 -0.4868
  548MOL0     H73965   0.275   1.190   2.302  0.5003 -0.0288  0.8937
  548MOL0     H73966  -0.042   1.488   2.132  2.2673 -0.0423  0.4534
  548MOL0     H73967  -0.282   1.520   2.183  2.4891 -0.8023 -2.3252
  548MOL0     H73968  -0.401   1.715   2.292  0.2629 -0.5791  0.4545
  548MOL0     H73969  -0.524   1.716   2.414 -1.1067  1.7391 -2.6288
  548MOL0     H73970  -0.524   1.511   2.191 -2.7695 -0.8363 -0.2332
  548MOL0     H73971  -0.603   1.672   2.209  1.6935 -0.2661 -2.0648
  548MOL0     H73972  -0.660   1.536   2.457  2.7743 -1.2484  0.4027
  548MOL0     H73973  -0.624   1.397   2.342  0.7021  1.1163 -5.1576
  548MOL0     H73974  -0.842   1.617   2.316 -1.1302 -1.0484  1.3553
  548MOL0     H73975  -0.798   1.499   2.189  1.5159 -2.7327 -0.2820
  548MOL0     H73976  -1.082   1.302   2.412 -0.2924  0.4175 -2.7982
  548MOL0     H73977  -0.198   1.542   2.596 -0.8928 -1.2137 -0.7469
  548MOL0     H73978   0.104   1.422   2.618  0.7748  0.5691 -0.7284
  548MOL0     H73979   0.153   1.588   2.588 -0.4436  1.4873 -0.8197
  548MOL0     H73980   0.005   1.541   2.685  0.1419  2.5901 -1.0522
  549MOL0     O73981   0.286   2.953   7.989 -0.9399 -0.0667  0.4344
  549MOL0     C73982   0.224   2.866   7.930  0.2814  0.1305 -1.6501
  549MOL0     O73983   0.274   2.767   7.847 -0.8660  0.1882 -0.6409
  549MOL0     C73984   0.407   2.781   7.810  0.3731 -0.3924 -0.1039
  549MOL0     C73985   0.443   2.773   7.682 -0.4172  0.5196  0.2070
  549MOL0     C73986   0.575   2.756   7.636  1.0882 -0.7015 -0.0748
  549MOL0     C73987   0.683   2.765   7.722  0.3300 -0.4892  0.9028
  549MOL0     O73988   0.819   2.767   7.690 -0.1797 -0.5068  1.0110
  549MOL0     C73989   0.850   2.753   7.549  0.6502 -0.2157  0.0670
  549MOL0     C73990   1.004   2.757   7.545 -0.3832 -0.1230 -0.4577
  549MOL0     C73991   1.055   2.722   7.395  0.0752  0.4660  0.1145
  549MOL0     C73992   1.188   2.794   7.373  0.8236  0.2671 -0.1441
  549MOL0     C73993   1.267   2.758   7.248  0.3834  1.1112  0.3846
  549MOL0     C73994   1.407   2.800   7.260  0.4359 -0.0421 -0.8336
  549MOL0     C73995   1.494   2.736   7.160  0.5610  0.1011  0.2205
  549MOL0     C73996   1.449   2.765   7.014 -0.6150  1.0758  0.5438
  549MOL0     N73997   1.530   2.700   6.907  0.1724  0.4747  0.2611
  549MOL0     C73998   1.589   2.574   6.907 -0.6392  0.3285 -0.5101
  549MOL0     C73999   1.638   2.556   6.780  0.6474  0.5879  0.1232
  549MOL0     C74000   1.696   2.434   6.715  0.6904 -0.1417 -0.3151
  549MOL0     C74001   1.630   2.380   6.588 -0.6927 -0.2503 -0.2002
  549MOL0     C74002   1.493   2.323   6.607 -0.0851  0.1211  0.3559
  549MOL0     C74003   1.424   2.293   6.469  0.1088  0.7080 -0.0474
  549MOL0     O74004   1.351   2.169   6.465  0.7566 -0.1034  1.0952
  549MOL0     C74005   1.213   2.170   6.483  0.0234 -1.1281 -0.0267
  549MOL0     C74006   1.143   2.057   6.462 -0.4027  0.3556 -0.2629
  549MOL0     C74007   1.014   2.031   6.489  0.7430 -0.1653  0.9519
  549MOL0     C74008   0.923   2.137   6.532  0.2893  0.6904  0.4265
  549MOL0     C74009   0.782   2.100   6.575 -0.3578  0.2695  0.3780
  549MOL0     O74010   0.760   1.973   6.596 -0.1248  0.2960  0.1071
  549MOL0     C74011   0.638   1.928   6.573 -0.1761 -0.0107  0.1955
  549MOL0     C74012   0.537   1.943   6.666  0.1143 -0.3278  0.2617
  549MOL0     C74013   0.402   1.928   6.630 -0.2272  0.1079 -0.1818
  549MOL0     C74014   0.367   1.890   6.500 -0.2831 -0.0528  0.4495
  549MOL0     O74015   0.232   1.889   6.451 -0.2860  0.6323 -0.1196
  549MOL0     C74016   0.190   1.768   6.389 -0.2830 -1.0171  0.2320
  549MOL0     C74017   0.046   1.742   6.438  0.1055  0.8992  0.2999
  549MOL0     C74018   0.042   1.699   6.587 -0.6457  0.0601 -0.0446
  549MOL0     C74019  -0.109   1.680   6.617 -0.2202 -0.0507 -0.9369
  549MOL0     C74020  -0.119   1.613   6.757 -0.2745  1.5337  0.3255
  549MOL0     C74021  -0.247   1.529   6.774 -0.3372  0.5643 -0.5248
  549MOL0     C74022  -0.241   1.431   6.899 -0.0967  0.1156 -0.3985
  549MOL0     C74023  -0.361   1.331   6.914 -0.1428 -0.5822 -0.8030
  549MOL0    Cl74024  -0.502   1.421   6.978 -0.0891 -0.7506  0.3615
  549MOL0     C74025   0.470   1.885   6.406  0.3631  0.3655 -0.7963
  549MOL0     C74026   0.598   1.895   6.439  0.4943  0.7576 -1.1081
  549MOL0     O74027   0.696   2.190   6.583 -0.6717 -0.5423 -0.2535
  549MOL0     C74028   0.988   2.261   6.544  0.5414 -0.0979 -0.0222
  549MOL0     C74029   1.129   2.277   6.530  0.0753 -0.3862  0.0857
  549MOL0     N74030   1.610   2.671   6.712 -1.3175 -1.2739  0.8445
  549MOL0     N74031   1.552   2.756   6.782 -0.2557 -0.1746  0.0670
  549MOL0     C74032   0.649   2.788   7.858 -0.3378 -0.2243 -0.2262
  549MOL0     C74033   0.517   2.776   7.900 -0.5966  0.2118  0.0142
  549MOL0     C74034   0.080   2.865   7.952  0.6655 -0.7970  0.8076
  549MOL0     C74035   0.047   2.864   8.088  0.4940 -0.2042 -0.1892
  549MOL0     C74036  -0.095   2.853   8.122  0.6942  1.4742  0.6845
  549MOL0     C74037  -0.188   2.846   8.029 -0.0884 -0.4670  0.2532
  549MOL0     O74038  -0.313   2.851   8.082  0.1612  0.3103 -0.3357
  549MOL0     C74039  -0.420   2.832   7.992 -0.1482  0.0424  0.8143
  549MOL0     C74040  -0.550   2.814   8.074  0.0530 -0.2779 -0.3008
  549MOL0     C74041  -0.679   2.785   7.996 -0.4521 -0.5931 -0.0582
  549MOL0     C74042  -0.784   2.734   8.095 -0.1909  1.0686  0.1737
  549MOL0     C74043  -0.911   2.744   8.020 -0.6935 -0.5599 -0.4732
  549MOL0     C74044  -1.027   2.745   7.976  0.2805  0.1046  0.0255
  549MOL0     C74045  -0.151   2.844   7.895 -0.9364 -0.2947  0.6415
  549MOL0     C74046  -0.013   2.857   7.850  1.4348 -0.7354 -0.6820
  549MOL0     C74047   0.018   2.863   7.708  0.2975 -0.5613 -0.2949
  549MOL0     H74048   0.376   2.746   7.602  0.4131 -0.7127 -0.1008
  549MOL0     H74049   0.579   2.743   7.529 -1.8508  3.6654 -0.9808
  549MOL0     H74050   0.793   2.668   7.511 -0.6323 -0.4490  2.3363
  549MOL0     H74051   0.824   2.841   7.491 -1.0098 -1.2449 -0.8337
  549MOL0     H74052   1.048   2.682   7.611 -0.1474  1.0650  0.7775
  549MOL0     H74053   1.037   2.859   7.567  1.6369 -0.7240 -0.4815
  549MOL0     H74054   0.993   2.756   7.312  0.3865  0.3452 -0.1705
  549MOL0     H74055   1.063   2.613   7.398  3.2549  0.6339  1.1658
  549MOL0     H74056   1.169   2.900   7.355  4.0180  1.0619  0.5597
  549MOL0     H74057   1.257   2.787   7.458  1.2918 -2.8730 -0.6409
  549MOL0     H74058   1.272   2.649   7.242 -1.3220  1.1006 -2.0717
  549MOL0     H74059   1.216   2.790   7.157  1.6964  1.2734 -0.3220
  549MOL0     H74060   1.422   2.909   7.257  2.6855 -0.2030  1.1423
  549MOL0     H74061   1.444   2.779   7.361  0.3617  2.5518 -0.1795
  549MOL0     H74062   1.500   2.629   7.185  0.1927 -0.4523 -1.9005
  549MOL0     H74063   1.592   2.782   7.176  0.0118  1.6615 -0.7451
  549MOL0     H74064   1.345   2.731   6.999  0.6663 -2.3647 -1.9630
  549MOL0     H74065   1.455   2.874   7.018  2.9923  0.9781  1.0473
  549MOL0     H74066   1.581   2.495   6.981 -1.0914  1.2964  0.4913
  549MOL0     H74067   1.790   2.463   6.667  1.0084 -0.0350  0.3638
  549MOL0     H74068   1.713   2.356   6.790 -1.7007 -2.6629 -2.1845
  549MOL0     H74069   1.634   2.461   6.514  0.6114 -0.1733 -0.0669
  549MOL0     H74070   1.707   2.308   6.558  3.2635  2.6617  2.1048
  549MOL0     H74071   1.422   2.384   6.665 -0.7575 -1.8493  1.6933
  549MOL0     H74072   1.503   2.233   6.667  1.2354  1.1155  1.7139
  549MOL0     H74073   1.507   2.283   6.399 -1.1717  1.6821 -1.7984
  549MOL0     H74074   1.362   2.379   6.441  1.4148  1.5493 -0.4230
  549MOL0     H74075   1.208   1.979   6.424 -3.3441 -2.2774 -0.3054
  549MOL0     H74076   0.981   1.929   6.470  1.5277 -0.1059 -0.9806
  549MOL0     H74077   0.563   1.973   6.767  2.2706 -0.4892 -0.1959
  549MOL0     H74078   0.326   1.923   6.708  1.6330 -0.6408  1.6741
  549MOL0     H74079   0.181   1.770   6.280 -1.8774 -0.6686  0.3485
  549MOL0     H74080   0.256   1.685   6.415  0.9958  0.0434  0.4766
  549MOL0     H74081  -0.016   1.828   6.412 -2.1557  0.0010  2.3298
  549MOL0     H74082  -0.002   1.669   6.372  0.2178  2.6973 -1.8708
  549MOL0     H74083   0.090   1.601   6.588  2.5752  1.3355  5.0900
  549MOL0     H74084   0.092   1.764   6.659  0.8416  0.1065 -1.0922
  549MOL0     H74085  -0.154   1.615   6.541  1.1080 -1.9571 -0.1940
  549MOL0     H74086  -0.154   1.779   6.603 -2.1087 -1.0601 -2.6385
  549MOL0     H74087  -0.122   1.690   6.835 -0.6359  0.9934  0.8529
  549MOL0     H74088  -0.028   1.553   6.765 -1.2483 -0.3946 -2.0938
  549MOL0     H74089  -0.327   1.601   6.791  0.5218  1.6612 -0.9562
  549MOL0     H74090  -0.249   1.465   6.685 -2.0708  0.0169 -0.1179
  549MOL0     H74091  -0.235   1.493   6.989  1.7986 -0.8355  0.1717
  549MOL0     H74092  -0.145   1.379   6.895  0.8735  1.7770 -0.0749
  549MOL0     H74093  -0.396   1.292   6.818 -1.0419  0.9888 -1.1649
  549MOL0     H74094  -0.342   1.243   6.975  2.9206  1.4789  1.5361
  549MOL0     H74095   0.460   1.890   6.298 -1.5848 -1.3407 -0.7625
  549MOL0     H74096   0.678   1.886   6.366  2.5742  0.0052  1.0979
  549MOL0     H74097   0.933   2.348   6.578  0.7279  0.0710 -0.1539
  549MOL0     H74098   1.167   2.374   6.561  1.0177 -1.0795  1.2305
  549MOL0     H74099   0.722   2.797   7.939  1.1672 -2.0242 -1.3036
  549MOL0     H74100   0.484   2.773   8.003 -3.1595 -0.6686 -0.7493
  549MOL0     H74101   0.123   2.882   8.164  0.4481  2.4849 -0.6864
  549MOL0     H74102  -0.114   2.863   8.228 -2.6194  0.0097  0.3497
  549MOL0     H74103  -0.403   2.753   7.919  1.8700  1.8596 -0.8393
  549MOL0     H74104  -0.433   2.922   7.931  2.3367  0.1699  0.3586
  549MOL0     H74105  -0.565   2.907   8.128  3.5678  0.5977 -0.5814
  549MOL0     H74106  -0.537   2.731   8.144  3.9756 -0.3855 -0.8890
  549MOL0     H74107  -0.669   2.715   7.912 -0.2250 -2.2714  1.3021
  549MOL0     H74108  -0.709   2.879   7.949  2.2971  0.6426  0.4633
  549MOL0     H74109  -0.777   2.627   8.115 -1.2799  0.2803 -2.9962
  549MOL0     H74110  -0.799   2.798   8.183 -0.7382  0.0078  0.8766
  549MOL0     H74111  -1.129   2.729   7.948  0.8347 -2.5678 -0.7414
  549MOL0     H74112  -0.237   2.829   7.831 -1.1597 -1.7606  1.2416
  549MOL0     H74113  -0.075   2.849   7.652 -0.4048 -0.0511  0.7213
  549MOL0     H74114   0.061   2.963   7.695  0.2283 -0.6957 -1.8133
  549MOL0     H74115   0.094   2.790   7.679  0.5749 -0.6304  0.5827
  550MOL0     O74116  10.183   2.530   0.557 -0.4682 -0.4529  0.2913
  550MOL0     C74117  10.100   2.454   0.599  0.4288 -0.5343  0.0726
  550MOL0     O74118  10.107   2.315   0.588 -0.1737 -0.2594  0.1283
  550MOL0     C74119  10.222   2.258   0.540 -0.5195 -0.7335 -0.3844
  550MOL0     C74120  10.338   2.254   0.619  0.5311 -0.0664  0.0594
  550MOL0     C74121  10.451   2.183   0.574 -0.5348  0.5275  0.4598
  550MOL0     C74122  10.453   2.114   0.451 -0.0581 -0.1925  0.6398
  550MOL0     O74123  10.563   2.051   0.399 -0.4200  0.1266  0.5436
  550MOL0     C74124  10.550   1.905   0.392 -0.3049 -0.3475 -0.1488
  550MOL0     C74125  10.678   1.838   0.336  0.0705 -0.0652  0.3965
  550MOL0     C74126  10.802   1.849   0.422 -0.3277 -0.7614 -0.8967
  550MOL0     C74127  10.925   1.773   0.373 -0.4767 -0.1751  0.5567
  550MOL0     C74128  11.029   1.807   0.471 -0.6815 -0.1657 -0.4133
  550MOL0     C74129  11.167   1.767   0.434 -0.2103 -0.1783  0.1964
  550MOL0     C74130  11.264   1.811   0.545 -0.1873  0.0281  0.3571
  550MOL0     C74131  11.365   1.923   0.508 -0.2287 -0.2626  1.0471
  550MOL0     N74132  11.451   1.963   0.617 -0.4154 -0.6294 -0.7406
  550MOL0     C74133  11.521   1.874   0.701  0.0412  0.0566  0.1545
  550MOL0     C74134  11.586   1.957   0.781 -0.3665 -0.1094  0.1607
  550MOL0     C74135  11.678   1.919   0.897  0.1684 -0.6993  0.2459
  550MOL0     C74136  11.806   1.832   0.847 -0.1120 -0.7015  0.6507
  550MOL0     C74137  11.895   1.782   0.960 -0.5392 -0.4204 -0.8267
  550MOL0     C74138  11.941   1.890   1.054  0.1835  0.2984 -0.3043
  550MOL0     O74139  12.022   1.982   0.982  0.4367 -0.9689  0.0374
  550MOL0     C74140  12.111   2.058   1.061  1.0025 -0.4131  0.6036
  550MOL0     C74141  12.243   2.057   1.013  0.2489 -0.6760  0.7644
  550MOL0     C74142  12.348   2.118   1.075 -0.2691  0.8047 -0.4106
  550MOL0     C74143  12.331   2.160   1.205  0.7802  0.3610 -0.6781
  550MOL0     C74144  12.455   2.202   1.273  0.2384  0.4617  1.0699
  550MOL0     O74145  12.444   2.317   1.335  0.3427  0.0513 -1.1157
  550MOL0     C74146  12.563   2.370   1.391 -0.4244 -0.3235  0.4537
  550MOL0     C74147  12.602   2.337   1.518 -0.8467 -0.0912  0.2443
  550MOL0     C74148  12.723   2.399   1.579 -0.0022 -0.3221 -0.0375
  550MOL0     C74149  12.799   2.495   1.510  0.2043 -0.1143  0.1466
  550MOL0     O74150  12.909   2.560   1.550 -0.1896 -0.8610 -0.3464
  550MOL0     C74151  12.937   2.556   1.695  1.1909  0.7387  0.2998
  550MOL0     C74152  13.030   2.667   1.744  0.1779 -0.0667  0.3998
  550MOL0     C74153  13.182   2.627   1.702  0.3359 -0.1497  0.3512
  550MOL0     C74154  13.276   2.714   1.787 -0.3781 -0.5258  0.1385
  550MOL0     C74155  13.421   2.672   1.757 -0.0982  0.1355  0.2690
  550MOL0     C74156  13.518   2.739   1.845 -0.5310  0.4599  0.2152
  550MOL0     C74157  13.664   2.735   1.789  0.0516  0.3707 -0.4373
  550MOL0     C74158  13.770   2.770   1.884 -0.0041 -0.0503  0.8003
  550MOL0    Cl74159  13.926   2.758   1.796 -0.0809  0.1813  0.3276
  550MOL0     C74160  12.754   2.529   1.378  0.1548  0.1063 -0.2464
  550MOL0     C74161  12.637   2.472   1.325 -0.3026 -0.1266 -0.1207
  550MOL0     O74162  12.559   2.137   1.250  0.5451 -0.1620  0.2915
  550MOL0     C74163  12.204   2.164   1.263 -0.9012  0.9667 -0.1153
  550MOL0     C74164  12.092   2.120   1.179 -0.0895 -0.1704 -0.6348
  550MOL0     N74165  11.568   2.089   0.747 -0.3990  0.1656 -0.6011
  550MOL0     N74166  11.492   2.094   0.634 -0.6660 -0.2354 -0.4646
  550MOL0     C74167  10.337   2.121   0.373 -0.0838  0.4875 -0.0512
  550MOL0     C74168  10.226   2.193   0.413 -0.4108 -0.1482 -0.4473
  550MOL0     C74169   9.979   2.520   0.650 -0.2985  0.7217  1.5646
  550MOL0     C74170   9.856   2.447   0.640  0.5713  0.1051  0.2100
  550MOL0     C74171   9.735   2.499   0.677  0.2517 -0.0088  0.5071
  550MOL0     C74172   9.735   2.623   0.738  0.9750  1.0071 -0.0051
  550MOL0     O74173   9.623   2.690   0.783 -0.2696 -0.2215 -0.3406
  550MOL0     C74174   9.500   2.627   0.761 -0.0238  0.0178  0.4133
  550MOL0     C74175   9.388   2.719   0.808 -0.4686 -0.8518  0.0996
  550MOL0     C74176   9.429   2.789   0.942 -0.0987 -0.5745 -0.4636
  550MOL0     C74177   9.412   2.696   1.072 -0.2046  0.4941 -0.0065
  550MOL0     C74178   9.527   2.602   1.093  0.2218 -0.1703  0.4482
  550MOL0     C74179   9.619   2.529   1.102 -0.4998  0.8672 -0.3014
  550MOL0     C74180   9.853   2.697   0.755  0.1066  0.4911 -0.0681
  550MOL0     C74181   9.978   2.650   0.709  0.4580 -0.0076 -0.9250
  550MOL0     C74182  10.099   2.735   0.735  0.1419 -0.1761 -0.2054
  550MOL0     H74183  10.354   2.311   0.710  0.6729  3.5588 -2.0571
  550MOL0     H74184  10.547   2.180   0.625 -0.2688 -3.0083  0.0605
  550MOL0     H74185  10.536   1.873   0.496  0.3326 -2.0410 -0.5410
  550MOL0     H74186  10.460   1.881   0.334 -0.2485 -1.3098  0.1337
  550MOL0     H74187  10.698   1.874   0.235 -1.1796 -1.7851 -0.5199
  550MOL0     H74188  10.651   1.732   0.337  0.8482 -0.2767 -0.1242
  550MOL0     H74189  10.779   1.805   0.519  3.4347  0.2558  0.6597
  550MOL0     H74190  10.825   1.955   0.437  1.7424 -1.3735  0.7188
  550MOL0     H74191  10.902   1.667   0.383 -0.4548 -0.3261 -0.8578
  550MOL0     H74192  10.953   1.800   0.271 -0.2241 -2.5132 -0.0526
  550MOL0     H74193  11.033   1.916   0.477 -1.6476 -0.2106  1.6776
  550MOL0     H74194  10.997   1.772   0.570  1.3761 -0.9908  0.0090
  550MOL0     H74195  11.158   1.658   0.439  1.5983 -0.4470 -1.2919
  550MOL0     H74196  11.208   1.793   0.335 -2.1160 -2.6907 -1.3685
  550MOL0     H74197  11.324   1.724   0.571 -1.3277 -0.5084  1.2538
  550MOL0     H74198  11.215   1.835   0.640 -0.2219 -0.1703  0.3900
  550MOL0     H74199  11.415   1.901   0.413 -1.9435 -0.9111  0.2625
  550MOL0     H74200  11.313   2.015   0.480  0.8877  0.9812  2.7982
  550MOL0     H74201  11.523   1.766   0.707 -1.7823 -0.2034 -2.4003
  550MOL0     H74202  11.714   2.007   0.952 -1.6566  1.0599 -1.2099
  550MOL0     H74203  11.623   1.847   0.958  0.3640 -4.2643 -3.3458
  550MOL0     H74204  11.767   1.749   0.788 -1.4051 -2.0770  3.3153
  550MOL0     H74205  11.868   1.892   0.778 -0.0137 -0.9293  0.5414
  550MOL0     H74206  11.975   1.722   0.918 -1.0277  0.0873 -2.5911
  550MOL0     H74207  11.830   1.718   1.021  0.2996 -0.9401 -0.4760
  550MOL0     H74208  12.006   1.849   1.131 -2.1633 -0.5653  1.3193
  550MOL0     H74209  11.859   1.937   1.109 -2.6593 -3.2174 -1.2122
  550MOL0     H74210  12.261   2.011   0.916  2.9648  0.6858  0.5109
  550MOL0     H74211  12.440   2.122   1.018  0.8166  2.4188  1.3513
  550MOL0     H74212  12.541   2.266   1.572 -4.0393  1.2422 -1.3460
  550MOL0     H74213  12.758   2.376   1.679  0.7632  0.0852 -0.2048
  550MOL0     H74214  12.843   2.580   1.746  0.6029 -0.1766 -0.3094
  550MOL0     H74215  12.974   2.461   1.736 -1.4168 -0.5277 -0.0459
  550MOL0     H74216  13.001   2.758   1.691  0.3547 -0.8037 -1.0300
  550MOL0     H74217  13.017   2.674   1.852  1.5582 -0.8554  0.6538
  550MOL0     H74218  13.194   2.520   1.722 -0.9531 -0.2004  1.0003
  550MOL0     H74219  13.192   2.629   1.593 -0.0820 -3.2219  0.1715
  550MOL0     H74220  13.250   2.713   1.894  0.3983  1.2286  0.3837
  550MOL0     H74221  13.267   2.819   1.759 -0.2762 -1.1070 -2.2843
  550MOL0     H74222  13.446   2.683   1.651  0.1090 -0.5035  0.2466
  550MOL0     H74223  13.417   2.565   1.780 -1.7748 -0.3502 -1.9444
  550MOL0     H74224  13.483   2.843   1.847  0.2342  0.8960 -3.0332
  550MOL0     H74225  13.526   2.695   1.944 -0.1927  2.0893  0.9335
  550MOL0     H74226  13.673   2.786   1.692 -0.7863  1.4151  0.0085
  550MOL0     H74227  13.699   2.635   1.761  3.6650  1.6913 -1.2678
  550MOL0     H74228  13.757   2.872   1.921 -0.9557 -0.0338  0.4316
  550MOL0     H74229  13.757   2.707   1.973 -1.1778 -1.0174 -0.0314
  550MOL0     H74230  12.799   2.610   1.321 -1.0906  0.6953 -0.4337
  550MOL0     H74231  12.596   2.516   1.235 -0.3231 -1.6353 -0.8661
  550MOL0     H74232  12.179   2.197   1.363 -2.5279  2.6778 -1.0212
  550MOL0     H74233  11.994   2.124   1.225  0.4117 -0.0757  0.4612
  550MOL0     H74234  10.350   2.066   0.281  1.0089  0.5842  0.0259
  550MOL0     H74235  10.135   2.191   0.354 -0.3253 -0.4281 -0.5697
  550MOL0     H74236   9.851   2.345   0.602 -1.5557 -0.4677  1.8220
  550MOL0     H74237   9.647   2.436   0.668  0.2552 -0.1748  1.5396
  550MOL0     H74238   9.501   2.532   0.815  0.5515 -0.6170 -0.6732
  550MOL0     H74239   9.484   2.593   0.659  0.5311  0.2929  0.2292
  550MOL0     H74240   9.288   2.675   0.804 -0.4382 -0.8760 -0.5222
  550MOL0     H74241   9.388   2.798   0.732  2.8221  0.4607  1.3036
  550MOL0     H74242   9.357   2.871   0.951  0.7006  0.4923 -2.7463
  550MOL0     H74243   9.525   2.842   0.942 -0.7529  0.6597  0.4820
  550MOL0     H74244   9.409   2.759   1.161  0.5367  1.4188 -0.6144
  550MOL0     H74245   9.317   2.643   1.063 -0.3347  0.4007  1.7208
  550MOL0     H74246   9.701   2.461   1.117  1.0674  2.9470  1.1444
  550MOL0     H74247   9.845   2.793   0.805 -2.1638 -0.4850  1.5900
  550MOL0     H74248  10.170   2.685   0.802  0.1905  0.0807 -0.0629
  550MOL0     H74249  10.147   2.776   0.646  0.0448  0.2482 -0.0638
  550MOL0     H74250  10.059   2.823   0.786 -0.7908  0.4732 -2.0063
  551MOL0     O74251  10.562   1.797   6.143  0.0949 -1.1828 -0.2601
  551MOL0     C74252  10.484   1.826   6.054  0.3104 -0.2606 -0.1018
  551MOL0     O74253  10.513   1.845   5.917  0.4775  0.0540  0.0546
  551MOL0     C74254  10.642   1.880   5.893  0.3444  0.7218 -0.4577
  551MOL0     C74255  10.703   1.995   5.931 -0.6892 -0.5525  0.0842
  551MOL0     C74256  10.838   2.026   5.894  0.6541 -0.1399 -0.2401
  551MOL0     C74257  10.917   1.940   5.820 -0.4051  0.5779 -0.2113
  551MOL0     O74258  11.047   1.974   5.782  0.3442 -0.1863  0.1911
  551MOL0     C74259  11.153   1.881   5.813  0.6063 -0.2321 -0.3270
  551MOL0     C74260  11.288   1.948   5.777  0.4548 -0.0770  0.6417
  551MOL0     C74261  11.423   1.869   5.803  0.4660 -0.8581  1.0215
  551MOL0     C74262  11.437   1.835   5.950  0.0642 -0.3656  0.2711
  551MOL0     C74263  11.572   1.768   5.978  0.0597 -0.4816  0.6473
  551MOL0     C74264  11.698   1.853   5.946  0.3873 -0.4574 -0.3638
  551MOL0     C74265  11.812   1.784   6.015  0.4207 -0.4784  0.3575
  551MOL0     C74266  11.954   1.809   5.946 -0.2624 -0.8644 -0.7719
  551MOL0     N74267  12.064   1.797   6.044 -0.4051  0.4550 -0.5399
  551MOL0     C74268  12.147   1.688   6.064  0.8470  0.0838 -0.5363
  551MOL0     C74269  12.226   1.724   6.170 -0.0055 -0.2531  0.0778
  551MOL0     C74270  12.352   1.651   6.219 -0.9550 -0.4562 -0.0392
  551MOL0     C74271  12.312   1.598   6.354 -1.1098  0.5380  0.3529
  551MOL0     C74272  12.400   1.492   6.420 -0.5536 -0.6895 -0.5179
  551MOL0     C74273  12.550   1.529   6.424 -0.7919 -0.2320 -0.5245
  551MOL0     O74274  12.577   1.655   6.486 -0.3792  0.1311 -0.5122
  551MOL0     C74275  12.690   1.721   6.442 -0.1411  0.2251  0.4628
  551MOL0     C74276  12.794   1.670   6.358  0.6399 -0.3541  0.3702
  551MOL0     C74277  12.916   1.739   6.339 -0.0923 -0.3663  0.0474
  551MOL0     C74278  12.931   1.874   6.396 -0.0747 -0.8480 -1.5214
  551MOL0     C74279  13.067   1.945   6.394 -0.0760 -0.0839  0.4486
  551MOL0     O74280  13.071   2.080   6.445 -0.2319  0.6401  0.7707
  551MOL0     C74281  13.190   2.148   6.428  0.9699  0.1776 -0.1920
  551MOL0     C74282  13.190   2.283   6.393  0.1171 -0.0964 -0.2508
  551MOL0     C74283  13.311   2.353   6.360  0.2767  0.0222  1.1052
  551MOL0     C74284  13.426   2.273   6.362 -0.9542 -0.0035  0.2019
  551MOL0     O74285  13.546   2.334   6.312 -0.0634 -0.2826 -0.3876
  551MOL0     C74286  13.592   2.448   6.385 -0.7493  0.8184  0.2951
  551MOL0     C74287  13.744   2.467   6.355  0.0685  0.8021 -0.2853
  551MOL0     C74288  13.830   2.384   6.451  0.7012 -0.3345  0.8638
  551MOL0     C74289  13.970   2.412   6.408 -0.4190 -0.3209  0.7078
  551MOL0     C74290  14.085   2.358   6.493  0.1243 -0.1963  0.0401
  551MOL0     C74291  14.229   2.401   6.458  0.5244  0.6815  0.4998
  551MOL0     C74292  14.336   2.335   6.539 -0.4895  0.9180 -0.2892
  551MOL0     C74293  14.329   2.183   6.553 -0.0364 -0.1880 -0.2602
  551MOL0    Cl74294  14.449   2.121   6.666  0.0625 -0.3800  0.0140
  551MOL0     C74295  13.427   2.146   6.419 -1.2122  0.1648  0.2077
  551MOL0     C74296  13.314   2.089   6.463  0.1466 -0.3146  0.4410
  551MOL0     O74297  13.155   1.890   6.331  0.0578  0.2290 -0.1488
  551MOL0     C74298  12.824   1.925   6.476  0.0899 -0.0659 -0.4027
  551MOL0     C74299  12.707   1.845   6.500  0.0700 -0.3216 -0.1726
  551MOL0     N74300  12.187   1.850   6.219 -1.1049 -1.1592  0.7793
  551MOL0     N74301  12.094   1.894   6.137 -0.1806 -0.7759  0.6739
  551MOL0     C74302  10.863   1.818   5.796  0.3001  0.4499  0.8768
  551MOL0     C74303  10.724   1.791   5.825 -0.2156  0.5098  0.3823
  551MOL0     C74304  10.338   1.832   6.076  0.1233 -0.1732 -0.3996
  551MOL0     C74305  10.255   1.884   5.977 -0.2575 -0.0801  0.3793
  551MOL0     C74306  10.115   1.908   5.994 -0.2772 -0.2006  0.2446
  551MOL0     C74307  10.049   1.884   6.117 -0.7232 -0.1335  0.5408
  551MOL0     O74308   9.918   1.899   6.150 -0.2714  0.6779  0.1050
  551MOL0     C74309   9.836   1.960   6.050 -0.5240 -1.2184 -0.3352
  551MOL0     C74310   9.699   2.024   6.102 -0.0260  0.7262 -0.5608
  551MOL0     C74311   9.594   2.043   5.992  0.3166 -0.0245  0.3870
  551MOL0     C74312   9.462   2.099   6.054 -0.2204  0.1889 -0.4676
  551MOL0     C74313   9.374   2.132   5.943  0.4574  0.2696 -0.2772
  551MOL0     C74314   9.292   2.173   5.861  0.0558 -0.4491 -0.0540
  551MOL0     C74315  10.133   1.833   6.219 -0.1485  0.8671 -0.4200
  551MOL0     C74316  10.267   1.794   6.199 -0.5490 -0.3554 -0.2028
  551MOL0     C74317  10.339   1.708   6.303  0.7649 -0.5018 -0.6409
  551MOL0     H74318  10.646   2.070   5.985  0.1861  0.3899 -0.2818
  551MOL0     H74319  10.882   2.125   5.905 -0.4087  0.9368 -4.1355
  551MOL0     H74320  11.163   1.851   5.918 -0.6939  1.6603  0.3825
  551MOL0     H74321  11.137   1.788   5.757 -0.7611 -0.3405  0.2182
  551MOL0     H74322  11.301   2.046   5.824  2.0141 -0.7232  1.6548
  551MOL0     H74323  11.282   1.968   5.669 -0.1278  1.3402  0.9225
  551MOL0     H74324  11.502   1.938   5.772 -0.7000 -0.3512 -0.9669
  551MOL0     H74325  11.428   1.785   5.734 -0.1217  2.5875 -3.7015
  551MOL0     H74326  11.434   1.930   6.005  1.0270  0.0468 -0.3510
  551MOL0     H74327  11.356   1.766   5.976  0.2447 -1.6263 -2.2371
  551MOL0     H74328  11.577   1.736   6.083  0.9487 -1.2408  0.3869
  551MOL0     H74329  11.576   1.670   5.930  1.3054 -0.9947  1.7420
  551MOL0     H74330  11.708   1.846   5.837 -0.6782 -1.3424 -0.4241
  551MOL0     H74331  11.691   1.958   5.973  1.0407 -0.7087  0.8368
  551MOL0     H74332  11.795   1.677   6.002 -0.6906 -0.1956 -0.7272
  551MOL0     H74333  11.807   1.807   6.122 -2.0973 -1.1749  0.4396
  551MOL0     H74334  11.975   1.748   5.857  0.3872 -3.1247  0.8554
  551MOL0     H74335  11.964   1.914   5.917 -1.0799 -0.3739  0.6362
  551MOL0     H74336  12.152   1.594   6.009  0.9421  0.6318 -1.4886
  551MOL0     H74337  12.386   1.580   6.142  0.8561 -0.8354  1.0624
  551MOL0     H74338  12.430   1.727   6.227 -3.4989  2.3945 -0.7698
  551MOL0     H74339  12.302   1.682   6.424 -0.4291  1.7556 -0.9677
  551MOL0     H74340  12.211   1.557   6.346 -1.2626  0.8883  0.4446
  551MOL0     H74341  12.399   1.401   6.358  0.2328 -2.1100  1.4450
  551MOL0     H74342  12.355   1.460   6.514  0.5730 -2.9036 -0.6645
  551MOL0     H74343  12.580   1.527   6.318 -1.3767 -0.8836 -0.6880
  551MOL0     H74344  12.592   1.446   6.481 -1.4198 -0.7772 -0.8349
  551MOL0     H74345  12.786   1.571   6.314 -1.6665  0.4011 -1.0889
  551MOL0     H74346  12.993   1.689   6.281  2.6328  1.0113  2.2658
  551MOL0     H74347  13.104   2.347   6.376 -0.3463 -0.8508 -0.8028
  551MOL0     H74348  13.310   2.456   6.325  4.2255 -0.1689 -0.0378
  551MOL0     H74349  13.548   2.543   6.353  1.2780  1.5794 -0.4484
  551MOL0     H74350  13.577   2.424   6.490  0.2109  0.7143  0.4181
  551MOL0     H74351  13.763   2.444   6.250  1.0586  1.2223 -0.2054
  551MOL0     H74352  13.752   2.574   6.374 -0.5768  0.2042  4.8229
  551MOL0     H74353  13.812   2.410   6.555 -1.3631 -2.7157  1.2208
  551MOL0     H74354  13.804   2.278   6.437 -1.5505  0.2922 -0.2116
  551MOL0     H74355  13.996   2.518   6.395 -2.9986  0.4343  1.0461
  551MOL0     H74356  13.991   2.370   6.310  3.8758 -0.8672  1.7025
  551MOL0     H74357  14.085   2.250   6.476  2.9622 -0.6037  1.9322
  551MOL0     H74358  14.071   2.386   6.598  1.1082 -0.1626  0.1683
  551MOL0     H74359  14.243   2.379   6.351  3.3235 -1.3231  1.1564
  551MOL0     H74360  14.232   2.510   6.467 -0.1148  0.7349  0.1649
  551MOL0     H74361  14.321   2.378   6.639  0.3872 -1.6281  1.0428
  551MOL0     H74362  14.431   2.379   6.508  0.5921 -0.0153  1.4979
  551MOL0     H74363  14.236   2.147   6.599 -1.1176  1.4575 -1.0767
  551MOL0     H74364  14.350   2.140   6.455  0.5508  0.3800 -0.3857
  551MOL0     H74365  13.524   2.098   6.420 -1.3846 -0.1688  0.6237
  551MOL0     H74366  13.324   1.993   6.513  1.3437  0.1918  1.2232
  551MOL0     H74367  12.837   2.017   6.534  0.4739 -1.0209  1.1021
  551MOL0     H74368  12.634   1.887   6.569  2.3231  3.1549  0.3548
  551MOL0     H74369  10.915   1.744   5.736  0.8764  2.0389 -0.6530
  551MOL0     H74370  10.674   1.696   5.806 -2.0646  0.7623  3.2995
  551MOL0     H74371  10.273   1.912   5.874 -0.5823 -1.5696 -0.1104
  551MOL0     H74372  10.069   1.940   5.902  2.9713 -1.7448 -2.1075
  551MOL0     H74373   9.816   1.885   5.973  1.9166 -1.3867 -0.8985
  551MOL0     H74374   9.896   2.040   6.005 -2.8717  0.4493 -0.6270
  551MOL0     H74375   9.725   2.118   6.151 -2.6930 -1.0162  5.1832
  551MOL0     H74376   9.659   1.960   6.181  1.4981  0.5314  0.0858
  551MOL0     H74377   9.569   1.949   5.941 -1.5920  0.5824  0.1190
  551MOL0     H74378   9.641   2.117   5.926 -0.6003 -1.8419 -2.5020
  551MOL0     H74379   9.429   2.018   6.119  0.1888 -0.3554 -0.9172
  551MOL0     H74380   9.482   2.192   6.108  1.6735  1.9265 -3.8371
  551MOL0     H74381   9.228   2.183   5.776 -1.0239 -1.0609  0.6773
  551MOL0     H74382  10.083   1.803   6.310  0.6181  0.8371  0.0016
  551MOL0     H74383  10.267   1.656   6.367  1.9309 -0.1755  0.9895
  551MOL0     H74384  10.386   1.628   6.244 -3.7191 -3.2012 -1.0252
  551MOL0     H74385  10.406   1.759   6.373 -0.5675 -0.3899  0.5996
  552MOL0     O74386   8.851   5.149   3.450 -0.0395 -0.0156 -0.0305
  552MOL0     C74387   8.854   5.165   3.569  0.5484  0.8502 -0.0349
  552MOL0     O74388   8.957   5.125   3.647 -0.6518 -0.2371  0.6718
  552MOL0     C74389   9.086   5.105   3.599  0.6054  0.0813 -0.4708
  552MOL0     C74390   9.150   5.194   3.514  0.9674  0.0101 -0.0010
  552MOL0     C74391   9.286   5.179   3.468  0.6570  0.5994 -0.3993
  552MOL0     C74392   9.352   5.081   3.538  0.4709 -0.5975  0.2672
  552MOL0     O74393   9.485   5.063   3.528  0.4541 -1.0020 -0.2051
  552MOL0     C74394   9.565   5.179   3.488  0.0124 -0.3195  0.0860
  552MOL0     C74395   9.709   5.137   3.520  0.1824  0.0071 -0.0291
  552MOL0     C74396   9.821   5.240   3.480 -0.2983  0.8846 -0.7895
  552MOL0     C74397   9.957   5.161   3.475  0.3448  0.7763  0.4023
  552MOL0     C74398  10.072   5.241   3.435  0.0981  0.2487 -0.0300
  552MOL0     C74399  10.197   5.159   3.414  0.6698 -1.0612  0.0588
  552MOL0     C74400  10.306   5.257   3.360 -0.4488 -0.7796  0.6327
  552MOL0     C74401  10.374   5.327   3.473 -0.0653  0.0703  0.0781
  552MOL0     N74402  10.491   5.253   3.539 -0.2956 -0.3775 -0.3876
  552MOL0     C74403  10.624   5.296   3.543 -0.4994 -0.0225 -0.6658
  552MOL0     C74404  10.688   5.185   3.589 -0.0686 -0.2328 -0.4120
  552MOL0     C74405  10.837   5.163   3.613  0.0798  0.1163  0.7053
  552MOL0     C74406  10.919   5.297   3.600  0.1616  0.6541  0.6037
  552MOL0     C74407  11.069   5.261   3.589  0.2397 -0.1129 -0.2366
  552MOL0     C74408  11.150   5.394   3.552  0.6212 -0.3939 -0.0733
  552MOL0     O74409  11.289   5.373   3.519 -0.3421  0.0704  0.1811
  552MOL0     C74410  11.375   5.320   3.608  0.9650  0.1861  0.4663
  552MOL0     C74411  11.351   5.305   3.743  1.6153 -0.4343  0.3895
  552MOL0     C74412  11.445   5.248   3.820  0.3286 -0.2847  0.1558
  552MOL0     C74413  11.568   5.197   3.765  0.0852  0.4431  0.5682
  552MOL0     C74414  11.662   5.122   3.855 -0.8462 -0.1909  0.1676
  552MOL0     O74415  11.748   5.029   3.802  0.3843 -0.4984  0.3630
  552MOL0     C74416  11.846   4.984   3.886  0.9466 -0.2424 -0.0019
  552MOL0     C74417  11.819   4.868   3.961 -0.1557  0.1866 -0.3421
  552MOL0     C74418  11.922   4.814   4.046 -0.1917  0.1926 -0.6826
  552MOL0     C74419  12.050   4.871   4.043 -0.7515 -0.5961 -0.0311
  552MOL0     O74420  12.141   4.821   4.132  0.7302  0.2777  0.8268
  552MOL0     C74421  12.266   4.888   4.161 -0.1834  0.0220 -0.0646
  552MOL0     C74422  12.300   4.845   4.300 -0.2997  0.3704 -0.4497
  552MOL0     C74423  12.345   4.696   4.304  0.4815 -0.6167  0.2319
  552MOL0     C74424  12.450   4.675   4.419 -0.2786  0.7013 -1.5030
  552MOL0     C74425  12.487   4.525   4.448  0.2535  0.0140 -0.4033
  552MOL0     C74426  12.542   4.496   4.587 -0.3749 -0.3870 -0.0683
  552MOL0     C74427  12.669   4.583   4.608  0.6573  0.0136 -0.7419
  552MOL0     C74428  12.746   4.530   4.732 -0.9785  0.3225 -0.2406
  552MOL0    Cl74429  12.670   4.603   4.875  0.1443  0.4573 -0.4515
  552MOL0     C74430  12.074   4.986   3.971 -0.3618 -0.4015 -0.2865
  552MOL0     C74431  11.977   5.035   3.887  0.4866 -0.5284 -0.1790
  552MOL0     O74432  11.669   5.164   3.970  0.6473 -0.1883  0.3368
  552MOL0     C74433  11.588   5.218   3.626  0.7260  1.1517  0.3401
  552MOL0     C74434  11.494   5.278   3.547 -0.1621 -0.4309 -0.1880
  552MOL0     N74435  10.603   5.076   3.610 -0.8083 -0.1449 -0.5231
  552MOL0     N74436  10.492   5.121   3.580 -0.0980  0.3947  0.8850
  552MOL0     C74437   9.288   4.989   3.625  0.2942  0.0351  0.4643
  552MOL0     C74438   9.156   5.000   3.653 -0.3646  0.0376 -0.5681
  552MOL0     C74439   8.737   5.211   3.646  0.5529  0.6877  0.7732
  552MOL0     C74440   8.703   5.154   3.776 -1.1253  0.4452  0.1859
  552MOL0     C74441   8.587   5.166   3.843  0.2247 -0.1637  0.1938
  552MOL0     C74442   8.485   5.240   3.784 -0.2265 -0.2274  0.0777
  552MOL0     O74443   8.374   5.280   3.854  0.4430  0.3133 -0.0210
  552MOL0     C74444   8.261   5.186   3.874 -0.3007  0.0788 -0.0043
  552MOL0     C74445   8.210   5.118   3.745  0.1754  0.6289 -0.0568
  552MOL0     C74446   8.056   5.123   3.735 -0.5944  0.5192 -0.4127
  552MOL0     C74447   7.986   5.019   3.828  0.6296 -0.9185  0.6068
  552MOL0     C74448   7.841   5.056   3.817 -1.1888  1.6692  0.2585
  552MOL0     C74449   7.737   5.109   3.805  0.1072 -0.7398 -0.5301
  552MOL0     C74450   8.505   5.290   3.653 -0.4785  0.3705 -0.3819
  552MOL0     C74451   8.627   5.280   3.584  0.1959  0.8271 -0.4975
  552MOL0     C74452   8.621   5.320   3.437 -0.1851 -0.1916 -0.8710
  552MOL0     H74453   9.094   5.275   3.469 -0.9098 -0.8862  0.6291
  552MOL0     H74454   9.326   5.246   3.392  0.8234  1.2148  0.2217
  552MOL0     H74455   9.552   5.187   3.379 -0.2280  0.8547  0.1931
  552MOL0     H74456   9.538   5.269   3.543 -0.5345  0.6452 -1.6582
  552MOL0     H74457   9.725   5.042   3.469  2.2578  0.9897 -1.3444
  552MOL0     H74458   9.717   5.123   3.628 -1.8154 -0.2238  0.1281
  552MOL0     H74459   9.824   5.315   3.560 -0.4394 -1.3684  1.4681
  552MOL0     H74460   9.808   5.280   3.379 -2.2213  1.7509 -0.2477
  552MOL0     H74461   9.978   5.117   3.573 -2.8496  0.6723  1.1708
  552MOL0     H74462   9.935   5.078   3.408 -1.7843  0.4998  1.3384
  552MOL0     H74463  10.045   5.292   3.342  1.9787 -0.0759 -0.8134
  552MOL0     H74464  10.096   5.313   3.515  1.5531 -0.8391  0.5629
  552MOL0     H74465  10.236   5.103   3.499  3.3550 -0.1969 -0.4915
  552MOL0     H74466  10.167   5.077   3.348  0.7956 -1.8924  1.0155
  552MOL0     H74467  10.251   5.322   3.292 -2.9198 -2.2416  1.0896
  552MOL0     H74468  10.383   5.213   3.296  0.8348  2.3421 -0.1396
  552MOL0     H74469  10.414   5.419   3.430  0.2910  0.3936  1.0747
  552MOL0     H74470  10.302   5.354   3.552  0.0239 -0.0890  0.2149
  552MOL0     H74471  10.674   5.389   3.518  0.1377 -0.1552  0.0781
  552MOL0     H74472  10.854   5.124   3.713  0.7853  1.8388  1.2955
  552MOL0     H74473  10.880   5.091   3.542  0.0567 -0.0066  0.8165
  552MOL0     H74474  10.892   5.351   3.509 -1.3502 -0.4008  0.3799
  552MOL0     H74475  10.897   5.365   3.682 -1.1823 -2.3980  3.0029
  552MOL0     H74476  11.077   5.190   3.506  2.4270  1.6520 -1.6382
  552MOL0     H74477  11.110   5.208   3.676 -0.3291 -1.1567 -0.5852
  552MOL0     H74478  11.126   5.460   3.636  1.6263  0.4430 -0.4375
  552MOL0     H74479  11.101   5.438   3.464 -1.8176  0.0641  1.4037
  552MOL0     H74480  11.256   5.327   3.790  0.4442 -1.3534 -1.4072
  552MOL0     H74481  11.432   5.236   3.927  0.1897  0.4147  0.2181
  552MOL0     H74482  11.732   4.803   3.952  0.8585 -1.3824  0.7325
  552MOL0     H74483  11.904   4.717   4.090 -1.6914  0.6977 -0.1231
  552MOL0     H74484  12.343   4.866   4.087 -0.9845  0.9462 -1.2184
  552MOL0     H74485  12.256   4.997   4.169  3.5808  0.4569  0.3780
  552MOL0     H74486  12.389   4.903   4.326  0.0449 -0.5283  0.4356
  552MOL0     H74487  12.228   4.868   4.379 -0.4535 -2.0427  0.1740
  552MOL0     H74488  12.257   4.639   4.334  1.5303 -2.7562 -0.5577
  552MOL0     H74489  12.380   4.659   4.207 -1.7456  0.7665 -1.1858
  552MOL0     H74490  12.420   4.726   4.511  0.7270 -2.8171  0.9777
  552MOL0     H74491  12.539   4.727   4.383  1.6141 -2.3512 -1.5484
  552MOL0     H74492  12.564   4.496   4.376  1.5839  2.4609 -0.0893
  552MOL0     H74493  12.396   4.464   4.447  1.0175 -1.1435 -0.4606
  552MOL0     H74494  12.466   4.518   4.662 -0.6232 -1.7506  0.0872
  552MOL0     H74495  12.577   4.393   4.597  3.1235  0.3655 -2.4500
  552MOL0     H74496  12.640   4.687   4.621 -0.4538  0.1015 -3.3199
  552MOL0     H74497  12.727   4.588   4.515 -2.4440  0.9148 -2.7882
  552MOL0     H74498  12.761   4.422   4.733 -0.8695  0.3231 -0.9998
  552MOL0     H74499  12.848   4.570   4.732 -2.0715  3.6477  2.7352
  552MOL0     H74500  12.172   5.033   3.968 -1.0023  0.9531 -1.1185
  552MOL0     H74501  11.994   5.130   3.836  0.6748 -1.2492 -1.4968
  552MOL0     H74502  11.678   5.180   3.579  0.7360 -0.2645  1.4552
  552MOL0     H74503  11.505   5.300   3.441  0.2827  0.3335  0.0086
  552MOL0     H74504   9.353   4.917   3.674 -1.1999 -2.1149 -0.5634
  552MOL0     H74505   9.103   4.936   3.723 -3.2844  0.7427 -1.9651
  552MOL0     H74506   8.784   5.097   3.821 -0.3487 -1.6529 -3.4099
  552MOL0     H74507   8.575   5.122   3.941 -1.7347 -0.3702 -0.0898
  552MOL0     H74508   8.175   5.241   3.913 -1.3054 -1.0997 -0.4713
  552MOL0     H74509   8.292   5.111   3.946  0.0552 -0.2729 -0.5138
  552MOL0     H74510   8.248   5.016   3.752  1.9312  1.2027 -0.5715
  552MOL0     H74511   8.249   5.174   3.660 -2.0792  0.8012 -1.0421
  552MOL0     H74512   8.035   5.116   3.628  2.2616 -0.2124 -1.0134
  552MOL0     H74513   8.028   5.223   3.770 -3.3909 -0.4758  0.5077
  552MOL0     H74514   8.000   4.915   3.796  1.7471 -0.5541 -0.1474
  552MOL0     H74515   8.022   5.018   3.931 -3.3706  1.3080  2.2592
  552MOL0     H74516   7.640   5.152   3.795 -1.2545 -3.5985 -0.2995
  552MOL0     H74517   8.427   5.349   3.606 -0.1657  0.2516 -1.0604
  552MOL0     H74518   8.587   5.229   3.389 -1.3801 -1.2006  1.7047
  552MOL0     H74519   8.554   5.406   3.424 -1.3979 -0.9433  0.1601
  552MOL0     H74520   8.717   5.350   3.394  0.1081 -0.0748 -0.1498
  553MOL0     O74521   0.874   8.335   3.927 -0.4547 -0.0084  0.4447
  553MOL0     C74522   0.770   8.267   3.936 -0.3750 -0.8482  0.7972
  553MOL0     O74523   0.765   8.133   3.927  0.4017  0.2062  0.2160
  553MOL0     C74524   0.871   8.057   3.882 -0.5757 -0.3419  0.4096
  553MOL0     C74525   0.999   8.062   3.941 -0.0332  0.3199  0.9415
  553MOL0     C74526   1.105   7.978   3.902  0.2880  0.3288  0.7188
  553MOL0     C74527   1.087   7.888   3.805  0.8833  0.4859  1.3512
  553MOL0     O74528   1.169   7.786   3.774 -0.5151  0.5225  0.0727
  553MOL0     C74529   1.302   7.802   3.717  0.5330 -0.8189 -0.3224
  553MOL0     C74530   1.407   7.793   3.831 -0.3814  0.6180  0.5615
  553MOL0     C74531   1.549   7.778   3.780  0.4209  0.3161  1.0461
  553MOL0     C74532   1.655   7.782   3.888 -0.0869 -0.1777 -0.0568
  553MOL0     C74533   1.791   7.759   3.835 -0.2787 -0.7056  0.0373
  553MOL0     C74534   1.889   7.702   3.951  0.6368 -0.1814 -0.4185
  553MOL0     C74535   1.961   7.801   4.040 -1.2567  0.6000  0.1930
  553MOL0     C74536   2.091   7.849   3.968 -0.1891  0.2498  0.8398
  553MOL0     N74537   2.158   7.954   4.043 -0.2556  0.4366  0.5089
  553MOL0     C74538   2.259   7.930   4.140  0.7028 -0.4543 -0.4381
  553MOL0     C74539   2.303   8.057   4.174  0.3388  0.3496  0.8788
  553MOL0     C74540   2.400   8.100   4.280 -0.0835 -0.0542  0.0217
  553MOL0     C74541   2.535   8.020   4.277  0.5102 -0.4440  0.5250
  553MOL0     C74542   2.626   8.049   4.394 -0.5703  0.5204  0.3015
  553MOL0     C74543   2.754   7.964   4.386  0.9290 -0.3464  0.0211
  553MOL0     O74544   2.841   8.012   4.282  0.0764  0.1039  0.0491
  553MOL0     C74545   2.943   8.098   4.325  0.1334  0.0937  0.1160
  553MOL0     C74546   3.043   8.109   4.221  0.4150  0.3382 -0.2492
  553MOL0     C74547   3.156   8.184   4.251  0.5246  0.1229  0.1703
  553MOL0     C74548   3.176   8.243   4.375  0.0317  0.1435  0.3607
  553MOL0     C74549   3.286   8.331   4.405  0.2986  0.4312 -0.1556
  553MOL0     O74550   3.322   8.354   4.530 -0.4982 -0.4456  0.1531
  553MOL0     C74551   3.415   8.450   4.565  0.6515  0.3355 -0.0520
  553MOL0     C74552   3.416   8.512   4.689  0.5624 -0.8083 -0.5346
  553MOL0     C74553   3.518   8.595   4.741 -0.3253  0.6205  1.2354
  553MOL0     C74554   3.629   8.633   4.659 -0.4302  0.5586  0.0594
  553MOL0     O74555   3.737   8.709   4.707  0.3719  0.2746  0.2136
  553MOL0     C74556   3.842   8.761   4.623 -0.0951  0.1215 -0.8415
  553MOL0     C74557   3.977   8.779   4.690 -0.0779 -0.0747 -0.2833
  553MOL0     C74558   4.032   8.637   4.723 -0.5526  0.5752 -1.0598
  553MOL0     C74559   4.184   8.651   4.783  0.5431 -0.2512  0.5317
  553MOL0     C74560   4.222   8.514   4.837 -0.4190  0.3522  0.0627
  553MOL0     C74561   4.372   8.502   4.806 -0.0852  0.0989  0.5684
  553MOL0     C74562   4.469   8.598   4.893 -0.6413  0.2630  0.4626
  553MOL0     C74563   4.609   8.526   4.894  0.1244  0.2483 -0.3053
  553MOL0    Cl74564   4.695   8.559   4.742 -0.0286 -0.2423  0.4320
  553MOL0     C74565   3.631   8.567   4.535 -0.2878 -0.3197  0.6982
  553MOL0     C74566   3.530   8.483   4.489 -0.3800 -0.3297  0.0751
  553MOL0     O74567   3.342   8.365   4.303 -0.1197 -0.2168  0.2023
  553MOL0     C74568   3.086   8.223   4.477  0.2584  0.0492  0.2312
  553MOL0     C74569   2.969   8.140   4.453  0.1860 -0.7361 -0.3630
  553MOL0     N74570   2.231   8.145   4.098 -0.3904  0.0502 -0.0354
  553MOL0     N74571   2.154   8.087   4.023  0.6658 -0.0356  0.3202
  553MOL0     C74572   0.967   7.892   3.733 -0.0286  0.9708  0.2828
  553MOL0     C74573   0.862   7.968   3.775 -0.0044  0.4071  0.4104
  553MOL0     C74574   0.636   8.326   3.981 -0.1340  0.0163 -0.3677
  553MOL0     C74575   0.538   8.248   4.050 -0.3362  0.0142  0.3504
  553MOL0     C74576   0.432   8.313   4.110  0.0697  0.8203  0.0141
  553MOL0     C74577   0.409   8.444   4.110 -0.2932 -0.1572  0.7779
  553MOL0     O74578   0.313   8.490   4.191  0.0436  0.4202  0.0133
  553MOL0     C74579   0.244   8.607   4.140  0.0085 -0.1198 -0.9844
  553MOL0     C74580   0.300   8.734   4.211 -0.0285 -0.1150 -0.8491
  553MOL0     C74581   0.272   8.718   4.357 -0.1030  0.6817 -0.0095
  553MOL0     C74582   0.330   8.842   4.435 -0.0553  0.6202 -0.3655
  553MOL0     C74583   0.271   8.969   4.372 -0.2596  0.3550 -0.1592
  553MOL0     C74584   0.212   9.062   4.328  0.1490  0.1014 -0.4906
  553MOL0     C74585   0.489   8.522   4.023 -0.4157  0.1423  0.1645
  553MOL0     C74586   0.605   8.472   3.968  0.0572  0.2682  0.3725
  553MOL0     C74587   0.689   8.576   3.879  0.0733  1.1587  0.6951
  553MOL0     H74588   1.026   8.133   4.018  3.3016  1.8539 -1.3669
  553MOL0     H74589   1.203   7.974   3.948  0.0429  0.5488  1.2707
  553MOL0     H74590   1.314   7.722   3.644  0.3112  0.2421 -1.5437
  553MOL0     H74591   1.304   7.901   3.671 -1.2145  1.1122  3.3124
  553MOL0     H74592   1.383   7.707   3.894 -1.5418  0.6670  0.1999
  553MOL0     H74593   1.406   7.881   3.896 -0.4568  1.0017  0.0468
  553MOL0     H74594   1.567   7.850   3.699  1.5068 -1.7761 -0.6847
  553MOL0     H74595   1.566   7.683   3.728  1.4051  0.3442  1.3005
  553MOL0     H74596   1.660   7.874   3.947 -0.5085 -0.5912  0.6397
  553MOL0     H74597   1.635   7.695   3.951 -0.1646  0.4086  0.7487
  553MOL0     H74598   1.787   7.692   3.748 -4.0074  0.4365 -0.8558
  553MOL0     H74599   1.832   7.851   3.793 -3.9867  1.3481  0.5468
  553MOL0     H74600   1.841   7.633   4.021 -3.4336  1.7989 -0.9272
  553MOL0     H74601   1.962   7.645   3.893  0.1493  1.3870 -2.6983
  553MOL0     H74602   1.987   7.763   4.139  0.5047  2.6479  0.5997
  553MOL0     H74603   1.894   7.887   4.054 -3.2812 -0.7471 -0.7356
  553MOL0     H74604   2.156   7.761   3.970 -1.3167 -0.6017  2.0729
  553MOL0     H74605   2.067   7.876   3.865 -0.6587 -0.2936  0.7998
  553MOL0     H74606   2.298   7.831   4.160  0.2809 -1.0944 -2.5451
  553MOL0     H74607   2.421   8.207   4.269  1.8245 -0.2356  1.3743
  553MOL0     H74608   2.349   8.078   4.374 -2.0597 -1.2215 -1.2588
  553MOL0     H74609   2.513   7.913   4.271 -0.6982 -0.2684  1.5352
  553MOL0     H74610   2.586   8.057   4.187 -1.6263 -0.8361 -0.9102
  553MOL0     H74611   2.588   8.017   4.492  3.0477 -0.8829  1.4017
  553MOL0     H74612   2.646   8.155   4.414 -1.4194  0.2992  2.6942
  553MOL0     H74613   2.725   7.861   4.363  1.8983 -0.7757  0.6734
  553MOL0     H74614   2.790   7.960   4.489 -1.2767  0.3804  0.8906
  553MOL0     H74615   3.023   8.078   4.118 -0.1470  3.3902 -1.1637
  553MOL0     H74616   3.236   8.177   4.177  3.1918 -1.0708  2.9245
  553MOL0     H74617   3.339   8.494   4.763 -0.1712 -0.4526 -1.1902
  553MOL0     H74618   3.514   8.638   4.841 -1.4501  1.6913  0.7410
  553MOL0     H74619   3.861   8.704   4.531 -2.3088  1.5679 -2.3071
  553MOL0     H74620   3.811   8.863   4.598  0.4175  1.1119  2.2428
  553MOL0     H74621   4.048   8.831   4.625  2.0872  1.6056  3.1313
  553MOL0     H74622   3.966   8.840   4.780 -1.9203 -0.2557 -0.3364
  553MOL0     H74623   3.968   8.589   4.797  2.2538 -2.0637 -0.1080
  553MOL0     H74624   4.036   8.572   4.635  2.9970 -0.4446 -0.2991
  553MOL0     H74625   4.193   8.727   4.861  0.4747 -0.7396  1.0168
  553MOL0     H74626   4.239   8.688   4.696 -1.5416  0.9468 -0.3643
  553MOL0     H74627   4.172   8.434   4.781  0.1328  0.5638 -0.7492
  553MOL0     H74628   4.194   8.508   4.943 -1.3568  1.7923 -0.0750
  553MOL0     H74629   4.399   8.402   4.841  2.0151  0.7810  1.0808
  553MOL0     H74630   4.386   8.515   4.699  1.9606  1.5908  0.9597
  553MOL0     H74631   4.437   8.604   4.998  1.8229 -1.4329  1.3896
  553MOL0     H74632   4.474   8.701   4.854  0.7676 -0.0696 -0.2778
  553MOL0     H74633   4.660   8.546   4.989 -0.6261 -2.2129  0.6993
  553MOL0     H74634   4.583   8.420   4.906 -1.2812  0.6044 -0.0924
  553MOL0     H74635   3.714   8.571   4.465 -1.9593  0.7959 -1.3549
  553MOL0     H74636   3.548   8.445   4.389  1.6424  0.5781  0.0538
  553MOL0     H74637   3.113   8.258   4.576 -3.6264  1.3471  1.0068
  553MOL0     H74638   2.894   8.133   4.531 -2.5537 -0.2678 -2.7798
  553MOL0     H74639   0.960   7.825   3.648 -1.2206 -0.1008  1.1833
  553MOL0     H74640   0.771   7.963   3.715  1.0723  0.3966 -1.3089
  553MOL0     H74641   0.552   8.141   4.064 -2.1289 -0.5708 -1.7889
  553MOL0     H74642   0.364   8.253   4.169  1.7730 -1.4895 -0.2072
  553MOL0     H74643   0.138   8.601   4.168 -0.0691 -1.2336 -1.4607
  553MOL0     H74644   0.246   8.615   4.030 -0.4718  0.8958 -0.9370
  553MOL0     H74645   0.257   8.822   4.160 -1.0726 -1.8780 -3.2462
  553MOL0     H74646   0.406   8.754   4.194  0.5444  1.6908  3.5805
  553MOL0     H74647   0.326   8.627   4.388  1.1830  0.9284 -1.4213
  553MOL0     H74648   0.164   8.717   4.370 -0.2700  0.5797 -1.3536
  553MOL0     H74649   0.291   8.836   4.536 -1.5222 -1.3792 -0.9976
  553MOL0     H74650   0.439   8.854   4.434  0.1866 -0.9843  1.8196
  553MOL0     H74651   0.154   9.142   4.285 -0.4863 -1.6257 -3.0980
  553MOL0     H74652   0.477   8.630   4.020  0.0606  0.1847 -1.3816
  553MOL0     H74653   0.636   8.671   3.883  0.5773  1.4031  3.6577
  553MOL0     H74654   0.788   8.586   3.925 -0.7594 -0.0091  2.8476
  553MOL0     H74655   0.687   8.537   3.776 -2.1562 -0.1780  1.1855
  554MOL0     O74656   1.487   1.287   9.667 -0.0357  1.1658 -0.1804
  554MOL0     C74657   1.470   1.172   9.696  0.0037 -0.2696 -0.6520
  554MOL0     O74658   1.555   1.069   9.665 -0.2000  0.7488  0.1612
  554MOL0     C74659   1.686   1.080   9.633 -0.4469 -0.2656 -0.2885
  554MOL0     C74660   1.734   0.978   9.554  0.0400  0.0379 -0.2396
  554MOL0     C74661   1.863   0.978   9.516  0.0774  0.7739 -0.2598
  554MOL0     C74662   1.953   1.072   9.576  0.3081 -0.0087  0.1058
  554MOL0     O74663   2.093   1.078   9.559 -0.2535 -0.3694 -0.2120
  554MOL0     C74664   2.158   0.970   9.497  0.7270  0.5797  0.2315
  554MOL0     C74665   2.280   1.007   9.417 -0.9460 -1.4055  0.3766
  554MOL0     C74666   2.345   0.886   9.350  0.4607  0.4748 -0.4274
  554MOL0     C74667   2.484   0.939   9.305  0.0885 -0.8665  0.2418
  554MOL0     C74668   2.571   0.851   9.212 -0.6114 -0.6899 -0.6048
  554MOL0     C74669   2.710   0.907   9.198 -0.8015 -0.7544  0.4607
  554MOL0     C74670   2.799   0.820   9.110  0.1631  0.1070  0.1199
  554MOL0     C74671   2.942   0.875   9.108 -0.6501 -0.3021 -0.9435
  554MOL0     N74672   3.020   0.823   9.223  0.2736 -0.2735  0.9130
  554MOL0     C74673   3.083   0.699   9.215  0.2839 -0.8286  0.1196
  554MOL0     C74674   3.155   0.681   9.332  0.8360  0.7933 -0.2768
  554MOL0     C74675   3.249   0.573   9.371 -1.2341  0.5618  0.7755
  554MOL0     C74676   3.402   0.603   9.362  0.9702  0.4022 -0.8407
  554MOL0     C74677   3.442   0.571   9.215 -0.0033 -0.3548 -0.1236
  554MOL0     C74678   3.582   0.607   9.185  1.0054  0.2515 -0.2421
  554MOL0     O74679   3.669   0.499   9.238  0.2507 -0.1321  0.2465
  554MOL0     C74680   3.807   0.513   9.232 -0.3132  0.2470  0.5641
  554MOL0     C74681   3.870   0.627   9.174  0.7714  1.1113  0.6960
  554MOL0     C74682   4.009   0.645   9.188  0.0322  1.0992 -0.7735
  554MOL0     C74683   4.090   0.549   9.237  0.0359 -0.2782 -0.3517
  554MOL0     C74684   4.234   0.564   9.239 -0.4013 -0.7299  0.5316
  554MOL0     O74685   4.300   0.459   9.294  0.1472 -0.7214  0.0966
  554MOL0     C74686   4.436   0.457   9.306  0.2236 -0.3589 -0.0124
  554MOL0     C74687   4.490   0.435   9.432  0.4689  0.1919 -0.7612
  554MOL0     C74688   4.626   0.426   9.442 -0.5518  0.2134  0.4770
  554MOL0     C74689   4.713   0.446   9.336  0.5230  0.4319 -0.7783
  554MOL0     O74690   4.843   0.430   9.371 -0.0568 -0.6203  0.7202
  554MOL0     C74691   4.945   0.503   9.302 -0.3141  0.2833 -0.2831
  554MOL0     C74692   5.038   0.546   9.410 -0.5942 -0.2603  0.2485
  554MOL0     C74693   5.102   0.422   9.488  0.2340 -0.2352  0.3745
  554MOL0     C74694   5.221   0.458   9.579 -0.4897  0.0241  0.0691
  554MOL0     C74695   5.297   0.335   9.634 -0.4450  0.1575 -0.0390
  554MOL0     C74696   5.423   0.362   9.711  0.1778  0.4579  0.2545
  554MOL0     C74697   5.520   0.460   9.650  0.7367 -0.3434 -0.7459
  554MOL0     C74698   5.657   0.454   9.717 -0.6646  0.4700 -0.1434
  554MOL0    Cl74699   5.628   0.504   9.885 -0.4678 -0.0138 -0.5960
  554MOL0     C74700   4.658   0.479   9.209  0.6818 -0.1106 -0.1562
  554MOL0     C74701   4.522   0.484   9.204  0.1095 -0.7720  0.1671
  554MOL0     O74702   4.290   0.663   9.195 -0.2954 -0.2894  0.1158
  554MOL0     C74703   4.031   0.435   9.284 -0.0986  0.7219 -0.6189
  554MOL0     C74704   3.892   0.416   9.284 -0.3985 -0.1116  0.4114
  554MOL0     N74705   3.138   0.796   9.402 -0.1048 -1.2160  0.4034
  554MOL0     N74706   3.073   0.892   9.328  0.2340  0.6033  0.7279
  554MOL0     C74707   1.905   1.179   9.641  0.1421 -0.2542 -1.0356
  554MOL0     C74708   1.770   1.183   9.673  0.2711  0.1898 -0.2939
  554MOL0     C74709   1.336   1.139   9.760 -0.3933 -0.1638  0.2545
  554MOL0     C74710   1.304   1.003   9.774  0.3134 -0.3167  0.0575
  554MOL0     C74711   1.188   0.966   9.838  0.2511  0.6427  0.3983
  554MOL0     C74712   1.085   1.050   9.880  0.6679 -0.1693  0.5633
  554MOL0     O74713   0.975   0.998   9.943  0.0761  0.4753  0.0840
  554MOL0     C74714   0.866   1.090   9.973  0.3947  0.2105  0.0386
  554MOL0     C74715   0.728   1.021   9.987 -1.0859  0.4458 -0.7024
  554MOL0     C74716   0.635   1.103  10.068 -0.2339  0.2329  0.1541
  554MOL0     C74717   0.484   1.074  10.042 -0.9082  0.0137 -1.3353
  554MOL0     C74718   0.439   1.090   9.906 -0.0493 -0.2524 -0.6910
  554MOL0     C74719   0.405   1.112   9.796 -0.1483  0.4981  0.6567
  554MOL0     C74720   1.122   1.191   9.857  0.2326 -0.7791 -0.3856
  554MOL0     C74721   1.241   1.237   9.801 -0.4057 -0.8379 -0.2406
  554MOL0     C74722   1.263   1.390   9.785 -0.6795 -0.5279 -0.1865
  554MOL0     H74723   1.655   0.907   9.535  0.9216 -1.0091 -0.0944
  554MOL0     H74724   1.891   0.894   9.453  2.2659  1.7923 -0.7664
  554MOL0     H74725   2.175   0.893   9.572 -1.6113  0.2615  0.5219
  554MOL0     H74726   2.086   0.914   9.436  1.4868 -1.5860  1.2327
  554MOL0     H74727   2.350   1.062   9.480 -0.8224  1.1686 -1.8184
  554MOL0     H74728   2.250   1.074   9.336  4.1846 -1.1539 -1.7467
  554MOL0     H74729   2.280   0.845   9.272  0.4204 -0.4479  0.0847
  554MOL0     H74730   2.357   0.804   9.421  1.9558  1.1083  0.0822
  554MOL0     H74731   2.480   1.035   9.252  1.5462 -0.5968  0.5687
  554MOL0     H74732   2.536   0.959   9.399  2.4998 -1.7356 -0.8131
  554MOL0     H74733   2.592   0.751   9.252 -0.2081  0.1472  1.3930
  554MOL0     H74734   2.511   0.841   9.121 -1.7380 -1.8054  0.2176
  554MOL0     H74735   2.707   1.008   9.154  0.5972 -1.0849 -0.4941
  554MOL0     H74736   2.758   0.922   9.295 -0.3218 -1.7227  0.3809
  554MOL0     H74737   2.758   0.838   9.010 -0.4219  0.9607  0.5040
  554MOL0     H74738   2.789   0.716   9.143  0.3526  1.0600  3.5942
  554MOL0     H74739   2.994   0.840   9.018  0.6942 -0.3427 -0.1836
  554MOL0     H74740   2.942   0.984   9.113  0.0683 -0.3473  0.8420
  554MOL0     H74741   3.068   0.630   9.132  2.7958 -0.4403 -0.7446
  554MOL0     H74742   3.225   0.536   9.471 -1.4165 -2.2897 -0.2515
  554MOL0     H74743   3.235   0.492   9.300  0.2707  1.0911 -0.1764
  554MOL0     H74744   3.422   0.705   9.396 -0.6789  0.6201 -0.4183
  554MOL0     H74745   3.458   0.540   9.431  2.2111  0.2201 -1.9720
  554MOL0     H74746   3.397   0.630   9.135  2.9428  1.7388 -0.3835
  554MOL0     H74747   3.423   0.465   9.193 -0.0256  0.1192 -2.5894
  554MOL0     H74748   3.590   0.708   9.227 -2.1754  0.2704  0.5961
  554MOL0     H74749   3.594   0.613   9.076 -2.0415  3.0988 -0.5826
  554MOL0     H74750   3.814   0.702   9.120  1.1832 -0.0858 -1.4993
  554MOL0     H74751   4.057   0.735   9.151  2.0011  0.6851  0.6627
  554MOL0     H74752   4.423   0.417   9.515  2.7566 -0.2198  1.0972
  554MOL0     H74753   4.666   0.402   9.540 -1.4156 -0.3890  0.6944
  554MOL0     H74754   5.004   0.431   9.244  0.8062  0.3601  0.7304
  554MOL0     H74755   4.919   0.594   9.247  0.7947  0.8837  0.1412
  554MOL0     H74756   5.132   0.586   9.369  1.1762 -3.2149  1.0969
  554MOL0     H74757   4.996   0.622   9.476  2.0129  0.9697  0.6533
  554MOL0     H74758   5.024   0.371   9.545 -2.6241 -1.7490 -4.2890
  554MOL0     H74759   5.143   0.355   9.412  2.3827  2.5339 -1.1102
  554MOL0     H74760   5.190   0.524   9.661  0.3200  0.9083 -0.3080
  554MOL0     H74761   5.286   0.514   9.511 -1.2922 -1.8989 -2.4135
  554MOL0     H74762   5.334   0.275   9.550  0.7125  0.9469 -0.1219
  554MOL0     H74763   5.235   0.272   9.697 -0.2092 -0.5443 -0.4911
  554MOL0     H74764   5.398   0.415   9.803  2.6112 -0.5423  1.5925
  554MOL0     H74765   5.472   0.269   9.742  0.2919  0.3346 -0.2969
  554MOL0     H74766   5.481   0.561   9.634 -1.8317 -1.6996 -4.3154
  554MOL0     H74767   5.532   0.415   9.551 -0.3221  0.1105 -1.0973
  554MOL0     H74768   5.699   0.353   9.705  2.1037  1.3104  1.5539
  554MOL0     H74769   5.725   0.524   9.668 -0.2726 -0.1513 -0.5096
  554MOL0     H74770   4.729   0.488   9.128  2.3375 -0.3726  1.2245
  554MOL0     H74771   4.481   0.498   9.104 -3.0239  1.0562  1.5544
  554MOL0     H74772   4.092   0.362   9.335 -2.2558  0.1186  1.2610
  554MOL0     H74773   3.853   0.321   9.320 -1.5090 -0.3902 -1.4020
  554MOL0     H74774   1.985   1.239   9.684 -1.0022 -0.1509  1.0719
  554MOL0     H74775   1.741   1.264   9.740  0.6113  3.4923 -3.7851
  554MOL0     H74776   1.376   0.926   9.747 -0.3582 -0.7625 -0.4772
  554MOL0     H74777   1.157   0.862   9.839 -1.6042  1.0945 -1.6904
  554MOL0     H74778   0.853   1.179   9.910  0.9117  0.3107  0.0630
  554MOL0     H74779   0.897   1.130  10.070 -0.2361 -0.9540  0.7343
  554MOL0     H74780   0.752   0.927  10.038  2.5946  1.1968 -0.8136
  554MOL0     H74781   0.685   1.001   9.889 -1.9860 -1.0964 -0.0289
  554MOL0     H74782   0.638   1.204  10.027  0.4705  0.3725  0.5415
  554MOL0     H74783   0.655   1.094  10.175 -3.0378  1.0275  0.8113
  554MOL0     H74784   0.456   0.979  10.089 -0.8241 -0.8618 -2.9900
  554MOL0     H74785   0.428   1.148  10.101  0.1190  2.5117 -3.3506
  554MOL0     H74786   0.365   1.124   9.698 -0.1154  0.5916  0.6561
  554MOL0     H74787   1.043   1.257   9.890  0.9636  0.1947 -0.5196
  554MOL0     H74788   1.299   1.419   9.686  1.2321 -3.0153 -0.3224
  554MOL0     H74789   1.163   1.435   9.791 -1.1217 -1.4317 -0.4592
  554MOL0     H74790   1.322   1.430   9.867  1.0828 -0.0402 -1.6408
  555MOL0     O74791   4.475   9.595   2.869  0.8640 -0.4345 -0.1323
  555MOL0     C74792   4.396   9.688   2.898  0.4223  0.4848  0.8912
  555MOL0     O74793   4.429   9.801   2.965 -0.7918  0.1561 -0.2988
  555MOL0     C74794   4.551   9.824   3.026 -0.3131  0.2161  0.0766
  555MOL0     C74795   4.557   9.839   3.158 -0.2619  0.1218 -0.6391
  555MOL0     C74796   4.682   9.863   3.218 -0.4399  0.0856  0.0435
  555MOL0     C74797   4.796   9.896   3.141 -0.0765 -0.4003 -0.0313
  555MOL0     O74798   4.910   9.919   3.204 -0.3170  0.5500  0.1579
  555MOL0     C74799   4.958  10.055   3.187 -0.1697  0.4607  0.1304
  555MOL0     C74800   5.071  10.087   3.280  0.6087 -0.1083 -0.5456
  555MOL0     C74801   5.165  10.196   3.219  0.3388  0.5895  0.0564
  555MOL0     C74802   5.264  10.230   3.332  0.1529  0.0343  0.0231
  555MOL0     C74803   5.361  10.333   3.291  0.1308  0.8689 -0.3742
  555MOL0     C74804   5.477  10.259   3.215  0.5068 -0.4911 -0.3430
  555MOL0     C74805   5.592  10.353   3.162  0.6197 -0.2728  0.4497
  555MOL0     C74806   5.689  10.411   3.263 -0.0764 -0.5624  0.8303
  555MOL0     N74807   5.764  10.304   3.317 -0.6959 -0.8887 -0.1193
  555MOL0     C74808   5.895  10.275   3.276 -0.4570 -1.0266  0.7286
  555MOL0     C74809   5.935  10.173   3.357  0.2702 -0.0755 -0.0169
  555MOL0     C74810   6.076  10.130   3.362 -0.7927  0.6536  0.2807
  555MOL0     C74811   6.187  10.232   3.387 -0.8174 -0.4002  0.0463
  555MOL0     C74812   6.311  10.184   3.461 -0.4625  0.3282 -0.2317
  555MOL0     C74813   6.410  10.103   3.374  0.5828  0.4346  0.5819
  555MOL0     O74814   6.513  10.058   3.466  0.7459  0.0654  0.7806
  555MOL0     C74815   6.641  10.109   3.469 -0.6296 -1.0534  0.1326
  555MOL0     C74816   6.734  10.048   3.559 -0.9215  0.1920  0.4958
  555MOL0     C74817   6.859  10.112   3.594 -0.1926  0.9485  0.1710
  555MOL0     C74818   6.893  10.234   3.523  0.2458  0.7510  1.1664
  555MOL0     C74819   7.023  10.308   3.544  0.6125  0.3937  0.9035
  555MOL0     O74820   7.044  10.427   3.489  0.8877 -0.0475  0.2205
  555MOL0     C74821   7.170  10.485   3.486 -0.7381  0.4847 -0.7365
  555MOL0     C74822   7.180  10.628   3.488 -0.2242  0.6219 -0.4891
  555MOL0     C74823   7.304  10.691   3.478  0.4514 -0.2940  0.0450
  555MOL0     C74824   7.426  10.627   3.469 -0.0568  0.5927 -0.1846
  555MOL0     O74825   7.543  10.698   3.462 -0.1945 -0.2488 -0.4225
  555MOL0     C74826   7.675  10.635   3.457  1.0447 -0.2051  0.2291
  555MOL0     C74827   7.771  10.729   3.398  0.3597  0.2336  0.1872
  555MOL0     C74828   7.836  10.812   3.508 -0.1208  0.9610 -0.1435
  555MOL0     C74829   7.944  10.905   3.453 -0.3867  0.0181  0.1743
  555MOL0     C74830   8.057  10.832   3.383  0.7198 -0.5684  0.7249
  555MOL0     C74831   8.173  10.928   3.344  0.7719  0.0017  0.4992
  555MOL0     C74832   8.287  10.858   3.275 -0.0597 -0.1086  0.0739
  555MOL0     C74833   8.432  10.912   3.295  0.5856 -0.3481 -0.6137
  555MOL0    Cl74834   8.458  11.081   3.234 -0.1117  0.3331  0.0752
  555MOL0     C74835   7.420  10.478   3.469  0.8985  0.8762  0.8938
  555MOL0     C74836   7.293  10.413   3.470  0.4632 -0.3899 -0.0969
  555MOL0     O74837   7.095  10.256   3.628  0.3031 -0.0314  0.2353
  555MOL0     C74838   6.799  10.286   3.422  0.2784  0.1494  0.7287
  555MOL0     C74839   6.675  10.221   3.398  0.2520 -0.5361 -0.3358
  555MOL0     N74840   5.835  10.145   3.446  0.0318 -0.2219  0.1928
  555MOL0     N74841   5.734  10.226   3.422 -0.1910  0.0274  0.0983
  555MOL0     C74842   4.784   9.899   3.007  0.6118 -0.2876 -0.4770
  555MOL0     C74843   4.665   9.863   2.948  0.4382 -0.1275 -0.8801
  555MOL0     C74844   4.257   9.667   2.850  0.2438 -0.2323  0.7965
  555MOL0     C74845   4.173   9.784   2.846  0.0436 -0.2196  0.4129
  555MOL0     C74846   4.040   9.780   2.803  0.5840  0.3190  0.1618
  555MOL0     C74847   3.988   9.656   2.754  0.2915 -0.6392 -0.4243
  555MOL0     O74848   3.862   9.648   2.704  0.5157  0.1741  0.5715
  555MOL0     C74849   3.818   9.546   2.611  1.2038  0.1452 -0.1750
  555MOL0     C74850   3.669   9.568   2.572  0.0834 -0.2006 -0.5328
  555MOL0     C74851   3.669   9.653   2.438 -0.0161 -0.4380 -0.2657
  555MOL0     C74852   3.534   9.674   2.380 -0.2783 -0.3380  0.2692
  555MOL0     C74853   3.468   9.552   2.339  0.2498  0.1209 -0.6712
  555MOL0     C74854   3.399   9.456   2.304 -0.0847 -0.4424  0.5504
  555MOL0     C74855   4.073   9.539   2.755  0.4933 -0.5414  0.0980
  555MOL0     C74856   4.202   9.543   2.807 -0.9784 -0.6204  0.2709
  555MOL0     C74857   4.271   9.411   2.815 -0.4938  0.0081  0.4317
  555MOL0     H74858   4.472   9.830   3.224  0.3571  2.7555  0.6417
  555MOL0     H74859   4.692   9.860   3.326 -0.3817 -0.0716  0.0343
  555MOL0     H74860   5.008  10.055   3.089  1.2167  0.5231  0.8130
  555MOL0     H74861   4.881  10.132   3.194  1.3655  2.4188 -2.5279
  555MOL0     H74862   5.124   9.993   3.295 -0.3653 -0.4039  1.3016
  555MOL0     H74863   5.022  10.120   3.372 -2.0260  1.4753 -2.3811
  555MOL0     H74864   5.113  10.287   3.186 -0.0945  0.4038  0.2177
  555MOL0     H74865   5.222  10.157   3.134  0.4563  1.4770 -0.2852
  555MOL0     H74866   5.209  10.272   3.417 -1.7570 -2.5519  0.1741
  555MOL0     H74867   5.317  10.140   3.363  1.0205 -0.2426 -2.1224
  555MOL0     H74868   5.318  10.408   3.224  0.0572  0.0374 -1.2829
  555MOL0     H74869   5.402  10.380   3.381  0.5431 -1.9924  1.0498
  555MOL0     H74870   5.518  10.184   3.283 -0.6525  0.3383  1.3449
  555MOL0     H74871   5.432  10.205   3.131 -2.0183  0.9243  0.0068
  555MOL0     H74872   5.542  10.438   3.114 -1.8858 -2.4265 -0.9842
  555MOL0     H74873   5.648  10.307   3.079  0.1000  1.6457 -1.0414
  555MOL0     H74874   5.764  10.472   3.212 -0.5439 -0.2956  0.4489
  555MOL0     H74875   5.624  10.467   3.332  0.1064  0.3998  0.2513
  555MOL0     H74876   5.947  10.330   3.198  0.3238  1.2444  2.7172
  555MOL0     H74877   6.092  10.056   3.442 -2.2370 -0.0717 -0.0592
  555MOL0     H74878   6.098  10.080   3.268  2.0545 -0.9842  1.6824
  555MOL0     H74879   6.218  10.277   3.292 -0.3471  4.9099  2.3814
  555MOL0     H74880   6.148  10.317   3.443 -0.8614  0.3030 -1.0217
  555MOL0     H74881   6.278  10.120   3.544  1.5478 -0.6257 -0.1126
  555MOL0     H74882   6.365  10.265   3.511 -3.0599  2.3996 -0.5574
  555MOL0     H74883   6.439  10.175   3.297 -0.1928 -0.1334 -0.2547
  555MOL0     H74884   6.363  10.016   3.327  2.6056  0.5777 -1.8779
  555MOL0     H74885   6.734   9.949   3.603 -0.7748 -0.1905 -0.3638
  555MOL0     H74886   6.920  10.078   3.676 -0.4042 -1.9531 -0.7630
  555MOL0     H74887   7.095  10.689   3.517 -1.1136 -0.9152  0.2881
  555MOL0     H74888   7.310  10.799   3.479  1.3888 -0.3441  0.0729
  555MOL0     H74889   7.706  10.595   3.553 -1.0524  0.3719  1.1991
  555MOL0     H74890   7.668  10.546   3.393  2.7129  0.7318 -1.3892
  555MOL0     H74891   7.844  10.671   3.341  0.1669  0.8927 -0.7437
  555MOL0     H74892   7.720  10.783   3.318  2.1091  1.1198 -0.3637
  555MOL0     H74893   7.759  10.876   3.552 -0.5199  0.7918 -0.5892
  555MOL0     H74894   7.872  10.750   3.592 -1.8400 -0.7130 -0.5826
  555MOL0     H74895   7.986  10.943   3.547 -0.0874 -0.2268  0.1412
  555MOL0     H74896   7.898  10.988   3.399 -1.3289 -0.8144 -0.3146
  555MOL0     H74897   8.018  10.783   3.293  0.1448  3.6104 -1.5796
  555MOL0     H74898   8.096  10.753   3.447  1.6472  1.9552  3.5588
  555MOL0     H74899   8.130  11.002   3.276 -3.0012 -1.1171  1.4099
  555MOL0     H74900   8.219  10.974   3.432 -0.2886  2.0607  0.0414
  555MOL0     H74901   8.263  10.842   3.169 -0.6042  0.1183  0.1572
  555MOL0     H74902   8.293  10.752   3.301  1.3981  0.6892  3.4680
  555MOL0     H74903   8.439  10.916   3.404  0.7251 -3.0749 -0.4647
  555MOL0     H74904   8.503  10.841   3.251  0.6136 -0.5034 -0.3180
  555MOL0     H74905   7.510  10.416   3.467  1.1019  1.1476  1.3918
  555MOL0     H74906   7.286  10.304   3.472 -0.7953 -0.3761 -1.7575
  555MOL0     H74907   6.822  10.377   3.368  1.5019  0.5961  1.9550
  555MOL0     H74908   6.610  10.275   3.330  0.7453  1.4817  0.7169
  555MOL0     H74909   4.866   9.918   2.939  0.0082  0.5186 -0.9914
  555MOL0     H74910   4.654   9.855   2.840 -0.7835  0.6221 -0.8274
  555MOL0     H74911   4.219   9.878   2.876  3.7671 -0.9771 -2.1580
  555MOL0     H74912   3.972   9.864   2.811  0.8767  0.5031  0.7852
  555MOL0     H74913   3.833   9.451   2.663  1.8908  0.7667  0.7895
  555MOL0     H74914   3.881   9.546   2.521  1.6333 -0.8429  0.1110
  555MOL0     H74915   3.616   9.620   2.652 -0.6047 -2.5157  0.6011
  555MOL0     H74916   3.620   9.472   2.554  1.9015 -0.9769 -1.6699
  555MOL0     H74917   3.733   9.598   2.368  2.2974  0.7101  0.8003
  555MOL0     H74918   3.718   9.750   2.453 -2.3505  0.7524  0.1673
  555MOL0     H74919   3.482   9.737   2.453  1.7635  0.7785  0.8627
  555MOL0     H74920   3.553   9.730   2.288  1.4449  0.3613  1.0036
  555MOL0     H74921   3.346   9.369   2.270 -1.3041 -0.6968  2.8929
  555MOL0     H74922   4.037   9.444   2.717  3.2104 -1.3482 -0.7099
  555MOL0     H74923   4.311   9.398   2.916  1.5612 -1.3997 -0.5032
  555MOL0     H74924   4.196   9.338   2.785 -0.5620 -0.1315  0.9323
  555MOL0     H74925   4.355   9.400   2.746  1.1737  1.3355  2.1338
  556MOL0     O74926   0.300  10.723  11.092 -0.2651 -0.3203  0.2364
  556MOL0     C74927   0.199  10.733  11.154  0.1462 -0.5948  0.4106
  556MOL0     O74928   0.195  10.730  11.289  0.0690  0.0690 -0.0051
  556MOL0     C74929   0.318  10.752  11.352 -0.1882  1.3153  0.3001
  556MOL0     C74930   0.368  10.641  11.423 -0.7772 -0.2129  1.0155
  556MOL0     C74931   0.485  10.654  11.488  0.4265 -0.4181  0.3145
  556MOL0     C74932   0.547  10.775  11.499 -0.0917 -0.2295  0.2374
  556MOL0     O74933   0.662  10.789  11.575 -0.6119  0.0053 -0.0085
  556MOL0     C74934   0.692  10.919  11.640 -0.0426  0.4228  0.0123
  556MOL0     C74935   0.833  10.912  11.712 -0.9031 -0.2133  0.1811
  556MOL0     C74936   0.932  10.864  11.604  0.2930 -0.0186 -0.4891
  556MOL0     C74937   1.067  10.846  11.676 -0.4400  0.8014 -0.0054
  556MOL0     C74938   1.166  10.764  11.606  0.0104 -0.2695 -0.2007
  556MOL0     C74939   1.302  10.746  11.690  0.8393 -0.2528 -0.9490
  556MOL0     C74940   1.417  10.709  11.589  0.2200  0.1546  0.6397
  556MOL0     C74941   1.542  10.638  11.644 -0.9847 -0.5413  0.2794
  556MOL0     N74942   1.588  10.727  11.753 -0.1704  0.4878  0.0412
  556MOL0     C74943   1.630  10.672  11.874 -0.1652  0.0348  0.2768
  556MOL0     C74944   1.684  10.775  11.949 -0.3499  0.6534  0.1876
  556MOL0     C74945   1.758  10.772  12.083  0.5165 -0.4828  0.3172
  556MOL0     C74946   1.911  10.786  12.053 -0.3859 -0.1010  0.1938
  556MOL0     C74947   1.990  10.808  12.181  0.3811  0.5508  0.3480
  556MOL0     C74948   2.140  10.794  12.162 -0.1501  0.0113  0.1631
  556MOL0     O74949   2.171  10.655  12.129 -0.0227  0.2081 -0.2988
  556MOL0     C74950   2.301  10.612  12.160  0.9918  0.2017  0.4833
  556MOL0     C74951   2.308  10.481  12.196  0.3284  0.6662 -1.0004
  556MOL0     C74952   2.436  10.417  12.200  0.2397  0.3531  0.4813
  556MOL0     C74953   2.559  10.486  12.179  0.1491  0.4449 -0.5357
  556MOL0     C74954   2.693  10.433  12.204  0.5805 -0.0854 -0.2924
  556MOL0     O74955   2.801  10.504  12.165  0.3500  0.1124  0.1293
  556MOL0     C74956   2.919  10.465  12.224  0.2503  0.2044  0.3990
  556MOL0     C74957   3.009  10.383  12.155 -0.3832 -0.2642 -0.0283
  556MOL0     C74958   3.134  10.346  12.212 -0.7689 -0.4012  0.1137
  556MOL0     C74959   3.159  10.378  12.353 -0.3682  1.3844 -0.0759
  556MOL0     O74960   3.276  10.337  12.415  0.3898  0.0539 -0.3515
  556MOL0     C74961   3.392  10.346  12.333  0.2271 -0.1267 -0.5288
  556MOL0     C74962   3.517  10.378  12.419  0.5578  0.0672  0.7460
  556MOL0     C74963   3.535  10.265  12.525  0.5570  0.2660 -0.6503
  556MOL0     C74964   3.668  10.272  12.591 -0.3966 -0.7558  0.4006
  556MOL0     C74965   3.693  10.173  12.711  0.3369 -0.5156  0.4952
  556MOL0     C74966   3.816  10.207  12.788 -0.1278 -0.8168 -0.3210
  556MOL0     C74967   3.852  10.094  12.886  0.2581  0.5245  0.3867
  556MOL0     C74968   3.990  10.122  12.961  0.3539 -0.5746 -0.6875
  556MOL0    Cl74969   4.002  10.288  12.997  0.5514 -0.3942  0.0955
  556MOL0     C74970   3.071  10.457  12.417  0.5793 -0.2174  0.0075
  556MOL0     C74971   2.948  10.495  12.356  0.5024  0.3510  0.1706
  556MOL0     O74972   2.697  10.323  12.262 -0.3921 -0.4464 -0.1024
  556MOL0     C74973   2.540  10.624  12.147 -0.2611 -0.3693 -0.2390
  556MOL0     C74974   2.417  10.684  12.137 -0.3188  0.5332 -0.1247
  556MOL0     N74975   1.668  10.882  11.873 -0.8299  0.3641  0.1804
  556MOL0     N74976   1.627  10.858  11.747 -0.1761 -0.4566 -0.4553
  556MOL0     C74977   0.493  10.889  11.431  0.6864 -0.6306  0.3241
  556MOL0     C74978   0.379  10.882  11.351  0.0272 -0.4871  0.2659
  556MOL0     C74979   0.078  10.769  11.071  0.2361  0.5393 -0.5200
  556MOL0     C74980  -0.018  10.857  11.128 -0.3699 -0.1080 -0.5293
  556MOL0     C74981  -0.126  10.893  11.052  0.4629 -0.2737  0.8509
  556MOL0     C74982  -0.148  10.836  10.925  0.5540 -0.2295  0.4247
  556MOL0     O74983  -0.264  10.858  10.850 -0.4289 -0.0156 -0.0382
  556MOL0     C74984  -0.339  10.986  10.858  0.1034 -0.2646 -1.1704
  556MOL0     C74985  -0.470  10.966  10.933  0.0345 -0.5677 -0.3477
  556MOL0     C74986  -0.525  11.100  10.987 -0.3911 -0.2340 -0.8264
  556MOL0     C74987  -0.626  11.090  11.105 -0.4148 -0.1534 -0.7779
  556MOL0     C74988  -0.768  11.076  11.061 -0.8926  0.4459  0.0412
  556MOL0     C74989  -0.891  11.072  11.040 -0.0150  0.3686 -0.2568
  556MOL0     C74990  -0.053  10.755  10.868  0.7717 -0.3312 -1.1631
  556MOL0     C74991   0.057  10.712  10.945  1.1489 -0.9207  0.1255
  556MOL0     C74992   0.153  10.610  10.882 -0.5160  0.3199 -0.3630
  556MOL0     H74993   0.332  10.541  11.404  1.1575 -0.5076 -1.7726
  556MOL0     H74994   0.536  10.566  11.526 -0.3742  0.3217  3.3093
  556MOL0     H74995   0.704  10.996  11.563  0.0967  0.6346  0.2446
  556MOL0     H74996   0.607  10.934  11.707 -1.1081 -1.4970 -0.8332
  556MOL0     H74997   0.839  10.846  11.799  3.7495  1.7856  1.6310
  556MOL0     H74998   0.865  11.013  11.738 -3.2562  1.1828 -1.8454
  556MOL0     H74999   0.932  10.944  11.530 -2.3452 -0.7825 -1.4351
  556MOL0     H75000   0.902  10.765  11.567  1.3811  0.2211 -2.1006
  556MOL0     H75001   1.115  10.943  11.691 -0.3725  0.7196  0.3043
  556MOL0     H75002   1.059  10.790  11.769  2.7628 -1.0050 -0.6621
  556MOL0     H75003   1.114  10.668  11.596  0.0266 -0.3781  0.6805
  556MOL0     H75004   1.178  10.809  11.507 -1.3679 -3.2084 -1.8179
  556MOL0     H75005   1.327  10.836  11.747 -1.0134 -1.2991  1.6629
  556MOL0     H75006   1.287  10.675  11.771 -0.0742 -0.1854 -1.0486
  556MOL0     H75007   1.442  10.796  11.527 -1.2641  0.6229  0.6533
  556MOL0     H75008   1.380  10.640  11.513  0.9682  4.4423 -4.1587
  556MOL0     H75009   1.523  10.532  11.666  0.5067 -0.9556 -0.3282
  556MOL0     H75010   1.628  10.636  11.577 -1.3088  2.8316 -0.3785
  556MOL0     H75011   1.625  10.566  11.897 -1.3974 -0.5078 -2.1935
  556MOL0     H75012   1.732  10.855  12.149  0.4547 -1.3890  1.4770
  556MOL0     H75013   1.726  10.681  12.135  1.5011 -0.0366  1.7596
  556MOL0     H75014   1.950  10.692  12.014  0.8111  0.1393  0.7640
  556MOL0     H75015   1.938  10.875  11.995  0.1084 -0.1451  0.3454
  556MOL0     H75016   1.955  10.740  12.259  1.1394  1.3811  1.4421
  556MOL0     H75017   1.978  10.913  12.208  0.0049  1.8292 -3.9850
  556MOL0     H75018   2.188  10.838  12.250  0.3710 -0.4278  0.1036
  556MOL0     H75019   2.166  10.849  12.071  2.0320 -2.8332 -1.0894
  556MOL0     H75020   2.224  10.412  12.202  1.2918 -0.4096  1.0346
  556MOL0     H75021   2.447  10.311  12.223  2.1706  0.9170  2.5641
  556MOL0     H75022   2.980  10.335  12.062  0.9708  1.4380 -1.3852
  556MOL0     H75023   3.209  10.291  12.156  0.8801  2.3050 -0.4903
  556MOL0     H75024   3.411  10.256  12.273  2.4120  0.8261 -1.3691
  556MOL0     H75025   3.391  10.430  12.264 -0.5924  1.4146  1.2886
  556MOL0     H75026   3.606  10.389  12.356  1.1441  0.1194  1.5721
  556MOL0     H75027   3.495  10.472  12.470  2.2581 -1.0285  3.7650
  556MOL0     H75028   3.451  10.278  12.595 -0.6887  0.7557 -2.1700
  556MOL0     H75029   3.529  10.165  12.481  3.1344  0.3699 -1.3988
  556MOL0     H75030   3.688  10.375  12.621 -1.9139  0.7638 -3.2093
  556MOL0     H75031   3.750  10.253  12.521  1.3289  0.0165  2.1256
  556MOL0     H75032   3.684  10.070  12.673 -2.3362  0.0091 -0.5243
  556MOL0     H75033   3.603  10.177  12.772 -0.0231  2.3888 -0.0909
  556MOL0     H75034   3.896  10.222  12.715  1.3151  3.9270  1.8189
  556MOL0     H75035   3.804  10.297  12.849  0.6809  0.1227 -1.5046
  556MOL0     H75036   3.869   9.998  12.836  0.6163  1.3878 -1.2154
  556MOL0     H75037   3.774  10.077  12.960 -2.4120 -0.5426 -2.4416
  556MOL0     H75038   4.007  10.071  13.057  3.6582 -0.8072 -1.2706
  556MOL0     H75039   4.069  10.098  12.889  2.1706 -0.7592  1.2690
  556MOL0     H75040   3.091  10.481  12.521 -0.2765 -1.0045  0.3811
  556MOL0     H75041   2.869  10.541  12.413 -0.1025 -1.6930  1.0918
  556MOL0     H75042   2.635  10.676  12.135  1.7949 -3.5387  0.9666
  556MOL0     H75043   2.408  10.791  12.121 -1.4226  0.4123 -0.4335
  556MOL0     H75044   0.536  10.989  11.437  3.6121 -1.8814  2.7389
  556MOL0     H75045   0.334  10.971  11.309  1.0214  0.1053  0.4218
  556MOL0     H75046  -0.000  10.897  11.228 -1.1965  1.4543 -0.9622
  556MOL0     H75047  -0.194  10.963  11.098  1.0430  0.0929  1.1593
  556MOL0     H75048  -0.364  11.018  10.756  1.4733  1.4802 -1.0085
  556MOL0     H75049  -0.280  11.068  10.899  0.5164 -0.1999 -1.8855
  556MOL0     H75050  -0.454  10.898  11.017 -2.6806 -1.2742 -0.3108
  556MOL0     H75051  -0.540  10.910  10.869 -0.1421 -0.8862  0.1209
  556MOL0     H75052  -0.567  11.141  10.895  0.6178 -1.1258 -1.7090
  556MOL0     H75053  -0.449  11.169  11.026 -1.5054  0.0269  1.0249
  556MOL0     H75054  -0.597  10.997  11.155 -1.1228  0.3660  0.6632
  556MOL0     H75055  -0.616  11.175  11.173 -1.6575 -0.7717  0.2416
  556MOL0     H75056  -0.995  11.072  11.017 -0.1826  1.1276  0.4603
  556MOL0     H75057  -0.070  10.719  10.767 -1.7093 -1.2489 -0.4735
  556MOL0     H75058   0.240  10.667  10.848  0.8590 -0.3389  1.7722
  556MOL0     H75059   0.188  10.533  10.953 -1.6702  0.6382  0.5810
  556MOL0     H75060   0.103  10.564  10.797 -0.0704 -3.4936  1.1908
  557MOL0     O75061   6.262   9.957   1.725  0.3716  0.4837  0.2264
  557MOL0     C75062   6.214  10.065   1.757 -0.4688  0.5996  0.1920
  557MOL0     O75063   6.286  10.179   1.753  0.1975  0.0271  0.7155
  557MOL0     C75064   6.419  10.194   1.751 -0.6496 -0.0921  0.8946
  557MOL0     C75065   6.465  10.308   1.683 -0.5826  0.5442 -0.1200
  557MOL0     C75066   6.596  10.341   1.675 -0.4179 -0.7240 -0.0452
  557MOL0     C75067   6.691  10.259   1.734 -0.0265  0.2710  0.0992
  557MOL0     O75068   6.833  10.287   1.732 -0.0938 -0.0666 -0.8478
  557MOL0     C75069   6.869  10.405   1.666 -0.7928  0.0388  0.5760
  557MOL0     C75070   7.020  10.422   1.667 -0.5468  0.2209 -0.0912
  557MOL0     C75071   7.076  10.540   1.580 -0.5620 -0.2748  0.0478
  557MOL0     C75072   7.226  10.571   1.607  0.4736 -0.0285 -0.5069
  557MOL0     C75073   7.275  10.687   1.531 -0.3495  0.1555  0.2528
  557MOL0     C75074   7.420  10.742   1.570  1.2626 -0.3150 -1.4894
  557MOL0     C75075   7.470  10.834   1.463 -0.5284 -0.1140 -0.2919
  557MOL0     C75076   7.608  10.897   1.504  0.2301 -0.9220 -0.1457
  557MOL0     N75077   7.642  10.999   1.398 -0.6912 -0.4795 -0.7117
  557MOL0     C75078   7.743  10.984   1.307 -0.5495  0.1231 -1.1754
  557MOL0     C75079   7.739  11.107   1.236 -0.3582 -0.4405  0.0407
  557MOL0     C75080   7.830  11.159   1.122 -0.6008 -0.5669  0.3174
  557MOL0     C75081   7.976  11.107   1.107  0.3578  0.2362 -0.0787
  557MOL0     C75082   7.987  10.970   1.042 -0.2622 -0.2791  0.0029
  557MOL0     C75083   8.132  10.951   1.007  0.3813 -0.8488  0.4856
  557MOL0     O75084   8.169  11.031   0.886  0.2175 -0.3613 -0.3197
  557MOL0     C75085   8.294  11.023   0.841 -0.4427 -0.8577 -0.2541
  557MOL0     C75086   8.388  10.916   0.862 -0.4354  0.2146  0.4076
  557MOL0     C75087   8.524  10.927   0.816  1.4309  0.0668  0.5085
  557MOL0     C75088   8.558  11.041   0.746  0.5391  0.2230 -0.3816
  557MOL0     C75089   8.689  11.047   0.686  0.2556  1.0943 -0.0730
  557MOL0     O75090   8.767  10.934   0.702  0.3976  0.0937  0.3790
  557MOL0     C75091   8.894  10.935   0.648 -0.1917 -1.3434  0.1770
  557MOL0     C75092   8.939  10.812   0.594 -1.1894  0.1716  0.4193
  557MOL0     C75093   9.064  10.818   0.522  0.5962 -0.3035 -0.5047
  557MOL0     C75094   9.144  10.936   0.523 -0.0412 -0.6162 -0.1438
  557MOL0     O75095   9.257  10.934   0.447 -0.3303 -0.0359  0.3011
  557MOL0     C75096   9.360  11.034   0.480  1.0818  0.5446 -0.3986
  557MOL0     C75097   9.492  11.004   0.405  0.2136 -0.2407 -1.1087
  557MOL0     C75098   9.610  11.073   0.472  0.4294 -0.1793 -0.2637
  557MOL0     C75099   9.739  11.033   0.408 -0.3164  0.9688 -0.3710
  557MOL0     C75100   9.853  11.131   0.462 -0.9932  0.6788  0.3429
  557MOL0     C75101   9.994  11.070   0.419 -0.0822 -0.7022 -0.0140
  557MOL0     C75102  10.019  11.088   0.276 -0.3423 -0.2404  1.4586
  557MOL0     C75103  10.158  11.039   0.258  0.0883 -0.1273  0.0900
  557MOL0    Cl75104  10.207  11.073   0.092  0.1858  0.3375 -0.0657
  557MOL0     C75105   9.097  11.054   0.588 -0.0738 -0.2715  0.5935
  557MOL0     C75106   8.979  11.050   0.659 -0.3298  0.2052  0.2266
  557MOL0     O75107   8.722  11.143   0.627 -0.2690 -0.2234  0.4065
  557MOL0     C75108   8.469  11.149   0.729 -0.2255  0.2616  0.2453
  557MOL0     C75109   8.340  11.139   0.771  0.8593  1.2558 -0.4596
  557MOL0     N75110   7.632  11.182   1.283 -0.3635 -0.8990 -0.0857
  557MOL0     N75111   7.578  11.119   1.377  0.8819  0.3690 -0.1607
  557MOL0     C75112   6.645  10.159   1.820 -0.0892  0.8010  1.2293
  557MOL0     C75113   6.507  10.122   1.825  0.6820 -0.4630  0.7961
  557MOL0     C75114   6.066  10.077   1.788 -0.3069 -0.2083 -0.5472
  557MOL0     C75115   6.004   9.969   1.858 -0.3448  0.0217  0.5276
  557MOL0     C75116   5.868   9.979   1.889 -0.2738 -0.4977  1.0483
  557MOL0     C75117   5.781  10.080   1.847  0.2508 -0.7888 -0.8030
  557MOL0     O75118   5.654  10.093   1.900  0.8379 -0.7374  0.0786
  557MOL0     C75119   5.593   9.998   1.986 -0.6667  0.4791 -0.0469
  557MOL0     C75120   5.445  10.044   1.991  0.4573  0.2391 -0.3858
  557MOL0     C75121   5.357   9.959   2.080  0.4040  0.7107  0.6880
  557MOL0     C75122   5.317  10.041   2.202  0.2384 -0.8448  0.3110
  557MOL0     C75123   5.430  10.085   2.281 -0.4518  0.0549  0.3921
  557MOL0     C75124   5.520  10.112   2.346  0.5134  0.5052 -0.5194
  557MOL0     C75125   5.845  10.177   1.773 -0.1950 -0.2138  0.0314
  557MOL0     C75126   5.982  10.183   1.743  0.5402  0.0231 -0.2111
  557MOL0     C75127   6.023  10.293   1.645  0.4038 -0.1837 -0.1028
  557MOL0     H75128   6.393  10.381   1.648 -1.4599 -0.1795  0.1413
  557MOL0     H75129   6.627  10.435   1.630  3.5117 -1.2936  1.0492
  557MOL0     H75130   6.824  10.407   1.566 -1.5912  3.3039  0.8957
  557MOL0     H75131   6.827  10.493   1.716  0.6989  2.6305 -2.3364
  557MOL0     H75132   7.065  10.326   1.639 -0.0788  0.5931 -0.6329
  557MOL0     H75133   7.066  10.440   1.765 -0.8139  0.6450 -0.0430
  557MOL0     H75134   7.009  10.624   1.598  0.7416  0.6572  0.7044
  557MOL0     H75135   7.058  10.516   1.475 -0.5512  0.0725 -0.0343
  557MOL0     H75136   7.232  10.590   1.715 -2.2897  3.3897 -0.8057
  557MOL0     H75137   7.285  10.484   1.576  0.8792  0.6480 -1.7063
  557MOL0     H75138   7.271  10.665   1.424  0.6168 -0.5965  0.3570
  557MOL0     H75139   7.208  10.772   1.546 -0.0655  0.1745  1.5268
  557MOL0     H75140   7.415  10.779   1.673 -2.6140 -4.8754  0.2940
  557MOL0     H75141   7.486  10.655   1.570 -0.3183 -1.5417 -1.5993
  557MOL0     H75142   7.405  10.921   1.447  4.0872  3.6311 -1.0772
  557MOL0     H75143   7.481  10.786   1.365 -2.0946 -1.4319  0.1471
  557MOL0     H75144   7.601  10.961   1.593  2.3589  1.7520 -1.7196
  557MOL0     H75145   7.693  10.829   1.517  1.0435 -0.6391 -3.2991
  557MOL0     H75146   7.811  10.900   1.298  0.8677  1.1427 -0.4507
  557MOL0     H75147   7.782  11.142   1.026  0.3931 -2.3487  0.0972
  557MOL0     H75148   7.828  11.266   1.146 -0.6136 -0.8074  1.4624
  557MOL0     H75149   8.024  11.189   1.053 -0.4053  1.9827  1.7509
  557MOL0     H75150   8.026  11.115   1.203 -1.4647  0.9732  0.8652
  557MOL0     H75151   7.927  10.969   0.950 -1.4791  0.7347  0.7618
  557MOL0     H75152   7.949  10.897   1.113 -1.9865 -0.2288 -0.8071
  557MOL0     H75153   8.132  10.844   0.985 -1.7014 -1.3898  2.6048
  557MOL0     H75154   8.201  10.975   1.088 -0.8632  1.7605  0.8921
  557MOL0     H75155   8.369  10.820   0.908 -1.1575 -1.1253 -2.4242
  557MOL0     H75156   8.595  10.846   0.825  0.9522 -0.4876 -0.5090
  557MOL0     H75157   8.869  10.730   0.580 -0.8131 -0.0369 -0.2749
  557MOL0     H75158   9.107  10.737   0.464 -0.0408 -0.5534 -0.6304
  557MOL0     H75159   9.325  11.134   0.452  1.4786  1.5231  2.3401
  557MOL0     H75160   9.372  11.037   0.589  0.4317  0.0859 -0.3106
  557MOL0     H75161   9.505  10.895   0.400 -3.5775 -0.9642  1.1202
  557MOL0     H75162   9.468  11.040   0.305 -3.7302 -1.3637 -0.7488
  557MOL0     H75163   9.590  11.179   0.453  1.6058  0.0966 -0.0541
  557MOL0     H75164   9.610  11.065   0.581 -0.4511  3.0554  0.0943
  557MOL0     H75165   9.739  11.031   0.299  0.6537  0.5045 -0.3725
  557MOL0     H75166   9.768  10.931   0.436  1.4976  0.8725 -2.3706
  557MOL0     H75167   9.861  11.134   0.571  2.2202  1.7485  0.1834
  557MOL0     H75168   9.846  11.231   0.418  2.5854  1.7534  1.8482
  557MOL0     H75169  10.055  11.136   0.480 -1.1338  0.2193  0.0693
  557MOL0     H75170  10.000  10.966   0.452  1.7332 -0.4367  0.5776
  557MOL0     H75171  10.029  11.194   0.253  1.3621 -1.2223 -3.5527
  557MOL0     H75172   9.948  11.056   0.199  1.1914  5.0165 -2.7083
  557MOL0     H75173  10.230  11.089   0.323 -1.4642  3.6657 -0.8431
  557MOL0     H75174  10.157  10.931   0.279 -0.2162 -0.6738 -2.4263
  557MOL0     H75175   9.152  11.146   0.572 -2.1159  0.8670 -0.3124
  557MOL0     H75176   8.947  11.139   0.713  0.0562  0.5234 -0.0647
  557MOL0     H75177   8.497  11.239   0.674 -3.4516  1.9673  1.1689
  557MOL0     H75178   8.280  11.227   0.754 -3.6689 -1.1030  1.3808
  557MOL0     H75179   6.713  10.094   1.875 -2.6359 -0.6848  2.8491
  557MOL0     H75180   6.476  10.031   1.876 -1.0516 -0.0702  0.5065
  557MOL0     H75181   6.061   9.892   1.909  0.6868  1.8126  2.2036
  557MOL0     H75182   5.823   9.899   1.948 -1.2879  0.8798  2.2095
  557MOL0     H75183   5.627   9.996   2.090  0.0463 -0.1359 -0.2744
  557MOL0     H75184   5.600   9.894   1.952  0.0056  0.0330  1.3783
  557MOL0     H75185   5.403  10.037   1.890 -0.0543 -0.4696 -0.1261
  557MOL0     H75186   5.449  10.151   2.013  0.4328 -0.0055  0.8542
  557MOL0     H75187   5.406   9.869   2.117 -1.0495 -1.2033 -1.7606
  557MOL0     H75188   5.265   9.922   2.033  0.1716 -0.1442  1.7695
  557MOL0     H75189   5.268  10.133   2.169 -0.4963 -1.7931 -1.4098
  557MOL0     H75190   5.256   9.976   2.266  0.2504 -1.8739 -0.6976
  557MOL0     H75191   5.611  10.122   2.403 -0.3771  0.9143  0.8851
  557MOL0     H75192   5.775  10.252   1.736 -1.7708 -2.2828 -1.4051
  557MOL0     H75193   6.093  10.353   1.705 -1.1846 -0.2317  1.9036
  557MOL0     H75194   6.074  10.259   1.555  0.8848  0.4222 -0.0686
  557MOL0     H75195   5.938  10.358   1.621  0.1485 -0.3530  0.3281
  558MOL0     O75196   9.436   5.300   6.897  1.0103  1.1815  0.7203
  558MOL0     C75197   9.340   5.322   6.971 -0.4130 -0.4738 -0.0384
  558MOL0     O75198   9.349   5.407   7.077  0.3465  0.1476 -0.0899
  558MOL0     C75199   9.455   5.503   7.082  0.7945  0.5000  0.7911
  558MOL0     C75200   9.505   5.559   6.958 -0.3236  0.9012  0.0325
  558MOL0     C75201   9.599   5.665   6.952 -0.2971  0.0701 -0.5103
  558MOL0     C75202   9.637   5.730   7.070  0.4738 -0.7640  1.1579
  558MOL0     O75203   9.714   5.838   7.078  0.4163  0.0557 -0.0213
  558MOL0     C75204   9.742   5.916   6.959 -0.4525  0.2479  0.9841
  558MOL0     C75205   9.883   5.865   6.910  0.3598  1.0142 -0.2180
  558MOL0     C75206   9.996   5.933   6.990 -0.8502  0.5343  0.2769
  558MOL0     C75207  10.133   5.878   6.935 -0.3798 -0.0148  0.2181
  558MOL0     C75208  10.175   5.946   6.804  0.1752 -0.1533  0.1109
  558MOL0     C75209  10.242   6.085   6.839  0.2843 -0.0973 -0.1162
  558MOL0     C75210  10.318   6.130   6.719 -0.7024  0.5693 -0.4945
  558MOL0     C75211  10.368   6.274   6.748  0.6078  0.6353  0.0984
  558MOL0     N75212  10.453   6.316   6.640 -0.2495 -0.5226  0.1409
  558MOL0     C75213  10.567   6.257   6.590 -0.0274  0.0833  0.2633
  558MOL0     C75214  10.610   6.330   6.487  0.3166 -0.4122  0.9509
  558MOL0     C75215  10.749   6.319   6.420  0.0713  0.2390  0.1917
  558MOL0     C75216  10.769   6.188   6.348 -0.0355 -0.1196 -0.3563
  558MOL0     C75217  10.921   6.147   6.343 -0.0513  0.8997  0.2270
  558MOL0     C75218  10.990   6.219   6.231  0.3535 -0.6708  0.3399
  558MOL0     O75219  11.120   6.149   6.200  0.2269 -0.3269  0.2915
  558MOL0     C75220  11.214   6.156   6.302  0.9830  0.0114 -0.2650
  558MOL0     C75221  11.240   6.263   6.389  0.6615 -0.1631  0.3341
  558MOL0     C75222  11.346   6.264   6.470  0.0653  0.4645  0.5533
  558MOL0     C75223  11.444   6.165   6.457 -0.6242  0.6835 -0.3216
  558MOL0     C75224  11.577   6.182   6.532  0.2598  0.9270  0.0157
  558MOL0     O75225  11.653   6.075   6.548  0.0755 -0.0584  0.8053
  558MOL0     C75226  11.758   6.087   6.638  0.3312  0.0518  0.2270
  558MOL0     C75227  11.886   6.040   6.604 -0.2237 -0.2005 -0.5837
  558MOL0     C75228  11.991   6.033   6.707  0.5064  0.0823  0.5230
  558MOL0     C75229  11.959   6.070   6.839 -0.3423 -0.6188 -0.3927
  558MOL0     O75230  12.057   6.042   6.928  0.1926 -0.3398 -0.1149
  558MOL0     C75231  12.016   6.029   7.064  0.9277  0.7061 -0.1419
  558MOL0     C75232  12.122   5.946   7.140  0.7456  0.3565  0.0789
  558MOL0     C75233  12.263   6.015   7.148  0.9564 -0.5248 -1.2730
  558MOL0     C75234  12.346   5.933   7.249 -0.6705  0.6534  0.7713
  558MOL0     C75235  12.465   6.014   7.287  0.6681 -0.2103 -0.8709
  558MOL0     C75236  12.541   5.932   7.384 -0.2033 -0.3914  0.3893
  558MOL0     C75237  12.653   6.011   7.458 -0.7709  0.1792  0.1673
  558MOL0     C75238  12.730   5.915   7.542  0.0978  0.6421 -0.5608
  558MOL0    Cl75239  12.886   5.978   7.578  0.2158 -0.2380 -0.5103
  558MOL0     C75240  11.831   6.113   6.869 -0.4315 -0.0026 -0.1695
  558MOL0     C75241  11.736   6.120   6.772  0.2541  0.1150 -0.2877
  558MOL0     O75242  11.615   6.302   6.557 -0.1239  0.5163  0.0211
  558MOL0     C75243  11.428   6.058   6.369 -0.0081  0.3345 -0.3478
  558MOL0     C75244  11.310   6.055   6.290  0.2993 -0.0712 -0.9866
  558MOL0     N75245  10.525   6.443   6.476 -0.1632  0.1899 -0.1893
  558MOL0     N75246  10.433   6.428   6.561  0.1970  0.1874 -0.3347
  558MOL0     C75247   9.583   5.678   7.188 -0.7464 -0.4805  0.2118
  558MOL0     C75248   9.498   5.570   7.195 -0.0785  0.1173 -0.1984
  558MOL0     C75249   9.211   5.255   6.942 -0.6676  0.2334 -0.3684
  558MOL0     C75250   9.138   5.223   7.048 -0.5456 -0.9338  0.6940
  558MOL0     C75251   9.025   5.142   7.037  0.1378 -0.1796  0.3666
  558MOL0     C75252   8.972   5.108   6.915  0.2016  0.2266 -0.5416
  558MOL0     O75253   8.844   5.055   6.919  0.1782  0.8228 -0.6672
  558MOL0     C75254   8.751   5.070   6.808  0.0994  0.4619 -0.4937
  558MOL0     C75255   8.610   5.082   6.871 -0.6468 -0.4617 -0.2358
  558MOL0     C75256   8.588   4.989   6.994 -0.2837  0.0534  0.4974
  558MOL0     C75257   8.447   4.996   7.040  0.0383  0.1687 -0.1820
  558MOL0     C75258   8.355   4.924   6.948  0.7551 -0.0116 -0.2804
  558MOL0     C75259   8.273   4.862   6.883  0.1750  0.0577  0.5876
  558MOL0     C75260   9.037   5.152   6.802 -0.3094 -0.1105 -1.1782
  558MOL0     C75261   9.160   5.223   6.812 -0.0603  0.4337 -0.5252
  558MOL0     C75262   9.216   5.283   6.680  0.0321  0.6595 -0.6236
  558MOL0     H75263   9.470   5.527   6.861  0.8893  0.2831 -0.2138
  558MOL0     H75264   9.647   5.692   6.859 -1.2191  1.2067 -0.6843
  558MOL0     H75265   9.666   5.909   6.881 -0.6369  1.8257  0.9965
  558MOL0     H75266   9.760   6.020   6.986  2.3044  1.0731 -3.0667
  558MOL0     H75267   9.894   5.885   6.803  1.6949  0.9100 -0.1142
  558MOL0     H75268   9.894   5.756   6.915 -0.1771  0.7867 -2.6294
  558MOL0     H75269   9.983   5.906   7.095 -1.7931  0.8077  0.2392
  558MOL0     H75270   9.970   6.038   6.979 -3.7724  0.0971  2.0165
  558MOL0     H75271  10.209   5.902   7.010  0.1973  1.6625 -0.8373
  558MOL0     H75272  10.133   5.770   6.917  0.0734 -0.3099  1.8605
  558MOL0     H75273  10.242   5.881   6.747  0.9781  1.8242 -1.2887
  558MOL0     H75274  10.081   5.973   6.756  0.0571  2.6702  1.6985
  558MOL0     H75275  10.166   6.157   6.871  1.0684  0.2742  0.9628
  558MOL0     H75276  10.305   6.080   6.928 -0.6799 -2.3220  0.4969
  558MOL0     H75277  10.260   6.125   6.626  0.1429 -2.0763 -0.9538
  558MOL0     H75278  10.402   6.061   6.707 -0.6401  0.4744  0.3960
  558MOL0     H75279  10.279   6.337   6.759 -1.5864 -2.4598  1.8237
  558MOL0     H75280  10.418   6.273   6.845 -2.9267  0.3645  2.0754
  558MOL0     H75281  10.616   6.174   6.639  0.4972  0.7104  0.8133
  558MOL0     H75282  10.763   6.394   6.343  2.7677 -0.7600 -0.4115
  558MOL0     H75283  10.829   6.331   6.495 -1.1292  2.1335  1.2403
  558MOL0     H75284  10.718   6.107   6.401  2.0721 -1.0338  0.4121
  558MOL0     H75285  10.729   6.192   6.247 -2.4141  2.8947  0.5357
  558MOL0     H75286  10.925   6.040   6.320  1.4064  0.8064  0.8283
  558MOL0     H75287  10.966   6.166   6.441  0.1035 -2.4565  0.9428
  558MOL0     H75288  11.011   6.324   6.254  0.1028 -0.3737 -0.6955
  558MOL0     H75289  10.925   6.231   6.143 -0.8399 -0.6289  1.2050
  558MOL0     H75290  11.167   6.342   6.403 -1.2962 -2.2250  2.7770
  558MOL0     H75291  11.355   6.338   6.549 -1.7250 -0.6004  1.8240
  558MOL0     H75292  11.896   6.006   6.502 -2.0444  0.7619 -1.1258
  558MOL0     H75293  12.087   5.984   6.698 -0.7469 -2.3427 -0.9306
  558MOL0     H75294  12.011   6.127   7.112  0.2244  1.3902 -1.5577
  558MOL0     H75295  11.927   5.968   7.080  1.7209 -0.2253  0.9276
  558MOL0     H75296  12.092   5.913   7.240  3.0576 -0.7302  0.4861
  558MOL0     H75297  12.124   5.848   7.093  1.3050 -0.0511  0.9223
  558MOL0     H75298  12.317   6.031   7.054 -1.0925  0.7586 -2.3081
  558MOL0     H75299  12.241   6.110   7.197 -1.1704 -1.6648  0.1242
  558MOL0     H75300  12.377   5.843   7.195 -1.6110  1.0094 -0.4143
  558MOL0     H75301  12.281   5.907   7.333 -1.2578 -0.0606  0.1120
  558MOL0     H75302  12.425   6.108   7.325  0.8633 -1.5453  3.0374
  558MOL0     H75303  12.525   6.048   7.202  1.6152  0.3681  0.0060
  558MOL0     H75304  12.481   5.891   7.465  1.9553 -1.5578  1.4770
  558MOL0     H75305  12.577   5.844   7.330  0.3882  1.3854 -2.2998
  558MOL0     H75306  12.619   6.099   7.513  2.4749  2.9729 -1.9238
  558MOL0     H75307  12.731   6.043   7.390  0.2628  0.5482  1.4799
  558MOL0     H75308  12.681   5.917   7.640  2.0233  1.3824  0.4333
  558MOL0     H75309  12.741   5.817   7.495 -0.3122  0.2468  0.1452
  558MOL0     H75310  11.804   6.143   6.969 -0.7595  0.4467 -0.3919
  558MOL0     H75311  11.648   6.174   6.806 -0.0991  0.5523 -1.7881
  558MOL0     H75312  11.506   5.987   6.344 -0.7982 -0.5801 -0.2922
  558MOL0     H75313  11.287   5.985   6.209  1.0267 -1.2026 -0.2439
  558MOL0     H75314   9.613   5.732   7.277  1.8212  2.7540 -2.3384
  558MOL0     H75315   9.461   5.522   7.284 -3.2656 -1.4497 -2.1987
  558MOL0     H75316   9.170   5.254   7.147 -0.1420  1.1737 -0.0439
  558MOL0     H75317   8.961   5.121   7.122 -1.0675 -0.8685 -0.6793
  558MOL0     H75318   8.756   4.992   6.732  0.8192  0.8739 -0.8758
  558MOL0     H75319   8.772   5.166   6.760  0.0393  0.1238 -1.2037
  558MOL0     H75320   8.539   5.064   6.790 -0.4004 -0.5256 -0.4394
  558MOL0     H75321   8.595   5.184   6.908  1.8668 -1.3041  3.7011
  558MOL0     H75322   8.647   5.036   7.073  0.4509 -0.5667  0.3266
  558MOL0     H75323   8.627   4.888   6.977  0.6845  0.6416 -1.0135
  558MOL0     H75324   8.429   4.953   7.139  1.0322 -2.6059 -1.0881
  558MOL0     H75325   8.408   5.098   7.041  1.0801  0.7320 -3.6428
  558MOL0     H75326   8.200   4.814   6.822 -2.9039  3.3086  1.3118
  558MOL0     H75327   8.989   5.131   6.706 -2.6274  2.4157 -0.7177
  558MOL0     H75328   9.300   5.230   6.634 -2.1606 -4.4371  0.5150
  558MOL0     H75329   9.128   5.294   6.615 -2.4850 -2.5831  1.9118
  558MOL0     H75330   9.247   5.385   6.703  1.1278  0.5417 -1.5143
  559MOL0     O75331   6.674  10.321   3.000  0.3916 -0.0398  0.0828
  559MOL0     C75332   6.726  10.223   3.058 -0.2986  0.2693  1.1252
  559MOL0     O75333   6.861  10.213   3.088  0.7131  0.0273 -0.0723
  559MOL0     C75334   6.957  10.302   3.043 -0.7259 -0.4369  0.9400
  559MOL0     C75335   7.058  10.329   3.134  0.6990  0.2889 -0.2679
  559MOL0     C75336   7.172  10.411   3.104 -0.1909  0.3556 -1.0307
  559MOL0     C75337   7.170  10.488   2.981  0.3614  0.3322 -0.4885
  559MOL0     O75338   7.248  10.590   2.948  0.2043 -0.8192 -0.1496
  559MOL0     C75339   7.385  10.578   2.988 -0.2483  0.2432  0.5038
  559MOL0     C75340   7.478  10.651   2.885  0.1843  0.1776 -0.4232
  559MOL0     C75341   7.638  10.638   2.917  0.7509  1.2436  0.7409
  559MOL0     C75342   7.694  10.710   3.044  0.1983 -1.1139 -0.0110
  559MOL0     C75343   7.665  10.858   3.058  0.7838 -0.2933 -0.4444
  559MOL0     C75344   7.527  10.886   3.133 -0.6140  0.1314  0.4666
  559MOL0     C75345   7.501  11.035   3.171  0.0504 -0.3021 -0.1450
  559MOL0     C75346   7.372  11.063   3.233  0.4874 -0.0980 -0.4593
  559MOL0     N75347   7.253  11.014   3.161 -0.1994  0.7015  0.5310
  559MOL0     C75348   7.199  10.888   3.186 -0.1167  0.1943 -0.8087
  559MOL0     C75349   7.077  10.897   3.137 -0.1346 -0.1413 -0.0028
  559MOL0     C75350   6.969  10.794   3.144  0.4982 -0.1514  0.2142
  559MOL0     C75351   6.901  10.803   3.286 -0.2740 -0.0846  0.3327
  559MOL0     C75352   6.814  10.684   3.324 -0.1970 -0.3027 -0.0937
  559MOL0     C75353   6.716  10.642   3.212  0.7498  0.2248 -0.5869
  559MOL0     O75354   6.636  10.536   3.276  0.1452  0.3631 -0.3044
  559MOL0     C75355   6.504  10.561   3.285  0.8815  0.3458  0.0421
  559MOL0     C75356   6.435  10.597   3.399 -0.5641  0.5573 -0.0128
  559MOL0     C75357   6.297  10.606   3.398  0.4659 -0.5737  1.3675
  559MOL0     C75358   6.216  10.577   3.281 -0.2213  0.4241 -0.3701
  559MOL0     C75359   6.067  10.593   3.283  0.2489 -0.2233 -0.4997
  559MOL0     O75360   6.023  10.644   3.403 -0.3247  0.2096 -0.3828
  559MOL0     C75361   5.889  10.632   3.435 -0.2126 -0.5359 -0.8457
  559MOL0     C75362   5.854  10.539   3.531 -0.3101  0.6340 -0.2857
  559MOL0     C75363   5.726  10.527   3.582 -0.9731 -0.0135 -0.6023
  559MOL0     C75364   5.625  10.616   3.535 -0.0529 -0.1566 -0.8899
  559MOL0     O75365   5.495  10.597   3.576 -0.0192 -0.4527  0.1352
  559MOL0     C75366   5.397  10.695   3.532  0.1094 -0.1801 -0.3203
  559MOL0     C75367   5.260  10.655   3.584  0.2065  0.5938 -0.5323
  559MOL0     C75368   5.146  10.738   3.548  0.0732 -0.6914  0.3455
  559MOL0     C75369   5.087  10.693   3.417 -0.0903  0.0137 -0.9446
  559MOL0     C75370   4.989  10.576   3.449 -0.5274 -0.1236  0.1799
  559MOL0     C75371   4.913  10.539   3.331 -0.1871  1.3855 -0.8362
  559MOL0     C75372   4.825  10.414   3.367  0.0982 -0.2537 -0.1644
  559MOL0     C75373   4.688  10.424   3.310 -0.1421 -0.6107 -0.8762
  559MOL0    Cl75374   4.680  10.415   3.129 -0.0391 -0.4898  0.2638
  559MOL0     C75375   5.665  10.716   3.447  0.1978 -1.0931  0.7676
  559MOL0     C75376   5.795  10.716   3.393 -0.1941  0.0747  0.1556
  559MOL0     O75377   5.999  10.566   3.185 -0.3701  0.4296 -0.7065
  559MOL0     C75378   6.287  10.529   3.169  0.6738 -0.0714 -0.1525
  559MOL0     C75379   6.428  10.524   3.173 -0.4093  0.1347  0.3000
  559MOL0     N75380   7.066  11.020   3.072 -0.0198 -0.0625  0.4595
  559MOL0     N75381   7.171  11.091   3.087  0.2615 -0.3256 -0.3497
  559MOL0     C75382   7.066  10.455   2.887 -0.2172 -0.1494 -0.1110
  559MOL0     C75383   6.964  10.362   2.916 -0.3930  0.4964  0.2719
  559MOL0     C75384   6.654  10.091   3.073  0.8158  0.1838 -0.4903
  559MOL0     C75385   6.730   9.983   3.120  0.1811 -0.0638 -1.2268
  559MOL0     C75386   6.681   9.854   3.141 -0.5829 -0.3428 -1.3021
  559MOL0     C75387   6.550   9.835   3.133 -0.4103 -0.6727  0.2253
  559MOL0     O75388   6.498   9.711   3.147 -0.6206  0.1436  0.0600
  559MOL0     C75389   6.521   9.644   3.268 -0.2228  0.5715 -0.2172
  559MOL0     C75390   6.473   9.503   3.252 -0.4855  0.7327  0.1599
  559MOL0     C75391   6.517   9.402   3.351  0.2890 -0.0381 -1.0458
  559MOL0     C75392   6.452   9.265   3.336  0.4310 -0.9120  0.6517
  559MOL0     C75393   6.511   9.196   3.211 -0.4460 -0.8890 -0.1314
  559MOL0     C75394   6.559   9.143   3.113  0.0235  0.5321  0.0870
  559MOL0     C75395   6.463   9.937   3.074 -0.6201 -0.2021  0.3364
  559MOL0     C75396   6.512  10.066   3.046  0.1960  0.4260 -0.2191
  559MOL0     C75397   6.414  10.168   2.991 -0.0565  0.1398  0.8453
  559MOL0     H75398   7.051  10.278   3.230  2.2301  0.9564  0.2376
  559MOL0     H75399   7.253  10.434   3.173  0.5018  1.1675 -2.0730
  559MOL0     H75400   7.397  10.633   3.082 -2.4167  2.6147 -0.4983
  559MOL0     H75401   7.413  10.473   3.001 -1.3612 -0.3326 -1.3858
  559MOL0     H75402   7.445  10.755   2.878  0.4049  0.5584  2.7204
  559MOL0     H75403   7.469  10.604   2.787 -2.5415  0.9142 -0.6092
  559MOL0     H75404   7.693  10.665   2.826  0.6090  1.3614  0.6911
  559MOL0     H75405   7.663  10.532   2.930 -0.1784  0.2041 -3.9413
  559MOL0     H75406   7.684  10.644   3.130 -0.6448 -0.1785  0.6270
  559MOL0     H75407   7.803  10.718   3.038  0.1067  0.6267  0.2398
  559MOL0     H75408   7.751  10.910   3.102 -0.1429  1.6275 -0.7772
  559MOL0     H75409   7.656  10.886   2.953  1.3602 -1.1624 -0.7356
  559MOL0     H75410   7.440  10.857   3.073 -1.2095  1.9651  0.3870
  559MOL0     H75411   7.524  10.826   3.225  0.6957 -1.1740 -0.3063
  559MOL0     H75412   7.512  11.092   3.078 -0.2814  2.2957  1.3026
  559MOL0     H75413   7.584  11.051   3.241 -0.2580 -1.4030  0.4977
  559MOL0     H75414   7.359  11.023   3.333 -2.5855 -1.6432 -1.3665
  559MOL0     H75415   7.363  11.171   3.247  0.2898 -0.0881 -0.6536
  559MOL0     H75416   7.242  10.799   3.232  2.5988  2.2359  0.8656
  559MOL0     H75417   6.905  10.821   3.059  2.0637  1.1073 -0.6324
  559MOL0     H75418   7.017  10.699   3.121 -0.9760 -0.7567 -0.4537
  559MOL0     H75419   6.979  10.809   3.362 -0.7136  0.9127  0.7302
  559MOL0     H75420   6.842  10.896   3.293 -1.4022 -0.7474  0.0122
  559MOL0     H75421   6.758  10.715   3.413 -2.5381  1.0347 -1.9231
  559MOL0     H75422   6.886  10.602   3.339  2.2354  1.9772  1.5657
  559MOL0     H75423   6.775  10.596   3.133  2.3126  2.4980 -0.8612
  559MOL0     H75424   6.652  10.721   3.170 -2.6079 -2.1676 -0.3798
  559MOL0     H75425   6.477  10.636   3.491  0.0182  0.9063 -0.4215
  559MOL0     H75426   6.258  10.643   3.492  0.7019 -0.5631  1.4590
  559MOL0     H75427   5.937  10.482   3.572  1.3691  3.0426 -0.1569
  559MOL0     H75428   5.707  10.452   3.658  2.2399 -0.8844 -0.4745
  559MOL0     H75429   5.423  10.794   3.571 -0.4466  0.1788 -0.8504
  559MOL0     H75430   5.382  10.692   3.424 -1.0454 -0.3362 -0.1617
  559MOL0     H75431   5.230  10.550   3.573 -1.7676  0.9519  0.9179
  559MOL0     H75432   5.271  10.672   3.691 -2.5352  1.0109 -0.2675
  559MOL0     H75433   5.077  10.766   3.628  0.2208  1.9404 -0.3546
  559MOL0     H75434   5.192  10.836   3.527 -2.4264  0.6588  0.8440
  559MOL0     H75435   5.165  10.669   3.344  1.2338  1.7115 -0.1541
  559MOL0     H75436   5.027  10.772   3.371  1.1238  1.5814  0.0621
  559MOL0     H75437   4.916  10.619   3.519 -0.9748  2.1877 -1.5889
  559MOL0     H75438   5.038  10.491   3.496  0.1293 -0.5877 -1.2852
  559MOL0     H75439   4.853  10.622   3.294  0.0852  2.0776  0.2429
  559MOL0     H75440   4.987  10.519   3.253 -0.1199 -1.5315 -0.1666
  559MOL0     H75441   4.811  10.408   3.475  2.6021 -0.7397  0.2034
  559MOL0     H75442   4.874  10.318   3.349  1.3521  0.6434 -1.8323
  559MOL0     H75443   4.618  10.358   3.362 -1.6246  1.2951 -0.3247
  559MOL0     H75444   4.650  10.523   3.339  0.3109  0.1459 -2.7031
  559MOL0     H75445   5.598  10.796   3.417  3.5369  1.1119 -1.3836
  559MOL0     H75446   5.819  10.790   3.316 -1.0653 -1.0982 -1.3101
  559MOL0     H75447   6.231  10.516   3.077 -1.0899 -0.1246  0.8788
  559MOL0     H75448   6.470  10.488   3.080  1.2639 -0.3681  1.2117
  559MOL0     H75449   7.059  10.515   2.797 -2.6427 -1.9353 -1.2138
  559MOL0     H75450   6.892  10.323   2.845  0.4212  0.2669 -0.4511
  559MOL0     H75451   6.837   9.988   3.137 -0.1516 -1.4774  2.1569
  559MOL0     H75452   6.747   9.780   3.184 -1.7224 -1.3614 -1.2560
  559MOL0     H75453   6.480   9.698   3.354  1.6670  3.2458 -0.8854
  559MOL0     H75454   6.628   9.638   3.290  0.4538 -0.1502 -3.2484
  559MOL0     H75455   6.498   9.468   3.151 -0.2733 -3.2749  1.4359
  559MOL0     H75456   6.364   9.502   3.240 -0.3707 -0.3085 -1.1094
  559MOL0     H75457   6.484   9.447   3.445 -1.9774  0.4300 -1.9898
  559MOL0     H75458   6.625   9.391   3.339  0.2833  0.0365 -1.1565
  559MOL0     H75459   6.465   9.207   3.428 -2.3835  0.3503  1.9614
  559MOL0     H75460   6.344   9.276   3.326  0.4045  0.3067  1.9829
  559MOL0     H75461   6.607   9.098   3.028 -1.5455  0.3691 -0.7538
  559MOL0     H75462   6.364   9.908   3.042 -0.6553  0.9235 -0.6411
  559MOL0     H75463   6.312  10.144   3.023  0.0826 -0.0578  1.1456
  559MOL0     H75464   6.434  10.270   3.025 -0.9215 -0.0446  1.9759
  559MOL0     H75465   6.415  10.163   2.882  1.3988 -1.1902  0.8857
  560MOL0     O75466   8.724   5.681   8.791 -0.1753  0.3670 -0.3860
  560MOL0     C75467   8.625   5.730   8.737  0.2822  0.4668  0.2078
  560MOL0     O75468   8.612   5.859   8.698  1.1812 -0.1599  0.1336
  560MOL0     C75469   8.726   5.923   8.695 -0.5616  0.1616  0.0295
  560MOL0     C75470   8.758   6.004   8.799 -0.2244  0.1891 -0.1874
  560MOL0     C75471   8.886   6.070   8.798 -0.1535  0.0137 -0.9682
  560MOL0     C75472   8.981   6.056   8.692  0.2656 -0.1768 -0.2119
  560MOL0     O75473   9.100   6.125   8.695  0.1717 -0.6856  0.0620
  560MOL0     C75474   9.198   6.086   8.606 -0.4684  0.7149 -0.1644
  560MOL0     C75475   9.324   6.169   8.623 -0.7734 -0.1803 -0.1088
  560MOL0     C75476   9.427   6.133   8.511 -0.0550 -0.1673  0.1121
  560MOL0     C75477   9.559   6.207   8.542  0.3422  0.3344 -0.3539
  560MOL0     C75478   9.683   6.156   8.467  0.4201  0.4155 -0.4163
  560MOL0     C75479   9.821   6.213   8.518 -0.6595 -0.0897  0.4567
  560MOL0     C75480   9.849   6.351   8.453  0.4722  0.0547  0.3966
  560MOL0     C75481  10.001   6.360   8.429 -0.0663 -0.0058  0.5944
  560MOL0     N75482  10.072   6.419   8.547  0.2870 -0.2149 -1.1774
  560MOL0     C75483  10.169   6.368   8.623 -0.4393 -0.4821 -0.0334
  560MOL0     C75484  10.178   6.446   8.735 -0.5035  0.9096 -0.3145
  560MOL0     C75485  10.272   6.420   8.847  0.1158 -0.2545  0.3479
  560MOL0     C75486  10.404   6.363   8.795  0.2640 -0.1359 -0.2503
  560MOL0     C75487  10.465   6.289   8.913 -0.3154  0.0810 -0.3768
  560MOL0     C75488  10.606   6.231   8.876  0.1245 -0.3357  0.3960
  560MOL0     O75489  10.657   6.140   8.975 -0.7261 -0.4322 -0.5984
  560MOL0     C75490  10.767   6.064   8.948 -0.0596 -0.8664  0.6692
  560MOL0     C75491  10.838   6.077   8.832  0.8213 -0.0797  0.0173
  560MOL0     C75492  10.959   6.017   8.816 -0.2547 -0.1732  0.6014
  560MOL0     C75493  11.014   5.934   8.919  0.5084 -0.5347  0.0980
  560MOL0     C75494  11.151   5.882   8.908  0.0998  0.0990 -0.4266
  560MOL0     O75495  11.187   5.784   8.990 -0.6210 -0.3979  0.6298
  560MOL0     C75496  11.317   5.765   9.005 -0.1277 -0.2569 -0.5249
  560MOL0     C75497  11.408   5.859   9.058  0.3530  0.5735 -0.0771
  560MOL0     C75498  11.539   5.809   9.085  0.3221  0.0551  0.2683
  560MOL0     C75499  11.582   5.671   9.052 -0.3052  0.0636  0.4696
  560MOL0     O75500  11.705   5.628   9.082 -0.6226  0.5156 -0.5526
  560MOL0     C75501  11.767   5.523   9.001  0.8000 -0.4496 -0.6689
  560MOL0     C75502  11.919   5.511   9.040  0.7136 -0.1637 -0.1783
  560MOL0     C75503  11.979   5.387   8.971 -0.4644 -0.2072 -0.2960
  560MOL0     C75504  12.120   5.349   9.022 -0.4094  0.0945  0.6350
  560MOL0     C75505  12.219   5.464   9.021  0.3471 -0.5665 -0.4831
  560MOL0     C75506  12.358   5.441   9.085 -0.5076 -0.5652  0.5002
  560MOL0     C75507  12.446   5.346   8.999  0.1873 -0.5585  0.0280
  560MOL0     C75508  12.598   5.342   9.038  0.0640 -0.0131 -0.1405
  560MOL0    Cl75509  12.710   5.252   8.930  0.0253  0.7291 -0.1607
  560MOL0     C75510  11.483   5.585   8.994  0.6389 -0.1679 -0.4492
  560MOL0     C75511  11.354   5.629   8.979 -0.1100  0.2451 -0.2871
  560MOL0     O75512  11.223   5.951   8.836 -1.2652  0.1629 -0.4239
  560MOL0     C75513  10.932   5.905   9.030  0.2460 -0.1610  0.7234
  560MOL0     C75514  10.817   5.978   9.045  0.0202  0.4418  0.5153
  560MOL0     N75515  10.087   6.541   8.730  0.6999  0.1957  0.0587
  560MOL0     N75516  10.025   6.532   8.617  0.1758 -0.3324  0.3970
  560MOL0     C75517   8.940   5.958   8.594 -0.1645  0.6366  0.1967
  560MOL0     C75518   8.820   5.894   8.588  0.0027  1.0476 -0.4069
  560MOL0     C75519   8.494   5.648   8.724 -0.2818 -0.1209 -0.1952
  560MOL0     C75520   8.375   5.730   8.714  0.0297  0.9190  0.1127
  560MOL0     C75521   8.251   5.673   8.730 -0.2412  0.5596  0.2982
  560MOL0     C75522   8.232   5.532   8.741  0.2854  0.4919 -0.2593
  560MOL0     O75523   8.098   5.497   8.762 -0.4981 -0.6090 -0.4630
  560MOL0     C75524   8.053   5.386   8.690  1.0748 -0.4972 -0.2549
  560MOL0     C75525   7.956   5.300   8.778  0.4727 -0.3903  0.1079
  560MOL0     C75526   8.021   5.245   8.899 -0.3092 -0.6060 -0.1293
  560MOL0     C75527   7.928   5.188   9.003 -0.5314 -1.0546  0.4669
  560MOL0     C75528   7.830   5.085   8.955 -0.0215  0.5361 -0.0209
  560MOL0     C75529   7.749   5.004   8.909  0.6849 -0.4026 -0.1596
  560MOL0     C75530   8.344   5.452   8.753  0.0114  0.5097 -0.1799
  560MOL0     C75531   8.478   5.506   8.745 -0.7523 -0.4870  0.3091
  560MOL0     C75532   8.599   5.414   8.761  0.4653  0.6887  0.4602
  560MOL0     H75533   8.690   6.020   8.883  0.2474  0.0171  0.2329
  560MOL0     H75534   8.907   6.146   8.873  1.1290 -0.3783 -0.9111
  560MOL0     H75535   9.218   5.981   8.628 -0.6605  0.6164 -0.4431
  560MOL0     H75536   9.161   6.098   8.503  1.0305  1.3314 -0.6634
  560MOL0     H75537   9.367   6.144   8.721  0.5177  0.5671 -0.4600
  560MOL0     H75538   9.301   6.275   8.615 -1.3420 -0.3340 -0.5103
  560MOL0     H75539   9.383   6.162   8.415 -0.1303 -3.6228 -1.0722
  560MOL0     H75540   9.435   6.024   8.518  0.0196 -0.0668  2.4610
  560MOL0     H75541   9.551   6.302   8.488  1.4305  0.5936 -0.0805
  560MOL0     H75542   9.573   6.213   8.650 -2.2652  0.5119  0.0454
  560MOL0     H75543   9.671   6.048   8.480  1.4740  0.1192 -1.6978
  560MOL0     H75544   9.673   6.157   8.358 -1.8816 -0.7792 -0.2730
  560MOL0     H75545   9.834   6.224   8.626 -0.4980  0.6342  0.3710
  560MOL0     H75546   9.893   6.133   8.500 -1.5210 -0.8696  0.3861
  560MOL0     H75547   9.806   6.430   8.517  0.3759  0.5674 -0.2915
  560MOL0     H75548   9.797   6.362   8.357 -1.2683 -2.8586  0.8962
  560MOL0     H75549  10.042   6.263   8.399 -0.7729  0.0194 -0.4992
  560MOL0     H75550  10.022   6.420   8.339  0.6997 -3.3370 -1.6305
  560MOL0     H75551  10.215   6.273   8.598  0.1263 -0.7042  1.6715
  560MOL0     H75552  10.291   6.510   8.905  0.9494  1.4474 -2.3929
  560MOL0     H75553  10.220   6.341   8.903 -0.5444  0.3190  0.5508
  560MOL0     H75554  10.399   6.293   8.710 -0.0166  1.3999 -1.5539
  560MOL0     H75555  10.470   6.446   8.769 -0.2249  1.2805  2.6702
  560MOL0     H75556  10.398   6.215   8.957 -1.1526  1.2816  0.4482
  560MOL0     H75557  10.491   6.363   8.990  1.7447  0.3924 -1.3137
  560MOL0     H75558  10.679   6.312   8.869  0.2055 -0.5223 -1.2972
  560MOL0     H75559  10.584   6.191   8.776  1.3323  0.0940 -0.0595
  560MOL0     H75560  10.797   6.131   8.747 -0.0200  2.6252  2.0188
  560MOL0     H75561  11.013   6.045   8.725  0.0911 -0.1386  0.8156
  560MOL0     H75562  11.381   5.963   9.074 -0.4071  0.4705 -0.6440
  560MOL0     H75563  11.604   5.885   9.127  1.3224  0.5145 -1.9293
  560MOL0     H75564  11.710   5.430   9.001 -1.5735  0.9141 -0.4402
  560MOL0     H75565  11.758   5.559   8.898 -0.1903  0.7354 -0.1840
  560MOL0     H75566  11.976   5.600   9.012  0.4714  1.1853  3.1688
  560MOL0     H75567  11.925   5.500   9.149 -2.4004 -1.0242  0.0238
  560MOL0     H75568  11.913   5.301   8.982 -0.4612 -0.1072  0.5418
  560MOL0     H75569  11.994   5.409   8.865  1.3111  2.9883  0.4707
  560MOL0     H75570  12.154   5.276   8.948 -0.4104  1.8902 -1.2217
  560MOL0     H75571  12.114   5.306   9.123 -0.3662  2.1432  1.5753
  560MOL0     H75572  12.177   5.548   9.077  1.4320  0.0849 -0.6191
  560MOL0     H75573  12.239   5.501   8.920 -2.6658  0.7843 -0.7040
  560MOL0     H75574  12.408   5.538   9.087  1.1361 -1.2857 -1.4392
  560MOL0     H75575  12.350   5.396   9.185  0.4661 -2.4448 -0.2066
  560MOL0     H75576  12.435   5.386   8.898  0.3985  2.0129  0.9509
  560MOL0     H75577  12.404   5.245   8.996 -0.3080 -0.3624  0.1773
  560MOL0     H75578  12.637   5.444   9.050  0.0508 -0.1208  0.9686
  560MOL0     H75579  12.598   5.297   9.138  1.0348  1.0338  0.3612
  560MOL0     H75580  11.513   5.482   8.976  0.9299 -0.3609  1.0333
  560MOL0     H75581  11.280   5.551   8.972 -0.7162  0.7590  0.3156
  560MOL0     H75582  10.962   5.830   9.103  0.8144 -1.0695 -0.3928
  560MOL0     H75583  10.757   5.961   9.133  0.4931  1.7480  1.1123
  560MOL0     H75584   9.003   5.942   8.507  0.4107  2.9218  0.1275
  560MOL0     H75585   8.779   5.825   8.514  0.9943  1.6611 -1.5453
  560MOL0     H75586   8.386   5.838   8.710  0.8188  0.8742  0.7774
  560MOL0     H75587   8.162   5.732   8.747 -0.5583 -0.0874  0.9379
  560MOL0     H75588   8.134   5.319   8.659 -0.8404 -1.1791 -4.4555
  560MOL0     H75589   8.001   5.421   8.601  2.1638 -3.4624 -2.2035
  560MOL0     H75590   7.923   5.213   8.721 -0.1910 -0.2878  0.3350
  560MOL0     H75591   7.863   5.351   8.802 -0.9520 -3.1378  0.7963
  560MOL0     H75592   8.089   5.319   8.945 -0.0281 -0.8003 -0.2281
  560MOL0     H75593   8.085   5.161   8.871  1.9326 -0.2328  3.1739
  560MOL0     H75594   7.996   5.146   9.078 -0.7940 -2.0528  0.1567
  560MOL0     H75595   7.869   5.268   9.049 -1.5776 -2.1464  1.0805
  560MOL0     H75596   7.687   4.921   8.881 -2.1485  0.7982  2.0076
  560MOL0     H75597   8.327   5.346   8.768  0.9119  0.2592 -0.8180
  560MOL0     H75598   8.641   5.428   8.862 -0.3026 -2.9003  1.4378
  560MOL0     H75599   8.582   5.307   8.748  1.4173  0.7450 -1.4556
  560MOL0     H75600   8.679   5.431   8.689  1.1024 -3.5567 -0.1217
  561MOL0     O75601   7.025   1.621   5.930 -0.0065  0.8861 -0.4666
  561MOL0     C75602   7.002   1.572   6.038  0.1805  0.3264  0.8004
  561MOL0     O75603   7.082   1.578   6.154  0.3571 -0.4153 -0.2555
  561MOL0     C75604   7.214   1.614   6.137 -0.2373  0.4478 -0.2808
  561MOL0     C75605   7.321   1.522   6.167 -0.3522 -0.6820  0.0365
  561MOL0     C75606   7.456   1.559   6.127 -0.9300  0.5115  0.6745
  561MOL0     C75607   7.477   1.677   6.057 -0.3007  0.3046 -0.4181
  561MOL0     O75608   7.599   1.715   6.001 -0.0126  0.1519 -0.0365
  561MOL0     C75609   7.677   1.624   5.932 -0.3309  0.6896  0.4901
  561MOL0     C75610   7.805   1.581   6.002  0.3939  0.0573  0.1065
  561MOL0     C75611   7.910   1.703   5.996  0.1123  0.2854  0.0160
  561MOL0     C75612   8.056   1.659   5.989  0.2851  0.3543  0.1928
  561MOL0     C75613   8.151   1.771   5.999  0.1560 -0.8007 -0.3310
  561MOL0     C75614   8.293   1.720   5.981 -0.3563  0.3750  0.1608
  561MOL0     C75615   8.384   1.845   5.971  0.3351 -0.5327 -0.0788
  561MOL0     C75616   8.535   1.810   5.962  0.3806 -0.2425 -0.2122
  561MOL0     N75617   8.565   1.772   5.825  0.1657 -0.2461 -0.1290
  561MOL0     C75618   8.545   1.649   5.775  0.8990 -0.5633  0.3393
  561MOL0     C75619   8.588   1.646   5.647 -0.2541  0.6084 -0.4212
  561MOL0     C75620   8.583   1.533   5.550 -0.6048  0.5102 -0.0849
  561MOL0     C75621   8.698   1.427   5.583 -0.3954  0.5397 -0.3473
  561MOL0     C75622   8.722   1.324   5.484  0.2006  0.3413  0.8489
  561MOL0     C75623   8.825   1.214   5.535 -0.6295  0.3207 -0.1641
  561MOL0     O75624   8.958   1.277   5.548 -0.1327 -0.0296  0.4100
  561MOL0     C75625   9.062   1.186   5.576 -0.0939  0.4741  0.6293
  561MOL0     C75626   9.184   1.250   5.581  0.6912 -0.8118 -0.0646
  561MOL0     C75627   9.297   1.185   5.629 -0.0908 -0.0849 -0.4265
  561MOL0     C75628   9.288   1.049   5.673 -0.8354  0.1986  0.3840
  561MOL0     C75629   9.398   0.980   5.743  0.2431  0.4728  0.5703
  561MOL0     O75630   9.479   1.064   5.817 -0.1476  0.2710 -0.5537
  561MOL0     C75631   9.611   1.040   5.860  0.0083  0.2613 -0.5830
  561MOL0     C75632   9.665   1.113   5.966 -0.3040 -0.6031 -0.4727
  561MOL0     C75633   9.802   1.109   5.998  0.9255  0.6988  0.0339
  561MOL0     C75634   9.882   1.010   5.935  0.5389  0.2297 -0.1815
  561MOL0     O75635  10.013   1.003   5.969 -0.3741  0.2801  0.1043
  561MOL0     C75636  10.110   0.967   5.872 -1.6946  0.4854  0.0107
  561MOL0     C75637  10.254   0.974   5.920  0.4106  0.7306  0.0465
  561MOL0     C75638  10.284   1.114   5.975  0.3429 -0.5845  0.6407
  561MOL0     C75639  10.427   1.127   6.033  0.6802 -0.2330  0.6445
  561MOL0     C75640  10.444   1.265   6.103  0.5331 -0.3664 -0.5552
  561MOL0     C75641  10.587   1.269   6.167  0.5943 -0.0132 -0.1792
  561MOL0     C75642  10.610   1.388   6.254  0.7701 -0.3706  0.2263
  561MOL0     C75643  10.750   1.371   6.319 -1.2596  0.1112  0.4778
  561MOL0    Cl75644  10.750   1.235   6.431  0.1836  0.3748 -0.3709
  561MOL0     C75645   9.827   0.921   5.840 -0.3685 -0.0546  0.6931
  561MOL0     C75646   9.694   0.938   5.807 -0.2551  0.4545 -0.1119
  561MOL0     O75647   9.413   0.861   5.726  0.2357 -0.8659  0.4126
  561MOL0     C75648   9.163   0.982   5.670  0.4638 -0.3971 -0.0185
  561MOL0     C75649   9.052   1.055   5.623  0.8076  0.3618  0.9533
  561MOL0     N75650   8.611   1.778   5.617  0.6556 -0.0997  0.1901
  561MOL0     N75651   8.613   1.855   5.727  0.0847  0.9637 -0.5579
  561MOL0     C75652   7.378   1.772   6.049 -0.8584 -0.4529  0.4780
  561MOL0     C75653   7.249   1.737   6.091  0.1872 -0.5929 -0.6316
  561MOL0     C75654   6.866   1.514   6.056  0.4476 -0.8858  0.4293
  561MOL0     C75655   6.793   1.550   6.161 -0.4165  0.4882  0.2136
  561MOL0     C75656   6.670   1.500   6.192 -0.2327  0.1209  0.3484
  561MOL0     C75657   6.617   1.415   6.100  0.2685 -0.0441  0.3282
  561MOL0     O75658   6.494   1.342   6.110  0.1135  0.6766 -0.1885
  561MOL0     C75659   6.393   1.401   6.191 -0.8187  0.0498  0.0102
  561MOL0     C75660   6.264   1.382   6.121  0.0370  0.4229  0.0709
  561MOL0     C75661   6.207   1.237   6.155 -0.2425 -0.6085 -0.1866
  561MOL0     C75662   6.091   1.249   6.252  0.6273 -0.3699  0.4343
  561MOL0     C75663   6.140   1.268   6.390  0.2905 -0.1427 -0.3669
  561MOL0     C75664   6.177   1.283   6.503  0.3959  0.9923  0.5994
  561MOL0     C75665   6.688   1.375   5.981 -0.9095 -0.3306 -0.3990
  561MOL0     C75666   6.815   1.422   5.962  0.4485 -0.5288 -0.1412
  561MOL0     C75667   6.887   1.373   5.830 -0.2837 -0.3703 -0.2949
  561MOL0     H75668   7.305   1.421   6.204  0.3013 -0.6890  0.3152
  561MOL0     H75669   7.546   1.500   6.141  0.5904  2.1494 -1.5565
  561MOL0     H75670   7.620   1.533   5.915  0.0632  0.1266  1.9752
  561MOL0     H75671   7.713   1.667   5.838  1.5651 -1.6415  0.0370
  561MOL0     H75672   7.840   1.487   5.958 -0.2694  0.7117 -1.9546
  561MOL0     H75673   7.785   1.556   6.106 -0.0598  1.4651  0.3796
  561MOL0     H75674   7.888   1.776   6.074  1.8763  2.0198 -1.0198
  561MOL0     H75675   7.895   1.757   5.902  0.0355  0.1913 -0.0260
  561MOL0     H75676   8.071   1.591   6.073 -0.2706  1.5324  1.2879
  561MOL0     H75677   8.071   1.604   5.896  3.6854  2.6790 -0.8207
  561MOL0     H75678   8.130   1.838   5.915  3.4973 -0.1178 -0.7796
  561MOL0     H75679   8.141   1.813   6.099 -1.1525 -0.4231 -0.6037
  561MOL0     H75680   8.327   1.652   6.060  1.5243 -1.0559 -1.7765
  561MOL0     H75681   8.297   1.672   5.883  0.4971 -0.8686  0.7744
  561MOL0     H75682   8.364   1.908   6.059  2.5065  1.7770 -1.1030
  561MOL0     H75683   8.356   1.892   5.876 -0.1762 -2.1054 -0.7308
  561MOL0     H75684   8.606   1.891   5.979  2.2092 -1.6815 -0.6033
  561MOL0     H75685   8.563   1.728   6.030 -1.3092  0.6017  1.5791
  561MOL0     H75686   8.520   1.568   5.843 -1.1730 -0.0088  0.3122
  561MOL0     H75687   8.481   1.493   5.548 -0.6941  0.7588 -1.1221
  561MOL0     H75688   8.616   1.572   5.453  1.1352 -1.3924 -0.3230
  561MOL0     H75689   8.787   1.490   5.592 -0.2303  0.2521  0.0599
  561MOL0     H75690   8.671   1.384   5.680 -2.4140  0.9439 -0.6927
  561MOL0     H75691   8.760   1.385   5.401 -3.1795 -0.1734 -1.2414
  561MOL0     H75692   8.637   1.283   5.429  0.6726  2.4671 -1.6670
  561MOL0     H75693   8.826   1.141   5.453  1.2892 -0.2156  0.3011
  561MOL0     H75694   8.789   1.176   5.631  0.9611  0.0371  0.3385
  561MOL0     H75695   9.196   1.353   5.548  0.1397 -0.7406 -0.0477
  561MOL0     H75696   9.388   1.243   5.635  1.3335 -2.3419  1.7795
  561MOL0     H75697   9.616   1.198   6.013  0.6353 -0.3212  0.0213
  561MOL0     H75698   9.844   1.179   6.070 -3.4573  2.2160  1.4342
  561MOL0     H75699  10.087   0.867   5.833  0.0560 -1.0707  2.6378
  561MOL0     H75700  10.118   1.035   5.787  0.3696 -1.4174 -1.4710
  561MOL0     H75701  10.268   0.892   5.991  2.6391  0.5852 -0.4892
  561MOL0     H75702  10.335   0.957   5.848  0.8293  1.7774  0.2594
  561MOL0     H75703  10.259   1.185   5.895 -0.5296 -2.1735 -0.5660
  561MOL0     H75704  10.226   1.134   6.066  0.8766 -1.1464  1.1096
  561MOL0     H75705  10.498   1.108   5.952 -1.2689 -1.7338 -0.8187
  561MOL0     H75706  10.436   1.046   6.106  4.0304 -0.0820  0.5518
  561MOL0     H75707  10.371   1.284   6.182  1.3396 -0.9537  0.3655
  561MOL0     H75708  10.429   1.351   6.037  1.2374  1.1646  1.1521
  561MOL0     H75709  10.595   1.177   6.225 -0.5661  0.2935  0.5144
  561MOL0     H75710  10.667   1.268   6.093  0.4194 -4.0127 -0.4902
  561MOL0     H75711  10.533   1.395   6.331  2.9123  0.8329  2.3961
  561MOL0     H75712  10.611   1.482   6.198 -2.4405 -0.1456  0.3518
  561MOL0     H75713  10.818   1.347   6.238 -1.7485 -0.7534  0.3159
  561MOL0     H75714  10.786   1.458   6.376  2.5942  0.5668 -2.2368
  561MOL0     H75715   9.889   0.839   5.807 -0.8681 -0.4701  0.7817
  561MOL0     H75716   9.651   0.876   5.729  0.4760 -1.7826  1.1838
  561MOL0     H75717   9.165   0.877   5.696  4.0453 -0.5950 -0.5502
  561MOL0     H75718   8.957   1.003   5.614 -0.5004  1.6404  5.0628
  561MOL0     H75719   7.398   1.872   6.012 -0.9952 -0.8353 -0.6618
  561MOL0     H75720   7.170   1.810   6.083  0.0757 -0.8557 -2.2422
  561MOL0     H75721   6.828   1.626   6.230  1.8716 -1.2934  1.1668
  561MOL0     H75722   6.619   1.522   6.285  1.7069 -0.0943  1.5094
  561MOL0     H75723   6.412   1.508   6.202  2.3297 -0.5637  1.4266
  561MOL0     H75724   6.394   1.349   6.287  1.9897 -2.5470 -1.2861
  561MOL0     H75725   6.281   1.381   6.012 -0.7658 -1.9283 -0.1028
  561MOL0     H75726   6.186   1.457   6.134  0.7038  1.2019 -0.3341
  561MOL0     H75727   6.280   1.162   6.183  1.8115  0.8541 -1.3609
  561MOL0     H75728   6.177   1.213   6.053  1.8402  2.6396 -1.7061
  561MOL0     H75729   6.022   1.326   6.218 -0.1424 -1.6013 -0.9022
  561MOL0     H75730   6.037   1.154   6.256 -0.5347  0.2521 -0.0725
  561MOL0     H75731   6.217   1.299   6.601  3.0399 -0.6894 -0.0992
  561MOL0     H75732   6.646   1.305   5.909  0.6593 -1.3195 -0.4056
  561MOL0     H75733   6.985   1.328   5.849  1.2322  2.4019 -0.9829
  561MOL0     H75734   6.821   1.311   5.769  0.1446 -0.6968 -0.4279
  561MOL0     H75735   6.900   1.469   5.777 -1.4839  0.2921  0.5685
  562MOL0     O75736   5.168  10.706   9.134 -0.3512  0.5887 -0.5193
  562MOL0     C75737   5.132  10.664   9.243 -0.4865 -0.5681 -0.3232
  562MOL0     O75738   5.212  10.593   9.330  0.3514  0.1779  0.2828
  562MOL0     C75739   5.329  10.535   9.285  0.2993 -0.3650  0.4282
  562MOL0     C75740   5.445  10.551   9.362  1.2511 -0.5832  0.7396
  562MOL0     C75741   5.569  10.504   9.316  0.2238 -0.3953 -0.3035
  562MOL0     C75742   5.572  10.427   9.194  0.3044  0.6517  0.8942
  562MOL0     O75743   5.694  10.368   9.156 -0.1968  0.3323 -0.0416
  562MOL0     C75744   5.688  10.273   9.052  0.6997  0.2775  1.4535
  562MOL0     C75745   5.823  10.215   9.015 -0.1671 -1.0517  0.0671
  562MOL0     C75746   5.899  10.317   8.927 -0.7807 -0.7490 -0.4565
  562MOL0     C75747   6.035  10.268   8.870 -0.6620  0.1011 -0.3519
  562MOL0     C75748   6.100  10.377   8.789  0.5281  0.0432 -0.2257
  562MOL0     C75749   6.244  10.337   8.757 -0.5233 -0.7457  0.3004
  562MOL0     C75750   6.300  10.440   8.663  0.2241 -0.1492  0.9748
  562MOL0     C75751   6.447  10.407   8.627 -1.2533  0.5448  0.5848
  562MOL0     N75752   6.495  10.487   8.516 -0.8266  0.3266  0.5771
  562MOL0     C75753   6.607  10.573   8.519 -0.7182  0.1631  0.6889
  562MOL0     C75754   6.604  10.627   8.391 -0.1519  0.2571 -0.2218
  562MOL0     C75755   6.687  10.744   8.363  0.4454 -0.1282 -1.3581
  562MOL0     C75756   6.756  10.741   8.222  0.2449 -0.5295 -0.4330
  562MOL0     C75757   6.857  10.863   8.213 -0.1779  0.3223  0.1272
  562MOL0     C75758   6.978  10.852   8.302 -1.0105 -0.5342 -0.3271
  562MOL0     O75759   7.082  10.948   8.274  0.3989 -0.1298 -0.5102
  562MOL0     C75760   7.200  10.924   8.343  0.1781 -1.3311  0.1105
  562MOL0     C75761   7.241  10.821   8.430 -0.4643 -0.0248 -0.2035
  562MOL0     C75762   7.370  10.811   8.494  0.4371 -0.4340  0.0188
  562MOL0     C75763   7.459  10.920   8.475 -0.0594 -0.3103 -0.5545
  562MOL0     C75764   7.584  10.925   8.543 -1.3940  0.4528 -0.1191
  562MOL0     O75765   7.622  10.804   8.603  0.1096 -0.7235 -0.1380
  562MOL0     C75766   7.738  10.810   8.677 -0.4251  0.1633  0.5046
  562MOL0     C75767   7.736  10.829   8.818 -0.0573  0.9673  1.0630
  562MOL0     C75768   7.860  10.825   8.891 -0.6017  0.0706  0.1522
  562MOL0     C75769   7.986  10.805   8.822  0.2000  0.2114  0.7835
  562MOL0     O75770   8.110  10.819   8.879 -0.0011  0.4583 -0.3273
  562MOL0     C75771   8.117  10.874   9.014  0.4835  0.6512  0.4212
  562MOL0     C75772   8.259  10.918   9.053  0.2179  0.1292  0.1122
  562MOL0     C75773   8.370  10.848   8.978  0.0504 -0.1074  0.3243
  562MOL0     C75774   8.505  10.891   9.033 -0.1668  0.7484  0.2639
  562MOL0     C75775   8.618  10.825   8.957  0.0932 -0.5429  0.0029
  562MOL0     C75776   8.758  10.868   9.023  1.0081  0.6364 -0.3538
  562MOL0     C75777   8.865  10.772   8.972 -0.6722  0.3310 -0.7708
  562MOL0     C75778   8.994  10.785   9.051  0.3070 -0.1133 -0.8102
  562MOL0    Cl75779   8.969  10.710   9.209 -0.4889 -0.2665 -0.0742
  562MOL0     C75780   7.982  10.789   8.682 -0.3408  0.0429  0.6997
  562MOL0     C75781   7.859  10.781   8.613 -0.4663 -0.2137  0.1926
  562MOL0     O75782   7.641  11.033   8.560 -0.0441 -0.2630 -0.6912
  562MOL0     C75783   7.418  11.022   8.382  1.1872 -0.1243 -0.2651
  562MOL0     C75784   7.294  11.024   8.319 -0.1628  0.1799 -0.0632
  562MOL0     N75785   6.486  10.597   8.334  0.2650  0.0531  0.2149
  562MOL0     N75786   6.423  10.504   8.399 -0.7240 -0.1932 -0.2120
  562MOL0     C75787   5.450  10.410   9.125 -0.2602 -0.1857  0.6694
  562MOL0     C75788   5.333  10.470   9.165 -0.3937 -0.2845 -0.4154
  562MOL0     C75789   4.983  10.677   9.284 -0.5407  0.5288 -0.9975
  562MOL0     C75790   4.944  10.627   9.405 -0.1993  0.3146  0.4575
  562MOL0     C75791   4.818  10.632   9.457  0.2298  0.4341  0.1492
  562MOL0     C75792   4.716  10.699   9.386  0.0290 -1.0814  0.6211
  562MOL0     O75793   4.593  10.708   9.437  0.0198 -0.0911 -0.0279
  562MOL0     C75794   4.496  10.794   9.367  0.4016  0.4454  0.1775
  562MOL0     C75795   4.369  10.831   9.442 -1.3183 -0.3338  0.1265
  562MOL0     C75796   4.264  10.915   9.367  0.9052  0.3088 -0.2647
  562MOL0     C75797   4.143  10.948   9.458 -0.1466  1.0762  0.3821
  562MOL0     C75798   4.181  11.019   9.578 -0.0078  0.2773 -0.5264
  562MOL0     C75799   4.205  11.070   9.684  0.9343  0.4318 -0.1996
  562MOL0     C75800   4.751  10.745   9.257  0.2145  0.8469  0.0675
  562MOL0     C75801   4.885  10.742   9.209  0.9094 -0.7627 -0.4267
  562MOL0     C75802   4.908  10.821   9.071  0.1369 -0.1959 -1.0699
  562MOL0     H75803   5.447  10.602   9.458  1.8493 -2.4117  1.7534
  562MOL0     H75804   5.659  10.516   9.377 -1.0781 -0.6293  1.7508
  562MOL0     H75805   5.629  10.190   9.094  2.9841 -2.5992 -0.5898
  562MOL0     H75806   5.645  10.305   8.956  2.7746 -1.6342 -0.2301
  562MOL0     H75807   5.809  10.125   8.956  0.1966 -0.4086 -1.0277
  562MOL0     H75808   5.883  10.184   9.102 -0.1624 -4.3108 -0.9658
  562MOL0     H75809   5.917  10.411   8.980  3.3073 -2.1931  1.0543
  562MOL0     H75810   5.837  10.347   8.841 -0.0202  1.1751 -0.3939
  562MOL0     H75811   6.101  10.234   8.951  0.0572  2.8031  0.2972
  562MOL0     H75812   6.009  10.177   8.816 -1.9198  0.1806  0.0965
  562MOL0     H75813   6.047  10.405   8.697  1.1775 -0.3575 -0.7357
  562MOL0     H75814   6.112  10.469   8.848  1.4618  0.1209 -0.5095
  562MOL0     H75815   6.305  10.323   8.846  3.4271 -1.4589 -2.2309
  562MOL0     H75816   6.240  10.241   8.705 -1.2732 -2.0172  2.6140
  562MOL0     H75817   6.300  10.541   8.707  0.4767  1.5156 -2.5226
  562MOL0     H75818   6.237  10.446   8.574  2.9161  0.8584 -0.9660
  562MOL0     H75819   6.502  10.423   8.720 -1.7575 -1.3196  1.2496
  562MOL0     H75820   6.459  10.303   8.598  0.2488  0.7523  0.3846
  562MOL0     H75821   6.669  10.598   8.605  0.8505 -1.6013  0.1472
  562MOL0     H75822   6.624  10.831   8.380  1.5578  0.3999  0.2121
  562MOL0     H75823   6.764  10.757   8.440  0.2899 -0.7069 -1.0956
  562MOL0     H75824   6.803  10.646   8.198 -1.3296 -0.8030 -2.7875
  562MOL0     H75825   6.679  10.756   8.145 -0.2892  0.6502  0.2895
  562MOL0     H75826   6.801  10.957   8.224 -3.4389 -0.9866 -3.1066
  562MOL0     H75827   6.879  10.854   8.106 -2.1360 -0.1507 -0.2933
  562MOL0     H75828   7.009  10.747   8.301  0.4250 -0.1291 -0.2020
  562MOL0     H75829   6.939  10.866   8.404 -1.9245 -0.5528 -0.6615
  562MOL0     H75830   7.185  10.728   8.434  1.7502 -1.4241 -0.2260
  562MOL0     H75831   7.385  10.725   8.559  0.6119 -0.5744 -0.2069
  562MOL0     H75832   7.638  10.846   8.860 -1.1673 -1.5435 -0.2899
  562MOL0     H75833   7.859  10.854   8.995  1.4147 -2.7632  1.0838
  562MOL0     H75834   8.058  10.966   9.015 -0.2907  0.1764 -0.0133
  562MOL0     H75835   8.084  10.810   9.096  0.7576  2.1479  1.7337
  562MOL0     H75836   8.261  11.024   9.027  0.1540  1.0586  3.4056
  562MOL0     H75837   8.275  10.918   9.161 -0.3238  0.3369  0.1976
  562MOL0     H75838   8.367  10.738   8.984  3.9546 -0.6925 -3.3944
  562MOL0     H75839   8.360  10.882   8.874 -1.0460 -2.4410 -0.4047
  562MOL0     H75840   8.505  10.861   9.138  0.6449 -1.9061 -0.3972
  562MOL0     H75841   8.509  11.000   9.032 -0.5937  0.7675  0.4630
  562MOL0     H75842   8.614  10.842   8.849 -3.4545 -3.2834 -0.4557
  562MOL0     H75843   8.600  10.718   8.971  1.6519 -0.8284  0.0578
  562MOL0     H75844   8.788  10.966   8.984  2.2180 -0.6067 -2.7647
  562MOL0     H75845   8.737  10.864   9.130 -2.3485 -1.4403 -0.9512
  562MOL0     H75846   8.881  10.804   8.869  1.9802  1.4103 -0.1095
  562MOL0     H75847   8.829  10.669   8.973 -2.4409  0.9007  0.2144
  562MOL0     H75848   9.079  10.737   9.001 -0.5831 -2.6768 -0.0332
  562MOL0     H75849   9.008  10.893   9.061 -0.7361 -0.0070 -0.3816
  562MOL0     H75850   8.070  10.769   8.622 -1.6087  2.4366 -2.1683
  562MOL0     H75851   7.872  10.752   8.510  1.9265 -2.1086  0.9507
  562MOL0     H75852   7.475  11.113   8.370  1.2488 -0.2062 -0.6336
  562MOL0     H75853   7.269  11.106   8.251  0.3366 -0.6385 -1.2597
  562MOL0     H75854   5.441  10.354   9.032 -1.5687 -1.8094  1.6948
  562MOL0     H75855   5.242  10.450   9.109  0.1039  0.4791 -1.5387
  562MOL0     H75856   5.024  10.572   9.453  2.0538  1.1959 -2.0384
  562MOL0     H75857   4.798  10.574   9.547  0.3915 -3.3607 -2.0842
  562MOL0     H75858   4.472  10.737   9.277 -2.1724 -1.0914  1.7302
  562MOL0     H75859   4.544  10.889   9.340  0.8640  0.1080 -0.1844
  562MOL0     H75860   4.385  10.877   9.540 -2.0381  1.5700 -0.6008
  562MOL0     H75861   4.326  10.732   9.461  1.3247 -1.3774  1.1266
  562MOL0     H75862   4.234  10.852   9.283  2.0251  0.7599 -1.0156
  562MOL0     H75863   4.299  11.013   9.335  1.0865  0.3231 -0.0321
  562MOL0     H75864   4.079  11.012   9.397  0.2713  0.1129 -1.1198
  562MOL0     H75865   4.089  10.855   9.481  2.7151 -0.6742  0.5548
  562MOL0     H75866   4.219  11.109   9.783 -1.9148 -0.1246  0.5318
  562MOL0     H75867   4.678  10.790   9.190  0.2692 -0.9877 -1.2613
  562MOL0     H75868   4.920  10.747   8.991 -0.1776 -0.6277 -0.7241
  562MOL0     H75869   4.820  10.883   9.053 -1.7618 -2.0961  1.0279
  562MOL0     H75870   4.991  10.891   9.077  1.3688 -1.2283 -4.2339
  563MOL0     O75871   4.502   8.558   2.054 -0.1914 -0.4506 -0.1283
  563MOL0     C75872   4.500   8.675   2.101 -0.5666 -0.2037  0.4025
  563MOL0     O75873   4.595   8.771   2.097 -0.5897  0.7201  0.0104
  563MOL0     C75874   4.712   8.750   2.022 -1.0249  0.1008 -0.5265
  563MOL0     C75875   4.727   8.686   1.900  0.9077  0.1077 -0.1907
  563MOL0     C75876   4.857   8.680   1.837 -0.0702  0.8726 -0.5607
  563MOL0     C75877   4.966   8.734   1.900 -0.0587 -0.1298  0.3819
  563MOL0     O75878   5.078   8.755   1.831  0.0973  0.1231 -0.7564
  563MOL0     C75879   5.162   8.641   1.850 -0.0229  0.2233 -0.3038
  563MOL0     C75880   5.259   8.629   1.738 -0.0525  1.3457 -0.0214
  563MOL0     C75881   5.355   8.738   1.709  0.5810  0.4417  0.0141
  563MOL0     C75882   5.457   8.690   1.595 -0.1108  0.5064  0.3928
  563MOL0     C75883   5.550   8.788   1.537 -0.1135 -0.1275 -0.2804
  563MOL0     C75884   5.652   8.723   1.439 -0.5633 -0.0634  0.3144
  563MOL0     C75885   5.753   8.829   1.383 -0.6386 -0.0994  0.1563
  563MOL0     C75886   5.686   8.961   1.336 -0.1077  0.2603 -0.3818
  563MOL0     N75887   5.778   9.024   1.236 -0.5614 -0.9255 -0.2291
  563MOL0     C75888   5.899   9.081   1.271 -0.1053 -0.3198  0.0557
  563MOL0     C75889   5.936   9.141   1.153  0.0805  0.1671  0.9361
  563MOL0     C75890   6.052   9.224   1.114 -0.1435 -0.9480 -0.0995
  563MOL0     C75891   6.132   9.171   0.989  0.0057 -0.6901  0.0014
  563MOL0     C75892   6.241   9.279   0.963 -0.4090  1.3671  0.5521
  563MOL0     C75893   6.330   9.238   0.847  0.5408 -0.6594  0.1160
  563MOL0     O75894   6.437   9.336   0.834  0.0570 -0.1982  0.2763
  563MOL0     C75895   6.524   9.323   0.730  0.6807 -0.5261  0.5007
  563MOL0     C75896   6.617   9.430   0.714 -0.2333  1.0972 -0.2074
  563MOL0     C75897   6.703   9.432   0.608 -0.6666 -0.2897  0.6923
  563MOL0     C75898   6.708   9.314   0.523 -0.3431  0.4573  0.4611
  563MOL0     C75899   6.805   9.313   0.414 -0.5770 -0.5899 -1.0631
  563MOL0     O75900   6.926   9.371   0.460  0.1222 -0.3016 -0.1884
  563MOL0     C75901   7.022   9.388   0.371 -0.4052 -0.5214  0.0362
  563MOL0     C75902   7.010   9.481   0.266 -0.2245  0.7339 -0.2887
  563MOL0     C75903   7.117   9.496   0.177  0.1445  1.0292  0.2387
  563MOL0     C75904   7.239   9.428   0.193  0.0395 -0.1507  0.3523
  563MOL0     O75905   7.352   9.455   0.119  0.5768 -0.2786  0.4598
  563MOL0     C75906   7.341   9.500  -0.012 -0.0039  0.4451 -0.4808
  563MOL0     C75907   7.464   9.469  -0.091  0.4004 -0.2719 -0.0528
  563MOL0     C75908   7.456   9.530  -0.228 -0.1197 -0.1053 -0.7473
  563MOL0     C75909   7.590   9.523  -0.305 -0.3394  0.4593 -0.3571
  563MOL0     C75910   7.684   9.638  -0.263 -0.4888 -0.2295 -1.0857
  563MOL0     C75911   7.819   9.625  -0.341  0.3943  0.0807  0.2301
  563MOL0     C75912   7.912   9.502  -0.311  0.0873 -0.0687 -0.0590
  563MOL0     C75913   8.052   9.530  -0.381  0.0697  0.3391  0.7301
  563MOL0    Cl75914   8.054   9.522  -0.555  0.2004 -0.5753  0.0147
  563MOL0     C75915   7.253   9.341   0.290 -0.5841 -0.4911 -0.9149
  563MOL0     C75916   7.153   9.330   0.387  0.7053  1.0010 -0.1368
  563MOL0     O75917   6.795   9.236   0.320  0.0831  0.5370 -0.2891
  563MOL0     C75918   6.617   9.211   0.537 -0.4999  0.8324  0.2467
  563MOL0     C75919   6.518   9.214   0.633  0.4806  0.1710  0.3671
  563MOL0     N75920   5.850   9.101   1.053  0.4531 -0.7375 -0.2623
  563MOL0     N75921   5.755   9.035   1.106 -0.4448  0.2943  0.6456
  563MOL0     C75922   4.954   8.798   2.022  0.3689 -0.7768  0.6780
  563MOL0     C75923   4.827   8.806   2.083  0.7410 -0.2863  0.4475
  563MOL0     C75924   4.370   8.717   2.158 -0.2157 -0.3918  0.3735
  563MOL0     C75925   4.381   8.832   2.238  0.5018  0.8013 -0.8099
  563MOL0     C75926   4.263   8.881   2.294  0.3965 -0.0379 -0.0936
  563MOL0     C75927   4.139   8.823   2.282  0.3733  0.4670 -0.3660
  563MOL0     O75928   4.036   8.895   2.334 -0.2116 -0.0965 -0.4579
  563MOL0     C75929   3.895   8.860   2.328 -0.4724 -0.1104  0.2151
  563MOL0     C75930   3.825   8.947   2.431  0.1397  0.0999  0.3406
  563MOL0     C75931   3.817   9.097   2.393  0.5042  0.0160 -0.0953
  563MOL0     C75932   3.769   9.185   2.504  0.0575  0.1429 -0.8201
  563MOL0     C75933   3.851   9.173   2.620  1.1546 -0.0433 -0.1005
  563MOL0     C75934   3.925   9.176   2.719 -0.1868  0.4433  0.1942
  563MOL0     C75935   4.124   8.706   2.210 -0.3921 -0.2297  0.2208
  563MOL0     C75936   4.242   8.658   2.142  0.2243  0.3717 -0.3848
  563MOL0     C75937   4.218   8.538   2.066 -0.0590 -0.2607  0.4015
  563MOL0     H75938   4.646   8.644   1.843 -0.2883  4.1976 -1.8533
  563MOL0     H75939   4.847   8.628   1.743 -3.2282 -1.2216  0.7353
  563MOL0     H75940   5.223   8.660   1.939 -0.0301 -0.6281 -0.1067
  563MOL0     H75941   5.108   8.547   1.865  1.2291 -0.6442 -1.0735
  563MOL0     H75942   5.198   8.606   1.650 -1.8444  2.1529  0.9593
  563MOL0     H75943   5.307   8.535   1.768  0.4133  1.8073  0.7256
  563MOL0     H75944   5.400   8.785   1.797 -1.7723  0.6699  1.1630
  563MOL0     H75945   5.290   8.818   1.675  0.1102  0.9667  2.0201
  563MOL0     H75946   5.516   8.608   1.637  0.1495  0.3534 -0.2692
  563MOL0     H75947   5.408   8.630   1.517  1.6414  0.0456 -0.3882
  563MOL0     H75948   5.482   8.859   1.490 -1.9563 -1.0665  0.8552
  563MOL0     H75949   5.595   8.835   1.625 -2.2165  0.9334  0.2931
  563MOL0     H75950   5.712   8.645   1.487  2.3134  1.4441 -0.5970
  563MOL0     H75951   5.600   8.675   1.356  2.0134  1.7513 -2.5553
  563MOL0     H75952   5.805   8.786   1.297 -0.7016  0.9790 -0.4371
  563MOL0     H75953   5.840   8.854   1.446 -1.7123 -0.8923  2.0312
  563MOL0     H75954   5.583   8.945   1.303  0.1495  1.7351 -2.0386
  563MOL0     H75955   5.677   9.025   1.424  1.7153 -0.2321  0.2072
  563MOL0     H75956   5.958   9.096   1.361  2.7556 -2.3347 -1.3299
  563MOL0     H75957   6.024   9.328   1.094  0.6260 -0.7480 -0.1388
  563MOL0     H75958   6.123   9.231   1.197  0.5044 -1.2742 -0.6200
  563MOL0     H75959   6.157   9.066   1.004  0.0880 -0.8332 -1.1088
  563MOL0     H75960   6.059   9.171   0.908 -0.5717 -1.1472  0.5096
  563MOL0     H75961   6.303   9.286   1.052  0.8674 -2.6906  0.1971
  563MOL0     H75962   6.182   9.369   0.945  1.1574  2.3949  0.3636
  563MOL0     H75963   6.268   9.246   0.757  1.6828  0.7979 -0.5830
  563MOL0     H75964   6.361   9.134   0.861 -2.1491 -1.7745 -1.5333
  563MOL0     H75965   6.624   9.503   0.794  0.7580 -0.7179  1.4887
  563MOL0     H75966   6.781   9.507   0.600 -2.3148  1.2556 -2.6185
  563MOL0     H75967   6.923   9.547   0.263 -0.1154  1.0135  1.7613
  563MOL0     H75968   7.109   9.570   0.098 -0.0336 -1.5178 -2.3029
  563MOL0     H75969   7.256   9.468  -0.073 -1.1004  0.3991  1.0257
  563MOL0     H75970   7.342   9.609  -0.007  1.8916  0.4445  4.3890
  563MOL0     H75971   7.550   9.514  -0.040  0.4395  1.6982 -1.7377
  563MOL0     H75972   7.463   9.360  -0.087 -2.0927 -0.3331 -0.9375
  563MOL0     H75973   7.395   9.470  -0.296 -0.7156  0.9664 -1.1689
  563MOL0     H75974   7.418   9.632  -0.219  0.9334  0.2616 -0.2229
  563MOL0     H75975   7.573   9.537  -0.412 -0.3070 -0.5373 -0.5021
  563MOL0     H75976   7.637   9.427  -0.279 -0.3898  0.1498 -1.3970
  563MOL0     H75977   7.708   9.636  -0.156  1.6118 -2.1541 -1.4984
  563MOL0     H75978   7.628   9.729  -0.285 -0.9401  0.2347  1.7158
  563MOL0     H75979   7.796   9.620  -0.448 -1.1933  2.3968  0.3756
  563MOL0     H75980   7.877   9.716  -0.328 -0.4588  0.6623  0.0761
  563MOL0     H75981   7.876   9.405  -0.346  3.9756 -1.6703 -0.1268
  563MOL0     H75982   7.935   9.490  -0.205  0.5679 -0.1254 -0.1678
  563MOL0     H75983   8.083   9.630  -0.351 -0.3063  0.1195  1.8693
  563MOL0     H75984   8.134   9.465  -0.347 -0.2261  0.3156  1.4133
  563MOL0     H75985   7.347   9.288   0.301  0.8045  1.5723 -2.0045
  563MOL0     H75986   7.166   9.266   0.474  0.9255 -3.8961 -3.3739
  563MOL0     H75987   6.622   9.128   0.468  0.4640  1.4749 -0.4776
  563MOL0     H75988   6.448   9.131   0.634 -1.5474  1.8193  1.6649
  563MOL0     H75989   5.037   8.855   2.063 -1.3708  0.8892  2.0348
  563MOL0     H75990   4.821   8.856   2.179  1.0511 -1.7363  1.2454
  563MOL0     H75991   4.476   8.879   2.262 -0.2708  2.2359 -0.4357
  563MOL0     H75992   4.273   8.968   2.358 -0.5592 -1.6222  2.3756
  563MOL0     H75993   3.884   8.755   2.356 -1.3450  0.0786  0.6066
  563MOL0     H75994   3.852   8.891   2.232  1.0649  0.0561 -0.4544
  563MOL0     H75995   3.884   8.920   2.518 -2.4804 -3.4541  1.2548
  563MOL0     H75996   3.722   8.911   2.443 -0.4423  1.1695 -1.0586
  563MOL0     H75997   3.740   9.099   2.314  0.0335 -1.4203  0.3021
  563MOL0     H75998   3.922   9.119   2.372  1.4759 -3.3462  0.6017
  563MOL0     H75999   3.760   9.290   2.475  2.1825  1.0026  1.2677
  563MOL0     H76000   3.666   9.161   2.533  0.3069 -2.5657 -1.8849
  563MOL0     H76001   3.975   9.169   2.813  0.6065  0.3497 -0.2288
  563MOL0     H76002   4.029   8.655   2.195  0.2345 -0.8701 -1.7443
  563MOL0     H76003   4.116   8.506   2.045 -0.0236 -0.0740 -0.0601
  563MOL0     H76004   4.266   8.538   1.968  3.0927  3.1666  1.6809
  563MOL0     H76005   4.269   8.459   2.122  0.3204 -0.5113 -0.2934
  564MOL0     O76006   5.537   7.579   3.380 -0.3693 -0.1413  0.2220
  564MOL0     C76007   5.551   7.630   3.273 -0.3239 -0.5667 -0.8686
  564MOL0     O76008   5.669   7.681   3.221 -0.2384  0.3688  0.6130
  564MOL0     C76009   5.774   7.702   3.302 -0.5474  0.3263  0.0526
  564MOL0     C76010   5.838   7.826   3.311  0.1840 -0.3552 -0.5583
  564MOL0     C76011   5.961   7.843   3.381 -0.2037  0.4008 -0.4819
  564MOL0     C76012   6.022   7.742   3.456  0.1434  0.5119  0.1775
  564MOL0     O76013   6.129   7.765   3.539 -0.1698 -0.2800  0.6700
  564MOL0     C76014   6.170   7.684   3.646  0.2170 -0.0557  0.2758
  564MOL0     C76015   6.297   7.735   3.710  0.2018 -0.0549  0.2307
  564MOL0     C76016   6.266   7.874   3.776  0.2031  0.3128 -0.1116
  564MOL0     C76017   6.391   7.932   3.848  0.2551 -0.6696  0.4411
  564MOL0     C76018   6.353   8.035   3.955  0.3625 -0.3396  0.8319
  564MOL0     C76019   6.483   8.082   4.021  0.0890  0.9292  0.4637
  564MOL0     C76020   6.453   8.181   4.136  0.1788 -0.4812  0.3292
  564MOL0     C76021   6.399   8.322   4.086 -0.4507 -0.3048 -0.6579
  564MOL0     N76022   6.506   8.418   4.096 -0.3103  0.2380 -0.2708
  564MOL0     C76023   6.599   8.444   4.001  1.1073  0.8494  0.5220
  564MOL0     C76024   6.666   8.560   4.046 -0.7994  0.5197  0.2924
  564MOL0     C76025   6.778   8.628   3.985 -0.3891  0.6424 -0.4132
  564MOL0     C76026   6.739   8.773   3.947  0.4530  0.1279  0.1754
  564MOL0     C76027   6.818   8.825   3.831  0.0463  0.2783  0.5490
  564MOL0     C76028   6.968   8.785   3.844 -0.1089 -0.3534 -0.5619
  564MOL0     O76029   7.022   8.804   3.977 -0.4114  0.4708  0.2832
  564MOL0     C76030   7.160   8.784   3.981  0.4895 -0.1175  0.6304
  564MOL0     C76031   7.246   8.722   3.881  0.1173 -0.6180 -0.4914
  564MOL0     C76032   7.384   8.709   3.909 -0.7720 -1.8457  0.9681
  564MOL0     C76033   7.436   8.744   4.033  0.0577  0.3304 -0.5150
  564MOL0     C76034   7.577   8.723   4.071 -0.4965 -0.2355  0.4396
  564MOL0     O76035   7.668   8.694   3.976  0.5521  0.1613  0.0162
  564MOL0     C76036   7.797   8.690   4.005 -0.0292  0.0839 -0.0504
  564MOL0     C76037   7.880   8.792   3.969 -0.3097  0.1798 -0.0715
  564MOL0     C76038   8.020   8.788   3.984 -0.6124  0.9386  0.9870
  564MOL0     C76039   8.078   8.664   4.034 -0.7023 -0.2696 -0.0019
  564MOL0     O76040   8.214   8.657   4.039 -0.6683  0.2262 -0.3011
  564MOL0     C76041   8.274   8.532   4.084 -0.1793 -0.3504 -0.4349
  564MOL0     C76042   8.431   8.522   4.082  0.6619  0.5944 -0.5499
  564MOL0     C76043   8.468   8.531   3.937  0.3647  0.8826 -0.0435
  564MOL0     C76044   8.625   8.528   3.921  0.2241 -0.7853  0.0357
  564MOL0     C76045   8.649   8.537   3.772 -0.0807  0.1158  0.2426
  564MOL0     C76046   8.804   8.533   3.752 -0.1841  0.0882 -0.1401
  564MOL0     C76047   8.825   8.575   3.608 -0.0328  0.3615 -0.4750
  564MOL0     C76048   8.975   8.581   3.575 -0.0856 -0.3840  0.5032
  564MOL0    Cl76049   9.047   8.413   3.573  0.0692 -0.1547 -0.4530
  564MOL0     C76050   7.992   8.567   4.078  0.3511  0.2865  0.4406
  564MOL0     C76051   7.849   8.576   4.064 -0.4788 -0.7889  0.4908
  564MOL0     O76052   7.608   8.743   4.190  0.4084  0.4845 -0.4324
  564MOL0     C76053   7.352   8.803   4.130  0.3955 -0.5637  0.3728
  564MOL0     C76054   7.219   8.816   4.106 -0.1684 -0.2124  0.1736
  564MOL0     N76055   6.607   8.597   4.162 -0.8412 -0.8709 -0.9845
  564MOL0     N76056   6.514   8.512   4.194  0.2519 -0.6664  0.3819
  564MOL0     C76057   5.954   7.620   3.447  0.3480 -0.5492  0.4371
  564MOL0     C76058   5.842   7.595   3.370  0.6172 -0.6288  0.0420
  564MOL0     C76059   5.433   7.645   3.193  0.1113 -0.6151 -0.0769
  564MOL0     C76060   5.410   7.770   3.121 -0.0753  0.2242 -0.0086
  564MOL0     C76061   5.297   7.796   3.043  0.6251 -0.0876  0.2638
  564MOL0     C76062   5.198   7.695   3.035  0.0589 -0.4004  0.3584
  564MOL0     O76063   5.091   7.719   2.949  0.6735 -0.1931  0.2949
  564MOL0     C76064   4.962   7.706   3.013 -0.7240  0.6333 -0.4607
  564MOL0     C76065   4.844   7.791   2.954 -0.0785  0.3019 -0.4474
  564MOL0     C76066   4.721   7.758   3.037  0.7251  0.5238 -0.2234
  564MOL0     C76067   4.586   7.774   2.961 -0.5022 -0.5965  0.1304
  564MOL0     C76068   4.461   7.725   3.033 -0.8710 -0.7111  0.9187
  564MOL0     C76069   4.361   7.699   3.096 -0.3961 -0.4415 -0.4331
  564MOL0     C76070   5.218   7.578   3.109 -0.2554  0.4181 -0.2245
  564MOL0     C76071   5.331   7.546   3.189  0.4982  0.0867  0.1214
  564MOL0     C76072   5.330   7.411   3.267 -0.0477  0.1343 -0.2301
  564MOL0     H76073   5.790   7.912   3.265 -1.0099 -1.3204 -1.2030
  564MOL0     H76074   6.006   7.942   3.386  0.1526  0.2560 -0.8070
  564MOL0     H76075   6.082   7.653   3.704 -0.6901  2.1911  0.1945
  564MOL0     H76076   6.206   7.590   3.604  2.3195  0.2544  1.2549
  564MOL0     H76077   6.389   7.745   3.652  2.5978 -0.1728  3.7486
  564MOL0     H76078   6.327   7.664   3.787 -0.2171 -1.5239 -0.9085
  564MOL0     H76079   6.185   7.854   3.847 -0.1101 -1.0068 -0.8020
  564MOL0     H76080   6.216   7.945   3.709  0.4149  0.7113  0.1459
  564MOL0     H76081   6.453   7.860   3.902  0.2220 -0.2438  1.0571
  564MOL0     H76082   6.459   7.979   3.776  2.0090 -0.2603  2.2494
  564MOL0     H76083   6.299   8.117   3.907 -0.3118  0.2220  2.4742
  564MOL0     H76084   6.301   7.996   4.042 -1.2453  2.2181  1.1319
  564MOL0     H76085   6.532   7.993   4.061  1.0930  0.8145 -0.9699
  564MOL0     H76086   6.555   8.121   3.949  0.7783 -1.5466 -0.2816
  564MOL0     H76087   6.551   8.198   4.180  0.9183  1.3974 -1.8284
  564MOL0     H76088   6.381   8.137   4.205  0.8955 -0.0841  1.3444
  564MOL0     H76089   6.367   8.312   3.982 -0.3134  2.6923 -1.0728
  564MOL0     H76090   6.315   8.362   4.143 -0.3737 -0.0295 -0.7365
  564MOL0     H76091   6.620   8.385   3.912  4.0581 -0.9195  2.2442
  564MOL0     H76092   6.859   8.621   4.059  1.3012  1.0506 -2.1575
  564MOL0     H76093   6.802   8.578   3.891 -2.9148  1.9647 -1.8793
  564MOL0     H76094   6.632   8.788   3.929  0.0990 -1.7707  0.4941
  564MOL0     H76095   6.752   8.836   4.035  1.2849 -0.0294  0.1753
  564MOL0     H76096   6.815   8.935   3.830  2.4081  0.4571 -1.8577
  564MOL0     H76097   6.776   8.789   3.736 -1.4296 -0.4137  1.4333
  564MOL0     H76098   7.025   8.845   3.772  1.8949 -0.5807  0.7580
  564MOL0     H76099   6.985   8.679   3.821 -0.5929 -1.3083  2.9448
  564MOL0     H76100   7.215   8.687   3.784 -0.8819 -0.4997 -0.2265
  564MOL0     H76101   7.444   8.663   3.831  0.4994 -1.3258  1.6196
  564MOL0     H76102   7.836   8.884   3.932  0.1993  0.6086  0.3749
  564MOL0     H76103   8.078   8.875   3.954  2.0790 -0.1341  2.6324
  564MOL0     H76104   8.243   8.516   4.188  3.2854 -2.3129  0.4503
  564MOL0     H76105   8.227   8.450   4.029 -1.1767  0.2431 -0.5020
  564MOL0     H76106   8.484   8.594   4.145 -0.6734  1.1045  0.0118
  564MOL0     H76107   8.458   8.429   4.132  2.7603  1.7930  0.7209
  564MOL0     H76108   8.421   8.446   3.886  2.8095  0.1806 -1.2583
  564MOL0     H76109   8.428   8.625   3.898  0.9169  0.6647 -1.1751
  564MOL0     H76110   8.672   8.438   3.962  0.1786 -0.4133  0.9284
  564MOL0     H76111   8.671   8.608   3.979 -0.1942 -1.7384  1.7463
  564MOL0     H76112   8.606   8.628   3.729 -1.0306  0.2006  1.3275
  564MOL0     H76113   8.600   8.455   3.718  0.5945  0.2903 -0.6570
  564MOL0     H76114   8.851   8.612   3.810 -0.2761 -1.0856  1.6243
  564MOL0     H76115   8.843   8.432   3.767 -2.2801 -0.8278 -0.5294
  564MOL0     H76116   8.791   8.676   3.583 -1.2277  1.2224  3.8610
  564MOL0     H76117   8.783   8.508   3.533  1.0650 -0.0071 -0.7757
  564MOL0     H76118   8.988   8.640   3.484  1.6514  2.5022  2.4460
  564MOL0     H76119   9.019   8.634   3.661  1.9350  0.6086 -1.0617
  564MOL0     H76120   8.018   8.481   4.139  0.3945 -0.8557 -1.1272
  564MOL0     H76121   7.792   8.491   4.099 -0.1344  0.4447  4.5411
  564MOL0     H76122   7.386   8.829   4.229 -0.4507 -0.5122  0.6553
  564MOL0     H76123   7.150   8.863   4.176  0.2343 -0.1357  0.5254
  564MOL0     H76124   5.996   7.536   3.501 -2.0032 -0.9108  1.8941
  564MOL0     H76125   5.801   7.495   3.356 -1.1147  0.0525  0.0109
  564MOL0     H76126   5.489   7.845   3.119 -0.6892  0.8740 -0.1278
  564MOL0     H76127   5.287   7.885   2.982 -1.1238 -1.4531 -1.6103
  564MOL0     H76128   4.973   7.729   3.120 -0.1375 -0.0574 -0.3606
  564MOL0     H76129   4.943   7.599   3.013  1.6097  0.1094  1.6932
  564MOL0     H76130   4.840   7.749   2.853  1.3006 -1.3884  0.1415
  564MOL0     H76131   4.867   7.898   2.960 -0.5114  0.3373  0.8450
  564MOL0     H76132   4.705   7.826   3.122  0.4937  1.6133 -1.1232
  564MOL0     H76133   4.739   7.659   3.079  1.4284  1.4625  1.8626
  564MOL0     H76134   4.577   7.882   2.947 -1.2558 -0.7371 -0.5334
  564MOL0     H76135   4.595   7.727   2.863  0.5096 -2.3164  1.0068
  564MOL0     H76136   4.272   7.687   3.156 -0.3577 -2.2361 -0.6758
  564MOL0     H76137   5.144   7.504   3.081  2.3707 -2.1503 -0.7598
  564MOL0     H76138   5.413   7.343   3.245 -1.4432 -1.7723  0.1456
  564MOL0     H76139   5.338   7.426   3.376 -0.7513 -1.3359  0.0428
  564MOL0     H76140   5.245   7.348   3.241  1.1830 -0.6689 -2.5920
  565MOL0     O76141   4.846   9.039   0.457  0.5224  0.8809 -0.4149
  565MOL0     C76142   4.745   9.109   0.450  0.5041 -0.2325  0.0469
  565MOL0     O76143   4.741   9.244   0.479  0.3438 -0.0581  0.7422
  565MOL0     C76144   4.855   9.316   0.487 -0.2657  0.0031  0.4559
  565MOL0     C76145   4.930   9.344   0.379 -0.4307 -0.3618  0.5366
  565MOL0     C76146   5.059   9.396   0.388 -0.3262  0.6479  0.6562
  565MOL0     C76147   5.103   9.447   0.514 -0.8126  0.5958  0.2649
  565MOL0     O76148   5.220   9.512   0.503 -0.4971  0.1857 -0.0334
  565MOL0     C76149   5.259   9.604   0.609 -0.4573  0.0211  0.2607
  565MOL0     C76150   5.387   9.554   0.674  0.3432 -0.1861  0.0882
  565MOL0     C76151   5.500   9.553   0.577  0.6978 -0.1858 -0.1730
  565MOL0     C76152   5.554   9.697   0.572  0.8585  0.0529 -0.1180
  565MOL0     C76153   5.692   9.717   0.529  0.1779  0.9362  0.2377
  565MOL0     C76154   5.722   9.866   0.537 -0.4492  0.2532 -0.5591
  565MOL0     C76155   5.870   9.901   0.523  0.5533 -0.4550  1.1714
  565MOL0     C76156   5.883  10.052   0.538  0.3176 -0.8256  0.5782
  565MOL0     N76157   6.023  10.086   0.514  0.1447 -0.1342  0.6922
  565MOL0     C76158   6.131  10.076   0.601  0.5177 -1.1571  0.3104
  565MOL0     C76159   6.240  10.113   0.536  0.2475 -0.2094  1.0105
  565MOL0     C76160   6.378  10.097   0.587 -0.4843 -0.1495 -0.2151
  565MOL0     C76161   6.450  10.229   0.620 -0.1033 -0.5383 -0.0904
  565MOL0     C76162   6.495  10.298   0.493 -0.5669 -0.0165  0.4298
  565MOL0     C76163   6.591  10.411   0.535 -0.3703  0.4912 -0.4897
  565MOL0     O76164   6.621  10.480   0.419 -0.0198 -0.6600 -0.0398
  565MOL0     C76165   6.688  10.601   0.422  0.5273  0.6531  0.1133
  565MOL0     C76166   6.708  10.653   0.295 -0.0683 -0.2765  0.0094
  565MOL0     C76167   6.782  10.771   0.290  0.0844  0.0313 -0.1570
  565MOL0     C76168   6.825  10.840   0.409 -0.3489 -0.0978  0.4445
  565MOL0     C76169   6.893  10.968   0.401  0.0408 -0.7803  0.7836
  565MOL0     O76170   6.954  11.016   0.510  0.2027 -0.3073 -0.3623
  565MOL0     C76171   7.035  11.121   0.502 -0.4115 -0.5251 -0.5044
  565MOL0     C76172   7.144  11.112   0.414  0.7026 -0.0187 -0.4965
  565MOL0     C76173   7.247  11.208   0.417  0.4474  0.1217  0.0407
  565MOL0     C76174   7.244  11.308   0.514 -0.4190  0.3875 -0.1608
  565MOL0     O76175   7.357  11.388   0.521  0.4517  0.9449  0.5585
  565MOL0     C76176   7.315  11.525   0.494  0.3253 -0.1022 -0.2818
  565MOL0     C76177   7.274  11.538   0.347  0.3897 -0.5052  1.0922
  565MOL0     C76178   7.230  11.684   0.319  0.4796 -0.4770  0.3660
  565MOL0     C76179   7.099  11.724   0.374  0.0746 -0.3113  0.0738
  565MOL0     C76180   7.058  11.876   0.365  0.0053  0.4865  0.2127
  565MOL0     C76181   7.147  11.959   0.462 -0.2004 -0.1877  0.1155
  565MOL0     C76182   7.156  12.096   0.399  0.2627 -0.9526 -0.1814
  565MOL0     C76183   7.246  12.192   0.481  0.7913  0.3723  0.3130
  565MOL0    Cl76184   7.421  12.157   0.474 -0.0277  0.4882  0.0767
  565MOL0     C76185   7.146  11.306   0.614 -0.3277  0.4113  0.2034
  565MOL0     C76186   7.039  11.216   0.603  0.3584 -1.3732 -0.0707
  565MOL0     O76187   6.892  11.031   0.293  0.8010  0.2188  0.1340
  565MOL0     C76188   6.804  10.783   0.538 -0.1197 -0.0675  0.3373
  565MOL0     C76189   6.722  10.674   0.542 -0.4298  0.4074  0.6189
  565MOL0     N76190   6.201  10.143   0.406 -0.1908 -0.0567  0.0623
  565MOL0     N76191   6.077  10.128   0.394  0.2850 -0.6793  0.3838
  565MOL0     C76192   5.027   9.417   0.625  0.4077 -0.1558  0.6213
  565MOL0     C76193   4.905   9.348   0.609 -0.3774  0.1377  0.3777
  565MOL0     C76194   4.628   9.041   0.408  1.0371 -0.3663  0.5408
  565MOL0     C76195   4.631   8.967   0.289  0.1971  0.6847 -0.6067
  565MOL0     C76196   4.524   8.906   0.238  0.2885 -0.5575 -0.3858
  565MOL0     C76197   4.402   8.910   0.310 -0.0774 -0.5343 -1.1148
  565MOL0     O76198   4.299   8.842   0.245 -0.2700 -0.2586 -0.8461
  565MOL0     C76199   4.161   8.856   0.294 -0.7549  0.9968 -0.1122
  565MOL0     C76200   4.135   8.755   0.401 -0.2019 -0.5227 -0.1828
  565MOL0     C76201   4.134   8.610   0.351 -1.0458 -0.8648  0.5689
  565MOL0     C76202   4.074   8.517   0.458 -0.2812 -0.4830  1.1644
  565MOL0     C76203   3.929   8.542   0.465 -0.3454 -0.4895  0.9113
  565MOL0     C76204   3.808   8.553   0.466 -0.1521  0.2006 -0.1788
  565MOL0     C76205   4.386   8.993   0.422  0.3544  0.4406 -0.1308
  565MOL0     C76206   4.500   9.057   0.474 -0.3532  0.0422  0.1851
  565MOL0     C76207   4.484   9.140   0.603 -0.5327 -0.4927  0.2796
  565MOL0     H76208   4.886   9.313   0.285  2.3026 -0.1422 -0.9139
  565MOL0     H76209   5.130   9.412   0.308 -2.1889  1.5648 -0.9052
  565MOL0     H76210   5.271   9.697   0.553  2.8725 -1.2445 -1.3593
  565MOL0     H76211   5.184   9.626   0.686  0.0048  3.2693 -0.0460
  565MOL0     H76212   5.365   9.454   0.712  0.6316 -0.1328  0.4034
  565MOL0     H76213   5.412   9.618   0.760  0.9859 -3.2989  2.4012
  565MOL0     H76214   5.467   9.528   0.475  2.5513 -0.3064 -0.7699
  565MOL0     H76215   5.574   9.481   0.611 -0.7771 -2.7705 -2.0416
  565MOL0     H76216   5.489   9.763   0.514  1.7067  2.6763  1.7267
  565MOL0     H76217   5.552   9.732   0.676  0.3552  0.8044 -0.3782
  565MOL0     H76218   5.757   9.661   0.597  0.0480  1.5676  0.9004
  565MOL0     H76219   5.706   9.686   0.425  0.0716  1.4487  0.0669
  565MOL0     H76220   5.663   9.928   0.470 -0.5926 -0.7872 -1.4282
  565MOL0     H76221   5.694   9.891   0.640 -0.7702  1.1693 -0.8584
  565MOL0     H76222   5.909   9.868   0.427  1.1493  0.7870  0.9628
  565MOL0     H76223   5.928   9.858   0.606 -0.1775 -1.3276  1.2367
  565MOL0     H76224   5.822  10.096   0.458  1.5463 -1.7488 -0.9266
  565MOL0     H76225   5.856  10.087   0.638  1.1219 -0.1812  0.5843
  565MOL0     H76226   6.129  10.051   0.707  2.7219  0.1471  0.7143
  565MOL0     H76227   6.375  10.040   0.680 -0.8883  2.3272  1.3932
  565MOL0     H76228   6.437  10.035   0.519 -0.4843 -1.4195  0.9113
  565MOL0     H76229   6.377  10.298   0.664 -1.6582 -0.3182 -2.7910
  565MOL0     H76230   6.533  10.208   0.688 -1.0043 -1.7867  0.6999
  565MOL0     H76231   6.414  10.349   0.440  2.1681 -0.6453 -5.0546
  565MOL0     H76232   6.557  10.235   0.428  0.0646  2.5381 -1.5979
  565MOL0     H76233   6.680  10.360   0.573  0.8723  2.3549 -0.7856
  565MOL0     H76234   6.545  10.472   0.613 -1.5827  0.2983 -1.0405
  565MOL0     H76235   6.670  10.594   0.212  0.0770  0.1880 -0.3980
  565MOL0     H76236   6.816  10.814   0.196 -0.1429  0.0846 -0.2166
  565MOL0     H76237   7.146  11.035   0.337  0.4023  2.4117 -3.1211
  565MOL0     H76238   7.319  11.210   0.336 -0.0522 -0.9672 -0.4579
  565MOL0     H76239   7.239  11.562   0.564 -0.5241  0.7341 -1.6013
  565MOL0     H76240   7.402  11.589   0.509 -0.7357  1.4702 -0.6340
  565MOL0     H76241   7.363  11.516   0.289 -0.6486  0.1601 -0.8385
  565MOL0     H76242   7.190  11.474   0.318  1.1854 -0.2548 -2.1863
  565MOL0     H76243   7.307  11.748   0.364  0.6270  0.8801 -1.6726
  565MOL0     H76244   7.223  11.696   0.210  0.0603 -0.5971  0.3784
  565MOL0     H76245   7.084  11.687   0.476 -0.4446 -0.0327  0.1059
  565MOL0     H76246   7.036  11.661   0.311 -1.6761 -1.4186  2.7127
  565MOL0     H76247   6.952  11.885   0.392  0.5441  0.3996  2.5282
  565MOL0     H76248   7.064  11.904   0.259 -2.6869  0.9541  0.1037
  565MOL0     H76249   7.105  11.960   0.563  0.6203 -0.7726  0.4751
  565MOL0     H76250   7.250  11.924   0.468 -0.2029 -0.2689 -0.3188
  565MOL0     H76251   7.053  12.131   0.402  0.1963 -1.1574 -0.0974
  565MOL0     H76252   7.178  12.101   0.292  0.1751  1.3794 -0.1418
  565MOL0     H76253   7.222  12.297   0.459  0.6880  0.4796  0.9131
  565MOL0     H76254   7.212  12.184   0.585  0.4395  0.6616  0.2247
  565MOL0     H76255   7.157  11.378   0.695 -1.3498  0.7530  0.0607
  565MOL0     H76256   6.958  11.217   0.675 -1.3555 -0.3060 -1.9180
  565MOL0     H76257   6.846  10.833   0.624  3.7156 -2.5435  0.1580
  565MOL0     H76258   6.695  10.621   0.633  2.1401 -1.4298  0.4220
  565MOL0     H76259   5.060   9.446   0.724 -0.4052 -0.9266  1.1274
  565MOL0     H76260   4.856   9.318   0.700  0.3925 -0.8070  0.4971
  565MOL0     H76261   4.723   8.963   0.231 -0.3455  0.6055 -1.4859
  565MOL0     H76262   4.537   8.857   0.142 -1.0371  0.5976 -1.1955
  565MOL0     H76263   4.090   8.838   0.213 -0.0020  1.5253 -0.9238
  565MOL0     H76264   4.159   8.961   0.324  2.5222  1.4367 -0.9669
  565MOL0     H76265   4.033   8.783   0.429  0.1825  1.7327 -0.7745
  565MOL0     H76266   4.203   8.773   0.484 -1.7713  2.3708  0.6166
  565MOL0     H76267   4.235   8.579   0.323 -1.1656 -0.5677 -0.2193
  565MOL0     H76268   4.073   8.610   0.260 -0.9935 -1.0276  0.5341
  565MOL0     H76269   4.098   8.416   0.423  4.3809  1.2650 -1.6120
  565MOL0     H76270   4.119   8.534   0.556  0.0795  1.6597  0.6633
  565MOL0     H76271   3.702   8.554   0.480  0.1393 -0.8672  3.2189
  565MOL0     H76272   4.295   9.006   0.479  1.1002  3.3035  0.5628
  565MOL0     H76273   4.397   9.113   0.663  0.3827  1.4815  2.6521
  565MOL0     H76274   4.576   9.138   0.662 -0.5884 -1.3243  0.3520
  565MOL0     H76275   4.468   9.241   0.565  0.8587  0.1272  1.2828
  566MOL0     O76276   0.122   9.662   5.995  0.1562 -0.4236  0.7209
  566MOL0     C76277   0.053   9.603   6.075 -0.6783  0.1270 -0.8701
  566MOL0     O76278   0.061   9.472   6.108  0.2696  0.4455 -0.6198
  566MOL0     C76279   0.171   9.400   6.061 -0.4850 -0.7490  0.3174
  566MOL0     C76280   0.308   9.434   6.078  0.4120  0.1285 -0.6876
  566MOL0     C76281   0.419   9.354   6.034  0.5233 -0.5139  0.6595
  566MOL0     C76282   0.393   9.241   5.967  0.7797 -0.6276 -0.0040
  566MOL0     O76283   0.485   9.161   5.906 -0.2943 -0.7190  0.0841
  566MOL0     C76284   0.615   9.159   5.965 -0.8461  0.7798  0.5971
  566MOL0     C76285   0.672   9.021   5.940 -0.0985 -0.5423  0.2546
  566MOL0     C76286   0.799   8.989   6.015 -0.5687  0.4290 -0.3766
  566MOL0     C76287   0.924   9.075   5.986  0.1121  0.7678 -0.8212
  566MOL0     C76288   1.021   9.005   5.888 -0.1924 -0.5640 -0.3173
  566MOL0     C76289   1.163   9.046   5.911  0.1963 -0.7436 -0.2167
  566MOL0     C76290   1.265   8.942   5.849  0.1181 -0.3083  0.4999
  566MOL0     C76291   1.409   8.997   5.835 -0.8443  0.6828 -0.2592
  566MOL0     N76292   1.501   8.902   5.778 -0.5358  0.2637  0.2861
  566MOL0     C76293   1.629   8.935   5.751 -0.4980  0.0330 -0.5207
  566MOL0     C76294   1.682   8.824   5.691  0.3100 -0.4518 -0.0805
  566MOL0     C76295   1.826   8.808   5.629 -0.3775  0.1923 -0.5228
  566MOL0     C76296   1.884   8.667   5.664 -0.3370 -0.4527 -0.1379
  566MOL0     C76297   2.017   8.652   5.589 -0.0935 -1.0897 -0.0240
  566MOL0     C76298   2.096   8.527   5.639  0.3981 -0.2240 -0.0556
  566MOL0     O76299   2.123   8.521   5.782  0.3934 -0.9906  0.2359
  566MOL0     C76300   2.252   8.548   5.826  0.5300 -0.2686  0.1250
  566MOL0     C76301   2.350   8.614   5.751  0.3098 -0.4720 -0.1794
  566MOL0     C76302   2.479   8.640   5.808 -0.7696  0.9084  0.4959
  566MOL0     C76303   2.508   8.604   5.941  0.1464  0.5971  0.3009
  566MOL0     C76304   2.630   8.655   6.005 -0.5538 -0.5103  1.0033
  566MOL0     O76305   2.717   8.730   5.931  0.4317  0.7366 -0.1079
  566MOL0     C76306   2.838   8.762   5.984  0.1273 -0.5793 -0.5196
  566MOL0     C76307   2.911   8.683   6.075  0.0229  0.5234 -0.4931
  566MOL0     C76308   3.013   8.751   6.152 -0.7149  0.4093  0.7121
  566MOL0     C76309   3.060   8.878   6.127 -0.5758  0.6418  0.2314
  566MOL0     O76310   3.161   8.938   6.215  0.2976  0.1721  0.3967
  566MOL0     C76311   3.175   9.080   6.217  0.5405 -0.3214  0.9806
  566MOL0     C76312   3.310   9.112   6.288 -0.0920  0.5209 -1.5112
  566MOL0     C76313   3.284   9.099   6.439  0.0869  0.0092  0.4552
  566MOL0     C76314   3.400   9.154   6.523 -0.0349  0.0232  0.2107
  566MOL0     C76315   3.403   9.088   6.666 -0.3958 -0.5766  0.3465
  566MOL0     C76316   3.445   9.203   6.764 -0.1578 -0.6220 -0.0715
  566MOL0     C76317   3.477   9.152   6.894 -0.0781 -0.9379 -0.1238
  566MOL0     C76318   3.535   9.270   6.985 -0.0301  0.5319  0.5323
  566MOL0    Cl76319   3.546   9.197   7.158 -0.2075  0.5812  0.1274
  566MOL0     C76320   3.011   8.941   6.010  0.6438 -0.2360  0.5348
  566MOL0     C76321   2.891   8.889   5.947 -0.1043  0.3655  0.8721
  566MOL0     O76322   2.642   8.629   6.130 -0.2361 -0.1509 -0.9058
  566MOL0     C76323   2.412   8.526   6.009  0.5762 -0.2742 -0.0084
  566MOL0     C76324   2.286   8.505   5.947  0.8219 -0.1523 -0.9113
  566MOL0     N76325   1.586   8.725   5.696 -0.1265  0.3194 -0.2076
  566MOL0     N76326   1.475   8.775   5.738  0.5696 -0.0730 -1.2200
  566MOL0     C76327   0.255   9.203   5.955  0.1987 -0.1840 -0.1917
  566MOL0     C76328   0.146   9.279   6.000 -0.5583  0.5039  0.4523
  566MOL0     C76329  -0.060   9.684   6.120  0.3284  0.5540  0.1184
  566MOL0     C76330  -0.195   9.625   6.120 -0.1081 -0.9104 -0.7555
  566MOL0     C76331  -0.304   9.697   6.175 -0.5746 -0.0521  0.6339
  566MOL0     C76332  -0.282   9.820   6.224  0.3517  0.2352 -1.6817
  566MOL0     O76333  -0.391   9.878   6.294 -0.6950 -0.4940 -0.4081
  566MOL0     C76334  -0.377  10.016   6.331  0.0921  0.1477 -0.2336
  566MOL0     C76335  -0.520  10.042   6.383  0.7124 -0.6913 -0.8281
  566MOL0     C76336  -0.619  10.033   6.276 -0.3636 -1.0699 -0.6047
  566MOL0     C76337  -0.761  10.059   6.331  0.0925 -0.0982  0.2056
  566MOL0     C76338  -0.826   9.941   6.389  0.9849 -0.2378  0.3722
  566MOL0     C76339  -0.887   9.842   6.431 -1.0468  0.5816  0.3191
  566MOL0     C76340  -0.150   9.885   6.218 -0.1947  0.3669 -0.1041
  566MOL0     C76341  -0.041   9.814   6.177 -0.3247  0.2670  1.2138
  566MOL0     C76342   0.098   9.871   6.207  0.5070  0.3322  0.5337
  566MOL0     H76343   0.322   9.525   6.135 -1.7068 -0.1381  0.4036
  566MOL0     H76344   0.521   9.389   6.045  0.8540 -0.9086 -0.9104
  566MOL0     H76345   0.681   9.239   5.929 -1.0592  0.6378 -0.1411
  566MOL0     H76346   0.601   9.152   6.073 -1.2109 -1.3278  0.4542
  566MOL0     H76347   0.685   9.004   5.832 -0.3925  1.8316 -0.2156
  566MOL0     H76348   0.602   8.945   5.974 -0.4282 -0.1398  0.4813
  566MOL0     H76349   0.824   8.883   6.024 -0.7293  0.4237  0.0060
  566MOL0     H76350   0.767   9.010   6.117 -0.8195  2.4258 -0.8166
  566MOL0     H76351   0.902   9.177   5.952 -0.9965  1.0137  0.5383
  566MOL0     H76352   0.965   9.084   6.087 -0.0253  0.0031 -0.6950
  566MOL0     H76353   1.019   8.897   5.905 -1.0080 -0.5424 -0.2087
  566MOL0     H76354   0.990   9.032   5.786  0.9526 -2.7326 -1.2904
  566MOL0     H76355   1.183   9.142   5.863 -0.7569  0.1516  1.0806
  566MOL0     H76356   1.172   9.065   6.019  1.8488  2.6635 -0.8192
  566MOL0     H76357   1.242   8.909   5.747  0.1193  1.4277 -0.1121
  566MOL0     H76358   1.269   8.856   5.916 -0.5431 -1.2456 -0.6271
  566MOL0     H76359   1.420   9.087   5.774  1.6707  0.2382 -0.6107
  566MOL0     H76360   1.440   9.035   5.933  1.4293  1.1303 -1.0658
  566MOL0     H76361   1.673   9.033   5.766  0.4328 -0.3153 -0.8561
  566MOL0     H76362   1.834   8.828   5.522 -2.1121  1.2741 -0.4889
  566MOL0     H76363   1.885   8.878   5.690  0.2113  0.0127 -0.8786
  566MOL0     H76364   1.892   8.660   5.772 -1.1807  1.3968  0.0922
  566MOL0     H76365   1.816   8.585   5.637  0.3066 -0.2073 -2.8101
  566MOL0     H76366   2.077   8.744   5.597 -1.9504  0.7465 -4.0441
  566MOL0     H76367   2.002   8.644   5.481  0.7697 -1.7036 -0.1081
  566MOL0     H76368   2.184   8.524   5.574  1.0213  2.2517  0.5497
  566MOL0     H76369   2.024   8.449   5.612 -0.8668 -0.0162  2.4414
  566MOL0     H76370   2.328   8.652   5.652 -0.8296  1.2080  0.6843
  566MOL0     H76371   2.560   8.690   5.757 -1.2430  0.9159 -0.2564
  566MOL0     H76372   2.874   8.585   6.101  0.6664  0.9246  2.2922
  566MOL0     H76373   3.061   8.702   6.237 -0.2016 -1.9141 -0.8091
  566MOL0     H76374   3.190   9.102   6.111 -2.1622 -1.2674  0.3283
  566MOL0     H76375   3.087   9.131   6.258 -0.5321  1.4763 -2.9997
  566MOL0     H76376   3.400   9.055   6.261  0.3917 -0.2416  1.4550
  566MOL0     H76377   3.335   9.218   6.275 -1.6985  1.3267  1.1635
  566MOL0     H76378   3.191   9.150   6.466 -0.9049 -1.4500 -0.0761
  566MOL0     H76379   3.264   8.995   6.467 -2.2819 -0.7068 -3.1835
  566MOL0     H76380   3.396   9.263   6.531 -2.4294  0.0807 -0.9868
  566MOL0     H76381   3.494   9.114   6.483 -0.0855  0.2756 -0.1615
  566MOL0     H76382   3.475   9.006   6.672  0.3594  0.1639  1.6613
  566MOL0     H76383   3.307   9.045   6.697 -0.3868 -2.9688 -2.4826
  566MOL0     H76384   3.533   9.252   6.721 -0.2404  0.1833  0.6402
  566MOL0     H76385   3.368   9.281   6.772 -0.0893 -0.7304  2.4246
  566MOL0     H76386   3.542   9.068   6.869  2.1407  0.8415 -0.6393
  566MOL0     H76387   3.382   9.120   6.937 -1.5799 -0.9369 -3.2236
  566MOL0     H76388   3.633   9.301   6.947 -0.4412 -2.0504 -3.2778
  566MOL0     H76389   3.468   9.357   6.982  1.6818  1.9113 -2.5413
  566MOL0     H76390   3.045   9.040   5.982  2.1024  0.2068  3.5169
  566MOL0     H76391   2.860   8.941   5.857  2.8004 -0.0166 -0.4717
  566MOL0     H76392   2.435   8.474   6.101 -1.1577 -2.8780 -0.9205
  566MOL0     H76393   2.210   8.449   6.001  1.0164  0.6382  0.2102
  566MOL0     H76394   0.228   9.121   5.889  0.5474 -1.2781  0.9699
  566MOL0     H76395   0.043   9.249   5.984 -0.5736  0.8961 -0.2020
  566MOL0     H76396  -0.204   9.528   6.071  2.9153 -0.2530 -2.8848
  566MOL0     H76397  -0.405   9.659   6.170 -1.4286  2.2404 -2.0920
  566MOL0     H76398  -0.362  10.080   6.243  1.2861 -1.0951 -0.9798
  566MOL0     H76399  -0.297  10.045   6.399  1.5913  1.9504 -2.5757
  566MOL0     H76400  -0.518  10.138   6.437  2.0024 -0.1116 -1.8325
  566MOL0     H76401  -0.549   9.968   6.458 -0.5708  0.9067  0.3493
  566MOL0     H76402  -0.616   9.942   6.214  0.9457 -1.1473 -0.4574
  566MOL0     H76403  -0.596  10.119   6.214  2.0979 -0.9144  0.4027
  566MOL0     H76404  -0.764  10.138   6.406  0.3775 -0.3564  0.4912
  566MOL0     H76405  -0.820  10.101   6.249  0.0345  2.1773  1.3209
  566MOL0     H76406  -0.940   9.764   6.482 -0.4075  0.2091  0.4330
  566MOL0     H76407  -0.130   9.989   6.241  0.0025  0.4759 -0.7785
  566MOL0     H76408   0.114   9.947   6.130 -0.1705 -0.5023 -0.4519
  566MOL0     H76409   0.104   9.910   6.309  1.6868  0.3619  0.4630
  566MOL0     H76410   0.175   9.795   6.194  0.3517  0.4786 -1.7081
  567MOL0     O76411   7.215   2.035   4.052  0.0953  0.2010 -0.3970
  567MOL0     C76412   7.176   1.929   4.103 -0.0626  0.8766  0.2501
  567MOL0     O76413   7.258   1.837   4.161 -0.1596  0.2429 -0.5026
  567MOL0     C76414   7.394   1.832   4.134  0.2003  0.2385 -0.4037
  567MOL0     C76415   7.441   1.803   4.007 -0.4381 -0.4679  0.0750
  567MOL0     C76416   7.583   1.794   3.992  1.3064 -0.0615 -0.2154
  567MOL0     C76417   7.664   1.794   4.098 -0.0842  0.6950 -0.3885
  567MOL0     O76418   7.799   1.771   4.083 -0.0257  0.2138 -0.2393
  567MOL0     C76419   7.858   1.766   3.953 -0.0791 -0.2339  0.3254
  567MOL0     C76420   8.003   1.776   3.983  0.1022 -0.1251 -0.0909
  567MOL0     C76421   8.086   1.827   3.861 -0.0777  0.0455  0.4551
  567MOL0     C76422   8.237   1.840   3.894 -0.5049 -0.2413  0.0371
  567MOL0     C76423   8.308   1.714   3.863 -0.3697 -0.0694  0.6432
  567MOL0     C76424   8.466   1.714   3.890  0.9001 -0.2987  0.2305
  567MOL0     C76425   8.506   1.583   3.958 -0.7753 -0.8844 -0.6808
  567MOL0     C76426   8.658   1.588   3.995 -0.1731  0.8144 -0.2189
  567MOL0     N76427   8.680   1.691   4.100 -0.9049 -0.1273 -0.6067
  567MOL0     C76428   8.668   1.680   4.237 -0.2107 -0.3284  0.2291
  567MOL0     C76429   8.681   1.801   4.291 -0.6545  1.0531 -0.3458
  567MOL0     C76430   8.659   1.826   4.439  0.2492 -0.0129 -0.2985
  567MOL0     C76431   8.696   1.967   4.485 -0.5786  0.4440  0.3626
  567MOL0     C76432   8.851   1.977   4.509  0.7733 -0.2623  1.3759
  567MOL0     C76433   8.911   1.894   4.627 -0.8509  0.3123  0.3908
  567MOL0     O76434   9.047   1.912   4.622 -0.2559 -0.1459  0.3126
  567MOL0     C76435   9.124   1.828   4.543  0.2278  0.9425 -0.5321
  567MOL0     C76436   9.255   1.859   4.561 -0.2672 -0.4908 -0.4299
  567MOL0     C76437   9.354   1.793   4.475 -0.6608  0.8736 -0.1808
  567MOL0     C76438   9.317   1.687   4.398 -0.4360 -0.3334 -0.1095
  567MOL0     C76439   9.415   1.610   4.312 -0.6046  0.0659  0.0196
  567MOL0     O76440   9.545   1.653   4.314  0.0630 -0.4203 -0.3169
  567MOL0     C76441   9.655   1.572   4.303 -0.4738 -0.2245 -0.2423
  567MOL0     C76442   9.658   1.430   4.304  0.5509 -0.1631 -0.7756
  567MOL0     C76443   9.783   1.369   4.297 -0.2265  0.2891 -0.2930
  567MOL0     C76444   9.911   1.437   4.298  0.4364 -0.0809 -0.2990
  567MOL0     O76445  10.028   1.362   4.316 -0.2654 -0.0775 -0.2187
  567MOL0     C76446  10.144   1.440   4.344 -0.5514 -0.4068 -0.7583
  567MOL0     C76447  10.263   1.351   4.379 -0.7386  0.3690  0.6012
  567MOL0     C76448  10.324   1.290   4.253 -0.6451  0.6742 -0.0597
  567MOL0     C76449  10.469   1.237   4.289  0.8048 -0.1139 -0.1967
  567MOL0     C76450  10.539   1.188   4.159  0.5449  0.0277 -1.4390
  567MOL0     C76451  10.667   1.112   4.194  0.7103  0.6115  0.2627
  567MOL0     C76452  10.771   1.207   4.257 -0.4639 -0.2224 -0.0927
  567MOL0     C76453  10.908   1.141   4.275 -0.4359 -0.0616  0.9183
  567MOL0    Cl76454  11.002   1.123   4.122  0.3117  0.1444 -0.1583
  567MOL0     C76455   9.899   1.577   4.287  0.3399 -0.6591 -0.6709
  567MOL0     C76456   9.778   1.641   4.294 -0.4878 -0.0975 -0.3344
  567MOL0     O76457   9.368   1.520   4.243  0.7705 -0.0212  0.6831
  567MOL0     C76458   9.178   1.651   4.390  0.4270 -0.2450 -0.1135
  567MOL0     C76459   9.085   1.727   4.453  0.0439  0.3272 -1.3027
  567MOL0     N76460   8.728   1.880   4.191 -0.6498  0.6418 -0.1741
  567MOL0     N76461   8.726   1.821   4.077  0.4171 -0.1745  0.0430
  567MOL0     C76462   7.619   1.831   4.228  0.5014 -0.0208 -0.1796
  567MOL0     C76463   7.476   1.855   4.248 -0.6087 -0.5489  0.3005
  567MOL0     C76464   7.034   1.907   4.139  0.4228 -0.2172  0.1440
  567MOL0     C76465   6.999   1.842   4.259  0.4113 -0.1339 -0.3557
  567MOL0     C76466   6.859   1.824   4.296 -0.5738  0.1152  0.2973
  567MOL0     C76467   6.763   1.878   4.216  0.5152 -0.4397 -0.3218
  567MOL0     O76468   6.632   1.897   4.247  0.3267  0.2056  0.1522
  567MOL0     C76469   6.567   1.828   4.360  0.0852  0.3454 -0.1831
  567MOL0     C76470   6.430   1.871   4.363  0.6938  0.7879  0.1533
  567MOL0     C76471   6.349   1.831   4.240  0.2441  0.8285  0.0043
  567MOL0     C76472   6.300   1.685   4.247 -0.2812  0.0508  0.4261
  567MOL0     C76473   6.393   1.584   4.188  0.0713 -0.3604 -0.8838
  567MOL0     C76474   6.482   1.511   4.144  0.5319 -0.6058  0.8472
  567MOL0     C76475   6.796   1.949   4.100 -0.1594  0.0753 -0.4410
  567MOL0     C76476   6.926   1.954   4.057 -0.9233  0.2119  0.8183
  567MOL0     C76477   6.954   2.020   3.928  0.0042 -0.7166  0.1443
  567MOL0     H76478   7.370   1.800   3.926 -1.9206  0.0770  1.3113
  567MOL0     H76479   7.615   1.768   3.891 -1.2193  1.0871 -1.4206
  567MOL0     H76480   7.836   1.672   3.900  2.5969 -0.4034 -0.6319
  567MOL0     H76481   7.830   1.848   3.887  1.7928 -1.2797 -1.8891
  567MOL0     H76482   8.044   1.683   4.023  1.3248  1.6270  3.1085
  567MOL0     H76483   8.017   1.848   4.064  0.1817  1.2733 -1.2992
  567MOL0     H76484   8.048   1.925   3.830  0.2287 -0.4606 -1.7158
  567MOL0     H76485   8.081   1.757   3.777  1.4764  1.2258 -0.6844
  567MOL0     H76486   8.277   1.922   3.833 -0.4491 -1.3061 -1.4131
  567MOL0     H76487   8.242   1.880   3.995 -2.5584  1.7076 -0.5465
  567MOL0     H76488   8.268   1.635   3.927 -1.3097  0.3737  0.6148
  567MOL0     H76489   8.297   1.680   3.760  1.7644 -1.5344  0.8461
  567MOL0     H76490   8.520   1.732   3.796  0.3097 -1.8642 -0.4396
  567MOL0     H76491   8.483   1.793   3.964 -2.9774  0.4252  0.5929
  567MOL0     H76492   8.485   1.496   3.896  2.3617 -1.3947 -1.1959
  567MOL0     H76493   8.450   1.576   4.051  2.2293  3.0849  1.7906
  567MOL0     H76494   8.705   1.493   4.021  3.0781  3.0369  3.2132
  567MOL0     H76495   8.706   1.614   3.901  1.4770  2.1411  0.9237
  567MOL0     H76496   8.612   1.608   4.296 -2.0775  1.0902  0.2673
  567MOL0     H76497   8.553   1.824   4.465 -0.0299 -0.4727 -1.4370
  567MOL0     H76498   8.712   1.748   4.494 -0.8819 -0.5630  0.0385
  567MOL0     H76499   8.667   2.043   4.412  0.0179 -0.2330 -0.6021
  567MOL0     H76500   8.643   1.990   4.577 -0.3868  1.4797  0.2214
  567MOL0     H76501   8.873   2.084   4.517 -0.8983  0.5338 -2.5149
  567MOL0     H76502   8.897   1.940   4.416 -1.1372 -0.5445  0.5046
  567MOL0     H76503   8.890   1.787   4.631  2.9305 -0.7980 -2.5517
  567MOL0     H76504   8.883   1.948   4.718  3.1764  0.2181  1.8893
  567MOL0     H76505   9.277   1.943   4.625  1.5709 -0.5058 -0.9768
  567MOL0     H76506   9.456   1.829   4.482 -0.6611  1.2240 -1.6983
  567MOL0     H76507   9.569   1.368   4.297  1.9122 -2.5069  1.3210
  567MOL0     H76508   9.785   1.261   4.294 -2.8928  0.1895 -0.9761
  567MOL0     H76509  10.169   1.510   4.264  1.7157 -1.4890 -1.0694
  567MOL0     H76510  10.123   1.495   4.436 -0.9078 -0.1810 -0.9676
  567MOL0     H76511  10.341   1.395   4.442 -1.1248  1.0582  0.6034
  567MOL0     H76512  10.231   1.269   4.444  1.3023 -0.9529  0.0407
  567MOL0     H76513  10.273   1.200   4.218 -0.2452  0.3670  0.1392
  567MOL0     H76514  10.325   1.361   4.170 -0.1736 -0.1051 -0.7262
  567MOL0     H76515  10.460   1.154   4.360  0.7566  0.9695  1.0910
  567MOL0     H76516  10.528   1.320   4.328  1.2673  0.9977 -3.0270
  567MOL0     H76517  10.570   1.270   4.094  0.0539  1.6108  0.2521
  567MOL0     H76518  10.472   1.122   4.105  0.0940 -0.3034 -0.5017
  567MOL0     H76519  10.641   1.022   4.251  0.3080  0.3281 -0.3625
  567MOL0     H76520  10.711   1.077   4.100  2.2117 -1.0353  1.4925
  567MOL0     H76521  10.739   1.226   4.360  0.7249 -1.6246  0.5771
  567MOL0     H76522  10.765   1.306   4.212 -0.0164  0.2390  0.8209
  567MOL0     H76523  10.971   1.203   4.339 -1.1416  0.7192  0.8748
  567MOL0     H76524  10.889   1.047   4.329  1.1509 -1.9357 -1.5405
  567MOL0     H76525   9.980   1.648   4.274 -0.8193  1.1185  1.2324
  567MOL0     H76526   9.763   1.749   4.297 -2.6140 -0.3583  2.5469
  567MOL0     H76527   9.146   1.567   4.329 -0.6517  0.0822 -0.0364
  567MOL0     H76528   8.982   1.697   4.439 -0.8190  2.4765  0.0386
  567MOL0     H76529   7.683   1.834   4.315 -1.1206 -0.2605  1.0701
  567MOL0     H76530   7.424   1.870   4.342  0.0927 -2.1231  0.9797
  567MOL0     H76531   7.076   1.812   4.329  0.0748  0.9758  0.5273
  567MOL0     H76532   6.851   1.769   4.389  3.4254  0.4410  0.9899
  567MOL0     H76533   6.616   1.872   4.447 -0.7475 -0.9769  1.0024
  567MOL0     H76534   6.578   1.719   4.358 -3.3051 -0.0909 -1.2447
  567MOL0     H76535   6.432   1.980   4.377  1.4751  0.7928  0.0281
  567MOL0     H76536   6.371   1.832   4.447 -2.9283  5.0970  0.0479
  567MOL0     H76537   6.415   1.841   4.153 -0.0788 -3.1468 -0.9027
  567MOL0     H76538   6.260   1.896   4.242  0.0227  0.5926 -1.1115
  567MOL0     H76539   6.282   1.652   4.350  2.2554 -2.5306  0.1651
  567MOL0     H76540   6.210   1.673   4.186 -1.1801  1.0861  1.5119
  567MOL0     H76541   6.562   1.444   4.120 -1.2964 -3.2528  1.6881
  567MOL0     H76542   6.717   1.989   4.038 -1.2737 -2.1762 -0.5683
  567MOL0     H76543   6.865   2.042   3.867  0.0134 -1.2145 -0.0580
  567MOL0     H76544   7.008   2.113   3.942  0.3796 -1.2914  3.0226
  567MOL0     H76545   7.021   1.953   3.874  0.7821 -2.2614  2.8563
  568MOL0     O76546   7.419  10.087   0.040 -0.1377  0.8734  0.3244
  568MOL0     C76547   7.452  10.088  -0.074  0.2211 -0.5796 -0.5453
  568MOL0     O76548   7.411   9.995  -0.166  0.6558 -0.1551  0.5188
  568MOL0     C76549   7.297   9.918  -0.159  0.0734 -0.3145  0.4698
  568MOL0     C76550   7.222   9.890  -0.047 -0.1069 -0.0529 -0.7318
  568MOL0     C76551   7.109   9.811  -0.057 -0.2829 -0.0052 -1.0114
  568MOL0     C76552   7.078   9.754  -0.173  0.3310  0.1323  0.2954
  568MOL0     O76553   6.965   9.679  -0.190  0.4926  0.0597 -0.2043
  568MOL0     C76554   6.996   9.543  -0.226  0.0420  0.1089  0.0988
  568MOL0     C76555   6.887   9.435  -0.207  0.3708  0.0892  0.7982
  568MOL0     C76556   6.807   9.480  -0.086 -0.1409  0.8851 -0.1945
  568MOL0     C76557   6.708   9.370  -0.041 -1.4646 -0.9282 -0.0626
  568MOL0     C76558   6.611   9.435   0.056  0.3037  0.5523  0.2801
  568MOL0     C76559   6.509   9.332   0.104 -0.7724  0.1578  0.1461
  568MOL0     C76560   6.410   9.382   0.214  0.2447 -0.2134  0.4584
  568MOL0     C76561   6.324   9.268   0.256  0.2978 -0.4220  0.2799
  568MOL0     N76562   6.226   9.299   0.363 -0.3037 -0.0411 -0.1542
  568MOL0     C76563   6.172   9.426   0.387 -0.5286  0.2611  0.1164
  568MOL0     C76564   6.098   9.409   0.499  0.6108  0.1414 -0.9347
  568MOL0     C76565   6.034   9.531   0.568 -0.2659  0.9031  0.2470
  568MOL0     C76566   6.147   9.624   0.615 -0.4407 -0.3748 -0.3118
  568MOL0     C76567   6.254   9.569   0.713 -0.5182 -0.4591  0.1773
  568MOL0     C76568   6.370   9.658   0.722 -0.4743 -0.1230  0.3737
  568MOL0     O76569   6.430   9.653   0.590  0.4355  0.3197  0.0070
  568MOL0     C76570   6.532   9.741   0.564  0.1394  0.4914  0.1839
  568MOL0     C76571   6.560   9.770   0.433  0.1866  0.5570  0.3774
  568MOL0     C76572   6.652   9.866   0.399  0.1558  0.8590 -0.0885
  568MOL0     C76573   6.719   9.941   0.497  0.1164 -0.6800  0.8116
  568MOL0     C76574   6.805  10.052   0.459  0.5957  0.2003 -0.0104
  568MOL0     O76575   6.855  10.052   0.334  0.6946  0.1862  0.2932
  568MOL0     C76576   6.942  10.160   0.303 -0.2705 -0.0276  0.2427
  568MOL0     C76577   6.905  10.296   0.302 -0.2090 -0.2086 -0.2336
  568MOL0     C76578   7.005  10.397   0.294  0.5877  0.4902 -0.5006
  568MOL0     C76579   7.137  10.356   0.281 -0.3258 -0.4391  0.7708
  568MOL0     O76580   7.238  10.451   0.271 -0.3151  0.6035 -0.1897
  568MOL0     C76581   7.218  10.568   0.345  0.9801 -0.3595  0.4535
  568MOL0     C76582   7.346  10.656   0.321  0.7199 -0.2287 -0.0461
  568MOL0     C76583   7.351  10.767   0.440  0.3055 -0.3246  0.0610
  568MOL0     C76584   7.490  10.781   0.492  0.5668 -0.8246 -1.2932
  568MOL0     C76585   7.500  10.916   0.555  0.5920 -0.1854  0.4078
  568MOL0     C76586   7.643  10.925   0.607 -0.5874 -0.4445 -0.3455
  568MOL0     C76587   7.686  11.062   0.651 -0.1436 -1.0073 -0.4640
  568MOL0     C76588   7.835  11.070   0.687  0.1006  0.1855 -0.1369
  568MOL0    Cl76589   7.860  11.228   0.751 -0.4426  0.5978 -0.0726
  568MOL0     C76590   7.169  10.221   0.263  0.8986  0.8134 -0.4346
  568MOL0     C76591   7.072  10.124   0.266  0.0582  0.0691  0.3608
  568MOL0     O76592   6.822  10.141   0.542 -1.2573 -0.5153 -0.4182
  568MOL0     C76593   6.682   9.925   0.627  0.7216  0.8965  0.1691
  568MOL0     C76594   6.592   9.831   0.661  0.1445 -0.2076 -0.4592
  568MOL0     N76595   6.098   9.274   0.534  0.4611  0.1342  0.3853
  568MOL0     N76596   6.174   9.206   0.452  0.5714 -0.2051 -0.0696
  568MOL0     C76597   7.151   9.780  -0.292  0.4528 -0.3483 -0.2556
  568MOL0     C76598   7.260   9.863  -0.283  0.0566  0.4948  0.0703
  568MOL0     C76599   7.563  10.182  -0.099  0.5838 -0.1759  0.2495
  568MOL0     C76600   7.666  10.156  -0.186 -0.0742 -1.0030 -0.6095
  568MOL0     C76601   7.780  10.229  -0.207 -0.0011  0.0133  0.3194
  568MOL0     C76602   7.787  10.347  -0.132  0.0078  0.6152  0.1974
  568MOL0     O76603   7.904  10.414  -0.157  0.7133 -0.0290  0.0368
  568MOL0     C76604   7.915  10.551  -0.110 -0.8821  0.2495 -0.5142
  568MOL0     C76605   8.063  10.591  -0.102 -0.3983  0.0713  0.4357
  568MOL0     C76606   8.134  10.627  -0.236  0.4606 -0.4547 -0.7083
  568MOL0     C76607   8.284  10.600  -0.238  0.0549  0.2173  0.6470
  568MOL0     C76608   8.370  10.690  -0.166  0.0408 -0.5558 -0.9440
  568MOL0     C76609   8.452  10.760  -0.105 -0.7017  0.5563 -0.3260
  568MOL0     C76610   7.680  10.391  -0.048 -0.0177 -0.4217  0.7583
  568MOL0     C76611   7.578  10.301  -0.020 -0.0390 -0.7349  0.1032
  568MOL0     C76612   7.471  10.361   0.063  0.3332  0.3772 -0.2666
  568MOL0     H76613   7.259   9.911   0.053  2.4610  1.3028 -1.8978
  568MOL0     H76614   7.040   9.786   0.023 -2.5877  1.8087 -2.3179
  568MOL0     H76615   7.016   9.531  -0.333 -0.6258 -1.7353  0.1500
  568MOL0     H76616   7.082   9.515  -0.164  0.9159  1.1440 -0.6014
  568MOL0     H76617   6.941   9.341  -0.190  0.8454  0.1862 -0.1356
  568MOL0     H76618   6.835   9.423  -0.303 -1.9215  2.5588  1.6060
  568MOL0     H76619   6.740   9.558  -0.121 -1.1716  1.8342  3.4972
  568MOL0     H76620   6.870   9.517  -0.004  1.0990 -0.2537 -0.5884
  568MOL0     H76621   6.655   9.334  -0.130  0.3209  0.6269 -1.8694
  568MOL0     H76622   6.768   9.291   0.004 -0.4033  0.5067  1.0951
  568MOL0     H76623   6.663   9.483   0.139 -1.8940  0.0466  2.0485
  568MOL0     H76624   6.562   9.513  -0.003  0.0174 -0.7485 -1.2821
  568MOL0     H76625   6.453   9.292   0.019 -0.7386 -2.6770  1.3320
  568MOL0     H76626   6.563   9.249   0.152 -0.2183  0.5703  0.2432
  568MOL0     H76627   6.344   9.456   0.168  1.6704 -0.8423 -2.8992
  568MOL0     H76628   6.458   9.421   0.304 -0.7431 -0.0363  0.9256
  568MOL0     H76629   6.257   9.226   0.180 -1.2384 -0.9371  1.8329
  568MOL0     H76630   6.390   9.186   0.284 -2.4986 -2.4155  1.4663
  568MOL0     H76631   6.189   9.517   0.330 -2.0543  0.2621 -0.3627
  568MOL0     H76632   5.963   9.585   0.505 -1.0220 -0.7415 -0.3476
  568MOL0     H76633   5.975   9.493   0.652  2.2008 -0.3969  1.5298
  568MOL0     H76634   6.180   9.672   0.523 -0.4871 -0.0835 -0.1755
  568MOL0     H76635   6.093   9.701   0.671 -2.5582  1.2610 -4.1907
  568MOL0     H76636   6.296   9.474   0.679  1.7486  0.9841 -1.4461
  568MOL0     H76637   6.206   9.569   0.811  0.6403  1.1167  0.8004
  568MOL0     H76638   6.432   9.622   0.806 -0.7274  0.9850  1.0583
  568MOL0     H76639   6.345   9.760   0.753 -1.6991 -1.1708  3.2598
  568MOL0     H76640   6.495   9.714   0.366 -1.2278  0.2428  1.9161
  568MOL0     H76641   6.678   9.884   0.296  0.4898  0.7029 -0.0322
  568MOL0     H76642   6.804  10.331   0.318  0.2842  1.4038 -0.3708
  568MOL0     H76643   6.974  10.501   0.294 -0.3108  0.2440  0.4009
  568MOL0     H76644   7.132  10.619   0.300  0.2563  0.0377  2.2032
  568MOL0     H76645   7.198  10.545   0.450  2.0810 -0.6968  0.5971
  568MOL0     H76646   7.429  10.585   0.331 -0.5459 -1.5405  1.9838
  568MOL0     H76647   7.332  10.698   0.221 -2.5882 -1.3076 -0.1503
  568MOL0     H76648   7.316  10.860   0.395  3.9104  0.5976 -1.1658
  568MOL0     H76649   7.293  10.730   0.525 -0.4480  0.7354  0.0231
  568MOL0     H76650   7.558  10.775   0.406  0.5058 -1.6428 -1.2925
  568MOL0     H76651   7.529  10.698   0.551  3.3610 -0.4144 -2.4168
  568MOL0     H76652   7.435  10.928   0.642  1.1769 -1.1812  0.9922
  568MOL0     H76653   7.484  10.992   0.478  1.1358 -1.8707 -1.4543
  568MOL0     H76654   7.645  10.855   0.691 -0.3634  0.5629  0.5071
  568MOL0     H76655   7.723  10.898   0.538  2.4844 -2.9110  3.7180
  568MOL0     H76656   7.630  11.084   0.743  0.7393 -2.3248  0.4279
  568MOL0     H76657   7.661  11.137   0.575 -1.2081 -1.6710 -0.7760
  568MOL0     H76658   7.870  10.988   0.750 -1.7399 -1.0759 -0.6773
  568MOL0     H76659   7.895  11.057   0.596 -0.8957 -1.7014 -0.5948
  568MOL0     H76660   7.270  10.186   0.247 -0.0836 -2.4926 -0.1050
  568MOL0     H76661   7.092  10.019   0.251 -2.2973 -0.0799 -2.6792
  568MOL0     H76662   6.730   9.985   0.704 -2.6151  2.5413  1.1528
  568MOL0     H76663   6.564   9.825   0.766 -0.1339 -3.9348 -0.5797
  568MOL0     H76664   7.118   9.736  -0.385  2.7732  0.3958 -1.5240
  568MOL0     H76665   7.332   9.870  -0.364  2.1238 -0.9923  1.6610
  568MOL0     H76666   7.658  10.059  -0.234  1.5772 -0.9928 -0.9469
  568MOL0     H76667   7.863  10.185  -0.262 -0.7579 -2.1797  0.7968
  568MOL0     H76668   7.880  10.570  -0.009  2.1941  2.3005  0.3027
  568MOL0     H76669   7.866  10.615  -0.184 -0.7103 -0.1173 -0.9598
  568MOL0     H76670   8.103  10.498  -0.062 -0.4498  0.1183  0.5993
  568MOL0     H76671   8.084  10.668  -0.027 -1.3225  0.2047  0.5726
  568MOL0     H76672   8.114  10.733  -0.249  0.1343 -0.1247  1.8741
  568MOL0     H76673   8.091  10.573  -0.320 -0.1640 -2.4833  0.8134
  568MOL0     H76674   8.308  10.497  -0.210  0.8602  0.3416  0.4519
  568MOL0     H76675   8.308  10.591  -0.344  0.6089  1.5324  0.6454
  568MOL0     H76676   8.511  10.830  -0.049  0.9722 -2.1374  1.4977
  568MOL0     H76677   7.669  10.494  -0.015  0.0372  0.1095 -0.8023
  568MOL0     H76678   7.374  10.331   0.022 -0.6386  0.5886  1.7443
  568MOL0     H76679   7.473  10.325   0.167  1.8384  1.4652  0.1273
  568MOL0     H76680   7.469  10.470   0.056  1.7024  0.4222 -0.2729
  569MOL0     O76681   8.763   6.368   0.182 -0.0917  0.4356 -0.3278
  569MOL0     C76682   8.846   6.297   0.248 -0.7011 -0.6262  0.0224
  569MOL0     O76683   8.967   6.337   0.294  0.4042  0.6965 -0.0704
  569MOL0     C76684   9.007   6.466   0.276  0.0263 -0.3242 -0.3402
  569MOL0     C76685   9.092   6.498   0.171 -0.2215 -0.1557  0.4035
  569MOL0     C76686   9.159   6.618   0.152  0.4198 -1.1131 -0.9444
  569MOL0     C76687   9.137   6.725   0.247  0.6675 -0.6684  0.2164
  569MOL0     O76688   9.187   6.855   0.231 -0.3017  0.6120 -0.0342
  569MOL0     C76689   9.332   6.857   0.240 -0.0017 -0.2171 -0.6770
  569MOL0     C76690   9.393   6.997   0.216  0.4101 -0.4318 -0.4447
  569MOL0     C76691   9.536   6.992   0.255 -0.4042  0.0057 -0.2357
  569MOL0     C76692   9.607   7.123   0.257  0.5295  0.3719 -0.5964
  569MOL0     C76693   9.757   7.102   0.286  0.1452 -0.2718  0.2638
  569MOL0     C76694   9.787   7.094   0.428 -0.6839 -0.0288 -0.4345
  569MOL0     C76695   9.940   7.077   0.452 -0.0279  0.7934 -0.4740
  569MOL0     C76696   9.997   6.944   0.418  0.7309  0.3538 -0.3596
  569MOL0     N76697  10.145   6.938   0.404 -0.1727  0.3031 -0.5632
  569MOL0     C76698  10.231   6.899   0.498  0.0110  0.5550  0.4208
  569MOL0     C76699  10.355   6.909   0.440  0.3406 -0.0438 -0.1109
  569MOL0     C76700  10.483   6.888   0.521 -0.5945 -0.1235 -0.1758
  569MOL0     C76701  10.536   7.025   0.578 -0.0517  0.5470  0.3283
  569MOL0     C76702  10.688   7.024   0.619 -0.2181  0.4011 -0.5821
  569MOL0     C76703  10.741   7.154   0.677 -0.4044 -1.3513  0.3728
  569MOL0     O76704  10.762   7.249   0.567 -0.0704  0.4995  0.3900
  569MOL0     C76705  10.896   7.287   0.574  0.3318 -0.1464 -0.1844
  569MOL0     C76706  10.922   7.395   0.656 -0.4220 -0.7323  0.2391
  569MOL0     C76707  11.053   7.459   0.673  0.7366 -0.6180 -0.0449
  569MOL0     C76708  11.158   7.410   0.588  0.3493 -0.1208 -0.0822
  569MOL0     C76709  11.295   7.461   0.604  0.3321  0.0235  0.7459
  569MOL0     O76710  11.318   7.553   0.706 -0.3885  0.3567 -0.1810
  569MOL0     C76711  11.434   7.630   0.709  0.2319 -0.1817  0.1948
  569MOL0     C76712  11.494   7.658   0.833 -0.4394 -0.4014  0.0759
  569MOL0     C76713  11.603   7.742   0.840  0.3263  0.2805 -0.5144
  569MOL0     C76714  11.664   7.797   0.723  0.0650  0.1379  0.0778
  569MOL0     O76715  11.769   7.882   0.746 -0.1659 -0.3133  0.2107
  569MOL0     C76716  11.809   7.973   0.637 -0.3676  0.1047  0.0319
  569MOL0     C76717  11.936   8.044   0.672  0.5989 -0.5789 -0.2179
  569MOL0     C76718  12.056   7.950   0.673  0.4988  0.7851  0.2872
  569MOL0     C76719  12.144   7.996   0.775  0.7166  0.1234  0.0903
  569MOL0     C76720  12.266   7.893   0.778 -0.6033 -0.5301  0.2086
  569MOL0     C76721  12.350   7.894   0.902 -0.5343  0.1723 -0.6078
  569MOL0     C76722  12.472   7.786   0.904  0.4022 -0.5029  0.5377
  569MOL0     C76723  12.559   7.796   1.022  0.1969  0.0336 -0.1648
  569MOL0    Cl76724  12.654   7.643   1.043  0.1895  0.3314 -0.5263
  569MOL0     C76725  11.606   7.770   0.603  0.9570 -0.1962 -0.4434
  569MOL0     C76726  11.485   7.693   0.600  0.8978 -1.0680 -0.0100
  569MOL0     O76727  11.377   7.434   0.514  0.4231  0.6525 -0.2359
  569MOL0     C76728  11.131   7.297   0.494 -0.5615 -0.9405  0.5585
  569MOL0     C76729  11.004   7.237   0.492  0.0951  0.5351 -1.1676
  569MOL0     N76730  10.338   6.948   0.311 -0.2948 -0.5928 -0.2656
  569MOL0     N76731  10.212   6.967   0.291  0.1007  0.2187  0.2650
  569MOL0     C76732   9.055   6.690   0.355 -0.0761  0.4058 -0.1400
  569MOL0     C76733   8.993   6.566   0.372 -0.1654 -0.5330 -0.1025
  569MOL0     C76734   8.803   6.160   0.282  0.2561 -0.0497 -0.4873
  569MOL0     C76735   8.891   6.066   0.337 -0.1228 -0.3042 -0.1162
  569MOL0     C76736   8.858   5.937   0.373 -0.9536 -0.2689  0.0897
  569MOL0     C76737   8.723   5.894   0.363 -0.1927 -0.4915  0.4899
  569MOL0     O76738   8.674   5.784   0.424 -0.8016  0.2662  0.3146
  569MOL0     C76739   8.757   5.674   0.447 -0.2687 -0.6185 -0.2595
  569MOL0     C76740   8.673   5.547   0.484 -0.8245 -0.1010 -0.1675
  569MOL0     C76741   8.546   5.548   0.406 -0.3981  0.2681  0.7107
  569MOL0     C76742   8.481   5.404   0.393  0.1985  0.4272  1.0266
  569MOL0     C76743   8.464   5.333   0.526  0.7469  1.3082  0.4932
  569MOL0     C76744   8.444   5.272   0.622  0.0225  0.3253 -0.1237
  569MOL0     C76745   8.630   5.986   0.316 -0.5726 -0.4616  0.2097
  569MOL0     C76746   8.669   6.114   0.273  0.1791 -0.6637 -0.3678
  569MOL0     C76747   8.553   6.190   0.215  0.0859 -0.7534 -0.6969
  569MOL0     H76748   9.116   6.414   0.106 -0.6794 -0.1409  0.2126
  569MOL0     H76749   9.217   6.639   0.062  1.7658 -0.4519  0.0345
  569MOL0     H76750   9.366   6.821   0.337 -0.2344  2.7242  0.6090
  569MOL0     H76751   9.371   6.797   0.157  0.7815 -1.2755  0.4373
  569MOL0     H76752   9.334   7.064   0.279  0.4041 -0.9426  0.1042
  569MOL0     H76753   9.375   7.038   0.116  1.7969  0.5873 -0.2985
  569MOL0     H76754   9.588   6.935   0.177 -2.5890 -0.6206 -1.3222
  569MOL0     H76755   9.552   6.940   0.350 -0.4731 -1.1793 -0.8569
  569MOL0     H76756   9.597   7.181   0.165 -0.6430  0.7087 -0.2762
  569MOL0     H76757   9.562   7.186   0.335 -0.4218  0.3842 -1.1430
  569MOL0     H76758   9.794   7.012   0.234 -1.3133 -0.7988  0.1018
  569MOL0     H76759   9.807   7.191   0.247 -0.0495 -1.8086 -4.1277
  569MOL0     H76760   9.754   7.185   0.480  0.7473  0.4141 -0.2410
  569MOL0     H76761   9.730   7.010   0.469 -1.8076  1.5263  1.4017
  569MOL0     H76762   9.962   7.101   0.556  1.0532  1.6348 -0.8775
  569MOL0     H76763   9.994   7.152   0.393 -0.0466  0.8676 -0.3986
  569MOL0     H76764   9.953   6.870   0.487  2.5605  1.7928  2.5373
  569MOL0     H76765   9.959   6.907   0.322 -2.3213 -0.8166  1.1377
  569MOL0     H76766  10.207   6.875   0.601  1.3806  1.7657  1.0655
  569MOL0     H76767  10.460   6.818   0.602 -0.3702 -0.4220 -0.3680
  569MOL0     H76768  10.559   6.843   0.456  1.6209  0.6404  1.7721
  569MOL0     H76769  10.530   7.102   0.501 -2.1768 -2.8975 -3.3247
  569MOL0     H76770  10.481   7.052   0.669  2.0385  3.1759  0.9473
  569MOL0     H76771  10.748   6.986   0.536 -1.8505  0.1633 -1.7036
  569MOL0     H76772  10.697   6.947   0.696  0.8180 -1.6613 -2.6281
  569MOL0     H76773  10.836   7.136   0.729  0.9386  1.7689 -0.7436
  569MOL0     H76774  10.673   7.200   0.749  0.9099 -0.3929  1.0698
  569MOL0     H76775  10.841   7.435   0.716 -0.3491 -2.0261  1.2272
  569MOL0     H76776  11.072   7.533   0.749 -0.2726 -2.5636  2.2388
  569MOL0     H76777  11.445   7.616   0.920  0.7949  0.5897  1.3033
  569MOL0     H76778  11.651   7.764   0.935  1.4045  0.4911 -1.0885
  569MOL0     H76779  11.821   7.928   0.539 -1.3936  1.5199 -0.7827
  569MOL0     H76780  11.726   8.043   0.624 -0.5714 -0.3870 -1.4173
  569MOL0     H76781  11.949   8.125   0.600 -0.3575  1.0359  1.3596
  569MOL0     H76782  11.917   8.084   0.772 -1.7363 -2.6771  0.2691
  569MOL0     H76783  12.020   7.847   0.689 -1.0405  1.1130 -0.8712
  569MOL0     H76784  12.114   7.957   0.581 -0.8522  0.3995 -0.6329
  569MOL0     H76785  12.088   7.994   0.869 -1.4904 -2.2685 -1.1336
  569MOL0     H76786  12.186   8.094   0.752  2.7551 -1.0771 -1.7157
  569MOL0     H76787  12.328   7.927   0.695  0.0613  0.3788  1.0632
  569MOL0     H76788  12.237   7.789   0.759 -0.4613 -0.3088 -1.3708
  569MOL0     H76789  12.396   7.993   0.913 -2.0957  0.6973  2.0085
  569MOL0     H76790  12.287   7.881   0.991  0.4632  0.4061  0.1589
  569MOL0     H76791  12.541   7.801   0.820 -0.5902 -0.3600 -0.2757
  569MOL0     H76792  12.433   7.684   0.895 -0.2168 -0.6354  3.6918
  569MOL0     H76793  12.624   7.884   1.022 -0.4865  0.6314  2.4797
  569MOL0     H76794  12.486   7.804   1.103  0.4243  0.7033 -0.0230
  569MOL0     H76795  11.640   7.836   0.524  1.1881 -0.3807 -0.4989
  569MOL0     H76796  11.428   7.689   0.508  3.1354  1.0977 -1.6305
  569MOL0     H76797  11.206   7.252   0.431 -0.0557 -0.1551  0.5922
  569MOL0     H76798  10.970   7.155   0.430 -0.5956  0.7984 -1.1496
  569MOL0     H76799   9.024   6.762   0.430  0.6419 -0.3315  0.8928
  569MOL0     H76800   8.928   6.543   0.456 -1.5098 -1.7705 -1.4294
  569MOL0     H76801   8.993   6.102   0.345 -0.2077  0.8458 -2.8553
  569MOL0     H76802   8.926   5.862   0.411 -1.7169 -1.4247 -0.7523
  569MOL0     H76803   8.819   5.699   0.534 -1.1684  1.2767 -0.1050
  569MOL0     H76804   8.826   5.644   0.367 -0.4848 -1.0525 -0.2860
  569MOL0     H76805   8.650   5.558   0.590  1.5894  0.9608  0.3250
  569MOL0     H76806   8.727   5.453   0.472 -0.9222 -0.0543 -1.0520
  569MOL0     H76807   8.560   5.592   0.307  1.2437 -1.4769  0.1215
  569MOL0     H76808   8.471   5.608   0.458 -0.1181  2.5714 -1.3543
  569MOL0     H76809   8.384   5.420   0.344  0.9258  0.3205 -0.5116
  569MOL0     H76810   8.538   5.340   0.326  1.3807  2.1273  0.3233
  569MOL0     H76811   8.428   5.213   0.709 -3.1455  1.7676  0.4115
  569MOL0     H76812   8.525   5.960   0.312 -0.2218 -2.2626  1.4684
  569MOL0     H76813   8.579   6.223   0.114  2.0856  0.1841  0.0807
  569MOL0     H76814   8.461   6.131   0.205  0.7249 -1.7172 -1.0709
  569MOL0     H76815   8.531   6.273   0.283 -0.9510 -1.5381 -0.0423
  570MOL0     O76816   7.657   2.230   8.016 -0.5503 -0.5460 -0.4692
  570MOL0     C76817   7.643   2.348   7.976 -0.8049  0.2495  0.3630
  570MOL0     O76818   7.743   2.444   7.976  0.9103  1.0504  0.4199
  570MOL0     C76819   7.867   2.399   8.018 -0.1964  0.0010  0.5070
  570MOL0     C76820   7.973   2.405   7.922 -0.7023  0.5610  0.1941
  570MOL0     C76821   8.103   2.375   7.962  0.3577 -0.1057  0.4256
  570MOL0     C76822   8.130   2.330   8.095 -0.4227 -0.5768 -0.0423
  570MOL0     O76823   8.258   2.298   8.129  0.6666 -0.2674  0.1133
  570MOL0     C76824   8.344   2.412   8.135 -0.6441  1.0754  0.1274
  570MOL0     C76825   8.482   2.360   8.080  0.7916  0.2059  0.4449
  570MOL0     C76826   8.578   2.473   8.085 -0.8183  0.4467 -0.0858
  570MOL0     C76827   8.707   2.431   8.009  0.9789  1.3320 -1.3550
  570MOL0     C76828   8.808   2.537   8.014  0.2761  0.2960  0.0300
  570MOL0     C76829   8.905   2.505   7.908 -0.8412 -0.2093 -0.3310
  570MOL0     C76830   8.996   2.627   7.891 -0.2977  0.0408 -0.1132
  570MOL0     C76831   9.089   2.619   7.778  0.1853  0.7028  0.3776
  570MOL0     N76832   9.150   2.743   7.735 -0.1063 -0.1816  0.1452
  570MOL0     C76833   9.238   2.822   7.815 -0.2584  0.4524  0.2160
  570MOL0     C76834   9.313   2.898   7.735  0.0541 -0.3358 -0.5308
  570MOL0     C76835   9.403   3.013   7.789  0.8727  0.4491  0.5022
  570MOL0     C76836   9.540   3.000   7.729 -0.4164 -0.0393  0.4441
  570MOL0     C76837   9.621   2.873   7.763 -0.6332  0.0154 -0.5587
  570MOL0     C76838   9.769   2.901   7.727  0.3087 -0.3582 -0.3087
  570MOL0     O76839   9.852   2.789   7.726 -0.2961  0.4181  0.3325
  570MOL0     C76840   9.986   2.807   7.704  0.0581  0.2313  0.4105
  570MOL0     C76841  10.046   2.940   7.694 -0.2280 -0.5500  0.0175
  570MOL0     C76842  10.183   2.957   7.671 -0.1786  0.1920 -0.0711
  570MOL0     C76843  10.261   2.845   7.647  0.4499  0.2313 -0.0881
  570MOL0     C76844  10.402   2.857   7.597 -0.3041 -0.2214  0.0643
  570MOL0     O76845  10.451   2.975   7.641 -0.1402  0.1609  0.1471
  570MOL0     C76846  10.586   3.000   7.645 -0.4494 -0.4157 -0.3371
  570MOL0     C76847  10.701   2.922   7.600  0.7063 -0.1241  0.2753
  570MOL0     C76848  10.831   2.971   7.614  0.1966  0.2265 -0.3149
  570MOL0     C76849  10.853   3.094   7.675 -0.4705  0.3156  0.4810
  570MOL0     O76850  10.990   3.127   7.682  0.1967  0.6953 -0.2793
  570MOL0     C76851  11.038   3.246   7.748  0.8596 -0.7500  0.3873
  570MOL0     C76852  11.166   3.211   7.825  1.4266  0.4581 -0.4194
  570MOL0     C76853  11.250   3.330   7.871  0.6193  0.3345 -0.6612
  570MOL0     C76854  11.360   3.260   7.956 -0.1430  0.1948  0.1819
  570MOL0     C76855  11.459   3.366   8.008 -0.2137  0.7818  0.1056
  570MOL0     C76856  11.574   3.297   8.077  0.0421  0.4470  0.0679
  570MOL0     C76857  11.666   3.403   8.125 -0.4298  0.6321  0.6875
  570MOL0     C76858  11.772   3.341   8.214 -1.0255  0.1082  0.2838
  570MOL0    Cl76859  11.887   3.470   8.291 -0.0039 -0.3908  0.2450
  570MOL0     C76860  10.746   3.173   7.712  0.0431 -0.3516 -1.1982
  570MOL0     C76861  10.616   3.123   7.702  0.0763 -0.4084 -0.3786
  570MOL0     O76862  10.459   2.767   7.534 -0.3240 -0.0835 -0.1045
  570MOL0     C76863  10.199   2.717   7.647  0.3885 -0.2948  0.4589
  570MOL0     C76864  10.067   2.702   7.669 -0.4777 -0.6518  0.2447
  570MOL0     N76865   9.274   2.872   7.599 -0.1676 -0.3702 -0.3752
  570MOL0     N76866   9.174   2.785   7.605 -0.6029 -0.9557  0.6841
  570MOL0     C76867   8.032   2.321   8.190 -0.3310  0.2399  0.1590
  570MOL0     C76868   7.905   2.363   8.152 -0.2800  0.2157 -0.7590
  570MOL0     C76869   7.501   2.398   7.952 -0.6521 -0.3953 -0.4349
  570MOL0     C76870   7.461   2.520   8.002  0.5420 -0.4171  0.3325
  570MOL0     C76871   7.333   2.573   7.984 -1.0644 -0.0146  0.4898
  570MOL0     C76872   7.240   2.495   7.917  0.9652  0.2719  0.1774
  570MOL0     O76873   7.126   2.565   7.882  0.3692  0.0418 -0.1737
  570MOL0     C76874   7.039   2.517   7.781 -0.3224  0.4473  0.0333
  570MOL0     C76875   6.935   2.428   7.835  0.5536  0.1281  0.0411
  570MOL0     C76876   6.833   2.386   7.726  0.2317 -0.0738  0.1261
  570MOL0     C76877   6.740   2.500   7.692  0.2631 -0.8840  0.0149
  570MOL0     C76878   6.635   2.445   7.611  1.0877  0.3943  0.5134
  570MOL0     C76879   6.542   2.403   7.549  0.2586  0.4584 -0.4709
  570MOL0     C76880   7.267   2.360   7.888  0.3470 -0.6068 -0.4307
  570MOL0     C76881   7.399   2.313   7.899 -0.6267  0.0402 -0.0667
  570MOL0     C76882   7.419   2.171   7.855  0.0511 -0.1821  0.8713
  570MOL0     H76883   7.954   2.440   7.821 -1.8579  2.1232  0.9107
  570MOL0     H76884   8.183   2.383   7.890  1.5575  1.6600  1.8411
  570MOL0     H76885   8.317   2.497   8.073  0.3373 -0.8210 -3.1579
  570MOL0     H76886   8.364   2.436   8.240 -1.6221 -2.1091  1.1749
  570MOL0     H76887   8.471   2.316   7.981 -0.3952 -1.6190  1.3321
  570MOL0     H76888   8.522   2.282   8.147  1.2200 -1.3659 -1.5279
  570MOL0     H76889   8.596   2.507   8.187  1.3087 -0.2243 -0.2068
  570MOL0     H76890   8.531   2.558   8.034 -2.0296  0.7313  1.4521
  570MOL0     H76891   8.744   2.341   8.058 -1.4856  1.0624  0.2143
  570MOL0     H76892   8.675   2.401   7.909 -2.3482 -1.8909  0.4328
  570MOL0     H76893   8.750   2.627   7.991 -2.8385 -1.8083 -0.9757
  570MOL0     H76894   8.860   2.543   8.110  0.6824  2.0728 -0.2510
  570MOL0     H76895   8.963   2.414   7.924 -1.1747 -0.2046  1.0535
  570MOL0     H76896   8.863   2.502   7.807 -0.5909  2.4077 -0.5883
  570MOL0     H76897   9.054   2.650   7.981  0.7155  0.5202 -0.8687
  570MOL0     H76898   8.933   2.712   7.863 -0.2205  0.4263  0.8264
  570MOL0     H76899   9.169   2.546   7.796 -1.0520 -1.0385 -0.8126
  570MOL0     H76900   9.035   2.572   7.695 -2.1594  1.1644  1.5317
  570MOL0     H76901   9.245   2.835   7.923 -2.1634 -3.3765  0.9508
  570MOL0     H76902   9.353   3.108   7.771  1.7011  1.0038  1.0723
  570MOL0     H76903   9.406   2.996   7.897  1.8320  0.2599  0.4556
  570MOL0     H76904   9.524   3.016   7.622  3.1407 -0.0472 -0.1889
  570MOL0     H76905   9.600   3.087   7.758 -1.2309  0.0884  1.8534
  570MOL0     H76906   9.575   2.803   7.693 -1.7137  1.9419 -1.8906
  570MOL0     H76907   9.618   2.848   7.869 -1.5376  0.9819 -0.3395
  570MOL0     H76908   9.800   2.966   7.809  0.7994 -3.6858  2.3722
  570MOL0     H76909   9.777   2.957   7.633 -1.2003  0.0330 -0.2394
  570MOL0     H76910   9.992   3.033   7.711 -0.5961 -1.0103  1.5326
  570MOL0     H76911  10.231   3.054   7.657  2.0870 -0.7709  0.6260
  570MOL0     H76912  10.691   2.820   7.566  1.0874 -0.1434  0.2241
  570MOL0     H76913  10.912   2.917   7.567 -0.6174 -2.3440  1.0634
  570MOL0     H76914  11.047   3.326   7.674  2.2494 -1.1905  0.0458
  570MOL0     H76915  10.956   3.270   7.817 -2.1317 -2.9041 -2.1384
  570MOL0     H76916  11.136   3.155   7.913  1.6204 -0.3343 -0.8517
  570MOL0     H76917  11.227   3.143   7.765  1.7322  1.1010 -0.8528
  570MOL0     H76918  11.300   3.377   7.785  1.2893 -2.5509 -2.0023
  570MOL0     H76919  11.187   3.396   7.930  1.3935 -1.6066  2.5836
  570MOL0     H76920  11.415   3.187   7.895  0.1246  0.3048  0.2908
  570MOL0     H76921  11.316   3.200   8.036 -0.2215  0.4554  0.3316
  570MOL0     H76922  11.410   3.445   8.066 -0.0105  0.7831  0.2743
  570MOL0     H76923  11.504   3.418   7.923  0.8333  1.9221  1.3225
  570MOL0     H76924  11.534   3.240   8.162  1.2466  0.3029  0.5530
  570MOL0     H76925  11.621   3.224   8.010  0.4953  0.7264  0.0793
  570MOL0     H76926  11.612   3.468   8.194 -0.7285  0.6339  0.4548
  570MOL0     H76927  11.718   3.459   8.046  2.1985  0.5545  2.2569
  570MOL0     H76928  11.723   3.282   8.292  0.9440 -3.0651 -0.6787
  570MOL0     H76929  11.835   3.276   8.153  0.4979 -1.5858  3.3767
  570MOL0     H76930  10.762   3.263   7.771 -2.1047 -2.5944  3.3167
  570MOL0     H76931  10.535   3.190   7.729  1.2478  0.9147 -0.0643
  570MOL0     H76932  10.254   2.629   7.616 -0.8860 -1.0569  0.3029
  570MOL0     H76933  10.024   2.603   7.660 -1.2150 -0.5598  2.1516
  570MOL0     H76934   8.046   2.303   8.296  0.5501  1.0539  0.1857
  570MOL0     H76935   7.827   2.369   8.228  1.0764 -0.4794  0.7391
  570MOL0     H76936   7.524   2.593   8.052  0.4607  1.8676 -2.6461
  570MOL0     H76937   7.297   2.673   8.009 -0.4118  0.8113 -1.6213
  570MOL0     H76938   7.099   2.467   7.704 -2.3458  2.7831 -3.3306
  570MOL0     H76939   7.005   2.608   7.732  1.0866 -0.1308 -2.1964
  570MOL0     H76940   6.885   2.467   7.924 -1.7153 -0.3462 -0.9320
  570MOL0     H76941   6.978   2.337   7.876 -1.4449 -0.9298 -0.0790
  570MOL0     H76942   6.772   2.307   7.771  0.2562 -1.5745 -2.2800
  570MOL0     H76943   6.892   2.352   7.640  1.4336 -0.8419  1.2209
  570MOL0     H76944   6.712   2.540   7.790  0.5739 -0.2410 -0.1483
  570MOL0     H76945   6.784   2.583   7.637 -1.5966 -1.1742 -2.0409
  570MOL0     H76946   6.458   2.375   7.488 -1.3422  1.4638  1.1643
  570MOL0     H76947   7.191   2.308   7.830  0.8454 -0.6057 -1.0921
  570MOL0     H76948   7.515   2.156   7.804  1.4215  1.0039  2.9652
  570MOL0     H76949   7.420   2.106   7.943 -3.5242  0.4690  1.5587
  570MOL0     H76950   7.338   2.136   7.790 -0.4114  0.8411  0.8790
  571MOL0     O76951   5.734   0.180   7.884 -0.4645 -0.4540 -0.3003
  571MOL0     C76952   5.666   0.277   7.859  0.9314  0.0793 -0.0837
  571MOL0     O76953   5.699   0.408   7.884  0.1609 -0.2393  0.4570
  571MOL0     C76954   5.815   0.437   7.946 -0.1454 -0.8492  0.7259
  571MOL0     C76955   5.890   0.549   7.900 -0.2223 -0.5615 -0.4474
  571MOL0     C76956   6.016   0.577   7.960 -0.1681  0.0134 -0.5640
  571MOL0     C76957   6.052   0.500   8.078 -0.5495 -0.0143 -0.5440
  571MOL0     O76958   6.172   0.515   8.146 -1.1363 -0.1132  0.6514
  571MOL0     C76959   6.197   0.646   8.172  0.1666 -0.2103  0.4559
  571MOL0     C76960   6.304   0.639   8.275 -0.3541 -0.4477  0.1249
  571MOL0     C76961   6.376   0.768   8.288 -0.1369 -0.1361  0.8548
  571MOL0     C76962   6.449   0.766   8.423 -0.2264  0.6966  0.3491
  571MOL0     C76963   6.562   0.868   8.446 -0.1740 -0.1843  0.1113
  571MOL0     C76964   6.610   0.853   8.589 -0.1935 -0.0697  0.2473
  571MOL0     C76965   6.753   0.900   8.594  0.1966 -0.3599 -0.2076
  571MOL0     C76966   6.793   0.917   8.742 -0.4612  0.1658  0.6086
  571MOL0     N76967   6.940   0.935   8.755  0.0691 -0.5516  0.5778
  571MOL0     C76968   6.986   1.025   8.849 -0.0376  0.0820  0.2833
  571MOL0     C76969   7.117   1.048   8.818  0.0231 -0.0523  0.3770
  571MOL0     C76970   7.221   1.125   8.902 -0.0934  0.3306 -0.3320
  571MOL0     C76971   7.325   1.192   8.814 -0.0274  0.3315 -0.0820
  571MOL0     C76972   7.423   1.274   8.892 -0.5631 -0.3273 -0.8232
  571MOL0     C76973   7.557   1.294   8.820  0.6029 -0.3119  0.2538
  571MOL0     O76974   7.648   1.175   8.831 -0.0141  0.2437 -0.1842
  571MOL0     C76975   7.782   1.194   8.799 -0.1329 -0.4395 -0.6044
  571MOL0     C76976   7.847   1.307   8.765 -0.6240 -0.1715 -0.1410
  571MOL0     C76977   7.986   1.307   8.741 -0.3706  0.0659  0.1356
  571MOL0     C76978   8.052   1.180   8.736 -0.7394 -0.3261 -0.1320
  571MOL0     C76979   8.195   1.169   8.706 -0.3159 -0.8680  0.0897
  571MOL0     O76980   8.244   1.053   8.672  0.3199  0.8825  0.5158
  571MOL0     C76981   8.368   1.043   8.620  0.1008 -0.1815  0.6576
  571MOL0     C76982   8.469   1.007   8.706 -0.9697  0.2206 -0.6444
  571MOL0     C76983   8.599   1.000   8.663  0.2505  0.4717 -0.8530
  571MOL0     C76984   8.639   1.031   8.531  0.5755  0.4212 -0.4812
  571MOL0     O76985   8.760   0.998   8.475  0.4462 -0.3622  0.0259
  571MOL0     C76986   8.823   0.880   8.522  0.2655  0.4257 -0.7361
  571MOL0     C76987   8.957   0.860   8.459  0.2347 -1.0083  0.6505
  571MOL0     C76988   9.019   0.719   8.482 -0.2780 -0.3969  0.5636
  571MOL0     C76989   9.119   0.672   8.374  0.1360  0.2236 -0.2784
  571MOL0     C76990   9.061   0.566   8.272 -0.3369 -0.6171  0.2368
  571MOL0     C76991   8.947   0.635   8.192 -1.5146  0.4702  0.1050
  571MOL0     C76992   8.887   0.539   8.086 -0.9210  0.0831  0.9125
  571MOL0     C76993   8.969   0.522   7.948 -0.0510 -0.4896  0.4057
  571MOL0    Cl76994   9.127   0.432   7.960 -0.1792 -0.0528  0.0769
  571MOL0     C76995   8.533   1.069   8.445  0.3884  0.8830  0.0321
  571MOL0     C76996   8.399   1.076   8.490  0.4153  0.0894  0.5418
  571MOL0     O76997   8.258   1.276   8.687 -0.0115  0.9195  0.1990
  571MOL0     C76998   7.985   1.070   8.783  1.1812  0.3752 -0.7368
  571MOL0     C76999   7.853   1.076   8.811 -0.1482 -0.6133  0.2863
  571MOL0     N77000   7.142   0.982   8.699  1.0833 -0.3264 -0.2658
  571MOL0     N77001   7.038   0.918   8.663  0.1336 -0.3302  0.4844
  571MOL0     C77002   5.967   0.408   8.128  0.4985 -0.4200  0.1299
  571MOL0     C77003   5.853   0.369   8.055 -0.3597  0.7303 -0.7345
  571MOL0     C77004   5.534   0.245   7.794  0.5783  0.1713  0.2604
  571MOL0     C77005   5.525   0.148   7.695  0.3110  0.6739 -0.5865
  571MOL0     C77006   5.403   0.118   7.628 -0.2367 -0.3001 -0.5378
  571MOL0     C77007   5.287   0.193   7.653 -0.9141 -0.0276 -0.0266
  571MOL0     O77008   5.177   0.168   7.566 -0.2842 -0.6448 -0.7137
  571MOL0     C77009   5.075   0.271   7.566  0.1303  0.5843  0.9888
  571MOL0     C77010   5.010   0.271   7.432  0.4774 -0.3388 -0.1114
  571MOL0     C77011   4.930   0.137   7.412  0.0211 -0.0445  0.4618
  571MOL0     C77012   4.872   0.130   7.268  0.5029 -0.1797 -0.4907
  571MOL0     C77013   4.786   0.011   7.235 -0.5534  0.1844 -0.9463
  571MOL0     C77014   4.716  -0.070   7.183 -0.4496 -0.1503  0.2554
  571MOL0     C77015   5.293   0.292   7.746 -0.0072  0.5200 -0.0005
  571MOL0     C77016   5.412   0.319   7.821  0.1594  0.1302 -0.3893
  571MOL0     C77017   5.397   0.433   7.928  0.2365 -0.0433  0.4111
  571MOL0     H77018   5.855   0.600   7.811  1.6139 -0.8701 -1.4224
  571MOL0     H77019   6.086   0.646   7.915  2.2600 -1.2594  1.0971
  571MOL0     H77020   6.245   0.685   8.082 -1.5500  1.2163  0.0927
  571MOL0     H77021   6.115   0.708   8.211  0.3958  0.1208  0.4152
  571MOL0     H77022   6.379   0.565   8.245 -0.3463 -0.9314  1.2887
  571MOL0     H77023   6.264   0.612   8.373  2.9309  1.4239  2.1485
  571MOL0     H77024   6.296   0.841   8.302 -0.4906 -0.3789  0.1260
  571MOL0     H77025   6.430   0.775   8.194  0.4028 -3.5267  0.8045
  571MOL0     H77026   6.372   0.786   8.498  0.7758  2.7090  0.9040
  571MOL0     H77027   6.493   0.667   8.440 -0.0505  1.0660  2.2301
  571MOL0     H77028   6.642   0.840   8.377  0.6367 -2.0920  1.7127
  571MOL0     H77029   6.530   0.972   8.433 -0.9363 -0.2534  1.2665
  571MOL0     H77030   6.533   0.910   8.643 -2.1232  0.0096 -2.3929
  571MOL0     H77031   6.602   0.752   8.629 -1.1756  0.1247  0.5855
  571MOL0     H77032   6.772   0.995   8.543  0.9007 -1.6063 -2.3598
  571MOL0     H77033   6.814   0.818   8.557 -1.6529 -0.7025 -2.7236
  571MOL0     H77034   6.756   1.014   8.778  1.8448  1.8805 -1.2277
  571MOL0     H77035   6.760   0.836   8.807  1.9097 -1.2598  0.1687
  571MOL0     H77036   6.941   1.056   8.942  4.4406  0.1973  2.6656
  571MOL0     H77037   7.174   1.202   8.964  2.7601  1.2494  0.8801
  571MOL0     H77038   7.264   1.055   8.974 -3.9083 -1.7244  0.1784
  571MOL0     H77039   7.380   1.116   8.758 -0.9985 -2.3363  2.3472
  571MOL0     H77040   7.272   1.255   8.742 -0.5289 -2.9349 -2.8004
  571MOL0     H77041   7.449   1.232   8.990 -0.0648 -0.7067 -1.1118
  571MOL0     H77042   7.382   1.375   8.904 -1.8490 -0.5985 -2.5323
  571MOL0     H77043   7.607   1.385   8.853 -2.3977  1.3517  0.5692
  571MOL0     H77044   7.531   1.322   8.717  0.9747  2.0378  0.7531
  571MOL0     H77045   7.799   1.402   8.747 -1.0459 -0.0738  1.4067
  571MOL0     H77046   8.038   1.399   8.718  1.0114 -1.0485 -1.4537
  571MOL0     H77047   8.445   0.975   8.807 -0.3066 -0.4500 -0.6849
  571MOL0     H77048   8.676   0.962   8.729 -1.3126 -1.2492  0.0664
  571MOL0     H77049   8.844   0.894   8.628 -2.3153  2.1485 -0.3654
  571MOL0     H77050   8.758   0.792   8.512  2.8095 -2.0470  2.2940
  571MOL0     H77051   8.936   0.873   8.352 -1.2354 -2.9797  0.6538
  571MOL0     H77052   9.028   0.938   8.489 -1.1650  0.0249  1.4095
  571MOL0     H77053   9.067   0.714   8.580 -2.3475 -2.5370  1.5771
  571MOL0     H77054   8.943   0.640   8.478 -0.1656 -0.4613 -0.7458
  571MOL0     H77055   9.214   0.638   8.416 -0.9462 -0.9818  1.3195
  571MOL0     H77056   9.143   0.761   8.316 -0.3258  0.8696  0.5065
  571MOL0     H77057   9.025   0.475   8.322 -2.4549 -0.6171 -1.1835
  571MOL0     H77058   9.147   0.543   8.209  0.0308  2.9059 -0.7896
  571MOL0     H77059   8.865   0.660   8.261 -0.3137 -0.4525  1.9727
  571MOL0     H77060   8.989   0.722   8.140  0.8095 -0.7627 -0.1752
  571MOL0     H77061   8.793   0.590   8.064 -0.7338 -0.1300 -0.5072
  571MOL0     H77062   8.883   0.439   8.130 -0.8860  0.2863  1.3804
  571MOL0     H77063   8.915   0.473   7.867  1.7678  1.7909 -2.3768
  571MOL0     H77064   8.981   0.620   7.901  1.8961 -0.1028  1.5725
  571MOL0     H77065   8.557   1.085   8.340  2.9803 -0.3152  0.3629
  571MOL0     H77066   8.314   1.124   8.443  0.5998  0.7157  0.8367
  571MOL0     H77067   8.032   0.974   8.798  0.5250  0.3284  1.3058
  571MOL0     H77068   7.801   0.989   8.848 -3.6660  1.8369  1.6196
  571MOL0     H77069   5.997   0.351   8.216  1.2963 -0.0698  0.0962
  571MOL0     H77070   5.793   0.289   8.098  1.6355 -0.0151  0.8270
  571MOL0     H77071   5.613   0.093   7.664  0.4043 -0.2453  1.1696
  571MOL0     H77072   5.405   0.039   7.553 -2.6335 -2.5481  1.5615
  571MOL0     H77073   5.126   0.366   7.585  0.3668  0.0265  3.6040
  571MOL0     H77074   4.993   0.243   7.634  0.2648 -2.1536  0.1169
  571MOL0     H77075   5.081   0.279   7.349  0.2198 -0.8842 -0.3980
  571MOL0     H77076   4.930   0.346   7.431 -1.0125 -1.7798  1.8583
  571MOL0     H77077   4.859   0.145   7.495  0.2966  1.2184  0.5990
  571MOL0     H77078   4.984   0.044   7.430 -0.7089 -1.0868 -2.2565
  571MOL0     H77079   4.804   0.215   7.253  1.1276  0.6072  0.9406
  571MOL0     H77080   4.944   0.130   7.186 -0.0148 -0.5240 -0.9545
  571MOL0     H77081   4.653  -0.149   7.147 -0.1462 -0.6619  0.8126
  571MOL0     H77082   5.203   0.347   7.771 -0.4071  0.9400 -2.1753
  571MOL0     H77083   5.432   0.397   8.025 -0.0381 -1.1370  0.1167
  571MOL0     H77084   5.461   0.514   7.892 -3.3964  1.6492 -2.8793
  571MOL0     H77085   5.298   0.479   7.923 -0.2198 -0.8923  1.2739
  572MOL0     O77086  11.234   1.566   1.231  0.0779 -0.0822 -0.0625
  572MOL0     C77087  11.171   1.669   1.238  0.2900  0.4918  0.1683
  572MOL0     O77088  11.215   1.785   1.296  0.0696  0.3036  0.3224
  572MOL0     C77089  11.349   1.799   1.331  0.1317 -0.3167  0.4244
  572MOL0     C77090  11.466   1.745   1.271  0.3510  0.2786  0.6741
  572MOL0     C77091  11.590   1.793   1.298  0.4058 -0.2246 -0.3485
  572MOL0     C77092  11.616   1.888   1.384  0.1444  0.1113 -0.4786
  572MOL0     O77093  11.749   1.936   1.396 -0.0153 -0.2702  0.7939
  572MOL0     C77094  11.787   1.966   1.531  0.1889 -0.2393  0.2509
  572MOL0     C77095  11.935   1.938   1.555  1.0018  0.1026  0.0366
  572MOL0     C77096  11.995   2.044   1.652 -0.4412 -0.6315 -0.5363
  572MOL0     C77097  12.150   2.028   1.683  0.2579  0.1486 -0.2791
  572MOL0     C77098  12.217   2.146   1.761  0.3813 -0.3191 -0.3283
  572MOL0     C77099  12.241   2.267   1.672  0.0101 -0.1865 -0.6042
  572MOL0     C77100  12.296   2.383   1.748  0.4995 -0.6402  0.2188
  572MOL0     C77101  12.421   2.364   1.820 -0.7784  0.5528 -1.1754
  572MOL0     N77102  12.479   2.486   1.878 -0.3926 -0.3645  1.1354
  572MOL0     C77103  12.537   2.590   1.795 -0.0244 -0.3061 -0.2389
  572MOL0     C77104  12.569   2.686   1.881  0.6716 -0.7040  0.4865
  572MOL0     C77105  12.616   2.828   1.842  0.4252  0.7856 -0.1149
  572MOL0     C77106  12.698   2.898   1.955  0.1340  0.8572  0.9682
  572MOL0     C77107  12.792   3.006   1.894  0.4403  0.6586 -0.0922
  572MOL0     C77108  12.712   3.108   1.816  0.2426 -0.2395  0.7817
  572MOL0     O77109  12.802   3.180   1.731  0.0204  0.0227  0.8099
  572MOL0     C77110  12.877   3.107   1.639  0.1611 -0.3256 -0.1051
  572MOL0     C77111  12.839   2.997   1.568 -0.3052 -0.0795 -0.6197
  572MOL0     C77112  12.944   2.918   1.500  1.0313 -0.4879  0.3892
  572MOL0     C77113  13.076   2.961   1.489  0.1239  0.3498  0.8065
  572MOL0     C77114  13.173   2.872   1.434  0.0681  0.9546 -0.2694
  572MOL0     O77115  13.125   2.764   1.372  0.4700 -0.3769  0.2311
  572MOL0     C77116  13.209   2.668   1.318 -0.0073 -0.0245  0.1881
  572MOL0     C77117  13.152   2.545   1.292 -0.1649  0.0816 -0.0003
  572MOL0     C77118  13.230   2.440   1.233 -0.1077  0.0061 -1.0767
  572MOL0     C77119  13.366   2.450   1.205  0.0911 -0.0478 -0.4723
  572MOL0     O77120  13.445   2.360   1.139  0.9833  0.3146  0.3776
  572MOL0     C77121  13.400   2.222   1.151 -0.2478  0.0806  0.7718
  572MOL0     C77122  13.511   2.121   1.117 -0.3152 -0.7628  0.4600
  572MOL0     C77123  13.610   2.123   1.233 -0.7166  0.4638  1.1845
  572MOL0     C77124  13.724   2.021   1.198  0.4152 -0.2282  0.0468
  572MOL0     C77125  13.817   2.003   1.321  0.1540 -0.5980  0.4864
  572MOL0     C77126  13.935   1.922   1.283  0.3206 -0.4386  0.1309
  572MOL0     C77127  14.050   2.017   1.244 -0.7096  0.4299 -0.2753
  572MOL0     C77128  14.181   1.946   1.205  0.0076 -0.6030 -0.0100
  572MOL0    Cl77129  14.311   2.074   1.210 -0.2672 -0.0705  0.1270
  572MOL0     C77130  13.417   2.577   1.227 -0.8686 -0.4879 -0.2358
  572MOL0     C77131  13.346   2.685   1.275  0.6977  0.1934  0.0887
  572MOL0     O77132  13.287   2.890   1.473  0.2439  0.4502 -0.4717
  572MOL0     C77133  13.103   3.087   1.546  0.9890  0.5835 -0.3349
  572MOL0     C77134  13.005   3.160   1.618  0.4130  0.2369 -0.4281
  572MOL0     N77135  12.558   2.633   2.012  0.4512 -0.2330 -0.0538
  572MOL0     N77136  12.493   2.521   2.008  0.5400  0.4146 -0.1284
  572MOL0     C77137  11.503   1.953   1.450 -0.1220  1.0795  0.2915
  572MOL0     C77138  11.365   1.907   1.419  0.1300 -0.3610 -0.1454
  572MOL0     C77139  11.027   1.669   1.190  0.3197  0.0874  0.7428
  572MOL0     C77140  10.954   1.786   1.180  0.4937 -0.2297 -0.3487
  572MOL0     C77141  10.813   1.795   1.155  0.1967  0.3928  0.1936
  572MOL0     C77142  10.753   1.689   1.093  0.4376  0.5412 -0.0944
  572MOL0     O77143  10.638   1.711   1.031  0.2529 -0.5458 -0.5244
  572MOL0     C77144  10.580   1.598   0.962  0.1526  0.3421  0.2120
  572MOL0     C77145  10.430   1.620   0.926  0.6475  0.1578 -0.3580
  572MOL0     C77146  10.354   1.661   1.050  0.2642  0.5872 -0.1337
  572MOL0     C77147  10.367   1.549   1.151  0.2163 -1.1005 -0.1790
  572MOL0     C77148  10.239   1.538   1.220 -0.2514  0.1640  0.3441
  572MOL0     C77149  10.124   1.515   1.249 -0.1050 -0.5771 -0.5463
  572MOL0     C77150  10.830   1.564   1.096  0.1341 -0.5565  0.9118
  572MOL0     C77151  10.962   1.551   1.143  0.2704  0.2433  0.5675
  572MOL0     C77152  11.023   1.413   1.131 -0.0822 -0.0347 -0.1371
  572MOL0     H77153  11.452   1.668   1.195 -2.3244  0.4988  0.8523
  572MOL0     H77154  11.679   1.747   1.256 -0.3831 -2.3167  0.1104
  572MOL0     H77155  11.776   2.075   1.540 -1.9815 -0.4934  1.4050
  572MOL0     H77156  11.725   1.919   1.608 -0.0805 -0.1909  0.0666
  572MOL0     H77157  11.991   1.941   1.462 -0.4337  2.2610 -0.8300
  572MOL0     H77158  11.954   1.841   1.602  3.1436  0.6960  0.5138
  572MOL0     H77159  11.933   2.056   1.741 -0.7421 -0.4843 -0.7663
  572MOL0     H77160  11.989   2.134   1.590 -0.3398 -0.6527 -0.5770
  572MOL0     H77161  12.154   1.943   1.752 -0.4577 -0.1319 -0.5791
  572MOL0     H77162  12.202   2.004   1.590 -0.1838 -0.0179 -0.4872
  572MOL0     H77163  12.155   2.170   1.848  1.3791 -1.5121  0.7822
  572MOL0     H77164  12.312   2.108   1.802 -0.6088 -2.5126  0.0742
  572MOL0     H77165  12.314   2.233   1.597 -1.2426 -0.0439 -1.9388
  572MOL0     H77166  12.151   2.297   1.618  0.8062  1.1587 -1.2494
  572MOL0     H77167  12.218   2.422   1.814  1.6184  2.2752 -0.0204
  572MOL0     H77168  12.311   2.463   1.674 -1.7787  1.8541  2.2527
  572MOL0     H77169  12.413   2.288   1.898 -1.5858  0.3459 -1.4493
  572MOL0     H77170  12.495   2.316   1.755  1.5768  1.0389  1.0180
  572MOL0     H77171  12.538   2.596   1.687 -1.0557  1.7704 -0.1843
  572MOL0     H77172  12.671   2.817   1.748  1.0897 -0.1308  0.3647
  572MOL0     H77173  12.529   2.891   1.822  0.1875  0.5269  0.0979
  572MOL0     H77174  12.633   2.935   2.035 -0.0405 -2.2285  2.3832
  572MOL0     H77175  12.766   2.826   2.001  2.1622  0.1675 -2.7020
  572MOL0     H77176  12.862   2.946   1.835  0.5927  0.1444  0.5973
  572MOL0     H77177  12.843   3.050   1.980  0.0413 -2.0932  1.6812
  572MOL0     H77178  12.648   3.172   1.878 -0.3570  1.1953 -1.2091
  572MOL0     H77179  12.642   3.058   1.748 -0.0197 -0.0877  0.9384
  572MOL0     H77180  12.738   2.957   1.576 -1.6794  1.6131 -5.6581
  572MOL0     H77181  12.911   2.826   1.453 -3.5500  1.0369  0.0305
  572MOL0     H77182  13.046   2.541   1.316 -0.7004 -1.1840 -2.2999
  572MOL0     H77183  13.174   2.351   1.204 -1.2343  0.2737  0.2080
  572MOL0     H77184  13.364   2.205   1.253  0.0591 -1.3261  0.6716
  572MOL0     H77185  13.316   2.193   1.087 -1.7160  0.4886  2.4123
  572MOL0     H77186  13.461   2.023   1.110  0.5235 -1.4272  2.7496
  572MOL0     H77187  13.553   2.142   1.018 -1.3279 -2.0559 -0.2806
  572MOL0     H77188  13.648   2.223   1.253 -0.9586  0.8619 -0.2960
  572MOL0     H77189  13.549   2.080   1.313 -0.0539 -0.8279  1.0234
  572MOL0     H77190  13.774   2.080   1.121  0.6384  3.5589  2.8173
  572MOL0     H77191  13.691   1.924   1.159  1.9097 -0.0863 -1.7114
  572MOL0     H77192  13.767   1.948   1.402 -0.4942 -0.2901  0.3032
  572MOL0     H77193  13.844   2.099   1.365  1.7872 -1.3386  1.1956
  572MOL0     H77194  13.975   1.890   1.380  4.3794  1.9855 -0.4901
  572MOL0     H77195  13.919   1.838   1.215 -0.1124 -0.2290 -0.0303
  572MOL0     H77196  14.084   2.089   1.319  0.0906  0.9013 -1.0643
  572MOL0     H77197  14.018   2.084   1.163 -0.3536  0.8015 -0.1138
  572MOL0     H77198  14.212   1.869   1.276 -0.3201  1.0289  2.0046
  572MOL0     H77199  14.176   1.908   1.103 -0.6275  1.0680 -0.6436
  572MOL0     H77200  13.518   2.601   1.195 -1.5188  1.1901 -1.1506
  572MOL0     H77201  13.397   2.781   1.276  1.0363  0.0314  1.6763
  572MOL0     H77202  13.207   3.119   1.549  0.7393  1.3839  0.7349
  572MOL0     H77203  13.039   3.253   1.663  0.4551 -0.7129  1.6281
  572MOL0     H77204  11.526   2.042   1.507  0.9739  1.4957 -0.7545
  572MOL0     H77205  11.277   1.961   1.453  1.2871  1.7940 -0.3726
  572MOL0     H77206  10.999   1.876   1.222 -0.6925 -0.6201  1.9165
  572MOL0     H77207  10.752   1.884   1.169 -2.4262 -1.4196  1.0370
  572MOL0     H77208  10.588   1.501   1.013 -1.7258 -0.0423 -0.1186
  572MOL0     H77209  10.631   1.580   0.867 -1.1077 -0.8502 -0.2730
  572MOL0     H77210  10.393   1.535   0.868 -1.2418  0.3923  0.4175
  572MOL0     H77211  10.423   1.709   0.863 -2.8085 -0.1489 -0.6168
  572MOL0     H77212  10.249   1.669   1.017 -0.2423 -2.0221  0.5836
  572MOL0     H77213  10.375   1.761   1.089 -0.5413  0.7804 -0.1774
  572MOL0     H77214  10.402   1.458   1.101  0.5099 -1.5160  0.7496
  572MOL0     H77215  10.446   1.577   1.222  0.7647 -3.0141  0.0225
  572MOL0     H77216  10.018   1.501   1.257 -0.3115  1.0939  0.0990
  572MOL0     H77217  10.792   1.477   1.044  2.2138 -1.2453  0.4782
  572MOL0     H77218  10.961   1.346   1.071  1.8202 -1.3315 -0.7362
  572MOL0     H77219  11.118   1.428   1.079 -0.4816  0.6227 -0.6915
  572MOL0     H77220  11.033   1.370   1.231  1.1831 -1.1233 -0.6919
  573MOL0     O77221   3.790   4.464   6.554 -0.6761 -0.5690  0.4998
  573MOL0     C77222   3.872   4.411   6.633  0.0609  0.1367 -0.3567
  573MOL0     O77223   4.007   4.435   6.636  1.0972  0.0643  0.1884
  573MOL0     C77224   4.065   4.542   6.583  0.6218 -0.1384 -0.3802
  573MOL0     C77225   4.140   4.631   6.662  0.6375 -0.0113 -0.0531
  573MOL0     C77226   4.214   4.737   6.594 -0.3414  0.1955  0.2415
  573MOL0     C77227   4.218   4.748   6.451 -0.1757 -1.4913 -0.5737
  573MOL0     O77228   4.303   4.849   6.402 -0.0924 -0.1367 -0.2062
  573MOL0     C77229   4.251   4.921   6.291  0.4890 -0.2880 -0.4571
  573MOL0     C77230   4.314   5.061   6.285 -0.1160 -0.3433 -0.0922
  573MOL0     C77231   4.468   5.053   6.286 -0.5636 -0.2756  0.3518
  573MOL0     C77232   4.531   5.182   6.237  0.5847  0.0775  0.1038
  573MOL0     C77233   4.674   5.161   6.196 -0.5171  0.5235 -0.1392
  573MOL0     C77234   4.728   5.277   6.122 -0.4386 -0.1744 -0.1718
  573MOL0     C77235   4.884   5.253   6.110  1.6324  0.5490 -0.1466
  573MOL0     C77236   4.964   5.377   6.143  0.3939  0.3313 -0.2259
  573MOL0     N77237   5.108   5.371   6.100  0.6425  0.5782 -0.3889
  573MOL0     C77238   5.217   5.328   6.179  0.5123  0.6890  0.4536
  573MOL0     C77239   5.320   5.348   6.089 -0.4490 -0.6518  0.1378
  573MOL0     C77240   5.474   5.318   6.114 -0.0446 -0.2063 -0.3751
  573MOL0     C77241   5.563   5.436   6.080 -0.1948  0.3041  0.0694
  573MOL0     C77242   5.563   5.504   5.933  0.1565 -0.3991 -0.1478
  573MOL0     C77243   5.664   5.622   5.930 -0.6540 -0.2335 -0.0648
  573MOL0     O77244   5.794   5.566   5.890  0.2049 -0.6976 -0.4684
  573MOL0     C77245   5.920   5.625   5.931 -1.3238  0.0170 -0.2153
  573MOL0     C77246   5.941   5.759   5.971  0.6378 -0.5892  0.6577
  573MOL0     C77247   6.068   5.812   6.004  0.3074  0.8209  0.1963
  573MOL0     C77248   6.178   5.740   5.981  0.0745  0.6177  0.1645
  573MOL0     C77249   6.314   5.804   5.980 -0.1813 -0.0426 -0.0349
  573MOL0     O77250   6.419   5.724   5.940 -0.3053  0.5788 -0.7371
  573MOL0     C77251   6.549   5.764   5.942 -0.0131  0.0887 -0.5913
  573MOL0     C77252   6.617   5.794   6.057  0.6225  0.4949  0.6123
  573MOL0     C77253   6.756   5.828   6.048  0.9723 -0.2599  0.2576
  573MOL0     C77254   6.822   5.830   5.924  0.5826  0.0288  0.1176
  573MOL0     O77255   6.953   5.841   5.905 -0.2471 -0.2238  0.0228
  573MOL0     C77256   7.026   5.910   6.000  0.3282 -0.0368 -1.0699
  573MOL0     C77257   7.176   5.896   5.981 -0.0591  0.2876  0.8184
  573MOL0     C77258   7.253   5.994   6.068 -0.0495  0.2240  0.4685
  573MOL0     C77259   7.401   5.991   6.044  0.4882  0.0569 -0.3391
  573MOL0     C77260   7.457   5.856   6.081  0.0159 -0.4232 -0.1333
  573MOL0     C77261   7.588   5.866   6.152 -0.2333  0.1801  0.7716
  573MOL0     C77262   7.706   5.941   6.084  0.8849  0.2968 -0.4165
  573MOL0     C77263   7.836   5.926   6.169  0.2898 -0.0380  0.7480
  573MOL0    Cl77264   7.862   6.055   6.289  0.0417  0.2750  0.1998
  573MOL0     C77265   6.741   5.806   5.814  0.7181  0.8110  0.1293
  573MOL0     C77266   6.607   5.768   5.819 -0.3888  0.4129  0.1390
  573MOL0     O77267   6.318   5.919   6.012  0.2275  0.5287  0.0531
  573MOL0     C77268   6.158   5.608   5.952 -1.0437  0.3099  0.4129
  573MOL0     C77269   6.038   5.544   5.928  0.2985  0.1335 -0.4249
  573MOL0     N77270   5.275   5.415   5.978 -0.0368  0.4429 -0.0463
  573MOL0     N77271   5.146   5.432   5.985  0.1065 -0.0580 -0.2054
  573MOL0     C77272   4.156   4.658   6.378  0.1853  0.1023  0.0416
  573MOL0     C77273   4.078   4.550   6.442 -0.1273 -0.4429  0.2450
  573MOL0     C77274   3.823   4.310   6.734 -0.1436 -0.4027 -0.0262
  573MOL0     C77275   3.900   4.295   6.852  0.1684  0.2396  0.1044
  573MOL0     C77276   3.870   4.202   6.954 -0.2178  0.3366 -0.4788
  573MOL0     C77277   3.771   4.108   6.932 -0.1699 -0.6919  0.6103
  573MOL0     O77278   3.730   4.016   7.024 -0.2231  0.7928  0.4597
  573MOL0     C77279   3.807   4.011   7.148 -0.2657 -0.6425 -0.0234
  573MOL0     C77280   3.767   3.907   7.254  0.0927 -0.1835 -0.0370
  573MOL0     C77281   3.630   3.946   7.311 -0.0311  0.6594 -1.2807
  573MOL0     C77282   3.582   3.836   7.398 -0.4013  0.6776 -0.0764
  573MOL0     C77283   3.436   3.843   7.434  0.0303  0.6088 -0.1166
  573MOL0     C77284   3.321   3.846   7.463  0.3257 -0.5342 -0.1199
  573MOL0     C77285   3.691   4.125   6.815  0.1515  0.1632  0.4761
  573MOL0     C77286   3.708   4.234   6.728 -0.0999  0.8382  1.3534
  573MOL0     C77287   3.593   4.250   6.625 -0.0604  0.3552 -0.9684
  573MOL0     H77288   4.126   4.628   6.770 -0.0149 -1.9847 -0.1507
  573MOL0     H77289   4.259   4.808   6.662 -1.7012  0.6930  0.6486
  573MOL0     H77290   4.278   4.867   6.200  2.2545  1.0729 -0.8040
  573MOL0     H77291   4.143   4.930   6.298  0.3803  0.0894 -2.1675
  573MOL0     H77292   4.281   5.117   6.373 -1.0647 -2.5078  0.9944
  573MOL0     H77293   4.272   5.112   6.198 -4.5833 -1.9554  0.8815
  573MOL0     H77294   4.488   4.970   6.216 -3.4385 -0.1544 -0.7605
  573MOL0     H77295   4.520   5.027   6.378  2.8012 -1.0266 -1.5827
  573MOL0     H77296   4.481   5.220   6.147  1.7508  3.5044  0.7481
  573MOL0     H77297   4.511   5.258   6.314 -1.4746  0.2120 -0.4821
  573MOL0     H77298   4.732   5.149   6.287  0.1552  0.5448 -0.5633
  573MOL0     H77299   4.690   5.072   6.134 -3.1832 -1.9044  2.3593
  573MOL0     H77300   4.685   5.290   6.023  0.7052  1.2529 -0.5350
  573MOL0     H77301   4.716   5.374   6.172  1.8814  2.3100 -3.9144
  573MOL0     H77302   4.921   5.218   6.013  0.4254  1.3323 -0.9149
  573MOL0     H77303   4.916   5.176   6.181 -2.1063 -1.8309 -0.7609
  573MOL0     H77304   4.920   5.464   6.092 -1.6368  0.4185  1.5365
  573MOL0     H77305   4.963   5.397   6.250  0.8795 -3.0524  0.5126
  573MOL0     H77306   5.206   5.272   6.272 -2.3664 -2.7236 -1.6574
  573MOL0     H77307   5.497   5.290   6.218  0.8495  3.5575  0.6024
  573MOL0     H77308   5.501   5.240   6.043  0.7623  2.3041 -2.9926
  573MOL0     H77309   5.534   5.515   6.150 -1.4614 -0.9751  1.0498
  573MOL0     H77310   5.666   5.413   6.108 -0.8877 -1.5813  1.2386
  573MOL0     H77311   5.467   5.553   5.916  0.3412  0.2718  0.6572
  573MOL0     H77312   5.585   5.432   5.854 -0.5357 -0.5712 -0.1960
  573MOL0     H77313   5.669   5.657   6.034  0.6996  1.5346 -0.6759
  573MOL0     H77314   5.643   5.707   5.865  0.8626 -2.0168 -3.1130
  573MOL0     H77315   5.850   5.819   5.974  0.5146 -0.5023 -2.4037
  573MOL0     H77316   6.068   5.917   6.033 -1.1396  0.3224  2.2218
  573MOL0     H77317   6.570   5.796   6.155 -0.8656 -0.2285 -0.0529
  573MOL0     H77318   6.802   5.865   6.139  0.0283  2.3900 -0.2569
  573MOL0     H77319   6.989   6.012   6.004 -0.7340 -0.4394  0.8318
  573MOL0     H77320   7.005   5.866   6.098 -1.4763  0.6315 -1.1261
  573MOL0     H77321   7.211   5.792   5.980  0.4312  0.4270 -1.8511
  573MOL0     H77322   7.196   5.923   5.877 -1.5651 -3.0872 -0.4955
  573MOL0     H77323   7.212   6.094   6.049 -2.2671 -0.5522  0.9111
  573MOL0     H77324   7.236   5.979   6.175  3.7064  1.7182  1.4508
  573MOL0     H77325   7.448   6.071   6.101  0.4817  1.3890 -2.1016
  573MOL0     H77326   7.427   6.006   5.938 -0.1848 -1.7851 -0.8054
  573MOL0     H77327   7.491   5.798   5.994  0.9944  0.3300 -0.2618
  573MOL0     H77328   7.386   5.799   6.141 -0.6494  0.4931 -0.0316
  573MOL0     H77329   7.577   5.894   6.257  0.1314 -0.2086  0.9157
  573MOL0     H77330   7.615   5.761   6.164 -0.5985  0.1894  1.7643
  573MOL0     H77331   7.695   6.049   6.071  1.0768  0.1615 -1.8561
  573MOL0     H77332   7.714   5.893   5.986  1.3321 -0.4213 -0.0397
  573MOL0     H77333   7.825   5.829   6.219 -2.0645  0.6903  1.7891
  573MOL0     H77334   7.923   5.926   6.103 -0.5293 -0.1638 -0.3619
  573MOL0     H77335   6.788   5.822   5.717 -1.7097  3.6766 -0.7255
  573MOL0     H77336   6.551   5.749   5.727  0.5305  0.6498 -0.4804
  573MOL0     H77337   6.248   5.546   5.953 -0.2693  1.3843  1.8728
  573MOL0     H77338   6.023   5.438   5.911  1.0062 -0.0179 -0.1486
  573MOL0     H77339   4.164   4.675   6.272 -0.1074 -0.8683 -0.1444
  573MOL0     H77340   4.044   4.463   6.387  1.8281 -1.7777  1.0288
  573MOL0     H77341   3.987   4.356   6.871  0.4766 -1.0043  3.2236
  573MOL0     H77342   3.947   4.197   7.030 -0.2389  0.4759 -0.4479
  573MOL0     H77343   3.816   4.106   7.202  0.7798  0.3027 -1.7598
  573MOL0     H77344   3.914   3.994   7.134  0.3508 -1.5980  4.4304
  573MOL0     H77345   3.850   3.902   7.325 -0.2585 -0.6085  0.3528
  573MOL0     H77346   3.769   3.805   7.215 -1.2495 -0.1952 -0.1410
  573MOL0     H77347   3.566   3.955   7.223 -0.2935 -0.1882 -1.1887
  573MOL0     H77348   3.623   4.033   7.376 -3.5748  0.2661 -0.9145
  573MOL0     H77349   3.602   3.745   7.341 -0.5179  1.6310 -1.7066
  573MOL0     H77350   3.634   3.839   7.494  0.5873  1.7474 -0.6163
  573MOL0     H77351   3.220   3.837   7.498 -0.5300 -1.5664 -2.6592
  573MOL0     H77352   3.601   4.065   6.811 -1.1143  2.0172  0.1335
  573MOL0     H77353   3.591   4.169   6.552  0.9957 -1.0869  0.5230
  573MOL0     H77354   3.500   4.248   6.683  0.3689  0.2730 -0.2771
  573MOL0     H77355   3.600   4.353   6.588  1.2535  1.1051  1.1639
  574MOL0     O77356   0.701   1.495   5.740  1.1419 -0.3816 -0.4330
  574MOL0     C77357   0.689   1.390   5.677  0.5445  0.2760 -0.1490
  574MOL0     O77358   0.776   1.281   5.668 -0.2539 -0.1729  0.0232
  574MOL0     C77359   0.903   1.287   5.725  0.4499 -0.1795  0.6153
  574MOL0     C77360   0.991   1.405   5.744  0.0515  0.6041 -0.6726
  574MOL0     C77361   1.115   1.389   5.812  1.0498  0.1146 -0.4861
  574MOL0     C77362   1.156   1.269   5.858  0.3379  0.5190 -0.2918
  574MOL0     O77363   1.275   1.267   5.916 -0.5151  0.0555  0.0875
  574MOL0     C77364   1.297   1.174   6.023 -0.3093  0.3664 -0.0385
  574MOL0     C77365   1.356   1.260   6.139  0.1519  1.0709 -0.1456
  574MOL0     C77366   1.348   1.182   6.277  0.6402 -0.2301 -0.2346
  574MOL0     C77367   1.429   1.045   6.266 -0.3538 -0.6081  0.0681
  574MOL0     C77368   1.389   0.934   6.374 -0.2347  0.3637  0.4021
  574MOL0     C77369   1.264   0.846   6.330  0.0968 -0.4610  0.3683
  574MOL0     C77370   1.171   0.806   6.438  0.1748  0.5932 -0.1886
  574MOL0     C77371   1.222   0.676   6.497 -0.0865 -0.0471  0.6035
  574MOL0     N77372   1.155   0.660   6.627  1.2496 -0.1653 -0.5401
  574MOL0     C77373   1.177   0.729   6.745 -1.4513  0.9370  0.6377
  574MOL0     C77374   1.101   0.682   6.843 -0.0509  0.2869  0.6039
  574MOL0     C77375   1.091   0.742   6.977  0.5142  0.0465 -0.0571
  574MOL0     C77376   1.232   0.716   7.048  0.7818  0.5769 -0.1156
  574MOL0     C77377   1.236   0.585   7.118 -1.0695 -0.3731 -0.1348
  574MOL0     C77378   1.285   0.466   7.034  0.1124 -0.8960  0.0388
  574MOL0     O77379   1.426   0.483   7.028  0.2774 -0.1516 -0.0829
  574MOL0     C77380   1.499   0.386   6.959 -0.2274 -0.7440 -1.3034
  574MOL0     C77381   1.450   0.278   6.884  0.3536 -0.6263  0.2931
  574MOL0     C77382   1.544   0.194   6.821 -0.8157  0.5999 -0.7024
  574MOL0     C77383   1.680   0.212   6.825 -0.0042 -0.1446  0.8353
  574MOL0     C77384   1.780   0.123   6.764 -0.7833  0.2081 -0.5385
  574MOL0     O77385   1.732   0.003   6.703 -1.0184 -0.0379 -0.0589
  574MOL0     C77386   1.826  -0.087   6.654  0.1769  0.8149 -0.2155
  574MOL0     C77387   1.793  -0.142   6.529  0.1118  0.4158  0.3726
  574MOL0     C77388   1.881  -0.216   6.453 -0.2399  0.4464  0.1469
  574MOL0     C77389   2.001  -0.261   6.514  0.4985  0.5049 -0.3126
  574MOL0     O77390   2.090  -0.324   6.440  0.0938  0.3981 -0.0739
  574MOL0     C77391   2.224  -0.331   6.497 -0.5503  0.3333  1.0594
  574MOL0     C77392   2.318  -0.358   6.380 -0.0261  0.9558  0.1017
  574MOL0     C77393   2.463  -0.397   6.417  0.8239 -0.6713 -0.4038
  574MOL0     C77394   2.529  -0.462   6.295 -0.4141 -0.4235  0.2452
  574MOL0     C77395   2.681  -0.489   6.312 -0.3319  0.2077  0.4603
  574MOL0     C77396   2.717  -0.557   6.183 -0.9599  0.6858 -0.6890
  574MOL0     C77397   2.866  -0.598   6.161  0.4219 -0.0349  0.7023
  574MOL0     C77398   2.924  -0.691   6.269  0.2925  0.9916  0.0695
  574MOL0    Cl77399   2.836  -0.851   6.278 -0.2858 -0.0113  0.0127
  574MOL0     C77400   2.014  -0.226   6.656 -0.6539  1.0735  0.4353
  574MOL0     C77401   1.939  -0.131   6.722 -0.3407 -0.2179  0.2306
  574MOL0     O77402   1.897   0.152   6.770 -0.4564  0.0973  0.4502
  574MOL0     C77403   1.725   0.319   6.908 -0.2353 -0.7147  0.7155
  574MOL0     C77404   1.634   0.410   6.967  0.0143 -0.2210 -0.3710
  574MOL0     N77405   1.022   0.588   6.786  0.8085  0.5240 -0.0394
  574MOL0     N77406   1.057   0.576   6.660 -0.2693  0.1185 -1.0671
  574MOL0     C77407   1.078   1.159   5.833  0.4556  0.8516  0.1315
  574MOL0     C77408   0.944   1.166   5.772 -0.0434  0.0169  0.5051
  574MOL0     C77409   0.561   1.356   5.605 -0.2906  0.1854 -0.4266
  574MOL0     C77410   0.553   1.250   5.517 -0.6502 -0.2457  0.0896
  574MOL0     C77411   0.436   1.212   5.450  0.0988 -0.6046 -0.5176
  574MOL0     C77412   0.322   1.283   5.467  0.1545 -0.4903 -0.1977
  574MOL0     O77413   0.212   1.246   5.393 -0.0282 -0.3280 -0.6914
  574MOL0     C77414   0.081   1.263   5.460  0.4220 -0.2036  0.0836
  574MOL0     C77415   0.002   1.141   5.411  1.2689  0.2673 -1.1336
  574MOL0     C77416   0.063   1.007   5.449  0.4428  0.3604 -0.3147
  574MOL0     C77417  -0.037   0.891   5.439 -0.2074  0.1180 -0.0549
  574MOL0     C77418   0.040   0.763   5.455  0.4173 -0.0381  0.0017
  574MOL0     C77419   0.095   0.661   5.457  0.1293 -1.1504  0.1048
  574MOL0     C77420   0.321   1.390   5.561  0.5058  0.7843 -0.5744
  574MOL0     C77421   0.438   1.428   5.624  0.0891 -0.3577 -0.6573
  574MOL0     C77422   0.418   1.541   5.729  0.5385 -0.5721 -0.3778
  574MOL0     H77423   0.954   1.503   5.717 -2.1193  0.1452  0.3729
  574MOL0     H77424   1.171   1.479   5.835 -1.0804  1.1918  0.8420
  574MOL0     H77425   1.210   1.118   6.057 -0.3647  0.6950  0.3872
  574MOL0     H77426   1.376   1.104   5.995 -1.0174  0.0130 -1.1826
  574MOL0     H77427   1.315   1.362   6.143 -3.0741 -0.1234 -0.1702
  574MOL0     H77428   1.461   1.275   6.109  0.0744  3.3794  0.5497
  574MOL0     H77429   1.244   1.169   6.307  0.4005 -1.3303 -1.4441
  574MOL0     H77430   1.408   1.237   6.351  1.6732  1.6308 -2.3411
  574MOL0     H77431   1.421   0.992   6.170 -0.1848 -1.1347  0.3405
  574MOL0     H77432   1.534   1.073   6.277 -0.6366  0.7441 -0.4465
  574MOL0     H77433   1.470   0.863   6.389 -0.9748 -0.4172  0.7912
  574MOL0     H77434   1.378   0.972   6.476  1.6722 -1.8448  1.5038
  574MOL0     H77435   1.210   0.915   6.265 -0.1909 -1.8850 -0.9498
  574MOL0     H77436   1.288   0.761   6.266 -0.2156 -0.3077  0.0442
  574MOL0     H77437   1.072   0.787   6.395  0.2677 -1.0632  0.2500
  574MOL0     H77438   1.163   0.886   6.512 -0.9236 -0.8973  1.3920
  574MOL0     H77439   1.197   0.591   6.433  0.4798  0.3009 -0.0916
  574MOL0     H77440   1.330   0.686   6.513 -0.2903  0.1610  2.0260
  574MOL0     H77441   1.243   0.815   6.751 -0.6436  0.3945 -0.2436
  574MOL0     H77442   1.077   0.849   6.959  1.6388  0.6741  2.4084
  574MOL0     H77443   1.008   0.692   7.028 -1.3384  1.0310 -1.9048
  574MOL0     H77444   1.321   0.735   6.987  1.4242  0.0517  0.6401
  574MOL0     H77445   1.243   0.796   7.122  1.4413  1.1366 -0.8039
  574MOL0     H77446   1.136   0.570   7.160 -0.8179 -1.2722  0.1677
  574MOL0     H77447   1.307   0.587   7.201 -0.0136 -1.4618 -0.9626
  574MOL0     H77448   1.239   0.463   6.935  3.4349  0.1477 -1.7268
  574MOL0     H77449   1.269   0.373   7.088 -0.2125  0.6285  2.7801
  574MOL0     H77450   1.342   0.268   6.875  0.2697  1.0743 -1.4412
  574MOL0     H77451   1.509   0.111   6.760 -0.6035 -0.7964  1.0261
  574MOL0     H77452   1.703  -0.114   6.475  0.3719 -1.2268 -1.0155
  574MOL0     H77453   1.866  -0.252   6.352  5.0573 -1.1405 -0.4181
  574MOL0     H77454   2.261  -0.233   6.528 -2.0774  1.1617  0.4142
  574MOL0     H77455   2.233  -0.418   6.563  1.5172 -1.9136 -1.8951
  574MOL0     H77456   2.277  -0.449   6.334 -2.7518  2.8820 -1.5642
  574MOL0     H77457   2.317  -0.277   6.307 -1.4826  1.0667  0.2167
  574MOL0     H77458   2.520  -0.309   6.448 -0.2330 -0.0232 -0.2655
  574MOL0     H77459   2.457  -0.477   6.492 -2.3228 -1.6095 -1.5176
  574MOL0     H77460   2.514  -0.400   6.207 -1.2753  0.2788  0.8802
  574MOL0     H77461   2.475  -0.555   6.275  0.9939 -1.1826 -0.1894
  574MOL0     H77462   2.706  -0.565   6.386  0.2845 -0.2551 -0.2185
  574MOL0     H77463   2.733  -0.397   6.340 -0.2532 -0.0102  1.0521
  574MOL0     H77464   2.657  -0.646   6.163 -0.2733  0.8293 -3.8427
  574MOL0     H77465   2.694  -0.483   6.106 -0.6268  1.1815 -0.3172
  574MOL0     H77466   2.938  -0.516   6.153 -1.0368  1.1907 -0.4306
  574MOL0     H77467   2.862  -0.645   6.063 -0.3323 -1.2354  1.2914
  574MOL0     H77468   3.031  -0.709   6.255  0.3383  0.6439  0.8270
  574MOL0     H77469   2.922  -0.642   6.367  2.7222  3.4466 -0.9706
  574MOL0     H77470   2.104  -0.250   6.712 -2.2985 -3.4880  1.5640
  574MOL0     H77471   1.977  -0.079   6.810  2.7892 -1.2409 -0.3833
  574MOL0     H77472   1.831   0.340   6.920 -0.2091  0.6688 -1.4345
  574MOL0     H77473   1.666   0.492   7.030 -0.6949 -1.4303  1.6854
  574MOL0     H77474   1.093   1.059   5.872 -1.0315 -1.5287 -4.6489
  574MOL0     H77475   0.881   1.079   5.760  2.6429 -1.8419 -0.9156
  574MOL0     H77476   0.642   1.196   5.488 -0.0636 -1.0499  3.0837
  574MOL0     H77477   0.434   1.121   5.391 -0.6464 -1.3684  0.6392
  574MOL0     H77478   0.035   1.360   5.437  0.0931 -0.0205  1.3966
  574MOL0     H77479   0.078   1.266   5.570  1.4769  0.8986  0.1129
  574MOL0     H77480  -0.014   1.149   5.303 -1.7702  0.8909 -0.7050
  574MOL0     H77481  -0.094   1.154   5.460  2.6945 -0.1842  2.0342
  574MOL0     H77482   0.099   1.004   5.552  1.5109 -0.0105 -0.6871
  574MOL0     H77483   0.142   0.983   5.377 -0.2444 -1.0922 -0.6068
  574MOL0     H77484  -0.092   0.907   5.532  0.6881  0.0404  0.5024
  574MOL0     H77485  -0.107   0.908   5.357  0.0326  0.7939 -0.1260
  574MOL0     H77486   0.137   0.562   5.454 -0.6773 -1.4888 -1.5287
  574MOL0     H77487   0.225   1.438   5.578 -0.3740  0.9135 -4.8448
  574MOL0     H77488   0.310   1.538   5.744  0.3652 -1.0050 -1.6188
  574MOL0     H77489   0.459   1.518   5.828 -0.1463  0.0201  0.0594
  574MOL0     H77490   0.435   1.643   5.694 -0.7858 -0.2714 -0.1863
  575MOL0     O77491   4.953   2.726   9.858  0.6607 -0.2229 -0.4333
  575MOL0     C77492   4.986   2.828   9.921 -0.7847 -0.4927 -0.0536
  575MOL0     O77493   4.949   2.953   9.881 -0.2229 -0.4043 -0.3694
  575MOL0     C77494   4.847   2.956   9.791 -0.2890  0.5294  0.6633
  575MOL0     C77495   4.863   3.012   9.664 -0.1809 -0.0909 -0.9393
  575MOL0     C77496   4.756   3.037   9.580  0.1236 -0.0028  0.6222
  575MOL0     C77497   4.626   3.013   9.618 -0.6240  1.1263  0.1062
  575MOL0     O77498   4.532   3.044   9.527  0.2430  0.6491 -0.0582
  575MOL0     C77499   4.489   2.937   9.439  0.0462  0.1084 -0.1191
  575MOL0     C77500   4.376   2.980   9.355 -1.2665  0.3186 -0.5186
  575MOL0     C77501   4.314   2.864   9.281  0.0108  0.5029 -0.3482
  575MOL0     C77502   4.200   2.907   9.194 -0.2194  0.8303  0.1289
  575MOL0     C77503   4.164   2.786   9.092  0.8620  0.5022 -0.0236
  575MOL0     C77504   4.041   2.832   9.012  0.3651 -0.0079  0.4350
  575MOL0     C77505   3.993   2.723   8.917 -0.4281  1.1792  0.8857
  575MOL0     C77506   3.921   2.769   8.795 -0.1428 -0.9060 -0.9931
  575MOL0     N77507   3.808   2.862   8.817  0.4117 -0.1194 -0.7669
  575MOL0     C77508   3.675   2.833   8.851 -0.7879 -0.0126  1.1323
  575MOL0     C77509   3.614   2.953   8.867 -0.0970 -0.1763  0.5054
  575MOL0     C77510   3.470   2.972   8.911 -0.7035 -0.1728  0.0566
  575MOL0     C77511   3.456   2.934   9.065  0.7336  0.1779  1.0243
  575MOL0     C77512   3.494   3.048   9.171 -0.8926 -0.0506 -0.5678
  575MOL0     C77513   3.496   2.985   9.308 -0.6459 -0.1623  0.4748
  575MOL0     O77514   3.604   2.897   9.334 -0.5223 -0.6457  0.3840
  575MOL0     C77515   3.711   2.932   9.404  0.0216  0.0611 -0.4793
  575MOL0     C77516   3.800   2.826   9.438  0.5636 -0.0508 -0.3774
  575MOL0     C77517   3.908   2.839   9.525 -0.4434 -0.1176  0.1978
  575MOL0     C77518   3.935   2.963   9.585  0.6441 -0.2393 -0.1822
  575MOL0     C77519   4.048   2.993   9.673 -0.0645 -0.6926 -0.3157
  575MOL0     O77520   4.046   3.115   9.746  0.2094 -0.4094 -0.1721
  575MOL0     C77521   4.149   3.149   9.835  0.1885  0.6636 -0.0742
  575MOL0     C77522   4.284   3.127   9.804  0.1837 -0.2103 -0.4072
  575MOL0     C77523   4.386   3.163   9.898 -0.3708 -0.6621 -0.4415
  575MOL0     C77524   4.356   3.211  10.027 -0.1896 -1.0880  0.9203
  575MOL0     O77525   4.455   3.226  10.129  0.5507  0.2992  0.0543
  575MOL0     C77526   4.584   3.178  10.101  0.2911  0.3084  0.2625
  575MOL0     C77527   4.677   3.191  10.224 -0.1447 -0.5292  0.2813
  575MOL0     C77528   4.809   3.118  10.208 -0.5836  0.5985  0.0874
  575MOL0     C77529   4.876   3.078  10.349 -0.2095 -0.5712  0.0060
  575MOL0     C77530   4.815   2.958  10.418  0.5572 -0.8280 -0.3636
  575MOL0     C77531   4.815   2.823  10.350 -0.3389  0.6545 -0.2024
  575MOL0     C77532   4.700   2.732  10.396  0.9975 -0.4150 -0.3969
  575MOL0     C77533   4.715   2.594  10.332 -0.2508  0.5981 -0.4944
  575MOL0    Cl77534   4.865   2.498  10.396  0.1462 -0.1352  0.4139
  575MOL0     C77535   4.222   3.238  10.049  0.4558  0.2748  0.3502
  575MOL0     C77536   4.119   3.209   9.957 -0.7967  1.0154  0.9012
  575MOL0     O77537   4.127   2.903   9.687  0.9100 -0.7691 -0.3917
  575MOL0     C77538   3.841   3.070   9.552  0.2376  0.2189 -0.1712
  575MOL0     C77539   3.738   3.061   9.456 -0.8743  0.1149  0.5484
  575MOL0     N77540   3.700   3.055   8.849 -0.3636 -0.5326 -0.3319
  575MOL0     N77541   3.814   3.006   8.824  1.3834 -0.4500  0.3165
  575MOL0     C77542   4.601   2.966   9.744 -0.1253 -0.2843 -0.2646
  575MOL0     C77543   4.711   2.942   9.834  0.4101 -0.5682  0.4678
  575MOL0     C77544   5.074   2.830  10.044  0.1963  0.5871  0.5819
  575MOL0     C77545   5.133   2.946  10.079  0.7989 -0.5491 -0.2307
  575MOL0     C77546   5.214   2.956  10.191 -0.3992  0.7909 -0.3276
  575MOL0     C77547   5.246   2.854  10.270  0.1539  0.3686  0.0713
  575MOL0     O77548   5.339   2.873  10.369 -0.0802  0.3491 -0.3642
  575MOL0     C77549   5.282   2.919  10.496  0.0575 -0.1322  0.0047
  575MOL0     C77550   5.375   2.908  10.613  0.0894  0.4505 -0.4307
  575MOL0     C77551   5.493   2.999  10.585  0.3559  0.8154 -0.8119
  575MOL0     C77552   5.590   3.020  10.704 -0.3206  0.3979  0.5248
  575MOL0     C77553   5.627   2.906  10.787 -0.0905  0.6735  0.2526
  575MOL0     C77554   5.659   2.816  10.856  0.1703  0.5755  0.1535
  575MOL0     C77555   5.185   2.732  10.236 -0.0999  0.3089 -0.1795
  575MOL0     C77556   5.105   2.713  10.125  0.1675  0.2070 -0.1947
  575MOL0     C77557   5.057   2.572  10.091  0.2231 -0.8605 -0.3139
  575MOL0     H77558   4.963   3.030   9.627  0.0211  4.3097  1.0011
  575MOL0     H77559   4.774   3.065   9.477  2.9830  0.0217  1.0502
  575MOL0     H77560   4.578   2.909   9.381  1.3772  4.1492 -0.3236
  575MOL0     H77561   4.451   2.849   9.493 -1.8790  0.7406 -0.3635
  575MOL0     H77562   4.418   3.055   9.288  1.9459  0.3698  1.3003
  575MOL0     H77563   4.306   3.028   9.425 -3.2202 -0.2990 -1.9822
  575MOL0     H77564   4.283   2.784   9.349 -1.1872 -1.3103 -2.8600
  575MOL0     H77565   4.386   2.809   9.220  0.1018 -1.3482  1.3233
  575MOL0     H77566   4.113   2.931   9.255 -0.3374 -0.6238  0.5914
  575MOL0     H77567   4.231   2.995   9.137 -0.2955  1.1450  0.5729
  575MOL0     H77568   4.244   2.761   9.022  0.0956  0.6023 -0.9546
  575MOL0     H77569   4.131   2.697   9.145  0.6714  0.9541  0.6242
  575MOL0     H77570   3.954   2.852   9.075  1.0075  1.3772  0.9311
  575MOL0     H77571   4.077   2.922   8.961  0.6585  0.8374  2.0677
  575MOL0     H77572   3.937   2.643   8.968 -0.4932  1.2897  0.9895
  575MOL0     H77573   4.082   2.673   8.879 -2.0669  0.6617 -2.7407
  575MOL0     H77574   3.988   2.825   8.729 -0.8594  0.6168 -0.4812
  575MOL0     H77575   3.887   2.679   8.743 -1.2629  0.1471 -2.1542
  575MOL0     H77576   3.634   2.735   8.876 -0.4571 -0.0867  1.3942
  575MOL0     H77577   3.449   3.078   8.893 -0.3024  0.2907  2.0808
  575MOL0     H77578   3.410   2.899   8.856  0.7723 -1.0552 -0.4484
  575MOL0     H77579   3.351   2.911   9.085  0.0168  0.4749 -1.9422
  575MOL0     H77580   3.512   2.842   9.086  1.4941  0.0710 -1.2600
  575MOL0     H77581   3.419   3.127   9.161 -0.2616  1.1846  2.9572
  575MOL0     H77582   3.592   3.086   9.144 -0.7502  0.1977  0.2686
  575MOL0     H77583   3.402   2.934   9.329 -0.9566  0.9827  2.0281
  575MOL0     H77584   3.489   3.067   9.380 -3.1162 -1.7234  2.1542
  575MOL0     H77585   3.774   2.727   9.404 -2.5496  1.1842 -2.0136
  575MOL0     H77586   3.973   2.757   9.554 -2.4770 -0.8401  3.1425
  575MOL0     H77587   4.301   3.081   9.707 -0.6968 -1.9739  0.2275
  575MOL0     H77588   4.487   3.144   9.864 -0.0899  0.0615 -0.0397
  575MOL0     H77589   4.581   3.070  10.088 -2.0403  0.4386 -0.6211
  575MOL0     H77590   4.622   3.231  10.014 -0.2366  1.7014  0.8493
  575MOL0     H77591   4.698   3.298  10.236 -0.3544 -0.3153 -1.1529
  575MOL0     H77592   4.633   3.142  10.311  1.8729 -1.1088  1.0471
  575MOL0     H77593   4.790   3.028  10.149 -2.9401  1.6009 -0.7894
  575MOL0     H77594   4.878   3.186  10.156 -0.2854  1.1661  1.1879
  575MOL0     H77595   4.863   3.162  10.418  0.0276 -1.3480  1.0223
  575MOL0     H77596   4.982   3.060  10.329 -0.7422 -3.2927 -0.7278
  575MOL0     H77597   4.711   2.982  10.438  0.5122 -0.2038 -1.2721
  575MOL0     H77598   4.863   2.949  10.516 -3.0130  0.8228  1.7445
  575MOL0     H77599   4.827   2.832  10.242  3.6757  2.3142  0.2049
  575MOL0     H77600   4.906   2.768  10.376  0.0996  1.3743 -0.1983
  575MOL0     H77601   4.606   2.775  10.362  1.3120 -2.1299 -3.9652
  575MOL0     H77602   4.702   2.724  10.505  1.3996  1.3898 -0.2485
  575MOL0     H77603   4.625   2.536  10.356 -0.6130  1.1292 -0.5717
  575MOL0     H77604   4.722   2.620  10.226 -1.8271  0.0807 -0.7495
  575MOL0     H77605   4.204   3.276  10.149 -0.0128 -0.5970  0.6066
  575MOL0     H77606   4.018   3.234   9.987 -1.2310  0.0131  0.3152
  575MOL0     H77607   3.853   3.168   9.598 -1.3264  0.4218 -0.1408
  575MOL0     H77608   3.667   3.142   9.438 -0.8925  0.2804  1.3256
  575MOL0     H77609   4.507   2.934   9.787  0.8466 -0.7202  1.6797
  575MOL0     H77610   4.682   2.908   9.932 -0.6382  1.1482  0.7941
  575MOL0     H77611   5.123   3.036  10.020  1.1868 -1.1225 -1.1787
  575MOL0     H77612   5.238   3.058  10.220 -0.0033  0.2445  1.3669
  575MOL0     H77613   5.199   2.854  10.526  0.4393 -0.1521  1.0675
  575MOL0     H77614   5.245   3.021  10.482  1.4724  0.3607 -0.3238
  575MOL0     H77615   5.417   2.807  10.610 -0.9863  0.0139 -2.0202
  575MOL0     H77616   5.327   2.935  10.707  1.4280  0.9763  0.1195
  575MOL0     H77617   5.459   3.099  10.554  1.1461  0.0990 -4.4943
  575MOL0     H77618   5.557   2.955  10.507  0.1122 -0.6553 -0.1931
  575MOL0     H77619   5.684   3.063  10.667  0.2910 -0.9690  0.4050
  575MOL0     H77620   5.533   3.088  10.767  0.1157  1.6374 -0.3855
  575MOL0     H77621   5.703   2.735  10.911  0.9934  0.0372 -1.2169
  575MOL0     H77622   5.211   2.645  10.295 -1.6012  1.5149  2.4762
  575MOL0     H77623   4.957   2.541  10.120  1.2376 -4.1017  0.0555
  575MOL0     H77624   5.077   2.546   9.987  2.0009 -1.6471  0.1834
  575MOL0     H77625   5.122   2.502  10.144  4.1273  1.8657 -1.0667
  576MOL0     O77626   1.758   3.621  10.416  0.1096  0.3678  0.6378
  576MOL0     C77627   1.780   3.731  10.373 -0.3809  0.1526  0.0105
  576MOL0     O77628   1.904   3.776  10.348 -0.3417  0.4176 -0.5881
  576MOL0     C77629   2.015   3.696  10.382  0.6427  0.7064  0.2789
  576MOL0     C77630   2.041   3.583  10.303  0.1222 -0.0595 -0.3298
  576MOL0     C77631   2.156   3.501  10.336  0.1427  0.8615  0.3455
  576MOL0     C77632   2.240   3.534  10.441  0.5564 -0.4574  0.6919
  576MOL0     O77633   2.336   3.434  10.453  0.2528 -0.2756 -0.3296
  576MOL0     C77634   2.409   3.436  10.581  0.3500  0.1539  0.9782
  576MOL0     C77635   2.477   3.299  10.586 -0.0644 -0.6154  0.4617
  576MOL0     C77636   2.588   3.283  10.700 -0.6367  0.0535  0.0414
  576MOL0     C77637   2.685   3.157  10.686 -0.3032 -0.2323 -0.6679
  576MOL0     C77638   2.763   3.152  10.818  0.0117 -1.1961 -0.3193
  576MOL0     C77639   2.859   3.029  10.835  0.2337 -0.0026  0.1530
  576MOL0     C77640   2.955   3.002  10.717  0.0459  0.2451  0.4671
  576MOL0     C77641   3.053   2.886  10.751  0.1104 -0.0695 -0.2477
  576MOL0     N77642   3.123   2.919  10.879  0.6290 -0.0528  0.3171
  576MOL0     C77643   3.086   2.876  11.011  0.3463  0.7618  0.4744
  576MOL0     C77644   3.173   2.939  11.089  0.4869  0.2661  0.3468
  576MOL0     C77645   3.171   2.923  11.235  0.2291  0.2429  0.2259
  576MOL0     C77646   3.245   3.031  11.305  0.3087  0.3327  1.3993
  576MOL0     C77647   3.394   3.018  11.317 -0.2752 -0.1266  0.3348
  576MOL0     C77648   3.451   3.122  11.413  0.2472  0.7573 -0.1598
  576MOL0     O77649   3.593   3.112  11.417  0.6479 -0.0304  0.1494
  576MOL0     C77650   3.663   3.185  11.515  0.0689  0.0973  0.5024
  576MOL0     C77651   3.598   3.285  11.597 -0.2066 -0.3530  0.0496
  576MOL0     C77652   3.680   3.369  11.681  0.4301  0.3052  0.4154
  576MOL0     C77653   3.817   3.355  11.699  0.0811  0.3931  0.8940
  576MOL0     C77654   3.894   3.452  11.784  0.2478  0.6041 -0.1296
  576MOL0     O77655   3.837   3.570  11.823  0.0093 -0.0799 -0.2994
  576MOL0     C77656   3.919   3.649  11.902 -0.5663 -0.7832 -0.9718
  576MOL0     C77657   3.949   3.780  11.861 -0.8163 -1.0732 -0.4089
  576MOL0     C77658   4.035   3.858  11.940  0.5184 -0.1065 -0.5478
  576MOL0     C77659   4.088   3.822  12.067  0.7693  0.2539  0.3081
  576MOL0     O77660   4.160   3.909  12.134  0.1852  0.3722 -0.1224
  576MOL0     C77661   4.238   3.872  12.241 -0.3205  0.7097 -0.2572
  576MOL0     C77662   4.341   3.982  12.270 -0.2869 -0.0330 -0.0813
  576MOL0     C77663   4.430   4.015  12.146 -0.6963  0.3562  0.4088
  576MOL0     C77664   4.535   4.117  12.197 -0.4343  0.9093 -0.2714
  576MOL0     C77665   4.623   4.160  12.074  0.7941  1.0526 -0.5691
  576MOL0     C77666   4.691   4.287  12.103  0.8067 -0.0979 -0.2499
  576MOL0     C77667   4.798   4.309  11.995  0.6551  0.0179 -0.0422
  576MOL0     C77668   4.873   4.443  12.021  0.0262 -0.4485  0.9499
  576MOL0    Cl77669   5.018   4.462  11.908  0.0807  0.2585  0.4074
  576MOL0     C77670   4.055   3.690  12.109  0.3618  0.1765  0.8854
  576MOL0     C77671   3.961   3.604  12.033  0.3791  0.3074 -0.8169
  576MOL0     O77672   4.010   3.412  11.803 -0.0587 -0.6304  0.1754
  576MOL0     C77673   3.872   3.236  11.636 -1.3303 -0.4882  0.0383
  576MOL0     C77674   3.802   3.166  11.540 -0.4427  0.8508 -0.0113
  576MOL0     N77675   3.258   3.019  11.008 -0.3911 -0.5565 -0.8009
  576MOL0     N77676   3.229   3.004  10.888  0.3263 -0.1227  0.0682
  576MOL0     C77677   2.216   3.658  10.505 -0.3006 -0.3874  0.3567
  576MOL0     C77678   2.103   3.736  10.483  0.2242 -0.0020  0.7186
  576MOL0     C77679   1.665   3.821  10.343 -0.2053  0.4085  0.2782
  576MOL0     C77680   1.547   3.752  10.324  0.6296 -0.5537 -0.1075
  576MOL0     C77681   1.436   3.829  10.292  1.0630 -1.0288  0.1490
  576MOL0     C77682   1.433   3.965  10.296 -0.2578  0.4515  0.4370
  576MOL0     O77683   1.310   4.013  10.266 -0.1317 -0.3893 -0.3285
  576MOL0     C77684   1.291   4.147  10.310 -0.0950 -0.0634 -0.1383
  576MOL0     C77685   1.301   4.161  10.462  0.1256  0.3353  0.1515
  576MOL0     C77686   1.180   4.104  10.537  0.1161 -0.0412  0.2217
  576MOL0     C77687   1.198   4.114  10.694  1.1280  0.0495  0.0065
  576MOL0     C77688   1.091   4.035  10.763  0.3765 -0.4812  0.6460
  576MOL0     C77689   0.984   3.990  10.814 -0.2292 -0.7510  0.7574
  576MOL0     C77690   1.557   4.027  10.324 -0.3236 -0.0130 -0.3036
  576MOL0     C77691   1.676   3.962  10.341 -0.1635  0.1846 -1.2259
  576MOL0     C77692   1.814   4.039  10.370  0.4285  0.5235 -0.5746
  576MOL0     H77693   1.965   3.559  10.230  0.3778  0.1459 -0.6657
  576MOL0     H77694   2.171   3.408  10.284 -0.3423  0.6448  0.5790
  576MOL0     H77695   2.487   3.512  10.590  1.8010 -1.0103 -0.9030
  576MOL0     H77696   2.349   3.440  10.672  0.3879  1.0768  0.9666
  576MOL0     H77697   2.508   3.270  10.485 -1.6146  1.3855 -0.6589
  576MOL0     H77698   2.397   3.228  10.607  0.1787 -0.5992  1.4708
  576MOL0     H77699   2.533   3.287  10.795 -0.4462  1.4679  0.1155
  576MOL0     H77700   2.658   3.366  10.704 -0.1668 -0.3452  0.1797
  576MOL0     H77701   2.622   3.068  10.684 -1.8734  0.7233  1.5795
  576MOL0     H77702   2.744   3.176  10.596 -2.4973  3.5102 -1.5619
  576MOL0     H77703   2.819   3.246  10.815  0.8879 -1.6752  0.6245
  576MOL0     H77704   2.693   3.150  10.902  1.7635 -1.7182  1.1776
  576MOL0     H77705   2.923   3.047  10.922  4.3978  0.2724 -2.6665
  576MOL0     H77706   2.792   2.944  10.847  0.8134 -0.6813 -1.1805
  576MOL0     H77707   3.003   3.095  10.683  1.7420  0.4855  3.2206
  576MOL0     H77708   2.878   2.969  10.646 -2.3808  0.1612  2.9565
  576MOL0     H77709   2.998   2.792  10.755  0.0146 -0.1110 -1.8405
  576MOL0     H77710   3.125   2.878  10.669 -0.4500 -0.2087 -0.7348
  576MOL0     H77711   3.004   2.809  11.037  0.9383 -0.3447 -0.3983
  576MOL0     H77712   3.068   2.921  11.273  0.6206  1.1413  1.4021
  576MOL0     H77713   3.228   2.831  11.255 -0.1031 -0.1947 -0.7550
  576MOL0     H77714   3.211   3.125  11.261  1.8345  0.1653 -0.2539
  576MOL0     H77715   3.207   3.034  11.408 -0.5710  0.9609  1.0683
  576MOL0     H77716   3.448   3.020  11.222  0.4819 -0.5368  0.7366
  576MOL0     H77717   3.410   2.923  11.369  2.5400  1.0016  1.7613
  576MOL0     H77718   3.409   3.109  11.514 -2.3298  1.4269 -1.0620
  576MOL0     H77719   3.419   3.225  11.393 -5.0972  0.4528  4.2667
  576MOL0     H77720   3.490   3.297  11.600 -0.6155  1.3056 -6.3776
  576MOL0     H77721   3.626   3.447  11.734  1.1597  1.7017 -0.8152
  576MOL0     H77722   3.905   3.819  11.770  1.0275 -0.4227 -1.0692
  576MOL0     H77723   4.056   3.963  11.922 -0.4547 -0.0502 -1.4582
  576MOL0     H77724   4.175   3.858  12.330  1.4498 -2.4557  0.6734
  576MOL0     H77725   4.287   3.776  12.222 -2.1886 -0.6507  1.3957
  576MOL0     H77726   4.293   4.073  12.306  2.3749  1.1286  0.7721
  576MOL0     H77727   4.411   3.950  12.347 -0.4875  1.5275  0.7717
  576MOL0     H77728   4.481   3.927  12.105  1.3453  2.7996 -2.8510
  576MOL0     H77729   4.382   4.061  12.059 -1.4345 -2.7575 -0.9753
  576MOL0     H77730   4.601   4.082  12.276  0.1484 -0.0999 -1.1701
  576MOL0     H77731   4.483   4.208  12.228  0.0305  1.5866 -1.4109
  576MOL0     H77732   4.562   4.188  11.988  2.5751  0.7813 -1.9847
  576MOL0     H77733   4.686   4.076  12.044 -2.3042 -0.4286 -3.5866
  576MOL0     H77734   4.624   4.374  12.105 -0.7451 -1.1366  4.4607
  576MOL0     H77735   4.742   4.288  12.199 -1.5342 -0.0628  1.0870
  576MOL0     H77736   4.763   4.300  11.892  4.0317 -2.1296 -1.1989
  576MOL0     H77737   4.868   4.226  12.010 -1.1380 -1.4378  0.6368
  576MOL0     H77738   4.809   4.531  12.008  0.3286 -0.4931 -1.0291
  576MOL0     H77739   4.897   4.440  12.128 -0.7391  2.8210  1.3207
  576MOL0     H77740   4.095   3.661  12.205  2.8506 -1.8443 -0.6217
  576MOL0     H77741   3.940   3.509  12.082 -0.2974  0.7792 -0.1820
  576MOL0     H77742   3.978   3.215  11.643 -1.0473  0.1642 -1.7624
  576MOL0     H77743   3.850   3.089  11.480 -1.2690 -0.5576  1.0701
  576MOL0     H77744   2.282   3.695  10.583  1.3410 -2.3914  0.0122
  576MOL0     H77745   2.083   3.817  10.553 -3.5218  2.0933 -2.3659
  576MOL0     H77746   1.549   3.643  10.326  0.0471 -0.5953 -1.0027
  576MOL0     H77747   1.345   3.770  10.276  1.0927 -1.4466  1.4341
  576MOL0     H77748   1.192   4.175  10.273 -1.1698  0.5216  2.8391
  576MOL0     H77749   1.374   4.205  10.268 -0.2287  0.8184  0.7685
  576MOL0     H77750   1.303   4.267  10.492  0.6573  0.2701  0.3482
  576MOL0     H77751   1.393   4.115  10.500  0.8907  1.2918 -0.5035
  576MOL0     H77752   1.164   4.000  10.508  2.0171  0.0466 -1.3043
  576MOL0     H77753   1.089   4.154  10.504 -1.3645 -2.4716  0.3965
  576MOL0     H77754   1.292   4.058  10.702  0.6356 -1.1586 -1.9282
  576MOL0     H77755   1.208   4.216  10.733 -0.5118  0.7305 -1.2629
  576MOL0     H77756   0.907   3.946  10.873 -0.1532 -0.0942  1.3578
  576MOL0     H77757   1.570   4.134  10.307  4.3740 -0.7395 -3.2988
  576MOL0     H77758   1.805   4.148  10.379  0.4706  0.5503 -0.8406
  576MOL0     H77759   1.861   4.009  10.464 -1.7890  0.4047  0.5653
  576MOL0     H77760   1.885   4.035  10.287  0.5811  2.0345 -0.5539
  577MOL0     O77761   9.847   9.948  10.811  0.4390  0.4855  0.4387
  577MOL0     C77762   9.876   9.866  10.896  0.3330 -0.8587  0.6406
  577MOL0     O77763   9.969   9.882  10.991  0.1515  0.2096 -0.6461
  577MOL0     C77764  10.075   9.964  10.959 -0.0040  0.6219  0.4832
  577MOL0     C77765  10.187   9.917  10.876  0.7168 -0.2697 -0.1420
  577MOL0     C77766  10.293  10.000  10.842 -0.0002  0.4393 -0.3619
  577MOL0     C77767  10.311  10.125  10.903  0.5751  0.0779 -0.1565
  577MOL0     O77768  10.419  10.216  10.893  0.1506  0.4104  0.6082
  577MOL0     C77769  10.494  10.204  10.765 -0.5694 -0.2222  0.1548
  577MOL0     C77770  10.546  10.343  10.737  0.2657  0.4622  0.3091
  577MOL0     C77771  10.648  10.338  10.623 -0.5902  0.3321  0.4900
  577MOL0     C77772  10.794  10.295  10.662  0.4872 -0.8255 -1.1391
  577MOL0     C77773  10.863  10.220  10.551 -0.4222 -0.2960  0.1117
  577MOL0     C77774  10.984  10.133  10.598  0.5114  0.6165 -0.4659
  577MOL0     C77775  11.115  10.215  10.607 -0.0031 -0.6731 -0.2605
  577MOL0     C77776  11.229  10.114  10.637  0.0407  0.2978  0.8117
  577MOL0     N77777  11.348  10.190  10.674  0.9165 -0.3590 -0.1146
  577MOL0     C77778  11.419  10.273  10.593 -0.1486 -0.0591  0.1985
  577MOL0     C77779  11.527  10.306  10.666  0.1040  0.2339 -0.0632
  577MOL0     C77780  11.644  10.396  10.631  0.4401  0.1431  0.4256
  577MOL0     C77781  11.786  10.342  10.650 -0.5051  0.5528 -0.6042
  577MOL0     C77782  11.832  10.314  10.800  0.1027 -0.2088  0.6157
  577MOL0     C77783  11.982  10.282  10.797  0.0894 -0.0091 -0.1583
  577MOL0     O77784  12.060  10.403  10.768  0.1091  0.1845  0.0959
  577MOL0     C77785  12.191  10.381  10.782  0.3542  0.2341  0.4774
  577MOL0     C77786  12.260  10.497  10.807  0.0676 -0.1888  1.8090
  577MOL0     C77787  12.395  10.495  10.810  0.8588 -0.2666  0.1702
  577MOL0     C77788  12.473  10.377  10.818 -0.0544 -0.8084  0.3748
  577MOL0     C77789  12.625  10.377  10.837 -0.9852  0.5049 -0.2761
  577MOL0     O77790  12.684  10.278  10.912  0.4473  0.0674  0.0043
  577MOL0     C77791  12.813  10.251  10.887  0.1177 -0.0588  0.5491
  577MOL0     C77792  12.911  10.260  10.981  0.7134 -0.1504 -0.4276
  577MOL0     C77793  13.045  10.224  10.963  0.1352  0.2567  0.2100
  577MOL0     C77794  13.083  10.191  10.834 -0.5664  0.4452  1.2443
  577MOL0     O77795  13.216  10.156  10.800  0.0345  0.0563  0.0931
  577MOL0     C77796  13.240  10.068  10.687 -0.4876  0.1492 -0.1012
  577MOL0     C77797  13.390  10.052  10.662  0.3019 -0.4893 -0.6665
  577MOL0     C77798  13.433   9.910  10.658 -0.2368  0.1907  0.1364
  577MOL0     C77799  13.583   9.905  10.647 -0.7092  0.1018  0.4055
  577MOL0     C77800  13.622   9.759  10.674 -0.0058 -0.5883  0.2873
  577MOL0     C77801  13.775   9.754  10.705  0.5347 -0.4050  0.2695
  577MOL0     C77802  13.857   9.771  10.575 -0.1626  0.6216  0.2570
  577MOL0     C77803  13.998   9.706  10.594 -0.4167  0.1972  1.1023
  577MOL0    Cl77804  14.081   9.776  10.734 -0.1074 -0.0945 -0.1070
  577MOL0     C77805  12.983  10.187  10.737  0.1051 -0.0064  0.0702
  577MOL0     C77806  12.849  10.219  10.759 -0.6148 -0.1909  0.5317
  577MOL0     O77807  12.683  10.479  10.793  0.6176 -0.2902  0.4379
  577MOL0     C77808  12.401  10.256  10.801 -0.3403  0.2855 -0.0884
  577MOL0     C77809  12.260  10.256  10.776 -1.0026 -0.1859  0.1068
  577MOL0     N77810  11.521  10.245  10.786 -0.4701  0.8926  0.2170
  577MOL0     N77811  11.416  10.174  10.787 -0.3955 -0.5361 -0.5822
  577MOL0     C77812  10.203  10.166  10.990  0.7880 -0.4959 -0.4135
  577MOL0     C77813  10.085  10.088  11.010  0.6994 -0.5239  0.2591
  577MOL0     C77814   9.787   9.750  10.899  0.3892  0.6106  0.7408
  577MOL0     C77815   9.656   9.763  10.863 -0.2908  0.3481 -0.5965
  577MOL0     C77816   9.574   9.657  10.857  0.3296 -0.2445 -0.4387
  577MOL0     C77817   9.615   9.527  10.885  0.0082  1.0132  0.6838
  577MOL0     O77818   9.540   9.409  10.874  0.8722 -0.7657  0.1908
  577MOL0     C77819   9.402   9.407  10.830  0.6300  0.7221  0.8003
  577MOL0     C77820   9.379   9.397  10.676 -0.4918 -0.3952  0.6450
  577MOL0     C77821   9.458   9.281  10.613 -0.1470  0.0750 -0.0870
  577MOL0     C77822   9.418   9.264  10.464  0.4273  0.1342  0.7160
  577MOL0     C77823   9.277   9.236  10.454  0.2791 -0.3684  0.2498
  577MOL0     C77824   9.164   9.222  10.429  0.4733 -0.2046 -0.0166
  577MOL0     C77825   9.747   9.513  10.925  0.1568  0.5941 -0.0201
  577MOL0     C77826   9.834   9.619  10.934 -0.1761  0.0764  0.3677
  577MOL0     C77827   9.977   9.577  10.982  0.1745 -0.4919  0.0365
  577MOL0     H77828  10.178   9.812  10.848 -0.2809 -0.4425  0.7439
  577MOL0     H77829  10.370   9.967  10.773  0.5137  0.7197  0.0780
  577MOL0     H77830  10.580  10.139  10.781 -0.0131  0.1607 -1.1112
  577MOL0     H77831  10.444  10.166  10.676 -0.9277  1.9440 -0.6434
  577MOL0     H77832  10.592  10.398  10.820 -1.9690  0.7029  1.4452
  577MOL0     H77833  10.461  10.399  10.698  0.6282 -0.4609 -1.9720
  577MOL0     H77834  10.649  10.433  10.568 -2.4847 -1.1828 -2.4097
  577MOL0     H77835  10.621  10.264  10.548  1.0593  0.2861 -0.0991
  577MOL0     H77836  10.852  10.385  10.681 -0.3618  0.3156 -3.5769
  577MOL0     H77837  10.780  10.230  10.750 -1.2411  1.5608  0.4804
  577MOL0     H77838  10.796  10.145  10.509  0.1070 -0.8322  0.2191
  577MOL0     H77839  10.891  10.289  10.470 -0.8253 -0.9202 -0.5693
  577MOL0     H77840  10.962  10.081  10.692  1.5019 -1.1114 -1.1370
  577MOL0     H77841  11.002  10.054  10.524 -0.1521 -0.7335  0.7687
  577MOL0     H77842  11.113  10.293  10.684  0.9246 -0.8113 -0.0914
  577MOL0     H77843  11.133  10.260  10.508  0.8338 -0.4087 -0.0007
  577MOL0     H77844  11.191  10.051  10.718 -2.4628  1.8007  0.9459
  577MOL0     H77845  11.254  10.045  10.556  2.7447 -1.3441  2.8590
  577MOL0     H77846  11.408  10.324  10.498  0.7722  0.6704  0.4689
  577MOL0     H77847  11.633  10.423  10.526 -0.9723  1.3036  0.8323
  577MOL0     H77848  11.638  10.482  10.699  1.2031  0.9388 -0.4890
  577MOL0     H77849  11.796  10.244  10.601  0.5717  0.3455 -0.0140
  577MOL0     H77850  11.855  10.414  10.604  0.9097  0.7688  1.6602
  577MOL0     H77851  11.781  10.231  10.849  0.1241 -2.2538 -2.5443
  577MOL0     H77852  11.808  10.398  10.867  1.8322 -0.8324  2.1207
  577MOL0     H77853  11.989  10.200  10.726 -3.0878  0.8816 -1.6961
  577MOL0     H77854  12.012  10.248  10.897  1.2541 -1.3251 -0.9319
  577MOL0     H77855  12.219  10.597  10.805  4.2673  1.7782 -1.3107
  577MOL0     H77856  12.447  10.590  10.822  1.5186 -0.7062  0.8932
  577MOL0     H77857  12.884  10.296  11.080 -0.1785  1.2272 -1.1418
  577MOL0     H77858  13.113  10.228  11.047 -1.8524  0.4846  1.8770
  577MOL0     H77859  13.196   9.969  10.694 -0.1716 -0.0551 -0.8635
  577MOL0     H77860  13.204  10.122  10.598 -1.6112 -0.1598  0.1510
  577MOL0     H77861  13.415  10.096  10.565  0.7326 -0.3136 -0.4748
  577MOL0     H77862  13.442  10.117  10.733  0.2178 -0.4906 -0.6027
  577MOL0     H77863  13.400   9.875  10.756  0.7766  3.5267  1.8187
  577MOL0     H77864  13.386   9.850  10.580  1.8692 -0.6321 -0.5786
  577MOL0     H77865  13.629   9.961  10.729  3.3909  0.5836 -1.9053
  577MOL0     H77866  13.618   9.945  10.551 -1.0678 -0.0404  0.2145
  577MOL0     H77867  13.597   9.687  10.597 -1.3999  0.1370  0.0429
  577MOL0     H77868  13.576   9.723  10.767 -1.9781 -1.5807 -1.0210
  577MOL0     H77869  13.801   9.833  10.776 -1.7429 -0.3004  1.0687
  577MOL0     H77870  13.793   9.655  10.748 -0.6640 -1.0137 -0.5630
  577MOL0     H77871  13.874   9.878  10.555 -0.0084  0.9219  1.8301
  577MOL0     H77872  13.818   9.722  10.486  1.6461 -0.9456  0.2708
  577MOL0     H77873  13.989   9.598  10.605  2.7528 -0.3955 -1.0342
  577MOL0     H77874  14.055   9.716  10.502 -0.2149  1.3417  1.3381
  577MOL0     H77875  13.000  10.159  10.633 -1.4314  0.5349 -0.3573
  577MOL0     H77876  12.778  10.230  10.678  2.1325 -1.5072 -2.2428
  577MOL0     H77877  12.467  10.171  10.791 -0.1020  0.2601  1.5804
  577MOL0     H77878  12.207  10.164  10.750 -2.2509  1.1756 -2.5571
  577MOL0     H77879  10.209  10.261  11.041  1.1904 -0.7357 -0.0001
  577MOL0     H77880  10.012  10.123  11.083 -0.2180  1.2930 -1.4228
  577MOL0     H77881   9.613   9.858  10.835  0.8663  3.3404  5.8981
  577MOL0     H77882   9.478   9.685  10.816  0.3647  1.0045  0.2633
  577MOL0     H77883   9.363   9.497  10.879 -2.0503 -1.0680  2.2043
  577MOL0     H77884   9.350   9.322  10.875  0.1278  0.9749  0.7043
  577MOL0     H77885   9.408   9.494  10.635 -2.4056 -0.0135  0.0822
  577MOL0     H77886   9.271   9.385  10.662 -0.6944  0.4786  1.3917
  577MOL0     H77887   9.444   9.187  10.668 -1.3392  1.1432  1.5371
  577MOL0     H77888   9.564   9.303  10.629 -0.4954  0.3823  2.1916
  577MOL0     H77889   9.456   9.342  10.397  1.2185 -0.8768 -0.0532
  577MOL0     H77890   9.465   9.178  10.417 -2.3807  0.2613 -2.7187
  577MOL0     H77891   9.060   9.209  10.408  0.5723 -0.8247 -0.1348
  577MOL0     H77892   9.791   9.414  10.936  1.2811  1.1947  0.9720
  577MOL0     H77893  10.050   9.631  10.922  0.1941  0.1642  0.6368
  577MOL0     H77894   9.994   9.612  11.085 -1.2469  0.9531 -0.1864
  577MOL0     H77895  10.005   9.471  10.977  2.1859 -0.1792  2.5678
  578MOL0     O77896   3.843   8.573   8.476  0.3386 -0.8345 -0.3230
  578MOL0     C77897   3.759   8.604   8.562  0.5078  0.5914  0.6092
  578MOL0     O77898   3.778   8.653   8.691 -0.1609 -0.3158 -0.4777
  578MOL0     C77899   3.903   8.687   8.741  0.6346 -0.8402  0.6442
  578MOL0     C77900   3.892   8.715   8.877 -0.0343 -0.6251 -0.4884
  578MOL0     C77901   4.000   8.762   8.947  0.4760 -0.5454  0.0283
  578MOL0     C77902   4.119   8.777   8.880  0.5807 -0.5955 -0.0295
  578MOL0     O77903   4.230   8.829   8.939  0.3116  0.7237 -0.1506
  578MOL0     C77904   4.272   8.950   8.883 -0.0372  0.3419  0.1938
  578MOL0     C77905   4.415   8.936   8.823  0.5630  0.1039 -0.2123
  578MOL0     C77906   4.528   8.959   8.928 -0.0305  0.5474  0.2587
  578MOL0     C77907   4.651   8.991   8.845 -0.0014 -0.4498  0.3863
  578MOL0     C77908   4.777   9.015   8.930 -0.1743  0.5409  0.4513
  578MOL0     C77909   4.904   9.053   8.850  0.3834 -0.3665 -0.1827
  578MOL0     C77910   5.021   9.098   8.941  0.1935  0.3843  0.0298
  578MOL0     C77911   5.147   9.092   8.853 -0.5233 -0.7229  0.2384
  578MOL0     N77912   5.263   9.144   8.928 -0.4981 -0.3741  0.0230
  578MOL0     C77913   5.353   9.068   9.004  0.0186  0.0618  0.5703
  578MOL0     C77914   5.434   9.158   9.055  0.3000  0.1811 -0.9933
  578MOL0     C77915   5.566   9.125   9.118  0.6325 -0.5793 -0.2845
  578MOL0     C77916   5.677   9.228   9.065 -0.4337 -0.5645  0.3414
  578MOL0     C77917   5.821   9.181   9.116 -0.0084  1.1285 -0.2714
  578MOL0     C77918   5.926   9.282   9.081 -0.4113 -0.1198  0.9002
  578MOL0     O77919   6.054   9.231   9.120 -0.1058  0.0467 -0.2385
  578MOL0     C77920   6.164   9.307   9.122 -0.2528 -0.0597  0.0141
  578MOL0     C77921   6.282   9.255   9.178 -0.0236 -0.1437 -0.0739
  578MOL0     C77922   6.403   9.327   9.177  0.5927 -0.0505  0.9993
  578MOL0     C77923   6.407   9.452   9.112  0.5186 -0.9194 -0.5547
  578MOL0     C77924   6.536   9.522   9.113 -0.5414  0.0111 -0.5131
  578MOL0     O77925   6.647   9.450   9.134 -0.1244  0.3075 -0.1405
  578MOL0     C77926   6.781   9.500   9.118  0.5001 -0.1790 -0.0740
  578MOL0     C77927   6.824   9.629   9.097  1.5682  0.7735 -0.1305
  578MOL0     C77928   6.953   9.656   9.067 -0.7641 -0.2983  0.0464
  578MOL0     C77929   7.055   9.551   9.064  1.3033  0.3619  0.6096
  578MOL0     O77930   7.192   9.565   9.044  0.1440  0.0850  0.0458
  578MOL0     C77931   7.258   9.689   9.010  0.2464 -0.1368  0.1607
  578MOL0     C77932   7.405   9.660   8.974  0.0124 -0.1926  0.5839
  578MOL0     C77933   7.490   9.596   9.090 -0.0963 -0.0190  0.2077
  578MOL0     C77934   7.518   9.447   9.081  0.0731 -0.1734 -0.3666
  578MOL0     C77935   7.596   9.397   9.204  0.7992  0.0218 -0.0193
  578MOL0     C77936   7.628   9.249   9.204 -0.7250  0.3637 -0.0341
  578MOL0     C77937   7.677   9.199   9.341  0.1238 -0.4364 -0.0941
  578MOL0     C77938   7.698   9.054   9.352 -0.8143 -0.4095 -0.0856
  578MOL0    Cl77939   7.841   9.001   9.263 -0.0845 -0.3974 -0.1069
  578MOL0     C77940   7.016   9.418   9.095 -0.0046 -0.3188  0.3364
  578MOL0     C77941   6.878   9.400   9.114 -0.1893  1.1461  0.0383
  578MOL0     O77942   6.529   9.638   9.087  0.8348 -0.0299  0.4189
  578MOL0     C77943   6.282   9.508   9.074  0.3540  0.6175 -0.5422
  578MOL0     C77944   6.167   9.437   9.072 -0.8978 -0.2981  0.5218
  578MOL0     N77945   5.391   9.283   9.022 -0.1899 -0.5316  0.3504
  578MOL0     N77946   5.291   9.272   8.935 -0.3361 -0.4946 -0.6058
  578MOL0     C77947   4.125   8.742   8.746 -0.6935 -0.1229  0.0926
  578MOL0     C77948   4.020   8.691   8.673 -0.3818 -0.2196 -0.7259
  578MOL0     C77949   3.613   8.583   8.523 -0.5362 -0.0526  0.6112
  578MOL0     C77950   3.511   8.659   8.592 -0.0544  0.1659  0.1576
  578MOL0     C77951   3.380   8.649   8.546 -0.1107 -0.3506  0.3403
  578MOL0     C77952   3.339   8.579   8.435  1.0440 -0.4950 -0.2412
  578MOL0     O77953   3.215   8.587   8.390 -0.1521  0.1188  0.4499
  578MOL0     C77954   3.127   8.689   8.428 -0.1435  0.7407 -0.2797
  578MOL0     C77955   3.165   8.829   8.368  0.7331 -0.1639 -0.5595
  578MOL0     C77956   3.051   8.929   8.390  0.4324  0.4753 -0.5668
  578MOL0     C77957   2.954   8.920   8.275  0.2478  0.9633  0.5958
  578MOL0     C77958   2.837   9.007   8.287 -0.1251  0.0223  0.0053
  578MOL0     C77959   2.745   9.086   8.293 -0.0596 -0.5986 -0.3270
  578MOL0     C77960   3.436   8.508   8.372  1.0361  0.2133 -1.0146
  578MOL0     C77961   3.565   8.505   8.406 -1.0000 -0.4118 -0.2146
  578MOL0     C77962   3.660   8.441   8.302  0.4559  0.3297  0.0353
  578MOL0     H77963   3.795   8.700   8.924 -1.2195  0.8509 -2.2915
  578MOL0     H77964   3.993   8.792   9.051  1.0639  0.8082 -0.3113
  578MOL0     H77965   4.203   8.996   8.812  0.8638  0.3078 -0.7369
  578MOL0     H77966   4.263   9.016   8.970 -1.9294 -2.9664  2.6856
  578MOL0     H77967   4.421   9.013   8.747 -1.6992 -1.0163 -1.6255
  578MOL0     H77968   4.430   8.838   8.776 -0.1389 -0.0515 -0.1311
  578MOL0     H77969   4.550   8.868   8.985  0.2693 -0.7242 -1.7759
  578MOL0     H77970   4.514   9.045   8.994 -0.6831  0.8427 -0.2489
  578MOL0     H77971   4.664   8.906   8.777  3.2511  0.3382 -0.1308
  578MOL0     H77972   4.629   9.078   8.783 -0.3570  0.8401  2.2468
  578MOL0     H77973   4.758   9.093   9.004  2.1843 -0.5240  2.3285
  578MOL0     H77974   4.791   8.919   8.982  2.7922 -2.0329 -4.3506
  578MOL0     H77975   4.943   8.978   8.780  0.5036 -0.8398  0.3795
  578MOL0     H77976   4.867   9.138   8.793  0.6425 -0.1636 -0.0491
  578MOL0     H77977   5.036   9.018   9.014 -3.0633 -2.1057 -1.7764
  578MOL0     H77978   4.999   9.194   8.990 -1.7559  0.9539 -1.7874
  578MOL0     H77979   5.176   8.990   8.826  4.0048  0.5135 -0.4355
  578MOL0     H77980   5.127   9.158   8.769 -0.8451  0.0500  0.9101
  578MOL0     H77981   5.359   8.960   8.996 -0.1728  0.1394 -0.8637
  578MOL0     H77982   5.547   9.131   9.226 -1.4614  2.2103 -0.7140
  578MOL0     H77983   5.600   9.022   9.098  2.9964 -0.0682  0.6777
  578MOL0     H77984   5.682   9.224   8.955  0.0965 -0.6711  0.3653
  578MOL0     H77985   5.666   9.332   9.095  2.6167 -0.3139  0.8994
  578MOL0     H77986   5.848   9.084   9.074 -1.4805 -1.1345  3.4546
  578MOL0     H77987   5.808   9.160   9.223 -3.6611 -3.5565 -1.3300
  578MOL0     H77988   5.911   9.375   9.136 -1.7291  0.3825 -0.2334
  578MOL0     H77989   5.931   9.300   8.973  1.1344 -1.1021  0.7788
  578MOL0     H77990   6.271   9.171   9.245  0.1072 -0.3115 -0.2651
  578MOL0     H77991   6.491   9.295   9.232  1.1363  2.2320  1.5585
  578MOL0     H77992   6.761   9.715   9.118  0.6063 -0.1852  1.0603
  578MOL0     H77993   6.984   9.760   9.068 -1.1297 -0.1366  2.9172
  578MOL0     H77994   7.211   9.731   8.921 -0.4253 -1.1991 -0.0031
  578MOL0     H77995   7.247   9.763   9.090  1.2416 -1.0408  1.1634
  578MOL0     H77996   7.405   9.589   8.891  2.2323 -1.3494  1.4874
  578MOL0     H77997   7.454   9.754   8.946  1.0955 -0.5636  1.1789
  578MOL0     H77998   7.591   9.636   9.099 -0.5001  1.1162 -0.1506
  578MOL0     H77999   7.441   9.612   9.187 -0.8691 -1.0366  0.0087
  578MOL0     H78000   7.590   9.428   9.002  0.4490 -0.6338  0.0811
  578MOL0     H78001   7.419   9.403   9.063 -1.8235  2.6086  2.1071
  578MOL0     H78002   7.543   9.427   9.295 -1.1103  0.2334 -1.1471
  578MOL0     H78003   7.687   9.457   9.209  0.0020  1.4811 -1.7602
  578MOL0     H78004   7.545   9.190   9.164 -0.7557  1.4339 -1.6380
  578MOL0     H78005   7.707   9.222   9.134  0.4203  2.9276  0.1758
  578MOL0     H78006   7.606   9.224   9.420  1.0715  0.5488  0.4713
  578MOL0     H78007   7.763   9.263   9.366 -0.6423 -0.9487  4.7639
  578MOL0     H78008   7.716   9.047   9.460 -0.3611 -2.1802 -0.2533
  578MOL0     H78009   7.612   8.996   9.318 -1.2219 -0.6636  1.3138
  578MOL0     H78010   7.083   9.334   9.089 -1.3907 -1.3769 -2.6150
  578MOL0     H78011   6.841   9.299   9.133 -0.5968  0.6466 -2.8987
  578MOL0     H78012   6.286   9.608   9.032 -0.4253  0.8060 -0.1997
  578MOL0     H78013   6.077   9.487   9.035  0.6262  0.5964 -2.2992
  578MOL0     H78014   4.224   8.739   8.700 -1.2420 -1.8743 -1.0921
  578MOL0     H78015   4.025   8.675   8.565 -0.2083 -0.0953 -0.7367
  578MOL0     H78016   3.542   8.723   8.675 -1.0316 -0.3202  0.9213
  578MOL0     H78017   3.320   8.707   8.616  0.9125  0.3565  0.6623
  578MOL0     H78018   3.116   8.690   8.537  0.4772 -2.3122 -0.0984
  578MOL0     H78019   3.033   8.663   8.380 -0.4868  1.3658  0.0494
  578MOL0     H78020   3.177   8.833   8.260 -0.0317 -0.6117 -0.6680
  578MOL0     H78021   3.251   8.860   8.428 -0.0107 -0.8983  0.9514
  578MOL0     H78022   3.087   9.030   8.411  1.0431 -0.5601  4.9971
  578MOL0     H78023   2.993   8.900   8.478 -1.0210  0.5554 -1.4594
  578MOL0     H78024   3.004   8.947   8.182  0.7367  1.0075  0.8695
  578MOL0     H78025   2.912   8.819   8.268 -2.8113  1.9497  2.4637
  578MOL0     H78026   2.668   9.162   8.293 -0.8810 -1.4056 -0.8745
  578MOL0     H78027   3.414   8.449   8.283  0.6460 -0.6681 -0.3496
  578MOL0     H78028   3.716   8.359   8.350 -0.3857  0.5749  1.4796
  578MOL0     H78029   3.607   8.396   8.218  0.6711  2.5103 -1.3300
  578MOL0     H78030   3.727   8.514   8.255  0.9413 -1.8590 -2.9796
  579MOL0     O78031   7.537   3.222   3.240  0.8918 -0.2647 -0.1974
  579MOL0     C78032   7.508   3.184   3.122  0.3378  0.3944 -0.5717
  579MOL0     O78033   7.600   3.153   3.029  0.3514  0.1639  0.1050
  579MOL0     C78034   7.735   3.162   3.058 -0.2663  0.0447 -0.3888
  579MOL0     C78035   7.803   3.054   3.025  0.3034 -0.3699 -0.3083
  579MOL0     C78036   7.938   3.047   3.055  0.3248  0.6744  0.3212
  579MOL0     C78037   8.008   3.154   3.101 -0.3917  0.5500 -0.1111
  579MOL0     O78038   8.142   3.139   3.134  0.1198  0.3946 -0.0439
  579MOL0     C78039   8.228   3.261   3.137  0.1151  0.7064 -0.3934
  579MOL0     C78040   8.366   3.223   3.081 -0.3401  0.0135 -0.2104
  579MOL0     C78041   8.478   3.321   3.080 -0.0777  0.5172  0.0493
  579MOL0     C78042   8.588   3.281   2.974  0.4549  0.2453 -0.2194
  579MOL0     C78043   8.727   3.338   2.994  0.0297  0.6681 -0.0088
  579MOL0     C78044   8.825   3.322   2.871  0.7326  0.6419  0.1022
  579MOL0     C78045   8.970   3.373   2.908 -0.2380 -0.8172  0.6353
  579MOL0     C78046   9.068   3.339   2.793  0.3852  0.3333 -0.1864
  579MOL0     N78047   9.207   3.370   2.840 -0.3895 -0.2129 -0.0427
  579MOL0     C78048   9.287   3.290   2.920  0.1052 -0.6345 -0.2460
  579MOL0     C78049   9.393   3.376   2.953 -0.0624 -0.2049 -0.2071
  579MOL0     C78050   9.479   3.345   3.076 -0.7224 -0.2957  0.6659
  579MOL0     C78051   9.607   3.432   3.076  0.2009 -0.3846 -0.1035
  579MOL0     C78052   9.703   3.390   2.973 -0.3550  0.1943  0.2220
  579MOL0     C78053   9.833   3.450   2.989  0.1004 -0.5347 -0.1118
  579MOL0     O78054   9.915   3.397   2.891 -0.7813 -0.2670 -0.6914
  579MOL0     C78055  10.039   3.449   2.882  0.4024  0.6713 -0.1326
  579MOL0     C78056  10.115   3.509   2.991 -0.4178 -0.5786  0.1012
  579MOL0     C78057  10.240   3.564   2.969 -0.9094  0.5829  0.1883
  579MOL0     C78058  10.292   3.551   2.836  0.1610  0.3912 -0.4659
  579MOL0     C78059  10.434   3.589   2.810  0.2064 -0.1885  0.2444
  579MOL0     O78060  10.493   3.667   2.896 -0.5603 -0.5360  0.4182
  579MOL0     C78061  10.633   3.674   2.886 -0.0672  0.1353  0.0424
  579MOL0     C78062  10.712   3.562   2.918  0.0252  0.3978 -0.3782
  579MOL0     C78063  10.843   3.575   2.891 -0.8075 -0.4485 -0.2695
  579MOL0     C78064  10.906   3.705   2.860  0.2711 -0.3391  0.6137
  579MOL0     O78065  11.041   3.720   2.838  0.0887  0.0776 -0.3223
  579MOL0     C78066  11.138   3.640   2.905  0.3664  0.2641 -0.2573
  579MOL0     C78067  11.275   3.708   2.889 -0.2421 -0.1829 -0.6690
  579MOL0     C78068  11.403   3.625   2.919 -0.0014  0.2647  0.2932
  579MOL0     C78069  11.517   3.700   2.990  0.3472 -0.0300  0.1541
  579MOL0     C78070  11.649   3.627   2.973 -0.3073 -0.5842  0.0621
  579MOL0     C78071  11.760   3.705   3.033 -0.5832 -0.2005 -0.0368
  579MOL0     C78072  11.897   3.646   3.002  0.7861  0.3805  0.4627
  579MOL0     C78073  12.007   3.750   2.998 -0.7258 -0.3283 -0.4608
  579MOL0    Cl78074  12.166   3.654   2.981 -0.6230 -0.7021 -0.2807
  579MOL0     C78075  10.818   3.817   2.836 -0.0645 -0.2522 -0.4207
  579MOL0     C78076  10.684   3.798   2.856  0.4002  0.2871 -1.3182
  579MOL0     O78077  10.491   3.529   2.719 -0.2155  0.2954  0.0118
  579MOL0     C78078  10.216   3.502   2.730 -0.5994  0.6346 -0.3890
  579MOL0     C78079  10.094   3.439   2.760  0.2583  0.5211  0.6837
  579MOL0     N78080   9.373   3.496   2.886 -0.0663 -0.4493 -0.7308
  579MOL0     N78081   9.260   3.493   2.825 -0.2015 -0.0927  0.9097
  579MOL0     C78082   7.938   3.276   3.119  0.6212 -0.6947 -0.5524
  579MOL0     C78083   7.800   3.279   3.095  0.3553 -0.4052  0.2178
  579MOL0     C78084   7.355   3.180   3.094 -0.3519  0.3432  0.9284
  579MOL0     C78085   7.267   3.191   3.201 -0.0575 -0.1022  0.5287
  579MOL0     C78086   7.128   3.172   3.186 -0.4467  0.4451 -0.0681
  579MOL0     C78087   7.073   3.157   3.055 -0.5569 -0.6215 -0.0320
  579MOL0     O78088   6.942   3.160   3.024 -0.2555  0.1525 -0.4274
  579MOL0     C78089   6.846   3.165   3.129  0.1119 -0.7244 -0.9196
  579MOL0     C78090   6.710   3.198   3.080 -0.5746 -0.6603 -0.3830
  579MOL0     C78091   6.605   3.151   3.177  0.2956 -0.0832 -0.5782
  579MOL0     C78092   6.463   3.163   3.118 -0.1213 -0.0581 -0.3034
  579MOL0     C78093   6.376   3.048   3.148 -0.5858 -0.2434 -0.1197
  579MOL0     C78094   6.305   2.950   3.182 -0.9805 -1.1214  0.7074
  579MOL0     C78095   7.164   3.150   2.953  0.3126  0.1711  0.3435
  579MOL0     C78096   7.306   3.150   2.966 -1.1516 -0.3011  0.3870
  579MOL0     C78097   7.389   3.127   2.840  0.3635 -0.2104 -0.0855
  579MOL0     H78098   7.757   2.973   2.970  0.5513  0.1015 -1.2488
  579MOL0     H78099   7.995   2.959   3.029  1.3475  1.4702 -0.2071
  579MOL0     H78100   8.188   3.335   3.068 -0.2130 -1.0432 -2.1630
  579MOL0     H78101   8.226   3.291   3.242  0.5775 -3.2812  0.8965
  579MOL0     H78102   8.342   3.194   2.979  1.9733 -0.6723 -0.6281
  579MOL0     H78103   8.405   3.140   3.141 -1.7504  1.0305  2.2549
  579MOL0     H78104   8.520   3.336   3.180  0.1868  0.8604 -0.1122
  579MOL0     H78105   8.447   3.421   3.048  1.6971  0.6440 -1.4086
  579MOL0     H78106   8.584   3.172   2.968  1.4455  0.0798  1.6726
  579MOL0     H78107   8.555   3.317   2.876 -1.3096  1.2008  0.6869
  579MOL0     H78108   8.719   3.444   3.022  2.7350  1.2498 -1.0974
  579MOL0     H78109   8.771   3.285   3.079 -0.1494 -0.9934 -0.9204
  579MOL0     H78110   8.842   3.221   2.832 -1.1525  1.3405 -2.8683
  579MOL0     H78111   8.777   3.377   2.790 -0.5253  0.7724  0.9182
  579MOL0     H78112   9.009   3.336   3.004 -2.1207 -1.6983  1.0915
  579MOL0     H78113   8.968   3.482   2.917 -0.4859 -0.6784 -0.9231
  579MOL0     H78114   9.057   3.232   2.773 -2.5142  1.0418 -3.4923
  579MOL0     H78115   9.038   3.409   2.714  0.7871  2.1632  1.1965
  579MOL0     H78116   9.254   3.195   2.959  0.1193 -0.5041  0.0872
  579MOL0     H78117   9.422   3.372   3.165  0.3089  0.8051  1.0113
  579MOL0     H78118   9.501   3.238   3.081 -0.2375 -0.1933  0.7852
  579MOL0     H78119   9.565   3.532   3.058 -0.3662 -0.9147 -2.0610
  579MOL0     H78120   9.659   3.425   3.172 -1.4585  0.8782  0.9420
  579MOL0     H78121   9.666   3.412   2.873  0.0747  0.1953  0.0626
  579MOL0     H78122   9.715   3.282   2.988  0.0865  0.3586  1.1771
  579MOL0     H78123   9.875   3.455   3.090 -3.0981  0.1681  1.2919
  579MOL0     H78124   9.825   3.553   2.953  2.7340 -0.2387 -0.0912
  579MOL0     H78125  10.069   3.513   3.090 -3.2770 -0.8875 -1.1208
  579MOL0     H78126  10.294   3.607   3.052  3.8587  0.3743 -2.4659
  579MOL0     H78127  10.657   3.475   2.953  1.2204 -0.5606 -0.8388
  579MOL0     H78128  10.902   3.485   2.904  2.5770  1.4173 -1.3968
  579MOL0     H78129  11.120   3.620   3.011  1.7541 -0.1908 -0.0857
  579MOL0     H78130  11.145   3.538   2.866  1.5885  0.6783 -1.1783
  579MOL0     H78131  11.286   3.739   2.784  0.8911 -0.7450 -0.7299
  579MOL0     H78132  11.272   3.796   2.952  1.8130  1.0700 -2.1924
  579MOL0     H78133  11.376   3.534   2.973 -0.9963 -1.9601 -3.5239
  579MOL0     H78134  11.442   3.590   2.823  1.1105 -1.3893  1.2878
  579MOL0     H78135  11.488   3.700   3.096  0.9850  1.1215  0.3473
  579MOL0     H78136  11.525   3.803   2.956 -0.5300  0.7631  2.1703
  579MOL0     H78137  11.662   3.615   2.865  0.8349  0.1818  0.1074
  579MOL0     H78138  11.653   3.530   3.024 -1.3264  0.5297  2.4031
  579MOL0     H78139  11.747   3.809   3.001 -3.4131  0.2521  2.1861
  579MOL0     H78140  11.748   3.722   3.140  2.9551 -1.7906  0.7563
  579MOL0     H78141  11.896   3.588   2.909 -0.7681  0.4823  0.3896
  579MOL0     H78142  11.913   3.569   3.079  2.2053 -2.1654 -2.1482
  579MOL0     H78143  11.983   3.810   2.909  1.8431  0.8675 -0.4443
  579MOL0     H78144  12.012   3.805   3.092 -1.7766  1.6816 -1.4986
  579MOL0     H78145  10.855   3.912   2.799  0.0553  0.1674  0.7134
  579MOL0     H78146  10.624   3.883   2.827 -1.9335 -0.9369 -0.3449
  579MOL0     H78147  10.256   3.509   2.630  1.1128  0.9545  0.2784
  579MOL0     H78148  10.029   3.389   2.689 -1.2576  1.6192  1.2637
  579MOL0     H78149   7.989   3.359   3.168 -1.6627 -1.7509  4.1490
  579MOL0     H78150   7.742   3.369   3.112  0.2909 -0.3103 -0.5064
  579MOL0     H78151   7.301   3.210   3.302  3.1529  2.3298 -0.8585
  579MOL0     H78152   7.070   3.180   3.278 -1.4971  4.9444 -0.9052
  579MOL0     H78153   6.866   3.241   3.205 -0.5095  0.6947 -2.1418
  579MOL0     H78154   6.845   3.067   3.179  1.7723 -0.1235  0.3809
  579MOL0     H78155   6.701   3.139   2.988  1.3217 -2.4844  0.5143
  579MOL0     H78156   6.709   3.305   3.059 -0.4381 -0.0991  2.1391
  579MOL0     H78157   6.619   3.200   3.274  2.1768 -0.3529 -0.6748
  579MOL0     H78158   6.621   3.045   3.198  0.6696 -0.0524 -0.7083
  579MOL0     H78159   6.416   3.261   3.127  0.1619 -0.0035  0.7156
  579MOL0     H78160   6.472   3.155   3.010 -1.4103  0.2834 -0.4542
  579MOL0     H78161   6.237   2.877   3.220 -1.5980 -0.6042  0.6262
  579MOL0     H78162   7.117   3.152   2.855 -0.7889 -1.7301  0.7598
  579MOL0     H78163   7.447   3.035   2.848  3.5203  1.4014 -2.2810
  579MOL0     H78164   7.322   3.112   2.755  0.6816 -1.6764 -0.0949
  579MOL0     H78165   7.467   3.202   2.821 -1.2963  1.0968 -2.2612
  580MOL0     O78166   2.829   5.492   2.348  0.4537 -0.2446 -0.1613
  580MOL0     C78167   2.794   5.508   2.462 -0.8294  0.1342 -0.1065
  580MOL0     O78168   2.880   5.540   2.562  0.2001 -0.3599  0.0517
  580MOL0     C78169   3.004   5.579   2.520 -0.3199  0.1942  0.0372
  580MOL0     C78170   3.042   5.707   2.537 -0.3151  0.3740  0.1478
  580MOL0     C78171   3.175   5.747   2.506  0.4264 -0.8196 -0.2310
  580MOL0     C78172   3.270   5.657   2.466  0.0473  0.3338 -0.0879
  580MOL0     O78173   3.398   5.709   2.439 -0.4889  0.3358  0.1760
  580MOL0     C78174   3.510   5.617   2.410 -0.1505  0.1139 -0.0422
  580MOL0     C78175   3.635   5.701   2.369  0.4228  0.1810  0.0194
  580MOL0     C78176   3.657   5.829   2.461  0.3341  0.8595  0.1867
  580MOL0     C78177   3.559   5.942   2.411 -0.0666 -0.1765  0.3262
  580MOL0     C78178   3.603   6.080   2.457  0.9594 -0.0206 -0.0867
  580MOL0     C78179   3.525   6.191   2.382  0.2369 -0.2974 -0.1098
  580MOL0     C78180   3.397   6.225   2.462  0.1462  0.0741 -0.7586
  580MOL0     C78181   3.329   6.349   2.396 -0.3791  0.3457 -0.3774
  580MOL0     N78182   3.229   6.423   2.488 -0.5682  0.3309  0.6819
  580MOL0     C78183   3.138   6.516   2.458 -0.4396  0.1367  0.0793
  580MOL0     C78184   3.072   6.546   2.571 -0.0181  0.1634 -0.8647
  580MOL0     C78185   2.953   6.644   2.580 -0.7559  0.4029 -0.2366
  580MOL0     C78186   2.827   6.590   2.508  0.3163  0.1691  0.3866
  580MOL0     C78187   2.715   6.681   2.531 -0.3251 -0.1518  0.6388
  580MOL0     C78188   2.580   6.617   2.492 -0.2363 -0.2825 -0.8774
  580MOL0     O78189   2.480   6.720   2.507  0.3251 -0.1733 -0.6220
  580MOL0     C78190   2.350   6.703   2.451 -0.2986 -0.6004 -0.1596
  580MOL0     C78191   2.270   6.823   2.447  0.3683  0.0495  0.3818
  580MOL0     C78192   2.146   6.826   2.389 -0.3565 -0.4887  0.1504
  580MOL0     C78193   2.091   6.707   2.339  0.2075 -0.3590  0.2249
  580MOL0     C78194   1.958   6.706   2.277  0.2993  0.7662 -0.0972
  580MOL0     O78195   1.908   6.827   2.239 -0.3421  0.4674 -0.6697
  580MOL0     C78196   1.774   6.823   2.196  1.1677 -1.6255 -0.3518
  580MOL0     C78197   1.670   6.860   2.276 -1.3726  0.1923 -0.3143
  580MOL0     C78198   1.541   6.867   2.236  0.1205 -0.1381  0.1006
  580MOL0     C78199   1.503   6.835   2.104 -0.2491 -0.3339 -0.9539
  580MOL0     O78200   1.378   6.835   2.053  0.9380  0.0375  0.1888
  580MOL0     C78201   1.259   6.855   2.138 -0.1980 -0.5137 -0.0683
  580MOL0     C78202   1.121   6.836   2.076  0.1754 -0.4314 -0.2578
  580MOL0     C78203   1.068   6.950   1.988 -0.5280  0.1581  0.5901
  580MOL0     C78204   0.914   6.957   1.970 -0.0877  0.2583  0.8388
  580MOL0     C78205   0.848   7.040   1.857 -0.6503 -0.3607 -0.1312
  580MOL0     C78206   0.892   6.982   1.728 -0.0237  0.7285 -0.4786
  580MOL0     C78207   0.823   7.037   1.607  0.5105 -0.6245 -0.1604
  580MOL0     C78208   0.802   7.181   1.597 -0.3976  0.7381 -0.2091
  580MOL0    Cl78209   0.953   7.270   1.554 -0.0132  0.3380 -0.6309
  580MOL0     C78210   1.610   6.791   2.018 -0.3097 -0.0113  0.0259
  580MOL0     C78211   1.746   6.784   2.060  0.4376 -0.1735 -1.1822
  580MOL0     O78212   1.896   6.601   2.266  0.4402 -0.5831 -0.0258
  580MOL0     C78213   2.161   6.585   2.350 -0.0422 -0.0588  0.3351
  580MOL0     C78214   2.296   6.585   2.397  0.1659 -0.0540  0.2534
  580MOL0     N78215   3.114   6.464   2.666 -1.1598  0.5185  0.4060
  580MOL0     N78216   3.217   6.394   2.623  1.2946  0.1033 -0.5489
  580MOL0     C78217   3.235   5.520   2.460  0.7163  0.0309  0.5080
  580MOL0     C78218   3.102   5.486   2.481  0.5110  0.6549 -0.3158
  580MOL0     C78219   2.651   5.490   2.489  0.3297 -0.0324 -0.0146
  580MOL0     C78220   2.610   5.520   2.620  0.0391  0.2371 -1.1168
  580MOL0     C78221   2.473   5.526   2.648  0.2723  0.1159 -0.1405
  580MOL0     C78222   2.371   5.507   2.549  0.1410  0.0064 -0.5976
  580MOL0     O78223   2.235   5.529   2.589 -0.1524  0.2264 -0.0887
  580MOL0     C78224   2.123   5.468   2.515 -0.9232 -0.1855  0.3518
  580MOL0     C78225   2.004   5.556   2.505 -0.3764 -0.2707  0.4029
  580MOL0     C78226   1.938   5.591   2.645 -0.1749  0.2737 -0.0478
  580MOL0     C78227   1.812   5.665   2.628  0.0623 -0.7777 -0.6691
  580MOL0     C78228   1.715   5.591   2.555  0.4914  0.7322  0.1780
  580MOL0     C78229   1.633   5.517   2.499 -0.3973 -0.2007  0.4660
  580MOL0     C78230   2.410   5.461   2.425  0.1485  0.0960 -1.0907
  580MOL0     C78231   2.549   5.450   2.396 -0.6878  0.1539 -0.4603
  580MOL0     C78232   2.569   5.401   2.264 -0.5263  0.2101  0.2477
  580MOL0     H78233   2.978   5.784   2.577  0.2226  1.4581 -0.9815
  580MOL0     H78234   3.203   5.851   2.516  0.2881 -0.4435 -3.0328
  580MOL0     H78235   3.521   5.559   2.502 -2.5686  0.5434  0.5748
  580MOL0     H78236   3.484   5.549   2.328 -1.0585  0.1607  0.1958
  580MOL0     H78237   3.631   5.725   2.263  3.2707 -0.1431 -0.2312
  580MOL0     H78238   3.719   5.635   2.393  0.4962  0.9182  2.0216
  580MOL0     H78239   3.760   5.866   2.454  0.9216 -0.8298 -0.5157
  580MOL0     H78240   3.628   5.805   2.564 -1.0689  0.0765 -0.3584
  580MOL0     H78241   3.542   5.937   2.303 -2.1063  1.1149  0.5139
  580MOL0     H78242   3.459   5.927   2.453 -0.7108 -1.6218 -1.5542
  580MOL0     H78243   3.601   6.081   2.566 -1.0086 -0.3724 -0.0936
  580MOL0     H78244   3.706   6.111   2.437  1.4036 -1.0289  0.5685
  580MOL0     H78245   3.590   6.280   2.383 -1.6061  1.1313  1.7330
  580MOL0     H78246   3.487   6.165   2.283 -2.0072  1.0674  0.3107
  580MOL0     H78247   3.423   6.243   2.567 -1.1419  0.3030 -0.4736
  580MOL0     H78248   3.330   6.139   2.469  0.6606 -0.1992  1.9115
  580MOL0     H78249   3.400   6.419   2.351  0.0185  1.2277  1.5235
  580MOL0     H78250   3.267   6.314   2.313 -0.1736  1.8618 -1.2011
  580MOL0     H78251   3.125   6.564   2.361  1.4006  1.8151  0.6009
  580MOL0     H78252   2.932   6.651   2.687 -2.1339 -1.6205 -0.3212
  580MOL0     H78253   2.992   6.738   2.541 -0.2430  1.2376  2.1396
  580MOL0     H78254   2.841   6.587   2.399 -1.1287  0.6759  0.1626
  580MOL0     H78255   2.811   6.488   2.545  1.6955 -0.3676 -0.4478
  580MOL0     H78256   2.726   6.768   2.466 -1.1037 -1.8472 -1.9287
  580MOL0     H78257   2.709   6.718   2.633 -0.9447  0.9663  0.2111
  580MOL0     H78258   2.564   6.537   2.564  3.3260  0.1395  0.6082
  580MOL0     H78259   2.594   6.583   2.389  0.9784 -1.7124 -0.2880
  580MOL0     H78260   2.309   6.909   2.501  3.0245 -2.0585  2.0566
  580MOL0     H78261   2.093   6.920   2.382  3.5870  1.9246 -0.6963
  580MOL0     H78262   1.683   6.901   2.376  0.4476 -2.5962  0.7202
  580MOL0     H78263   1.475   6.894   2.318  2.6841  0.6567  2.0709
  580MOL0     H78264   1.263   6.781   2.219 -1.4509 -1.1343 -0.5527
  580MOL0     H78265   1.258   6.955   2.183 -0.0864 -0.5525  0.0211
  580MOL0     H78266   1.132   6.751   2.009 -0.3595  0.6050 -1.7167
  580MOL0     H78267   1.049   6.798   2.149  1.5606  0.5991  1.7541
  580MOL0     H78268   1.099   7.048   2.026  3.5312 -1.4510  1.9676
  580MOL0     H78269   1.116   6.948   1.890  0.4377  0.7489  1.0393
  580MOL0     H78270   0.873   6.978   2.070  1.8169  0.3654  1.6465
  580MOL0     H78271   0.883   6.853   1.959 -1.0916  0.3503  2.4051
  580MOL0     H78272   0.871   7.146   1.871 -2.0316 -0.4362  3.7027
  580MOL0     H78273   0.739   7.031   1.856 -0.8895  1.8624 -0.1780
  580MOL0     H78274   1.001   6.995   1.727  0.0922 -0.1067  0.4340
  580MOL0     H78275   0.872   6.875   1.730 -0.7049  0.7397 -2.9023
  580MOL0     H78276   0.718   7.009   1.598 -0.6829  3.5265 -1.5814
  580MOL0     H78277   0.873   7.004   1.515  0.4761 -0.1628 -0.3482
  580MOL0     H78278   0.714   7.206   1.537  0.7971 -0.4516 -2.5847
  580MOL0     H78279   0.774   7.217   1.697 -2.5317 -0.0444 -0.4705
  580MOL0     H78280   1.588   6.741   1.924  0.7486 -1.8909  0.7149
  580MOL0     H78281   1.827   6.751   1.995  0.1778 -0.0072 -1.5940
  580MOL0     H78282   2.109   6.492   2.330  2.9683 -2.0231  0.8972
  580MOL0     H78283   2.364   6.501   2.395  0.7913  0.4554 -0.0039
  580MOL0     H78284   3.303   5.438   2.439  0.0820 -0.2764 -0.3752
  580MOL0     H78285   3.081   5.380   2.472  2.6199  0.2648 -1.0040
  580MOL0     H78286   2.680   5.553   2.696 -1.5284 -2.1232  1.5166
  580MOL0     H78287   2.434   5.558   2.745  3.2226 -0.8009  1.4835
  580MOL0     H78288   2.083   5.380   2.567 -2.1401 -1.1719 -2.0699
  580MOL0     H78289   2.144   5.445   2.410  0.6910  2.7495 -0.0881
  580MOL0     H78290   1.929   5.501   2.448 -0.2096  2.2657 -2.5195
  580MOL0     H78291   2.018   5.650   2.450  0.0257 -0.1760  0.6653
  580MOL0     H78292   2.005   5.657   2.700 -0.3332 -0.8736  1.6102
  580MOL0     H78293   1.922   5.509   2.716 -2.2187  1.1639  0.5986
  580MOL0     H78294   1.765   5.697   2.721  0.1417  0.3847 -1.0052
  580MOL0     H78295   1.844   5.762   2.588  3.7443 -0.6393  2.0752
  580MOL0     H78296   1.558   5.457   2.452 -0.8660  0.7551 -0.0442
  580MOL0     H78297   2.335   5.434   2.352  1.2840 -4.0934 -1.0099
  580MOL0     H78298   2.609   5.299   2.274  0.4055  0.6154  0.7888
  580MOL0     H78299   2.480   5.418   2.203 -1.7280  2.4187  2.4530
  580MOL0     H78300   2.645   5.464   2.217  0.5156 -2.7839 -2.4788
  581MOL0     O78301   7.426   5.851  11.215 -0.0961  0.1433  0.5222
  581MOL0     C78302   7.402   5.824  11.096  0.2972  0.3800  0.0413
  581MOL0     O78303   7.489   5.828  10.998  0.0260  1.1092 -0.3105
  581MOL0     C78304   7.612   5.889  11.017 -0.9581 -0.1861  0.2207
  581MOL0     C78305   7.624   6.018  10.970 -0.5391  0.3583 -0.2411
  581MOL0     C78306   7.741   6.096  10.986 -0.4359 -0.6224  0.0423
  581MOL0     C78307   7.854   6.040  11.048  0.5271 -0.0716 -0.2583
  581MOL0     O78308   7.959   6.123  11.055  0.5803  0.5291 -0.1813
  581MOL0     C78309   8.089   6.067  11.041 -0.2922 -0.4677 -0.2843
  581MOL0     C78310   8.183   6.103  11.156  0.8293 -0.5182 -0.6666
  581MOL0     C78311   8.210   6.255  11.178 -0.3723  0.0853  0.2649
  581MOL0     C78312   8.312   6.306  11.084 -0.7305 -0.5951 -0.1190
  581MOL0     C78313   8.339   6.457  11.123 -0.5147  0.9264 -0.5891
  581MOL0     C78314   8.481   6.516  11.097 -0.0245 -0.2829 -0.7772
  581MOL0     C78315   8.593   6.451  11.175  0.0421 -0.4005 -0.0865
  581MOL0     C78316   8.733   6.496  11.128  0.2628  0.5834  0.1406
  581MOL0     N78317   8.759   6.632  11.143  0.2860  0.4152 -0.2639
  581MOL0     C78318   8.775   6.690  11.268 -0.8481 -0.1619  0.2518
  581MOL0     C78319   8.791   6.819  11.233  0.5545 -0.5297  0.3822
  581MOL0     C78320   8.821   6.940  11.328  0.5968  0.3587  0.1855
  581MOL0     C78321   8.927   7.046  11.285  0.3572  0.1866 -0.2289
  581MOL0     C78322   8.924   7.164  11.385 -0.7535 -0.3479 -0.2808
  581MOL0     C78323   8.988   7.296  11.319 -0.3890 -0.4537 -0.2149
  581MOL0     O78324   9.132   7.283  11.334 -0.3099  0.1505 -0.8946
  581MOL0     C78325   9.213   7.389  11.309 -0.4703  0.3227  0.6457
  581MOL0     C78326   9.180   7.518  11.267  0.8543 -0.5410  0.4029
  581MOL0     C78327   9.274   7.613  11.242  0.3033  0.0616  0.8952
  581MOL0     C78328   9.410   7.586  11.250 -0.4610  0.2860  0.4902
  581MOL0     C78329   9.515   7.686  11.218 -0.3641  0.4080  0.2928
  581MOL0     O78330   9.642   7.650  11.257 -0.5639  0.1429 -0.3253
  581MOL0     C78331   9.767   7.712  11.230 -1.1777  0.4107  0.9719
  581MOL0     C78332   9.781   7.845  11.185 -0.1625  0.3862  0.1544
  581MOL0     C78333   9.911   7.897  11.161 -0.3763 -0.7810 -0.0226
  581MOL0     C78334  10.028   7.825  11.181  0.0031 -0.4173  0.3229
  581MOL0     O78335  10.154   7.872  11.153 -0.8319 -0.2634  0.2607
  581MOL0     C78336  10.168   8.001  11.095 -0.2105 -0.4651 -0.1536
  581MOL0     C78337  10.165   8.104  11.210  0.6531  0.9912 -0.1838
  581MOL0     C78338  10.255   8.095  11.337  0.6983  0.0231 -0.4273
  581MOL0     C78339  10.399   8.123  11.295  0.0727 -0.4854 -0.0939
  581MOL0     C78340  10.491   8.116  11.409  0.1358 -0.2076 -0.1974
  581MOL0     C78341  10.631   8.088  11.355 -0.3751 -0.1979 -0.1324
  581MOL0     C78342  10.741   8.084  11.454  0.6184  0.0731 -1.9086
  581MOL0     C78343  10.750   7.954  11.539 -0.2004 -0.2618 -0.0761
  581MOL0    Cl78344  10.896   7.927  11.613 -0.2287 -0.0632 -0.3686
  581MOL0     C78345  10.020   7.694  11.234  0.1047  0.1240  0.1611
  581MOL0     C78346   9.889   7.642  11.255 -0.3286 -0.0752  0.3381
  581MOL0     O78347   9.481   7.784  11.156 -0.0228  0.1381  0.3143
  581MOL0     C78348   9.451   7.454  11.280 -0.6778 -1.1923  0.6011
  581MOL0     C78349   9.352   7.363  11.318 -0.0105  0.0941 -1.0725
  581MOL0     N78350   8.790   6.833  11.094 -0.2229  0.4743  0.0442
  581MOL0     N78351   8.766   6.720  11.040  0.2438  0.5000  0.1748
  581MOL0     C78352   7.841   5.908  11.105 -0.0815  0.2820  0.0120
  581MOL0     C78353   7.725   5.832  11.085 -0.5755 -0.0240 -0.4886
  581MOL0     C78354   7.256   5.811  11.050  0.3819  0.0832 -0.8019
  581MOL0     C78355   7.234   5.837  10.911 -0.3998  0.3789 -0.1057
  581MOL0     C78356   7.103   5.829  10.867  0.8148  0.3582 -0.3331
  581MOL0     C78357   6.992   5.794  10.948  0.5226  0.4343 -0.2977
  581MOL0     O78358   6.868   5.777  10.891 -0.5480  0.0179  0.1572
  581MOL0     C78359   6.760   5.855  10.954  0.2658  0.0958 -0.4353
  581MOL0     C78360   6.705   5.923  10.836  0.4997 -0.2337 -0.2424
  581MOL0     C78361   6.599   6.022  10.876 -0.6392  0.0558  0.5781
  581MOL0     C78362   6.509   6.063  10.760  0.4198  0.3174 -0.7088
  581MOL0     C78363   6.404   6.148  10.813 -0.5935  0.2185 -1.2272
  581MOL0     C78364   6.299   6.200  10.845  0.2282  0.2075  0.7621
  581MOL0     C78365   7.014   5.767  11.084  0.5414  0.0679 -0.0267
  581MOL0     C78366   7.141   5.777  11.137 -1.2311 -0.2480 -0.0999
  581MOL0     C78367   7.174   5.753  11.279 -0.1255 -0.5519 -0.0570
  581MOL0     H78368   7.538   6.048  10.912 -2.0786 -2.8678  0.1366
  581MOL0     H78369   7.750   6.192  10.937  0.7002 -0.3673  0.7305
  581MOL0     H78370   8.083   5.958  11.031  0.5400 -0.3612 -2.8054
  581MOL0     H78371   8.151   6.104  10.959 -2.2309  0.3774 -1.4537
  581MOL0     H78372   8.280   6.053  11.149  0.4259 -2.5635  4.0825
  581MOL0     H78373   8.149   6.062  11.252  0.9767  0.5767 -0.1191
  581MOL0     H78374   8.254   6.268  11.277 -0.4264 -0.2191  0.3308
  581MOL0     H78375   8.115   6.309  11.172 -0.2351  0.2140 -0.8646
  581MOL0     H78376   8.402   6.244  11.095 -0.5177 -0.0078  1.8847
  581MOL0     H78377   8.298   6.306  10.976  1.5593  2.6380 -0.5460
  581MOL0     H78378   8.258   6.520  11.085 -2.6905 -1.5965 -0.4946
  581MOL0     H78379   8.335   6.452  11.233  1.0536 -5.7885 -0.4017
  581MOL0     H78380   8.504   6.495  10.992 -0.3746 -1.9244 -0.5508
  581MOL0     H78381   8.479   6.624  11.116 -1.7829 -0.0147 -2.2200
  581MOL0     H78382   8.601   6.342  11.172  2.6979 -0.2523 -0.4080
  581MOL0     H78383   8.580   6.475  11.281  3.1182 -0.0322  0.2914
  581MOL0     H78384   8.809   6.446  11.189 -1.5874 -1.3957  0.9719
  581MOL0     H78385   8.743   6.476  11.020  2.6054 -0.1527  0.4425
  581MOL0     H78386   8.772   6.633  11.361  2.2170 -1.1519 -0.1385
  581MOL0     H78387   8.728   6.996  11.345 -0.1258 -0.8411  0.3458
  581MOL0     H78388   8.845   6.893  11.424 -1.7038  1.4398  1.3942
  581MOL0     H78389   9.028   7.005  11.280 -0.1659 -1.3976  1.2275
  581MOL0     H78390   8.888   7.083  11.189  0.4552 -0.0281 -0.3515
  581MOL0     H78391   8.966   7.134  11.481 -3.5078  1.4624  1.6317
  581MOL0     H78392   8.821   7.195  11.405 -0.1447  3.0153 -1.6518
  581MOL0     H78393   8.940   7.378  11.373 -1.6549 -2.5882  2.1140
  581MOL0     H78394   8.967   7.296  11.212 -2.0987 -1.9665  0.0751
  581MOL0     H78395   9.078   7.535  11.233  2.1911  0.7156 -3.4669
  581MOL0     H78396   9.244   7.712  11.207 -0.7257 -1.1402 -1.8900
  581MOL0     H78397   9.692   7.897  11.152 -0.9181 -1.8313 -1.5349
  581MOL0     H78398   9.902   7.997  11.120 -1.3542  0.9279  3.8931
  581MOL0     H78399  10.267   7.996  11.048 -0.4365 -0.4445 -0.6363
  581MOL0     H78400  10.088   8.022  11.024 -1.1022  0.0745  0.9786
  581MOL0     H78401  10.176   8.206  11.171 -1.7154  1.3920  0.0248
  581MOL0     H78402  10.064   8.095  11.252  0.7128  1.0761 -0.0212
  581MOL0     H78403  10.228   8.172  11.410 -2.2491 -0.3742 -0.9680
  581MOL0     H78404  10.236   7.997  11.381 -1.0771  0.0514 -1.0464
  581MOL0     H78405  10.419   8.222  11.254  2.4976 -1.2207 -0.8330
  581MOL0     H78406  10.416   8.049  11.217 -1.0858 -0.3457 -0.4967
  581MOL0     H78407  10.463   8.031  11.472  0.5886 -0.2209 -0.0118
  581MOL0     H78408  10.483   8.205  11.471  0.1428 -2.9091  4.1077
  581MOL0     H78409  10.639   7.995  11.298 -1.1093 -0.5405  0.3110
  581MOL0     H78410  10.649   8.172  11.287 -2.1410  1.4006  1.2839
  581MOL0     H78411  10.736   8.174  11.517 -1.7034 -0.4194 -1.2878
  581MOL0     H78412  10.828   8.090  11.387  1.0382 -0.7503 -1.4572
  581MOL0     H78413  10.677   7.969  11.619  2.2722  2.7437  1.8624
  581MOL0     H78414  10.735   7.869  11.471  4.8574  0.1953 -2.2617
  581MOL0     H78415  10.109   7.640  11.264  2.1583  3.3794  0.5036
  581MOL0     H78416   9.872   7.542  11.295 -0.6033 -1.4560 -2.9179
  581MOL0     H78417   9.551   7.414  11.272 -0.7485 -1.2586 -0.0233
  581MOL0     H78418   9.372   7.262  11.350 -0.7091  0.5862  1.0448
  581MOL0     H78419   7.925   5.873  11.164 -0.8853 -1.0866  0.4024
  581MOL0     H78420   7.717   5.732  11.125  0.3516 -1.1978 -3.0409
  581MOL0     H78421   7.318   5.861  10.847  1.3267  0.3181  1.9965
  581MOL0     H78422   7.077   5.856  10.765  0.3797 -1.1332 -0.6482
  581MOL0     H78423   6.798   5.927  11.028  0.5946  0.4598 -0.9502
  581MOL0     H78424   6.690   5.789  11.006  0.5722  1.1697  1.4444
  581MOL0     H78425   6.666   5.850  10.764 -0.3904  0.5885 -0.6080
  581MOL0     H78426   6.784   5.984  10.791 -1.0038  2.8874  1.0508
  581MOL0     H78427   6.654   6.109  10.913 -3.1292  1.5380  1.0547
  581MOL0     H78428   6.537   5.995  10.962 -0.6661  2.3000  1.3229
  581MOL0     H78429   6.567   6.126  10.690 -0.7271  1.9270 -0.2614
  581MOL0     H78430   6.466   5.975  10.712 -2.0301  1.6690 -1.1471
  581MOL0     H78431   6.203   6.243  10.865 -0.0165  0.0281 -0.0149
  581MOL0     H78432   6.931   5.748  11.152  0.6272  3.5373  1.2125
  581MOL0     H78433   7.193   5.849  11.328 -1.5906  0.7278 -1.8576
  581MOL0     H78434   7.086   5.708  11.327 -0.6353 -1.2159 -1.5443
  581MOL0     H78435   7.261   5.690  11.297  1.6553  1.5118 -1.0634
  582MOL0     O78436   1.505   3.027   4.469  0.4792  0.6139  0.9511
  582MOL0     C78437   1.459   2.959   4.371  0.4942 -0.2077  0.1461
  582MOL0     O78438   1.539   2.918   4.265  0.7236  0.2303  0.3136
  582MOL0     C78439   1.669   2.955   4.274  0.4836  0.2136 -0.0205
  582MOL0     C78440   1.709   3.080   4.232 -0.7246 -0.1899 -0.3602
  582MOL0     C78441   1.845   3.123   4.222  0.1129  0.4352 -0.8751
  582MOL0     C78442   1.937   3.028   4.257 -0.0769 -0.0943 -0.3677
  582MOL0     O78443   2.073   3.062   4.247 -0.5193  0.1808  0.7924
  582MOL0     C78444   2.111   3.193   4.295 -0.4993 -0.0204 -0.0332
  582MOL0     C78445   2.247   3.221   4.243  0.5758 -0.2107 -0.1956
  582MOL0     C78446   2.309   3.349   4.306 -0.4988 -0.3460 -0.6543
  582MOL0     C78447   2.455   3.357   4.284 -0.4017  0.4191 -0.2082
  582MOL0     C78448   2.488   3.505   4.283 -0.0348 -0.5552 -0.8665
  582MOL0     C78449   2.637   3.531   4.283 -1.0855 -0.1140  0.6617
  582MOL0     C78450   2.716   3.459   4.387 -1.5018 -0.1511 -0.1697
  582MOL0     C78451   2.857   3.530   4.390 -0.2412  0.2595  0.2228
  582MOL0     N78452   2.941   3.488   4.508 -0.0448 -0.3672  0.1045
  582MOL0     C78453   3.062   3.542   4.549 -0.7947  0.3070  0.4319
  582MOL0     C78454   3.110   3.454   4.648  0.1614 -0.7121 -0.3740
  582MOL0     C78455   3.236   3.448   4.727  0.1768 -0.2248 -0.0909
  582MOL0     C78456   3.195   3.485   4.872  0.5294  0.4982  0.9195
  582MOL0     C78457   3.314   3.455   4.973  0.0819  0.2189 -0.3956
  582MOL0     C78458   3.282   3.477   5.120  0.0187 -0.2133  0.0732
  582MOL0     O78459   3.357   3.392   5.208  0.1451 -0.2584 -0.5697
  582MOL0     C78460   3.495   3.416   5.215  0.0051  0.0938 -0.3155
  582MOL0     C78461   3.551   3.542   5.240  0.5966 -0.0088 -0.2104
  582MOL0     C78462   3.689   3.564   5.241  0.1726  0.1855  0.0609
  582MOL0     C78463   3.777   3.457   5.205 -0.0395  0.2260 -0.0234
  582MOL0     C78464   3.921   3.483   5.189  0.0815  0.4976  0.3587
  582MOL0     O78465   3.966   3.609   5.201  0.4135 -0.5190  0.0844
  582MOL0     C78466   4.097   3.645   5.225 -0.2935  0.7799  0.0242
  582MOL0     C78467   4.184   3.642   5.114  0.0339  0.1645 -0.0581
  582MOL0     C78468   4.320   3.684   5.126 -0.4230  0.3462  0.5977
  582MOL0     C78469   4.366   3.725   5.250  1.0039  0.2060 -0.2457
  582MOL0     O78470   4.498   3.756   5.276  0.3148 -0.2470  0.1541
  582MOL0     C78471   4.578   3.799   5.163  0.5250 -0.0856  0.0399
  582MOL0     C78472   4.700   3.871   5.215 -0.9481 -0.5233 -0.0082
  582MOL0     C78473   4.808   3.881   5.107  0.3706 -0.1554  0.7653
  582MOL0     C78474   4.926   3.960   5.160  0.1163  0.2402 -0.3321
  582MOL0     C78475   5.046   3.936   5.087 -0.1726 -0.2570 -0.5350
  582MOL0     C78476   5.086   3.790   5.092  0.3056 -0.9404 -0.1167
  582MOL0     C78477   5.234   3.765   5.045 -0.6757  0.3284 -0.1406
  582MOL0     C78478   5.350   3.833   5.123  0.2467 -0.3827 -0.3532
  582MOL0    Cl78479   5.508   3.770   5.060  0.5064 -0.0584 -0.0449
  582MOL0     C78480   4.281   3.707   5.361  0.7600  0.5100  0.2717
  582MOL0     C78481   4.146   3.673   5.353 -0.1526  0.2586  0.6067
  582MOL0     O78482   3.989   3.382   5.173 -0.1138  0.2651 -0.5654
  582MOL0     C78483   3.720   3.336   5.171  0.1925 -0.3402 -0.5865
  582MOL0     C78484   3.585   3.311   5.183  0.5218  1.0591 -0.3956
  582MOL0     N78485   3.008   3.367   4.664  0.2484  0.6152  0.5629
  582MOL0     N78486   2.912   3.382   4.580 -0.4600  0.2941 -0.3944
  582MOL0     C78487   1.894   2.900   4.308 -0.3437  0.2866 -0.8849
  582MOL0     C78488   1.762   2.862   4.306  1.2828 -0.2500 -0.7949
  582MOL0     C78489   1.318   2.932   4.380  1.1628  0.1463 -0.1075
  582MOL0     C78490   1.243   3.009   4.469  0.1596 -0.8673 -0.3470
  582MOL0     C78491   1.108   2.986   4.473  0.6887 -0.2424 -0.5231
  582MOL0     C78492   1.037   2.883   4.402 -0.6509 -0.4921 -0.1801
  582MOL0     O78493   0.902   2.872   4.398  0.2117  0.4951 -0.1702
  582MOL0     C78494   0.817   2.980   4.465 -0.7948  0.5338  0.2350
  582MOL0     C78495   0.674   2.934   4.488  0.2298 -0.0578 -0.2336
  582MOL0     C78496   0.599   2.989   4.611  0.8573  0.7398  0.4309
  582MOL0     C78497   0.510   3.116   4.589  0.0675 -0.0103 -0.5464
  582MOL0     C78498   0.377   3.082   4.524 -0.0051 -0.6413 -0.5494
  582MOL0     C78499   0.268   3.065   4.476 -0.4696  0.1144 -0.5223
  582MOL0     C78500   1.104   2.808   4.318  0.7309 -0.0247 -0.4650
  582MOL0     C78501   1.245   2.825   4.308 -0.5442 -0.4567  1.0336
  582MOL0     C78502   1.325   2.717   4.236 -0.3830 -0.6629 -0.3197
  582MOL0     H78503   1.636   3.151   4.193  0.3491 -0.2576 -2.6711
  582MOL0     H78504   1.864   3.221   4.181 -3.5052  1.8943  0.5062
  582MOL0     H78505   2.040   3.271   4.266 -0.5077  0.0793  0.2556
  582MOL0     H78506   2.114   3.187   4.404  1.1771  0.6328 -0.0232
  582MOL0     H78507   2.226   3.238   4.137 -1.7330  0.9409  0.3988
  582MOL0     H78508   2.315   3.136   4.253 -0.5976 -1.1489  0.0352
  582MOL0     H78509   2.289   3.351   4.414  1.3106 -2.4491 -0.1981
  582MOL0     H78510   2.257   3.434   4.261 -0.5182 -0.4953 -0.9134
  582MOL0     H78511   2.509   3.297   4.358  1.0150 -0.4797 -1.8821
  582MOL0     H78512   2.475   3.307   4.189 -2.7168  0.9946 -1.0594
  582MOL0     H78513   2.438   3.556   4.201 -1.0822  1.2824  0.8431
  582MOL0     H78514   2.442   3.545   4.373  0.2846 -1.2513 -0.3878
  582MOL0     H78515   2.677   3.516   4.182  0.0415  7.5280 -0.6861
  582MOL0     H78516   2.657   3.638   4.297 -2.2037  0.1607  0.2572
  582MOL0     H78517   2.737   3.353   4.369  1.1973  0.5683 -1.9628
  582MOL0     H78518   2.672   3.465   4.487 -2.3116 -2.0269 -0.3723
  582MOL0     H78519   2.902   3.522   4.291 -0.9867  0.4173 -0.1370
  582MOL0     H78520   2.843   3.637   4.410  0.9723  0.1638  1.8002
  582MOL0     H78521   3.107   3.636   4.519 -0.5544  0.2227  0.5242
  582MOL0     H78522   3.276   3.347   4.712 -0.1860 -0.1354 -2.0251
  582MOL0     H78523   3.301   3.530   4.694 -0.9993  1.1278  0.8922
  582MOL0     H78524   3.169   3.590   4.882 -0.3260  0.2243  1.7363
  582MOL0     H78525   3.104   3.432   4.900 -1.0260  1.6918 -1.5908
  582MOL0     H78526   3.402   3.518   4.956  0.1739  0.7009  1.5531
  582MOL0     H78527   3.333   3.347   4.971  0.3589  0.2579 -0.1035
  582MOL0     H78528   3.179   3.439   5.124  0.0484 -0.3066 -0.0564
  582MOL0     H78529   3.297   3.582   5.146  4.7202 -0.9025  1.0289
  582MOL0     H78530   3.481   3.619   5.271  2.8125  1.7447  0.7079
  582MOL0     H78531   3.725   3.660   5.275  0.9652 -0.2753  0.5421
  582MOL0     H78532   4.148   3.622   5.014  0.1273  0.3102 -0.1223
  582MOL0     H78533   4.390   3.686   5.043 -0.3743  5.4306  0.4458
  582MOL0     H78534   4.602   3.715   5.098  0.6474 -0.8575  1.0471
  582MOL0     H78535   4.523   3.874   5.106 -1.0949 -2.3198 -1.5299
  582MOL0     H78536   4.667   3.969   5.250 -0.4094 -0.8734  1.5627
  582MOL0     H78537   4.721   3.822   5.310 -0.8350  2.0518  1.3760
  582MOL0     H78538   4.847   3.780   5.089  0.9365  0.1924 -0.0157
  582MOL0     H78539   4.762   3.927   5.019  1.7484  1.7427  0.9901
  582MOL0     H78540   4.941   3.941   5.267 -2.0070  1.2519  0.2186
  582MOL0     H78541   4.897   4.065   5.160  0.8987  0.4709  0.8510
  582MOL0     H78542   5.131   3.987   5.134 -0.7224 -0.3754  0.6268
  582MOL0     H78543   5.042   3.977   4.986 -0.5930  1.0536 -0.0135
  582MOL0     H78544   5.083   3.756   5.196  1.5062  0.6480  0.4731
  582MOL0     H78545   5.017   3.730   5.032 -0.4533  0.5799 -0.8103
  582MOL0     H78546   5.226   3.801   4.942 -2.5507 -0.7900 -0.4284
  582MOL0     H78547   5.250   3.657   5.050  0.7127  0.5510  0.8315
  582MOL0     H78548   5.350   3.941   5.103 -1.5827 -0.3808 -0.5108
  582MOL0     H78549   5.341   3.813   5.230  5.6955 -0.0822  0.4204
  582MOL0     H78550   4.304   3.733   5.463  2.0247  2.6705 -0.5065
  582MOL0     H78551   4.090   3.658   5.445 -2.5301 -3.3318 -1.2020
  582MOL0     H78552   3.776   3.248   5.140  2.0024 -0.2100  2.0208
  582MOL0     H78553   3.544   3.212   5.166  2.8515  0.4740 -3.5383
  582MOL0     H78554   1.958   2.822   4.347  0.2516  1.2024  0.0131
  582MOL0     H78555   1.728   2.766   4.344  1.6767 -0.7043 -1.5673
  582MOL0     H78556   1.289   3.088   4.527  0.1440 -0.5935 -0.7075
  582MOL0     H78557   1.061   3.051   4.546  3.1131 -1.6186  2.5226
  582MOL0     H78558   0.823   3.069   4.402  3.1701 -0.4832 -1.1045
  582MOL0     H78559   0.860   3.008   4.562  2.7101  0.0236 -1.0124
  582MOL0     H78560   0.681   2.826   4.503 -2.2150 -0.8445 -3.4679
  582MOL0     H78561   0.614   2.954   4.398  0.1076  1.3357  0.1386
  582MOL0     H78562   0.660   3.005   4.700  0.1873 -1.3907  1.3489
  582MOL0     H78563   0.532   2.905   4.634 -0.1833  1.0118 -1.4249
  582MOL0     H78564   0.494   3.159   4.688  0.5982  1.0883 -0.9210
  582MOL0     H78565   0.567   3.190   4.533 -0.4911  0.6438 -0.2724
  582MOL0     H78566   0.174   3.059   4.425 -0.7158  1.2614 -0.2393
  582MOL0     H78567   1.056   2.728   4.264  1.5811 -3.1297  2.9696
  582MOL0     H78568   1.255   2.635   4.216 -0.3513 -0.8885  0.4736
  582MOL0     H78569   1.366   2.766   4.147  1.8535 -0.9005  0.5250
  582MOL0     H78570   1.411   2.677   4.290 -0.4519 -0.3830 -0.0014
  583MOL0     O78571   7.821   6.470   5.386  0.1261  0.5083  0.7823
  583MOL0     C78572   7.819   6.360   5.438  0.4311  0.7880 -0.4491
  583MOL0     O78573   7.919   6.299   5.505 -0.4694 -0.9021  0.3257
  583MOL0     C78574   8.050   6.343   5.471  0.6861  0.4951  0.4668
  583MOL0     C78575   8.128   6.385   5.570 -0.0492 -0.1536 -0.3561
  583MOL0     C78576   8.263   6.420   5.548 -0.0044 -0.4286  0.1776
  583MOL0     C78577   8.317   6.422   5.419  0.7761  0.1649 -1.2802
  583MOL0     O78578   8.453   6.452   5.404  0.7686 -0.1412 -0.3258
  583MOL0     C78579   8.492   6.542   5.293 -0.7143  0.1239 -0.1101
  583MOL0     C78580   8.564   6.477   5.173 -0.0112 -0.1380 -0.1044
  583MOL0     C78581   8.543   6.555   5.040  1.0329  0.0099  0.4024
  583MOL0     C78582   8.382   6.547   5.012  0.6758 -0.3369 -0.1226
  583MOL0     C78583   8.339   6.612   4.874 -0.1790 -0.0632 -0.0194
  583MOL0     C78584   8.372   6.754   4.852 -0.1123 -0.3193 -0.5733
  583MOL0     C78585   8.367   6.807   4.706  0.4083 -0.9526  0.2482
  583MOL0     C78586   8.219   6.831   4.657 -0.2146 -0.1452 -0.0439
  583MOL0     N78587   8.195   6.922   4.542 -0.1467  0.1933 -0.1585
  583MOL0     C78588   8.190   7.057   4.550 -0.0671 -1.0532 -0.1979
  583MOL0     C78589   8.142   7.094   4.431 -0.3526 -0.5249 -0.4599
  583MOL0     C78590   8.126   7.243   4.397  1.1349  0.6667 -1.0258
  583MOL0     C78591   8.254   7.316   4.373  0.0523  0.2038 -0.9558
  583MOL0     C78592   8.252   7.455   4.307  0.7811  0.3063 -0.1442
  583MOL0     C78593   8.387   7.504   4.258  0.6016  0.1980  0.0651
  583MOL0     O78594   8.470   7.488   4.373 -0.6194 -0.1010  0.0706
  583MOL0     C78595   8.605   7.493   4.348 -0.2377 -0.2878 -0.6070
  583MOL0     C78596   8.666   7.538   4.229 -0.5442  0.5104  0.2328
  583MOL0     C78597   8.801   7.547   4.214  0.2226 -0.0518  0.4674
  583MOL0     C78598   8.885   7.515   4.327 -1.0718  0.4129 -0.4571
  583MOL0     C78599   9.027   7.529   4.313 -0.1919  0.5927 -1.0550
  583MOL0     O78600   9.079   7.604   4.213  0.2640 -0.3632 -0.0753
  583MOL0     C78601   9.216   7.619   4.214  0.5949  0.4473 -0.7007
  583MOL0     C78602   9.295   7.549   4.129 -0.3464  0.3904  0.2386
  583MOL0     C78603   9.440   7.567   4.118 -0.7553 -0.2699 -0.2511
  583MOL0     C78604   9.494   7.646   4.220  0.0198 -0.3766  0.2695
  583MOL0     O78605   9.621   7.657   4.237 -0.3781  0.5035 -0.2887
  583MOL0     C78606   9.712   7.577   4.153  0.0845  0.4694  0.3149
  583MOL0     C78607   9.836   7.570   4.232 -0.1163 -0.5087 -0.1193
  583MOL0     C78608   9.840   7.456   4.329  0.3174 -0.4353  0.3974
  583MOL0     C78609   9.968   7.457   4.413  0.1132  0.0836 -0.1487
  583MOL0     C78610  10.090   7.407   4.330 -0.4127  1.2881 -0.3240
  583MOL0     C78611  10.203   7.356   4.419 -0.2602 -0.5207 -0.5610
  583MOL0     C78612  10.331   7.321   4.347 -0.6684 -0.3371  0.7677
  583MOL0     C78613  10.436   7.240   4.425  0.0193  0.3630 -0.7939
  583MOL0    Cl78614  10.552   7.182   4.314  0.0288  0.0025 -0.3966
  583MOL0     C78615   9.412   7.712   4.311  0.6570 -0.8564 -0.3666
  583MOL0     C78616   9.276   7.699   4.310  1.2850 -0.0920  0.4310
  583MOL0     O78617   9.087   7.479   4.407 -0.2097 -0.6326  0.2987
  583MOL0     C78618   8.822   7.465   4.447 -0.3766  0.1178  0.5292
  583MOL0     C78619   8.687   7.458   4.452 -0.6760  0.0336 -0.4179
  583MOL0     N78620   8.112   6.987   4.353 -0.5302 -0.2093  0.3127
  583MOL0     N78621   8.149   6.882   4.421  0.0630 -0.3927  0.3221
  583MOL0     C78622   8.231   6.378   5.313 -0.3413 -0.4679 -0.1915
  583MOL0     C78623   8.095   6.342   5.335  0.4176 -0.1611 -0.2886
  583MOL0     C78624   7.689   6.276   5.426  0.2514  0.1000  0.0753
  583MOL0     C78625   7.701   6.137   5.407 -0.1452 -0.0622 -0.2867
  583MOL0     C78626   7.585   6.056   5.413  0.2743 -0.5276  1.0801
  583MOL0     C78627   7.454   6.116   5.422 -0.7557 -0.5712 -0.5977
  583MOL0     O78628   7.346   6.033   5.402  0.4728  0.3916  0.2081
  583MOL0     C78629   7.243   6.053   5.502  0.3893  0.0503 -1.2516
  583MOL0     C78630   7.134   5.954   5.467 -0.3234  0.1980 -0.0025
  583MOL0     C78631   7.010   5.978   5.544 -0.0390  0.5358 -0.4297
  583MOL0     C78632   6.926   6.106   5.505  0.2772 -0.3251  0.5002
  583MOL0     C78633   6.790   6.108   5.564  0.1074 -0.1815  0.1600
  583MOL0     C78634   6.679   6.107   5.604  0.1395 -0.1258  0.1336
  583MOL0     C78635   7.444   6.252   5.417  0.2808  0.1464 -0.0209
  583MOL0     C78636   7.556   6.333   5.426 -0.4015  0.1619  0.1517
  583MOL0     C78637   7.531   6.482   5.429 -0.8854  0.3685  0.0856
  583MOL0     H78638   8.093   6.394   5.673  0.8330  0.3555 -0.0985
  583MOL0     H78639   8.336   6.435   5.627  0.3106 -1.2729  0.0628
  583MOL0     H78640   8.407   6.608   5.273 -1.0150  0.3241  1.6796
  583MOL0     H78641   8.572   6.606   5.330  1.2628 -2.7183  0.8440
  583MOL0     H78642   8.525   6.374   5.175  0.8213 -0.5090 -1.5214
  583MOL0     H78643   8.673   6.471   5.183  0.1013  0.8841 -0.6211
  583MOL0     H78644   8.599   6.510   4.958  0.6874 -1.9824  1.1853
  583MOL0     H78645   8.566   6.659   5.063  0.4681  0.4184 -0.7933
  583MOL0     H78646   8.356   6.441   5.016  2.0800 -0.7100 -0.3358
  583MOL0     H78647   8.324   6.588   5.094  2.3773 -2.4837  2.3100
  583MOL0     H78648   8.408   6.559   4.808 -1.9167 -3.3400  0.5580
  583MOL0     H78649   8.242   6.578   4.837 -0.5309  0.8018  0.1031
  583MOL0     H78650   8.301   6.813   4.910  0.1782 -0.2900 -0.2444
  583MOL0     H78651   8.476   6.768   4.883 -0.0273 -3.3624  0.8799
  583MOL0     H78652   8.414   6.733   4.639 -0.9667 -4.2435  2.6218
  583MOL0     H78653   8.425   6.899   4.704 -1.5556  0.3585 -2.4888
  583MOL0     H78654   8.181   6.735   4.622 -0.8481  1.1615 -3.3758
  583MOL0     H78655   8.160   6.873   4.739 -1.6183 -0.0959 -1.0453
  583MOL0     H78656   8.225   7.115   4.634  0.1526 -1.0620 -0.2819
  583MOL0     H78657   8.072   7.258   4.303  0.1246 -1.8511 -0.9093
  583MOL0     H78658   8.074   7.289   4.481  0.5582 -1.4427 -0.1801
  583MOL0     H78659   8.303   7.322   4.470 -1.2425  2.7275 -0.3695
  583MOL0     H78660   8.312   7.253   4.305 -2.0645 -1.5199 -1.2898
  583MOL0     H78661   8.212   7.525   4.381  2.5574  0.5478  0.6404
  583MOL0     H78662   8.183   7.442   4.222  1.1111 -3.3621  0.0231
  583MOL0     H78663   8.371   7.609   4.231  0.3413  0.1324 -0.0454
  583MOL0     H78664   8.421   7.440   4.177 -0.3020 -3.4377  2.3188
  583MOL0     H78665   8.604   7.576   4.148 -0.1206 -0.6678 -0.6789
  583MOL0     H78666   8.843   7.586   4.122 -0.8186  0.7200  0.3053
  583MOL0     H78667   9.248   7.504   4.041  1.1279  1.1732 -0.9995
  583MOL0     H78668   9.504   7.518   4.045  0.3423 -1.4059  1.4067
  583MOL0     H78669   9.677   7.474   4.145  3.7031 -0.9233  0.5807
  583MOL0     H78670   9.729   7.625   4.056 -3.6267  1.1674 -0.1205
  583MOL0     H78671   9.919   7.551   4.163 -2.2003 -1.0910 -2.6396
  583MOL0     H78672   9.864   7.662   4.284  2.4279 -0.0169 -2.1017
  583MOL0     H78673   9.752   7.468   4.393  0.1462  0.0374  0.0723
  583MOL0     H78674   9.819   7.354   4.294 -1.4989 -0.1930  0.6862
  583MOL0     H78675   9.943   7.390   4.496  2.4176 -2.9710 -1.7061
  583MOL0     H78676   9.983   7.554   4.462  1.1546 -0.1736  0.0600
  583MOL0     H78677  10.121   7.486   4.261  2.9565  1.5162  1.2551
  583MOL0     H78678  10.060   7.316   4.278 -0.9430 -0.8666  3.3632
  583MOL0     H78679  10.216   7.441   4.487 -0.3553 -0.7541 -0.2483
  583MOL0     H78680  10.164   7.270   4.475 -1.3411  0.4316  0.1941
  583MOL0     H78681  10.388   7.406   4.310  1.1451 -0.8952  2.1005
  583MOL0     H78682  10.305   7.265   4.257 -3.9150  0.5743  1.0280
  583MOL0     H78683  10.485   7.309   4.495 -0.1700 -0.8916  0.6200
  583MOL0     H78684  10.389   7.158   4.479  2.2641 -0.7716 -0.4129
  583MOL0     H78685   9.463   7.773   4.384 -0.3219 -0.4237 -0.0283
  583MOL0     H78686   9.209   7.754   4.375  0.9621  0.1395 -0.0877
  583MOL0     H78687   8.880   7.432   4.532 -0.7533  0.5138  0.9472
  583MOL0     H78688   8.650   7.402   4.538  3.0178 -0.3455  1.1067
  583MOL0     H78689   8.263   6.377   5.210  0.7618  1.4645  0.0824
  583MOL0     H78690   8.032   6.309   5.253 -0.6419  0.0819  0.4082
  583MOL0     H78691   7.799   6.092   5.396 -1.1141 -1.7312 -2.9589
  583MOL0     H78692   7.585   5.948   5.402  2.6320 -0.6391  1.4568
  583MOL0     H78693   7.196   6.149   5.480 -2.2679 -1.1542 -1.1984
  583MOL0     H78694   7.284   6.036   5.602  1.9522 -2.8590 -2.2699
  583MOL0     H78695   7.177   5.854   5.481  1.0592  0.6868 -0.6798
  583MOL0     H78696   7.108   5.958   5.361 -0.2884 -0.1974 -0.0271
  583MOL0     H78697   7.038   5.978   5.650 -1.3486 -0.1981 -0.0653
  583MOL0     H78698   6.944   5.893   5.524 -1.3945  1.0776  1.5120
  583MOL0     H78699   6.983   6.191   5.542 -0.7234  0.6282 -0.0721
  583MOL0     H78700   6.905   6.112   5.398 -0.7778 -1.2811  0.6338
  583MOL0     H78701   6.584   6.118   5.652 -1.7100 -0.9216 -3.0749
  583MOL0     H78702   7.347   6.298   5.401  0.2947 -0.4609 -2.1402
  583MOL0     H78703   7.611   6.533   5.485  0.6336 -1.9209  0.1086
  583MOL0     H78704   7.528   6.518   5.326  0.2354 -0.7280 -0.3445
  583MOL0     H78705   7.435   6.501   5.480 -1.1425 -1.5220  0.3712
  584MOL0     O78706   6.762   2.331   3.586 -0.9695 -0.7055  1.0256
  584MOL0     C78707   6.791   2.211   3.590  0.5720 -0.4788 -0.3776
  584MOL0     O78708   6.916   2.165   3.563  0.6114  0.6957  0.1816
  584MOL0     C78709   7.020   2.249   3.551 -0.3188  0.5061  0.0582
  584MOL0     C78710   7.067   2.288   3.430 -0.7424  0.5416  0.0982
  584MOL0     C78711   7.169   2.382   3.413 -0.1457  0.3851  0.1328
  584MOL0     C78712   7.228   2.435   3.524  0.0027 -0.5208 -0.4091
  584MOL0     O78713   7.331   2.523   3.534 -0.4072 -0.2918 -0.0973
  584MOL0     C78714   7.446   2.523   3.463 -0.9829  0.8076  0.3565
  584MOL0     C78715   7.568   2.528   3.549  0.1781 -0.9465 -0.1095
  584MOL0     C78716   7.690   2.512   3.454  0.1815  0.5003 -0.1941
  584MOL0     C78717   7.803   2.595   3.509  0.4073  0.6968 -0.5522
  584MOL0     C78718   7.929   2.564   3.436 -0.5876 -0.5884  0.7072
  584MOL0     C78719   7.931   2.620   3.299  0.7250  0.9019  0.0115
  584MOL0     C78720   8.076   2.649   3.245 -0.3854 -0.9525 -0.0917
  584MOL0     C78721   8.154   2.522   3.218 -0.4490 -0.8258 -0.0274
  584MOL0     N78722   8.294   2.546   3.182 -0.7294  0.3162 -0.5182
  584MOL0     C78723   8.378   2.628   3.250  0.5397  0.1804  0.0742
  584MOL0     C78724   8.484   2.640   3.171  0.6235 -0.3737 -0.6344
  584MOL0     C78725   8.587   2.748   3.186 -0.5515  0.8106  0.8487
  584MOL0     C78726   8.645   2.789   3.052  0.6354 -0.2944  0.1032
  584MOL0     C78727   8.731   2.913   3.069  0.0840 -0.3676  0.2297
  584MOL0     C78728   8.883   2.893   3.089  0.7248  0.3777 -0.2162
  584MOL0     O78729   8.900   2.877   3.232 -1.3177  0.0146 -0.3194
  584MOL0     C78730   9.033   2.876   3.276  0.8640 -0.5918  0.5468
  584MOL0     C78731   9.105   2.757   3.294 -0.3877  0.1627  1.2480
  584MOL0     C78732   9.241   2.766   3.324 -1.0746 -0.0861  0.3379
  584MOL0     C78733   9.305   2.887   3.357  0.1491  0.4709 -0.1254
  584MOL0     C78734   9.447   2.891   3.409 -0.2760 -0.3428 -0.4326
  584MOL0     O78735   9.514   2.777   3.431 -1.0175  0.3443  0.7120
  584MOL0     C78736   9.639   2.795   3.494  0.2951  0.7203 -0.3372
  584MOL0     C78737   9.655   2.807   3.637  0.7974  0.2466  0.3894
  584MOL0     C78738   9.788   2.803   3.692  0.6365  0.3042  0.0907
  584MOL0     C78739   9.894   2.787   3.602  0.3495 -0.0698  0.1925
  584MOL0     O78740  10.019   2.775   3.656  0.2157  0.4634  0.3717
  584MOL0     C78741  10.124   2.780   3.566 -0.2879  0.2976 -0.5700
  584MOL0     C78742  10.256   2.768   3.648  0.9676  1.1618 -0.2463
  584MOL0     C78743  10.382   2.790   3.567 -0.4671 -0.1881  0.2143
  584MOL0     C78744  10.518   2.755   3.649 -0.1908  0.0943  0.3553
  584MOL0     C78745  10.638   2.755   3.550 -0.6419 -0.3701  0.0532
  584MOL0     C78746  10.764   2.775   3.634  0.5157  0.3026  0.2709
  584MOL0     C78747  10.891   2.802   3.554 -0.6522  0.3663 -0.1326
  584MOL0     C78748  11.021   2.797   3.643  0.5842  0.1426  0.0236
  584MOL0    Cl78749  11.164   2.822   3.533  0.5604 -0.0117 -0.1637
  584MOL0     C78750   9.875   2.788   3.459  0.5015 -0.3807  0.1403
  584MOL0     C78751   9.749   2.792   3.410 -0.2046  0.3162  0.6397
  584MOL0     O78752   9.486   3.006   3.441 -0.1468 -0.1131  0.2174
  584MOL0     C78753   9.227   2.999   3.333 -0.2349 -0.2135  0.2374
  584MOL0     C78754   9.088   2.997   3.304  0.0430  0.2690  0.2583
  584MOL0     N78755   8.464   2.557   3.057  0.5870 -0.4021  0.6127
  584MOL0     N78756   8.351   2.501   3.066 -0.2122 -0.5256  1.2700
  584MOL0     C78757   7.187   2.393   3.646  0.7731 -0.3664 -0.2200
  584MOL0     C78758   7.078   2.302   3.662  0.2076  0.5484  0.1394
  584MOL0     C78759   6.686   2.106   3.590 -0.4216 -0.4080 -0.2959
  584MOL0     C78760   6.720   1.987   3.515  0.0768  0.0204  0.0805
  584MOL0     C78761   6.638   1.879   3.533  0.6220  0.4280 -0.7414
  584MOL0     C78762   6.518   1.879   3.613 -0.7449  0.2937 -1.3496
  584MOL0     O78763   6.447   1.763   3.625  0.6470 -0.4478  0.2556
  584MOL0     C78764   6.387   1.744   3.747  0.5418  0.5719  0.0256
  584MOL0     C78765   6.321   1.609   3.752 -0.3854  0.5641 -0.1994
  584MOL0     C78766   6.422   1.490   3.737  0.6565  0.0760  0.2908
  584MOL0     C78767   6.499   1.466   3.604  0.4200  0.2812 -0.1455
  584MOL0     C78768   6.408   1.444   3.490 -0.4089  0.2783 -0.0234
  584MOL0     C78769   6.335   1.422   3.391 -0.0466  0.1801  0.0905
  584MOL0     C78770   6.482   1.996   3.671  0.6512  0.8427 -0.2472
  584MOL0     C78771   6.559   2.117   3.660  0.1066  0.5534 -0.1937
  584MOL0     C78772   6.526   2.223   3.740  0.6912  1.2946 -0.1298
  584MOL0     H78773   7.032   2.243   3.337 -1.8899 -1.6018  1.5028
  584MOL0     H78774   7.193   2.417   3.313  1.7869  0.5697  0.6114
  584MOL0     H78775   7.448   2.431   3.405 -0.8963  0.6259  0.6441
  584MOL0     H78776   7.448   2.606   3.392  2.3831 -0.9676 -1.9096
  584MOL0     H78777   7.568   2.439   3.614 -1.7258 -0.5459  0.5169
  584MOL0     H78778   7.565   2.616   3.613  0.7256 -0.6582 -0.4768
  584MOL0     H78779   7.664   2.544   3.353  0.8306  2.6210  0.2722
  584MOL0     H78780   7.739   2.415   3.463  2.4523  1.5129 -1.0666
  584MOL0     H78781   7.782   2.702   3.495 -2.0517  0.6846  1.9686
  584MOL0     H78782   7.806   2.585   3.618  2.8602 -2.6891 -0.7836
  584MOL0     H78783   8.005   2.611   3.498 -0.6351 -1.3538  1.3574
  584MOL0     H78784   7.946   2.456   3.439 -1.7732 -0.7718  1.1251
  584MOL0     H78785   7.876   2.546   3.241  0.9764 -0.1461  1.0627
  584MOL0     H78786   7.879   2.714   3.284 -1.9853 -0.8115 -2.3284
  584MOL0     H78787   8.130   2.710   3.318  1.5366  0.1986 -2.3095
  584MOL0     H78788   8.057   2.713   3.159  2.8628  0.3299 -0.0070
  584MOL0     H78789   8.154   2.455   3.305 -0.1160  0.4873  1.0260
  584MOL0     H78790   8.101   2.475   3.135 -1.8622  2.3011 -1.0322
  584MOL0     H78791   8.345   2.678   3.340  1.5630 -0.1339  0.6399
  584MOL0     H78792   8.538   2.834   3.232 -1.1052 -0.0834  1.9766
  584MOL0     H78793   8.674   2.734   3.250 -0.3355  1.0415  0.6085
  584MOL0     H78794   8.706   2.706   3.016 -0.3879 -1.8672  1.8146
  584MOL0     H78795   8.565   2.802   2.979  0.4873 -3.3604 -0.4075
  584MOL0     H78796   8.683   2.993   3.127  1.8108  2.4190 -1.9208
  584MOL0     H78797   8.732   2.963   2.972  0.5657  0.8085  0.8174
  584MOL0     H78798   8.936   2.984   3.059  0.8341  0.3328 -0.1557
  584MOL0     H78799   8.914   2.809   3.027 -2.1109  0.2182 -1.5912
  584MOL0     H78800   9.056   2.663   3.271 -0.5418  0.6813 -0.7689
  584MOL0     H78801   9.306   2.680   3.318 -1.8136 -0.6222 -0.2235
  584MOL0     H78802   9.567   2.819   3.699  0.3403 -3.4478  0.6628
  584MOL0     H78803   9.801   2.806   3.800  0.8480  1.6054  0.0460
  584MOL0     H78804  10.118   2.701   3.490  0.7222 -2.8166  2.3519
  584MOL0     H78805  10.129   2.877   3.516  1.3926  0.6458  0.2094
  584MOL0     H78806  10.257   2.845   3.725 -1.3862  0.1799  0.8600
  584MOL0     H78807  10.262   2.668   3.693 -1.2471  0.1786 -1.9239
  584MOL0     H78808  10.374   2.731   3.475  0.2820  2.8932 -1.9894
  584MOL0     H78809  10.380   2.894   3.535 -4.0391  0.7087  2.8236
  584MOL0     H78810  10.504   2.652   3.683 -1.8049  0.8525  2.1608
  584MOL0     H78811  10.523   2.815   3.740 -0.1700 -0.2562  0.5864
  584MOL0     H78812  10.627   2.835   3.475 -1.9693 -2.4128 -2.0520
  584MOL0     H78813  10.644   2.660   3.497  0.0511 -0.9041  1.0548
  584MOL0     H78814  10.750   2.868   3.690  2.8686  3.3205 -3.5932
  584MOL0     H78815  10.784   2.690   3.699 -2.4921 -0.3420  0.5014
  584MOL0     H78816  10.883   2.902   3.511 -3.2120  0.9728  1.5130
  584MOL0     H78817  10.908   2.726   3.477  0.6158  3.1137 -2.7709
  584MOL0     H78818  11.017   2.879   3.716  3.3554  1.2594 -0.9350
  584MOL0     H78819  11.030   2.703   3.698  0.5131 -0.0282 -0.2558
  584MOL0     H78820   9.956   2.776   3.388  0.1993 -0.3914 -0.2052
  584MOL0     H78821   9.731   2.796   3.303 -0.4929 -1.1848  0.6157
  584MOL0     H78822   9.278   3.094   3.329  1.5744 -1.1466  0.3627
  584MOL0     H78823   9.043   3.088   3.266  1.7935  0.0346 -2.6673
  584MOL0     H78824   7.229   2.444   3.732  2.3580 -4.0493  1.4120
  584MOL0     H78825   7.036   2.271   3.757 -0.6979  1.2310 -0.0222
  584MOL0     H78826   6.809   1.970   3.455 -0.4769 -1.4227 -0.3767
  584MOL0     H78827   6.650   1.783   3.483 -1.4256 -1.4684  2.0651
  584MOL0     H78828   6.304   1.812   3.768 -0.8790 -2.1986  4.8242
  584MOL0     H78829   6.457   1.744   3.831  0.7170  1.7451 -0.1048
  584MOL0     H78830   6.243   1.602   3.675 -0.9432 -2.9601  0.5256
  584MOL0     H78831   6.265   1.604   3.845 -2.4134 -1.6266 -1.4314
  584MOL0     H78832   6.373   1.392   3.747  0.5536 -0.4368 -3.6278
  584MOL0     H78833   6.498   1.498   3.815 -0.2998 -0.3021  1.3051
  584MOL0     H78834   6.573   1.545   3.592  2.2625 -1.7013 -3.2740
  584MOL0     H78835   6.561   1.376   3.613  0.4844  0.1470 -1.7508
  584MOL0     H78836   6.277   1.394   3.306 -1.9263  0.1944  1.3041
  584MOL0     H78837   6.381   2.011   3.710  0.9279 -0.4488  1.0593
  584MOL0     H78838   6.590   2.224   3.829  1.0873 -0.7554 -0.3564
  584MOL0     H78839   6.528   2.321   3.692 -3.8521  2.5155  1.5631
  584MOL0     H78840   6.423   2.208   3.775  1.5851  0.5816  2.4950
  585MOL0     O78841   2.519   6.307   0.335  0.5740 -0.1045 -0.8929
  585MOL0     C78842   2.422   6.287   0.266  0.4746  0.2966 -0.1580
  585MOL0     O78843   2.412   6.211   0.154 -0.5462  0.3479  0.1786
  585MOL0     C78844   2.530   6.169   0.093  0.2312 -0.6713 -0.8804
  585MOL0     C78845   2.629   6.262   0.058 -0.1723  0.0544  0.4592
  585MOL0     C78846   2.733   6.231  -0.024  0.3147  0.6320 -0.3634
  585MOL0     C78847   2.744   6.097  -0.070  0.1790  0.2170  0.6288
  585MOL0     O78848   2.849   6.054  -0.146  0.9857 -0.9021 -0.3486
  585MOL0     C78849   2.973   6.101  -0.104 -0.3559 -0.3897 -0.0572
  585MOL0     C78850   3.079   5.988  -0.137  1.1072  0.8699  0.1509
  585MOL0     C78851   3.212   6.021  -0.084 -0.0831  0.1485 -0.5766
  585MOL0     C78852   3.310   5.905  -0.105  0.1833  0.6876  0.0521
  585MOL0     C78853   3.452   5.954  -0.056  0.3099  0.0392  0.4311
  585MOL0     C78854   3.551   5.861  -0.100  0.1168  0.3241  0.7262
  585MOL0     C78855   3.696   5.902  -0.077 -1.0114  0.0487  0.3183
  585MOL0     C78856   3.750   5.881   0.069  0.5730 -1.0856  0.6456
  585MOL0     N78857   3.772   5.742   0.111 -0.9280  0.0337 -0.3524
  585MOL0     C78858   3.892   5.701   0.166  0.3580  0.4981 -0.2355
  585MOL0     C78859   3.881   5.567   0.181 -1.0757  0.8023 -0.1560
  585MOL0     C78860   3.984   5.470   0.239 -0.3145  0.8996  1.1144
  585MOL0     C78861   4.118   5.473   0.155 -0.4165  0.3853 -0.8325
  585MOL0     C78862   4.240   5.382   0.195  0.2711 -0.5080 -0.1414
  585MOL0     C78863   4.301   5.410   0.338 -0.5156 -0.8418 -0.0267
  585MOL0     O78864   4.390   5.527   0.328 -0.0837 -0.1242 -0.2737
  585MOL0     C78865   4.528   5.514   0.303  0.3642  0.3296  0.9247
  585MOL0     C78866   4.601   5.393   0.306 -0.3331 -0.8202  0.0101
  585MOL0     C78867   4.741   5.387   0.298 -0.0976 -0.5047 -0.1572
  585MOL0     C78868   4.812   5.503   0.270 -0.4366  0.2777  0.4790
  585MOL0     C78869   4.969   5.503   0.273  0.2676 -0.1976  0.2855
  585MOL0     O78870   5.036   5.619   0.244  0.0336  0.8284  0.6866
  585MOL0     C78871   5.168   5.626   0.259 -0.5439  0.3631  0.4011
  585MOL0     C78872   5.220   5.748   0.311  0.0447 -0.1495  0.7970
  585MOL0     C78873   5.354   5.773   0.314  0.3736 -0.2874  0.0772
  585MOL0     C78874   5.443   5.670   0.274 -0.6860  0.3477 -0.6647
  585MOL0     O78875   5.582   5.686   0.286 -0.1530 -0.2853 -0.1574
  585MOL0     C78876   5.629   5.814   0.328  0.2868  0.1608 -0.8871
  585MOL0     C78877   5.767   5.773   0.377 -0.1446 -0.4050  0.9787
  585MOL0     C78878   5.871   5.741   0.274 -0.5257  0.4746  0.0934
  585MOL0     C78879   5.898   5.860   0.175  0.7667 -0.2537 -0.7647
  585MOL0     C78880   6.045   5.859   0.119 -0.0234  0.2797 -0.6654
  585MOL0     C78881   6.062   5.978   0.031  0.0217 -0.2563  0.8488
  585MOL0     C78882   6.207   6.002  -0.015  0.0085  0.4666 -0.2252
  585MOL0     C78883   6.200   6.111  -0.127 -0.3350  0.8256 -0.6733
  585MOL0    Cl78884   6.188   6.274  -0.046 -0.3571  0.3898 -0.0741
  585MOL0     C78885   5.397   5.548   0.225 -0.4231 -0.3917 -0.5517
  585MOL0     C78886   5.262   5.534   0.216  0.8671 -0.1356 -0.3361
  585MOL0     O78887   5.020   5.399   0.316  0.0744 -0.0980  0.0490
  585MOL0     C78888   4.740   5.623   0.264 -0.0914  0.4984 -0.0021
  585MOL0     C78889   4.606   5.631   0.280 -0.0907  0.4382 -0.6292
  585MOL0     N78890   3.755   5.528   0.135  1.1796 -0.2086 -0.7630
  585MOL0     N78891   3.687   5.637   0.089 -0.3635  0.2850 -0.3049
  585MOL0     C78892   2.655   6.005  -0.024  0.0815  0.6040  0.6863
  585MOL0     C78893   2.548   6.039   0.056  0.6124 -1.0240 -0.4105
  585MOL0     C78894   2.296   6.328   0.326  0.3109 -0.6037  1.3467
  585MOL0     C78895   2.191   6.229   0.326  0.1766 -0.0366  0.3353
  585MOL0     C78896   2.065   6.266   0.385 -0.2512 -0.7462 -0.7501
  585MOL0     C78897   2.033   6.393   0.428 -0.2615 -0.7021 -0.1462
  585MOL0     O78898   1.912   6.413   0.492  0.7184  0.1264  0.2699
  585MOL0     C78899   1.896   6.547   0.542 -0.0257 -0.0880 -0.4405
  585MOL0     C78900   1.750   6.543   0.600  0.1506  0.0622  0.6368
  585MOL0     C78901   1.714   6.687   0.657 -0.2130  0.7630  0.4173
  585MOL0     C78902   1.567   6.676   0.707  0.2167 -0.0131 -1.1407
  585MOL0     C78903   1.515   6.813   0.729 -0.4654  0.3477 -0.1647
  585MOL0     C78904   1.466   6.924   0.731  0.0020 -0.2293 -0.3581
  585MOL0     C78905   2.133   6.492   0.406  0.0311 -0.2240 -0.5092
  585MOL0     C78906   2.266   6.461   0.363 -0.0548  0.5066  0.4086
  585MOL0     C78907   2.356   6.582   0.353 -0.0770 -0.3436 -0.6345
  585MOL0     H78908   2.632   6.365   0.092 -0.6999 -0.1840  1.2321
  585MOL0     H78909   2.803   6.308  -0.055  2.3986 -0.6615  0.8925
  585MOL0     H78910   3.004   6.197  -0.146  1.3244 -0.5981  0.6280
  585MOL0     H78911   2.972   6.122   0.003 -1.5306  3.6687 -0.6922
  585MOL0     H78912   3.079   5.974  -0.245  0.0123  1.4676  0.0671
  585MOL0     H78913   3.042   5.897  -0.088 -4.5656  3.6131  1.7326
  585MOL0     H78914   3.211   6.039   0.024 -0.3175 -1.0234 -0.3619
  585MOL0     H78915   3.242   6.110  -0.139  1.6898 -0.5933 -0.8783
  585MOL0     H78916   3.297   5.811  -0.050  1.3852 -1.1277 -2.5664
  585MOL0     H78917   3.304   5.870  -0.208  0.1365  0.6946  0.0521
  585MOL0     H78918   3.471   6.055  -0.093  0.2480  0.5430  1.7197
  585MOL0     H78919   3.457   5.952   0.053 -2.0838  1.7293  0.6454
  585MOL0     H78920   3.529   5.767  -0.049  1.1711  0.3330  1.2211
  585MOL0     H78921   3.547   5.836  -0.206  1.5789 -3.0104  1.3421
  585MOL0     H78922   3.708   6.006  -0.107  0.6644 -0.6023 -1.5045
  585MOL0     H78923   3.762   5.839  -0.137 -2.3643 -1.2270  0.1209
  585MOL0     H78924   3.834   5.950   0.081  1.8596 -2.4262 -0.3533
  585MOL0     H78925   3.676   5.928   0.134  1.0905  1.8499 -0.7413
  585MOL0     H78926   3.976   5.764   0.193 -1.3761  1.9477  2.2684
  585MOL0     H78927   4.011   5.486   0.343  0.6183 -3.4022  1.7478
  585MOL0     H78928   3.938   5.371   0.231 -2.2084  1.7191  1.4391
  585MOL0     H78929   4.087   5.432   0.058  2.9323  0.2525 -1.9663
  585MOL0     H78930   4.158   5.574   0.143  0.3848  0.0537 -1.0168
  585MOL0     H78931   4.310   5.399   0.114  1.2356  0.9436  0.9513
  585MOL0     H78932   4.199   5.280   0.199 -2.9161  0.6847  0.8822
  585MOL0     H78933   4.355   5.328   0.387  2.4835  2.2529  2.3234
  585MOL0     H78934   4.217   5.421   0.408  0.3533 -1.8749  1.2196
  585MOL0     H78935   4.544   5.303   0.329 -0.2565 -1.0720 -0.7656
  585MOL0     H78936   4.801   5.296   0.299  2.5144  1.0959 -1.0040
  585MOL0     H78937   5.164   5.838   0.336 -0.1981 -0.1193  0.1637
  585MOL0     H78938   5.388   5.864   0.363  1.1880 -1.0189  0.8974
  585MOL0     H78939   5.629   5.891   0.250  0.9582 -0.1014 -1.1452
  585MOL0     H78940   5.580   5.860   0.414  1.7477  1.3394 -0.6487
  585MOL0     H78941   5.816   5.855   0.431  2.4950 -1.3715  0.1869
  585MOL0     H78942   5.756   5.679   0.432  2.4273 -0.6163  1.2531
  585MOL0     H78943   5.964   5.725   0.330  0.9226  1.4368 -1.9261
  585MOL0     H78944   5.854   5.641   0.232  1.3170 -0.0572  0.5058
  585MOL0     H78945   5.883   5.958   0.221 -0.8903 -1.0673  0.5795
  585MOL0     H78946   5.835   5.853   0.085  1.8405 -1.2527 -1.4672
  585MOL0     H78947   6.075   5.763   0.074  0.8295 -0.2012  0.8661
  585MOL0     H78948   6.111   5.870   0.205  1.6654  1.9936 -2.0995
  585MOL0     H78949   6.001   5.960  -0.058  0.1461  1.4356  0.3961
  585MOL0     H78950   6.020   6.068   0.077 -0.1434  1.2237 -1.9841
  585MOL0     H78951   6.246   5.906  -0.050 -0.7102  0.2751 -0.5211
  585MOL0     H78952   6.267   6.033   0.071 -0.5391 -0.1832  0.4026
  585MOL0     H78953   6.292   6.095  -0.183  1.0427 -0.9520  1.9063
  585MOL0     H78954   6.116   6.094  -0.196 -1.7400 -0.3319  1.2265
  585MOL0     H78955   5.461   5.465   0.196 -2.0357 -1.0741 -2.3539
  585MOL0     H78956   5.235   5.441   0.167 -2.6291 -0.2359  1.4649
  585MOL0     H78957   4.789   5.719   0.249 -0.8352  0.8522 -0.2290
  585MOL0     H78958   4.551   5.725   0.289  3.5443  2.6374  1.0652
  585MOL0     H78959   2.674   5.898  -0.028  0.4999  0.6691  0.8715
  585MOL0     H78960   2.473   5.968   0.090  1.1479 -1.1523  0.5384
  585MOL0     H78961   2.204   6.130   0.284 -2.0851  0.2522 -1.2445
  585MOL0     H78962   1.987   6.193   0.405  0.4559 -1.3228 -0.0333
  585MOL0     H78963   1.898   6.614   0.456 -1.5366  0.6870  0.0919
  585MOL0     H78964   1.969   6.572   0.620 -0.3261  0.1017 -0.2173
  585MOL0     H78965   1.751   6.470   0.682 -0.1707 -0.8296 -0.1343
  585MOL0     H78966   1.686   6.496   0.525  2.0448 -0.7324 -0.5554
  585MOL0     H78967   1.730   6.763   0.580 -1.7596 -1.2735 -2.0611
  585MOL0     H78968   1.781   6.709   0.740  0.3475  0.6030  0.0102
  585MOL0     H78969   1.500   6.621   0.641 -1.1740 -0.0282  0.2235
  585MOL0     H78970   1.576   6.624   0.803  1.8552  1.5655 -0.3813
  585MOL0     H78971   1.429   7.023   0.751  0.7513 -0.6041  3.6993
  585MOL0     H78972   2.121   6.596   0.435  0.7462  0.0083 -1.0107
  585MOL0     H78973   2.465   6.574   0.348  0.4387  2.2611  2.6294
  585MOL0     H78974   2.341   6.628   0.255  0.0080 -1.0072 -0.9647
  585MOL0     H78975   2.332   6.650   0.435 -1.2141 -3.1040  1.4964
  586MOL0     O78976   6.526   8.378   2.411  0.4902  0.1108  0.0173
  586MOL0     C78977   6.455   8.419   2.502 -0.6121  0.4815  0.4527
  586MOL0     O78978   6.490   8.527   2.588 -0.3549 -0.0627  0.3063
  586MOL0     C78979   6.616   8.586   2.567  0.6379  0.0024 -0.5740
  586MOL0     C78980   6.644   8.684   2.465  0.2312 -0.2669 -0.3813
  586MOL0     C78981   6.775   8.745   2.454  0.1467 -0.2959 -0.1319
  586MOL0     C78982   6.879   8.714   2.541  0.3660  0.0201  0.2175
  586MOL0     O78983   7.003   8.778   2.527 -0.0802  0.9674 -0.0981
  586MOL0     C78984   7.125   8.719   2.572  1.0030  0.3044  0.2428
  586MOL0     C78985   7.242   8.803   2.532 -0.6218 -0.2841 -0.5547
  586MOL0     C78986   7.260   8.923   2.625 -0.0423 -0.4049  0.3353
  586MOL0     C78987   7.396   8.997   2.609 -0.7671 -0.4275 -0.1604
  586MOL0     C78988   7.399   9.126   2.692  1.3468 -0.5664  0.0962
  586MOL0     C78989   7.541   9.176   2.695  0.5946  0.2384  0.6562
  586MOL0     C78990   7.550   9.315   2.758 -0.0596  0.3643  0.0600
  586MOL0     C78991   7.694   9.342   2.798 -0.0302  0.2156  0.3762
  586MOL0     N78992   7.701   9.476   2.854  0.5571  0.3567  0.3606
  586MOL0     C78993   7.735   9.588   2.785 -0.3703 -0.7456 -0.0899
  586MOL0     C78994   7.733   9.679   2.887  0.3804  0.0733  0.1704
  586MOL0     C78995   7.768   9.817   2.870  0.1195  0.1870 -0.2024
  586MOL0     C78996   7.920   9.831   2.879  1.1956  0.3031  0.4347
  586MOL0     C78997   7.988   9.971   2.894  0.7183 -0.4161  0.5877
  586MOL0     C78998   8.033  10.023   2.756  0.3821  0.0614 -0.1750
  586MOL0     O78999   8.128   9.939   2.690  0.3373 -0.0599  0.1642
  586MOL0     C79000   8.259   9.990   2.695  0.2821  0.2682 -0.2702
  586MOL0     C79001   8.304  10.075   2.801 -0.4430  0.1924 -0.0432
  586MOL0     C79002   8.431  10.128   2.806  0.2792 -0.8025  0.2301
  586MOL0     C79003   8.523  10.110   2.699  0.4240  0.4373 -0.0871
  586MOL0     C79004   8.661  10.168   2.708  0.4563  0.3200  0.2438
  586MOL0     O79005   8.742  10.141   2.603 -0.3161 -0.6032 -0.2103
  586MOL0     C79006   8.880  10.163   2.607  0.3337  0.1039 -0.5018
  586MOL0     C79007   8.952  10.121   2.493  0.1312  0.7833 -0.3632
  586MOL0     C79008   9.089  10.130   2.479 -1.0252 -0.8763  0.5326
  586MOL0     C79009   9.170  10.187   2.582 -0.1984  0.4102 -0.2865
  586MOL0     O79010   9.304  10.205   2.582  0.8003  0.2781 -0.6077
  586MOL0     C79011   9.380  10.118   2.499 -0.0269 -0.3424 -0.6912
  586MOL0     C79012   9.535  10.147   2.517 -0.8703 -0.6297 -0.2055
  586MOL0     C79013   9.576  10.105   2.660  0.0171 -0.5900  0.0677
  586MOL0     C79014   9.735  10.114   2.663  0.9553  0.1421  0.2882
  586MOL0     C79015   9.790  10.071   2.798  0.0247 -0.7130  0.4452
  586MOL0     C79016   9.945  10.097   2.782 -0.1020  0.3908 -0.3286
  586MOL0     C79017  10.021  10.080   2.921 -0.2909  0.6011  0.1204
  586MOL0     C79018  10.164  10.096   2.895  0.1554 -0.1288 -0.6365
  586MOL0    Cl79019  10.226   9.951   2.812  0.2136 -0.1003 -0.1896
  586MOL0     C79020   9.098  10.239   2.692  0.1316  0.0174  0.0815
  586MOL0     C79021   8.956  10.221   2.706  0.2021 -0.2177 -0.0639
  586MOL0     O79022   8.685  10.228   2.810  0.4492  0.4861  0.2368
  586MOL0     C79023   8.476  10.035   2.588  0.0020 -0.3240 -0.5546
  586MOL0     C79024   8.342   9.974   2.587 -0.7671 -0.1668  0.6596
  586MOL0     N79025   7.692   9.621   3.003 -0.5591  0.4591  0.0170
  586MOL0     N79026   7.673   9.497   2.984  0.5076 -0.4674 -0.4105
  586MOL0     C79027   6.857   8.612   2.632  0.6316  0.2356 -0.5809
  586MOL0     C79028   6.728   8.546   2.643  0.2715  0.1070  1.9827
  586MOL0     C79029   6.321   8.352   2.513 -0.0105  0.8150  0.0095
  586MOL0     C79030   6.239   8.310   2.408  0.4736  0.6060 -0.2567
  586MOL0     C79031   6.132   8.223   2.425  0.0879  0.6105 -0.3241
  586MOL0     C79032   6.083   8.188   2.551  0.2112 -0.2332 -0.1924
  586MOL0     O79033   5.975   8.107   2.589 -0.4318 -0.8639 -0.5395
  586MOL0     C79034   5.895   8.049   2.484 -0.2867 -1.1328  0.2626
  586MOL0     C79035   5.770   8.129   2.463 -0.4850 -1.3506  0.2997
  586MOL0     C79036   5.667   8.065   2.377  0.8316  0.0114 -0.3393
  586MOL0     C79037   5.726   8.002   2.254  0.3480  0.2118 -0.6358
  586MOL0     C79038   5.626   7.932   2.173 -0.3736 -0.1629  0.0505
  586MOL0     C79039   5.560   7.875   2.087 -0.2112 -0.6623  0.2546
  586MOL0     C79040   6.153   8.236   2.654 -0.7005 -0.1676 -0.0061
  586MOL0     C79041   6.272   8.305   2.639 -0.5086 -0.0199 -1.1440
  586MOL0     C79042   6.354   8.337   2.760  0.1726 -0.6669  0.0326
  586MOL0     H79043   6.568   8.716   2.394  1.5060  0.7833 -1.3241
  586MOL0     H79044   6.778   8.825   2.381 -1.2978 -0.1883 -0.1053
  586MOL0     H79045   7.122   8.715   2.682  2.1449  0.2362  0.2837
  586MOL0     H79046   7.140   8.618   2.532  1.8936  0.7726 -0.6374
  586MOL0     H79047   7.246   8.833   2.427  3.3287  1.0479 -0.1616
  586MOL0     H79048   7.330   8.738   2.539 -0.8940 -0.5827  0.3993
  586MOL0     H79049   7.260   8.886   2.728 -0.7162 -2.0572 -0.2311
  586MOL0     H79050   7.181   8.999   2.623  0.3223 -0.0196  0.3584
  586MOL0     H79051   7.480   8.930   2.625 -0.8040 -0.9456 -1.9320
  586MOL0     H79052   7.414   9.029   2.506  4.7869  0.8925  0.9173
  586MOL0     H79053   7.327   9.201   2.657  0.9793 -1.4063 -1.0184
  586MOL0     H79054   7.367   9.103   2.794  1.2477  2.3546  0.8071
  586MOL0     H79055   7.598   9.103   2.753 -1.4826  0.5360  3.2856
  586MOL0     H79056   7.570   9.176   2.590 -1.1840 -0.4351  0.1377
  586MOL0     H79057   7.498   9.321   2.854 -2.3267 -0.6618 -1.0252
  586MOL0     H79058   7.504   9.390   2.693 -1.4045 -0.6989 -0.2621
  586MOL0     H79059   7.727   9.266   2.870  3.0946 -0.4255 -1.5566
  586MOL0     H79060   7.758   9.329   2.710  0.9563  0.3829  1.0578
  586MOL0     H79061   7.773   9.594   2.684 -0.7505 -1.9289 -0.3165
  586MOL0     H79062   7.724   9.869   2.784  2.9853  3.3404  0.0631
  586MOL0     H79063   7.733   9.865   2.962  0.2372  3.4196 -1.7010
  586MOL0     H79064   7.949   9.767   2.963 -0.7181 -1.2971 -0.0269
  586MOL0     H79065   7.963   9.787   2.788 -3.1319  1.0557 -2.2683
  586MOL0     H79066   8.075   9.970   2.960  1.6462  2.8012 -0.3664
  586MOL0     H79067   7.928  10.048   2.944  1.3174 -0.2881  1.1282
  586MOL0     H79068   8.063  10.127   2.767 -0.8351  0.4127 -0.0605
  586MOL0     H79069   7.944  10.038   2.694  0.6998  1.7683 -0.2527
  586MOL0     H79070   8.239  10.094   2.885  0.3645 -0.3942  0.7311
  586MOL0     H79071   8.466  10.180   2.895  1.3822  0.5327 -0.9401
  586MOL0     H79072   8.910  10.064   2.410 -0.6665  1.6209 -0.5482
  586MOL0     H79073   9.146  10.076   2.404 -2.0791 -2.4257  0.7885
  586MOL0     H79074   9.358  10.014   2.524  2.2812 -1.0751 -1.4037
  586MOL0     H79075   9.351  10.133   2.395  0.6361 -3.1262 -1.3515
  586MOL0     H79076   9.598  10.089   2.449  1.6300  0.8306  0.7379
  586MOL0     H79077   9.569  10.249   2.496  2.2829 -1.5832 -0.3205
  586MOL0     H79078   9.530  10.172   2.733 -0.6035 -2.5652  1.5797
  586MOL0     H79079   9.548  10.002   2.685  3.3620 -1.2753  1.6837
  586MOL0     H79080   9.773  10.214   2.642  0.5476  0.2206 -0.1046
  586MOL0     H79081   9.776  10.049   2.585  1.6232 -2.7649  2.8682
  586MOL0     H79082   9.762   9.970   2.827 -1.1713 -0.5602 -0.1336
  586MOL0     H79083   9.755  10.132   2.882  1.4757  0.8799 -0.0401
  586MOL0     H79084   9.979  10.020   2.712  0.4486 -4.2278  4.4536
  586MOL0     H79085   9.969  10.200   2.752  2.4410  0.3727  1.3667
  586MOL0     H79086  10.008   9.975   2.947  0.7397 -0.0266 -1.6667
  586MOL0     H79087   9.980  10.143   3.000 -1.4297 -1.2514  1.0670
  586MOL0     H79088  10.201  10.186   2.846  0.9375 -0.3994 -0.5562
  586MOL0     H79089  10.215  10.108   2.991  1.4756  2.1523 -1.5435
  586MOL0     H79090   9.153  10.284   2.774 -1.4720  0.7073  0.8125
  586MOL0     H79091   8.920  10.259   2.801  1.5641  0.1637  0.3131
  586MOL0     H79092   8.554  10.025   2.513  0.7914 -2.7052  0.4900
  586MOL0     H79093   8.321   9.911   2.501  1.8442  1.1055 -1.0323
  586MOL0     H79094   6.930   8.601   2.712 -1.0113 -0.3210  0.8893
  586MOL0     H79095   6.727   8.456   2.703 -1.8092 -0.2774  1.4411
  586MOL0     H79096   6.264   8.309   2.302  0.5651 -1.3541 -0.2547
  586MOL0     H79097   6.077   8.191   2.337 -0.5181 -1.3305  0.6855
  586MOL0     H79098   5.868   7.948   2.517  0.2951 -1.1127  0.8250
  586MOL0     H79099   5.962   8.032   2.399  0.5615 -0.9631  0.8786
  586MOL0     H79100   5.805   8.222   2.417 -0.1493 -2.1206 -1.0562
  586MOL0     H79101   5.722   8.152   2.558  1.3155  0.8902  0.7730
  586MOL0     H79102   5.586   8.130   2.342 -0.6387 -1.8544 -0.5525
  586MOL0     H79103   5.612   7.985   2.428 -0.3031  0.3203 -1.0318
  586MOL0     H79104   5.784   8.080   2.203 -0.4594  0.7466 -0.7504
  586MOL0     H79105   5.791   7.917   2.278  0.4952 -0.4042 -2.9873
  586MOL0     H79106   5.515   7.812   2.012 -2.1797 -0.1310  0.9290
  586MOL0     H79107   6.130   8.203   2.755  2.4093 -0.9773  0.5383
  586MOL0     H79108   6.329   8.428   2.815  0.1612  0.9847 -2.5382
  586MOL0     H79109   6.358   8.252   2.830  5.2493  0.7778  1.9674
  586MOL0     H79110   6.461   8.345   2.738 -0.5066  0.6995 -3.2519
  587MOL0     O79111   1.286   4.249   5.403  0.6729 -0.6103 -0.1151
  587MOL0     C79112   1.281   4.136   5.356  0.4866  0.3651  0.4580
  587MOL0     O79113   1.352   4.026   5.393 -0.5729  0.1146  0.4403
  587MOL0     C79114   1.459   4.026   5.484 -0.4660  0.4723  0.7205
  587MOL0     C79115   1.555   3.927   5.458 -0.0552  0.0605  0.3849
  587MOL0     C79116   1.661   3.916   5.548 -0.4075 -0.1637  0.1404
  587MOL0     C79117   1.671   3.989   5.665 -0.0729 -0.8371 -0.2236
  587MOL0     O79118   1.786   3.983   5.736  0.3925 -0.1993  0.0334
  587MOL0     C79119   1.809   4.075   5.848 -0.6143 -0.1486 -0.3933
  587MOL0     C79120   1.952   4.102   5.880 -0.3677  0.1255 -0.9088
  587MOL0     C79121   2.025   3.977   5.915 -0.7007 -0.1671 -0.8336
  587MOL0     C79122   2.175   3.998   5.926  1.0073  0.4710 -0.7248
  587MOL0     C79123   2.205   4.117   6.016 -0.1128  0.1062 -0.7985
  587MOL0     C79124   2.355   4.119   6.058  0.6731  0.3002 -0.9434
  587MOL0     C79125   2.453   4.110   5.947 -0.1741  0.0411 -0.0393
  587MOL0     C79126   2.444   4.223   5.848 -0.0180 -0.1361  0.4290
  587MOL0     N79127   2.450   4.356   5.917 -0.5195 -0.1852 -1.3053
  587MOL0     C79128   2.559   4.393   5.991 -0.3821 -0.3523 -0.1690
  587MOL0     C79129   2.532   4.520   6.039 -0.9231 -0.2579  0.7879
  587MOL0     C79130   2.628   4.600   6.125 -0.0739 -0.4094 -0.6318
  587MOL0     C79131   2.753   4.641   6.051  0.3958  0.7641  0.3031
  587MOL0     C79132   2.730   4.781   5.989  0.3200 -0.7023  0.0525
  587MOL0     C79133   2.857   4.856   5.941  0.1444  0.4049  0.6169
  587MOL0     O79134   2.960   4.847   6.044 -0.6071  0.5914  0.2387
  587MOL0     C79135   3.074   4.923   6.032 -0.6684 -0.2044 -0.1035
  587MOL0     C79136   3.144   4.949   6.151  0.0621 -0.4371  0.2177
  587MOL0     C79137   3.251   5.041   6.153 -0.4614  0.4664 -0.4226
  587MOL0     C79138   3.297   5.098   6.032  0.4971 -0.2815  0.2518
  587MOL0     C79139   3.402   5.196   6.019 -0.4193  0.1579 -0.6482
  587MOL0     O79140   3.402   5.297   5.913  0.5640 -0.4296 -0.1113
  587MOL0     C79141   3.515   5.364   5.876 -0.4287  0.7923  1.1543
  587MOL0     C79142   3.642   5.301   5.889 -0.7419 -0.2021  0.6324
  587MOL0     C79143   3.756   5.368   5.841  0.1028 -0.2663  0.0216
  587MOL0     C79144   3.746   5.501   5.776  0.2703 -0.3035  0.0117
  587MOL0     O79145   3.855   5.566   5.730  0.2779 -0.8975  0.8206
  587MOL0     C79146   3.946   5.493   5.642 -0.5791  0.3178  0.2381
  587MOL0     C79147   4.069   5.578   5.619  0.3560  0.1686 -0.0940
  587MOL0     C79148   4.165   5.516   5.527 -0.6183  0.3549  0.7139
  587MOL0     C79149   4.276   5.612   5.475  0.1886 -0.0979 -0.0645
  587MOL0     C79150   4.343   5.553   5.344  0.1847  0.3625 -0.0879
  587MOL0     C79151   4.441   5.438   5.382  0.0395  0.3043 -0.2193
  587MOL0     C79152   4.495   5.360   5.266 -0.0607 -0.0723  0.4118
  587MOL0     C79153   4.597   5.250   5.306  0.1808 -0.7706  0.1380
  587MOL0    Cl79154   4.747   5.337   5.335 -0.1154 -0.0236 -0.0582
  587MOL0     C79155   3.618   5.562   5.781  0.0955 -0.7274 -0.6955
  587MOL0     C79156   3.508   5.494   5.821 -0.5527 -0.0415  0.0546
  587MOL0     O79157   3.488   5.196   6.114 -0.2986 -0.0801  0.5650
  587MOL0     C79158   3.228   5.068   5.911 -0.6171  0.8837  0.4397
  587MOL0     C79159   3.119   4.986   5.913  0.1154  0.6022 -0.2231
  587MOL0     N79160   2.406   4.554   5.992 -0.0859 -0.5996 -0.3995
  587MOL0     N79161   2.365   4.461   5.917 -0.8940  0.0464  0.3473
  587MOL0     C79162   1.558   4.067   5.695  0.4222 -0.0062  0.2335
  587MOL0     C79163   1.456   4.097   5.599 -0.7144  0.0815  0.0092
  587MOL0     C79164   1.174   4.110   5.254  0.4268  0.5112  0.1727
  587MOL0     C79165   1.118   3.974   5.246 -1.0341 -0.0207 -0.1079
  587MOL0     C79166   1.025   3.934   5.152 -0.2634  0.3960  0.9089
  587MOL0     C79167   0.968   4.030   5.068  0.1440 -0.2639 -0.4148
  587MOL0     O79168   0.872   4.019   4.975 -0.0717  0.6680 -1.1236
  587MOL0     C79169   0.801   3.899   4.972 -0.2871 -0.0975 -0.0995
  587MOL0     C79170   0.690   3.910   4.862 -0.6451 -0.3996  0.5713
  587MOL0     C79171   0.592   3.795   4.872 -0.2840  0.4617  0.2259
  587MOL0     C79172   0.498   3.776   4.745 -0.2363  0.6100  1.0779
  587MOL0     C79173   0.383   3.689   4.776 -0.4418  0.0072  0.7147
  587MOL0     C79174   0.285   3.634   4.819 -0.0706  0.0395 -0.1387
  587MOL0     C79175   1.029   4.158   5.070 -0.2791 -0.2190 -1.3471
  587MOL0     C79176   1.130   4.201   5.156  0.2719 -0.8362  0.0982
  587MOL0     C79177   1.179   4.340   5.141 -0.8306 -0.1096  0.2849
  587MOL0     H79178   1.553   3.873   5.363  0.1883  0.9697 -0.1539
  587MOL0     H79179   1.748   3.861   5.514  0.1081  0.9836 -0.4367
  587MOL0     H79180   1.764   4.173   5.833  1.1198  0.7526  0.0726
  587MOL0     H79181   1.774   4.029   5.942  1.1979 -0.8109  0.0002
  587MOL0     H79182   1.957   4.182   5.954  0.4238 -1.2706  0.6188
  587MOL0     H79183   2.000   4.150   5.794  1.5395 -0.2592 -0.1016
  587MOL0     H79184   2.008   3.905   5.834  0.8860  0.7990 -2.0946
  587MOL0     H79185   1.995   3.945   6.015  0.7585  1.2979  0.1183
  587MOL0     H79186   2.223   3.905   5.957 -0.8869 -1.2038 -2.5088
  587MOL0     H79187   2.210   4.018   5.824  1.7857 -0.9503 -0.7579
  587MOL0     H79188   2.180   4.214   5.971 -2.1980 -0.4292 -0.9089
  587MOL0     H79189   2.136   4.110   6.101  1.0429 -0.2147  0.1464
  587MOL0     H79190   2.368   4.200   6.130 -0.2331 -1.1137  0.8857
  587MOL0     H79191   2.370   4.022   6.106 -0.5077 -1.8585 -4.4953
  587MOL0     H79192   2.449   4.010   5.901  0.2527 -0.2640  0.5682
  587MOL0     H79193   2.559   4.109   5.975 -0.2285  0.7695  0.2048
  587MOL0     H79194   2.519   4.221   5.768 -1.1369 -0.2571 -0.6435
  587MOL0     H79195   2.346   4.220   5.800 -0.5835  2.9428  1.1628
  587MOL0     H79196   2.646   4.337   6.022  0.2929 -0.2527 -1.7668
  587MOL0     H79197   2.565   4.686   6.148  1.2681  0.6331 -0.7361
  587MOL0     H79198   2.659   4.550   6.217 -2.0175  2.0315  1.4854
  587MOL0     H79199   2.835   4.633   6.123 -1.3397 -2.0687  2.1760
  587MOL0     H79200   2.773   4.576   5.966  1.8253  0.5131  0.8028
  587MOL0     H79201   2.681   4.843   6.065  0.6372 -0.9606  0.4723
  587MOL0     H79202   2.662   4.768   5.904 -1.5153 -2.2656  1.6697
  587MOL0     H79203   2.836   4.961   5.920  0.9507  0.1800 -1.5272
  587MOL0     H79204   2.891   4.811   5.848 -1.2051  0.5398  0.0390
  587MOL0     H79205   3.102   4.900   6.238 -1.0290 -2.7383 -1.5042
  587MOL0     H79206   3.305   5.062   6.245  0.0288 -0.8978 -0.3752
  587MOL0     H79207   3.663   5.203   5.929  2.2176  1.5819  3.9363
  587MOL0     H79208   3.856   5.325   5.849  0.7123  1.1975  0.7038
  587MOL0     H79209   3.980   5.398   5.682  4.1904  1.0676 -1.4548
  587MOL0     H79210   3.879   5.473   5.558  0.2028  1.2683 -0.6392
  587MOL0     H79211   4.033   5.671   5.576  1.3494  0.2650 -0.7656
  587MOL0     H79212   4.130   5.600   5.707  2.4791 -2.3991 -0.7596
  587MOL0     H79213   4.207   5.429   5.579 -0.1509  1.2075  1.8160
  587MOL0     H79214   4.106   5.474   5.446  0.3761  0.8962 -0.3094
  587MOL0     H79215   4.345   5.634   5.557 -0.2008  1.0001 -0.0197
  587MOL0     H79216   4.228   5.707   5.450 -0.4669 -0.6073 -0.7829
  587MOL0     H79217   4.403   5.633   5.300  0.3590 -0.0566 -0.6182
  587MOL0     H79218   4.258   5.525   5.282 -0.1019 -0.5746  0.6964
  587MOL0     H79219   4.523   5.477   5.442 -0.3250  1.5214 -0.4833
  587MOL0     H79220   4.392   5.366   5.449 -1.4048  1.2698 -0.1925
  587MOL0     H79221   4.536   5.421   5.185  0.0062 -0.2792  0.2898
  587MOL0     H79222   4.405   5.310   5.229  2.1992 -3.9628 -0.3910
  587MOL0     H79223   4.563   5.189   5.391 -1.6987  0.4283  0.3075
  587MOL0     H79224   4.619   5.190   5.217 -2.4766  1.6773 -2.3816
  587MOL0     H79225   3.617   5.665   5.748 -1.3864 -1.0129 -1.6060
  587MOL0     H79226   3.411   5.543   5.824 -0.4218  0.1940  1.2709
  587MOL0     H79227   3.263   5.100   5.814 -3.3307  0.2097 -0.8539
  587MOL0     H79228   3.067   4.981   5.817 -0.2284  2.8418 -0.1953
  587MOL0     H79229   1.549   4.118   5.791  0.2334 -0.8915  0.7012
  587MOL0     H79230   1.377   4.168   5.622 -1.4654 -0.4159 -0.9406
  587MOL0     H79231   1.153   3.898   5.315 -0.4521  0.4995  0.1876
  587MOL0     H79232   0.987   3.835   5.174  3.4749 -1.4270 -0.0417
  587MOL0     H79233   0.746   3.898   5.067 -2.2289  0.9652 -1.1573
  587MOL0     H79234   0.865   3.810   4.971  0.9885  0.8107 -0.9977
  587MOL0     H79235   0.746   3.880   4.773 -0.2020 -0.9550  1.0214
  587MOL0     H79236   0.650   4.011   4.848 -1.7643 -0.7482  1.0918
  587MOL0     H79237   0.532   3.812   4.962 -0.2111  2.2108 -0.0220
  587MOL0     H79238   0.653   3.705   4.880  0.9709  1.2022 -0.6632
  587MOL0     H79239   0.461   3.874   4.712 -1.1671 -0.0794 -0.0175
  587MOL0     H79240   0.558   3.733   4.665 -0.8627 -1.2065  1.5394
  587MOL0     H79241   0.192   3.603   4.863  0.3446 -0.5984  0.3033
  587MOL0     H79242   0.994   4.222   4.989 -1.6196 -1.9888 -2.2516
  587MOL0     H79243   1.126   4.395   5.062 -0.4832  0.0596  0.1675
  587MOL0     H79244   1.141   4.393   5.228 -0.1443 -3.2067  2.6254
  587MOL0     H79245   1.287   4.350   5.131 -0.4416 -3.1227  0.8371
  588MOL0     O79246   9.339   5.738   0.410 -0.1682  0.1702 -0.8979
  588MOL0     C79247   9.245   5.730   0.332  0.3381  1.0747  0.9559
  588MOL0     O79248   9.214   5.817   0.227 -0.1424 -0.2263  0.7092
  588MOL0     C79249   9.274   5.932   0.201  0.0450 -1.1019 -0.5575
  588MOL0     C79250   9.285   6.029   0.300  0.1143 -0.4627  1.0402
  588MOL0     C79251   9.346   6.151   0.270 -0.5275 -0.0241  0.5256
  588MOL0     C79252   9.405   6.172   0.146 -1.1533 -0.4501 -0.1036
  588MOL0     O79253   9.472   6.297   0.117 -0.0643  0.0960 -0.0573
  588MOL0     C79254   9.486   6.393   0.220 -1.0572 -1.0365  0.6616
  588MOL0     C79255   9.561   6.518   0.178  0.4906 -0.1011 -0.6636
  588MOL0     C79256   9.714   6.499   0.164  0.4364 -0.1140  0.2799
  588MOL0     C79257   9.771   6.614   0.090 -0.6937 -0.0131  0.4297
  588MOL0     C79258   9.919   6.585   0.050 -0.0424 -0.6252 -0.7354
  588MOL0     C79259   9.982   6.712   0.022 -0.5339  0.2644 -0.1875
  588MOL0     C79260  10.135   6.710   0.016 -1.1375 -0.7520 -0.7980
  588MOL0     C79261  10.189   6.848  -0.042 -0.3432  0.0475 -0.1169
  588MOL0     N79262  10.337   6.847  -0.077  0.0475 -0.6505 -0.4000
  588MOL0     C79263  10.434   6.804   0.007 -0.3126  0.2002  0.0816
  588MOL0     C79264  10.551   6.820  -0.063  0.2547  0.0408 -0.0156
  588MOL0     C79265  10.690   6.799  -0.016  0.1640 -0.3228 -0.1480
  588MOL0     C79266  10.736   6.931   0.043 -0.8029  0.1880 -0.0482
  588MOL0     C79267  10.696   6.953   0.191 -0.0796  0.5108  0.0425
  588MOL0     C79268  10.724   7.097   0.224 -0.0722 -0.3102  0.1864
  588MOL0     O79269  10.674   7.201   0.136 -0.4243  0.8057 -0.6471
  588MOL0     C79270  10.542   7.206   0.122  0.4536  0.2313 -0.8717
  588MOL0     C79271  10.492   7.192  -0.002 -0.2809  0.8106 -0.7202
  588MOL0     C79272  10.358   7.223  -0.023 -0.2634  0.4224  0.3952
  588MOL0     C79273  10.268   7.244   0.085  0.5345  0.4584 -0.2624
  588MOL0     C79274  10.119   7.250   0.045 -0.4766  0.1960  0.7914
  588MOL0     O79275  10.085   7.247  -0.087 -0.6064 -0.3492  0.2460
  588MOL0     C79276   9.956   7.218  -0.133  0.8379  0.3921 -0.4192
  588MOL0     C79277   9.872   7.120  -0.077 -0.0706  0.5635  0.3542
  588MOL0     C79278   9.763   7.059  -0.148  0.2701  0.1339  0.3080
  588MOL0     C79279   9.731   7.110  -0.273 -0.0197 -0.3925  0.0616
  588MOL0     O79280   9.605   7.078  -0.327  0.3020  0.1727  0.1393
  588MOL0     C79281   9.495   7.163  -0.298 -0.5803 -0.1170 -1.1950
  588MOL0     C79282   9.389   7.094  -0.220  0.0476  0.5684 -0.1265
  588MOL0     C79283   9.322   6.980  -0.305  0.3253 -1.4534 -0.0965
  588MOL0     C79284   9.271   6.869  -0.215 -0.6052  0.1350 -0.0657
  588MOL0     C79285   9.194   6.762  -0.295  0.0438 -0.4588 -0.5361
  588MOL0     C79286   9.147   6.646  -0.200  0.4162 -0.4153 -0.1153
  588MOL0     C79287   9.104   6.534  -0.287 -0.5641 -0.4286  0.4590
  588MOL0     C79288   9.229   6.455  -0.350 -0.5418 -0.4983 -0.5983
  588MOL0    Cl79289   9.348   6.412  -0.225 -0.3414  0.0691 -0.1666
  588MOL0     C79290   9.823   7.203  -0.330  0.3751 -0.4330 -0.2252
  588MOL0     C79291   9.923   7.263  -0.255  1.0500  0.1597  0.5859
  588MOL0     O79292  10.038   7.250   0.138  0.7614  0.1535  0.1571
  588MOL0     C79293  10.313   7.245   0.210  0.2265 -0.2477  0.0770
  588MOL0     C79294  10.453   7.239   0.231  0.5807  0.9509  0.4326
  588MOL0     N79295  10.518   6.875  -0.189  0.1159 -0.4247 -0.4484
  588MOL0     N79296  10.392   6.892  -0.198  0.0821 -0.3947  0.4229
  588MOL0     C79297   9.402   6.078   0.051  0.1155 -0.3146 -0.2494
  588MOL0     C79298   9.344   5.953   0.076 -0.0217 -0.7130  0.2185
  588MOL0     C79299   9.161   5.600   0.323  0.8160  0.2882  0.1914
  588MOL0     C79300   9.108   5.566   0.197  0.6833  0.6498  0.6148
  588MOL0     C79301   9.038   5.444   0.178 -0.5108  0.3544  0.4593
  588MOL0     C79302   9.007   5.364   0.285  0.4327 -0.8832 -0.0540
  588MOL0     O79303   8.933   5.250   0.287 -0.1061  0.3973  0.2293
  588MOL0     C79304   8.842   5.217   0.178  0.3577  0.7124  0.3909
  588MOL0     C79305   8.887   5.094   0.092  0.7888  0.4902  0.0502
  588MOL0     C79306   8.867   4.963   0.169 -0.4441  0.2630 -0.8507
  588MOL0     C79307   8.717   4.924   0.197  0.4703  0.2518 -0.1455
  588MOL0     C79308   8.650   4.909   0.066 -0.1956 -0.3161 -0.5760
  588MOL0     C79309   8.587   4.896  -0.029  0.4508  0.4208 -0.2010
  588MOL0     C79310   9.044   5.408   0.414  0.1904  0.2081 -0.7821
  588MOL0     C79311   9.121   5.526   0.439  0.6284 -0.0561  0.2700
  588MOL0     C79312   9.150   5.559   0.580  0.0823 -0.7591  0.0570
  588MOL0     H79313   9.226   6.009   0.389 -3.9654 -0.5583 -1.4638
  588MOL0     H79314   9.347   6.225   0.350  0.7648 -1.4884  1.9181
  588MOL0     H79315   9.386   6.420   0.256 -0.7800  2.1289 -0.6428
  588MOL0     H79316   9.537   6.354   0.309  1.7587  2.2312  0.7095
  588MOL0     H79317   9.548   6.591   0.259 -2.2958 -1.8246  0.6037
  588MOL0     H79318   9.514   6.546   0.083  2.2236 -0.1545 -1.5625
  588MOL0     H79319   9.729   6.409   0.103  1.0646 -1.5806  2.4455
  588MOL0     H79320   9.764   6.494   0.261  1.5112 -2.3750 -0.3278
  588MOL0     H79321   9.718   6.629  -0.004 -1.2903 -0.8387  0.6194
  588MOL0     H79322   9.763   6.706   0.149 -1.6097 -0.8764  1.7141
  588MOL0     H79323   9.963   6.525   0.130 -2.3174 -1.5568 -0.1162
  588MOL0     H79324   9.912   6.525  -0.041 -1.0396  0.9053 -1.7205
  588MOL0     H79325   9.951   6.750  -0.076 -1.3123 -1.1999 -0.5258
  588MOL0     H79326   9.964   6.787   0.100 -1.6158  2.1792 -2.1542
  588MOL0     H79327  10.159   6.627  -0.052 -0.9910 -0.0924 -1.5696
  588MOL0     H79328  10.180   6.694   0.114  0.0455  0.8749 -1.0311
  588MOL0     H79329  10.131   6.877  -0.130 -0.1189  0.8114 -0.0157
  588MOL0     H79330  10.172   6.921   0.038 -1.3983 -0.1724 -0.1131
  588MOL0     H79331  10.424   6.769   0.109  1.3761  1.7207  0.8279
  588MOL0     H79332  10.697   6.715   0.054  1.2199 -0.3120 -0.2220
  588MOL0     H79333  10.760   6.779  -0.098 -1.2576  1.9896 -2.0485
  588MOL0     H79334  10.845   6.937   0.045 -0.8096  0.2030  1.8785
  588MOL0     H79335  10.709   7.020  -0.014  1.5196  1.5406  0.8481
  588MOL0     H79336  10.755   6.885   0.254 -1.0909  1.0114  1.6051
  588MOL0     H79337  10.592   6.921   0.206 -0.4523 -0.7668 -3.9841
  588MOL0     H79338  10.832   7.111   0.230  0.6621 -2.6485 -3.9858
  588MOL0     H79339  10.692   7.116   0.328  0.4757 -0.4277  0.3766
  588MOL0     H79340  10.561   7.168  -0.083  3.1229 -0.2432  2.2117
  588MOL0     H79341  10.325   7.216  -0.126  1.6856  1.5523 -0.3579
  588MOL0     H79342   9.894   7.079   0.022 -0.3195 -0.5525 -0.0450
  588MOL0     H79343   9.706   6.986  -0.091  0.6493  0.0953  0.6435
  588MOL0     H79344   9.532   7.252  -0.247 -3.1590  0.0431  0.5923
  588MOL0     H79345   9.442   7.200  -0.387 -2.1558 -0.6688 -0.5196
  588MOL0     H79346   9.424   7.057  -0.123  0.2041  1.1817  0.0575
  588MOL0     H79347   9.312   7.169  -0.198  1.2501  1.8105  0.0158
  588MOL0     H79348   9.234   7.014  -0.361  0.8975 -0.2239 -0.2887
  588MOL0     H79349   9.396   6.945  -0.377  2.9934  1.8106  0.7998
  588MOL0     H79350   9.213   6.904  -0.129 -0.9735 -0.7687  0.0715
  588MOL0     H79351   9.357   6.823  -0.165 -0.3463  1.5183  0.8085
  588MOL0     H79352   9.263   6.720  -0.369 -0.1686 -1.9965  0.0846
  588MOL0     H79353   9.119   6.820  -0.348 -0.4007 -0.2703  0.2829
  588MOL0     H79354   9.227   6.604  -0.140  1.1081 -1.6729 -1.8427
  588MOL0     H79355   9.058   6.677  -0.145  0.1680 -0.4375 -0.4989
  588MOL0     H79356   9.042   6.570  -0.369 -0.5572 -2.5286 -0.5384
  588MOL0     H79357   9.043   6.465  -0.227 -0.6205 -0.7327  0.0558
  588MOL0     H79358   9.176   6.370  -0.395 -1.3508  1.6801 -4.1857
  588MOL0     H79359   9.274   6.514  -0.431 -1.6033  2.5821  0.8962
  588MOL0     H79360   9.801   7.232  -0.432 -1.2808 -0.0298  0.2267
  588MOL0     H79361   9.993   7.326  -0.309 -0.6842  0.8417 -0.9827
  588MOL0     H79362  10.238   7.251   0.288 -1.9590  0.4525 -1.9594
  588MOL0     H79363  10.496   7.240   0.331  0.2124  2.7391  0.6084
  588MOL0     H79364   9.454   6.099  -0.042 -0.4174  1.5739 -0.1620
  588MOL0     H79365   9.346   5.867   0.010  1.7116 -0.1559 -0.5125
  588MOL0     H79366   9.141   5.626   0.113 -3.0677  0.9538 -0.8366
  588MOL0     H79367   9.010   5.430   0.074  1.4289 -0.5120 -0.0083
  588MOL0     H79368   8.832   5.304   0.111  1.6071  0.2718 -0.4069
  588MOL0     H79369   8.744   5.207   0.225  0.5284  0.1210  0.6279
  588MOL0     H79370   8.993   5.109   0.071  1.2949 -2.8675 -0.2202
  588MOL0     H79371   8.834   5.079  -0.003  0.0224 -2.4766  0.8499
  588MOL0     H79372   8.922   4.988   0.260  0.7651  3.2025 -2.2558
  588MOL0     H79373   8.933   4.894   0.115  3.4362  3.1425 -0.2409
  588MOL0     H79374   8.709   4.832   0.256 -2.7508 -1.4294 -2.8655
  588MOL0     H79375   8.671   4.999   0.261  2.0352  0.1671  1.1512
  588MOL0     H79376   8.532   4.895  -0.121  0.4533  1.5665 -0.2322
  588MOL0     H79377   9.011   5.355   0.503  0.8941 -1.7980 -1.6575
  588MOL0     H79378   9.078   5.504   0.641 -0.3453 -0.7723 -0.4530
  588MOL0     H79379   9.253   5.527   0.597  0.6682  0.0360 -1.7398
  588MOL0     H79380   9.145   5.665   0.609 -2.4524 -1.5593  3.1883
  589MOL0     O79381   2.203  10.634   4.738  0.9745  0.1833  0.0135
  589MOL0     C79382   2.124  10.692   4.664 -0.7388 -0.7102  0.0823
  589MOL0     O79383   2.158  10.737   4.542  0.2329 -0.7032 -0.3494
  589MOL0     C79384   2.289  10.748   4.504 -0.3811  0.1260 -0.0985
  589MOL0     C79385   2.309  10.727   4.359 -0.1471  0.0442  0.6324
  589MOL0     C79386   2.441  10.725   4.307  0.2592  0.0737  0.1435
  589MOL0     C79387   2.553  10.763   4.387  0.5129 -0.5787  0.0911
  589MOL0     O79388   2.685  10.765   4.347 -0.3487  0.1312 -0.1858
  589MOL0     C79389   2.705  10.755   4.203  0.2858 -0.3270  0.0520
  589MOL0     C79390   2.862  10.743   4.184  0.5869 -0.3849 -0.5223
  589MOL0     C79391   2.911  10.765   4.042 -0.3733  1.1801 -0.6944
  589MOL0     C79392   3.062  10.742   4.014 -0.8524  0.7045  0.2596
  589MOL0     C79393   3.099  10.766   3.863  0.3179 -1.0673 -0.7121
  589MOL0     C79394   3.256  10.785   3.850 -0.2832  0.4991  0.2944
  589MOL0     C79395   3.288  10.832   3.711  0.2898  0.0999  0.1177
  589MOL0     C79396   3.437  10.854   3.691  0.2731  0.0675 -0.0671
  589MOL0     N79397   3.488  10.986   3.743  0.0219 -0.3874  0.6130
  589MOL0     C79398   3.410  11.098   3.782  0.2245 -0.0557 -0.0762
  589MOL0     C79399   3.507  11.199   3.808 -0.4313 -0.4348  0.0305
  589MOL0     C79400   3.472  11.344   3.853 -0.2563  0.9988  0.9203
  589MOL0     C79401   3.446  11.338   4.005  0.2841  0.0620 -0.1483
  589MOL0     C79402   3.563  11.295   4.097 -0.3018 -0.9797  0.2301
  589MOL0     C79403   3.705  11.360   4.073 -0.0976 -0.1651  0.2971
  589MOL0     O79404   3.782  11.298   4.174  0.3782 -0.2834  0.7976
  589MOL0     C79405   3.915  11.332   4.170 -0.8416 -0.0327 -0.1369
  589MOL0     C79406   4.015  11.240   4.205  0.1167  0.5666  0.4465
  589MOL0     C79407   4.141  11.281   4.235 -0.6557  0.0280 -0.1700
  589MOL0     C79408   4.178  11.414   4.221 -1.2624 -0.4118 -0.3663
  589MOL0     C79409   4.309  11.467   4.269 -0.0668  0.5923 -0.5848
  589MOL0     O79410   4.323  11.600   4.271 -1.3989  0.3327  0.1138
  589MOL0     C79411   4.452  11.640   4.285 -0.0344 -0.1988 -0.6165
  589MOL0     C79412   4.517  11.632   4.411  0.0012  0.5269  0.5978
  589MOL0     C79413   4.655  11.646   4.421  0.4923 -0.5292 -0.4622
  589MOL0     C79414   4.727  11.679   4.306  0.7358 -0.0655  0.1382
  589MOL0     O79415   4.862  11.679   4.326 -0.2041  0.0996 -0.3833
  589MOL0     C79416   4.939  11.697   4.212  0.5328 -0.7541  0.5110
  589MOL0     C79417   5.088  11.714   4.238 -0.2079  0.1407 -0.2206
  589MOL0     C79418   5.159  11.777   4.121 -1.0513 -0.1673  0.0009
  589MOL0     C79419   5.313  11.769   4.142  0.1759  0.0914  0.2111
  589MOL0     C79420   5.373  11.889   4.221 -0.3019 -0.1968  0.4641
  589MOL0     C79421   5.519  11.870   4.271  0.6368  0.4254 -0.0095
  589MOL0     C79422   5.617  11.844   4.159 -0.1170 -0.0835 -0.4529
  589MOL0     C79423   5.707  11.953   4.136  0.3687  0.2587  0.3750
  589MOL0    Cl79424   5.855  11.906   4.052  0.0886  0.0645 -0.1862
  589MOL0     C79425   4.664  11.700   4.183  0.0105 -0.2332 -0.2080
  589MOL0     C79426   4.523  11.676   4.170 -0.7873 -0.0070  0.1599
  589MOL0     O79427   4.396  11.386   4.301  1.3312  0.3312  0.2368
  589MOL0     C79428   4.082  11.501   4.178 -0.1968 -0.0460  0.3060
  589MOL0     C79429   3.961  11.462   4.142  0.4730 -0.4901 -0.6954
  589MOL0     N79430   3.632  11.148   3.797 -0.3191 -0.1337  0.3279
  589MOL0     N79431   3.618  11.023   3.767 -0.2580 -0.4917  0.7079
  589MOL0     C79432   2.534  10.780   4.524  0.1784  0.2897  0.6662
  589MOL0     C79433   2.406  10.772   4.578  0.8250 -0.0608  0.4417
  589MOL0     C79434   1.988  10.727   4.702 -1.0318 -0.1618  0.5595
  589MOL0     C79435   1.897  10.753   4.597 -0.2121  0.1857 -0.0769
  589MOL0     C79436   1.769  10.785   4.615  0.4772 -0.4959  0.5535
  589MOL0     C79437   1.728  10.800   4.749 -0.5824  0.4601 -0.2348
  589MOL0     O79438   1.602  10.851   4.758  0.2122  0.2979  0.2439
  589MOL0     C79439   1.529  10.817   4.874  0.7167 -0.0380 -0.3293
  589MOL0     C79440   1.383  10.836   4.850 -0.5792  0.6047 -0.7191
  589MOL0     C79441   1.330  10.739   4.744  0.5083 -0.3032 -0.1530
  589MOL0     C79442   1.187  10.786   4.707 -0.3595  0.5360 -0.8105
  589MOL0     C79443   1.096  10.797   4.822  0.9041  0.0747  0.3841
  589MOL0     C79444   1.028  10.798   4.924  0.2910  0.2772 -0.5272
  589MOL0     C79445   1.813  10.763   4.861 -0.1866 -0.4693  0.6046
  589MOL0     C79446   1.941  10.724   4.837  0.0432  0.6215 -0.1289
  589MOL0     C79447   2.030  10.716   4.957  0.3985 -0.1068  1.0189
  589MOL0     H79448   2.225  10.690   4.299 -0.0302  0.3982  0.2424
  589MOL0     H79449   2.450  10.709   4.200 -0.3179 -0.9078  0.2332
  589MOL0     H79450   2.662  10.667   4.155  1.8856 -1.0143 -0.1812
  589MOL0     H79451   2.661  10.844   4.156 -1.2240 -1.2250 -0.2829
  589MOL0     H79452   2.904  10.655   4.233  0.4478  0.1512  0.5921
  589MOL0     H79453   2.909  10.827   4.235  2.7032 -0.1737 -2.6458
  589MOL0     H79454   2.886  10.866   4.007  0.6268  1.2318 -1.3007
  589MOL0     H79455   2.861  10.692   3.978  0.1175  0.3693 -0.1628
  589MOL0     H79456   3.120  10.814   4.073 -0.3946  0.7065 -0.1806
  589MOL0     H79457   3.093  10.642   4.047  0.4863  0.5657 -1.2679
  589MOL0     H79458   3.067  10.681   3.802 -1.6209 -1.1490  0.3497
  589MOL0     H79459   3.058  10.861   3.828  1.8288 -0.4223 -0.8004
  589MOL0     H79460   3.293  10.858   3.921  1.2400 -0.5133  0.5840
  589MOL0     H79461   3.315  10.694   3.862  3.1682  2.7002  1.4216
  589MOL0     H79462   3.229  10.924   3.700 -1.2590 -0.6247  1.9607
  589MOL0     H79463   3.257  10.765   3.631  1.5888 -2.4962  1.6704
  589MOL0     H79464   3.496  10.770   3.729 -1.4162 -2.5403 -2.7891
  589MOL0     H79465   3.454  10.860   3.583  0.7659 -0.6444 -0.0400
  589MOL0     H79466   3.301  11.099   3.787  0.1030 -3.6113  0.8773
  589MOL0     H79467   3.536  11.425   3.817  0.0001  2.3258  4.0570
  589MOL0     H79468   3.382  11.366   3.796  1.1234 -1.8899 -2.8344
  589MOL0     H79469   3.413  11.436   4.041 -2.7034 -1.5847  2.0611
  589MOL0     H79470   3.358  11.274   4.020  0.6037 -0.2316  0.4827
  589MOL0     H79471   3.580  11.190   4.073  2.5092 -0.2600 -1.4260
  589MOL0     H79472   3.527  11.314   4.198 -0.9569  0.6236 -0.2804
  589MOL0     H79473   3.709  11.469   4.078  0.2470 -0.1778  0.2951
  589MOL0     H79474   3.738  11.328   3.973 -1.1062 -0.6467  0.0980
  589MOL0     H79475   3.994  11.136   4.229 -1.1424  0.6797 -0.0972
  589MOL0     H79476   4.204  11.211   4.290 -1.9560  0.4362  1.9735
  589MOL0     H79477   4.462  11.590   4.495  0.6616 -2.6252 -0.4296
  589MOL0     H79478   4.706  11.638   4.517  0.1299  1.0688 -0.1164
  589MOL0     H79479   4.932  11.612   4.143  0.6349 -3.0042  3.0951
  589MOL0     H79480   4.911  11.787   4.157  0.7521 -1.0177 -0.0469
  589MOL0     H79481   5.104  11.776   4.327  1.0631 -0.4793  0.0098
  589MOL0     H79482   5.127  11.614   4.262 -1.2050  0.1654  1.7342
  589MOL0     H79483   5.143  11.724   4.027  2.5813 -0.3880 -0.6672
  589MOL0     H79484   5.121  11.879   4.106 -0.1550  0.2706  0.5761
  589MOL0     H79485   5.354  11.775   4.040  0.2172 -2.2933  0.0367
  589MOL0     H79486   5.337  11.673   4.189 -2.7841  0.4702  2.8159
  589MOL0     H79487   5.309  11.910   4.307 -2.0740 -1.4028 -0.4740
  589MOL0     H79488   5.371  11.977   4.156 -2.7721  0.6970  1.6219
  589MOL0     H79489   5.548  11.959   4.326  0.7266 -1.2706  2.8851
  589MOL0     H79490   5.515  11.790   4.345  0.2316 -0.5498 -1.0536
  589MOL0     H79491   5.570  11.825   4.062 -2.6909 -0.4796  0.7660
  589MOL0     H79492   5.667  11.753   4.194  1.0165  0.6038 -0.2419
  589MOL0     H79493   5.667  12.029   4.068  3.6147  1.0242 -0.8746
  589MOL0     H79494   5.744  12.012   4.220 -0.9465  0.4919  0.8077
  589MOL0     H79495   4.716  11.724   4.091 -1.5467 -0.3304 -1.1367
  589MOL0     H79496   4.471  11.688   4.076 -1.9221 -2.2286  0.4273
  589MOL0     H79497   4.092  11.609   4.171 -0.3412 -0.0170  0.5283
  589MOL0     H79498   3.894  11.546   4.127  1.2360  0.5028  1.1798
  589MOL0     H79499   2.619  10.802   4.589  0.8547 -0.0878 -0.0626
  589MOL0     H79500   2.398  10.792   4.684 -0.2614 -2.1534  0.8120
  589MOL0     H79501   1.933  10.759   4.495  5.7966  1.6735  1.6967
  589MOL0     H79502   1.709  10.821   4.532  0.7478  1.3971  1.1199
  589MOL0     H79503   1.553  10.883   4.958  0.1341  0.9980 -0.9521
  589MOL0     H79504   1.553  10.714   4.900  2.6439 -0.2812 -2.6961
  589MOL0     H79505   1.373  10.939   4.815  0.3608  0.4289 -1.5682
  589MOL0     H79506   1.331  10.805   4.941  0.3386 -1.5149 -0.8506
  589MOL0     H79507   1.322  10.635   4.777 -0.8060  0.0208  0.6541
  589MOL0     H79508   1.386  10.747   4.651 -0.0596  3.1189 -0.3623
  589MOL0     H79509   1.183  10.889   4.670 -5.3427  0.1672 -1.9825
  589MOL0     H79510   1.148  10.727   4.623 -2.6632  2.3299 -1.1023
  589MOL0     H79511   0.950  10.795   4.997  0.6409 -1.6825 -0.1554
  589MOL0     H79512   1.762  10.770   4.958 -3.6257  0.4941 -1.0907
  589MOL0     H79513   2.115  10.784   4.947 -0.6174  0.9772 -0.8413
  589MOL0     H79514   1.983  10.749   5.050  1.2465  2.4926  0.6036
  589MOL0     H79515   2.081  10.620   4.966  0.4814 -0.1741 -0.0892
  590MOL0     O79516   4.475   2.896   6.420  0.1394 -0.9934  0.3788
  590MOL0     C79517   4.368   2.837   6.447 -0.7044  0.7427 -0.1713
  590MOL0     O79518   4.354   2.702   6.472 -0.6969  0.0268  0.9954
  590MOL0     C79519   4.473   2.627   6.468 -0.5418  0.1785  0.1285
  590MOL0     C79520   4.575   2.648   6.563 -0.2926 -0.0697 -0.1132
  590MOL0     C79521   4.680   2.563   6.565 -1.4116  0.4505  0.3454
  590MOL0     C79522   4.702   2.468   6.466 -1.1208  0.2113  1.0655
  590MOL0     O79523   4.820   2.395   6.470 -0.2168  0.5889 -0.0338
  590MOL0     C79524   4.836   2.306   6.582  0.6972 -0.0411 -0.2533
  590MOL0     C79525   4.983   2.246   6.583  0.4042 -0.8148 -0.0834
  590MOL0     C79526   4.996   2.163   6.703 -0.1766 -0.5099 -0.8488
  590MOL0     C79527   5.136   2.130   6.735  0.0153  0.2279 -0.5642
  590MOL0     C79528   5.137   2.067   6.879 -0.8862 -0.1542  0.5166
  590MOL0     C79529   5.281   2.023   6.906 -0.0821 -0.5029 -0.8461
  590MOL0     C79530   5.385   2.135   6.934 -0.6156 -0.1923 -0.1206
  590MOL0     C79531   5.519   2.068   6.964 -0.2553 -0.6107  0.5612
  590MOL0     N79532   5.621   2.171   6.983 -0.1383  0.2327  0.0458
  590MOL0     C79533   5.670   2.254   6.888  0.6077  0.0127  1.1400
  590MOL0     C79534   5.752   2.342   6.954 -0.6420 -0.5215 -0.0197
  590MOL0     C79535   5.833   2.445   6.876 -0.1061 -0.0672 -0.2356
  590MOL0     C79536   5.969   2.390   6.858  0.2706  0.4175  0.6728
  590MOL0     C79537   6.074   2.466   6.776  0.6020  0.7313  0.3241
  590MOL0     C79538   6.130   2.590   6.854  0.1687 -0.8035  1.0650
  590MOL0     O79539   6.215   2.655   6.761 -0.2915  0.6963 -0.2306
  590MOL0     C79540   6.336   2.701   6.801 -0.9180 -1.3317 -0.8109
  590MOL0     C79541   6.452   2.677   6.728 -0.6022  0.5656 -0.5723
  590MOL0     C79542   6.582   2.732   6.764 -0.2553 -0.9206  0.4619
  590MOL0     C79543   6.595   2.821   6.875 -0.0826  0.3390  0.2110
  590MOL0     C79544   6.723   2.875   6.910 -0.9131 -0.2171  0.1758
  590MOL0     O79545   6.720   2.983   6.988  0.1696 -0.1128 -0.4248
  590MOL0     C79546   6.828   3.058   7.035 -0.2168  0.8473 -0.3525
  590MOL0     C79547   6.817   3.114   7.163 -1.0332  0.4995  0.2148
  590MOL0     C79548   6.920   3.185   7.225  0.2782 -0.0385  0.1443
  590MOL0     C79549   7.046   3.191   7.155  0.7540 -0.0585 -0.7862
  590MOL0     O79550   7.152   3.267   7.197  0.7520  0.3115  0.1664
  590MOL0     C79551   7.130   3.366   7.302 -0.4742 -0.4091 -0.7774
  590MOL0     C79552   7.262   3.428   7.345  0.1081 -0.1597 -0.1415
  590MOL0     C79553   7.371   3.332   7.399 -0.3295  0.0613 -0.3676
  590MOL0     C79554   7.472   3.409   7.492  0.0296  0.5753 -0.2172
  590MOL0     C79555   7.574   3.315   7.560  0.1863 -0.1935  0.2284
  590MOL0     C79556   7.691   3.370   7.632  0.4698  0.2877 -0.9465
  590MOL0     C79557   7.643   3.479   7.732  0.0021 -0.6812 -0.2298
  590MOL0     C79558   7.757   3.512   7.831  0.2416  0.2583  0.0607
  590MOL0    Cl79559   7.922   3.536   7.753 -0.0302 -0.1361 -0.3113
  590MOL0     C79560   7.060   3.123   7.034 -0.1697 -0.6968 -0.0649
  590MOL0     C79561   6.951   3.060   6.970 -0.2014  0.4056  0.0185
  590MOL0     O79562   6.819   2.826   6.854 -0.4007  0.0778 -0.2039
  590MOL0     C79563   6.477   2.844   6.945  0.5244 -0.4008 -0.5312
  590MOL0     C79564   6.352   2.791   6.913  0.1306  0.7436  0.1431
  590MOL0     N79565   5.747   2.311   7.091  0.0896  0.2957  0.2263
  590MOL0     N79566   5.672   2.212   7.106 -0.2764 -0.0417  0.3175
  590MOL0     C79567   4.611   2.442   6.373 -0.0031  0.2297  1.3361
  590MOL0     C79568   4.494   2.528   6.371  0.1416  1.1547 -0.1759
  590MOL0     C79569   4.243   2.921   6.433  0.1645 -0.1664 -0.1871
  590MOL0     C79570   4.127   2.881   6.496  0.4930 -0.0099 -0.9413
  590MOL0     C79571   4.006   2.950   6.490  0.4412  0.6982 -0.6083
  590MOL0     C79572   3.986   3.065   6.421  0.1956 -0.0007  1.0464
  590MOL0     O79573   3.864   3.135   6.409 -0.7972 -0.5830 -0.2345
  590MOL0     C79574   3.763   3.128   6.516 -0.2625 -0.1409  0.6388
  590MOL0     C79575   3.659   3.231   6.492 -0.1108  0.0385  0.1725
  590MOL0     C79576   3.719   3.365   6.499  0.0744 -0.7370 -0.0172
  590MOL0     C79577   3.628   3.458   6.566 -0.6817  0.2578 -0.4368
  590MOL0     C79578   3.677   3.598   6.561 -0.4847  0.1346 -0.5020
  590MOL0     C79579   3.704   3.714   6.574  0.2860 -0.2454  0.2069
  590MOL0     C79580   4.101   3.107   6.352  0.0449 -0.4504  0.2845
  590MOL0     C79581   4.228   3.043   6.364  0.0429  0.5127  0.5800
  590MOL0     C79582   4.335   3.119   6.301 -0.5263 -0.1268 -0.5388
  590MOL0     H79583   4.578   2.731   6.634  0.4974  1.3136 -1.6833
  590MOL0     H79584   4.765   2.576   6.631 -0.4308  1.3496 -1.0289
  590MOL0     H79585   4.825   2.357   6.678  0.9950 -3.0676  1.5017
  590MOL0     H79586   4.756   2.234   6.568 -3.0759  3.9716 -1.5491
  590MOL0     H79587   5.056   2.327   6.596 -1.6541  0.6888  3.4261
  590MOL0     H79588   5.004   2.180   6.498 -0.8565  0.2495 -1.2757
  590MOL0     H79589   4.941   2.070   6.687  0.7895 -0.9337 -1.7967
  590MOL0     H79590   4.960   2.215   6.793 -0.8015 -1.1271 -0.7294
  590MOL0     H79591   5.187   2.076   6.655 -0.3070 -1.0023  0.0229
  590MOL0     H79592   5.192   2.223   6.744 -0.6526  0.6882 -1.0908
  590MOL0     H79593   5.106   2.141   6.954  0.1746  0.1026  0.7237
  590MOL0     H79594   5.071   1.981   6.886 -3.4224  1.5958 -0.4729
  590MOL0     H79595   5.284   1.953   6.991  2.6488  1.0356  0.4404
  590MOL0     H79596   5.319   1.975   6.816 -1.8364 -0.3551 -1.7060
  590MOL0     H79597   5.364   2.185   7.029  0.6626 -0.5339  0.3611
  590MOL0     H79598   5.402   2.211   6.858  2.7705  0.2638  0.9396
  590MOL0     H79599   5.503   1.999   7.048 -0.3877 -2.0986 -0.6498
  590MOL0     H79600   5.548   2.014   6.874  1.0416 -1.1854  1.2911
  590MOL0     H79601   5.637   2.268   6.786 -1.5973 -1.1865  1.6197
  590MOL0     H79602   5.777   2.467   6.784  1.3719  0.2468 -1.0853
  590MOL0     H79603   5.840   2.538   6.934 -0.2302 -0.1838 -0.0324
  590MOL0     H79604   6.008   2.388   6.960  1.4710 -1.6613  0.2255
  590MOL0     H79605   5.953   2.286   6.828  0.9923  0.0359  1.5747
  590MOL0     H79606   6.027   2.497   6.682  4.2316 -1.2623 -2.4005
  590MOL0     H79607   6.150   2.391   6.753 -1.6789 -0.9868 -2.1751
  590MOL0     H79608   6.180   2.561   6.946  0.3262  0.3941  1.3723
  590MOL0     H79609   6.046   2.656   6.881 -0.0636 -0.5258 -0.2489
  590MOL0     H79610   6.465   2.607   6.646  2.4006  2.6699 -2.0701
  590MOL0     H79611   6.662   2.709   6.695  1.6151  1.0890  1.8284
  590MOL0     H79612   6.717   3.105   7.204 -0.6687 -2.0115  0.7496
  590MOL0     H79613   6.911   3.220   7.327 -0.0952 -0.0012  0.0996
  590MOL0     H79614   7.062   3.445   7.269 -2.5153 -2.3508 -1.4984
  590MOL0     H79615   7.083   3.323   7.391 -1.9692 -0.4818 -1.5786
  590MOL0     H79616   7.304   3.468   7.253  0.6872 -1.3635 -0.4159
  590MOL0     H79617   7.238   3.513   7.410 -3.0860 -0.9558 -0.0712
  590MOL0     H79618   7.319   3.254   7.455  0.2184  0.5836  0.9033
  590MOL0     H79619   7.422   3.300   7.308 -0.6460 -1.4525 -0.0508
  590MOL0     H79620   7.408   3.456   7.568 -0.1385 -1.2472  0.8360
  590MOL0     H79621   7.528   3.482   7.433  2.8864  1.1787  2.9593
  590MOL0     H79622   7.610   3.243   7.487 -1.5567 -0.2583 -0.6241
  590MOL0     H79623   7.514   3.254   7.628 -0.7499 -1.4734 -1.6622
  590MOL0     H79624   7.752   3.290   7.676 -1.3577 -1.3873 -1.2879
  590MOL0     H79625   7.758   3.410   7.556  0.9115 -0.9282 -1.2222
  590MOL0     H79626   7.556   3.441   7.785 -1.2143  2.1730 -0.0062
  590MOL0     H79627   7.609   3.569   7.678  1.1438 -0.1641 -0.1274
  590MOL0     H79628   7.719   3.602   7.881  1.5597 -0.9055  3.4843
  590MOL0     H79629   7.767   3.428   7.900 -0.4928  0.9652  1.0620
  590MOL0     H79630   7.161   3.114   6.995 -0.5166 -0.8348 -0.9515
  590MOL0     H79631   6.976   2.998   6.885  0.3659 -2.6081  2.2033
  590MOL0     H79632   6.482   2.903   7.036  2.2305 -5.4351  3.0995
  590MOL0     H79633   6.265   2.810   6.976 -0.8267 -0.8677 -0.6103
  590MOL0     H79634   4.634   2.358   6.309 -1.3933 -1.4575  2.9477
  590MOL0     H79635   4.412   2.513   6.301 -0.0849  1.7768 -0.0458
  590MOL0     H79636   4.137   2.801   6.568  0.0670  1.1333  0.4374
  590MOL0     H79637   3.920   2.918   6.548  0.4951  1.4078 -0.1167
  590MOL0     H79638   3.817   3.143   6.610  1.3529  0.1833 -0.3023
  590MOL0     H79639   3.716   3.030   6.524 -0.1650 -0.0561  2.9070
  590MOL0     H79640   3.579   3.220   6.567 -0.9397  0.7640 -0.5784
  590MOL0     H79641   3.619   3.209   6.393  2.1169  1.2871 -1.0908
  590MOL0     H79642   3.736   3.399   6.396  2.2855  0.4542  0.6669
  590MOL0     H79643   3.818   3.370   6.545  1.4581  1.0355 -2.8444
  590MOL0     H79644   3.528   3.463   6.521 -1.2320 -1.8515  0.4005
  590MOL0     H79645   3.613   3.428   6.670  1.2215  0.8908  0.0651
  590MOL0     H79646   3.743   3.814   6.573 -2.1042  0.8999  3.7170
  590MOL0     H79647   4.096   3.196   6.291 -0.8414  0.5868  1.8259
  590MOL0     H79648   4.426   3.117   6.361 -1.2584  0.7949  0.6538
  590MOL0     H79649   4.347   3.085   6.198  1.3305  0.6387 -0.6151
  590MOL0     H79650   4.301   3.224   6.298  1.2410  0.4511 -1.8316
  591MOL0     O79651   5.653   8.873   6.118 -0.1438  0.3468  0.3820
  591MOL0     C79652   5.609   8.869   6.004 -0.2029 -0.7895  0.2763
  591MOL0     O79653   5.673   8.919   5.897 -1.3372  0.4355 -0.4880
  591MOL0     C79654   5.800   8.980   5.900  0.0596 -0.1226  0.1172
  591MOL0     C79655   5.817   9.097   5.830 -0.4353  0.2846  0.6692
  591MOL0     C79656   5.941   9.159   5.820 -0.0622  0.0092 -0.3518
  591MOL0     C79657   6.053   9.109   5.889  1.0283 -0.0842  0.3391
  591MOL0     O79658   6.175   9.175   5.902  0.3590  0.0322  0.6767
  591MOL0     C79659   6.205   9.298   5.826  0.0431  0.4210 -0.6481
  591MOL0     C79660   6.328   9.358   5.876 -0.4122  0.0846  0.0963
  591MOL0     C79661   6.458   9.323   5.794 -0.0463 -0.1801 -0.5968
  591MOL0     C79662   6.572   9.407   5.853  0.0178 -0.2674 -0.1008
  591MOL0     C79663   6.712   9.372   5.793  0.6640  0.2690  0.6086
  591MOL0     C79664   6.817   9.473   5.833  0.2689  0.5354 -0.8206
  591MOL0     C79665   6.799   9.622   5.807  0.5785  1.1320 -0.5001
  591MOL0     C79666   6.934   9.705   5.803 -0.3565  0.6843  0.8344
  591MOL0     N79667   6.999   9.730   5.926 -0.2347 -0.0810  0.1640
  591MOL0     C79668   6.962   9.835   6.013 -0.0429  0.2094 -0.1399
  591MOL0     C79669   7.042   9.806   6.118 -0.1550 -0.2306 -1.2613
  591MOL0     C79670   7.070   9.891   6.240  0.3166  0.0326 -0.0295
  591MOL0     C79671   7.002   9.829   6.368 -0.0209 -0.4502 -0.0019
  591MOL0     C79672   7.049   9.704   6.430 -0.0367 -0.1702 -0.3019
  591MOL0     C79673   7.200   9.690   6.445  0.2425  0.6633  0.1531
  591MOL0     O79674   7.247   9.811   6.511  0.6066  0.3357  0.6037
  591MOL0     C79675   7.378   9.817   6.545  0.4905 -0.4833 -0.2139
  591MOL0     C79676   7.479   9.721   6.532 -0.1024 -0.3987  0.4050
  591MOL0     C79677   7.608   9.737   6.563 -0.1215  0.7548  0.0774
  591MOL0     C79678   7.644   9.864   6.605 -0.7123 -0.5513  0.5373
  591MOL0     C79679   7.789   9.895   6.633  0.3205 -0.5257  0.1404
  591MOL0     O79680   7.885   9.824   6.557 -0.0117 -0.1622  0.3991
  591MOL0     C79681   8.013   9.857   6.577  0.6048  0.1195 -0.9135
  591MOL0     C79682   8.059   9.979   6.541 -0.9135 -0.7957  0.1123
  591MOL0     C79683   8.193  10.010   6.548  0.0931  0.3984 -1.5681
  591MOL0     C79684   8.296   9.921   6.590 -0.2821 -0.5489 -0.7747
  591MOL0     O79685   8.431   9.954   6.597  0.1211  0.0139 -0.0521
  591MOL0     C79686   8.472  10.086   6.593 -0.8196 -0.4539  0.1557
  591MOL0     C79687   8.602  10.100   6.673 -0.7597 -0.4743  0.2710
  591MOL0     C79688   8.727  10.044   6.604  0.8683  0.2652 -0.7157
  591MOL0     C79689   8.788  10.122   6.483 -0.1074  0.8165  0.3140
  591MOL0     C79690   8.918  10.055   6.431 -0.4141  0.0897 -0.1716
  591MOL0     C79691   8.989  10.145   6.333  0.2218 -0.5077 -0.9178
  591MOL0     C79692   9.079  10.076   6.231  0.4365  0.2821 -0.0934
  591MOL0     C79693   9.092  10.172   6.119  0.0231  0.2240  0.4309
  591MOL0    Cl79694   9.208  10.305   6.158  0.1137 -0.0578  0.1671
  591MOL0     C79695   8.249   9.792   6.616  0.4189 -0.7543  0.2408
  591MOL0     C79696   8.111   9.758   6.606 -0.5411 -0.1679 -0.1408
  591MOL0     O79697   7.815   9.988   6.706 -0.1816 -0.2402 -0.0620
  591MOL0     C79698   7.550   9.971   6.617  0.5621 -0.3139 -0.0122
  591MOL0     C79699   7.412   9.944   6.592 -0.3396 -0.2936  0.0662
  591MOL0     N79700   7.123   9.696   6.098  0.3888  0.1732 -0.4340
  591MOL0     N79701   7.093   9.647   5.981  0.4970 -0.3684 -0.6719
  591MOL0     C79702   6.036   8.993   5.963  0.9719  1.0835 -0.1201
  591MOL0     C79703   5.906   8.936   5.975  0.1518  0.1293 -0.2561
  591MOL0     C79704   5.488   8.789   5.994 -0.1955  0.5839 -0.1315
  591MOL0     C79705   5.409   8.804   5.881  0.7456  0.4199 -1.0675
  591MOL0     C79706   5.287   8.741   5.861  0.7658  0.7156  0.4994
  591MOL0     C79707   5.255   8.651   5.958 -0.3869 -0.0201  0.0786
  591MOL0     O79708   5.141   8.574   5.948 -0.0402 -0.0965 -0.6802
  591MOL0     C79709   5.054   8.583   5.836 -0.4625 -0.0482 -0.1316
  591MOL0     C79710   4.939   8.493   5.846 -0.0460 -0.0985  0.3152
  591MOL0     C79711   4.845   8.531   5.958  0.1407 -0.2093 -0.5431
  591MOL0     C79712   4.752   8.416   5.992  0.1720 -0.1753  0.5075
  591MOL0     C79713   4.637   8.419   5.895  0.4318  0.4527  0.8190
  591MOL0     C79714   4.554   8.418   5.808  0.3119  0.3752 -0.1413
  591MOL0     C79715   5.338   8.613   6.065 -0.2747  0.0422  0.2853
  591MOL0     C79716   5.454   8.683   6.086  0.5934  0.2592 -0.9691
  591MOL0     C79717   5.526   8.650   6.214  0.1721  0.8967 -0.0169
  591MOL0     H79718   5.737   9.127   5.764  0.1910  1.0732  0.2514
  591MOL0     H79719   5.955   9.238   5.747  0.6911 -0.1582 -0.3977
  591MOL0     H79720   6.224   9.283   5.719  0.0912 -0.1632 -0.5624
  591MOL0     H79721   6.127   9.373   5.840  0.4656  0.9977 -1.3313
  591MOL0     H79722   6.345   9.342   5.983 -1.2979  2.4999  0.6472
  591MOL0     H79723   6.316   9.466   5.880  0.9896  0.2491  0.3492
  591MOL0     H79724   6.443   9.340   5.687 -0.7978  1.3257 -0.2700
  591MOL0     H79725   6.492   9.221   5.816  0.4339  0.4187  1.7285
  591MOL0     H79726   6.545   9.511   5.834  0.8216 -0.3604 -1.9216
  591MOL0     H79727   6.582   9.401   5.962  2.1155  0.4374 -0.2050
  591MOL0     H79728   6.744   9.275   5.831  2.8686  0.1324 -1.3891
  591MOL0     H79729   6.697   9.361   5.685 -0.2240  0.0683  0.7368
  591MOL0     H79730   6.828   9.460   5.941 -0.8084 -0.4840 -0.8176
  591MOL0     H79731   6.909   9.437   5.788  0.3153  0.6791 -0.8413
  591MOL0     H79732   6.740   9.670   5.886 -0.1899  3.3862 -2.3331
  591MOL0     H79733   6.755   9.627   5.707 -0.9982  1.2537  0.1643
  591MOL0     H79734   7.003   9.651   5.737 -1.2373 -0.3431  0.7161
  591MOL0     H79735   6.901   9.798   5.757 -0.9435  1.0860  2.0238
  591MOL0     H79736   6.890   9.916   6.004  2.5913  2.9392  1.4741
  591MOL0     H79737   7.179   9.883   6.252  0.2503 -0.5230  0.2366
  591MOL0     H79738   7.049   9.998   6.230 -2.4404 -0.5808 -1.5164
  591MOL0     H79739   7.014   9.909   6.442 -0.4927  0.5632 -0.9966
  591MOL0     H79740   6.894   9.828   6.349 -0.1482 -1.9397  0.6836
  591MOL0     H79741   7.022   9.619   6.367 -1.5799 -0.3207  0.5054
  591MOL0     H79742   6.995   9.695   6.525 -1.4225 -0.9386 -1.1335
  591MOL0     H79743   7.234   9.685   6.341  1.0200  1.4119  0.3654
  591MOL0     H79744   7.225   9.596   6.497  0.6262  0.6479 -0.0571
  591MOL0     H79745   7.456   9.634   6.470 -2.7084  1.4490 -1.4386
  591MOL0     H79746   7.677   9.656   6.542 -1.8217 -0.8749  0.5950
  591MOL0     H79747   7.983  10.048   6.506  0.1123 -0.2688 -1.1761
  591MOL0     H79748   8.219  10.109   6.511  0.2320  0.1238 -2.2251
  591MOL0     H79749   8.486  10.117   6.489 -1.6357  0.0357  0.1829
  591MOL0     H79750   8.405  10.154   6.647 -0.5798  0.7854 -1.0348
  591MOL0     H79751   8.618  10.207   6.689 -0.7973 -0.5665  0.9453
  591MOL0     H79752   8.592  10.041   6.765  2.6480 -1.7334 -0.0085
  591MOL0     H79753   8.800  10.025   6.683  0.0284 -1.6035 -0.3176
  591MOL0     H79754   8.694   9.946   6.567 -1.1945  0.6201  0.0232
  591MOL0     H79755   8.797  10.228   6.509  0.1417  0.9230 -0.1921
  591MOL0     H79756   8.722  10.135   6.397  1.2569  3.4791 -0.4403
  591MOL0     H79757   8.885   9.961   6.386 -0.6198 -0.2942  0.7744
  591MOL0     H79758   8.982  10.045   6.519  0.7948  1.6934 -0.7968
  591MOL0     H79759   8.912  10.208   6.288 -0.1134 -0.5239 -0.3794
  591MOL0     H79760   9.054  10.212   6.389 -0.4617  0.9133 -1.7649
  591MOL0     H79761   9.029   9.984   6.200  2.3770 -0.5777 -0.7990
  591MOL0     H79762   9.177  10.048   6.270 -0.6291 -1.4731  1.5192
  591MOL0     H79763   9.112  10.121   6.024 -1.5309 -2.4910  1.4713
  591MOL0     H79764   8.994  10.216   6.097  0.2366 -0.3861 -2.1220
  591MOL0     H79765   8.321   9.717   6.646 -0.7761 -2.6629 -1.3829
  591MOL0     H79766   8.084   9.657   6.635  0.3480  0.0554  1.6433
  591MOL0     H79767   7.575  10.068   6.658  0.0006 -0.5679  0.9487
  591MOL0     H79768   7.332  10.014   6.611 -0.7431 -0.1296 -2.0667
  591MOL0     H79769   6.121   8.943   6.007 -1.1277 -1.3440  1.4298
  591MOL0     H79770   5.888   8.842   6.026 -3.7713  0.4814 -0.6945
  591MOL0     H79771   5.444   8.874   5.806 -3.2890  0.0358 -3.5786
  591MOL0     H79772   5.224   8.752   5.773  1.3936 -0.0474 -0.0641
  591MOL0     H79773   5.112   8.547   5.751 -2.7552 -1.6049 -1.1505
  591MOL0     H79774   5.018   8.685   5.824 -1.5648 -0.1163  2.0433
  591MOL0     H79775   4.985   8.394   5.858 -0.4437 -0.2792  0.3529
  591MOL0     H79776   4.884   8.482   5.752  0.6693 -1.8117  0.0469
  591MOL0     H79777   4.786   8.618   5.928  3.5033  3.0319  1.3543
  591MOL0     H79778   4.895   8.559   6.051 -3.9551  0.4856  1.6543
  591MOL0     H79779   4.797   8.317   6.001 -2.6495 -1.3860  3.3499
  591MOL0     H79780   4.715   8.447   6.090 -1.2011  3.2142 -0.9162
  591MOL0     H79781   4.481   8.426   5.730  2.7578  0.8394 -2.5387
  591MOL0     H79782   5.290   8.540   6.129 -0.4916 -1.1823 -1.2365
  591MOL0     H79783   5.485   8.558   6.256 -4.0966  2.9415  0.8451
  591MOL0     H79784   5.634   8.640   6.200  0.0897 -1.4391  0.4761
  591MOL0     H79785   5.498   8.718   6.294 -0.9019  0.6593 -0.1655
  592MOL0     O79786   9.959  11.136   9.571 -0.0058 -0.0164 -0.1863
  592MOL0     C79787   9.966  11.018   9.556 -0.3316 -0.3872 -1.0416
  592MOL0     O79788  10.075  10.954   9.511  0.4040 -0.4781 -0.1673
  592MOL0     C79789  10.200  11.002   9.531 -0.6507  0.2505  0.9794
  592MOL0     C79790  10.302  10.910   9.515  0.3994 -0.1018 -0.4436
  592MOL0     C79791  10.432  10.937   9.538 -0.6447 -0.3128 -0.1268
  592MOL0     C79792  10.477  11.066   9.560  0.5878 -0.4385  0.6169
  592MOL0     O79793  10.605  11.120   9.576 -0.9314 -0.1997  0.2170
  592MOL0     C79794  10.709  11.025   9.603 -0.2577 -0.4101 -0.2828
  592MOL0     C79795  10.843  11.095   9.621  0.4139  0.2517  0.2914
  592MOL0     C79796  10.955  10.987   9.635  0.9589  0.4179  0.1514
  592MOL0     C79797  11.095  11.044   9.632 -0.2065  0.2633  0.0288
  592MOL0     C79798  11.145  11.087   9.775 -0.0028 -0.2156 -0.0220
  592MOL0     C79799  11.285  11.134   9.767 -0.2834  0.1580 -0.2829
  592MOL0     C79800  11.374  11.007   9.776  0.4763 -0.2436 -0.2039
  592MOL0     C79801  11.530  11.047   9.751 -0.1452 -0.3212  0.2090
  592MOL0     N79802  11.567  11.054   9.610 -0.3434  0.2192 -0.0154
  592MOL0     C79803  11.629  10.942   9.553 -0.1118  0.1172  0.3250
  592MOL0     C79804  11.650  10.987   9.421  0.0210 -0.0916 -0.0137
  592MOL0     C79805  11.716  10.903   9.309 -0.1361  0.1860 -0.5041
  592MOL0     C79806  11.856  10.960   9.309 -0.4701  0.7532  0.0686
  592MOL0     C79807  11.873  11.073   9.199 -0.7867 -0.0865  0.0499
  592MOL0     C79808  12.026  11.111   9.181 -0.1819  1.0713 -0.2681
  592MOL0     O79809  12.096  11.114   9.307  0.0064 -0.5846  0.6149
  592MOL0     C79810  12.232  11.161   9.300 -0.2452 -1.0788  0.1273
  592MOL0     C79811  12.304  11.160   9.185 -0.9227  0.1289  0.2925
  592MOL0     C79812  12.438  11.199   9.179  1.1241 -0.0752  0.7252
  592MOL0     C79813  12.490  11.268   9.294  0.1798  0.6194  0.2388
  592MOL0     C79814  12.619  11.325   9.282 -0.3480 -0.9621  0.2480
  592MOL0     O79815  12.681  11.307   9.163  0.1617 -0.4706  0.4780
  592MOL0     C79816  12.805  11.357   9.149 -0.6794 -1.1253 -0.1027
  592MOL0     C79817  12.834  11.429   9.035  0.2280 -0.2919  0.3347
  592MOL0     C79818  12.957  11.494   9.019  0.3733  0.7679  0.4541
  592MOL0     C79819  13.053  11.483   9.113 -0.4528  0.0031 -0.0608
  592MOL0     O79820  13.177  11.543   9.103 -0.0387  0.7240  0.1849
  592MOL0     C79821  13.189  11.662   9.016  0.2679  0.2907  0.0557
  592MOL0     C79822  13.310  11.747   9.047 -0.0387  0.3519  0.6847
  592MOL0     C79823  13.443  11.670   9.019  0.4254  0.0986  0.3802
  592MOL0     C79824  13.574  11.749   9.024 -0.3794 -0.6776 -0.1998
  592MOL0     C79825  13.691  11.656   9.008 -0.4052  0.1021  0.6656
  592MOL0     C79826  13.829  11.727   9.026 -0.1785 -0.2281  0.8786
  592MOL0     C79827  13.934  11.630   9.053 -0.9628  0.7840  0.2100
  592MOL0     C79828  14.070  11.693   9.064 -0.2780  0.2754 -0.4697
  592MOL0    Cl79829  14.188  11.564   9.095 -0.0231  0.0412  0.2333
  592MOL0     C79830  13.026  11.415   9.232 -0.3347 -0.4595  0.7286
  592MOL0     C79831  12.905  11.346   9.248 -0.4714  0.3534  0.5880
  592MOL0     O79832  12.661  11.378   9.382  0.3485 -0.1998  0.0714
  592MOL0     C79833  12.413  11.278   9.413  0.7184  0.3327 -0.2588
  592MOL0     C79834  12.283  11.225   9.415  0.3306  0.2311 -0.5204
  592MOL0     N79835  11.600  11.112   9.412  0.6549 -0.5403  0.0487
  592MOL0     N79836  11.556  11.155   9.518  0.3895  0.1986 -0.3710
  592MOL0     C79837  10.386  11.168   9.573  0.2872  0.4691  0.2050
  592MOL0     C79838  10.250  11.131   9.571  0.8137  0.7503  0.3969
  592MOL0     C79839   9.845  10.941   9.567  0.6348 -0.1202  0.1294
  592MOL0     C79840   9.859  10.803   9.583 -0.1632 -0.3136 -0.1495
  592MOL0     C79841   9.752  10.720   9.586  0.2906 -0.0625 -0.1950
  592MOL0     C79842   9.614  10.767   9.593 -0.3025 -0.4438 -0.7920
  592MOL0     O79843   9.521  10.674   9.611 -0.5084  0.0652 -0.1734
  592MOL0     C79844   9.393  10.726   9.635 -0.2494  0.2557  0.2983
  592MOL0     C79845   9.311  10.617   9.713  0.5687 -0.4751 -0.5850
  592MOL0     C79846   9.167  10.655   9.710 -0.3278  0.5293 -0.2700
  592MOL0     C79847   9.082  10.558   9.785 -0.7713  0.3123  0.1039
  592MOL0     C79848   8.946  10.609   9.804  0.3954 -0.3984  0.2660
  592MOL0     C79849   8.833  10.652   9.819 -0.3459  0.4355 -0.1823
  592MOL0     C79850   9.597  10.905   9.579 -0.5809  0.0873  0.5355
  592MOL0     C79851   9.707  10.991   9.569  0.0324  0.4580  0.9897
  592MOL0     C79852   9.670  11.134   9.575 -0.0488 -0.3441  0.8463
  592MOL0     H79853  10.270  10.809   9.491 -0.3869 -0.6810  2.6053
  592MOL0     H79854  10.506  10.857   9.529 -1.2877 -0.7540 -2.2903
  592MOL0     H79855  10.689  10.967   9.694  3.7985 -4.8867 -1.7976
  592MOL0     H79856  10.726  10.945   9.530  3.0732 -0.8948  0.8342
  592MOL0     H79857  10.830  11.162   9.706 -2.8749 -0.1868  0.2950
  592MOL0     H79858  10.861  11.146   9.526  0.0232  0.7184  0.4641
  592MOL0     H79859  10.931  10.910   9.562 -1.5619  1.0961  0.1571
  592MOL0     H79860  10.948  10.932   9.729  0.2111  0.2930  0.0335
  592MOL0     H79861  11.161  10.969   9.586 -1.6882 -1.0193 -0.0785
  592MOL0     H79862  11.087  11.137   9.575  0.2165  0.1954 -0.1475
  592MOL0     H79863  11.095  11.176   9.816  1.5654  0.1277  1.2836
  592MOL0     H79864  11.127  11.008   9.848  0.0882 -0.4773 -0.2846
  592MOL0     H79865  11.307  11.188   9.674 -0.6749 -0.9988 -1.0794
  592MOL0     H79866  11.293  11.186   9.862 -0.2575 -2.2127  1.0785
  592MOL0     H79867  11.346  10.938   9.696 -1.4438  0.8020 -0.4777
  592MOL0     H79868  11.352  10.963   9.873  3.9806 -1.8536  0.0268
  592MOL0     H79869  11.554  11.146   9.791  0.2450  1.3718 -3.7296
  592MOL0     H79870  11.599  10.979   9.803 -0.8137 -0.4593  0.9262
  592MOL0     H79871  11.653  10.845   9.594 -1.1368 -0.9598 -1.4730
  592MOL0     H79872  11.721  10.795   9.325  0.4336 -0.0246 -1.9304
  592MOL0     H79873  11.660  10.918   9.216 -1.4561 -1.7841 -0.0825
  592MOL0     H79874  11.879  10.992   9.411 -1.4239  4.0159 -0.6110
  592MOL0     H79875  11.921  10.879   9.276  1.0468  1.3782  1.3868
  592MOL0     H79876  11.823  11.166   9.226  0.5282  0.3354  1.1261
  592MOL0     H79877  11.817  11.042   9.110 -1.2695  0.9546 -0.0162
  592MOL0     H79878  12.035  11.205   9.126 -3.4621  2.3445  1.1257
  592MOL0     H79879  12.065  11.027   9.122 -0.5178 -0.4851  1.6126
  592MOL0     H79880  12.268  11.123   9.089  0.9188 -0.3691 -0.2405
  592MOL0     H79881  12.483  11.200   9.080  2.1545 -1.6537  1.1501
  592MOL0     H79882  12.774  11.443   8.945  0.6453 -2.5577 -0.3556
  592MOL0     H79883  12.982  11.553   8.932  1.6932  1.5775  1.3381
  592MOL0     H79884  13.194  11.638   8.909  0.3102 -2.4050  0.5937
  592MOL0     H79885  13.112  11.736   9.039  1.0178  0.3724  2.5101
  592MOL0     H79886  13.308  11.834   8.981 -0.7827 -2.0503 -2.7274
  592MOL0     H79887  13.298  11.775   9.152 -0.2741 -1.2462  1.1148
  592MOL0     H79888  13.451  11.588   9.090  2.6432  0.2289  0.3405
  592MOL0     H79889  13.445  11.629   8.917  0.8893  0.7880  0.1061
  592MOL0     H79890  13.578  11.806   9.117 -2.7520  2.3244 -1.7628
  592MOL0     H79891  13.573  11.825   8.946 -1.0107 -0.4316  0.0382
  592MOL0     H79892  13.675  11.616   8.907 -0.4087  1.5056  0.0802
  592MOL0     H79893  13.675  11.576   9.081 -3.5232 -1.7657 -1.8151
  592MOL0     H79894  13.852  11.768   8.928  0.7616 -0.6785  0.9006
  592MOL0     H79895  13.819  11.801   9.106  1.6886  0.3045  0.6469
  592MOL0     H79896  13.923  11.562   8.968 -0.7210 -0.0848  0.8518
  592MOL0     H79897  13.920  11.576   9.147  1.3111 -0.4860 -0.1047
  592MOL0     H79898  14.105  11.756   8.982  2.8829 -0.1396  0.3971
  592MOL0     H79899  14.063  11.758   9.151 -0.6159  0.6189 -0.7518
  592MOL0     H79900  13.106  11.406   9.304  0.7580  0.3174 -0.3621
  592MOL0     H79901  12.887  11.282   9.333 -2.7279 -3.2834 -2.2950
  592MOL0     H79902  12.447  11.333   9.500  2.0835  1.7939 -1.6355
  592MOL0     H79903  12.215  11.230   9.500 -0.0084 -1.7682 -0.6208
  592MOL0     H79904  10.402  11.274   9.591  1.7399  0.1275  1.1966
  592MOL0     H79905  10.177  11.211   9.583  0.7612  1.2338 -2.5322
  592MOL0     H79906   9.957  10.758   9.572  0.1521 -0.5031  2.8334
  592MOL0     H79907   9.765  10.612   9.582  1.3102  0.0262  0.3270
  592MOL0     H79908   9.346  10.755   9.541 -1.9426  0.3758  1.1335
  592MOL0     H79909   9.394  10.814   9.701 -2.2812  0.1349  0.5720
  592MOL0     H79910   9.350  10.603   9.815  1.4077  0.4271 -0.7660
  592MOL0     H79911   9.327  10.525   9.655  0.0092  0.3920 -2.1668
  592MOL0     H79912   9.139  10.662   9.605  1.6681 -0.9996 -0.9546
  592MOL0     H79913   9.152  10.755   9.751  0.1600  1.4598 -2.2601
  592MOL0     H79914   9.060  10.468   9.725 -2.7392 -0.6562  2.1412
  592MOL0     H79915   9.126  10.524   9.879  0.9611 -3.1496 -1.7741
  592MOL0     H79916   8.731  10.685   9.826 -0.4283  0.0210  0.7593
  592MOL0     H79917   9.497  10.949   9.572 -0.5958 -0.0268 -0.0354
  592MOL0     H79918   9.727  11.186   9.497  3.0243 -2.6147  1.4037
  592MOL0     H79919   9.567  11.151   9.541  0.9755 -0.0608 -2.4296
  592MOL0     H79920   9.691  11.167   9.677 -1.8001 -2.3686  1.9334
  593MOL0     O79921   6.629   3.068   7.451 -0.3011 -0.1355  0.1381
  593MOL0     C79922   6.608   2.962   7.504  0.8285  0.0041 -0.4989
  593MOL0     O79923   6.691   2.897   7.591 -0.2352  0.3393  0.0504
  593MOL0     C79924   6.826   2.934   7.611 -0.6967 -0.4347 -0.3159
  593MOL0     C79925   6.915   2.963   7.502  0.4050 -0.3229 -0.1089
  593MOL0     C79926   7.051   2.996   7.524  0.3407  0.5034  0.9660
  593MOL0     C79927   7.102   2.983   7.653 -0.3883 -0.1959 -0.1256
  593MOL0     O79928   7.235   3.011   7.661 -0.7703 -0.0579 -0.6236
  593MOL0     C79929   7.298   2.951   7.775 -0.4045 -0.1878 -0.0146
  593MOL0     C79930   7.450   2.975   7.763 -1.0195 -0.0754  0.8664
  593MOL0     C79931   7.534   2.894   7.867  0.3232  0.1214 -0.1236
  593MOL0     C79932   7.681   2.922   7.876 -0.2748 -1.1206  0.6252
  593MOL0     C79933   7.737   2.884   8.013  0.0545  0.1159 -0.0858
  593MOL0     C79934   7.889   2.887   8.018 -0.7140 -0.2654 -0.5330
  593MOL0     C79935   7.942   2.818   8.146  0.2588  0.2546 -0.2765
  593MOL0     C79936   8.054   2.898   8.215  0.1004  0.0611  0.7780
  593MOL0     N79937   8.184   2.902   8.147  0.7866 -0.1845 -0.0877
  593MOL0     C79938   8.266   3.010   8.149  0.7876 -0.1739  0.6357
  593MOL0     C79939   8.376   2.955   8.084 -0.6676  0.1140 -0.7583
  593MOL0     C79940   8.521   3.010   8.088  0.0807 -0.5349 -0.5802
  593MOL0     C79941   8.520   3.166   8.085 -0.0175 -0.6119 -0.0484
  593MOL0     C79942   8.659   3.235   8.083  0.1713  0.2660 -0.3334
  593MOL0     C79943   8.740   3.213   7.956 -0.1102 -1.2733 -0.0883
  593MOL0     O79944   8.802   3.083   7.954  0.0427 -0.5032 -0.1736
  593MOL0     C79945   8.914   3.065   8.034  0.2202 -0.0873 -0.3787
  593MOL0     C79946   8.918   2.977   8.148  0.7855 -0.4562 -0.3398
  593MOL0     C79947   9.042   2.962   8.210 -0.5531 -0.4442 -0.4500
  593MOL0     C79948   9.160   3.017   8.158  0.1652 -0.1311  0.5953
  593MOL0     C79949   9.292   2.985   8.214 -0.0488  0.1174 -0.0381
  593MOL0     O79950   9.399   3.041   8.154 -0.4510 -0.5127 -0.0321
  593MOL0     C79951   9.527   3.013   8.196  0.2629 -0.1491 -0.5264
  593MOL0     C79952   9.608   3.108   8.251 -0.7265  0.6758 -0.2930
  593MOL0     C79953   9.741   3.080   8.280 -0.5917 -0.1509 -0.1241
  593MOL0     C79954   9.801   2.961   8.230 -0.1447  0.1653  0.5217
  593MOL0     O79955   9.940   2.932   8.227  0.2767  0.7402  0.3914
  593MOL0     C79956  10.032   3.035   8.274  0.1402 -0.2423 -0.1117
  593MOL0     C79957  10.168   3.005   8.222  0.4625  0.0384  0.2291
  593MOL0     C79958  10.270   3.106   8.267  0.4061  0.3308 -0.0318
  593MOL0     C79959  10.412   3.080   8.212  1.1860  0.4232  0.4694
  593MOL0     C79960  10.498   3.207   8.233  0.7041 -0.7849  0.4619
  593MOL0     C79961  10.607   3.203   8.129 -0.2140  0.1466  0.3057
  593MOL0     C79962  10.701   3.330   8.127  0.6181 -0.7532  0.2930
  593MOL0     C79963  10.845   3.307   8.167  0.8552 -0.1853  0.2106
  593MOL0    Cl79964  10.930   3.176   8.070 -0.3299  0.0831 -0.0361
  593MOL0     C79965   9.718   2.867   8.175  0.3060  0.1006 -0.3307
  593MOL0     C79966   9.586   2.887   8.166 -0.1612  0.1124 -0.3430
  593MOL0     O79967   9.296   2.907   8.311  0.4706  0.5872 -0.3225
  593MOL0     C79968   9.153   3.102   8.047 -0.6787  0.3157 -0.0319
  593MOL0     C79969   9.027   3.125   7.985 -0.8364  0.1160 -0.1486
  593MOL0     N79970   8.341   2.830   8.040 -0.3555  0.1025  0.7016
  593MOL0     N79971   8.233   2.796   8.087  0.0499 -0.2227  0.2580
  593MOL0     C79972   7.012   2.949   7.757  0.8559 -0.2123 -0.0249
  593MOL0     C79973   6.877   2.921   7.737  0.0116 -0.6200 -0.5225
  593MOL0     C79974   6.480   2.891   7.468 -0.1484  1.1342  0.1373
  593MOL0     C79975   6.450   2.764   7.525 -0.1983  0.1865  0.6156
  593MOL0     C79976   6.335   2.687   7.504 -0.6010 -0.4968 -0.6284
  593MOL0     C79977   6.242   2.731   7.405 -0.0594 -0.4771  0.8183
  593MOL0     O79978   6.130   2.655   7.403 -0.6614  0.4719  0.1884
  593MOL0     C79979   6.031   2.691   7.300 -0.6722 -0.3934 -0.0512
  593MOL0     C79980   5.919   2.591   7.283 -0.1158 -0.5454 -0.5168
  593MOL0     C79981   5.817   2.608   7.390 -0.1376  0.1201  0.5930
  593MOL0     C79982   5.735   2.478   7.415 -0.1051 -0.2927  0.1152
  593MOL0     C79983   5.635   2.501   7.522 -0.3441 -0.1189  0.3504
  593MOL0     C79984   5.546   2.514   7.602 -0.3169 -0.4451 -0.8407
  593MOL0     C79985   6.271   2.851   7.333 -0.2134  0.4781 -0.3611
  593MOL0     C79986   6.386   2.930   7.366  0.0095 -0.0312  0.4313
  593MOL0     C79987   6.399   3.042   7.274  0.2612 -0.1787  0.6190
  593MOL0     H79988   6.885   2.958   7.397 -2.6129 -0.0982  0.6527
  593MOL0     H79989   7.123   3.011   7.444  0.3750 -2.9010  0.2089
  593MOL0     H79990   7.252   2.997   7.863 -2.0354 -2.4557  0.3787
  593MOL0     H79991   7.273   2.845   7.776  0.1361 -0.3677 -1.7670
  593MOL0     H79992   7.484   3.079   7.768 -0.0740 -0.0435 -2.9186
  593MOL0     H79993   7.487   2.941   7.666 -0.3251  1.5802  0.5244
  593MOL0     H79994   7.508   2.790   7.847 -2.0249  0.7401 -0.5858
  593MOL0     H79995   7.491   2.907   7.967 -2.8122  3.4684 -1.6943
  593MOL0     H79996   7.744   2.861   7.810  1.4682 -1.3722  2.4183
  593MOL0     H79997   7.706   3.026   7.850 -1.6182 -0.9033  0.1384
  593MOL0     H79998   7.697   2.943   8.095 -0.2522 -1.3579  0.8700
  593MOL0     H79999   7.709   2.780   8.033  0.6388  0.2109  1.3097
  593MOL0     H80000   7.931   2.849   7.924 -1.2498  3.0198 -2.2699
  593MOL0     H80001   7.927   2.989   8.013  1.0571 -0.9218 -1.3147
  593MOL0     H80002   7.980   2.719   8.122 -0.9378  0.2561 -2.3503
  593MOL0     H80003   7.864   2.807   8.223 -0.9888  1.5553 -1.2985
  593MOL0     H80004   8.028   3.003   8.232 -0.0684  0.5186 -1.8636
  593MOL0     H80005   8.076   2.856   8.314 -2.1847 -3.6277 -0.0835
  593MOL0     H80006   8.254   3.112   8.183 -1.7354  0.1033 -0.7914
  593MOL0     H80007   8.564   2.977   8.183 -0.0437  1.5508  0.2553
  593MOL0     H80008   8.586   2.962   8.015 -0.4798 -1.5759 -0.4127
  593MOL0     H80009   8.462   3.194   7.997 -1.1781 -1.1859  0.5159
  593MOL0     H80010   8.472   3.213   8.172  0.0881 -1.2981  0.3868
  593MOL0     H80011   8.700   3.185   8.172  0.6709  1.5322  0.1718
  593MOL0     H80012   8.663   3.343   8.101  0.0072  0.1442  0.4792
  593MOL0     H80013   8.813   3.294   7.944  1.6512 -2.5955  1.0467
  593MOL0     H80014   8.668   3.224   7.875 -0.3542 -1.5271  0.0908
  593MOL0     H80015   8.831   2.922   8.183  2.0679 -2.8615 -0.7178
  593MOL0     H80016   9.056   2.907   8.302 -1.7389  1.2020  0.7561
  593MOL0     H80017   9.574   3.209   8.272  1.3565  1.2047  0.7775
  593MOL0     H80018   9.799   3.160   8.326 -1.3588  1.0496 -1.1702
  593MOL0     H80019  10.006   3.138   8.250 -0.3499 -0.0067  1.3742
  593MOL0     H80020  10.029   3.023   8.382 -0.0126  0.2844 -0.0547
  593MOL0     H80021  10.204   2.907   8.255 -0.0444  0.7128  3.0098
  593MOL0     H80022  10.176   3.005   8.113  3.0967 -0.2412  0.3469
  593MOL0     H80023  10.238   3.206   8.235 -0.0153 -0.2307 -1.4505
  593MOL0     H80024  10.285   3.110   8.375  1.0663 -0.8765 -0.0633
  593MOL0     H80025  10.407   3.060   8.104  1.8818  2.2863  0.0555
  593MOL0     H80026  10.457   2.994   8.262 -0.0575  0.6270  2.0111
  593MOL0     H80027  10.533   3.209   8.336  1.0008 -0.0090  0.3501
  593MOL0     H80028  10.438   3.297   8.217  2.4677 -0.1892 -4.9696
  593MOL0     H80029  10.671   3.118   8.154 -0.0688  0.4083  0.8247
  593MOL0     H80030  10.569   3.190   8.027  1.2691  2.7664 -0.6573
  593MOL0     H80031  10.655   3.397   8.201  0.9038 -0.2137 -0.0208
  593MOL0     H80032  10.700   3.381   8.031  0.7268 -0.7281  0.3042
  593MOL0     H80033  10.899   3.401   8.175  0.4439 -0.0136  1.0971
  593MOL0     H80034  10.846   3.279   8.273 -0.5596  5.1128  1.9223
  593MOL0     H80035   9.765   2.772   8.149  0.8111  0.2957 -0.1564
  593MOL0     H80036   9.530   2.802   8.127 -1.7976 -0.1147  2.2220
  593MOL0     H80037   9.239   3.158   8.012 -1.5515  0.3495 -2.3171
  593MOL0     H80038   9.033   3.184   7.894  0.8288  0.2923  0.0478
  593MOL0     H80039   7.042   2.947   7.861  2.5280 -0.8885 -0.4789
  593MOL0     H80040   6.812   2.884   7.815 -1.9680  0.2735 -1.6842
  593MOL0     H80041   6.524   2.715   7.588  0.9703  3.8799  2.3968
  593MOL0     H80042   6.324   2.593   7.557  0.8754 -0.4225 -0.1527
  593MOL0     H80043   6.076   2.694   7.200 -0.9845  2.2343 -0.1934
  593MOL0     H80044   5.996   2.790   7.331  0.8771 -0.0798  0.8053
  593MOL0     H80045   5.964   2.492   7.287  1.7213  0.2457 -0.8089
  593MOL0     H80046   5.876   2.604   7.183  1.6097 -0.9323 -1.3326
  593MOL0     H80047   5.749   2.690   7.366 -1.5519 -1.0647  0.3958
  593MOL0     H80048   5.860   2.642   7.485 -0.4493 -2.3089  1.6813
  593MOL0     H80049   5.690   2.435   7.325  0.5861 -0.3897 -0.1898
  593MOL0     H80050   5.811   2.408   7.451  1.8215  0.9046 -1.4322
  593MOL0     H80051   5.464   2.523   7.671  0.3744  0.9075 -0.1678
  593MOL0     H80052   6.211   2.882   7.248  0.9424  0.8139 -1.0810
  593MOL0     H80053   6.499   3.035   7.229 -0.1552  0.5663 -0.4789
  593MOL0     H80054   6.330   3.049   7.189 -0.1683 -0.0531  0.9763
  593MOL0     H80055   6.390   3.136   7.329 -2.0769 -0.9427  1.6572
  594MOL0     O80056  11.166   4.632   5.903 -0.2767  0.6305 -0.6433
  594MOL0     C80057  11.087   4.546   5.943 -0.7238  0.3147 -0.3684
  594MOL0     O80058  11.119   4.442   6.023  0.3419 -0.5574  0.0584
  594MOL0     C80059  11.240   4.452   6.084  0.1025  0.1620  0.3206
  594MOL0     C80060  11.279   4.553   6.185 -0.0625  0.1047 -0.5093
  594MOL0     C80061  11.406   4.542   6.243  0.1087  0.0845  0.6391
  594MOL0     C80062  11.503   4.452   6.198  0.5248  0.4411  0.6438
  594MOL0     O80063  11.633   4.443   6.240  0.6070  0.1354 -0.3590
  594MOL0     C80064  11.683   4.550   6.320 -0.9586 -0.2581 -0.0560
  594MOL0     C80065  11.829   4.527   6.327 -0.2792  0.3785 -0.8377
  594MOL0     C80066  11.912   4.606   6.431 -0.3212 -0.3569  0.3933
  594MOL0     C80067  12.057   4.555   6.418 -0.7957  0.4697 -0.0004
  594MOL0     C80068  12.152   4.653   6.499  0.0149  1.1772  0.2948
  594MOL0     C80069  12.302   4.612   6.492 -0.3254  0.1910 -0.2979
  594MOL0     C80070  12.377   4.664   6.608 -0.1634  0.2079 -0.8844
  594MOL0     C80071  12.500   4.740   6.560  0.1000  0.3641  0.1673
  594MOL0     N80072  12.588   4.788   6.669 -0.5111 -0.2303 -0.1060
  594MOL0     C80073  12.717   4.827   6.657 -0.1743  0.9752 -0.1388
  594MOL0     C80074  12.754   4.864   6.778  0.3629 -0.0630  0.0642
  594MOL0     C80075  12.897   4.882   6.812  0.0773 -0.8270  0.6110
  594MOL0     C80076  12.970   5.005   6.740  0.1953  0.3545  0.0154
  594MOL0     C80077  12.911   5.136   6.782  0.3916 -0.4386  0.9322
  594MOL0     C80078  12.954   5.158   6.930  0.3283  0.0830  0.3467
  594MOL0     O80079  13.080   5.108   6.956 -0.1568  0.0809  0.5235
  594MOL0     C80080  13.193   5.183   6.969  0.4951 -0.4310  0.3189
  594MOL0     C80081  13.201   5.323   6.950 -0.3021 -0.2873  0.1684
  594MOL0     C80082  13.318   5.395   6.981  0.7337 -0.4085  0.1002
  594MOL0     C80083  13.435   5.322   7.018 -0.1826  0.1829  0.6561
  594MOL0     C80084  13.558   5.407   7.041 -0.1943 -0.3918 -0.2815
  594MOL0     O80085  13.543   5.544   7.038  0.8128 -0.2408  0.4034
  594MOL0     C80086  13.649   5.616   7.072 -0.9434  0.0101 -0.0177
  594MOL0     C80087  13.760   5.614   6.985  0.0142 -0.3610 -0.4855
  594MOL0     C80088  13.869   5.690   7.014 -0.2510 -0.7978 -0.0709
  594MOL0     C80089  13.875   5.785   7.112  0.4899  0.1746  0.4682
  594MOL0     O80090  13.996   5.850   7.137 -0.1646 -0.7438 -0.7421
  594MOL0     C80091  13.988   5.988   7.185 -0.1405  0.8229  0.4980
  594MOL0     C80092  14.120   6.034   7.250  0.1139  0.5312 -0.1311
  594MOL0     C80093  14.246   6.018   7.157  0.3496 -0.1593  0.4283
  594MOL0     C80094  14.373   6.059   7.232  0.0516 -0.3870  1.1177
  594MOL0     C80095  14.497   6.047   7.153 -1.1256 -0.4292 -0.0238
  594MOL0     C80096  14.617   6.054   7.246  0.1389 -0.6178 -0.3323
  594MOL0     C80097  14.758   6.053   7.180  0.2940  0.2854 -0.0628
  594MOL0     C80098  14.866   6.030   7.283 -0.0483  0.4961  0.1795
  594MOL0    Cl80099  14.923   6.177   7.368 -0.2112  0.3164  0.2532
  594MOL0     C80100  13.765   5.785   7.196 -0.3392 -0.0274  0.8762
  594MOL0     C80101  13.650   5.692   7.190 -0.2320 -0.0607  0.0504
  594MOL0     O80102  13.656   5.352   7.090 -0.5582 -0.1577 -0.7774
  594MOL0     C80103  13.433   5.185   7.032  1.4379  0.6301 -0.9191
  594MOL0     C80104  13.313   5.118   7.002  0.5281  0.1500  0.1166
  594MOL0     N80105  12.647   4.845   6.862  0.3243  0.2888 -0.2379
  594MOL0     N80106  12.541   4.821   6.788  0.3574 -0.7070 -0.1135
  594MOL0     C80107  11.462   4.358   6.103  0.1229  0.0999  0.4734
  594MOL0     C80108  11.330   4.353   6.054 -0.6901 -0.2971 -0.2702
  594MOL0     C80109  10.952   4.559   5.893 -0.4944  0.5729 -0.9751
  594MOL0     C80110  10.849   4.495   5.971 -0.5112 -0.5501  0.4119
  594MOL0     C80111  10.720   4.485   5.924  0.0396 -1.1532  0.8249
  594MOL0     C80112  10.686   4.538   5.803 -0.2878 -0.6385  0.4967
  594MOL0     O80113  10.563   4.514   5.759  0.0087 -0.0956 -0.3573
  594MOL0     C80114  10.496   4.628   5.703 -0.1171  0.1924  0.3077
  594MOL0     C80115  10.451   4.725   5.819  0.5105  1.0079  0.0921
  594MOL0     C80116  10.313   4.684   5.883  0.4980 -1.0605  0.0650
  594MOL0     C80117  10.336   4.580   5.995 -0.5097 -0.9094 -0.1500
  594MOL0     C80118  10.418   4.643   6.100  0.4584 -0.5800 -0.7474
  594MOL0     C80119  10.487   4.682   6.194 -0.0276  0.1439  0.2967
  594MOL0     C80120  10.779   4.609   5.733  0.7463  0.2705 -0.2791
  594MOL0     C80121  10.915   4.614   5.767 -0.0665 -0.2132 -0.9221
  594MOL0     C80122  11.006   4.676   5.661 -0.2527 -0.1320  0.3760
  594MOL0     H80123  11.211   4.629   6.220  0.4271  2.2863 -3.8272
  594MOL0     H80124  11.437   4.613   6.319  2.3440 -0.2432  0.0986
  594MOL0     H80125  11.659   4.653   6.291  1.9099  0.5440  0.1526
  594MOL0     H80126  11.642   4.547   6.422  1.3206  2.8200  1.0808
  594MOL0     H80127  11.871   4.551   6.229  0.9238  2.2860  0.0754
  594MOL0     H80128  11.848   4.422   6.348  1.0206  0.2686 -2.3540
  594MOL0     H80129  11.877   4.585   6.532 -0.2409 -2.6165 -0.0087
  594MOL0     H80130  11.901   4.712   6.406  1.6762  0.2101  1.6926
  594MOL0     H80131  12.065   4.457   6.465  1.1704  1.6886  2.4945
  594MOL0     H80132  12.080   4.559   6.311  1.5058 -0.6912  0.3880
  594MOL0     H80133  12.151   4.755   6.461 -1.1139  1.1536  0.2259
  594MOL0     H80134  12.121   4.651   6.604  0.5239  2.1198  0.4710
  594MOL0     H80135  12.297   4.504   6.503  0.3606  0.3405  2.0232
  594MOL0     H80136  12.342   4.628   6.392 -2.1356  0.2104 -1.0581
  594MOL0     H80137  12.409   4.585   6.677  0.8306  0.6813 -0.7849
  594MOL0     H80138  12.318   4.733   6.670  1.4198  1.0521 -0.2429
  594MOL0     H80139  12.550   4.680   6.484 -1.0873 -0.2743 -0.1344
  594MOL0     H80140  12.463   4.831   6.512 -1.2873  0.3631  1.1571
  594MOL0     H80141  12.773   4.822   6.564 -1.3169  0.7286 -0.8402
  594MOL0     H80142  12.902   4.890   6.921 -2.0916 -1.4981  0.8032
  594MOL0     H80143  12.956   4.793   6.789 -1.5662 -2.0095  0.8697
  594MOL0     H80144  13.079   4.998   6.746  0.4514 -2.2772 -3.9221
  594MOL0     H80145  12.956   4.998   6.632  0.2865  0.8304 -0.0301
  594MOL0     H80146  12.802   5.138   6.771  0.3892 -1.8432  0.4551
  594MOL0     H80147  12.957   5.210   6.717 -0.8394 -0.1569  0.3640
  594MOL0     H80148  12.898   5.098   7.002  2.0922  2.2080  3.7156
  594MOL0     H80149  12.947   5.264   6.957 -3.8092 -0.6171  2.9476
  594MOL0     H80150  13.118   5.384   6.916 -0.7826  1.9450  4.5867
  594MOL0     H80151  13.309   5.502   6.963  1.0960 -0.3898  0.0052
  594MOL0     H80152  13.766   5.547   6.900 -1.1260 -0.7024 -0.3141
  594MOL0     H80153  13.959   5.688   6.953  0.2596 -3.8792  0.6607
  594MOL0     H80154  13.961   6.050   7.099 -1.9827 -2.6038 -1.6124
  594MOL0     H80155  13.910   5.997   7.260  0.5598  0.2690  1.3042
  594MOL0     H80156  14.104   6.137   7.285 -0.8115 -0.0435  1.2159
  594MOL0     H80157  14.143   5.977   7.340  2.1051  0.7801 -0.4409
  594MOL0     H80158  14.244   5.923   7.104  0.5933 -0.5836  1.1728
  594MOL0     H80159  14.229   6.091   7.077 -1.0644 -2.6446 -1.7013
  594MOL0     H80160  14.376   5.995   7.320  1.0621  1.3899  2.4368
  594MOL0     H80161  14.362   6.162   7.269 -0.9562 -0.4275  0.9636
  594MOL0     H80162  14.501   6.110   7.065 -2.6329  0.5350  0.5438
  594MOL0     H80163  14.502   5.942   7.123  1.9424 -1.0305  2.1064
  594MOL0     H80164  14.616   6.141   7.312 -3.8445 -0.3728 -0.4659
  594MOL0     H80165  14.613   5.967   7.312 -1.6826  1.7179  2.9448
  594MOL0     H80166  14.780   6.141   7.119  2.9005 -0.0150  0.3152
  594MOL0     H80167  14.756   5.969   7.110 -3.0867  2.1380 -2.4281
  594MOL0     H80168  14.835   5.957   7.358 -1.4081  0.7112 -0.1460
  594MOL0     H80169  14.957   5.997   7.233  0.6291  1.5782  0.6635
  594MOL0     H80170  13.768   5.841   7.289 -0.6029  0.1244  0.7918
  594MOL0     H80171  13.565   5.697   7.258 -1.7073 -0.3237 -1.6927
  594MOL0     H80172  13.509   5.115   7.064 -0.7011 -2.3592 -1.9977
  594MOL0     H80173  13.299   5.011   7.014 -1.4359  0.3273 -0.2725
  594MOL0     H80174  11.531   4.282   6.068 -1.9032 -1.3540 -0.6013
  594MOL0     H80175  11.293   4.272   5.991  0.4624  0.5443 -2.1345
  594MOL0     H80176  10.863   4.452   6.069  4.4521 -0.4350  0.0234
  594MOL0     H80177  10.640   4.448   5.989 -0.5261 -0.4128  0.5604
  594MOL0     H80178  10.407   4.596   5.647 -0.6207 -0.8509  1.6489
  594MOL0     H80179  10.558   4.691   5.639  1.7999  0.0922  2.0035
  594MOL0     H80180  10.442   4.826   5.779 -0.6618  1.2828  0.9835
  594MOL0     H80181  10.534   4.735   5.888 -0.5544  4.3950  1.0447
  594MOL0     H80182  10.255   4.636   5.804 -1.9588 -1.2426  1.8552
  594MOL0     H80183  10.263   4.774   5.920 -0.7266 -2.4466  2.0153
  594MOL0     H80184  10.240   4.549   6.036 -0.9465 -1.0673 -1.2532
  594MOL0     H80185  10.394   4.493   5.963  2.4103 -0.2483  2.7164
  594MOL0     H80186  10.544   4.723   6.275  0.7261  0.1830 -0.2375
  594MOL0     H80187  10.747   4.646   5.636 -2.2850 -1.8464 -0.2390
  594MOL0     H80188  11.086   4.732   5.710  0.6041 -1.7821  0.9438
  594MOL0     H80189  11.051   4.597   5.600  1.8535  3.0813 -2.6813
  594MOL0     H80190  10.946   4.735   5.592 -0.6382  2.0559  2.4562
  595MOL0     O80191   2.873   5.735   2.827 -0.0624 -0.6110  0.1107
  595MOL0     C80192   2.812   5.672   2.912  0.1660  0.1266 -0.0629
  595MOL0     O80193   2.874   5.581   2.997 -0.0448  0.1019 -0.0314
  595MOL0     C80194   3.012   5.556   2.990 -0.0965 -0.6472 -0.3519
  595MOL0     C80195   3.090   5.556   3.111  0.3648  0.6046 -0.0278
  595MOL0     C80196   3.223   5.520   3.104 -0.4109  0.1810 -0.3789
  595MOL0     C80197   3.289   5.493   2.984 -0.1311 -0.0545 -0.0342
  595MOL0     O80198   3.427   5.494   2.981 -0.0689  0.2444  0.0702
  595MOL0     C80199   3.494   5.374   2.937 -0.1250  0.0302  0.0497
  595MOL0     C80200   3.624   5.408   2.855  0.4620 -0.3688  0.4334
  595MOL0     C80201   3.698   5.286   2.818 -0.4617  0.8263 -0.0104
  595MOL0     C80202   3.823   5.317   2.734 -0.1034 -0.6673  0.3454
  595MOL0     C80203   3.910   5.211   2.663  0.0923 -0.0271  1.1774
  595MOL0     C80204   4.019   5.289   2.576  0.3770 -0.2796 -0.3932
  595MOL0     C80205   4.134   5.200   2.526  0.7452  0.1943  0.4093
  595MOL0     C80206   4.215   5.134   2.638  0.4124 -0.6601 -0.8447
  595MOL0     N80207   4.293   5.016   2.599  0.0757 -0.4731 -0.1154
  595MOL0     C80208   4.356   4.925   2.679  0.2431  0.1823  0.0571
  595MOL0     C80209   4.424   4.848   2.590 -0.6885 -0.2358  0.0127
  595MOL0     C80210   4.509   4.728   2.630 -0.3648 -0.5885  0.7581
  595MOL0     C80211   4.650   4.741   2.572 -0.8473  0.7736 -0.1609
  595MOL0     C80212   4.727   4.611   2.585  0.0350 -0.0959  0.3324
  595MOL0     C80213   4.760   4.570   2.735  0.9049 -0.4457  0.3826
  595MOL0     O80214   4.823   4.678   2.801 -0.7201 -0.4506 -0.4093
  595MOL0     C80215   4.957   4.703   2.815 -0.2997 -0.0927  0.3566
  595MOL0     C80216   5.060   4.602   2.806  0.1965 -0.2583  0.1065
  595MOL0     C80217   5.198   4.640   2.801  0.2963  0.2171  0.1587
  595MOL0     C80218   5.231   4.775   2.794  0.7719  0.2823  0.6356
  595MOL0     C80219   5.373   4.815   2.782  0.2972  0.7418  0.0381
  595MOL0     O80220   5.459   4.708   2.818 -0.1361  0.3541  0.0838
  595MOL0     C80221   5.589   4.747   2.806  0.9066 -0.0489  0.6807
  595MOL0     C80222   5.673   4.778   2.912 -0.8158  1.3576 -0.4216
  595MOL0     C80223   5.804   4.833   2.898  0.4800 -0.2378  0.7685
  595MOL0     C80224   5.854   4.855   2.764  0.1164 -0.6947 -0.3074
  595MOL0     O80225   5.968   4.927   2.753  0.3354 -0.2444  0.3206
  595MOL0     C80226   6.001   4.969   2.626 -0.1212  0.4642 -0.0945
  595MOL0     C80227   6.108   5.084   2.634  0.3437 -0.5540 -0.2236
  595MOL0     C80228   6.235   5.057   2.710 -0.1433  0.3177 -0.0216
  595MOL0     C80229   6.346   5.148   2.661 -0.3374  0.2955  0.0766
  595MOL0     C80230   6.485   5.127   2.724 -0.0439  0.3644 -0.3953
  595MOL0     C80231   6.572   5.246   2.684  0.8928 -0.6833 -0.0659
  595MOL0     C80232   6.718   5.223   2.710  0.5918 -0.1801 -0.3937
  595MOL0     C80233   6.776   5.100   2.639  0.4146  0.3507  0.0370
  595MOL0    Cl80234   6.731   5.099   2.460 -0.0065 -0.1023  0.3230
  595MOL0     C80235   5.775   4.819   2.657 -0.4046  0.1174  0.4057
  595MOL0     C80236   5.643   4.771   2.679  0.0071 -0.2187  0.5507
  595MOL0     O80237   5.400   4.936   2.765  0.0778  0.3608  0.2180
  595MOL0     C80238   5.132   4.883   2.797  0.1555  1.1415 -1.1402
  595MOL0     C80239   4.996   4.846   2.808 -0.1125 -0.3880  0.4176
  595MOL0     N80240   4.402   4.891   2.465  0.2924  0.1742  0.7492
  595MOL0     N80241   4.324   4.994   2.473  0.1040  0.1607  0.3115
  595MOL0     C80242   3.210   5.491   2.871  0.3051 -0.2152 -0.2738
  595MOL0     C80243   3.072   5.510   2.879  0.9562  0.4706  0.8114
  595MOL0     C80244   2.660   5.688   2.924  0.4114  0.2022 -0.4698
  595MOL0     C80245   2.596   5.604   3.019 -0.1096  0.7666  0.0467
  595MOL0     C80246   2.453   5.590   3.018  0.6020 -0.1986  0.7732
  595MOL0     C80247   2.378   5.683   2.945  0.4737  0.2681 -0.7142
  595MOL0     O80248   2.238   5.685   2.943  0.1336  0.5051  0.4603
  595MOL0     C80249   2.157   5.588   3.005  1.0040  0.2917 -0.3785
  595MOL0     C80250   2.078   5.642   3.125  0.0443  0.4273 -0.4277
  595MOL0     C80251   1.965   5.728   3.076  0.8621 -0.6424  0.0997
  595MOL0     C80252   1.833   5.675   3.136  0.6130  0.0757 -0.2724
  595MOL0     C80253   1.720   5.744   3.069 -0.2690  0.0761 -0.4422
  595MOL0     C80254   1.648   5.827   3.014  0.0739 -0.0146  0.6483
  595MOL0     C80255   2.440   5.776   2.869 -0.5350  0.2653  0.2618
  595MOL0     C80256   2.577   5.782   2.852 -1.2234  0.3689 -0.0168
  595MOL0     C80257   2.637   5.884   2.769 -0.3741 -0.9248 -0.7033
  595MOL0     H80258   3.039   5.577   3.205  2.0886  0.3024  1.0079
  595MOL0     H80259   3.276   5.527   3.198  0.2956 -1.9183 -0.5734
  595MOL0     H80260   3.521   5.315   3.025  0.2123  0.6482  0.3665
  595MOL0     H80261   3.431   5.321   2.865  1.8559 -1.1677 -0.8879
  595MOL0     H80262   3.688   5.478   2.909 -0.8635  0.0972  1.4705
  595MOL0     H80263   3.600   5.467   2.766  0.7660  3.1699  2.4825
  595MOL0     H80264   3.633   5.223   2.757 -0.7632 -0.5212  1.6134
  595MOL0     H80265   3.728   5.242   2.914 -0.8801 -0.1583 -0.3259
  595MOL0     H80266   3.787   5.386   2.656  0.1799  0.0170  0.8081
  595MOL0     H80267   3.897   5.371   2.794 -0.5118  0.8188 -0.4097
  595MOL0     H80268   3.952   5.142   2.736 -2.5919 -2.1916  0.8182
  595MOL0     H80269   3.851   5.156   2.589  1.6885 -2.4999  1.6214
  595MOL0     H80270   3.965   5.335   2.492 -2.0553 -0.6563  0.8802
  595MOL0     H80271   4.057   5.366   2.644 -1.1860 -1.3335  1.7675
  595MOL0     H80272   4.204   5.256   2.463  0.9873  0.6295  1.0596
  595MOL0     H80273   4.085   5.121   2.468 -0.3467  1.2714 -0.1656
  595MOL0     H80274   4.293   5.204   2.667 -0.7703  0.9944 -1.5458
  595MOL0     H80275   4.155   5.109   2.727  1.1904  1.6028  0.4001
  595MOL0     H80276   4.345   4.911   2.786  0.6537 -1.5947 -0.1094
  595MOL0     H80277   4.509   4.710   2.738  0.6670 -1.1509  0.6833
  595MOL0     H80278   4.455   4.645   2.582 -3.1887  1.8304 -0.5289
  595MOL0     H80279   4.644   4.761   2.465  0.4771 -1.5255 -0.7274
  595MOL0     H80280   4.707   4.817   2.625  1.7255 -1.2333  0.1283
  595MOL0     H80281   4.822   4.615   2.530 -0.9193  0.4688 -1.3620
  595MOL0     H80282   4.657   4.538   2.544 -0.2097  0.0123  0.5553
  595MOL0     H80283   4.817   4.477   2.742 -0.3409 -1.5820 -2.8013
  595MOL0     H80284   4.663   4.547   2.780  0.4855  0.9401  0.2412
  595MOL0     H80285   5.038   4.496   2.819  2.3045 -0.7136  0.3446
  595MOL0     H80286   5.279   4.568   2.799  0.2410  0.1607 -0.0897
  595MOL0     H80287   5.635   4.766   3.013 -1.1798  1.3254 -0.5597
  595MOL0     H80288   5.862   4.863   2.984  1.3925 -0.3409  0.2029
  595MOL0     H80289   6.033   4.893   2.554 -2.6853 -0.4248 -0.3912
  595MOL0     H80290   5.914   5.015   2.578 -2.9142 -4.8414 -0.8678
  595MOL0     H80291   6.130   5.120   2.534 -1.5967 -2.1367 -1.2940
  595MOL0     H80292   6.055   5.167   2.681  1.6534 -0.7658  1.7695
  595MOL0     H80293   6.211   5.067   2.816 -0.0662 -0.4990  0.0736
  595MOL0     H80294   6.261   4.952   2.698  0.7280  0.3630  1.3123
  595MOL0     H80295   6.310   5.251   2.670 -0.9551  0.2106 -1.1650
  595MOL0     H80296   6.351   5.133   2.553 -0.5211  0.6250  0.0219
  595MOL0     H80297   6.522   5.027   2.696 -0.7098 -0.6913  2.1875
  595MOL0     H80298   6.467   5.115   2.831  0.9222 -1.6338 -0.4038
  595MOL0     H80299   6.551   5.275   2.580 -2.4541  1.3051  0.9974
  595MOL0     H80300   6.543   5.328   2.750  0.4456 -2.6263  2.2740
  595MOL0     H80301   6.710   5.198   2.817  1.4720  0.1300 -0.2489
  595MOL0     H80302   6.774   5.314   2.690 -1.5907  2.0803  2.7552
  595MOL0     H80303   6.884   5.091   2.650  0.2740  1.3021  2.8876
  595MOL0     H80304   6.726   5.016   2.689  1.1487  0.1923  0.5194
  595MOL0     H80305   5.802   4.848   2.556 -1.3708  0.1989  0.1628
  595MOL0     H80306   5.582   4.749   2.592  0.6753 -0.5272  0.1508
  595MOL0     H80307   5.165   4.985   2.783 -1.0411  1.7797  0.3955
  595MOL0     H80308   4.920   4.923   2.800  3.3851  3.6501  2.3414
  595MOL0     H80309   3.249   5.485   2.770 -1.9319  0.8479 -1.2696
  595MOL0     H80310   2.999   5.503   2.799 -0.3954  1.3797  1.9152
  595MOL0     H80311   2.641   5.525   3.079 -0.3135 -0.7410 -1.7036
  595MOL0     H80312   2.401   5.515   3.077 -0.0492 -1.8072 -1.6934
  595MOL0     H80313   2.206   5.499   3.044  0.5916 -0.1349 -0.8222
  595MOL0     H80314   2.088   5.557   2.926 -1.0494 -1.4511  1.9505
  595MOL0     H80315   2.144   5.703   3.186 -0.5588  0.3269  0.3370
  595MOL0     H80316   2.036   5.563   3.188  1.3594  0.5707  0.6644
  595MOL0     H80317   1.956   5.716   2.967  0.8742  0.9489 -0.0989
  595MOL0     H80318   1.987   5.830   3.110  2.7594 -1.2751  0.9095
  595MOL0     H80319   1.822   5.567   3.125 -0.6166  0.2295 -0.7227
  595MOL0     H80320   1.825   5.697   3.243 -0.4824  0.4777 -0.4289
  595MOL0     H80321   1.587   5.888   2.950 -0.0267 -0.5662  0.2181
  595MOL0     H80322   2.383   5.838   2.800 -0.2424  2.0067  1.5333
  595MOL0     H80323   2.714   5.930   2.831 -2.7201  1.5813  0.5947
  595MOL0     H80324   2.679   5.829   2.685 -1.1846 -2.6585 -0.0333
  595MOL0     H80325   2.568   5.961   2.733  0.8362 -0.3824 -1.9486
  596MOL0     O80326   6.035   9.302   5.466  1.0278 -0.0075 -0.4891
  596MOL0     C80327   6.066   9.313   5.347  0.8414  0.4703 -0.1527
  596MOL0     O80328   6.162   9.401   5.305  0.2370 -0.4488  0.2539
  596MOL0     C80329   6.226   9.477   5.397  0.6532 -0.6492 -0.0727
  596MOL0     C80330   6.150   9.565   5.479 -0.9398 -0.5193  0.2052
  596MOL0     C80331   6.227   9.646   5.573 -0.7810  0.3090  1.5896
  596MOL0     C80332   6.370   9.642   5.580 -0.1234 -1.0067  0.2658
  596MOL0     O80333   6.458   9.687   5.670 -0.0738  0.1439 -0.1067
  596MOL0     C80334   6.405   9.793   5.758  0.3102  0.0706 -0.0678
  596MOL0     C80335   6.496   9.847   5.863 -0.4439  0.0459 -0.0321
  596MOL0     C80336   6.437   9.967   5.932  0.0422  0.6935  0.1593
  596MOL0     C80337   6.539  10.021   6.024 -0.2638 -0.4005  0.3093
  596MOL0     C80338   6.490  10.168   6.065  0.4272  0.5756 -0.1909
  596MOL0     C80339   6.597  10.224   6.159  0.4005  0.3097  0.2918
  596MOL0     C80340   6.591  10.167   6.303 -0.5366 -0.8139  0.6485
  596MOL0     C80341   6.678  10.257   6.390  0.0010 -0.5748  0.2641
  596MOL0     N80342   6.823  10.264   6.367  0.0869  0.0145 -0.4648
  596MOL0     C80343   6.916  10.214   6.453 -0.0777  0.1912  0.2701
  596MOL0     C80344   7.035  10.253   6.402 -0.3633 -0.4282  0.4247
  596MOL0     C80345   7.173  10.195   6.435 -0.3987 -0.3219  0.6132
  596MOL0     C80346   7.283  10.247   6.347 -1.1120 -0.2723 -0.4830
  596MOL0     C80347   7.405  10.168   6.371  0.0924  0.3299 -0.4517
  596MOL0     C80348   7.530  10.210   6.286  0.4720  0.5874 -0.5724
  596MOL0     O80349   7.635  10.131   6.347 -0.8575  0.3426  0.5098
  596MOL0     C80350   7.762  10.152   6.299 -0.0719 -0.4373  0.7111
  596MOL0     C80351   7.835  10.037   6.269  0.8836 -0.4854  0.8374
  596MOL0     C80352   7.963  10.040   6.221  0.7235  0.0896  0.5081
  596MOL0     C80353   8.030  10.158   6.201  0.3158  0.2316 -0.0041
  596MOL0     C80354   8.164  10.171   6.143  0.2767  0.3721 -0.4581
  596MOL0     O80355   8.245  10.256   6.204  0.6370 -0.0697  0.0207
  596MOL0     C80356   8.367  10.270   6.151  0.2131 -0.5548  0.3706
  596MOL0     C80357   8.473  10.179   6.176 -0.4913 -0.7785  0.5098
  596MOL0     C80358   8.596  10.192   6.119  0.3949  0.0777 -0.2540
  596MOL0     C80359   8.612  10.291   6.026 -0.0127 -0.1288 -0.5021
  596MOL0     O80360   8.738  10.297   5.973 -0.6229 -0.9369  0.2590
  596MOL0     C80361   8.762  10.383   5.865  0.7689 -0.0933 -0.1381
  596MOL0     C80362   8.904  10.367   5.802 -0.1032  0.4417  0.6912
  596MOL0     C80363   9.003  10.474   5.864  0.2566  0.0066  0.4902
  596MOL0     C80364   9.148  10.439   5.815 -0.4137  0.2952  0.4567
  596MOL0     C80365   9.245  10.537   5.887 -0.1520 -0.0901 -0.0425
  596MOL0     C80366   9.388  10.494   5.855 -0.3936 -0.7258 -0.6318
  596MOL0     C80367   9.483  10.563   5.952  0.4729  0.1723  0.0396
  596MOL0     C80368   9.627  10.520   5.940 -0.3085 -0.1726 -0.0392
  596MOL0    Cl80369   9.718  10.591   6.081  0.1791 -0.0253  0.0723
  596MOL0     C80370   8.512  10.384   5.996 -0.0817 -0.7450  0.5861
  596MOL0     C80371   8.392  10.380   6.070 -0.9361 -0.6364 -0.1647
  596MOL0     O80372   8.198  10.091   6.063 -0.4596 -0.2231  0.7132
  596MOL0     C80373   7.966  10.275   6.231 -0.0271  0.2469 -0.1851
  596MOL0     C80374   7.827  10.273   6.274  0.0563 -0.2643  0.0753
  596MOL0     N80375   7.019  10.345   6.300  0.9574  0.7616 -0.6252
  596MOL0     N80376   6.889  10.347   6.276  0.3798 -0.0986  0.3996
  596MOL0     C80377   6.436   9.562   5.488  0.3748  0.1979 -1.3362
  596MOL0     C80378   6.366   9.475   5.408  0.4873 -0.4841 -0.0863
  596MOL0     C80379   5.981   9.243   5.247  0.3237 -0.2295  0.2470
  596MOL0     C80380   5.842   9.243   5.270  0.2252 -0.4231  0.0562
  596MOL0     C80381   5.754   9.183   5.180 -0.4881  0.0493 -0.6539
  596MOL0     C80382   5.796   9.126   5.065 -0.1342  0.5978 -0.9452
  596MOL0     O80383   5.706   9.063   4.982  0.2182 -0.4194 -0.1474
  596MOL0     C80384   5.636   9.148   4.887  0.1638 -0.1225  0.4412
  596MOL0     C80385   5.507   9.205   4.943  0.8437  0.2457 -0.5566
  596MOL0     C80386   5.397   9.097   4.984  0.3839 -0.1673  0.1880
  596MOL0     C80387   5.265   9.158   5.020 -0.0646 -0.7182 -0.0102
  596MOL0     C80388   5.243   9.185   5.166  0.2151  0.8307  0.9622
  596MOL0     C80389   5.232   9.204   5.283 -0.2741  0.2671  0.8165
  596MOL0     C80390   5.937   9.124   5.041 -0.8724  0.0187 -0.2919
  596MOL0     C80391   6.032   9.177   5.125  1.4599  1.0415 -0.8916
  596MOL0     C80392   6.176   9.183   5.085 -0.3399 -1.0597  0.4307
  596MOL0     H80393   6.044   9.577   5.457 -1.0372  0.2550  1.0472
  596MOL0     H80394   6.172   9.712   5.640 -1.7097 -2.3822  3.6787
  596MOL0     H80395   6.379   9.876   5.690  1.2642 -0.0152 -0.5531
  596MOL0     H80396   6.323   9.749   5.815  0.7406  0.2674  0.7158
  596MOL0     H80397   6.595   9.870   5.822  0.3683  1.8194  2.6098
  596MOL0     H80398   6.525   9.774   5.939  4.0152  2.3482  0.8493
  596MOL0     H80399   6.352   9.929   5.990  0.3728 -0.9153 -0.3771
  596MOL0     H80400   6.400  10.043   5.862 -0.3410 -0.0283 -0.4375
  596MOL0     H80401   6.562   9.951   6.106 -0.3254 -2.6480 -1.4994
  596MOL0     H80402   6.635  10.025   5.972 -0.9684 -1.8047 -1.1948
  596MOL0     H80403   6.482  10.224   5.972  0.7872 -1.8441 -1.7833
  596MOL0     H80404   6.392  10.157   6.112 -0.1040  2.1185 -0.9173
  596MOL0     H80405   6.698  10.219   6.116  0.2000 -0.0130 -0.1555
  596MOL0     H80406   6.576  10.331   6.157 -0.6005  0.1659  1.7854
  596MOL0     H80407   6.633  10.066   6.296 -1.1111 -1.1034  1.2263
  596MOL0     H80408   6.486  10.158   6.335 -0.6012  0.0335  0.6884
  596MOL0     H80409   6.636  10.358   6.391 -1.4394 -1.1527  0.8871
  596MOL0     H80410   6.667  10.237   6.497  0.9977  2.6465  1.0900
  596MOL0     H80411   6.902  10.151   6.540  1.4205 -0.1679  0.2883
  596MOL0     H80412   7.183  10.223   6.540 -2.9351 -2.8914  1.6720
  596MOL0     H80413   7.176  10.086   6.426 -2.1852 -0.3320 -0.2669
  596MOL0     H80414   7.257  10.227   6.242 -0.9766 -1.1984 -0.3517
  596MOL0     H80415   7.304  10.352   6.369 -0.3927 -0.0535 -2.0992
  596MOL0     H80416   7.383  10.063   6.350 -3.9412  1.0562 -0.5894
  596MOL0     H80417   7.426  10.174   6.479 -1.5943 -1.1335  0.0209
  596MOL0     H80418   7.557  10.316   6.290  1.9938  0.2879 -1.8956
  596MOL0     H80419   7.522  10.178   6.182  3.3986  3.1414 -1.7169
  596MOL0     H80420   7.788   9.940   6.281  2.7036 -1.5217  0.0343
  596MOL0     H80421   8.010   9.947   6.193  1.8964  0.7053  0.3491
  596MOL0     H80422   8.443  10.088   6.228 -0.6786 -1.9315 -1.5138
  596MOL0     H80423   8.683  10.133   6.143  0.1225  0.3308  1.4797
  596MOL0     H80424   8.692  10.378   5.781  2.0768  2.7226 -1.5181
  596MOL0     H80425   8.755  10.486   5.899  0.3400 -0.4522  0.8811
  596MOL0     H80426   8.934  10.265   5.826 -0.8886 -0.1501 -0.7571
  596MOL0     H80427   8.908  10.391   5.695  2.8434  1.1816  0.8848
  596MOL0     H80428   8.982  10.575   5.828 -0.6371 -0.7803 -1.3464
  596MOL0     H80429   8.999  10.461   5.972 -2.1642 -2.7531  0.1916
  596MOL0     H80430   9.149  10.459   5.707  0.3158  2.2874  0.7842
  596MOL0     H80431   9.177  10.336   5.838 -0.4431  0.6834  2.3610
  596MOL0     H80432   9.229  10.535   5.995 -0.5799  3.0816  0.0566
  596MOL0     H80433   9.220  10.636   5.846 -2.2164 -0.3996  0.3681
  596MOL0     H80434   9.387  10.385   5.855  2.0458 -0.8173 -2.6025
  596MOL0     H80435   9.413  10.530   5.755 -4.4239 -0.6725 -1.8023
  596MOL0     H80436   9.451  10.529   6.051  0.5352  0.7041  0.2505
  596MOL0     H80437   9.478  10.672   5.942  1.1472  0.0488 -2.1553
  596MOL0     H80438   9.645  10.412   5.954  5.0940  0.4370  0.1402
  596MOL0     H80439   9.662  10.541   5.839 -0.9001  1.5545  0.0995
  596MOL0     H80440   8.537  10.461   5.923  2.0020 -1.7515  0.1544
  596MOL0     H80441   8.313  10.451   6.047 -2.3645 -2.4857 -1.3379
  596MOL0     H80442   8.014  10.372   6.218  1.6144 -0.1756  2.1180
  596MOL0     H80443   7.764  10.362   6.273 -3.1761 -2.4006 -0.5841
  596MOL0     H80444   6.544   9.555   5.484  0.3419 -0.0769 -1.7746
  596MOL0     H80445   6.428   9.405   5.353 -0.4403 -0.5253 -1.0995
  596MOL0     H80446   5.805   9.296   5.357 -0.6781  1.7126 -1.5404
  596MOL0     H80447   5.649   9.181   5.208 -0.8806  2.3841 -1.7515
  596MOL0     H80448   5.603   9.091   4.799  0.0356  1.3298 -0.4776
  596MOL0     H80449   5.697   9.230   4.848  2.7435 -1.5393  1.2847
  596MOL0     H80450   5.465   9.264   4.861  1.3298 -2.1069 -2.6061
  596MOL0     H80451   5.529   9.275   5.024 -0.0068  1.1206 -1.0713
  596MOL0     H80452   5.437   9.052   5.075  1.9115  3.2051  1.3725
  596MOL0     H80453   5.377   9.032   4.899 -0.3130 -1.0285  0.9887
  596MOL0     H80454   5.254   9.247   4.958  1.4467  0.6334  1.5642
  596MOL0     H80455   5.189   9.084   4.993 -0.0289 -1.6303  2.1992
  596MOL0     H80456   5.220   9.216   5.389  1.4063 -0.8928  1.1714
  596MOL0     H80457   5.969   9.078   4.948 -0.0095  0.6847 -0.3250
  596MOL0     H80458   6.237   9.204   5.174 -1.7706  2.5883  0.7234
  596MOL0     H80459   6.210   9.101   5.022 -1.2128 -0.4244 -0.9170
  596MOL0     H80460   6.183   9.272   5.022 -0.3715  0.1174  2.0194
  597MOL0     O80461   1.541   5.700   2.168 -0.7036  0.2657 -0.4536
  597MOL0     C80462   1.533   5.587   2.123  0.3425  0.3983 -0.1679
  597MOL0     O80463   1.641   5.506   2.103 -0.2444 -0.5249  0.2089
  597MOL0     C80464   1.762   5.565   2.089 -0.4605 -0.3592 -0.2231
  597MOL0     C80465   1.789   5.670   1.987 -0.1839  0.4414 -0.0378
  597MOL0     C80466   1.920   5.714   1.966  0.2585  0.6192  0.0653
  597MOL0     C80467   2.024   5.658   2.041  0.1773 -0.4215  0.0096
  597MOL0     O80468   2.147   5.699   2.006 -0.3012  0.6942  0.5002
  597MOL0     C80469   2.253   5.692   2.101 -0.5808 -0.1077 -0.2557
  597MOL0     C80470   2.366   5.797   2.080 -0.1151  1.3402  0.8659
  597MOL0     C80471   2.455   5.797   2.198 -0.8557 -0.2079  0.4557
  597MOL0     C80472   2.558   5.907   2.189 -0.3280 -0.1383  0.1653
  597MOL0     C80473   2.643   5.904   2.314  0.5803  0.1721 -0.3250
  597MOL0     C80474   2.756   6.007   2.310 -0.5854 -0.0329 -0.2839
  597MOL0     C80475   2.867   5.966   2.411  0.1279 -0.4036  0.3648
  597MOL0     C80476   2.992   6.060   2.395  0.0370  0.8767  0.0388
  597MOL0     N80477   3.079   6.022   2.276  0.4702 -0.2620 -0.6292
  597MOL0     C80478   3.119   5.901   2.221 -0.2297  0.1351 -0.1353
  597MOL0     C80479   3.198   5.938   2.119  0.4296  0.6361 -0.6084
  597MOL0     C80480   3.269   5.855   2.020 -0.2386  0.1101 -0.2733
  597MOL0     C80481   3.381   5.764   2.076  0.0787 -0.1706 -0.0717
  597MOL0     C80482   3.428   5.677   1.954  0.2001 -0.0096  0.3877
  597MOL0     C80483   3.550   5.589   1.968  0.3240 -0.2331  0.3576
  597MOL0     O80484   3.670   5.670   1.995 -0.5771  0.2424  0.3607
  597MOL0     C80485   3.789   5.595   2.014  0.1569  0.5616  0.3821
  597MOL0     C80486   3.827   5.500   1.914 -0.0635  0.6764  0.3359
  597MOL0     C80487   3.946   5.431   1.923  0.9336  0.0348 -0.1313
  597MOL0     C80488   4.038   5.470   2.026  0.1250  0.1030 -0.4461
  597MOL0     C80489   4.170   5.400   2.044  0.5034 -0.2683  0.7345
  597MOL0     O80490   4.184   5.289   1.966  0.3611  0.2625 -0.0430
  597MOL0     C80491   4.300   5.206   1.986 -0.5164 -0.0473 -0.2214
  597MOL0     C80492   4.339   5.177   2.115 -0.3962  0.3561 -0.3145
  597MOL0     C80493   4.450   5.099   2.139  0.2579 -0.2903 -0.1139
  597MOL0     C80494   4.531   5.048   2.034  0.5157 -0.7853 -0.2610
  597MOL0     O80495   4.636   4.965   2.057 -0.4078  0.3830  0.4980
  597MOL0     C80496   4.645   4.875   2.165  0.4098 -0.5235  0.1110
  597MOL0     C80497   4.538   4.766   2.174 -0.2941 -0.8546 -0.1015
  597MOL0     C80498   4.545   4.665   2.064 -0.1646  0.5091 -0.5283
  597MOL0     C80499   4.570   4.528   2.129 -0.6287  1.0776 -0.1576
  597MOL0     C80500   4.589   4.424   2.026  0.6734  0.7161 -0.1668
  597MOL0     C80501   4.458   4.354   1.980  0.3858  0.0284 -0.3049
  597MOL0     C80502   4.413   4.408   1.842 -0.3624 -0.4733  0.2218
  597MOL0     C80503   4.322   4.315   1.763 -0.6544 -0.8211 -0.6482
  597MOL0    Cl80504   4.177   4.292   1.863 -0.3462  0.0894 -0.0651
  597MOL0     C80505   4.497   5.092   1.906 -0.2845  0.4291  0.5338
  597MOL0     C80506   4.385   5.160   1.889  0.4283  0.9262 -0.3170
  597MOL0     O80507   4.241   5.445   2.132 -0.5480  0.4211 -0.4213
  597MOL0     C80508   4.013   5.575   2.116  0.5047  0.3575 -0.3663
  597MOL0     C80509   3.881   5.631   2.106  0.2079 -0.1034 -0.6946
  597MOL0     N80510   3.201   6.075   2.115 -0.2800  0.4916 -0.9930
  597MOL0     N80511   3.136   6.123   2.214  0.5989 -0.4468  0.0979
  597MOL0     C80512   1.998   5.561   2.142 -0.6001 -0.9869  1.0269
  597MOL0     C80513   1.868   5.518   2.164  0.4891 -0.5093 -0.2629
  597MOL0     C80514   1.407   5.535   2.088  0.0222 -0.3193 -0.0208
  597MOL0     C80515   1.400   5.441   1.977  0.2477  0.6943 -0.5876
  597MOL0     C80516   1.281   5.368   1.956 -0.1885  0.0060 -0.5388
  597MOL0     C80517   1.160   5.401   2.029 -0.9387 -0.9680 -0.6282
  597MOL0     O80518   1.042   5.328   2.020  0.4874  0.3343  0.2954
  597MOL0     C80519   0.998   5.284   1.896  0.0073  0.3788  0.3257
  597MOL0     C80520   0.860   5.224   1.892  1.0234  0.3527  0.1468
  597MOL0     C80521   0.763   5.335   1.926  0.2876  0.1109 -0.4339
  597MOL0     C80522   0.620   5.289   1.962  0.7041 -0.7301 -0.1203
  597MOL0     C80523   0.525   5.399   1.957  0.3403 -0.6682 -0.1452
  597MOL0     C80524   0.454   5.495   1.962  0.3936  0.0928 -0.3755
  597MOL0     C80525   1.169   5.498   2.127  0.8153  0.1207 -0.7002
  597MOL0     C80526   1.291   5.563   2.164  0.2989 -0.2122 -0.0314
  597MOL0     C80527   1.285   5.654   2.282 -0.5852  0.0108  0.7135
  597MOL0     H80528   1.708   5.714   1.930  0.6523  1.7615 -0.2465
  597MOL0     H80529   1.944   5.795   1.897  0.3714 -0.5758 -1.3615
  597MOL0     H80530   2.223   5.709   2.205  1.6499 -0.8759  0.5837
  597MOL0     H80531   2.304   5.595   2.095 -0.8509 -0.4114  1.6967
  597MOL0     H80532   2.319   5.895   2.069 -2.0333  0.6107  2.0954
  597MOL0     H80533   2.427   5.763   1.996 -1.1043 -4.5300  2.0532
  597MOL0     H80534   2.503   5.699   2.208 -1.0331 -0.1932  1.5768
  597MOL0     H80535   2.404   5.812   2.293  0.4456 -2.6715  1.6518
  597MOL0     H80536   2.615   5.896   2.096 -0.3321  0.9023  0.0290
  597MOL0     H80537   2.501   6.000   2.177 -2.8949 -1.2379  2.6280
  597MOL0     H80538   2.579   5.937   2.397  2.5459  2.2534  0.4700
  597MOL0     H80539   2.685   5.806   2.338  3.8076  1.0356 -1.8851
  597MOL0     H80540   2.787   6.017   2.206 -1.4684  5.1347 -0.3037
  597MOL0     H80541   2.720   6.108   2.333  1.5644  0.7361 -0.0659
  597MOL0     H80542   2.901   5.866   2.386 -0.3320 -0.4954  0.0914
  597MOL0     H80543   2.830   5.978   2.513  2.2131 -1.8580  1.3666
  597MOL0     H80544   2.955   6.161   2.376  0.8314  0.9423 -1.3918
  597MOL0     H80545   3.063   6.050   2.477  1.0780 -0.4398 -0.9644
  597MOL0     H80546   3.090   5.800   2.250 -0.6674  0.2035 -0.3243
  597MOL0     H80547   3.195   5.786   1.978 -1.9253  0.5069  1.8475
  597MOL0     H80548   3.300   5.923   1.941 -1.6672  0.8789 -0.2103
  597MOL0     H80549   3.466   5.821   2.114  0.8790 -0.9668 -0.6059
  597MOL0     H80550   3.345   5.697   2.154 -0.7631 -2.9007 -2.5909
  597MOL0     H80551   3.432   5.743   1.867 -3.0505  0.0685  0.1893
  597MOL0     H80552   3.343   5.617   1.923 -2.0775  0.9198  4.1227
  597MOL0     H80553   3.558   5.541   1.870 -0.5874 -0.5427  0.4305
  597MOL0     H80554   3.522   5.507   2.034 -0.7702  0.2518  0.5199
  597MOL0     H80555   3.759   5.478   1.832 -0.4137  2.2639  0.1676
  597MOL0     H80556   3.966   5.352   1.851 -0.4177 -0.2781 -0.1876
  597MOL0     H80557   4.287   5.214   2.203  2.0405 -0.8339  1.7581
  597MOL0     H80558   4.469   5.078   2.244  0.7903  1.1057  0.0846
  597MOL0     H80559   4.739   4.820   2.156  0.7857 -0.2462  1.8475
  597MOL0     H80560   4.651   4.936   2.256  1.5673 -0.6792  0.1512
  597MOL0     H80561   4.546   4.715   2.270  1.9278 -1.3261 -0.4810
  597MOL0     H80562   4.434   4.798   2.177 -0.1357 -0.3446  0.0895
  597MOL0     H80563   4.451   4.656   2.010 -0.0565  0.4801 -0.7123
  597MOL0     H80564   4.631   4.692   2.002  2.1914  0.8441  2.5939
  597MOL0     H80565   4.494   4.509   2.205 -0.7575 -0.4016 -0.6350
  597MOL0     H80566   4.659   4.539   2.191 -0.5248  1.4807 -0.3712
  597MOL0     H80567   4.657   4.343   2.054  0.6299  0.8078  0.2056
  597MOL0     H80568   4.638   4.471   1.941 -1.1118  2.9942 -0.0209
  597MOL0     H80569   4.488   4.249   1.968 -0.4792 -0.0941 -1.6819
  597MOL0     H80570   4.384   4.357   2.060  1.2816  1.7470  0.5166
  597MOL0     H80571   4.495   4.440   1.777 -1.0952  2.1373  0.4750
  597MOL0     H80572   4.366   4.505   1.862 -0.1512 -0.8175  2.7311
  597MOL0     H80573   4.299   4.345   1.661 -0.2363 -0.5195 -0.6555
  597MOL0     H80574   4.378   4.221   1.759  0.4766 -0.1975  0.0695
  597MOL0     H80575   4.566   5.069   1.825 -0.2330 -0.9294  0.9380
  597MOL0     H80576   4.359   5.198   1.790  1.1235  0.8430 -0.5346
  597MOL0     H80577   4.086   5.615   2.186  3.0925  0.8257 -3.1143
  597MOL0     H80578   3.860   5.725   2.155  1.3860 -0.0309 -0.2986
  597MOL0     H80579   2.073   5.510   2.202  0.1685 -0.2330  0.7346
  597MOL0     H80580   1.851   5.458   2.252  2.2587  2.2010  2.1022
  597MOL0     H80581   1.487   5.408   1.920 -1.1849 -0.9221 -1.9490
  597MOL0     H80582   1.277   5.282   1.890 -1.3793 -1.2403  1.0754
  597MOL0     H80583   1.074   5.211   1.868 -1.6787 -1.3760  0.1050
  597MOL0     H80584   1.007   5.370   1.830  0.9758 -0.1507 -0.2426
  597MOL0     H80585   0.851   5.149   1.972 -1.0814 -1.7138 -1.8654
  597MOL0     H80586   0.840   5.187   1.791 -2.3858 -1.5431  1.3460
  597MOL0     H80587   0.750   5.406   1.844  0.5702  1.1979  0.4372
  597MOL0     H80588   0.798   5.404   2.003  1.6770  1.9105 -2.5556
  597MOL0     H80589   0.588   5.206   1.897 -1.7460  1.6299 -2.1730
  597MOL0     H80590   0.609   5.246   2.062 -2.7402 -1.6223 -0.7438
  597MOL0     H80591   0.388   5.579   1.972 -0.4973 -0.6401  0.1539
  597MOL0     H80592   1.071   5.505   2.175  0.7443 -0.1015 -0.8123
  597MOL0     H80593   1.300   5.755   2.241  1.6716 -1.7698 -3.5164
  597MOL0     H80594   1.186   5.665   2.327 -0.6002  1.7231  0.3567
  597MOL0     H80595   1.361   5.639   2.358 -1.1719  2.3778  1.8529
  598MOL0     O80596  10.475   5.702   1.011 -0.4205 -0.3868  0.6290
  598MOL0     C80597  10.421   5.603   0.959 -0.1840  0.3953  0.0240
  598MOL0     O80598  10.477   5.484   0.930  0.0550  0.2928 -0.5591
  598MOL0     C80599  10.606   5.466   0.971 -0.1170  0.6626 -0.6355
  598MOL0     C80600  10.706   5.517   0.904 -0.3365 -0.0631  0.2642
  598MOL0     C80601  10.836   5.468   0.927 -0.8521 -0.0667 -1.5852
  598MOL0     C80602  10.865   5.383   1.039  0.0756  0.2047  0.4311
  598MOL0     O80603  10.995   5.360   1.069 -0.3252 -0.6029 -0.8983
  598MOL0     C80604  11.067   5.479   1.106 -0.6144 -0.1373  0.1003
  598MOL0     C80605  11.145   5.445   1.236  0.6025  0.8589  0.5844
  598MOL0     C80606  11.272   5.361   1.213  0.0847  0.3817  0.0841
  598MOL0     C80607  11.378   5.422   1.126  0.5941 -0.5342 -0.1437
  598MOL0     C80608  11.515   5.357   1.160  0.4712  0.1769 -0.3169
  598MOL0     C80609  11.628   5.415   1.072  0.9247  0.5870 -0.6970
  598MOL0     C80610  11.636   5.347   0.933  0.0713 -0.5335  0.1787
  598MOL0     C80611  11.680   5.201   0.925  0.6117  0.5336 -0.2562
  598MOL0     N80612  11.809   5.169   0.994  1.0430  0.4383 -0.6599
  598MOL0     C80613  11.847   5.086   1.094 -0.0958  0.0899  0.9226
  598MOL0     C80614  11.976   5.100   1.110 -0.7913 -0.4532  0.3370
  598MOL0     C80615  12.052   5.025   1.220 -0.0427 -0.0368 -0.4652
  598MOL0     C80616  12.002   5.082   1.358 -0.0461  0.4204  0.3211
  598MOL0     C80617  11.992   5.240   1.371  0.3237  0.4335 -0.1430
  598MOL0     C80618  12.126   5.312   1.328 -0.3290 -0.4197 -0.1680
  598MOL0     O80619  12.220   5.286   1.428 -0.1282  0.7397  0.6091
  598MOL0     C80620  12.325   5.372   1.433 -0.1580 -0.6141  0.4414
  598MOL0     C80621  12.399   5.376   1.554 -0.1549 -0.3177  0.3156
  598MOL0     C80622  12.518   5.441   1.566 -0.5461  0.3338  0.2607
  598MOL0     C80623  12.567   5.522   1.459  0.0661 -0.4691  0.0124
  598MOL0     C80624  12.693   5.596   1.467 -0.3001  0.3089 -0.6980
  598MOL0     O80625  12.771   5.568   1.570 -0.8015  0.0132 -0.3064
  598MOL0     C80626  12.892   5.639   1.587 -0.9098 -0.0207 -0.7038
  598MOL0     C80627  12.891   5.764   1.643 -0.0151 -0.1743 -0.4012
  598MOL0     C80628  13.012   5.838   1.642 -0.2208  0.7932  0.6989
  598MOL0     C80629  13.132   5.781   1.591  0.3458  0.6696  0.4657
  598MOL0     O80630  13.245   5.860   1.599  0.3918  0.3147 -0.2665
  598MOL0     C80631  13.374   5.800   1.619  0.1259  0.0249 -0.0655
  598MOL0     C80632  13.469   5.913   1.667 -0.0369  1.0611  0.3162
  598MOL0     C80633  13.596   5.868   1.744  0.2322 -0.3473  0.6996
  598MOL0     C80634  13.727   5.874   1.664  0.4501  0.7623 -0.0849
  598MOL0     C80635  13.849   5.864   1.752  0.4839  0.3477 -0.4986
  598MOL0     C80636  13.977   5.914   1.676  0.5645  0.6123  0.7800
  598MOL0     C80637  14.102   5.880   1.747 -0.3175 -0.7111 -0.0622
  598MOL0     C80638  14.217   5.917   1.659  0.3626  0.9390  0.7595
  598MOL0    Cl80639  14.361   5.889   1.756 -0.2203  0.1260  0.3494
  598MOL0     C80640  13.130   5.646   1.557 -0.4247  0.6116 -0.5940
  598MOL0     C80641  13.015   5.575   1.557 -0.3483  0.5230  0.3043
  598MOL0     O80642  12.720   5.676   1.379 -0.5128  0.3482  0.3464
  598MOL0     C80643  12.498   5.520   1.338  0.5689 -0.2124  0.4391
  598MOL0     C80644  12.380   5.452   1.326  0.8417  0.2812  0.1247
  598MOL0     N80645  12.025   5.185   1.010 -0.0339 -0.0459  0.2761
  598MOL0     N80646  11.918   5.229   0.947 -0.1121 -0.1935  0.1113
  598MOL0     C80647  10.761   5.337   1.109 -0.0792  0.6138 -0.3646
  598MOL0     C80648  10.626   5.381   1.078  0.6907 -0.2786 -0.0360
  598MOL0     C80649  10.274   5.608   0.930  0.1089  0.6692 -0.4950
  598MOL0     C80650  10.210   5.489   0.892 -0.1442 -0.1181  0.6806
  598MOL0     C80651  10.074   5.489   0.851 -0.2735  0.9770 -0.2502
  598MOL0     C80652   9.994   5.606   0.850 -0.2243  1.3420  0.1178
  598MOL0     O80653   9.861   5.612   0.822  0.0063 -0.8150  0.1412
  598MOL0     C80654   9.784   5.498   0.824  0.3402  0.0580  0.2544
  598MOL0     C80655   9.637   5.532   0.848  0.0827 -0.5649 -0.4296
  598MOL0     C80656   9.574   5.612   0.729 -0.2711  0.1128  0.1025
  598MOL0     C80657   9.560   5.530   0.597  0.0557  0.7379  0.5163
  598MOL0     C80658   9.491   5.399   0.604  0.7276 -1.1530 -0.1814
  598MOL0     C80659   9.443   5.290   0.618 -0.0267 -0.1186 -0.7464
  598MOL0     C80660  10.063   5.727   0.888  0.2558  0.2283  0.1711
  598MOL0     C80661  10.194   5.727   0.932 -0.1593 -0.1817  0.3708
  598MOL0     C80662  10.248   5.862   0.974 -0.3457 -0.5238 -0.7278
  598MOL0     H80663  10.686   5.593   0.829  3.1518  2.5199  1.6697
  598MOL0     H80664  10.915   5.501   0.860  0.1716  0.7116 -0.0586
  598MOL0     H80665  11.126   5.514   1.021 -0.0341  0.8615  0.8803
  598MOL0     H80666  10.989   5.552   1.131 -2.8636 -2.6150  0.7257
  598MOL0     H80667  11.073   5.397   1.303  0.0917 -0.3548 -0.7612
  598MOL0     H80668  11.177   5.538   1.284 -0.4672  1.1029  0.8432
  598MOL0     H80669  11.246   5.261   1.178 -0.1921 -0.2145  1.9055
  598MOL0     H80670  11.317   5.337   1.310 -0.4531 -0.5348  0.1200
  598MOL0     H80671  11.355   5.408   1.020 -2.8771  0.8434  0.2969
  598MOL0     H80672  11.392   5.530   1.141 -0.1246 -0.3891 -0.4537
  598MOL0     H80673  11.528   5.380   1.266 -0.4291 -0.8678  0.0394
  598MOL0     H80674  11.508   5.248   1.155  1.4386  0.0235  0.9242
  598MOL0     H80675  11.611   5.522   1.054  0.7227  0.5359 -0.8120
  598MOL0     H80676  11.723   5.391   1.121  0.5665  1.0257  0.2347
  598MOL0     H80677  11.704   5.416   0.881  0.2806  1.1494  2.5169
  598MOL0     H80678  11.537   5.362   0.890  0.4881 -1.1711 -1.0735
  598MOL0     H80679  11.606   5.128   0.960  0.3226 -1.1115 -3.8528
  598MOL0     H80680  11.687   5.173   0.819  2.1630  0.7901 -0.2372
  598MOL0     H80681  11.792   5.021   1.162  1.8577 -2.5843  0.1030
  598MOL0     H80682  12.029   4.918   1.223  0.2837 -0.1059  2.1402
  598MOL0     H80683  12.159   5.034   1.201  0.0487 -1.8055 -0.9740
  598MOL0     H80684  11.904   5.036   1.372  1.4169 -2.9696  0.3151
  598MOL0     H80685  12.058   5.037   1.441  1.4576 -0.0643 -0.9297
  598MOL0     H80686  11.978   5.264   1.477 -0.2412  0.6250 -0.2574
  598MOL0     H80687  11.899   5.263   1.319 -0.7609 -0.2994  1.4115
  598MOL0     H80688  12.110   5.420   1.334 -1.9928 -0.6268  5.4323
  598MOL0     H80689  12.157   5.291   1.226 -2.5797 -1.6341 -0.6441
  598MOL0     H80690  12.365   5.317   1.639  2.5608 -0.8473  1.1417
  598MOL0     H80691  12.575   5.438   1.657  0.6567  2.0075 -0.3882
  598MOL0     H80692  12.797   5.807   1.677  0.8727  0.2888  1.5763
  598MOL0     H80693  13.009   5.940   1.678  0.1153  0.6941  1.0097
  598MOL0     H80694  13.364   5.715   1.687 -1.1215 -0.3084 -0.6274
  598MOL0     H80695  13.422   5.757   1.531 -1.1016 -0.2874 -0.5966
  598MOL0     H80696  13.501   5.974   1.582  0.3311 -0.1454 -0.4352
  598MOL0     H80697  13.402   5.965   1.736  0.4808  1.5628  0.4484
  598MOL0     H80698  13.594   5.917   1.841 -2.6190  0.2922  0.3931
  598MOL0     H80699  13.588   5.763   1.773  1.3839 -0.2546  1.4137
  598MOL0     H80700  13.738   5.974   1.621  0.1234  1.2099  0.8439
  598MOL0     H80701  13.740   5.800   1.585  0.8839 -1.4803  1.9664
  598MOL0     H80702  13.865   5.760   1.782 -0.6710 -0.0716 -1.2720
  598MOL0     H80703  13.840   5.919   1.846 -0.9195 -1.9664  0.8517
  598MOL0     H80704  13.974   5.872   1.575  1.2340  2.4303 -0.0539
  598MOL0     H80705  13.975   6.023   1.661  0.2394  0.5149  0.0830
  598MOL0     H80706  14.102   5.771   1.763 -1.3990 -0.5937  0.8869
  598MOL0     H80707  14.101   5.934   1.842 -0.0733  2.8755 -1.9438
  598MOL0     H80708  14.230   5.855   1.570  2.1611  0.5781  1.2210
  598MOL0     H80709  14.217   6.019   1.621  2.3639  0.5679 -0.3619
  598MOL0     H80710  13.217   5.586   1.535  0.6738  0.8181  2.6075
  598MOL0     H80711  13.004   5.469   1.537  0.4275  0.6729 -1.0164
  598MOL0     H80712  12.547   5.571   1.255  0.1316  2.2487  1.6093
  598MOL0     H80713  12.330   5.465   1.230 -0.9854  0.4995  1.0571
  598MOL0     H80714  10.780   5.272   1.194  0.9092  1.3846  0.0356
  598MOL0     H80715  10.536   5.351   1.132  0.0094 -1.3842 -1.6968
  598MOL0     H80716  10.269   5.398   0.887 -1.0465 -0.6569 -2.7209
  598MOL0     H80717  10.042   5.388   0.825  0.9424  0.2198  1.0184
  598MOL0     H80718   9.812   5.444   0.915  1.3037 -0.7816 -0.5186
  598MOL0     H80719   9.786   5.443   0.730  0.7986  2.1595 -1.0227
  598MOL0     H80720   9.636   5.601   0.933 -1.1588  0.5130 -1.2830
  598MOL0     H80721   9.573   5.446   0.871 -1.6133  0.5743 -0.7760
  598MOL0     H80722   9.636   5.702   0.713  0.9210 -0.8988 -1.2392
  598MOL0     H80723   9.481   5.657   0.764  0.4531  0.5402  1.5611
  598MOL0     H80724   9.516   5.597   0.523 -1.8214  0.7495  1.5724
  598MOL0     H80725   9.663   5.511   0.568  0.8559  1.4744  2.6587
  598MOL0     H80726   9.410   5.189   0.635 -1.5628  0.4074 -0.4508
  598MOL0     H80727   9.992   5.808   0.874  1.1381  0.8702 -0.7508
  598MOL0     H80728  10.292   5.844   1.073 -1.4918  0.0609 -0.1023
  598MOL0     H80729  10.319   5.901   0.900  0.0264 -0.9188 -0.5907
  598MOL0     H80730  10.166   5.933   0.982 -0.8292 -1.3022  2.1390
  599MOL0     O80731   6.800   8.073   8.710 -0.7272 -0.6325 -0.3896
  599MOL0     C80732   6.742   8.170   8.669  0.9174  0.6393 -0.4711
  599MOL0     O80733   6.788   8.260   8.579 -0.0826  0.0848  0.2091
  599MOL0     C80734   6.902   8.241   8.509  0.7294 -0.4618  0.3235
  599MOL0     C80735   6.968   8.354   8.482 -0.1746 -0.0351 -0.0057
  599MOL0     C80736   7.103   8.348   8.430  0.1748 -0.2849 -0.2672
  599MOL0     C80737   7.175   8.228   8.410  1.0842 -0.3021 -0.6913
  599MOL0     O80738   7.300   8.217   8.368  0.0802 -0.7624  0.0876
  599MOL0     C80739   7.382   8.331   8.382 -0.6901 -0.1581 -0.0028
  599MOL0     C80740   7.527   8.319   8.318 -0.0954 -0.0978  0.4155
  599MOL0     C80741   7.601   8.199   8.362  0.1317 -0.1612 -0.1555
  599MOL0     C80742   7.748   8.186   8.317  0.5045 -0.6446 -0.2772
  599MOL0     C80743   7.843   8.237   8.421 -0.2636  0.8197 -0.5520
  599MOL0     C80744   7.989   8.216   8.366 -0.0190 -0.0959 -0.3232
  599MOL0     C80745   8.095   8.266   8.468  0.2029  0.0279  0.1629
  599MOL0     C80746   8.233   8.216   8.439 -0.2582 -0.4609 -0.0874
  599MOL0     N80747   8.328   8.228   8.548  0.8623  0.3828 -0.4746
  599MOL0     C80748   8.429   8.313   8.562  0.3682 -0.5807  1.1151
  599MOL0     C80749   8.489   8.295   8.681 -0.1578 -0.5565 -0.3812
  599MOL0     C80750   8.605   8.374   8.722 -0.0772 -0.1830  0.3585
  599MOL0     C80751   8.727   8.292   8.686  0.1439 -0.1224 -0.5960
  599MOL0     C80752   8.755   8.284   8.532  0.1137 -0.4071 -0.0091
  599MOL0     C80753   8.902   8.250   8.503 -0.6255 -0.0062  0.1372
  599MOL0     O80754   8.984   8.357   8.555  0.5232 -0.2675  0.0639
  599MOL0     C80755   9.120   8.323   8.557  0.4381  0.4662 -0.1105
  599MOL0     C80756   9.164   8.206   8.624  0.5557 -0.2152 -0.0105
  599MOL0     C80757   9.299   8.169   8.622 -0.4649  0.0662  0.1325
  599MOL0     C80758   9.393   8.244   8.552 -0.0300 -0.5276  0.4777
  599MOL0     C80759   9.537   8.220   8.562 -0.2020  0.1200  0.0169
  599MOL0     O80760   9.579   8.118   8.646  0.2447 -0.6395 -0.2555
  599MOL0     C80761   9.707   8.081   8.653 -0.9585  0.1121  0.3160
  599MOL0     C80762   9.778   8.056   8.531  0.0347  0.9682  0.2971
  599MOL0     C80763   9.913   8.019   8.529 -1.0616  0.3176 -0.5175
  599MOL0     C80764   9.981   8.013   8.652  0.2072  0.1802 -0.2797
  599MOL0     O80765  10.108   7.962   8.643  0.4411  0.4209 -0.0438
  599MOL0     C80766  10.206   8.018   8.728 -0.1742 -0.6733  0.7231
  599MOL0     C80767  10.342   7.992   8.676 -0.1737  0.1271 -0.3075
  599MOL0     C80768  10.389   7.840   8.701 -0.4081 -0.0817  0.0132
  599MOL0     C80769  10.517   7.834   8.620 -0.1404 -0.0083  0.4621
  599MOL0     C80770  10.618   7.717   8.647 -0.4798 -0.7051 -0.4004
  599MOL0     C80771  10.571   7.584   8.590  0.6274 -0.4416  0.3407
  599MOL0     C80772  10.683   7.485   8.624 -0.4349 -1.2050  0.0680
  599MOL0     C80773  10.668   7.351   8.556 -0.3068 -0.0653  0.6541
  599MOL0    Cl80774  10.783   7.230   8.634 -0.1166 -0.1255  0.0396
  599MOL0     C80775   9.910   8.022   8.770 -1.1306 -0.3648  0.3615
  599MOL0     C80776   9.780   8.065   8.778  0.0984  0.1188  0.0855
  599MOL0     O80777   9.612   8.304   8.509 -0.5079 -0.5862  0.4213
  599MOL0     C80778   9.341   8.356   8.476  0.3872 -0.6224  1.1006
  599MOL0     C80779   9.207   8.395   8.477  0.1461 -1.0449 -0.1894
  599MOL0     N80780   8.427   8.203   8.743  0.2759  0.8343 -0.4015
  599MOL0     N80781   8.323   8.158   8.667 -0.7726 -0.1612  0.2196
  599MOL0     C80782   7.108   8.115   8.451  0.3572  0.5124 -0.5761
  599MOL0     C80783   6.974   8.119   8.500 -0.5858  0.1321  0.5559
  599MOL0     C80784   6.601   8.187   8.715 -0.1970  0.2982 -0.4168
  599MOL0     C80785   6.528   8.285   8.650 -0.3642 -0.4282  0.3127
  599MOL0     C80786   6.398   8.311   8.687 -0.4508  0.3234 -0.2309
  599MOL0     C80787   6.327   8.223   8.769 -0.8151  0.8647  0.5039
  599MOL0     O80788   6.187   8.213   8.774 -0.3566  0.3682  0.5355
  599MOL0     C80789   6.126   8.344   8.770 -0.0859  0.4820  0.8798
  599MOL0     C80790   6.033   8.377   8.877  0.4245 -0.8505  0.3451
  599MOL0     C80791   5.899   8.309   8.850  1.3287  0.1280 -0.6509
  599MOL0     C80792   5.801   8.342   8.968  0.5353 -0.5942  0.2583
  599MOL0     C80793   5.665   8.330   8.914 -0.5005  0.3392 -0.0041
  599MOL0     C80794   5.556   8.321   8.868  0.7828  0.5379  0.1630
  599MOL0     C80795   6.400   8.138   8.849  0.0433  0.0715 -0.8743
  599MOL0     C80796   6.535   8.123   8.823 -1.2438  1.0085 -0.9533
  599MOL0     C80797   6.615   8.031   8.923  0.5775 -0.4015 -0.2113
  599MOL0     H80798   6.923   8.450   8.506 -0.7822 -0.3456  0.1066
  599MOL0     H80799   7.146   8.441   8.394 -1.2327 -0.5924 -2.9510
  599MOL0     H80800   7.331   8.418   8.340  0.1397 -1.0187 -2.9963
  599MOL0     H80801   7.407   8.350   8.487  0.1118 -0.8147 -0.0642
  599MOL0     H80802   7.588   8.409   8.330  2.5867 -1.5538 -1.3852
  599MOL0     H80803   7.508   8.320   8.211  0.4555 -0.1625  0.3127
  599MOL0     H80804   7.552   8.113   8.314 -0.0876  0.5870 -1.2936
  599MOL0     H80805   7.606   8.196   8.472  2.9882 -1.8180 -0.2367
  599MOL0     H80806   7.763   8.079   8.298 -3.6819 -1.7540  1.3417
  599MOL0     H80807   7.769   8.241   8.225 -0.2061  1.7057  0.8796
  599MOL0     H80808   7.837   8.345   8.435  0.1545  1.0743 -2.1730
  599MOL0     H80809   7.826   8.189   8.518 -1.1392 -0.9121 -1.5169
  599MOL0     H80810   8.015   8.117   8.327 -2.3458 -0.3903 -1.3042
  599MOL0     H80811   8.002   8.285   8.282  1.1797 -0.3958 -0.4163
  599MOL0     H80812   8.060   8.236   8.567 -0.5556  1.1517  0.2613
  599MOL0     H80813   8.092   8.376   8.469 -0.5622  0.0449 -1.2627
  599MOL0     H80814   8.226   8.118   8.392 -0.6201  1.9239 -5.8817
  599MOL0     H80815   8.273   8.267   8.351  1.1774  1.7866  1.7276
  599MOL0     H80816   8.454   8.392   8.492  0.3914 -0.2400  1.5076
  599MOL0     H80817   8.608   8.468   8.665 -0.6067 -0.2219  0.2613
  599MOL0     H80818   8.600   8.398   8.829 -1.0663 -1.5464  0.6300
  599MOL0     H80819   8.805   8.344   8.743 -1.5352  0.5601  1.1777
  599MOL0     H80820   8.724   8.192   8.729 -1.4300 -0.1670 -0.7549
  599MOL0     H80821   8.742   8.386   8.492 -1.6803 -0.2324  0.8988
  599MOL0     H80822   8.689   8.210   8.486  0.3228 -0.8761  0.4505
  599MOL0     H80823   8.903   8.244   8.393 -1.5954 -0.2926  0.1324
  599MOL0     H80824   8.917   8.151   8.547 -1.9557 -0.1463  0.3292
  599MOL0     H80825   9.088   8.138   8.661 -0.5469  1.2621  0.5461
  599MOL0     H80826   9.337   8.090   8.686 -0.1819  0.3103  0.2662
  599MOL0     H80827   9.710   8.061   8.446 -2.3925  0.5872  2.1029
  599MOL0     H80828   9.971   8.002   8.438 -0.6840  0.9635 -0.4016
  599MOL0     H80829  10.195   8.127   8.735  2.5461 -0.3300  0.5737
  599MOL0     H80830  10.193   7.980   8.830 -1.6293  0.4627  1.0021
  599MOL0     H80831  10.351   8.025   8.572  0.4093 -0.9220 -0.6103
  599MOL0     H80832  10.412   8.045   8.742  0.9742 -2.3466  0.5894
  599MOL0     H80833  10.408   7.822   8.807 -0.4946  1.7068  0.3504
  599MOL0     H80834  10.309   7.770   8.673 -0.5962  0.3774 -0.6162
  599MOL0     H80835  10.566   7.928   8.647  0.5594 -0.2642  0.1053
  599MOL0     H80836  10.493   7.842   8.513  2.0898  1.6916  0.0114
  599MOL0     H80837  10.630   7.706   8.755 -1.5435 -1.9331 -0.3774
  599MOL0     H80838  10.715   7.742   8.602 -1.0723 -1.6625 -2.3093
  599MOL0     H80839  10.482   7.543   8.640  2.7819 -3.5796  1.9674
  599MOL0     H80840  10.566   7.601   8.482  4.3843  0.1139  0.1221
  599MOL0     H80841  10.692   7.477   8.733 -1.3614 -0.3698  0.2167
  599MOL0     H80842  10.778   7.525   8.590 -0.3786 -2.4204 -1.2918
  599MOL0     H80843  10.565   7.313   8.559 -1.2024  2.2200  0.7065
  599MOL0     H80844  10.682   7.360   8.448 -0.6238  0.5206  0.6629
  599MOL0     H80845   9.967   7.994   8.859  0.5849 -2.6733 -1.3332
  599MOL0     H80846   9.738   8.093   8.875  2.9310  1.4501  1.0308
  599MOL0     H80847   9.412   8.403   8.408  0.8072 -4.7775 -1.6740
  599MOL0     H80848   9.172   8.480   8.419  0.1449  0.0369  1.3521
  599MOL0     H80849   7.162   8.022   8.434 -2.0419 -0.9254 -0.7912
  599MOL0     H80850   6.928   8.023   8.518 -0.3206 -1.0035 -3.7761
  599MOL0     H80851   6.584   8.339   8.575  2.3101 -0.5530  2.0729
  599MOL0     H80852   6.357   8.379   8.612  0.4823  0.4508 -0.6389
  599MOL0     H80853   6.081   8.351   8.671 -0.9840  2.3545  1.3796
  599MOL0     H80854   6.200   8.424   8.774 -0.4870  0.8884  0.3265
  599MOL0     H80855   6.012   8.484   8.875  1.2120 -0.6337 -3.5212
  599MOL0     H80856   6.072   8.348   8.975 -1.7597 -0.2789  1.4374
  599MOL0     H80857   5.901   8.201   8.834 -1.9234  0.1757 -2.1112
  599MOL0     H80858   5.860   8.351   8.756  0.4731 -1.1030 -0.8620
  599MOL0     H80859   5.819   8.274   9.051 -1.0298 -0.3930  0.8036
  599MOL0     H80860   5.817   8.442   9.010 -2.3912 -1.3220  3.5819
  599MOL0     H80861   5.457   8.333   8.828  0.0830 -0.9369  1.3344
  599MOL0     H80862   6.346   8.083   8.925  1.3495 -0.8142 -0.5582
  599MOL0     H80863   6.714   8.069   8.949  0.3820  1.2510 -1.7011
  599MOL0     H80864   6.552   8.020   9.011  0.8245 -1.0223 -0.1003
  599MOL0     H80865   6.633   7.934   8.874  2.7984  0.1601 -0.6532
  600MOL0     O80866   3.575  10.097   2.034 -0.1127 -0.1954  0.3372
  600MOL0     C80867   3.518  10.044   1.937 -0.2909  0.6527  0.0036
  600MOL0     O80868   3.587   9.949   1.866  0.0551 -0.6611 -0.1279
  600MOL0     C80869   3.687   9.883   1.927 -0.6520 -0.5117  0.4142
  600MOL0     C80870   3.815   9.943   1.956  0.5742  0.7503 -0.6246
  600MOL0     C80871   3.914   9.872   2.033  0.1282 -0.3904 -0.0528
  600MOL0     C80872   3.881   9.745   2.084 -0.3757  0.4044  0.3214
  600MOL0     O80873   3.956   9.673   2.168  0.3287  0.7772 -0.3152
  600MOL0     C80874   4.037   9.571   2.102 -0.0270 -1.0590 -0.2274
  600MOL0     C80875   4.162   9.578   2.194 -0.3639 -0.6211  0.4512
  600MOL0     C80876   4.159   9.515   2.336  0.2702  0.5864  0.3178
  600MOL0     C80877   4.295   9.540   2.410 -0.7483  0.6067  0.5266
  600MOL0     C80878   4.403   9.439   2.378 -0.8789  0.9984 -0.1641
  600MOL0     C80879   4.541   9.486   2.408 -0.4448 -0.6732 -0.1642
  600MOL0     C80880   4.570   9.513   2.552 -0.2214  0.0666  0.8517
  600MOL0     C80881   4.709   9.587   2.568 -0.1159  0.4249  0.5114
  600MOL0     N80882   4.824   9.486   2.567  0.3847 -0.4909 -0.2501
  600MOL0     C80883   4.841   9.386   2.658  0.4226  0.0794 -1.1001
  600MOL0     C80884   4.959   9.333   2.626 -0.8348 -0.2055  0.2738
  600MOL0     C80885   5.041   9.224   2.702 -0.1535 -0.1906  0.2717
  600MOL0     C80886   5.182   9.215   2.664  0.3135 -0.3152  0.3597
  600MOL0     C80887   5.259   9.110   2.751 -0.1119  0.2689  0.3543
  600MOL0     C80888   5.399   9.116   2.729  0.0309 -0.0152  0.5844
  600MOL0     O80889   5.423   9.079   2.594  0.1403  0.2798  0.5751
  600MOL0     C80890   5.536   9.147   2.545  0.4306  0.4193 -0.4906
  600MOL0     C80891   5.655   9.157   2.624 -0.2145  0.5916  0.7545
  600MOL0     C80892   5.766   9.216   2.575 -0.0504  0.3969  0.1644
  600MOL0     C80893   5.775   9.245   2.433  0.6759  0.0951 -0.0616
  600MOL0     C80894   5.905   9.308   2.383  0.3386  0.7379  0.5542
  600MOL0     O80895   6.009   9.326   2.461  0.1087 -0.1095  0.1607
  600MOL0     C80896   6.117   9.392   2.414 -0.4870  0.3391  0.3161
  600MOL0     C80897   6.195   9.351   2.303 -0.2209  0.0126 -0.3485
  600MOL0     C80898   6.320   9.410   2.281  0.2925  0.9180  0.1336
  600MOL0     C80899   6.371   9.508   2.364 -0.4309 -0.2121 -0.1881
  600MOL0     O80900   6.491   9.565   2.326 -0.2307 -0.4062 -0.0574
  600MOL0     C80901   6.498   9.699   2.288  0.3185 -0.6790  0.0922
  600MOL0     C80902   6.635   9.738   2.243 -0.5776 -0.7010 -0.1051
  600MOL0     C80903   6.632   9.885   2.213  0.8997 -1.0501 -0.3212
  600MOL0     C80904   6.768   9.941   2.168  0.3802  0.2205  0.7729
  600MOL0     C80905   6.782  10.096   2.180 -0.3963  0.4232  0.1237
  600MOL0     C80906   6.920  10.126   2.126 -0.0974 -0.0308  0.0355
  600MOL0     C80907   6.934  10.275   2.098 -0.1926 -0.3781  0.1096
  600MOL0     C80908   7.075  10.311   2.039  0.5609 -0.3956 -0.3761
  600MOL0    Cl80909   7.195  10.244   2.153 -0.7924  0.0479  0.0915
  600MOL0     C80910   6.298   9.556   2.469  0.9934  0.3329 -0.3415
  600MOL0     C80911   6.177   9.494   2.496  0.6843  0.4813  0.1476
  600MOL0     O80912   5.895   9.346   2.267 -0.3274  0.3338  0.1275
  600MOL0     C80913   5.661   9.216   2.353 -0.1966 -0.2575  0.4752
  600MOL0     C80914   5.539   9.172   2.409  0.5636 -0.7207  0.4905
  600MOL0     N80915   5.004   9.404   2.512 -0.3958  0.7827  0.3783
  600MOL0     N80916   4.931   9.504   2.489 -0.0811  0.0414 -0.8854
  600MOL0     C80917   3.754   9.686   2.054 -1.0543 -0.4127 -0.1405
  600MOL0     C80918   3.664   9.754   1.981  0.9795 -0.5813  0.0697
  600MOL0     C80919   3.386  10.092   1.883 -0.2428  0.1769 -0.4822
  600MOL0     C80920   3.354  10.052   1.751  0.1397  0.3300 -0.0470
  600MOL0     C80921   3.239  10.096   1.693  0.1658 -0.2204  0.0021
  600MOL0     C80922   3.141  10.161   1.765  0.3228  0.2845  0.5320
  600MOL0     O80923   3.022  10.201   1.709 -0.1579 -0.4812  0.5729
  600MOL0     C80924   2.986  10.156   1.575  0.1335  0.0899 -0.4880
  600MOL0     C80925   2.854  10.221   1.525 -0.4688  1.0321  0.9718
  600MOL0     C80926   2.873  10.369   1.492 -0.6100  0.5172 -0.0308
  600MOL0     C80927   2.784  10.395   1.367  0.3033  0.5035  0.2730
  600MOL0     C80928   2.641  10.394   1.399  0.0717  0.1527  0.2016
  600MOL0     C80929   2.527  10.401   1.438  0.3990 -0.0877  0.5876
  600MOL0     C80930   3.166  10.190   1.898 -1.3258  0.7054 -0.1323
  600MOL0     C80931   3.289  10.152   1.962 -0.9676 -0.1402  0.7182
  600MOL0     C80932   3.315  10.171   2.107 -0.2531  0.8491  0.0510
  600MOL0     H80933   3.839  10.044   1.926 -3.5051  2.3251  0.6829
  600MOL0     H80934   4.008   9.919   2.061 -1.0316  0.0867  3.5302
  600MOL0     H80935   3.984   9.475   2.101  0.1025 -1.1888 -3.2154
  600MOL0     H80936   4.055   9.609   2.001  0.5185 -2.8663 -0.8312
  600MOL0     H80937   4.188   9.684   2.201 -0.5770 -0.0803 -3.7926
  600MOL0     H80938   4.244   9.526   2.143 -0.7768 -0.2589 -0.6268
  600MOL0     H80939   4.142   9.407   2.329 -0.5090  0.8029 -1.9190
  600MOL0     H80940   4.074   9.557   2.390  0.3600 -0.0528  0.9710
  600MOL0     H80941   4.331   9.639   2.379 -0.1742 -0.1056 -1.2046
  600MOL0     H80942   4.272   9.558   2.516 -0.8865  2.0024  0.2741
  600MOL0     H80943   4.382   9.346   2.433 -1.5859  1.4656  0.3690
  600MOL0     H80944   4.409   9.409   2.272  2.0628  1.0820 -0.1008
  600MOL0     H80945   4.619   9.417   2.375  0.4536 -0.1496  0.7966
  600MOL0     H80946   4.564   9.572   2.345  0.6150  0.0885  1.2290
  600MOL0     H80947   4.566   9.425   2.617 -2.3260  0.7820  1.7953
  600MOL0     H80948   4.486   9.575   2.586 -2.7795  0.2112 -4.5878
  600MOL0     H80949   4.720   9.652   2.480 -2.4951 -0.9485 -0.9235
  600MOL0     H80950   4.710   9.644   2.661  0.3306 -0.3665  0.9964
  600MOL0     H80951   4.769   9.367   2.737  0.2825 -1.4620 -1.5572
  600MOL0     H80952   5.039   9.251   2.808 -0.2078  1.0773 -0.0427
  600MOL0     H80953   4.988   9.129   2.689 -0.5603  0.4058 -3.8023
  600MOL0     H80954   5.183   9.181   2.560  0.6627 -1.0763  0.6075
  600MOL0     H80955   5.232   9.312   2.672  0.2676 -0.2806  0.2250
  600MOL0     H80956   5.225   9.008   2.733 -0.8169  0.7618 -1.2927
  600MOL0     H80957   5.247   9.146   2.853 -0.4469 -0.0239  0.4154
  600MOL0     H80958   5.447   9.040   2.791 -1.3267 -3.7316 -2.5744
  600MOL0     H80959   5.428   9.216   2.763  0.8782 -0.6088  1.6982
  600MOL0     H80960   5.643   9.126   2.727 -0.5513 -1.7946  0.0684
  600MOL0     H80961   5.846   9.237   2.646 -2.1575  2.3627  2.1029
  600MOL0     H80962   6.148   9.276   2.240 -5.0672  0.6036  2.1396
  600MOL0     H80963   6.377   9.363   2.202 -0.2819 -2.9306  1.7751
  600MOL0     H80964   6.427   9.709   2.205  4.2913  0.0099 -3.6117
  600MOL0     H80965   6.471   9.770   2.366  0.7998  0.7973 -1.0380
  600MOL0     H80966   6.715   9.722   2.315  0.2771  0.8251 -0.6555
  600MOL0     H80967   6.667   9.683   2.154 -0.9535 -1.5444  0.2729
  600MOL0     H80968   6.557   9.914   2.140  0.8665  1.2690  0.5412
  600MOL0     H80969   6.608   9.936   2.307  3.7799 -1.5748  0.8091
  600MOL0     H80970   6.780   9.920   2.062 -0.2668 -0.7889  0.8864
  600MOL0     H80971   6.851   9.891   2.221  0.7892  1.0512  0.9327
  600MOL0     H80972   6.766  10.122   2.285 -3.5693 -1.8903  0.3562
  600MOL0     H80973   6.707  10.147   2.120  0.0020  0.7367 -0.1114
  600MOL0     H80974   6.994  10.097   2.201 -1.0828  1.1837  1.5406
  600MOL0     H80975   6.940  10.070   2.034 -0.4508  0.6604 -0.4641
  600MOL0     H80976   6.925  10.336   2.188 -0.5495  0.3248 -0.3966
  600MOL0     H80977   6.856  10.301   2.026  1.0411 -1.5614 -1.7556
  600MOL0     H80978   7.092  10.275   1.937  2.8174  1.4626 -0.7616
  600MOL0     H80979   7.079  10.419   2.023  0.1126 -0.1621  0.9832
  600MOL0     H80980   6.336   9.639   2.528 -1.0198  0.5900  0.7038
  600MOL0     H80981   6.127   9.530   2.585 -1.5127 -2.5544  0.2962
  600MOL0     H80982   5.654   9.246   2.249 -3.4062 -2.6423 -0.1523
  600MOL0     H80983   5.463   9.160   2.333  0.5023 -0.3864  0.4968
  600MOL0     H80984   3.740   9.589   2.101  0.3362 -0.4525  0.2642
  600MOL0     H80985   3.567   9.711   1.957  1.0287  0.8630 -3.1906
  600MOL0     H80986   3.411   9.979   1.695 -2.9270 -0.6125 -2.1585
  600MOL0     H80987   3.219  10.074   1.589 -1.4528 -0.2516  0.2950
  600MOL0     H80988   2.969  10.048   1.586 -0.8561  0.0323 -2.1773
  600MOL0     H80989   3.061  10.169   1.496  0.4837 -2.3226 -0.6447
  600MOL0     H80990   2.770  10.200   1.591 -1.1832  4.0726  1.1670
  600MOL0     H80991   2.835  10.177   1.427 -0.2402  2.4474  0.2650
  600MOL0     H80992   2.977  10.391   1.465 -0.0722 -3.2998 -1.6549
  600MOL0     H80993   2.843  10.431   1.577  1.5980  1.8852 -0.1504
  600MOL0     H80994   2.804  10.499   1.342 -1.0880  0.5837 -0.5800
  600MOL0     H80995   2.808  10.336   1.278  0.6943  0.3723  0.4619
  600MOL0     H80996   2.426  10.411   1.473  1.5691  3.6359  3.5329
  600MOL0     H80997   3.101  10.253   1.959 -1.8590  1.8370 -1.7964
  600MOL0     H80998   3.337  10.082   2.165  1.1001  1.0241 -0.1656
  600MOL0     H80999   3.401  10.238   2.117  0.8356 -0.4533 -0.2850
  600MOL0     H81000   3.230  10.222   2.153 -1.8191 -0.6325 -1.1003
  601MOL0     O81001   8.048   6.879   1.742  0.2964  0.4948  0.0452
  601MOL0     C81002   8.048   6.773   1.680 -0.1752  0.2167 -0.1535
  601MOL0     O81003   8.160   6.721   1.624  0.0189 -0.0355 -0.1132
  601MOL0     C81004   8.281   6.766   1.678 -0.0470 -1.0157  0.3488
  601MOL0     C81005   8.332   6.890   1.632  0.1680 -0.4703  0.8342
  601MOL0     C81006   8.463   6.925   1.660 -0.3506 -0.1993  0.2435
  601MOL0     C81007   8.548   6.842   1.727 -0.4128  0.3826  0.2782
  601MOL0     O81008   8.679   6.867   1.743 -0.8012  1.1777 -0.1370
  601MOL0     C81009   8.743   6.983   1.681  0.0232 -0.1145 -0.2141
  601MOL0     C81010   8.888   6.983   1.707 -0.6664 -0.2462  0.0976
  601MOL0     C81011   8.930   7.067   1.826 -0.2218 -0.2018  1.1899
  601MOL0     C81012   9.087   7.093   1.819 -0.1526 -0.5531 -0.7494
  601MOL0     C81013   9.122   7.189   1.939 -1.0233  0.4655 -0.5827
  601MOL0     C81014   9.280   7.194   1.960 -0.1414 -0.6319 -0.7007
  601MOL0     C81015   9.306   7.239   2.098  0.5918 -0.5571  0.5716
  601MOL0     C81016   9.254   7.388   2.128 -0.5272 -1.0596  0.4031
  601MOL0     N81017   9.350   7.493   2.082 -0.5211 -0.4459  0.4128
  601MOL0     C81018   9.385   7.515   1.948  0.3534  0.0287  0.2458
  601MOL0     C81019   9.513   7.573   1.956 -0.0170 -0.2495  0.2784
  601MOL0     C81020   9.591   7.611   1.831 -0.1781  0.0067 -0.1818
  601MOL0     C81021   9.741   7.584   1.855 -0.5171 -1.1451  0.0606
  601MOL0     C81022   9.808   7.626   1.724  0.3862 -0.1047  0.2516
  601MOL0     C81023   9.963   7.615   1.737  0.1861  0.7856  0.2358
  601MOL0     O81024  10.021   7.480   1.767  0.8437 -0.5737 -0.0602
  601MOL0     C81025  10.108   7.433   1.666  0.3079 -0.9005  0.1742
  601MOL0     C81026  10.059   7.381   1.543 -0.5524 -0.6062 -0.8806
  601MOL0     C81027  10.153   7.327   1.455  1.2434 -0.4921 -0.1205
  601MOL0     C81028  10.289   7.318   1.482 -0.5455  0.1105 -0.6215
  601MOL0     C81029  10.381   7.255   1.394 -0.1455 -0.0438  0.5656
  601MOL0     O81030  10.513   7.270   1.417  0.0774 -0.4935  0.8539
  601MOL0     C81031  10.617   7.204   1.360  0.8493 -0.1061 -0.2108
  601MOL0     C81032  10.607   7.067   1.335  0.2599 -0.5595  0.3331
  601MOL0     C81033  10.721   6.988   1.311 -0.0259 -0.2044  0.6192
  601MOL0     C81034  10.850   7.044   1.306  0.7172 -0.6165  0.1679
  601MOL0     O81035  10.949   6.958   1.277  0.6020 -0.3880 -0.2139
  601MOL0     C81036  11.083   6.995   1.280  0.1506  1.2381  0.4395
  601MOL0     C81037  11.152   7.020   1.411 -0.5281 -1.3704 -0.2623
  601MOL0     C81038  11.299   7.063   1.374 -0.2538  0.1539  0.2517
  601MOL0     C81039  11.388   7.077   1.498 -0.0261 -0.3448  0.0306
  601MOL0     C81040  11.499   7.182   1.487 -0.6528  0.1358  0.1049
  601MOL0     C81041  11.593   7.162   1.370 -0.9558 -0.5364 -0.0562
  601MOL0     C81042  11.723   7.248   1.391  0.0768 -0.2105 -0.2751
  601MOL0     C81043  11.847   7.226   1.293  0.2174 -0.2366  0.8703
  601MOL0    Cl81044  11.920   7.063   1.288 -0.2093  0.0016 -0.2016
  601MOL0     C81045  10.863   7.183   1.333  0.4434 -0.2753  0.2070
  601MOL0     C81046  10.745   7.258   1.363 -0.0959 -0.1502  0.4978
  601MOL0     O81047  10.337   7.193   1.302  0.1911  0.1374  0.2831
  601MOL0     C81048  10.333   7.369   1.608  0.1198  0.3831  0.1737
  601MOL0     C81049  10.241   7.416   1.701  0.4613 -0.4854  0.2881
  601MOL0     N81050   9.544   7.593   2.080 -0.1018  0.4332 -0.3113
  601MOL0     N81051   9.453   7.546   2.154  0.5355 -0.2101 -0.6746
  601MOL0     C81052   8.493   6.725   1.783 -0.6543 -0.0653 -0.1845
  601MOL0     C81053   8.362   6.681   1.758  0.0617 -0.4354  0.2907
  601MOL0     C81054   7.922   6.695   1.674  0.3504  0.0947  0.2540
  601MOL0     C81055   7.936   6.555   1.687  0.1317  0.8005 -0.2215
  601MOL0     C81056   7.824   6.473   1.694  0.3481  0.3296  0.5190
  601MOL0     C81057   7.698   6.529   1.677  0.2204 -0.4759 -0.2072
  601MOL0     O81058   7.586   6.468   1.721  0.5848  0.2689 -0.0817
  601MOL0     C81059   7.555   6.339   1.665 -0.1835 -1.6302  0.2368
  601MOL0     C81060   7.488   6.359   1.528  0.1047 -0.5026 -0.2972
  601MOL0     C81061   7.466   6.227   1.459  0.3914 -0.2115  0.2155
  601MOL0     C81062   7.594   6.159   1.413 -0.0621 -0.6115  0.8379
  601MOL0     C81063   7.574   6.065   1.305 -0.0426  0.1746  0.5800
  601MOL0     C81064   7.550   5.987   1.215 -0.5433  0.1917  0.0233
  601MOL0     C81065   7.685   6.661   1.643 -0.1325  0.6877  0.5633
  601MOL0     C81066   7.796   6.745   1.646 -0.2224  0.2464 -0.1261
  601MOL0     C81067   7.775   6.882   1.612 -0.4965 -0.3295 -0.4215
  601MOL0     H81068   8.267   6.952   1.570 -0.7956 -1.0106  1.2800
  601MOL0     H81069   8.497   7.024   1.630 -1.8065  0.3491  0.3328
  601MOL0     H81070   8.726   6.987   1.573 -3.0561  2.9220  0.2230
  601MOL0     H81071   8.688   7.070   1.718 -2.4263 -1.5119 -0.3417
  601MOL0     H81072   8.937   7.019   1.616  2.8744  2.6664  2.8164
  601MOL0     H81073   8.920   6.880   1.723 -2.1522 -0.6212  0.8334
  601MOL0     H81074   8.908   7.016   1.920  0.5526 -2.4303  0.2326
  601MOL0     H81075   8.882   7.165   1.828  2.9118  1.4899  0.1383
  601MOL0     H81076   9.136   6.997   1.838 -1.5286 -1.0079  0.7548
  601MOL0     H81077   9.116   7.134   1.723  0.2174  1.2004  0.0753
  601MOL0     H81078   9.084   7.290   1.921 -0.0157  0.9251 -0.1905
  601MOL0     H81079   9.073   7.159   2.032  1.1865  0.9479  0.8168
  601MOL0     H81080   9.315   7.090   1.959 -0.0864 -0.6853  1.7708
  601MOL0     H81081   9.331   7.243   1.876  1.4491 -0.0555  0.5314
  601MOL0     H81082   9.414   7.224   2.106  0.9394  1.6018  0.6868
  601MOL0     H81083   9.247   7.169   2.157 -2.9710  1.6169 -0.0764
  601MOL0     H81084   9.152   7.406   2.094  0.2318 -0.4754 -1.7705
  601MOL0     H81085   9.245   7.420   2.232 -1.0665  1.7180 -0.3914
  601MOL0     H81086   9.330   7.502   1.856  1.6359  2.8976 -1.0411
  601MOL0     H81087   9.545   7.563   1.744 -0.8157 -0.3714  0.3613
  601MOL0     H81088   9.586   7.720   1.821  1.5221  0.1785  0.4476
  601MOL0     H81089   9.766   7.645   1.942 -2.7810 -0.1356  0.0840
  601MOL0     H81090   9.755   7.479   1.879 -1.0768 -1.1261  0.4886
  601MOL0     H81091   9.792   7.733   1.706  1.6693 -0.2482 -2.2230
  601MOL0     H81092   9.775   7.566   1.639 -0.5361  1.1348 -0.2908
  601MOL0     H81093   9.995   7.681   1.818  0.3141  2.0370 -0.8087
  601MOL0     H81094   9.999   7.659   1.643  0.3540  0.7654  0.2916
  601MOL0     H81095   9.952   7.384   1.523 -1.4103 -2.9154  2.4300
  601MOL0     H81096  10.114   7.294   1.360  0.5012 -1.3432  0.4603
  601MOL0     H81097  10.510   7.020   1.329 -1.5927  3.0255 -0.7236
  601MOL0     H81098  10.710   6.883   1.286  1.6764 -0.9606  2.7754
  601MOL0     H81099  11.138   6.913   1.232 -0.1332  2.3694 -1.9629
  601MOL0     H81100  11.089   7.083   1.215  1.3462  2.7783  2.5229
  601MOL0     H81101  11.109   7.103   1.468  1.2916  0.1760 -1.0453
  601MOL0     H81102  11.151   6.931   1.474 -3.4559  0.0853  2.0110
  601MOL0     H81103  11.360   6.997   1.312 -0.9277  0.8990 -1.2443
  601MOL0     H81104  11.296   7.159   1.322 -0.5987  1.4737  2.5498
  601MOL0     H81105  11.413   6.978   1.537 -0.4690 -1.8817 -3.2355
  601MOL0     H81106  11.319   7.123   1.569  0.3038  1.5471 -0.8165
  601MOL0     H81107  11.546   7.192   1.585 -0.8066 -0.9219  0.3014
  601MOL0     H81108  11.457   7.279   1.460  2.6409  0.5667 -4.8096
  601MOL0     H81109  11.629   7.059   1.374  1.5728  0.1451 -2.1990
  601MOL0     H81110  11.551   7.172   1.269  2.0337 -2.0853 -1.6147
  601MOL0     H81111  11.770   7.226   1.488 -0.8999  0.0296  0.2611
  601MOL0     H81112  11.692   7.353   1.387  2.7517  0.6932  0.3501
  601MOL0     H81113  11.822   7.246   1.189  2.5083 -0.0381  0.3129
  601MOL0     H81114  11.922   7.296   1.329  0.2034  0.3449 -0.1939
  601MOL0     H81115  10.963   7.225   1.337  0.4495 -0.2294 -0.3662
  601MOL0     H81116  10.750   7.364   1.388 -0.6978 -0.6154  2.8323
  601MOL0     H81117  10.437   7.349   1.632  0.0786  0.0521  0.0805
  601MOL0     H81118  10.276   7.435   1.802  0.6057  0.4583  0.0704
  601MOL0     H81119   8.567   6.676   1.845 -0.2994  1.4563  0.6441
  601MOL0     H81120   8.319   6.591   1.799  0.0654  0.1296  1.5809
  601MOL0     H81121   8.036   6.512   1.692  0.2174  1.0106 -0.0994
  601MOL0     H81122   7.837   6.369   1.723  1.0194  0.4503  0.6760
  601MOL0     H81123   7.491   6.289   1.737 -2.2443  3.1060  2.1182
  601MOL0     H81124   7.649   6.287   1.648  0.7487  0.0809 -0.1330
  601MOL0     H81125   7.535   6.437   1.468 -1.2047 -0.5975 -1.4981
  601MOL0     H81126   7.390   6.400   1.553  1.9378  2.1100  3.5870
  601MOL0     H81127   7.404   6.253   1.373 -0.6143 -0.3413  0.8797
  601MOL0     H81128   7.410   6.164   1.529  2.3005  0.0427  2.0788
  601MOL0     H81129   7.656   6.243   1.380 -1.9480  0.4618 -0.1784
  601MOL0     H81130   7.634   6.121   1.508 -3.4948  0.0561  2.7531
  601MOL0     H81131   7.525   5.925   1.131 -0.1517  0.0839 -0.0169
  601MOL0     H81132   7.588   6.696   1.607  0.6423  3.3075  0.8429
  601MOL0     H81133   7.866   6.924   1.567  1.3345 -1.6872  1.8166
  601MOL0     H81134   7.682   6.884   1.553 -1.6532 -2.3736  1.2065
  601MOL0     H81135   7.761   6.941   1.703  1.9517 -1.6975  0.9393
  602MOL0     O81136   6.874  11.139   8.612  0.5146  0.1692 -0.6675
  602MOL0     C81137   6.828  11.166   8.500  0.7833 -0.3913  0.5624
  602MOL0     O81138   6.892  11.232   8.403  0.6692  0.6673 -0.6427
  602MOL0     C81139   7.011  11.288   8.436 -0.5072 -0.1759  0.4915
  602MOL0     C81140   7.035  11.412   8.376  0.7578  0.1938 -0.1960
  602MOL0     C81141   7.158  11.477   8.384 -0.2187  0.4238 -0.1474
  602MOL0     C81142   7.256  11.428   8.467 -0.5934  0.4883 -0.1841
  602MOL0     O81143   7.373  11.495   8.495 -0.2588  0.1372 -0.0243
  602MOL0     C81144   7.379  11.555   8.625  1.0963 -0.2133  0.2341
  602MOL0     C81145   7.519  11.559   8.673  0.0191 -0.4656 -0.3546
  602MOL0     C81146   7.579  11.420   8.678  0.4204  0.7471  1.0330
  602MOL0     C81147   7.725  11.420   8.742  0.6266 -0.3802  0.6692
  602MOL0     C81148   7.824  11.316   8.675 -0.1787 -0.4129 -0.6624
  602MOL0     C81149   7.970  11.326   8.743 -0.1666 -0.3881 -0.5379
  602MOL0     C81150   8.072  11.236   8.662 -0.3521 -0.0473  0.1587
  602MOL0     C81151   8.201  11.238   8.740 -0.1216  0.0815 -0.0419
  602MOL0     N81152   8.312  11.182   8.667 -0.1348  0.2681 -0.3601
  602MOL0     C81153   8.383  11.250   8.577 -0.5475  0.5240 -0.0251
  602MOL0     C81154   8.485  11.166   8.551  0.3011  0.4668  0.2244
  602MOL0     C81155   8.605  11.190   8.456  0.6659 -0.0590 -0.6793
  602MOL0     C81156   8.676  11.316   8.514 -0.0509  0.2379  0.3749
  602MOL0     C81157   8.790  11.371   8.443 -0.4354 -0.3369  0.0407
  602MOL0     C81158   8.868  11.474   8.523  0.1493 -0.5649  0.1709
  602MOL0     O81159   8.987  11.525   8.458 -0.1394 -0.1640 -0.0897
  602MOL0     C81160   9.119  11.474   8.488  0.5094  0.0183  0.4670
  602MOL0     C81161   9.226  11.536   8.432 -0.3199 -0.6260  0.2362
  602MOL0     C81162   9.355  11.480   8.441 -0.5981  0.0571 -0.6708
  602MOL0     C81163   9.382  11.354   8.513 -0.1124  0.5958 -0.8625
  602MOL0     C81164   9.520  11.300   8.521  0.3397 -0.8549  1.0526
  602MOL0     O81165   9.627  11.373   8.471 -0.4928  0.5146  0.0247
  602MOL0     C81166   9.756  11.327   8.497  0.1628 -0.0835 -0.9936
  602MOL0     C81167   9.850  11.323   8.395 -0.2115 -1.2730  0.5824
  602MOL0     C81168   9.991  11.304   8.419 -0.0807  0.1211  0.4048
  602MOL0     C81169  10.032  11.274   8.553  0.0588  0.1758  0.3546
  602MOL0     O81170  10.162  11.239   8.597  0.0564 -0.5470 -0.5821
  602MOL0     C81171  10.271  11.320   8.554 -0.1206 -0.4943  0.4378
  602MOL0     C81172  10.390  11.320   8.663 -0.2878 -0.1181  0.4779
  602MOL0     C81173  10.505  11.398   8.593  0.0712  0.2053  0.1881
  602MOL0     C81174  10.620  11.414   8.688 -0.1077  0.8536 -0.5832
  602MOL0     C81175  10.719  11.301   8.660  0.2438 -0.0229 -0.2746
  602MOL0     C81176  10.831  11.291   8.767 -0.3512  1.1390 -0.6133
  602MOL0     C81177  10.930  11.177   8.721  0.2780 -0.1730  0.4130
  602MOL0     C81178  11.069  11.193   8.770  1.0817  0.0045 -0.5389
  602MOL0    Cl81179  11.156  11.330   8.697 -0.1208  0.0847  0.5686
  602MOL0     C81180   9.937  11.272   8.652  0.3134  0.1934 -0.6740
  602MOL0     C81181   9.799  11.303   8.625  0.1427 -0.8373 -0.1499
  602MOL0     O81182   9.518  11.192   8.577  0.1613 -0.0036 -0.3116
  602MOL0     C81183   9.260  11.296   8.572 -0.9499  1.1095  0.0620
  602MOL0     C81184   9.137  11.351   8.559  0.5751  0.5012 -1.0184
  602MOL0     N81185   8.462  11.056   8.624 -0.1855  0.4315  0.1867
  602MOL0     N81186   8.357  11.063   8.701 -0.5355  0.2959  0.5379
  602MOL0     C81187   7.232  11.305   8.532  0.1872 -0.1156 -0.9868
  602MOL0     C81188   7.115  11.235   8.515  0.1786  0.9213  0.9032
  602MOL0     C81189   6.680  11.141   8.479  0.1634  0.0654  0.0499
  602MOL0     C81190   6.606  11.211   8.379  0.1410  0.0265 -0.3807
  602MOL0     C81191   6.475  11.179   8.341  0.8336  0.4431  0.6966
  602MOL0     C81192   6.399  11.086   8.413 -0.8356  0.8653  0.2336
  602MOL0     O81193   6.264  11.064   8.390  0.1142  0.5907 -0.4812
  602MOL0     C81194   6.177  10.992   8.483 -0.2871 -0.6808  0.3457
  602MOL0     C81195   6.196  10.841   8.473  1.1670  0.0128  0.1553
  602MOL0     C81196   6.166  10.813   8.327  0.1265 -0.5696  0.4890
  602MOL0     C81197   6.097  10.677   8.311 -0.1142  0.5073  0.1744
  602MOL0     C81198   5.959  10.690   8.345  0.0398 -0.3697 -0.1289
  602MOL0     C81199   5.847  10.713   8.380 -0.4773  0.0314  0.3111
  602MOL0     C81200   6.473  11.030   8.523 -1.1092  0.0309  0.4210
  602MOL0     C81201   6.612  11.045   8.553  0.5414  0.1955 -0.0228
  602MOL0     C81202   6.665  10.959   8.656 -0.2503  0.3963  0.2992
  602MOL0     H81203   6.952  11.461   8.326  0.8155  2.3494  1.6561
  602MOL0     H81204   7.161  11.567   8.323 -0.5676 -0.1160 -0.9703
  602MOL0     H81205   7.337  11.653   8.603  0.9358 -0.0324  1.2835
  602MOL0     H81206   7.318  11.519   8.709  0.8019 -0.8322 -0.2350
  602MOL0     H81207   7.525  11.605   8.773  0.5042 -1.1042 -0.0860
  602MOL0     H81208   7.581  11.628   8.614  0.2384 -1.5740 -1.4343
  602MOL0     H81209   7.582  11.395   8.571  0.7362 -2.8995  1.7544
  602MOL0     H81210   7.512  11.354   8.734  1.7924 -2.4859 -0.8230
  602MOL0     H81211   7.780  11.513   8.726 -0.4204 -0.2844 -3.6665
  602MOL0     H81212   7.711  11.397   8.848 -2.8316  0.6748  0.5667
  602MOL0     H81213   7.779  11.218   8.696 -0.9231  0.4480  2.0680
  602MOL0     H81214   7.829  11.332   8.567  4.6764 -0.5905 -0.6600
  602MOL0     H81215   8.006  11.429   8.749 -3.0450  0.8460 -2.5514
  602MOL0     H81216   7.962  11.289   8.845 -2.8798  1.1750 -0.0906
  602MOL0     H81217   8.075  11.291   8.567  1.5667  2.8204  1.7324
  602MOL0     H81218   8.035  11.133   8.659 -4.9384  1.4189 -0.7589
  602MOL0     H81219   8.221  11.342   8.768  1.0345 -0.5393  1.5456
  602MOL0     H81220   8.199  11.172   8.827  2.0324 -1.2759 -0.9532
  602MOL0     H81221   8.363  11.351   8.544  3.2475  1.0844 -1.0665
  602MOL0     H81222   8.669  11.101   8.453  0.7434 -0.0231 -0.2260
  602MOL0     H81223   8.562  11.201   8.356 -0.6867  1.8570  0.0646
  602MOL0     H81224   8.602  11.393   8.538 -2.3018 -1.3965 -0.9183
  602MOL0     H81225   8.711  11.295   8.616 -0.7175 -0.8338  0.3962
  602MOL0     H81226   8.770  11.424   8.350  2.0448 -2.2583 -1.7105
  602MOL0     H81227   8.850  11.284   8.415  0.3228 -0.0124  0.6454
  602MOL0     H81228   8.890  11.429   8.621 -1.4446  1.5466  1.5901
  602MOL0     H81229   8.797  11.554   8.543  0.9194  0.2677 -0.3275
  602MOL0     H81230   9.213  11.629   8.379  1.6528 -1.1747 -1.3370
  602MOL0     H81231   9.427  11.536   8.382 -4.3175  2.9134 -3.0228
  602MOL0     H81232   9.824  11.368   8.299 -2.3397  0.9313  2.0628
  602MOL0     H81233  10.069  11.317   8.345 -0.4271  0.4353  0.0939
  602MOL0     H81234  10.306  11.273   8.462 -1.4757 -1.6309  0.4557
  602MOL0     H81235  10.242  11.424   8.543 -0.7583 -0.5008  1.7614
  602MOL0     H81236  10.359  11.379   8.751  2.6278 -0.3503  1.7857
  602MOL0     H81237  10.418  11.221   8.700 -0.7401 -0.0928  0.9059
  602MOL0     H81238  10.534  11.341   8.505  2.5137 -0.1089  1.1255
  602MOL0     H81239  10.468  11.495   8.559 -1.0593 -1.0703 -2.4530
  602MOL0     H81240  10.588  11.402   8.791  1.8757 -1.3840 -0.1282
  602MOL0     H81241  10.668  11.513   8.680 -2.1538  1.8606 -1.0418
  602MOL0     H81242  10.767  11.314   8.563  1.6112  1.0776  0.5100
  602MOL0     H81243  10.658  11.211   8.674 -1.2298  0.9630 -0.0816
  602MOL0     H81244  10.881  11.388   8.767  3.3910 -0.5161 -3.8977
  602MOL0     H81245  10.793  11.259   8.865  4.1156  0.3932  1.0819
  602MOL0     H81246  10.928  11.163   8.613  1.5293 -0.1439  0.3767
  602MOL0     H81247  10.890  11.087   8.768  1.6720 -0.6200  0.7803
  602MOL0     H81248  11.064  11.216   8.877  4.9746  0.5428 -0.3163
  602MOL0     H81249  11.127  11.103   8.747 -0.1612 -1.0634  0.3775
  602MOL0     H81250   9.958  11.242   8.754 -0.0197  1.7672 -0.1167
  602MOL0     H81251   9.724  11.305   8.704 -2.3307  2.0608 -2.3318
  602MOL0     H81252   9.260  11.200   8.624 -0.7506  0.8670 -0.3801
  602MOL0     H81253   9.052  11.294   8.597 -1.2428  1.9561 -2.6859
  602MOL0     H81254   7.318  11.271   8.589 -0.1940  1.1744  0.4136
  602MOL0     H81255   7.115  11.129   8.541 -2.0960 -0.4692 -3.7273
  602MOL0     H81256   6.665  11.280   8.321  2.4505 -0.2016  1.5477
  602MOL0     H81257   6.432  11.228   8.254  0.6793  1.4829  1.3258
  602MOL0     H81258   6.071  11.016   8.471 -0.7747 -0.0135  4.5747
  602MOL0     H81259   6.196  11.020   8.587 -1.0078 -1.3714  0.6762
  602MOL0     H81260   6.125  10.792   8.540  0.6758 -1.0272 -1.0777
  602MOL0     H81261   6.299  10.811   8.493  1.6421  0.8453 -0.8938
  602MOL0     H81262   6.258  10.796   8.270 -0.7481 -1.3507 -0.7599
  602MOL0     H81263   6.113  10.893   8.274 -0.8851 -0.6222  1.3862
  602MOL0     H81264   6.101  10.641   8.208 -2.1843 -0.3693  0.3491
  602MOL0     H81265   6.154  10.598   8.362  0.4848  1.6787  1.3914
  602MOL0     H81266   5.750  10.744   8.413 -1.2474 -1.4092 -0.5545
  602MOL0     H81267   6.416  10.965   8.589  0.5956  0.5435  2.5253
  602MOL0     H81268   6.762  10.915   8.633 -0.8944 -0.5661 -0.6603
  602MOL0     H81269   6.667  11.020   8.747 -2.1839 -0.0231  0.6568
  602MOL0     H81270   6.593  10.882   8.687 -1.0706  1.5746  1.4430
  603MOL0     O81271   7.204   2.180   9.142 -0.3465 -0.5008  0.0601
  603MOL0     C81272   7.283   2.129   9.062  0.5232  0.2745 -0.2170
  603MOL0     O81273   7.256   2.024   8.974  0.0421  0.3501 -0.2726
  603MOL0     C81274   7.141   1.949   8.994  0.1065 -0.5351 -0.0899
  603MOL0     C81275   7.008   1.997   8.968 -0.4733 -0.0121  0.4153
  603MOL0     C81276   6.898   1.916   8.979  0.0419 -0.1198 -0.2191
  603MOL0     C81277   6.906   1.781   9.008 -0.0491  0.4968 -0.1134
  603MOL0     O81278   6.786   1.713   8.991 -0.2501 -0.2116 -0.4901
  603MOL0     C81279   6.772   1.579   9.026 -0.5157  0.8627  0.2116
  603MOL0     C81280   6.649   1.530   8.948  0.8913  0.2151 -0.7885
  603MOL0     C81281   6.608   1.389   8.983 -0.7283  0.1859 -0.5136
  603MOL0     C81282   6.485   1.344   8.894 -0.7730 -0.1768 -0.2259
  603MOL0     C81283   6.420   1.220   8.952 -0.6370  0.1679  0.5235
  603MOL0     C81284   6.306   1.241   9.046 -0.1658 -0.2360  0.4500
  603MOL0     C81285   6.234   1.114   9.073  0.1999  0.1450 -0.6045
  603MOL0     C81286   6.111   1.130   9.160  0.2038 -0.7929 -0.5521
  603MOL0     N81287   6.131   1.149   9.298  0.3488  0.0299  0.0555
  603MOL0     C81288   6.163   1.262   9.364 -0.2344  0.4012 -0.0821
  603MOL0     C81289   6.198   1.208   9.487  0.7242 -0.0711  0.3750
  603MOL0     C81290   6.259   1.297   9.592 -0.0020  1.0423  0.4266
  603MOL0     C81291   6.190   1.430   9.599  0.0665  0.1622  0.8413
  603MOL0     C81292   6.208   1.490   9.739  0.1682  0.3260 -0.3543
  603MOL0     C81293   6.233   1.637   9.739  0.7223 -0.5098 -0.5356
  603MOL0     O81294   6.271   1.666   9.881  0.1276  0.9612  0.0949
  603MOL0     C81295   6.335   1.785   9.904 -0.7586 -0.3904  0.3874
  603MOL0     C81296   6.395   1.815  10.029  0.3409  0.4441 -0.0165
  603MOL0     C81297   6.443   1.945  10.061  0.7423  0.8220  0.2192
  603MOL0     C81298   6.429   2.047   9.963 -0.2061  0.2906  1.0769
  603MOL0     C81299   6.485   2.176   9.977 -0.6082 -0.2041 -0.8274
  603MOL0     O81300   6.480   2.272   9.877  0.4643  0.7315 -0.2559
  603MOL0     C81301   6.536   2.388   9.894 -0.4748  0.6501  0.0298
  603MOL0     C81302   6.485   2.484   9.991 -0.1351  0.4257 -1.1202
  603MOL0     C81303   6.536   2.619   9.994  0.0565  0.4425  0.0622
  603MOL0     C81304   6.645   2.658   9.914 -0.2270  0.1954  0.0592
  603MOL0     O81305   6.709   2.777   9.917 -0.2321  0.1993  0.3373
  603MOL0     C81306   6.647   2.883   9.988  0.7810  0.2183 -0.8469
  603MOL0     C81307   6.732   3.009   9.981  0.4034  0.1838  0.0348
  603MOL0     C81308   6.883   2.984   9.987  0.5720 -0.6804 -0.1384
  603MOL0     C81309   6.941   3.124   9.986 -0.2478  0.6149  0.2297
  603MOL0     C81310   7.092   3.118   9.959 -0.1919 -0.1842  0.2982
  603MOL0     C81311   7.164   3.257   9.950 -0.0994  0.9490  0.4154
  603MOL0     C81312   7.317   3.228   9.913  0.4418  0.9217 -0.3170
  603MOL0     C81313   7.383   3.352   9.879 -0.8376  0.1424  0.1185
  603MOL0    Cl81314   7.408   3.450  10.031 -0.5749  0.0567  0.1643
  603MOL0     C81315   6.681   2.567   9.811 -0.0256  1.0690  1.2875
  603MOL0     C81316   6.630   2.433   9.795  0.5787 -0.8986 -0.3386
  603MOL0     O81317   6.529   2.203  10.091 -0.1105 -0.1277 -0.2854
  603MOL0     C81318   6.368   2.013   9.840 -0.9714 -1.0338 -0.2443
  603MOL0     C81319   6.321   1.886   9.808  0.1996  0.7214 -0.3375
  603MOL0     N81320   6.165   1.072   9.500 -0.1337  0.7714 -0.2206
  603MOL0     N81321   6.126   1.050   9.378 -0.4219 -0.0939 -0.3665
  603MOL0     C81322   7.034   1.729   9.033 -0.1072 -0.4192 -0.1914
  603MOL0     C81323   7.148   1.815   9.036  0.7998 -0.1610 -0.5944
  603MOL0     C81324   7.419   2.191   9.035  0.0965 -0.5101 -0.0903
  603MOL0     C81325   7.427   2.335   9.015 -0.1252 -0.4205 -0.0465
  603MOL0     C81326   7.546   2.392   8.978 -0.1955  0.1137  0.6650
  603MOL0     C81327   7.666   2.319   8.990  0.4113 -1.1142  0.3257
  603MOL0     O81328   7.792   2.368   8.961 -0.1011  0.0995  0.0089
  603MOL0     C81329   7.806   2.493   8.895 -0.6187 -0.0617  0.2570
  603MOL0     C81330   7.953   2.541   8.872  0.7870 -0.4682  0.4753
  603MOL0     C81331   8.040   2.541   8.999  0.7558 -0.1245 -0.3169
  603MOL0     C81332   8.180   2.599   8.988  0.0679  0.0894  0.2350
  603MOL0     C81333   8.256   2.541   8.877 -0.8950  0.0421 -0.2036
  603MOL0     C81334   8.323   2.507   8.776  0.0451 -0.3979 -0.9472
  603MOL0     C81335   7.658   2.185   9.025 -1.0984  0.0022  0.1458
  603MOL0     C81336   7.538   2.119   9.034 -0.6659  0.8140 -0.6937
  603MOL0     C81337   7.536   1.963   9.041  0.0099 -0.2231  0.1928
  603MOL0     H81338   7.003   2.104   8.953 -2.3709  0.2476  2.3487
  603MOL0     H81339   6.804   1.968   8.967  1.2583  1.8529 -1.9091
  603MOL0     H81340   6.856   1.520   8.989 -0.6500  0.5431  0.4087
  603MOL0     H81341   6.757   1.559   9.133  1.2092 -2.7439 -0.0825
  603MOL0     H81342   6.664   1.550   8.841  0.3711  0.0726 -0.8866
  603MOL0     H81343   6.569   1.597   8.981 -0.2839 -0.4312 -2.2477
  603MOL0     H81344   6.577   1.393   9.087 -3.3257 -0.1100 -1.2102
  603MOL0     H81345   6.689   1.315   8.976 -0.4830  0.0029  2.8795
  603MOL0     H81346   6.412   1.423   8.873 -1.4300 -0.2792  1.5625
  603MOL0     H81347   6.529   1.321   8.796  0.1922  1.7247 -0.2845
  603MOL0     H81348   6.392   1.152   8.870  0.8454  0.2848 -0.1305
  603MOL0     H81349   6.481   1.151   9.012 -2.5271 -1.2659  0.8734
  603MOL0     H81350   6.340   1.292   9.137  0.7579  0.4208 -0.2370
  603MOL0     H81351   6.236   1.307   8.994  1.0451 -1.9461 -3.7052
  603MOL0     H81352   6.309   1.044   9.111  0.5998  1.3086  0.8514
  603MOL0     H81353   6.200   1.071   8.978 -0.3155  1.4714 -1.0398
  603MOL0     H81354   6.055   1.215   9.121  1.1495 -0.3003 -0.8614
  603MOL0     H81355   6.051   1.039   9.169  0.0279 -0.6998 -0.7784
  603MOL0     H81356   6.177   1.365   9.333  3.7036  0.0115 -0.0869
  603MOL0     H81357   6.260   1.238   9.685  2.2962 -0.0813 -0.2364
  603MOL0     H81358   6.364   1.322   9.575  0.1047 -0.6542 -1.9059
  603MOL0     H81359   6.226   1.498   9.521  1.1381  1.7995  2.6698
  603MOL0     H81360   6.082   1.414   9.601  0.1740 -0.7231  3.4918
  603MOL0     H81361   6.302   1.444   9.773  1.0932  1.2135 -1.6042
  603MOL0     H81362   6.132   1.471   9.815  1.3269  0.1315  0.7815
  603MOL0     H81363   6.146   1.693   9.701  1.4343 -2.2058 -5.3464
  603MOL0     H81364   6.318   1.660   9.674  1.1006  3.3336  1.0398
  603MOL0     H81365   6.409   1.736  10.102  1.7818  0.4410 -0.2709
  603MOL0     H81366   6.476   1.962  10.164  0.9434 -2.2599  0.7507
  603MOL0     H81367   6.403   2.451  10.053 -0.3489  1.4238 -0.8504
  603MOL0     H81368   6.500   2.687  10.070 -1.2181  1.2752 -1.2468
  603MOL0     H81369   6.561   2.916   9.929  0.0626  0.3652  0.2537
  603MOL0     H81370   6.630   2.860  10.094 -0.6206  2.1981 -0.5840
  603MOL0     H81371   6.705   3.052   9.884 -0.7166 -0.5351  0.0080
  603MOL0     H81372   6.698   3.074  10.063 -0.7045 -0.0484 -0.2288
  603MOL0     H81373   6.913   2.933  10.078  0.6429 -1.8431 -0.7993
  603MOL0     H81374   6.910   2.928   9.896  0.2256 -2.3256  0.7376
  603MOL0     H81375   6.916   3.170  10.082 -1.2913  0.9686 -0.1918
  603MOL0     H81376   6.902   3.178   9.899  4.8583 -0.1732 -2.9724
  603MOL0     H81377   7.116   3.073   9.863  0.0163  0.6030 -0.0316
  603MOL0     H81378   7.138   3.054  10.034 -0.1382  0.2301  0.6259
  603MOL0     H81379   7.119   3.317   9.870 -3.3513  0.0029  1.3774
  603MOL0     H81380   7.162   3.306  10.048  0.5931  0.6526  0.5852
  603MOL0     H81381   7.323   3.157   9.829 -1.1390 -0.8237  0.9512
  603MOL0     H81382   7.374   3.176   9.990  1.4979  0.2060 -1.5379
  603MOL0     H81383   7.483   3.342   9.837  0.4473 -3.0180  3.4173
  603MOL0     H81384   7.321   3.423   9.822  1.1826  1.3253 -0.6917
  603MOL0     H81385   6.761   2.599   9.744 -1.9854  2.6106 -0.4917
  603MOL0     H81386   6.675   2.373   9.717 -1.0248 -0.9031 -1.2892
  603MOL0     H81387   6.347   2.095   9.772 -1.8918 -2.7604 -2.1358
  603MOL0     H81388   6.271   1.881   9.712  0.7406  1.5989 -0.6692
  603MOL0     H81389   7.029   1.624   9.062 -2.0033 -0.4953 -0.6589
  603MOL0     H81390   7.246   1.779   9.066  0.5050  0.9935  2.0675
  603MOL0     H81391   7.334   2.391   9.015 -0.8803 -1.5613 -1.7532
  603MOL0     H81392   7.550   2.495   8.944  1.4352 -0.3868 -0.7597
  603MOL0     H81393   7.753   2.572   8.948  3.0423  2.2847  0.7497
  603MOL0     H81394   7.756   2.497   8.797 -0.0641  3.8531 -0.0225
  603MOL0     H81395   7.951   2.639   8.824  0.4340 -1.0879 -0.8089
  603MOL0     H81396   8.006   2.473   8.805 -1.2059 -0.1967 -1.5096
  603MOL0     H81397   8.050   2.439   9.038 -1.2630  0.1777  1.1765
  603MOL0     H81398   7.974   2.594   9.069 -0.4754  0.5491 -1.9156
  603MOL0     H81399   8.179   2.705   8.961 -0.4091 -0.7425 -3.6893
  603MOL0     H81400   8.223   2.560   9.080 -2.5707 -2.6138  0.4962
  603MOL0     H81401   8.381   2.477   8.691 -0.4515 -1.5473 -0.8977
  603MOL0     H81402   7.750   2.128   9.033 -2.5878 -2.2633  2.5952
  603MOL0     H81403   7.492   1.931   8.946 -0.5334 -2.0334  1.0251
  603MOL0     H81404   7.632   1.914   9.060 -0.8927 -2.9636 -1.6661
  603MOL0     H81405   7.468   1.927   9.119  0.0995 -2.1260 -0.5428
  604MOL0     O81406  11.120   2.735   0.042 -0.5135 -0.4532 -0.1338
  604MOL0     C81407  11.108   2.616   0.078 -0.1512  0.1681 -0.1268
  604MOL0     O81408  11.206   2.547   0.135 -0.0245 -0.3708  0.4178
  604MOL0     C81409  11.334   2.605   0.125  0.6461  0.6027 -0.4383
  604MOL0     C81410  11.405   2.608   0.007  0.1549  0.2300  0.1150
  604MOL0     C81411  11.533   2.665   0.003 -0.1154 -1.0664  0.0077
  604MOL0     C81412  11.587   2.722   0.122  0.2161 -0.2332 -0.4725
  604MOL0     O81413  11.701   2.796   0.124  0.2347  0.2966  0.3383
  604MOL0     C81414  11.720   2.877   0.012 -0.4720 -0.7746 -0.0832
  604MOL0     C81415  11.849   2.962   0.042 -0.4664  0.7335  0.0126
  604MOL0     C81416  11.990   2.909   0.015  0.5031 -0.4625  0.3789
  604MOL0     C81417  12.034   2.837   0.139  0.1889  0.0463 -0.1970
  604MOL0     C81418  12.167   2.764   0.126 -0.3085  0.5616 -0.2898
  604MOL0     C81419  12.289   2.840   0.085  0.7363  0.2999 -0.1269
  604MOL0     C81420  12.414   2.752   0.075 -0.5227 -0.6925  0.0600
  604MOL0     C81421  12.519   2.834  -0.000  0.0801 -0.0793  0.3881
  604MOL0     N81422  12.642   2.747   0.002  0.4868 -0.6173 -0.3124
  604MOL0     C81423  12.767   2.799   0.010  0.4886  0.3944  0.6871
  604MOL0     C81424  12.858   2.687   0.006  0.1664  0.8387 -0.3292
  604MOL0     C81425  13.007   2.687   0.008  0.3162 -0.3016 -0.7461
  604MOL0     C81426  13.061   2.656  -0.129  0.6254  0.7008 -0.5388
  604MOL0     C81427  13.037   2.518  -0.184 -0.6551  0.4716  0.3532
  604MOL0     C81428  13.129   2.480  -0.303 -0.4978 -0.2932  0.0596
  604MOL0     O81429  13.275   2.491  -0.280  0.4968 -0.2163  0.9163
  604MOL0     C81430  13.353   2.379  -0.261 -0.1249 -0.1771 -0.5927
  604MOL0     C81431  13.313   2.245  -0.236 -0.1744 -0.0371  0.1962
  604MOL0     C81432  13.403   2.144  -0.216  0.2191  0.0846 -0.2683
  604MOL0     C81433  13.538   2.166  -0.215 -0.4521 -0.4739  0.3988
  604MOL0     C81434  13.637   2.061  -0.189  0.7346  0.5091  0.8800
  604MOL0     O81435  13.583   1.937  -0.159 -0.2661 -0.4610 -0.2591
  604MOL0     C81436  13.658   1.828  -0.189  0.0648  0.4533  0.8506
  604MOL0     C81437  13.612   1.732  -0.281  0.5909  0.3841 -0.3257
  604MOL0     C81438  13.675   1.617  -0.295  0.5956  0.0929  0.7388
  604MOL0     C81439  13.794   1.591  -0.220 -0.4282  0.1631 -0.0510
  604MOL0     O81440  13.876   1.479  -0.248  0.7702  0.0394  0.4427
  604MOL0     C81441  14.001   1.463  -0.185  0.4666  0.0219  0.9250
  604MOL0     C81442  14.052   1.321  -0.219 -0.1599  0.6234 -1.0483
  604MOL0     C81443  14.125   1.315  -0.347 -0.9521 -0.3615  1.2627
  604MOL0     C81444  14.274   1.352  -0.336  0.0534 -0.3424 -0.8093
  604MOL0     C81445  14.370   1.353  -0.456 -0.2787  0.0142 -0.9473
  604MOL0     C81446  14.342   1.466  -0.549 -0.4892 -0.8742  0.1452
  604MOL0     C81447  14.444   1.485  -0.661 -0.5272 -0.1531 -0.1239
  604MOL0     C81448  14.380   1.523  -0.798  0.1114  0.7270  1.5381
  604MOL0    Cl81449  14.506   1.472  -0.920 -0.1278  0.1636  0.2278
  604MOL0     C81450  13.836   1.689  -0.125 -0.3409  0.3455 -0.1341
  604MOL0     C81451  13.769   1.802  -0.108  0.4857 -0.0694  0.2702
  604MOL0     O81452  13.760   2.086  -0.191  0.8118 -0.3432 -0.1093
  604MOL0     C81453  13.585   2.302  -0.234  0.8060 -0.7017 -0.2255
  604MOL0     C81454  13.490   2.398  -0.268  0.1216  0.2447 -0.5910
  604MOL0     N81455  12.773   2.577  -0.001 -1.0547 -0.0541 -0.4360
  604MOL0     N81456  12.655   2.613  -0.007  0.3362 -0.2099  0.5405
  604MOL0     C81457  11.515   2.723   0.237 -0.0145  0.4733 -0.3186
  604MOL0     C81458  11.388   2.660   0.238  0.3402  0.8405 -0.3918
  604MOL0     C81459  10.960   2.570   0.082 -0.2444  0.2430 -0.5398
  604MOL0     C81460  10.926   2.497   0.196 -0.6346  0.5522 -0.6173
  604MOL0     C81461  10.797   2.462   0.216  0.1483  0.3779 -0.1887
  604MOL0     C81462  10.690   2.503   0.126 -0.0839  0.1693 -0.2688
  604MOL0     O81463  10.557   2.473   0.134 -0.4766 -0.2612  0.6549
  604MOL0     C81464  10.517   2.422   0.261 -0.2219 -0.3031 -0.1433
  604MOL0     C81465  10.523   2.521   0.383  0.0155  0.2697  0.0288
  604MOL0     C81466  10.477   2.666   0.357 -0.0773 -0.2660  0.1310
  604MOL0     C81467  10.452   2.756   0.478 -0.1512  0.7418 -0.2407
  604MOL0     C81468  10.353   2.870   0.442  0.4339  0.3598 -0.0326
  604MOL0     C81469  10.278   2.965   0.414  0.1186  1.0286  0.1905
  604MOL0     C81470  10.727   2.572   0.008 -0.1817 -0.0059 -1.1197
  604MOL0     C81471  10.859   2.611  -0.008  0.5458 -0.4418 -0.1612
  604MOL0     C81472  10.880   2.696  -0.129 -0.8737  0.3526 -0.6083
  604MOL0     H81473  11.367   2.562  -0.084  1.1326 -0.9792  0.2913
  604MOL0     H81474  11.581   2.672  -0.095  1.0711 -3.2485  0.3755
  604MOL0     H81475  11.728   2.814  -0.077  1.0849 -0.0710 -0.4715
  604MOL0     H81476  11.634   2.942  -0.005 -0.9515 -1.1094  0.9504
  604MOL0     H81477  11.845   2.997   0.145  0.6180 -2.9217  1.4518
  604MOL0     H81478  11.837   3.051  -0.022 -1.3896  2.1418  2.0391
  604MOL0     H81479  12.059   2.991  -0.007 -3.8556  3.4881  0.0959
  604MOL0     H81480  11.988   2.829  -0.060  0.3114 -0.3150  0.2273
  604MOL0     H81481  12.052   2.917   0.211  0.4283 -0.7564  0.6476
  604MOL0     H81482  11.951   2.773   0.166  1.2246 -1.9491 -1.5167
  604MOL0     H81483  12.186   2.731   0.229 -2.0587  2.1213  0.6060
  604MOL0     H81484  12.162   2.671   0.068  2.3721  0.3674 -0.3458
  604MOL0     H81485  12.277   2.874  -0.018 -2.4072  0.3914  0.1725
  604MOL0     H81486  12.301   2.926   0.151  0.4402  2.8527 -3.1823
  604MOL0     H81487  12.402   2.654   0.027  3.8698 -1.5779  0.3334
  604MOL0     H81488  12.448   2.734   0.177 -0.6573 -1.4970 -0.0279
  604MOL0     H81489  12.478   2.857  -0.099 -0.7152 -0.7208  0.5580
  604MOL0     H81490  12.535   2.933   0.044  1.3492  0.5282 -1.3437
  604MOL0     H81491  12.787   2.905   0.011  0.7007  0.3729 -0.1436
  604MOL0     H81492  13.030   2.791   0.035  0.8891 -0.1463 -1.8023
  604MOL0     H81493  13.044   2.613   0.079 -1.7532  0.4589  1.2843
  604MOL0     H81494  13.022   2.733  -0.195 -0.4711  0.2697 -0.4199
  604MOL0     H81495  13.169   2.663  -0.108  0.6248  2.2034 -0.9956
  604MOL0     H81496  12.938   2.502  -0.228 -0.7268  2.2674 -0.2504
  604MOL0     H81497  13.062   2.443  -0.109  0.4302 -2.2291 -2.5296
  604MOL0     H81498  13.105   2.558  -0.376 -0.7417  1.6438  2.0965
  604MOL0     H81499  13.097   2.389  -0.355  1.3522 -1.1874  0.3816
  604MOL0     H81500  13.208   2.218  -0.231 -0.1128 -0.5918 -1.0106
  604MOL0     H81501  13.366   2.045  -0.191 -0.6983  0.3968 -0.3247
  604MOL0     H81502  13.527   1.760  -0.343  1.9122  0.4899 -2.1987
  604MOL0     H81503  13.652   1.554  -0.381  0.4890 -1.0473  1.5746
  604MOL0     H81504  14.066   1.547  -0.211  1.9601 -1.4836 -0.4973
  604MOL0     H81505  13.988   1.463  -0.077 -0.4288 -1.7561  0.8656
  604MOL0     H81506  14.118   1.282  -0.141  0.6560 -1.9267 -2.8759
  604MOL0     H81507  13.970   1.249  -0.218 -1.3770  1.8977  1.5371
  604MOL0     H81508  14.118   1.215  -0.391 -0.3347  0.4753 -0.8540
  604MOL0     H81509  14.085   1.380  -0.426 -0.3844 -0.7771  0.6182
  604MOL0     H81510  14.322   1.287  -0.263 -1.9366 -2.3810 -1.2196
  604MOL0     H81511  14.277   1.453  -0.293  0.7844 -0.7102  0.0380
  604MOL0     H81512  14.372   1.255  -0.504  0.4704  0.5695 -2.0764
  604MOL0     H81513  14.469   1.371  -0.414  0.4919  0.0047 -2.6695
  604MOL0     H81514  14.246   1.452  -0.600 -0.3636  1.3095 -0.8052
  604MOL0     H81515  14.337   1.566  -0.506  0.2917  0.6320 -2.9041
  604MOL0     H81516  14.514   1.401  -0.657 -0.1590  0.1930  2.0597
  604MOL0     H81517  14.502   1.575  -0.639  3.0960 -1.7055 -2.3712
  604MOL0     H81518  14.289   1.465  -0.820  0.2712  1.3710 -1.1202
  604MOL0     H81519  14.363   1.630  -0.809 -1.0947  0.2673 -2.7102
  604MOL0     H81520  13.925   1.681  -0.064  0.4061  2.2809 -0.8968
  604MOL0     H81521  13.817   1.859  -0.029  2.3537 -2.2075  0.7877
  604MOL0     H81522  13.691   2.321  -0.250  0.3348  0.3462 -2.3951
  604MOL0     H81523  13.514   2.502  -0.286  1.1152  0.1216 -0.0693
  604MOL0     H81524  11.558   2.760   0.329  0.5310  0.9482 -0.7509
  604MOL0     H81525  11.330   2.645   0.329  1.6396 -2.5288  0.0366
  604MOL0     H81526  11.004   2.456   0.259 -1.3368  3.1762  2.1904
  604MOL0     H81527  10.766   2.415   0.309  1.4983 -0.2331 -0.0337
  604MOL0     H81528  10.567   2.327   0.279  0.8134  0.1797 -0.3832
  604MOL0     H81529  10.410   2.401   0.255 -0.7599  2.3380 -1.3034
  604MOL0     H81530  10.621   2.523   0.431  0.4103 -3.6363 -0.3218
  604MOL0     H81531  10.459   2.477   0.460  2.5836 -2.0459  0.9640
  604MOL0     H81532  10.388   2.652   0.294 -0.2195  1.7901 -0.2044
  604MOL0     H81533  10.541   2.721   0.288 -0.4211 -2.2892 -1.9419
  604MOL0     H81534  10.410   2.707   0.566 -0.6082 -1.4092 -1.5732
  604MOL0     H81535  10.551   2.793   0.509  0.8951 -1.7693 -0.3889
  604MOL0     H81536  10.216   3.040   0.370 -1.0861 -1.1424 -2.1258
  604MOL0     H81537  10.649   2.604  -0.060 -0.7729  0.7105 -0.1449
  604MOL0     H81538  10.821   2.673  -0.218  0.0416 -1.5621 -0.7731
  604MOL0     H81539  10.839   2.794  -0.102 -1.2036  0.4638 -1.4693
  604MOL0     H81540  10.986   2.712  -0.154 -0.8906  1.2584 -0.1634
  605MOL0     O81541  10.179  10.663  11.242 -0.1469 -0.0014 -0.6739
  605MOL0     C81542  10.134  10.559  11.192 -0.1867 -1.1165 -0.3228
  605MOL0     O81543  10.195  10.439  11.213 -0.5822  0.1350  0.5421
  605MOL0     C81544  10.307  10.433  11.288 -0.7561 -0.3242  1.0954
  605MOL0     C81545  10.434  10.386  11.242  0.5815 -0.3753 -0.0905
  605MOL0     C81546  10.548  10.367  11.324  0.6973 -0.0194  0.4126
  605MOL0     C81547  10.528  10.389  11.460 -1.5469  0.5182  0.0925
  605MOL0     O81548  10.629  10.371  11.549  0.1583  0.3764  0.2366
  605MOL0     C81549  10.602  10.330  11.685  0.4456 -0.4208  0.0678
  605MOL0     C81550  10.699  10.244  11.759 -0.5015 -0.2068  0.4871
  605MOL0     C81551  10.833  10.320  11.772  0.1682  0.8879  0.4423
  605MOL0     C81552  10.954  10.232  11.828 -1.1243  0.3730  0.2513
  605MOL0     C81553  11.073  10.317  11.843 -0.2068 -0.0858  0.7186
  605MOL0     C81554  11.199  10.245  11.885 -0.1326  0.4374  0.3089
  605MOL0     C81555  11.324  10.335  11.859 -0.7143  0.8161 -0.2744
  605MOL0     C81556  11.455  10.251  11.878 -0.2090  0.0047  0.3925
  605MOL0     N81557  11.572  10.317  11.824  0.2473 -0.1438  0.0362
  605MOL0     C81558  11.634  10.428  11.880  0.9773  0.0150 -0.5434
  605MOL0     C81559  11.741  10.450  11.800  0.2259  0.4418 -0.6413
  605MOL0     C81560  11.839  10.556  11.822  0.1555 -0.0261 -1.0248
  605MOL0     C81561  11.944  10.522  11.926  0.1987  0.1722  0.1591
  605MOL0     C81562  12.054  10.633  11.925 -0.1033  0.2118 -0.1458
  605MOL0     C81563  12.164  10.585  12.013 -0.6881  0.5439  0.3999
  605MOL0     O81564  12.269  10.673  12.020 -0.1091 -0.6531 -0.1548
  605MOL0     C81565  12.362  10.630  12.108  0.6583 -0.9726  0.9635
  605MOL0     C81566  12.346  10.524  12.203  0.1957  0.0137  0.0540
  605MOL0     C81567  12.442  10.487  12.290 -1.0522  0.5026 -0.6964
  605MOL0     C81568  12.567  10.552  12.294  0.0455  1.1335  0.2238
  605MOL0     C81569  12.676  10.511  12.380 -0.5158  1.0868  0.0565
  605MOL0     O81570  12.803  10.552  12.343 -0.1046 -0.3417 -0.2385
  605MOL0     C81571  12.919  10.496  12.393  0.3588  0.3511 -0.8775
  605MOL0     C81572  12.930  10.369  12.433 -0.2152  0.5956 -0.2910
  605MOL0     C81573  13.048  10.310  12.481  0.9021  0.2742  0.2220
  605MOL0     C81574  13.168  10.390  12.485  0.5313 -0.1469 -0.4322
  605MOL0     O81575  13.293  10.352  12.520  0.2519 -0.0432  0.3092
  605MOL0     C81576  13.299  10.230  12.600 -0.6125  0.5089 -0.0273
  605MOL0     C81577  13.432  10.203  12.664 -0.2318 -0.2936 -1.2417
  605MOL0     C81578  13.473  10.067  12.715  0.8889  0.8060 -0.2970
  605MOL0     C81579  13.622  10.064  12.763  0.0414  0.5539 -0.2795
  605MOL0     C81580  13.674   9.926  12.797  0.4538  0.5572  0.3597
  605MOL0     C81581  13.807   9.928  12.871  0.2805 -0.3830  0.1140
  605MOL0     C81582  13.871   9.794  12.893  0.7041 -0.0589 -0.3552
  605MOL0     C81583  14.017   9.807  12.907  0.4697  0.0110 -0.1984
  605MOL0    Cl81584  14.058   9.915  13.043 -0.2767 -0.3038  0.6123
  605MOL0     C81585  13.150  10.528  12.448 -0.8441  0.9205  0.3636
  605MOL0     C81586  13.030  10.579  12.393 -0.6033 -0.3221 -0.1538
  605MOL0     O81587  12.645  10.421  12.469 -0.0316  0.0156 -0.0492
  605MOL0     C81588  12.584  10.656  12.190 -0.0492  0.2067 -0.1886
  605MOL0     C81589  12.484  10.686  12.099  0.3242 -0.2588 -0.8908
  605MOL0     N81590  11.748  10.358  11.695  0.2389  0.8337 -0.3472
  605MOL0     N81591  11.651  10.273  11.716  0.6476  0.0864 -0.1773
  605MOL0     C81592  10.405  10.442  11.511 -0.2301 -0.3754 -0.5939
  605MOL0     C81593  10.294  10.460  11.424 -1.2878  0.5168 -0.4972
  605MOL0     C81594  10.018  10.567  11.115  1.3687  0.2749 -0.4012
  605MOL0     C81595   9.948  10.452  11.080  0.4558 -0.0526  0.1684
  605MOL0     C81596   9.823  10.451  11.017  0.2862 -0.3963  0.6801
  605MOL0     C81597   9.761  10.568  10.999 -0.0687 -0.7633  1.1026
  605MOL0     O81598   9.633  10.557  10.948 -0.2680  0.2277 -0.7217
  605MOL0     C81599   9.570  10.669  10.887  0.6056 -0.4160  0.3335
  605MOL0     C81600   9.508  10.627  10.757  0.6580 -0.7147  0.7651
  605MOL0     C81601   9.369  10.548  10.779 -0.1607 -0.6981  0.5762
  605MOL0     C81602   9.323  10.495  10.637 -0.2930 -0.3067 -0.8664
  605MOL0     C81603   9.179  10.507  10.612 -1.0417  0.1107  0.0907
  605MOL0     C81604   9.062  10.526  10.589 -0.6974  0.6732 -0.9872
  605MOL0     C81605   9.828  10.688  11.014  1.2720 -0.1950 -0.5725
  605MOL0     C81606   9.955  10.688  11.076  0.0273  0.0860  0.1500
  605MOL0     C81607  10.023  10.825  11.085  0.5898 -0.1066 -0.7265
  605MOL0     H81608  10.444  10.368  11.135  0.0727  0.2692 -0.2527
  605MOL0     H81609  10.646  10.350  11.279  1.3181 -0.0365  1.7191
  605MOL0     H81610  10.577  10.415  11.749 -1.3793 -1.9120  1.4531
  605MOL0     H81611  10.512  10.271  11.702  1.8490 -2.3030  1.4587
  605MOL0     H81612  10.706  10.147  11.709  1.9646  0.5466 -0.7783
  605MOL0     H81613  10.657  10.218  11.856 -1.8969 -0.7521 -0.2278
  605MOL0     H81614  10.814  10.406  11.837 -0.7759  1.3298 -0.3823
  605MOL0     H81615  10.860  10.349  11.670 -0.5639 -0.4499 -0.1682
  605MOL0     H81616  10.933  10.188  11.926  1.8697 -1.9560 -0.0069
  605MOL0     H81617  10.967  10.149  11.758  0.5239  0.9248 -0.1219
  605MOL0     H81618  11.090  10.358  11.743  0.2488 -3.3410 -0.6470
  605MOL0     H81619  11.056  10.406  11.904  2.7895  1.8712 -1.0092
  605MOL0     H81620  11.195  10.221  11.992  3.9824  1.0399  0.7726
  605MOL0     H81621  11.202  10.157  11.821 -3.0098 -0.6366  1.5061
  605MOL0     H81622  11.320  10.418  11.929 -2.8984  0.6907 -0.2049
  605MOL0     H81623  11.323  10.373  11.756 -1.5048 -1.5192 -1.2004
  605MOL0     H81624  11.473  10.235  11.984 -2.2474 -3.1546  0.3965
  605MOL0     H81625  11.437  10.156  11.827 -0.0556 -0.4518  1.1766
  605MOL0     H81626  11.599  10.485  11.965 -2.7740 -1.8042 -0.6633
  605MOL0     H81627  11.885  10.580  11.726 -1.4923  1.5233 -1.4796
  605MOL0     H81628  11.791  10.645  11.862 -0.4133 -1.4292  1.6277
  605MOL0     H81629  11.883  10.513  12.016 -1.2614  4.5000 -0.1777
  605MOL0     H81630  11.987  10.425  11.897  0.6209 -0.0339  1.4237
  605MOL0     H81631  12.016  10.729  11.962 -0.9043 -0.3371  0.4864
  605MOL0     H81632  12.097  10.639  11.825  0.6086 -0.8504  0.0759
  605MOL0     H81633  12.197  10.490  11.970  1.0397  1.4014 -0.2786
  605MOL0     H81634  12.116  10.562  12.108 -1.5683 -1.1533 -0.4155
  605MOL0     H81635  12.262  10.456  12.208  0.3825 -0.1205  3.0240
  605MOL0     H81636  12.422  10.412  12.366 -0.1366 -0.7213 -1.6238
  605MOL0     H81637  12.848  10.301  12.408 -0.4296  1.7918 -3.2785
  605MOL0     H81638  13.043  10.203  12.499 -0.4130  0.3098  0.1422
  605MOL0     H81639  13.223  10.240  12.678 -0.2980  2.6763  0.0730
  605MOL0     H81640  13.271  10.151  12.529 -0.1721 -0.4424  0.8345
  605MOL0     H81641  13.509  10.238  12.595 -1.1552  2.6434 -0.9189
  605MOL0     H81642  13.447  10.266  12.752  5.0540 -0.6713 -1.5627
  605MOL0     H81643  13.406  10.014  12.783 -0.4434  1.0995 -1.3485
  605MOL0     H81644  13.478  10.004  12.626  3.3334  2.7475 -1.6685
  605MOL0     H81645  13.634  10.144  12.837 -2.7632  2.9235 -2.1223
  605MOL0     H81646  13.678  10.099  12.676 -0.4948 -0.5761 -1.1107
  605MOL0     H81647  13.674   9.863  12.708 -3.4117 -0.3411  0.7914
  605MOL0     H81648  13.601   9.882  12.866 -0.3462  0.5140 -0.4920
  605MOL0     H81649  13.874   9.984  12.805  0.1232  0.2200  0.4585
  605MOL0     H81650  13.792   9.978  12.967 -0.9922 -1.4837  0.5125
  605MOL0     H81651  13.843   9.731  12.808 -1.8480 -0.7542  0.9225
  605MOL0     H81652  13.838   9.744  12.984  2.4694 -2.6062 -1.0052
  605MOL0     H81653  14.063   9.711  12.931 -0.6519  0.1478  2.9387
  605MOL0     H81654  14.048   9.846  12.810 -3.7982  0.2241 -1.7057
  605MOL0     H81655  13.237  10.592  12.453  0.7289 -1.1283  0.3610
  605MOL0     H81656  13.014  10.682  12.362 -2.4908 -0.4646  0.2455
  605MOL0     H81657  12.683  10.698  12.173  1.5265 -3.3393 -0.6205
  605MOL0     H81658  12.507  10.760  12.023 -0.0868 -1.6077 -2.3899
  605MOL0     H81659  10.403  10.473  11.614 -2.8090 -1.3445 -0.2821
  605MOL0     H81660  10.204  10.495  11.472 -1.2986 -0.0670 -0.0837
  605MOL0     H81661   9.998  10.357  11.099 -2.2195 -1.5946 -0.1135
  605MOL0     H81662   9.771  10.357  11.002 -1.3748  0.1072  2.7707
  605MOL0     H81663   9.644  10.742  10.851  0.7214 -0.4202  0.5634
  605MOL0     H81664   9.505  10.720  10.959 -0.7934  1.0486 -1.8428
  605MOL0     H81665   9.577  10.561  10.705  1.3137  0.0763  0.6174
  605MOL0     H81666   9.496  10.718  10.698  2.5811 -1.0331 -0.1820
  605MOL0     H81667   9.296  10.617  10.822  1.0281  0.7720  0.3390
  605MOL0     H81668   9.376  10.462  10.846  3.3891 -0.6087  0.5426
  605MOL0     H81669   9.377  10.548  10.558 -1.2590 -2.3266 -3.0124
  605MOL0     H81670   9.339  10.387  10.636 -2.5309 -0.8365  2.7019
  605MOL0     H81671   8.957  10.542  10.576 -1.5948 -0.8628  2.9387
  605MOL0     H81672   9.790  10.785  10.984 -3.3869 -0.4657  3.3713
  605MOL0     H81673   9.982  10.898  11.014  0.4833  0.3922 -0.1591
  605MOL0     H81674  10.006  10.864  11.186 -0.6022  1.0466 -1.3516
  605MOL0     H81675  10.129  10.820  11.056  1.3345  2.0470  1.3275
  606MOL0     O81676   0.049   1.300   2.965 -0.6912  0.3667 -0.9035
  606MOL0     C81677   0.046   1.223   2.874  0.5311  0.2083 -0.6249
  606MOL0     O81678   0.155   1.182   2.797  0.2790  0.0118 -0.2577
  606MOL0     C81679   0.273   1.226   2.830  0.2279 -0.1725  0.5703
  606MOL0     C81680   0.339   1.310   2.741 -0.0852 -0.1831  0.9361
  606MOL0     C81681   0.459   1.373   2.780  0.5380 -0.5331 -0.1017
  606MOL0     C81682   0.523   1.345   2.901  0.0060  1.0909  1.1134
  606MOL0     O81683   0.653   1.382   2.937  0.1877 -0.1854  0.0730
  606MOL0     C81684   0.736   1.444   2.831 -0.0131  0.1766 -0.2002
  606MOL0     C81685   0.884   1.413   2.845  0.0994 -0.0193 -0.4112
  606MOL0     C81686   0.932   1.427   2.990  0.5841  0.9604  0.4003
  606MOL0     C81687   1.082   1.403   2.988  0.3302 -0.4757  0.5290
  606MOL0     C81688   1.147   1.438   3.119 -0.1776  0.0809  0.1329
  606MOL0     C81689   1.287   1.376   3.133  0.3021 -0.1554 -0.2051
  606MOL0     C81690   1.329   1.364   3.280 -0.7796 -0.6112  0.1499
  606MOL0     C81691   1.348   1.492   3.362  0.2619 -0.0681  0.5422
  606MOL0     N81692   1.476   1.563   3.338  0.0597  0.9881  0.5063
  606MOL0     C81693   1.594   1.539   3.419  0.4663 -0.3378  0.4984
  606MOL0     C81694   1.685   1.642   3.383  0.8229  0.2186  0.8234
  606MOL0     C81695   1.811   1.658   3.449 -0.4737  0.4971  0.5762
  606MOL0     C81696   1.914   1.591   3.361  0.1118 -0.1284 -0.7357
  606MOL0     C81697   2.045   1.554   3.436  0.7681 -0.6360 -0.4914
  606MOL0     C81698   2.120   1.479   3.330 -1.0195 -0.4751 -0.0955
  606MOL0     O81699   2.257   1.438   3.373  0.7292  0.4083  0.2646
  606MOL0     C81700   2.371   1.525   3.390  0.4649  1.1738 -0.8438
  606MOL0     C81701   2.499   1.462   3.428  0.8100 -0.1618 -0.6442
  606MOL0     C81702   2.609   1.550   3.450  0.6117  0.5440  0.3121
  606MOL0     C81703   2.602   1.690   3.446 -0.3531 -0.5747 -0.0199
  606MOL0     C81704   2.718   1.775   3.480  0.2836 -0.8936  0.0982
  606MOL0     O81705   2.825   1.713   3.534  0.3669  0.2844  0.3611
  606MOL0     C81706   2.928   1.789   3.580  0.0753 -0.0145  0.2540
  606MOL0     C81707   3.020   1.837   3.483 -0.3337  0.8956 -0.3936
  606MOL0     C81708   3.128   1.909   3.525 -0.7084  0.6887 -0.0109
  606MOL0     C81709   3.156   1.939   3.662 -0.0105  0.4665  0.2955
  606MOL0     O81710   3.270   2.020   3.683  0.1920 -0.1205  0.1123
  606MOL0     C81711   3.318   2.024   3.817 -0.6776  0.6076 -0.1737
  606MOL0     C81712   3.456   2.091   3.809 -0.0122 -0.2626  0.6137
  606MOL0     C81713   3.546   2.062   3.932 -0.8262 -0.1175 -0.9609
  606MOL0     C81714   3.685   2.129   3.911 -0.5904  0.2437  0.9973
  606MOL0     C81715   3.791   2.129   4.025  0.3151  0.3437  0.1738
  606MOL0     C81716   3.933   2.176   3.984 -0.3415 -0.4491  1.1514
  606MOL0     C81717   4.029   2.139   4.095  0.4100 -0.1934  0.1815
  606MOL0     C81718   4.176   2.129   4.061  0.3119 -0.2670 -0.0885
  606MOL0    Cl81719   4.209   1.985   3.966  0.1865  0.2459  0.1615
  606MOL0     C81720   3.059   1.895   3.751  0.4792  0.3434 -0.9057
  606MOL0     C81721   2.953   1.809   3.716 -0.4755 -0.1914  0.9110
  606MOL0     O81722   2.703   1.899   3.472  0.1962  0.1567 -0.0927
  606MOL0     C81723   2.480   1.741   3.409 -0.5270 -0.0141  0.6554
  606MOL0     C81724   2.371   1.665   3.384  0.0887 -0.4238 -0.0750
  606MOL0     N81725   1.629   1.707   3.277 -0.0285 -0.4791 -0.0961
  606MOL0     N81726   1.510   1.660   3.257  0.1363  0.1852  0.2555
  606MOL0     C81727   0.452   1.270   2.992  0.2358  0.5193 -0.1610
  606MOL0     C81728   0.333   1.200   2.951  0.1415 -0.3583  0.3737
  606MOL0     C81729  -0.091   1.182   2.833 -0.2417  0.2083 -0.0500
  606MOL0     C81730  -0.179   1.285   2.804 -0.0156  0.4938 -0.7065
  606MOL0     C81731  -0.300   1.261   2.746 -0.0620 -0.4297 -0.3062
  606MOL0     C81732  -0.335   1.128   2.705  0.4719 -0.5372 -0.0314
  606MOL0     O81733  -0.453   1.108   2.635 -0.1973  0.0561  0.0336
  606MOL0     C81734  -0.531   1.006   2.694 -0.5209 -0.2918 -0.1281
  606MOL0     C81735  -0.674   1.052   2.660 -0.2360  0.0420  0.4813
  606MOL0     C81736  -0.780   0.979   2.742 -0.0803  0.0183 -0.0490
  606MOL0     C81737  -0.779   0.829   2.709  0.0471  0.4180  0.8092
  606MOL0     C81738  -0.803   0.801   2.564  0.4496  0.0818 -0.6737
  606MOL0     C81739  -0.834   0.760   2.452  0.4016  0.8212  0.4148
  606MOL0     C81740  -0.248   1.020   2.738  0.7594  0.7717  0.1250
  606MOL0     C81741  -0.126   1.048   2.806  0.6981 -0.5875  0.3707
  606MOL0     C81742  -0.034   0.939   2.852  0.6248 -0.6734  0.1511
  606MOL0     H81743   0.296   1.314   2.641  0.0682 -0.5853  0.8533
  606MOL0     H81744   0.508   1.439   2.710 -0.1989 -0.6206 -0.7153
  606MOL0     H81745   0.710   1.407   2.731  1.1726 -1.8285  0.1870
  606MOL0     H81746   0.710   1.549   2.840 -0.7341  0.0768 -0.9621
  606MOL0     H81747   0.952   1.461   2.773 -1.9824  0.2095 -2.3120
  606MOL0     H81748   0.895   1.308   2.817  2.7447 -0.2132  0.9646
  606MOL0     H81749   0.881   1.356   3.057 -2.5636  2.7699  0.1077
  606MOL0     H81750   0.901   1.526   3.023  0.2179  1.6207 -1.7928
  606MOL0     H81751   1.103   1.302   2.953 -3.5384 -1.3605  0.3078
  606MOL0     H81752   1.129   1.465   2.912  0.2687  0.2491  1.0674
  606MOL0     H81753   1.158   1.546   3.131  1.2379  0.2204 -1.8469
  606MOL0     H81754   1.085   1.395   3.198  1.2857 -0.4013  1.0565
  606MOL0     H81755   1.300   1.278   3.086  1.8603 -0.4519  0.7767
  606MOL0     H81756   1.358   1.446   3.086 -0.2253  0.3572 -0.2486
  606MOL0     H81757   1.424   1.309   3.282 -0.7358 -0.8677 -3.3112
  606MOL0     H81758   1.257   1.296   3.326 -2.8274  0.5109 -1.2942
  606MOL0     H81759   1.271   1.568   3.346 -0.9945 -0.5101  3.6867
  606MOL0     H81760   1.343   1.461   3.467 -0.3799 -0.9851  0.2518
  606MOL0     H81761   1.612   1.467   3.498 -1.2079  1.5182  2.7214
  606MOL0     H81762   1.842   1.760   3.473  0.8390  0.3239 -0.2568
  606MOL0     H81763   1.808   1.606   3.546  2.4206  0.5562  0.7953
  606MOL0     H81764   1.869   1.494   3.340 -1.2687 -0.4626  2.9699
  606MOL0     H81765   1.917   1.648   3.268 -0.2152 -1.2660 -1.4612
  606MOL0     H81766   2.024   1.478   3.512 -0.5828  0.2212  0.0372
  606MOL0     H81767   2.099   1.638   3.480  1.3005 -1.3610  0.2753
  606MOL0     H81768   2.137   1.535   3.238 -0.3887 -0.5016  0.0010
  606MOL0     H81769   2.064   1.392   3.296 -3.2892  1.6886 -2.2815
  606MOL0     H81770   2.508   1.355   3.439 -0.9288 -0.4446 -1.6752
  606MOL0     H81771   2.703   1.502   3.474  1.1254  0.3510 -1.9051
  606MOL0     H81772   3.011   1.825   3.376  0.6004  2.6940 -0.7161
  606MOL0     H81773   3.198   1.949   3.453  0.9844  1.3274  1.8949
  606MOL0     H81774   3.262   2.080   3.893 -0.4145  3.7614 -2.1395
  606MOL0     H81775   3.318   1.918   3.846  1.3484  0.0173 -2.1003
  606MOL0     H81776   3.522   2.061   3.727  0.6435 -0.6765  1.2911
  606MOL0     H81777   3.442   2.200   3.799 -0.1959 -0.3593 -0.3339
  606MOL0     H81778   3.504   2.100   4.025  2.1426  2.2061 -0.3910
  606MOL0     H81779   3.543   1.954   3.948 -0.5884  0.3329  3.4178
  606MOL0     H81780   3.673   2.234   3.882  1.1027  0.0342 -0.6821
  606MOL0     H81781   3.740   2.083   3.828 -2.1242  0.7647 -0.3741
  606MOL0     H81782   3.785   2.027   4.065  0.9307  0.0130 -0.5595
  606MOL0     H81783   3.749   2.188   4.108 -0.5306 -0.0011  0.0040
  606MOL0     H81784   3.961   2.119   3.895  2.4618 -0.2390  1.8105
  606MOL0     H81785   3.932   2.284   3.962  1.5927 -0.7415 -0.7744
  606MOL0     H81786   3.992   2.045   4.138 -1.6963  1.0060  1.2227
  606MOL0     H81787   4.022   2.206   4.182 -0.2495 -0.3479  0.2539
  606MOL0     H81788   4.207   2.215   4.001 -0.0375  0.0025  0.1098
  606MOL0     H81789   4.236   2.130   4.153 -1.4150  3.1835  1.1839
  606MOL0     H81790   3.073   1.926   3.854 -1.3988  1.0015 -0.8103
  606MOL0     H81791   2.883   1.770   3.790 -0.0499  0.4178  1.6570
  606MOL0     H81792   2.456   1.846   3.401  0.0425 -0.0090 -1.7270
  606MOL0     H81793   2.285   1.714   3.340  1.0847  0.6446 -0.9308
  606MOL0     H81794   0.509   1.264   3.084 -0.3131  0.2787  0.1677
  606MOL0     H81795   0.277   1.134   3.016 -0.6588 -1.8409 -1.7446
  606MOL0     H81796  -0.147   1.388   2.815 -0.2303  0.8765 -3.0262
  606MOL0     H81797  -0.364   1.343   2.718 -0.7986 -0.6867  0.5693
  606MOL0     H81798  -0.524   1.012   2.803 -0.2685 -1.1847 -0.0899
  606MOL0     H81799  -0.508   0.907   2.654 -0.6968  0.5509 -2.5153
  606MOL0     H81800  -0.681   1.023   2.555  2.4707 -2.6649  0.9212
  606MOL0     H81801  -0.692   1.159   2.671 -1.7321 -0.0391 -0.7895
  606MOL0     H81802  -0.881   1.008   2.710 -0.0262 -1.7808 -2.0940
  606MOL0     H81803  -0.768   0.990   2.850  2.0384 -0.3086 -0.2195
  606MOL0     H81804  -0.684   0.782   2.738 -0.5340 -1.1030  0.3120
  606MOL0     H81805  -0.858   0.773   2.760 -1.0166  0.7244 -0.4669
  606MOL0     H81806  -0.868   0.714   2.362  1.8940 -1.5594  0.9642
  606MOL0     H81807  -0.271   0.916   2.718  0.4386  1.0285 -0.8823
  606MOL0     H81808   0.016   0.894   2.766  0.0364 -1.1425  0.0476
  606MOL0     H81809   0.040   0.977   2.923  0.1477 -0.6599  0.6530
  606MOL0     H81810  -0.098   0.862   2.895 -1.7240 -0.0193 -1.9391
  607MOL0     O81811   3.162   0.408  10.191 -0.1562 -0.3952 -0.0769
  607MOL0     C81812   3.174   0.530  10.160  0.1774 -0.3027  0.5607
  607MOL0     O81813   3.293   0.585  10.133 -0.2870  0.4209  0.2223
  607MOL0     C81814   3.410   0.507  10.144  0.3357  1.0012  0.2315
  607MOL0     C81815   3.523   0.576  10.188 -0.7139 -0.4207  0.0362
  607MOL0     C81816   3.649   0.514  10.192  0.5878  0.2930  0.9484
  607MOL0     C81817   3.661   0.373  10.161  0.2738  0.3931  0.3377
  607MOL0     O81818   3.778   0.306  10.181 -0.1265 -0.7298 -0.3408
  607MOL0     C81819   3.892   0.370  10.129  0.4840 -0.7018 -0.4137
  607MOL0     C81820   3.987   0.401  10.252  1.1194 -0.5420  1.0575
  607MOL0     C81821   4.112   0.474  10.217  0.2302  0.1461 -0.8750
  607MOL0     C81822   4.191   0.492  10.342 -0.4065  0.3545 -0.3836
  607MOL0     C81823   4.343   0.528  10.314  0.0224 -0.3303  0.1977
  607MOL0     C81824   4.366   0.681  10.308 -0.6857 -0.6321  0.0552
  607MOL0     C81825   4.363   0.744  10.448  0.2923 -0.1660 -0.4101
  607MOL0     C81826   4.427   0.882  10.444  0.5110 -0.0741 -0.0293
  607MOL0     N81827   4.416   0.946  10.576  0.3890 -1.3162  0.7004
  607MOL0     C81828   4.298   0.967  10.652  0.7527  0.0771  0.1276
  607MOL0     C81829   4.339   1.036  10.762 -0.2057 -0.2808 -0.0656
  607MOL0     C81830   4.238   1.086  10.872  0.9629  0.4835 -0.4091
  607MOL0     C81831   4.192   0.964  10.961 -1.1027  0.2215 -0.3172
  607MOL0     C81832   4.083   1.020  11.057  0.3787 -0.1680 -0.2202
  607MOL0     C81833   4.057   0.921  11.178 -0.5572  0.0096  1.6078
  607MOL0     O81834   3.995   0.806  11.119 -0.2830  0.3491 -0.3956
  607MOL0     C81835   3.857   0.794  11.105 -0.4999 -0.0862  0.3900
  607MOL0     C81836   3.808   0.677  11.045  0.7277  0.3230 -0.2018
  607MOL0     C81837   3.670   0.668  11.004  0.2012  0.5017  0.0962
  607MOL0     C81838   3.577   0.767  11.040  0.1574 -0.8320  0.4199
  607MOL0     C81839   3.431   0.744  11.011  0.1081  0.2078  0.5089
  607MOL0     O81840   3.346   0.829  11.070 -0.4660  0.2456 -0.4000
  607MOL0     C81841   3.218   0.839  11.022 -0.6700 -0.2923 -0.0182
  607MOL0     C81842   3.175   0.959  10.959 -0.0677  0.1645  0.1502
  607MOL0     C81843   3.039   0.973  10.913 -0.1049 -0.3048  0.1231
  607MOL0     C81844   2.944   0.874  10.936 -0.0397  0.0387 -0.9870
  607MOL0     O81845   2.816   0.898  10.900 -0.4387  0.9106  0.2372
  607MOL0     C81846   2.711   0.813  10.951  0.0190  0.4824 -0.0149
  607MOL0     C81847   2.583   0.858  10.882 -0.6354  0.1341 -0.6500
  607MOL0     C81848   2.461   0.775  10.919 -0.0356 -0.0117  0.3729
  607MOL0     C81849   2.334   0.818  10.832 -0.0553 -0.4189 -0.3795
  607MOL0     C81850   2.228   0.706  10.866 -0.3126 -0.8228 -0.4314
  607MOL0     C81851   2.093   0.709  10.792 -0.0749 -1.1855  0.5525
  607MOL0     C81852   1.999   0.593  10.822  0.6427  0.9311  0.0714
  607MOL0     C81853   1.868   0.602  10.745 -0.9453 -0.0041  0.0452
  607MOL0    Cl81854   1.798   0.754  10.790 -0.5684 -0.0097  0.0657
  607MOL0     C81855   2.980   0.759  11.008  0.0800 -0.7923  0.1554
  607MOL0     C81856   3.120   0.740  11.039  0.4029  0.4388 -0.0426
  607MOL0     O81857   3.406   0.668  10.916 -0.2542  0.5052 -0.6547
  607MOL0     C81858   3.625   0.888  11.102  0.0996 -0.1648  0.8616
  607MOL0     C81859   3.768   0.899  11.131  0.1336  0.1720 -0.1125
  607MOL0     N81860   4.479   1.060  10.748  0.7335  0.1817 -1.0289
  607MOL0     N81861   4.527   1.006  10.639 -0.4531 -0.1580  0.1338
  607MOL0     C81862   3.541   0.305  10.123 -0.4446  0.2558  0.3709
  607MOL0     C81863   3.422   0.371  10.112 -0.5799  0.0197 -0.1418
  607MOL0     C81864   3.052   0.603  10.153  0.4626  0.2719  0.3339
  607MOL0     C81865   3.063   0.746  10.168 -1.1115 -0.7994 -0.2005
  607MOL0     C81866   2.955   0.833  10.170 -0.2125  0.8912 -0.1109
  607MOL0     C81867   2.829   0.771  10.144  0.3699  0.5619 -1.1609
  607MOL0     O81868   2.727   0.860  10.142  0.2919 -0.4478 -0.0624
  607MOL0     C81869   2.612   0.828  10.056 -0.5729  0.2143  0.1753
  607MOL0     C81870   2.502   0.934  10.058  0.9908  0.1119  0.5065
  607MOL0     C81871   2.555   1.084  10.055  0.0830  0.3513  0.2422
  607MOL0     C81872   2.564   1.136   9.910  0.1242 -0.0074 -0.0227
  607MOL0     C81873   2.437   1.140   9.839  0.4096 -0.0625  0.2487
  607MOL0     C81874   2.331   1.158   9.779 -0.4428 -0.1380 -0.1085
  607MOL0     C81875   2.816   0.637  10.123 -0.6611  0.5234 -0.7213
  607MOL0     C81876   2.925   0.556  10.131  0.0124 -0.3910 -1.1498
  607MOL0     C81877   2.911   0.416  10.094 -0.3266  0.5030 -0.1294
  607MOL0     H81878   3.522   0.684  10.204 -0.1929  0.6187 -5.0009
  607MOL0     H81879   3.744   0.555  10.225  1.5604 -0.5305 -0.6804
  607MOL0     H81880   3.953   0.311  10.059  1.8496 -2.0359  1.7822
  607MOL0     H81881   3.867   0.464  10.079 -1.9649  0.1283  2.1387
  607MOL0     H81882   4.024   0.302  10.278  1.1774 -0.5746  0.8480
  607MOL0     H81883   3.941   0.449  10.339  1.4948 -0.8607  1.4397
  607MOL0     H81884   4.091   0.572  10.173  1.1005  0.2611 -1.0563
  607MOL0     H81885   4.173   0.423  10.142  0.4593  0.8687 -1.1953
  607MOL0     H81886   4.144   0.567  10.406  1.1552  2.4909 -1.5947
  607MOL0     H81887   4.199   0.398  10.396 -0.7734 -0.1068 -1.1113
  607MOL0     H81888   4.401   0.492  10.400  0.9710 -0.7151 -0.5916
  607MOL0     H81889   4.385   0.476  10.228 -1.0797  0.3581 -0.7767
  607MOL0     H81890   4.459   0.700  10.255 -1.9484  1.3377 -1.5583
  607MOL0     H81891   4.289   0.732  10.250  0.0332 -0.7090 -0.9900
  607MOL0     H81892   4.424   0.685  10.517  0.0575 -1.4951 -1.3040
  607MOL0     H81893   4.261   0.753  10.486  0.9466 -1.5613  1.8574
  607MOL0     H81894   4.534   0.872  10.423  0.1072 -1.7418 -1.4922
  607MOL0     H81895   4.374   0.937  10.366  1.2344  0.0521 -0.4409
  607MOL0     H81896   4.198   0.934  10.627  0.7938  2.1264 -3.3151
  607MOL0     H81897   4.301   1.152  10.933  2.4228  0.1265 -1.4624
  607MOL0     H81898   4.152   1.138  10.830  0.9899  0.3066 -0.6882
  607MOL0     H81899   4.139   0.889  10.901 -2.0389  1.6178 -1.3106
  607MOL0     H81900   4.275   0.918  11.014 -0.9373 -2.7444 -2.8523
  607MOL0     H81901   3.991   1.036  11.000 -0.4449 -0.4860  0.9944
  607MOL0     H81902   4.109   1.116  11.103 -2.7087  0.1778  1.0469
  607MOL0     H81903   3.992   0.966  11.253 -0.8676  2.0588  0.1809
  607MOL0     H81904   4.146   0.894  11.235 -0.1965 -0.6476  0.7641
  607MOL0     H81905   3.876   0.596  11.021  1.6854  1.2392 -0.6483
  607MOL0     H81906   3.639   0.582  10.946  0.0627  0.4355  0.2693
  607MOL0     H81907   3.236   1.044  10.932  0.1429 -0.2687 -0.8043
  607MOL0     H81908   3.006   1.069  10.876 -2.7558 -1.1750  0.0503
  607MOL0     H81909   2.723   0.706  10.930 -1.9306  0.6807 -2.5454
  607MOL0     H81910   2.706   0.838  11.058  1.9104 -0.0487  0.2358
  607MOL0     H81911   2.564   0.963  10.905  2.5954  0.4750  1.0054
  607MOL0     H81912   2.591   0.851  10.773  0.4829  1.6760 -0.6983
  607MOL0     H81913   2.472   0.667  10.911 -1.6405 -0.2144  0.5312
  607MOL0     H81914   2.427   0.801  11.020  1.4976 -1.5577  1.3448
  607MOL0     H81915   2.356   0.819  10.725  3.1821  0.4194  0.1796
  607MOL0     H81916   2.295   0.912  10.873 -1.3858 -2.1208  2.5264
  607MOL0     H81917   2.199   0.723  10.970 -0.4927  1.8269 -0.8348
  607MOL0     H81918   2.270   0.608  10.844  1.2927 -0.3272  0.2723
  607MOL0     H81919   2.045   0.805  10.811  0.6399 -0.8626  0.7848
  607MOL0     H81920   2.113   0.690  10.686 -3.1436 -1.0304 -0.1462
  607MOL0     H81921   1.966   0.599  10.927 -1.0810 -0.3781 -0.3475
  607MOL0     H81922   2.051   0.497  10.810  1.2438  1.3762 -0.9540
  607MOL0     H81923   1.889   0.609  10.638 -0.9769  1.9618  0.1309
  607MOL0     H81924   1.803   0.516  10.759 -2.6377  1.3591  1.0020
  607MOL0     H81925   2.914   0.676  11.031 -1.7619  0.3135 -0.9374
  607MOL0     H81926   3.163   0.647  11.076 -2.0617 -0.7531  0.0403
  607MOL0     H81927   3.554   0.969  11.115  1.3403  1.1746 -0.3196
  607MOL0     H81928   3.806   0.990  11.175  1.0844 -1.6184  3.1330
  607MOL0     H81929   3.554   0.201  10.094  0.1132  0.6083 -0.6916
  607MOL0     H81930   3.342   0.320  10.060  0.7145 -1.0166 -1.2178
  607MOL0     H81931   3.161   0.792  10.172 -0.4124 -1.9145 -2.4433
  607MOL0     H81932   2.951   0.941  10.182 -1.5629  0.6916  1.6964
  607MOL0     H81933   2.571   0.727  10.073  2.1354 -0.7971  1.2220
  607MOL0     H81934   2.642   0.814   9.951  0.2633 -0.6010  0.5049
  607MOL0     H81935   2.450   0.922  10.154 -0.5871  1.1041 -0.1727
  607MOL0     H81936   2.416   0.928   9.991  1.1335 -0.1244  0.3434
  607MOL0     H81937   2.650   1.097  10.108  1.9780  0.8035 -3.0291
  607MOL0     H81938   2.482   1.153  10.099  0.7990 -0.1781  2.4350
  607MOL0     H81939   2.596   1.241   9.908  0.2384 -0.0464 -0.2577
  607MOL0     H81940   2.637   1.078   9.853 -0.5125 -0.3794 -0.4656
  607MOL0     H81941   2.230   1.155   9.742 -0.1469 -0.4666 -0.9280
  607MOL0     H81942   2.724   0.584  10.098 -0.3407 -2.0970  2.9249
  607MOL0     H81943   2.888   0.362  10.186 -0.7668 -1.4318 -1.3066
  607MOL0     H81944   2.822   0.400  10.032 -0.2162  2.5953 -0.8971
  607MOL0     H81945   3.001   0.374  10.049  1.4848  2.7026  1.2558
  608MOL0     O81946   7.700   5.159   2.433 -0.8460 -0.5789 -0.2144
  608MOL0     C81947   7.623   5.254   2.450 -0.0226  0.4423  0.3275
  608MOL0     O81948   7.662   5.388   2.435 -0.0426  0.4061 -0.3806
  608MOL0     C81949   7.802   5.397   2.443  0.0236 -0.1593  0.8747
  608MOL0     C81950   7.876   5.384   2.565 -0.6960  0.5098 -0.1511
  608MOL0     C81951   8.012   5.396   2.568  0.5522  0.2908  0.3549
  608MOL0     C81952   8.083   5.435   2.452  0.2593 -0.5610 -0.1083
  608MOL0     O81953   8.218   5.458   2.474 -0.5288  0.1292  0.1404
  608MOL0     C81954   8.307   5.486   2.365  0.2671 -0.0729 -0.2232
  608MOL0     C81955   8.439   5.534   2.417 -0.7422  0.2498 -1.3058
  608MOL0     C81956   8.502   5.448   2.530 -0.3226  0.5679 -0.0089
  608MOL0     C81957   8.537   5.307   2.487  0.1718 -0.3173 -0.3189
  608MOL0     C81958   8.628   5.254   2.596 -0.6502 -0.3227 -0.1473
  608MOL0     C81959   8.672   5.108   2.595 -0.0924  0.6660  0.0036
  608MOL0     C81960   8.776   5.075   2.708 -0.0490  0.1127 -0.0873
  608MOL0     C81961   8.921   5.124   2.689 -0.0083 -0.4465 -0.0654
  608MOL0     N81962   8.983   5.156   2.819 -0.2409 -0.0045 -0.8600
  608MOL0     C81963   9.042   5.065   2.897  0.2072  0.0446  0.0153
  608MOL0     C81964   9.101   5.137   2.999  0.4247 -0.1130  0.3944
  608MOL0     C81965   9.171   5.069   3.109 -0.3928  0.5115 -0.0490
  608MOL0     C81966   9.321   5.067   3.079  0.2942  0.2783  0.2983
  608MOL0     C81967   9.399   4.962   3.154  0.0659  0.3150  0.5079
  608MOL0     C81968   9.542   4.994   3.152 -0.4321 -0.7239  0.7771
  608MOL0     O81969   9.588   4.952   3.022  0.1705  0.6296 -0.1948
  608MOL0     C81970   9.722   4.961   3.009 -0.7591 -0.7875 -0.2992
  608MOL0     C81971   9.770   4.890   2.907  0.9628 -0.6318 -0.7215
  608MOL0     C81972   9.908   4.869   2.885 -0.3679  0.2575 -0.1502
  608MOL0     C81973   9.996   4.926   2.992  0.2839  0.2619  0.4569
  608MOL0     C81974  10.138   4.887   2.998 -0.1049 -0.3489 -1.2350
  608MOL0     O81975  10.216   4.936   3.103  0.4224  0.0476  1.0922
  608MOL0     C81976  10.349   4.974   3.086 -0.2356  0.5034 -0.4355
  608MOL0     C81977  10.419   4.964   3.203  0.0703 -0.2162 -0.6190
  608MOL0     C81978  10.553   4.979   3.201  0.1653 -0.8243 -0.5426
  608MOL0     C81979  10.625   5.022   3.085  0.5995  0.4030  0.3306
  608MOL0     O81980  10.760   5.037   3.064 -0.2305 -1.3000 -0.5634
  608MOL0     C81981  10.848   5.057   3.176  0.2188 -0.2661  0.3872
  608MOL0     C81982  10.975   5.135   3.124 -0.2523 -0.8649 -0.1953
  608MOL0     C81983  11.092   5.116   3.226  0.4524  0.5618 -0.1127
  608MOL0     C81984  11.236   5.122   3.172 -0.0830  0.0618 -1.2574
  608MOL0     C81985  11.339   5.096   3.276 -0.0539 -0.2303 -0.3998
  608MOL0     C81986  11.348   4.942   3.322  0.2137 -0.5482  0.0228
  608MOL0     C81987  11.441   4.940   3.448  0.0049  1.0273  0.3448
  608MOL0     C81988  11.509   4.812   3.466  0.3779  0.3853 -0.4964
  608MOL0    Cl81989  11.603   4.816   3.617  0.2480  0.4138 -0.0635
  608MOL0     C81990  10.544   5.015   2.968 -0.8399  0.3883 -0.9531
  608MOL0     C81991  10.409   5.000   2.964 -0.0744  1.0714 -0.1444
  608MOL0     O81992  10.181   4.826   2.906 -0.2999 -0.1755  0.6191
  608MOL0     C81993   9.947   5.014   3.086  0.6658 -0.1160 -0.3835
  608MOL0     C81994   9.804   5.028   3.099  0.3140  0.2784 -0.4174
  608MOL0     N81995   9.058   5.271   2.982 -0.7618 -0.2204  0.6466
  608MOL0     N81996   8.991   5.281   2.869 -0.4037  0.3755  0.0395
  608MOL0     C81997   8.012   5.464   2.332 -0.4354  0.4062  0.7109
  608MOL0     C81998   7.875   5.443   2.327  0.3738 -0.4362  0.0583
  608MOL0     C81999   7.483   5.228   2.503 -0.0153 -0.9105 -0.0130
  608MOL0     C82000   7.409   5.332   2.566 -0.2610  0.2415  0.7571
  608MOL0     C82001   7.291   5.308   2.639 -0.1473 -0.3836  0.3757
  608MOL0     C82002   7.248   5.173   2.645 -0.0248  0.5302 -0.0174
  608MOL0     O82003   7.141   5.138   2.725  0.7389  0.3748  0.1847
  608MOL0     C82004   7.109   5.189   2.856  0.3057 -0.2731  0.7716
  608MOL0     C82005   7.213   5.177   2.967 -1.3756  0.1897  0.0233
  608MOL0     C82006   7.299   5.054   2.969 -0.1559  0.0455  0.5843
  608MOL0     C82007   7.407   5.060   3.086 -0.0087  0.0250  0.4045
  608MOL0     C82008   7.478   4.932   3.093 -0.6072 -0.3155 -0.1688
  608MOL0     C82009   7.545   4.828   3.084  0.0610 -0.9899 -0.2461
  608MOL0     C82010   7.302   5.070   2.568  0.4528  0.1854  0.5890
  608MOL0     C82011   7.417   5.100   2.496  0.5431  0.5995  0.2945
  608MOL0     C82012   7.464   4.986   2.412 -0.3064 -0.1118 -0.0917
  608MOL0     H82013   7.833   5.369   2.664  0.7798  0.5847  0.5340
  608MOL0     H82014   8.065   5.380   2.661  1.1339  0.2007  0.0106
  608MOL0     H82015   8.334   5.396   2.307 -0.0407 -0.8871  0.8692
  608MOL0     H82016   8.265   5.569   2.307 -0.1991  2.6148  3.6237
  608MOL0     H82017   8.413   5.628   2.466  0.5695 -0.2449  0.4371
  608MOL0     H82018   8.514   5.566   2.344 -0.4267  0.9875 -0.6771
  608MOL0     H82019   8.443   5.434   2.621  2.4026 -1.5944  1.6095
  608MOL0     H82020   8.595   5.499   2.557 -1.8754  2.2535  2.5156
  608MOL0     H82021   8.444   5.249   2.485 -1.7236  2.3258  2.4074
  608MOL0     H82022   8.576   5.305   2.384 -3.1832 -0.6946 -1.6944
  608MOL0     H82023   8.718   5.315   2.585 -1.5246  0.9414 -0.4836
  608MOL0     H82024   8.589   5.271   2.697  1.1595  0.7677  0.4248
  608MOL0     H82025   8.589   5.038   2.606  0.1220  0.2392 -0.9899
  608MOL0     H82026   8.717   5.074   2.502  0.0295  0.9737 -0.0523
  608MOL0     H82027   8.800   4.969   2.718  0.9036  0.4528  1.7480
  608MOL0     H82028   8.739   5.099   2.809  1.3950 -1.1553  0.7849
  608MOL0     H82029   8.973   5.047   2.631  2.2307  1.6129 -0.9667
  608MOL0     H82030   8.912   5.211   2.623  0.1192  0.3073  0.8857
  608MOL0     H82031   9.052   4.958   2.884 -0.4400 -0.0022 -0.1142
  608MOL0     H82032   9.153   5.119   3.205 -1.3749  1.5564 -0.7555
  608MOL0     H82033   9.141   4.963   3.115  0.5310 -0.0234 -3.0976
  608MOL0     H82034   9.338   5.057   2.972  0.0566 -1.2029  0.3778
  608MOL0     H82035   9.357   5.162   3.120  0.1280 -0.7878  3.1925
  608MOL0     H82036   9.384   4.859   3.120  3.9707 -0.1282 -0.2428
  608MOL0     H82037   9.364   4.967   3.258 -0.0364  0.9007  0.4474
  608MOL0     H82038   9.580   4.945   3.242 -0.3475  0.0703  1.1882
  608MOL0     H82039   9.548   5.102   3.169  1.1968 -0.1980 -2.4100
  608MOL0     H82040   9.700   4.849   2.834 -1.5256 -0.0934  1.2049
  608MOL0     H82041   9.941   4.814   2.797 -0.1351 -0.2380  0.2398
  608MOL0     H82042  10.378   4.917   3.292 -0.2614  2.7121  0.8966
  608MOL0     H82043  10.607   4.964   3.294  1.7285 -2.0870 -1.5927
  608MOL0     H82044  10.797   5.104   3.260 -2.8855 -0.2236 -1.3693
  608MOL0     H82045  10.874   4.960   3.221 -1.1329  0.1166  2.0781
  608MOL0     H82046  11.005   5.093   3.027 -0.0432  0.9356 -0.9491
  608MOL0     H82047  10.951   5.240   3.110  0.0510 -0.8972 -1.0030
  608MOL0     H82048  11.075   5.186   3.308 -0.1998 -1.4386  1.5577
  608MOL0     H82049  11.078   5.016   3.267 -0.3451  1.0084  0.7457
  608MOL0     H82050  11.257   5.215   3.118 -1.6163  0.7130 -0.8089
  608MOL0     H82051  11.239   5.050   3.090  2.0860  0.9617 -2.0369
  608MOL0     H82052  11.312   5.160   3.360  1.5850  3.9057 -2.7071
  608MOL0     H82053  11.429   5.142   3.234  1.4972 -1.6393  1.2525
  608MOL0     H82054  11.245   4.909   3.339 -0.7814  1.7036 -1.1706
  608MOL0     H82055  11.383   4.876   3.243 -0.9559 -0.9478 -0.1694
  608MOL0     H82056  11.386   4.969   3.538 -1.2517  1.3473 -0.5028
  608MOL0     H82057  11.521   5.015   3.440 -1.7762  2.9091 -0.7416
  608MOL0     H82058  11.435   4.732   3.473  0.8379 -0.1290 -1.3985
  608MOL0     H82059  11.570   4.792   3.377  1.2522 -0.5798  0.3073
  608MOL0     H82060  10.596   5.040   2.876  1.9624  1.9726  0.9024
  608MOL0     H82061  10.368   5.003   2.863  2.3011 -0.8777 -1.2948
  608MOL0     H82062  10.010   5.061   3.161  1.3501 -2.4057  0.5457
  608MOL0     H82063   9.774   5.081   3.189  0.0556 -2.3476  1.1605
  608MOL0     H82064   8.057   5.493   2.238 -1.7999 -1.9669 -0.8112
  608MOL0     H82065   7.816   5.467   2.239  0.0204 -1.3022  0.0542
  608MOL0     H82066   7.442   5.435   2.565  0.6929  0.0425  3.3449
  608MOL0     H82067   7.235   5.388   2.687 -1.1199 -1.0953  0.4538
  608MOL0     H82068   7.015   5.141   2.885 -0.2733 -1.6340 -2.8505
  608MOL0     H82069   7.094   5.297   2.847 -0.4703 -0.2551  1.9903
  608MOL0     H82070   7.168   5.201   3.064 -1.0940 -5.5210  1.8962
  608MOL0     H82071   7.292   5.251   2.948 -2.3449  1.1526 -0.3758
  608MOL0     H82072   7.352   5.024   2.878  0.5279 -3.2687  1.9259
  608MOL0     H82073   7.237   4.969   2.999  2.0073 -0.7738  3.1160
  608MOL0     H82074   7.475   5.144   3.069  1.3121 -1.0016  0.5437
  608MOL0     H82075   7.356   5.080   3.181 -1.1311 -2.4334  0.4040
  608MOL0     H82076   7.584   4.729   3.097  3.5405  0.4020  1.2443
  608MOL0     H82077   7.250   4.975   2.571 -1.6270  1.2821  1.2680
  608MOL0     H82078   7.568   4.956   2.428 -0.7376 -1.5690  0.1144
  608MOL0     H82079   7.400   4.898   2.420  0.4421 -0.7406 -0.8061
  608MOL0     H82080   7.452   5.014   2.307  1.9267  2.2503  0.1565
  609MOL0     O82081   8.036   0.948   9.701 -1.0498  0.2421 -0.3330
  609MOL0     C82082   7.985   1.061   9.698 -0.0623  0.0471  0.0691
  609MOL0     O82083   8.060   1.172   9.675 -0.1552  0.0268  0.0822
  609MOL0     C82084   8.194   1.163   9.653 -0.4197  0.5103 -0.4696
  609MOL0     C82085   8.238   1.119   9.527 -0.5379 -0.4762 -0.0158
  609MOL0     C82086   8.378   1.105   9.505  0.4504 -0.8002 -1.2587
  609MOL0     C82087   8.466   1.130   9.612 -0.2557 -0.4717 -0.1835
  609MOL0     O82088   8.604   1.113   9.617 -0.5819  0.0841 -0.3018
  609MOL0     C82089   8.659   1.106   9.489 -0.0818  0.3019 -0.0020
  609MOL0     C82090   8.810   1.142   9.495 -0.1027  0.1569  0.8890
  609MOL0     C82091   8.850   1.168   9.351  0.1577 -0.1729  0.4224
  609MOL0     C82092   9.001   1.129   9.340 -0.1196  0.4779  0.0661
  609MOL0     C82093   9.073   1.157   9.212 -0.8358 -0.4618 -0.5601
  609MOL0     C82094   9.132   1.301   9.211  0.4335  0.6190 -0.8791
  609MOL0     C82095   9.180   1.345   9.072  0.3996 -0.1083  0.2554
  609MOL0     C82096   9.233   1.240   8.974 -0.5827 -1.0096  0.4630
  609MOL0     N82097   9.377   1.207   9.000  0.9960  0.1445 -0.0208
  609MOL0     C82098   9.413   1.114   9.092 -0.2039 -0.0460  0.5151
  609MOL0     C82099   9.550   1.098   9.078  0.6924 -1.5396 -0.1571
  609MOL0     C82100   9.636   1.013   9.168 -0.4289  0.1157  0.7621
  609MOL0     C82101   9.779   1.022   9.118 -0.8934  0.0815  0.8348
  609MOL0     C82102   9.819   0.937   8.984  0.0688 -1.0294  0.7742
  609MOL0     C82103   9.937   0.993   8.899 -0.1488 -0.2428  0.1618
  609MOL0     O82104  10.052   0.991   8.988  0.3064 -0.2106  0.3751
  609MOL0     C82105  10.121   0.878   8.987 -0.0820  0.5513  0.4299
  609MOL0     C82106  10.095   0.767   8.904 -0.0521 -0.5146 -0.2191
  609MOL0     C82107  10.181   0.659   8.909  0.0385 -0.4761  1.1016
  609MOL0     C82108  10.298   0.652   8.981  0.1649  0.3900  0.1889
  609MOL0     C82109  10.387   0.539   8.976 -0.9705  0.0311 -0.3382
  609MOL0     O82110  10.521   0.573   9.001  0.2734 -0.0496  0.0465
  609MOL0     C82111  10.621   0.484   8.973 -0.0322 -0.0631  0.3629
  609MOL0     C82112  10.626   0.343   8.987 -0.3143 -0.6359 -0.0404
  609MOL0     C82113  10.746   0.270   8.982 -0.3448 -0.4289 -0.3696
  609MOL0     C82114  10.866   0.340   8.956 -0.1018  0.3947  0.9160
  609MOL0     O82115  10.977   0.260   8.927 -0.9674  0.4733  0.1733
  609MOL0     C82116  11.102   0.273   8.995 -0.5341  0.6422 -0.5893
  609MOL0     C82117  11.207   0.355   8.912  0.5008 -0.6571 -0.2397
  609MOL0     C82118  11.354   0.323   8.912  0.5606  0.4387 -0.6997
  609MOL0     C82119  11.450   0.430   8.874  0.9390 -0.4405  0.0012
  609MOL0     C82120  11.439   0.449   8.721 -1.2187  0.1102 -0.5167
  609MOL0     C82121  11.528   0.571   8.677  0.5729  1.0341 -0.1298
  609MOL0     C82122  11.510   0.706   8.751 -0.9472  0.3021 -0.4307
  609MOL0     C82123  11.562   0.819   8.666 -0.9108  0.5065 -0.2395
  609MOL0    Cl82124  11.751   0.782   8.665 -0.1355 -0.1547 -0.5018
  609MOL0     C82125  10.861   0.466   8.913  0.0282 -0.1915 -0.5345
  609MOL0     C82126  10.737   0.541   8.933  0.3971 -0.7434 -0.5525
  609MOL0     O82127  10.349   0.429   8.946 -0.1079 -0.0230  0.3761
  609MOL0     C82128  10.317   0.754   9.077 -0.3921  0.8132 -0.0085
  609MOL0     C82129  10.236   0.871   9.070  1.0497 -0.0328  0.2490
  609MOL0     N82130   9.583   1.177   8.966 -1.1073 -1.1022 -0.2678
  609MOL0     N82131   9.482   1.242   8.925  0.2536 -0.5752  0.1610
  609MOL0     C82132   8.417   1.175   9.729  0.3020  0.2106  0.3995
  609MOL0     C82133   8.281   1.197   9.754 -0.4378  0.3144 -0.0075
  609MOL0     C82134   7.842   1.067   9.736 -0.4300 -0.0101 -0.0764
  609MOL0     C82135   7.781   1.190   9.705  0.4773 -0.7432  0.5415
  609MOL0     C82136   7.645   1.211   9.731  0.0722  0.0762 -0.1167
  609MOL0     C82137   7.566   1.113   9.791  0.1543 -0.3284 -0.0617
  609MOL0     O82138   7.436   1.145   9.806  0.3010 -0.4015 -0.5594
  609MOL0     C82139   7.359   1.052   9.888  0.0072  0.3052  0.6163
  609MOL0     C82140   7.219   1.114   9.897 -0.7253  0.0431  0.4017
  609MOL0     C82141   7.220   1.237   9.992  0.5302  0.2828 -0.7198
  609MOL0     C82142   7.224   1.199  10.137  0.1885 -0.1593 -0.2872
  609MOL0     C82143   7.096   1.131  10.172 -0.4842 -0.0572 -0.2542
  609MOL0     C82144   7.005   1.060  10.208  1.0843  0.4064  0.4433
  609MOL0     C82145   7.628   0.993   9.832 -0.5387  0.3806  0.3665
  609MOL0     C82146   7.762   0.963   9.793 -0.4489  0.0069 -0.2927
  609MOL0     C82147   7.820   0.827   9.840  0.2684 -0.3419  0.7731
  609MOL0     H82148   8.178   1.097   9.439 -0.0033 -1.0023 -0.2554
  609MOL0     H82149   8.410   1.070   9.407 -2.6101 -0.4277 -2.5040
  609MOL0     H82150   8.653   1.000   9.463  0.8959  0.2284  0.0034
  609MOL0     H82151   8.613   1.165   9.409  2.1624  0.3638 -1.3487
  609MOL0     H82152   8.868   1.067   9.550  0.3136 -0.3587 -0.2314
  609MOL0     H82153   8.823   1.240   9.543  0.3098  0.0735  0.9521
  609MOL0     H82154   8.835   1.272   9.323  2.6107  0.6643  1.9087
  609MOL0     H82155   8.798   1.093   9.291  0.4596 -1.0258  1.1955
  609MOL0     H82156   9.058   1.174   9.421 -0.3375  2.5656 -0.8739
  609MOL0     H82157   9.002   1.020   9.346  1.2536  0.5310  1.2205
  609MOL0     H82158   9.162   1.094   9.211  1.6376  2.5287  2.8917
  609MOL0     H82159   9.017   1.130   9.122  0.8733 -1.5121 -1.3734
  609MOL0     H82160   9.059   1.372   9.250  1.0507  0.8610 -0.1226
  609MOL0     H82161   9.215   1.308   9.282  0.3780 -2.3017 -0.4216
  609MOL0     H82162   9.263   1.415   9.090  1.6963 -1.7228  0.7656
  609MOL0     H82163   9.103   1.400   9.016  0.8113 -0.0061 -0.2226
  609MOL0     H82164   9.166   1.154   8.966 -0.0025 -1.3155 -1.7559
  609MOL0     H82165   9.227   1.276   8.871  0.2130 -3.5594 -0.5729
  609MOL0     H82166   9.358   1.068   9.173 -0.0260  0.9687  1.2232
  609MOL0     H82167   9.638   1.049   9.271  0.2664 -0.8247  1.0913
  609MOL0     H82168   9.599   0.910   9.169  0.8133 -0.3485  0.7400
  609MOL0     H82169   9.802   1.125   9.089 -0.1700 -0.3649 -0.2367
  609MOL0     H82170   9.855   0.992   9.190 -0.5602 -1.1867 -0.0089
  609MOL0     H82171   9.739   0.949   8.911  1.3643  1.4607 -0.3549
  609MOL0     H82172   9.840   0.833   9.012  0.8623 -0.5209  2.1856
  609MOL0     H82173   9.923   1.095   8.861 -0.3836 -0.3988 -0.1783
  609MOL0     H82174   9.948   0.937   8.806 -2.6608  1.5295 -1.3304
  609MOL0     H82175  10.002   0.760   8.848 -1.2931 -0.9019  1.7834
  609MOL0     H82176  10.154   0.571   8.851 -2.0479  1.2326 -0.7111
  609MOL0     H82177  10.535   0.286   9.003 -1.1734 -0.4315 -3.3662
  609MOL0     H82178  10.748   0.162   8.992 -1.5147 -0.2917  2.6882
  609MOL0     H82179  11.087   0.323   9.091 -0.6181  0.0994 -0.3164
  609MOL0     H82180  11.142   0.171   8.997 -2.2478 -0.0804 -1.4237
  609MOL0     H82181  11.181   0.342   8.806 -0.4757  0.7705 -0.2078
  609MOL0     H82182  11.184   0.458   8.943  0.8366 -1.0608  1.4060
  609MOL0     H82183  11.386   0.302   9.015  0.5508  0.0095 -0.7845
  609MOL0     H82184  11.361   0.230   8.855 -0.5260 -0.7742  1.0395
  609MOL0     H82185  11.552   0.399   8.901  0.4913 -2.1939 -0.2548
  609MOL0     H82186  11.425   0.525   8.923 -2.9869 -1.0672 -0.4613
  609MOL0     H82187  11.335   0.476   8.699 -0.9094  1.2208 -0.6920
  609MOL0     H82188  11.458   0.365   8.654  1.9783 -1.7950  2.4377
  609MOL0     H82189  11.629   0.537   8.700  0.1768  0.8026  1.3709
  609MOL0     H82190  11.510   0.606   8.575 -0.9299  3.1933  0.8069
  609MOL0     H82191  11.575   0.714   8.839 -1.4383  1.1573 -0.1400
  609MOL0     H82192  11.405   0.720   8.777 -0.9512  1.5807 -1.0833
  609MOL0     H82193  11.510   0.826   8.571 -2.0031  0.1514  0.3239
  609MOL0     H82194  11.541   0.914   8.717 -0.3941 -1.2401  3.6135
  609MOL0     H82195  10.953   0.519   8.890 -0.1988  1.6443  2.1756
  609MOL0     H82196  10.733   0.646   8.906  1.4166 -0.6115 -0.2298
  609MOL0     H82197  10.401   0.760   9.145 -0.0127  0.5946 -0.4469
  609MOL0     H82198  10.279   0.952   9.128  3.1713 -1.4540  0.7877
  609MOL0     H82199   8.477   1.213   9.811 -2.1178  0.7861  2.0255
  609MOL0     H82200   8.235   1.228   9.847 -1.2148 -2.6467  0.6986
  609MOL0     H82201   7.841   1.259   9.647  1.3439 -2.5917 -0.8566
  609MOL0     H82202   7.603   1.303   9.691  1.3848  0.0224 -1.7741
  609MOL0     H82203   7.403   1.060   9.988  0.4600  0.3160  0.4186
  609MOL0     H82204   7.357   0.952   9.845  0.1102  0.4181  0.3438
  609MOL0     H82205   7.146   1.036   9.922  0.6975 -1.7848 -0.8624
  609MOL0     H82206   7.182   1.146   9.799 -2.8492 -0.8545  0.8534
  609MOL0     H82207   7.124   1.289   9.988 -0.2754 -1.1303 -0.3881
  609MOL0     H82208   7.301   1.305   9.966 -1.3020  1.6098 -3.4556
  609MOL0     H82209   7.312   1.139  10.162  0.2184 -0.3843 -0.9073
  609MOL0     H82210   7.235   1.290  10.196 -0.8217 -0.5652  0.5576
  609MOL0     H82211   6.918   1.004  10.236 -1.0402  2.4998 -1.5529
  609MOL0     H82212   7.576   0.921   9.894  1.0561 -2.3550 -1.3166
  609MOL0     H82213   7.761   0.790   9.925 -4.9100  1.0839 -1.7713
  609MOL0     H82214   7.836   0.754   9.761  0.9693 -0.7876  1.3072
  609MOL0     H82215   7.920   0.837   9.884 -0.3863  0.8144  2.0912
  610MOL0     O82216  10.348   7.440   5.910 -0.3742  0.4065  0.7966
  610MOL0     C82217  10.374   7.538   5.841 -0.9026  0.4608 -0.1494
  610MOL0     O82218  10.498   7.568   5.787  0.2237 -0.9454  0.1906
  610MOL0     C82219  10.607   7.492   5.816 -0.0390 -0.5737  0.6466
  610MOL0     C82220  10.636   7.384   5.738 -0.7650 -0.4578  0.1299
  610MOL0     C82221  10.760   7.322   5.752 -0.5636  0.7250 -0.6954
  610MOL0     C82222  10.850   7.368   5.854 -0.7520  0.6044  0.2049
  610MOL0     O82223  10.973   7.306   5.873 -0.2778 -0.3861 -0.8450
  610MOL0     C82224  11.016   7.202   5.791  0.1558 -0.1895  0.3100
  610MOL0     C82225  11.136   7.124   5.845 -0.7306 -0.5242  0.0316
  610MOL0     C82226  11.267   7.197   5.868  0.0141 -0.6348 -0.0677
  610MOL0     C82227  11.368   7.095   5.917 -0.3639 -0.9018 -1.1046
  610MOL0     C82228  11.506   7.157   5.940 -0.3050  0.4596 -0.2684
  610MOL0     C82229  11.600   7.050   5.981  0.1588  0.8250 -0.5898
  610MOL0     C82230  11.740   7.128   6.009 -0.7319 -0.2509 -0.1451
  610MOL0     C82231  11.842   7.030   6.059  0.0959 -1.3495 -0.6796
  610MOL0     N82232  11.945   7.098   6.141  0.5885 -1.4501  0.4080
  610MOL0     C82233  11.939   7.133   6.276 -0.1277 -0.0923  0.4788
  610MOL0     C82234  12.065   7.158   6.313  0.2141  0.4428 -0.5947
  610MOL0     C82235  12.083   7.169   6.465 -0.7059  0.0457 -0.1053
  610MOL0     C82236  12.226   7.139   6.513  0.0694 -0.6458 -0.5292
  610MOL0     C82237  12.319   7.262   6.524  0.9333  0.4762 -0.2921
  610MOL0     C82238  12.369   7.327   6.388 -0.7988  0.3065  0.2348
  610MOL0     O82239  12.435   7.458   6.414 -0.4723 -0.1328  0.7375
  610MOL0     C82240  12.554   7.464   6.475 -0.3227 -0.7443 -0.0332
  610MOL0     C82241  12.649   7.365   6.486 -0.4934 -0.0037  0.1858
  610MOL0     C82242  12.774   7.387   6.552 -0.0750  0.1619 -0.0501
  610MOL0     C82243  12.804   7.513   6.605 -0.9603 -0.7725  0.6259
  610MOL0     C82244  12.935   7.530   6.678  0.0007  0.2147  0.0025
  610MOL0     O82245  12.993   7.426   6.730 -0.0985  0.3792 -0.2319
  610MOL0     C82246  13.103   7.440   6.804 -0.2740  0.7251 -0.7126
  610MOL0     C82247  13.133   7.522   6.919  0.7881  0.5765  0.1336
  610MOL0     C82248  13.261   7.529   6.972  0.3350  0.1221 -0.5045
  610MOL0     C82249  13.369   7.447   6.921 -0.4656 -0.5394 -0.4460
  610MOL0     O82250  13.490   7.463   6.979  0.4381  0.3051  0.0222
  610MOL0     C82251  13.591   7.358   6.975  0.0692 -0.2493  0.3254
  610MOL0     C82252  13.673   7.342   7.109  0.0177  0.6024 -0.6247
  610MOL0     C82253  13.572   7.311   7.224  0.1168 -0.7086 -0.1285
  610MOL0     C82254  13.633   7.276   7.360 -0.3359  0.3762 -0.9034
  610MOL0     C82255  13.538   7.222   7.469 -0.0515 -0.2269 -0.1874
  610MOL0     C82256  13.493   7.075   7.440  0.2543  0.9197  0.8617
  610MOL0     C82257  13.428   6.997   7.553 -0.0385  0.0445  1.1101
  610MOL0     C82258  13.281   7.001   7.554  0.1515 -0.6828 -0.0553
  610MOL0    Cl82259  13.232   7.174   7.599 -0.1773  0.3330 -0.1252
  610MOL0     C82260  13.339   7.369   6.808  0.3231 -0.2949  0.3297
  610MOL0     C82261  13.206   7.356   6.760 -1.1807 -0.1424 -0.4703
  610MOL0     O82262  12.974   7.646   6.674 -0.2362  0.3718  0.5061
  610MOL0     C82263  12.713   7.615   6.587 -0.3139  0.6911  0.5179
  610MOL0     C82264  12.588   7.588   6.519  0.5116 -0.2819  0.9641
  610MOL0     N82265  12.155   7.153   6.202  0.2670  0.4518 -0.5536
  610MOL0     N82266  12.074   7.119   6.102  0.1765  0.0868  0.1295
  610MOL0     C82267  10.820   7.484   5.923  0.1451 -0.0950 -0.2849
  610MOL0     C82268  10.693   7.542   5.911  0.4382  0.2431  0.0549
  610MOL0     C82269  10.264   7.643   5.817  0.1786  0.6165 -0.6232
  610MOL0     C82270  10.298   7.763   5.746 -0.2169 -0.2291  0.9210
  610MOL0     C82271  10.202   7.851   5.708 -0.1761  0.4062 -0.3334
  610MOL0     C82272  10.070   7.824   5.749  0.6776 -0.4956  0.3766
  610MOL0     O82273   9.968   7.910   5.713  0.1591 -0.1361  0.1244
  610MOL0     C82274   9.995   8.015   5.615  0.8601 -0.5323 -0.2764
  610MOL0     C82275   9.876   8.101   5.592 -0.0583 -0.3466  0.3543
  610MOL0     C82276   9.900   8.187   5.477 -1.0940 -0.3960 -0.3645
  610MOL0     C82277   9.785   8.287   5.444 -0.0445  0.8905 -0.3193
  610MOL0     C82278   9.664   8.226   5.400  0.7858  0.6273  0.4489
  610MOL0     C82279   9.573   8.155   5.364  0.6278 -1.0616  0.3110
  610MOL0     C82280  10.043   7.713   5.828 -0.4046 -0.2861  0.4044
  610MOL0     C82281  10.133   7.613   5.858  0.0612  0.1066 -0.1046
  610MOL0     C82282  10.077   7.494   5.929 -0.0215  0.0536  0.1814
  610MOL0     H82283  10.572   7.336   5.665  0.8984 -0.9396 -1.0589
  610MOL0     H82284  10.780   7.235   5.690 -1.0719  0.2161 -0.1688
  610MOL0     H82285  10.933   7.130   5.789 -1.3757  1.4316  2.0757
  610MOL0     H82286  11.032   7.242   5.690 -2.7969 -0.9254 -0.5650
  610MOL0     H82287  11.153   7.036   5.782 -4.3659 -1.5994  0.3526
  610MOL0     H82288  11.098   7.090   5.942 -2.2999  0.7739 -0.0922
  610MOL0     H82289  11.251   7.273   5.944 -4.0835 -2.5742  1.3289
  610MOL0     H82290  11.293   7.236   5.769 -0.8147 -1.2770 -0.5584
  610MOL0     H82291  11.340   7.042   6.008  0.8630 -0.8684 -0.6885
  610MOL0     H82292  11.381   7.013   5.845  1.1277 -0.9926 -0.7614
  610MOL0     H82293  11.537   7.213   5.851  0.4989  2.3490  1.1369
  610MOL0     H82294  11.486   7.229   6.020  2.4900 -1.2084  2.1230
  610MOL0     H82295  11.569   6.984   6.064 -0.1587  0.8834 -0.6606
  610MOL0     H82296  11.610   6.987   5.892 -1.8488 -0.1686 -0.1842
  610MOL0     H82297  11.723   7.206   6.083 -0.0188  0.6048 -0.8554
  610MOL0     H82298  11.778   7.166   5.914  0.5481 -1.3483 -0.1003
  610MOL0     H82299  11.797   6.960   6.130 -0.8842  1.8283  2.0779
  610MOL0     H82300  11.891   6.974   5.979  3.1401  0.2800 -0.1234
  610MOL0     H82301  11.848   7.128   6.335  0.7457  1.1999  2.0268
  610MOL0     H82302  12.052   7.262   6.513  1.1188 -0.3906  2.1153
  610MOL0     H82303  12.014   7.096   6.508 -0.4829  0.1869  0.4988
  610MOL0     H82304  12.216   7.098   6.614  1.5052 -2.2239 -0.9827
  610MOL0     H82305  12.281   7.065   6.455  0.7043 -1.1783  0.7024
  610MOL0     H82306  12.410   7.249   6.583  1.4511  0.7429 -1.0165
  610MOL0     H82307  12.258   7.340   6.571 -1.2366 -1.6833  0.6805
  610MOL0     H82308  12.284   7.350   6.324  0.8744  1.9030 -1.5194
  610MOL0     H82309  12.439   7.263   6.334 -3.2469 -2.1655 -0.2403
  610MOL0     H82310  12.635   7.265   6.448  1.0830 -0.9399  1.8864
  610MOL0     H82311  12.843   7.304   6.566 -0.6370 -0.5636 -1.3922
  610MOL0     H82312  13.055   7.583   6.963  1.3641  2.3141 -1.1876
  610MOL0     H82313  13.285   7.592   7.058  3.1929 -0.3107 -0.8953
  610MOL0     H82314  13.553   7.257   6.962  2.1952 -1.2082  1.0959
  610MOL0     H82315  13.664   7.382   6.897  1.4291  2.6040  2.3203
  610MOL0     H82316  13.743   7.258   7.102 -0.2032  0.4216 -0.6859
  610MOL0     H82317  13.734   7.433   7.112  2.2037 -0.8149 -0.0499
  610MOL0     H82318  13.503   7.392   7.246 -1.1491 -1.8517  0.2819
  610MOL0     H82319  13.497   7.235   7.198 -0.3072  0.0013 -1.0325
  610MOL0     H82320  13.665   7.372   7.401 -1.7217  1.1558 -1.5739
  610MOL0     H82321  13.714   7.202   7.355 -0.1973  0.3259  1.1335
  610MOL0     H82322  13.452   7.287   7.487  0.9275  1.0709 -0.0140
  610MOL0     H82323  13.599   7.211   7.560 -1.1740 -0.1249  0.6078
  610MOL0     H82324  13.426   7.074   7.354  0.3862  1.6207  0.7430
  610MOL0     H82325  13.581   7.016   7.412  0.3211  1.9825 -1.3103
  610MOL0     H82326  13.463   7.024   7.653 -3.6490  3.0458  1.7850
  610MOL0     H82327  13.463   6.893   7.545  3.0303  1.1263 -1.6501
  610MOL0     H82328  13.238   6.972   7.457 -0.1010  1.6314 -0.7173
  610MOL0     H82329  13.252   6.931   7.633  1.3126 -0.5823  0.4776
  610MOL0     H82330  13.418   7.310   6.762  0.5275  1.7065 -2.0558
  610MOL0     H82331  13.193   7.281   6.683  3.6992 -2.1457  0.2280
  610MOL0     H82332  12.738   7.713   6.625  0.3567  0.8673 -0.3315
  610MOL0     H82333  12.534   7.681   6.508  2.1995  0.9430  2.3402
  610MOL0     H82334  10.891   7.530   5.991 -0.7995  0.4362  0.3651
  610MOL0     H82335  10.671   7.628   5.974 -0.1704  1.3890 -1.6504
  610MOL0     H82336  10.398   7.780   5.707  0.0828 -1.5052  1.0868
  610MOL0     H82337  10.232   7.933   5.644 -0.6127 -1.0619 -2.5210
  610MOL0     H82338  10.023   7.977   5.516 -2.0868  0.4167 -1.5950
  610MOL0     H82339  10.070   8.083   5.655 -0.2661  0.0305  0.9408
  610MOL0     H82340   9.855   8.149   5.689  0.7133  1.1058 -0.1765
  610MOL0     H82341   9.793   8.034   5.565  0.5586 -0.3731 -1.5574
  610MOL0     H82342   9.929   8.127   5.391 -1.6988  1.2008 -1.7557
  610MOL0     H82343   9.989   8.239   5.512 -0.9817  0.2384 -1.5393
  610MOL0     H82344   9.761   8.350   5.530  0.3778  1.4151 -0.5826
  610MOL0     H82345   9.821   8.341   5.356 -1.2127 -2.8052 -3.3002
  610MOL0     H82346   9.477   8.113   5.340  0.7325 -2.7618  2.5420
  610MOL0     H82347   9.948   7.710   5.879 -1.1453 -0.5762 -0.9620
  610MOL0     H82348   9.972   7.510   5.950  0.0215 -0.6231  0.9634
  610MOL0     H82349  10.088   7.399   5.874 -0.0749 -0.2087  0.6232
  610MOL0     H82350  10.119   7.481   6.029 -0.0658 -1.1704  0.0636
  611MOL0     O82351   9.087   6.339   8.870 -0.3908  0.6967  0.4607
  611MOL0     C82352   9.050   6.369   8.984 -0.3191 -0.3484  0.0791
  611MOL0     O82353   9.123   6.369   9.092 -0.1324 -0.7381 -0.0768
  611MOL0     C82354   9.267   6.375   9.077  0.3440  0.4874  0.2392
  611MOL0     C82355   9.332   6.357   9.193  0.2330  0.2901 -0.4963
  611MOL0     C82356   9.472   6.358   9.199 -0.0019 -0.1492  0.4267
  611MOL0     C82357   9.550   6.380   9.084 -0.6536 -0.4807 -0.2236
  611MOL0     O82358   9.679   6.372   9.114 -0.0994  0.1594 -0.6117
  611MOL0     C82359   9.781   6.406   9.016  0.1447 -0.2453  0.8306
  611MOL0     C82360   9.916   6.413   9.092 -0.6556  0.6338  0.4430
  611MOL0     C82361   9.962   6.264   9.119  0.2824 -0.0544  0.9375
  611MOL0     C82362  10.100   6.251   9.181  0.3579  0.9115  0.0061
  611MOL0     C82363  10.147   6.102   9.183  0.3117  0.3606  0.3103
  611MOL0     C82364  10.259   6.102   9.292  0.0533  0.2739  0.4560
  611MOL0     C82365  10.329   5.976   9.280 -0.7576  0.3121  0.2653
  611MOL0     C82366  10.462   5.993   9.361  0.5999 -0.5686  0.0296
  611MOL0     N82367  10.529   5.862   9.370  0.1546  0.4576  0.1098
  611MOL0     C82368  10.510   5.769   9.465  0.1670 -0.2205 -0.9544
  611MOL0     C82369  10.544   5.653   9.404 -0.1997  0.1387  0.0330
  611MOL0     C82370  10.545   5.512   9.471  0.0258  0.4052 -1.1352
  611MOL0     C82371  10.411   5.444   9.446 -0.7776  0.6619 -0.0648
  611MOL0     C82372  10.404   5.388   9.305  0.0283  0.1686  0.1404
  611MOL0     C82373  10.282   5.299   9.272  0.1019 -0.0966 -0.3676
  611MOL0     O82374  10.286   5.165   9.327  0.2458  0.2132 -0.3560
  611MOL0     C82375  10.232   5.061   9.260 -0.1844 -0.0442  0.4166
  611MOL0     C82376  10.296   4.940   9.282  0.2762 -0.2593 -0.0083
  611MOL0     C82377  10.249   4.823   9.218 -0.4518 -0.0063  0.5416
  611MOL0     C82378  10.130   4.826   9.147  0.1716  0.2286 -0.0848
  611MOL0     C82379  10.067   4.704   9.083 -0.1803  0.2196  0.1322
  611MOL0     O82380  10.144   4.589   9.098  0.1502  0.2750  0.3147
  611MOL0     C82381  10.111   4.480   9.017  0.0202  0.4946  0.0030
  611MOL0     C82382  10.194   4.442   8.912  0.0609 -0.3326  0.0579
  611MOL0     C82383  10.139   4.353   8.812 -1.1278 -0.3753 -0.8677
  611MOL0     C82384  10.007   4.305   8.819  0.2455 -0.0548 -0.0749
  611MOL0     O82385   9.940   4.236   8.721 -0.0611 -0.1380  0.0388
  611MOL0     C82386  10.000   4.232   8.586  0.2853  0.9156 -0.9772
  611MOL0     C82387   9.895   4.182   8.494  0.4710  0.7423  0.3058
  611MOL0     C82388   9.942   4.175   8.348  0.3714 -0.1088  0.0065
  611MOL0     C82389  10.077   4.105   8.326  0.2756  0.2933 -0.1324
  611MOL0     C82390  10.115   4.078   8.180 -0.1153 -0.0151  0.7909
  611MOL0     C82391  10.250   3.996   8.183 -0.2441  0.4017  1.0147
  611MOL0     C82392  10.289   3.959   8.041  0.6986 -0.0020  0.1898
  611MOL0     C82393  10.440   3.950   8.028  0.3498 -0.2225  0.9334
  611MOL0    Cl82394  10.500   3.887   7.865 -0.1337  0.1270 -0.1356
  611MOL0     C82395   9.931   4.335   8.930 -1.3208  1.1414  0.2002
  611MOL0     C82396   9.984   4.414   9.036 -0.5509  0.4577  0.2773
  611MOL0     O82397   9.965   4.706   9.015  0.1785 -0.0520 -0.4561
  611MOL0     C82398  10.055   4.941   9.139  0.5078  0.7092  1.6970
  611MOL0     C82399  10.107   5.059   9.195 -0.5006 -0.1488 -0.1169
  611MOL0     N82400  10.595   5.681   9.280  0.8617  0.4878  0.2117
  611MOL0     N82401  10.590   5.807   9.265  0.1999  0.5275  0.4306
  611MOL0     C82402   9.482   6.394   8.961 -0.0796  0.7435  0.0343
  611MOL0     C82403   9.341   6.401   8.957 -0.1984 -0.2696 -0.1556
  611MOL0     C82404   8.909   6.400   9.001  0.6197  0.2026 -0.0739
  611MOL0     C82405   8.859   6.389   9.127 -0.5697 -0.3546 -0.5116
  611MOL0     C82406   8.727   6.411   9.150 -0.3356 -0.8884 -0.3733
  611MOL0     C82407   8.627   6.430   9.052 -0.7996 -0.3344 -0.3878
  611MOL0     O82408   8.499   6.426   9.101  0.4577  0.5675  0.3025
  611MOL0     C82409   8.390   6.444   9.015  0.0637  0.3424 -0.4435
  611MOL0     C82410   8.370   6.593   8.988  0.0628 -0.0968 -0.2337
  611MOL0     C82411   8.216   6.611   8.969  0.2634  0.0847  0.1453
  611MOL0     C82412   8.167   6.751   8.998 -0.2467  0.2038 -1.2407
  611MOL0     C82413   8.211   6.830   8.880  0.0193  0.4035  0.6734
  611MOL0     C82414   8.241   6.904   8.787  0.6921  0.1274  0.1939
  611MOL0     C82415   8.678   6.436   8.921 -0.4866 -0.6672 -0.0216
  611MOL0     C82416   8.821   6.435   8.898  0.0379 -0.2708 -0.0636
  611MOL0     C82417   8.856   6.467   8.761  0.3369  0.0325  0.5668
  611MOL0     H82418   9.267   6.339   9.278  0.2695 -0.8769 -0.6937
  611MOL0     H82419   9.515   6.345   9.297  1.2224 -3.3401 -0.3937
  611MOL0     H82420   9.790   6.334   8.935  3.1193  1.4791 -0.5547
  611MOL0     H82421   9.762   6.506   8.977 -1.5894 -0.7851  0.2395
  611MOL0     H82422   9.899   6.481   9.175  0.8645 -1.2046  2.3735
  611MOL0     H82423   9.987   6.464   9.027 -2.4073  0.8648 -1.3864
  611MOL0     H82424   9.969   6.200   9.030 -3.5579  1.5182 -0.7076
  611MOL0     H82425   9.893   6.219   9.190  0.3254  0.6064  1.4049
  611MOL0     H82426  10.163   6.310   9.114  0.1505  1.0496 -0.0666
  611MOL0     H82427  10.085   6.292   9.281  0.4014 -0.3700  0.5668
  611MOL0     H82428  10.067   6.030   9.198  0.6021  0.2935  1.6166
  611MOL0     H82429  10.193   6.083   9.085 -0.6378 -1.9317  0.2488
  611MOL0     H82430  10.323   6.188   9.270 -0.3969  0.2064 -1.2465
  611MOL0     H82431  10.212   6.117   9.389  1.1135  1.1625  0.8546
  611MOL0     H82432  10.363   5.947   9.180 -1.5080 -1.6123  0.5129
  611MOL0     H82433  10.279   5.888   9.321 -1.0925  0.4482  0.1470
  611MOL0     H82434  10.525   6.054   9.295 -0.0792  0.2034  0.0791
  611MOL0     H82435  10.450   6.040   9.459  0.3868  1.9146 -1.1142
  611MOL0     H82436  10.459   5.771   9.561 -2.3940 -0.3781 -2.2243
  611MOL0     H82437  10.625   5.446   9.438 -1.3803 -1.3144 -1.2371
  611MOL0     H82438  10.544   5.525   9.580 -0.8008 -0.0873 -1.0720
  611MOL0     H82439  10.399   5.359   9.514  2.7167 -2.1274 -2.6055
  611MOL0     H82440  10.328   5.516   9.454 -0.9173  0.7309 -1.7556
  611MOL0     H82441  10.494   5.327   9.291  0.1280 -0.2226  2.1686
  611MOL0     H82442  10.414   5.473   9.236  2.8570  0.1151  0.3471
  611MOL0     H82443  10.276   5.298   9.163  2.6909  1.3938 -0.6145
  611MOL0     H82444  10.187   5.339   9.307  0.6713  1.1891 -0.2507
  611MOL0     H82445  10.383   4.936   9.346 -1.5356 -5.0542  2.7357
  611MOL0     H82446  10.313   4.736   9.229  1.6910  1.6949  2.4873
  611MOL0     H82447  10.291   4.490   8.902 -0.3788  0.0710 -3.1148
  611MOL0     H82448  10.214   4.324   8.739  4.0247 -0.6619  3.8516
  611MOL0     H82449  10.035   4.326   8.544  1.2352  0.3998 -1.3766
  611MOL0     H82450  10.081   4.158   8.581  2.0110  2.8010 -3.5720
  611MOL0     H82451   9.872   4.084   8.536  1.2709  0.2034 -0.4490
  611MOL0     H82452   9.813   4.253   8.499  1.5609  2.0269  0.5282
  611MOL0     H82453   9.867   4.133   8.281 -0.8203 -0.2841  1.3885
  611MOL0     H82454   9.959   4.277   8.312 -2.9629  0.5376  0.0043
  611MOL0     H82455  10.070   4.009   8.379 -1.7486  0.6509  0.3407
  611MOL0     H82456  10.148   4.166   8.382 -0.2515 -0.6478  1.6716
  611MOL0     H82457  10.113   4.171   8.122 -0.7109 -1.3739 -1.5230
  611MOL0     H82458  10.038   4.021   8.127  1.4290 -0.8437 -0.6777
  611MOL0     H82459  10.332   4.049   8.233 -0.0558  0.5438  0.5589
  611MOL0     H82460  10.234   3.909   8.248 -1.5986 -0.6781 -0.6720
  611MOL0     H82461  10.246   4.027   7.967 -0.5858 -0.9200  0.0599
  611MOL0     H82462  10.240   3.863   8.020  1.0520 -0.4677  1.4244
  611MOL0     H82463  10.498   4.041   8.044  1.9838 -0.6907 -1.6503
  611MOL0     H82464  10.467   3.886   8.112 -0.5563 -0.6511  0.9164
  611MOL0     H82465   9.829   4.299   8.936 -0.8651 -0.1074  0.8399
  611MOL0     H82466   9.937   4.427   9.132  0.2934 -5.1066  1.8323
  611MOL0     H82467   9.956   4.943   9.095  1.4850  0.6036 -0.6107
  611MOL0     H82468  10.056   5.154   9.181 -0.2409 -0.0598 -0.4603
  611MOL0     H82469   9.533   6.406   8.865 -1.4603  3.3394 -0.4807
  611MOL0     H82470   9.300   6.416   8.858 -1.3266 -2.5158 -0.0967
  611MOL0     H82471   8.914   6.356   9.215 -0.2589  2.3991  0.4279
  611MOL0     H82472   8.696   6.389   9.252 -1.5636 -0.3245 -0.6067
  611MOL0     H82473   8.302   6.410   9.072 -0.6109  2.7038  0.0258
  611MOL0     H82474   8.387   6.380   8.926 -1.8901  2.4330 -1.9951
  611MOL0     H82475   8.423   6.621   8.896  0.9586 -1.9210 -0.3314
  611MOL0     H82476   8.404   6.646   9.078 -1.0543  3.5973 -1.8338
  611MOL0     H82477   8.172   6.557   9.053  1.2397  3.1231  2.8486
  611MOL0     H82478   8.180   6.571   8.874  0.5828  1.6527 -0.6684
  611MOL0     H82479   8.060   6.757   9.020  0.3495  0.9774  2.1326
  611MOL0     H82480   8.217   6.787   9.088  0.5348  0.1744 -1.6552
  611MOL0     H82481   8.259   6.954   8.694 -1.4521 -1.7410 -1.3411
  611MOL0     H82482   8.611   6.449   8.837 -0.5283 -1.9900 -0.2158
  611MOL0     H82483   8.768   6.481   8.698  1.0420 -1.6407 -0.8670
  611MOL0     H82484   8.930   6.546   8.745 -0.7615  1.4839  2.1966
  611MOL0     H82485   8.901   6.377   8.718  0.3012  0.0336  0.5267
  612MOL0     O82486  10.710   4.181   9.039  0.0863 -0.8116  0.1690
  612MOL0     C82487  10.665   4.094   9.116  0.1424  0.0096 -0.4536
  612MOL0     O82488  10.739   4.011   9.201  0.0233  0.4931 -0.2447
  612MOL0     C82489  10.867   4.031   9.252  0.0399 -0.7503  0.1399
  612MOL0     C82490  10.922   3.913   9.305  0.6447 -0.6548  0.1353
  612MOL0     C82491  11.056   3.919   9.352  0.8433  0.1248  0.1089
  612MOL0     C82492  11.128   4.041   9.361 -0.1697  0.4999  0.4103
  612MOL0     O82493  11.256   4.027   9.408  0.5189  0.0730 -0.1599
  612MOL0     C82494  11.350   4.130   9.385 -0.1192  0.3925 -0.2555
  612MOL0     C82495  11.474   4.082   9.462 -0.8560 -0.3140 -0.6370
  612MOL0     C82496  11.608   4.123   9.408  0.3494 -0.1393  0.9272
  612MOL0     C82497  11.615   4.279   9.401  0.1516 -0.2843  0.6743
  612MOL0     C82498  11.751   4.330   9.353  0.2363  0.0163 -0.5494
  612MOL0     C82499  11.738   4.480   9.322 -0.7605  0.0356 -0.3584
  612MOL0     C82500  11.867   4.532   9.252  1.2047  0.9945 -0.1569
  612MOL0     C82501  11.874   4.677   9.202  0.0419 -0.0109 -0.8534
  612MOL0     N82502  11.766   4.710   9.103  0.5596 -0.4473 -0.2624
  612MOL0     C82503  11.757   4.653   8.981  0.9200 -0.3067  0.6913
  612MOL0     C82504  11.689   4.748   8.908  1.0124  0.4209 -0.1239
  612MOL0     C82505  11.637   4.743   8.769 -0.0120  0.4658  0.4158
  612MOL0     C82506  11.557   4.621   8.736 -0.5785 -0.2921 -0.6007
  612MOL0     C82507  11.493   4.617   8.603  0.2875 -0.6440 -0.6097
  612MOL0     C82508  11.372   4.712   8.593 -0.2845  1.0171  0.0998
  612MOL0     O82509  11.324   4.680   8.462 -0.2762 -0.3486  1.1468
  612MOL0     C82510  11.202   4.732   8.417  0.3844  0.2671 -0.4003
  612MOL0     C82511  11.161   4.696   8.292 -0.3324  1.1249  0.5363
  612MOL0     C82512  11.047   4.754   8.236  0.0054 -0.1474  0.3847
  612MOL0     C82513  10.966   4.843   8.307 -0.8367 -1.2507  0.7673
  612MOL0     C82514  10.848   4.910   8.255 -0.6760  0.1523  0.6145
  612MOL0     O82515  10.806   4.856   8.139  1.1088  0.2553  0.2276
  612MOL0     C82516  10.698   4.895   8.063  0.2028 -0.4962 -0.5108
  612MOL0     C82517  10.722   4.900   7.924  0.4423  0.3639 -1.0751
  612MOL0     C82518  10.621   4.939   7.835 -0.6457 -0.3819 -0.1240
  612MOL0     C82519  10.502   4.985   7.883 -0.1918 -0.7866  0.1982
  612MOL0     O82520  10.396   5.015   7.804 -0.3011 -0.1505  0.6282
  612MOL0     C82521  10.419   5.083   7.674  1.0021 -0.9134 -0.3504
  612MOL0     C82522  10.287   5.091   7.592 -0.2757 -1.2636  0.0480
  612MOL0     C82523  10.207   4.955   7.586  1.4999  0.5336 -0.3082
  612MOL0     C82524  10.127   4.957   7.453 -0.2429  0.8324 -0.1625
  612MOL0     C82525  10.086   4.813   7.406  0.8129  0.5141  0.1530
  612MOL0     C82526  10.037   4.798   7.260 -0.0467  0.3625  0.3730
  612MOL0     C82527  10.052   4.652   7.201  0.0090 -0.6875 -0.6058
  612MOL0     C82528   9.974   4.642   7.069  0.1141 -1.0166 -0.2698
  612MOL0    Cl82529   9.801   4.643   7.104 -0.0941  0.1859  0.2815
  612MOL0     C82530  10.477   4.995   8.020  0.4762  0.6618 -0.2793
  612MOL0     C82531  10.573   4.945   8.111  0.1997  0.1793  0.3550
  612MOL0     O82532  10.806   5.008   8.313 -0.1433  0.0207 -0.5412
  612MOL0     C82533  11.020   4.892   8.424 -0.0306  0.1810 -0.2777
  612MOL0     C82534  11.133   4.833   8.484  0.4303 -0.3236  0.6470
  612MOL0     N82535  11.644   4.851   8.992  0.4645  0.7656 -0.7246
  612MOL0     N82536  11.696   4.830   9.108  0.1210 -0.3240  0.1789
  612MOL0     C82537  11.071   4.155   9.310  0.4503  0.0897 -0.3393
  612MOL0     C82538  10.943   4.152   9.255 -0.6323  0.4432 -0.1615
  612MOL0     C82539  10.516   4.066   9.102 -0.4656  0.1548  0.3985
  612MOL0     C82540  10.463   4.007   9.217 -0.0793  0.0544 -0.3294
  612MOL0     C82541  10.326   3.973   9.224 -0.3741 -0.5538 -0.1084
  612MOL0     C82542  10.237   4.022   9.126  0.1049  0.3113 -1.1535
  612MOL0     O82543  10.100   3.996   9.127 -0.8086  0.1260 -0.4194
  612MOL0     C82544  10.046   3.938   9.255 -0.0081  0.1208 -0.5231
  612MOL0     C82545   9.890   3.954   9.253 -1.2055 -0.3931 -0.2214
  612MOL0     C82546   9.848   4.104   9.264  0.7745 -0.4087  0.0025
  612MOL0     C82547   9.706   4.109   9.229 -0.3257 -0.4778  0.4615
  612MOL0     C82548   9.648   4.236   9.273 -1.0543 -0.6999 -0.1804
  612MOL0     C82549   9.601   4.342   9.319 -0.6365 -0.6816  0.2178
  612MOL0     C82550  10.294   4.087   9.020 -1.1344  0.0774  0.4000
  612MOL0     C82551  10.431   4.105   8.999  0.1147  0.3386 -0.0874
  612MOL0     C82552  10.476   4.160   8.865  0.0345  0.2060  0.3237
  612MOL0     H82553  10.870   3.818   9.291 -0.7957  0.0859  0.2552
  612MOL0     H82554  11.100   3.828   9.392  0.3192  0.4366  1.4597
  612MOL0     H82555  11.366   4.141   9.277  0.4151 -0.0525 -0.2287
  612MOL0     H82556  11.326   4.231   9.420 -1.0127  0.4870 -1.0942
  612MOL0     H82557  11.476   3.973   9.462  1.0321 -0.3153 -0.2646
  612MOL0     H82558  11.470   4.100   9.570  1.6742 -0.6687 -0.4360
  612MOL0     H82559  11.620   4.074   9.310  4.2021 -1.5149  1.8838
  612MOL0     H82560  11.690   4.086   9.470  0.5431 -1.3759 -0.0058
  612MOL0     H82561  11.539   4.315   9.331  0.3821 -1.0494  0.0155
  612MOL0     H82562  11.594   4.322   9.500  0.5490 -0.3549  0.7887
  612MOL0     H82563  11.820   4.307   9.435 -1.6406 -0.7795  0.8955
  612MOL0     H82564  11.779   4.277   9.262  3.4527 -0.0388  0.3594
  612MOL0     H82565  11.659   4.490   9.247 -0.9956  0.5124 -0.0560
  612MOL0     H82566  11.724   4.554   9.401  1.5258 -2.4139  2.5598
  612MOL0     H82567  11.889   4.461   9.172 -1.8757 -2.5125  1.7711
  612MOL0     H82568  11.952   4.513   9.318  0.7222 -2.7593 -0.4349
  612MOL0     H82569  11.878   4.752   9.282  1.0324  0.2248 -1.1091
  612MOL0     H82570  11.968   4.677   9.146  0.3948  0.0944 -0.2748
  612MOL0     H82571  11.803   4.565   8.938  2.5394  1.2130 -0.8944
  612MOL0     H82572  11.586   4.838   8.749  0.7548  0.9724  0.8232
  612MOL0     H82573  11.724   4.743   8.702  0.7632 -0.9962  1.3767
  612MOL0     H82574  11.633   4.542   8.728 -0.2659  0.0182 -0.7461
  612MOL0     H82575  11.488   4.604   8.819  0.3918  1.2395  0.5691
  612MOL0     H82576  11.456   4.515   8.592 -3.8495  0.4020  1.4773
  612MOL0     H82577  11.561   4.638   8.520  1.8031  2.3396  1.2050
  612MOL0     H82578  11.385   4.820   8.611 -3.2334  1.4819 -0.0563
  612MOL0     H82579  11.303   4.678   8.670  1.5279  0.3380  1.4853
  612MOL0     H82580  11.223   4.632   8.231 -1.3301 -0.0217  0.6985
  612MOL0     H82581  11.021   4.723   8.135  0.3845  0.1093  0.2086
  612MOL0     H82582  10.821   4.874   7.889 -0.7213 -1.7630 -3.0579
  612MOL0     H82583  10.637   4.945   7.728 -0.3325  1.1560 -0.0126
  612MOL0     H82584  10.462   5.183   7.691  1.1208 -1.1569  0.8834
  612MOL0     H82585  10.492   5.028   7.613  2.1342  1.2393 -1.0496
  612MOL0     H82586  10.218   5.167   7.628 -1.2647 -1.2012 -1.8280
  612MOL0     H82587  10.322   5.125   7.494 -0.4689  1.3526  0.8106
  612MOL0     H82588  10.262   4.861   7.594 -0.5575 -0.6830  0.2484
  612MOL0     H82589  10.129   4.950   7.662  1.9904  0.5136  0.1948
  612MOL0     H82590  10.192   4.998   7.375  0.7840 -1.6558 -0.7106
  612MOL0     H82591  10.038   5.018   7.472 -0.4187  0.2322  0.9862
  612MOL0     H82592  10.014   4.775   7.478 -0.5723  0.4776 -1.1873
  612MOL0     H82593  10.174   4.749   7.413 -1.3328 -2.9654 -1.7472
  612MOL0     H82594   9.932   4.828   7.261 -0.4927 -1.0956  0.0166
  612MOL0     H82595  10.101   4.865   7.203 -3.9065  1.4553 -3.1233
  612MOL0     H82596   9.998   4.584   7.267 -2.4407  1.7487  0.1143
  612MOL0     H82597  10.156   4.627   7.181  0.3981 -0.7405  1.2421
  612MOL0     H82598   9.998   4.735   7.016 -0.4109 -0.1269  1.0003
  612MOL0     H82599   9.996   4.549   7.016  1.4548 -0.9129  0.0796
  612MOL0     H82600  10.377   5.020   8.054  0.4102 -0.2820  0.2651
  612MOL0     H82601  10.550   4.943   8.217 -0.2688 -0.9578  0.2454
  612MOL0     H82602  10.975   4.974   8.478 -0.5852 -0.7975  0.7750
  612MOL0     H82603  11.165   4.872   8.581 -0.8159 -0.9205  1.3217
  612MOL0     H82604  11.132   4.244   9.320  0.4969  0.2609 -1.9503
  612MOL0     H82605  10.904   4.249   9.223  0.3508  0.1086 -2.6315
  612MOL0     H82606  10.531   3.971   9.293  1.2230 -0.0330 -1.4974
  612MOL0     H82607  10.290   3.906   9.302 -4.1816  0.0623 -1.1211
  612MOL0     H82608  10.091   3.984   9.343 -1.6851  2.0886 -0.6082
  612MOL0     H82609  10.076   3.834   9.266 -2.1162 -0.3009  2.2644
  612MOL0     H82610   9.855   3.908   9.346  1.2961  1.8637  1.9933
  612MOL0     H82611   9.858   3.900   9.164 -0.1946 -1.2016 -0.1169
  612MOL0     H82612   9.903   4.158   9.186 -0.8693  0.9271 -0.2916
  612MOL0     H82613   9.860   4.150   9.362  0.2513  2.3539 -1.1341
  612MOL0     H82614   9.685   4.101   9.122  2.8572 -0.8946 -0.2163
  612MOL0     H82615   9.656   4.031   9.287 -0.9372 -0.0278  0.5537
  612MOL0     H82616   9.564   4.427   9.372 -1.2087  0.5380 -2.0136
  612MOL0     H82617  10.233   4.128   8.940 -1.6417 -0.5515  0.4533
  612MOL0     H82618  10.390   4.163   8.798 -0.3145  2.0515  0.7851
  612MOL0     H82619  10.513   4.263   8.870  1.4700 -0.1879 -1.5458
  612MOL0     H82620  10.560   4.102   8.826  3.7147  3.7608  2.2081
  613MOL0     O82621   6.285   9.415   8.492 -0.1946  0.5977 -0.0280
  613MOL0     C82622   6.243   9.464   8.598  0.2349  0.2235  0.8132
  613MOL0     O82623   6.326   9.519   8.690  0.6590 -0.0928  0.2601
  613MOL0     C82624   6.457   9.557   8.658  0.4463  0.2872  0.1085
  613MOL0     C82625   6.560   9.511   8.739  0.6171 -0.6641  0.0991
  613MOL0     C82626   6.700   9.542   8.711  0.2843  0.2623 -0.2367
  613MOL0     C82627   6.728   9.611   8.592 -0.1099  0.7857  0.7107
  613MOL0     O82628   6.850   9.639   8.539  0.2581 -0.0833 -0.5329
  613MOL0     C82629   6.967   9.628   8.619 -0.0645  0.2702 -0.6469
  613MOL0     C82630   7.088   9.655   8.523  0.4983 -0.4038  0.3705
  613MOL0     C82631   7.223   9.618   8.588  0.0081 -0.3941  0.4356
  613MOL0     C82632   7.339   9.672   8.506  0.2788  1.0172  0.1670
  613MOL0     C82633   7.471   9.665   8.576 -0.2600  0.5182 -0.2766
  613MOL0     C82634   7.523   9.533   8.622  0.5558 -0.4438  0.2755
  613MOL0     C82635   7.649   9.543   8.714  0.3749  0.4732 -0.1311
  613MOL0     C82636   7.778   9.550   8.628 -0.7176  1.1787 -0.1344
  613MOL0     N82637   7.886   9.540   8.728  0.1065 -0.0364  0.3027
  613MOL0     C82638   7.930   9.641   8.814  0.1622 -0.1978 -0.0672
  613MOL0     C82639   8.032   9.584   8.885 -0.0990 -0.0124 -0.3109
  613MOL0     C82640   8.113   9.633   8.995 -0.4820  0.8880 -0.5233
  613MOL0     C82641   8.239   9.690   8.933 -0.4824  0.1070 -0.4434
  613MOL0     C82642   8.338   9.734   9.046  0.1312 -0.2390  0.8373
  613MOL0     C82643   8.439   9.824   8.989  0.0409  0.4028 -0.6144
  613MOL0     O82644   8.516   9.746   8.900 -1.0155 -0.0830 -0.0396
  613MOL0     C82645   8.641   9.792   8.869  0.0442  0.8305  0.1194
  613MOL0     C82646   8.736   9.697   8.822 -0.9333 -0.3502  0.2198
  613MOL0     C82647   8.868   9.742   8.789 -0.4202  0.6712 -0.0814
  613MOL0     C82648   8.912   9.872   8.794  0.5864 -1.4283 -0.2399
  613MOL0     C82649   9.049   9.915   8.773  0.5307  0.4358  0.1125
  613MOL0     O82650   9.138   9.815   8.746 -0.4472  0.3853 -0.2425
  613MOL0     C82651   9.270   9.841   8.727  0.0571  0.7277 -0.2741
  613MOL0     C82652   9.324   9.761   8.631 -0.7121  0.5483  0.2510
  613MOL0     C82653   9.462   9.768   8.603  0.4396  0.4853 -0.3198
  613MOL0     C82654   9.544   9.866   8.668  0.2132  0.2573 -0.7218
  613MOL0     O82655   9.674   9.887   8.640  0.0274 -0.6578 -0.2869
  613MOL0     C82656   9.748   9.803   8.541  0.2935  0.3683  0.2175
  613MOL0     C82657   9.879   9.874   8.498 -0.0345 -0.3283 -0.6170
  613MOL0     C82658   9.995   9.860   8.605 -0.8626  0.2402 -0.5969
  613MOL0     C82659  10.003   9.987   8.691 -0.0396 -0.1815 -0.4548
  613MOL0     C82660  10.117   9.997   8.794  0.7906 -0.5004 -0.1716
  613MOL0     C82661  10.257   9.983   8.723 -0.3198  0.0471 -0.1535
  613MOL0     C82662  10.368   9.974   8.830 -0.1888  0.6947  0.4145
  613MOL0     C82663  10.366   9.845   8.905  0.4557  0.0573 -0.2930
  613MOL0    Cl82664  10.534   9.829   8.983 -0.0656 -0.0170  0.1672
  613MOL0     C82665   9.486   9.951   8.761  0.2162  0.1720  0.0748
  613MOL0     C82666   9.352   9.938   8.788 -0.6460 -0.3819  0.6252
  613MOL0     O82667   9.074  10.031   8.788  1.1671  0.0932 -1.0459
  613MOL0     C82668   8.812   9.964   8.849 -0.1239 -0.0694  0.2526
  613MOL0     C82669   8.678   9.929   8.875  0.2643  0.6421  0.5236
  613MOL0     N82670   8.024   9.446   8.856  0.1752  0.1255  0.0378
  613MOL0     N82671   7.942   9.423   8.757 -0.0204 -0.6860 -0.1419
  613MOL0     C82672   6.623   9.668   8.515  0.4035 -0.1371 -0.0303
  613MOL0     C82673   6.490   9.652   8.559  0.1591  1.0784 -0.6145
  613MOL0     C82674   6.097   9.461   8.615  1.0082  0.8658  0.2788
  613MOL0     C82675   6.051   9.537   8.721 -0.4524  0.0666  0.6428
  613MOL0     C82676   5.915   9.535   8.765 -0.8875 -0.5423 -0.3344
  613MOL0     C82677   5.818   9.452   8.710  0.5914 -0.0432  0.3520
  613MOL0     O82678   5.692   9.461   8.767  0.0610  0.0913  0.4338
  613MOL0     C82679   5.592   9.376   8.709 -0.5731  0.1151  0.1636
  613MOL0     C82680   5.549   9.420   8.569 -0.1859 -0.2102 -0.0146
  613MOL0     C82681   5.402   9.396   8.538 -0.1268 -0.2654  0.1664
  613MOL0     C82682   5.362   9.252   8.536 -0.0447 -0.2436  0.4302
  613MOL0     C82683   5.219   9.245   8.504  0.3774 -0.4294 -0.3197
  613MOL0     C82684   5.100   9.258   8.481 -0.4004 -0.4197  0.6695
  613MOL0     C82685   5.860   9.371   8.601 -0.5734 -0.5794  0.3083
  613MOL0     C82686   6.002   9.362   8.560 -0.4257  0.2535 -0.0070
  613MOL0     C82687   6.056   9.249   8.470  0.2896 -0.6867 -0.0238
  613MOL0     H82688   6.520   9.456   8.823 -1.3648  0.6220  0.0729
  613MOL0     H82689   6.779   9.503   8.774  0.4583 -1.4721 -1.4412
  613MOL0     H82690   6.977   9.694   8.705 -1.1359  1.7578 -1.6106
  613MOL0     H82691   6.977   9.523   8.648 -2.5643 -0.3616 -1.8123
  613MOL0     H82692   7.077   9.762   8.504 -0.3466 -0.5517  0.0185
  613MOL0     H82693   7.075   9.595   8.433 -2.1709 -1.2831  1.2700
  613MOL0     H82694   7.232   9.509   8.595  1.2575 -0.3260  0.0674
  613MOL0     H82695   7.228   9.667   8.686  0.7339  0.6735 -0.1120
  613MOL0     H82696   7.349   9.610   8.416  1.5949  1.9317 -0.3488
  613MOL0     H82697   7.315   9.774   8.472  0.5600  1.8222  2.2624
  613MOL0     H82698   7.549   9.724   8.526 -0.3271  1.1800  0.3689
  613MOL0     H82699   7.465   9.718   8.672 -2.2679  0.5229 -0.3751
  613MOL0     H82700   7.444   9.485   8.681  0.3046 -3.9251 -2.5057
  613MOL0     H82701   7.550   9.467   8.539 -0.7285 -0.3163 -0.2656
  613MOL0     H82702   7.665   9.457   8.779  1.0246 -0.3335 -1.3136
  613MOL0     H82703   7.637   9.631   8.778 -1.7287  0.3169 -0.2594
  613MOL0     H82704   7.778   9.472   8.552 -2.3635  1.1963 -0.1773
  613MOL0     H82705   7.779   9.646   8.575 -0.1596  2.3384  1.8626
  613MOL0     H82706   7.891   9.742   8.820 -2.7250 -1.2925  1.6355
  613MOL0     H82707   8.057   9.705   9.055  2.2602  2.3352  0.4588
  613MOL0     H82708   8.128   9.546   9.060  1.0372  0.7488 -1.0286
  613MOL0     H82709   8.282   9.616   8.866  1.1525  0.8982 -0.3089
  613MOL0     H82710   8.207   9.774   8.871 -1.1159  1.5359  1.6869
  613MOL0     H82711   8.385   9.650   9.098  4.6784  0.3034 -1.9054
  613MOL0     H82712   8.284   9.799   9.116  0.3492  0.4336  0.3882
  613MOL0     H82713   8.501   9.859   9.073 -2.6466 -0.0661  1.7279
  613MOL0     H82714   8.394   9.909   8.938 -1.2551  0.0958 -0.0282
  613MOL0     H82715   8.707   9.593   8.836 -0.3340 -1.1838 -3.5450
  613MOL0     H82716   8.937   9.659   8.779 -1.1100  0.0730  0.0091
  613MOL0     H82717   9.250   9.703   8.576 -2.5957  1.4523  1.7251
  613MOL0     H82718   9.498   9.707   8.521  2.0336 -0.0434  0.7150
  613MOL0     H82719   9.771   9.703   8.580  1.6200  1.2237  1.7459
  613MOL0     H82720   9.675   9.794   8.460 -1.3856  0.7180  1.6059
  613MOL0     H82721   9.920   9.811   8.419  1.0905  1.2265 -1.3286
  613MOL0     H82722   9.860   9.976   8.463 -2.5797 -0.3359  0.5828
  613MOL0     H82723   9.985   9.767   8.662  2.8676 -0.4668 -0.8216
  613MOL0     H82724  10.090   9.851   8.551 -0.9792 -0.7521 -0.6573
  613MOL0     H82725   9.909  10.015   8.740  0.8393  0.4035  0.9951
  613MOL0     H82726  10.024  10.068   8.621 -1.9569  0.5037 -0.2960
  613MOL0     H82727  10.101   9.909   8.856  0.1463 -0.3930 -0.1739
  613MOL0     H82728  10.122  10.084   8.860 -2.2488 -0.5950  0.3095
  613MOL0     H82729  10.263   9.893   8.661  1.2488 -0.4871  0.7017
  613MOL0     H82730  10.273  10.073   8.661  1.6035 -0.3043 -0.2285
  613MOL0     H82731  10.345  10.060   8.894 -2.2490 -0.0200  0.7248
  613MOL0     H82732  10.464   9.985   8.780 -0.3577  0.2440 -0.0277
  613MOL0     H82733  10.283   9.843   8.977  0.7940 -2.3127  0.1353
  613MOL0     H82734  10.352   9.753   8.848  1.1031 -0.6418  0.6333
  613MOL0     H82735   9.544  10.025   8.816 -0.2251  1.2336 -0.8470
  613MOL0     H82736   9.304  10.015   8.849 -2.5483 -0.4661 -0.6846
  613MOL0     H82737   8.839  10.068   8.868  1.2220 -0.6203  1.5340
  613MOL0     H82738   8.608  10.001   8.916  1.3429  0.8286  2.0671
  613MOL0     H82739   6.656   9.730   8.433 -1.5837 -0.2206 -0.9393
  613MOL0     H82740   6.409   9.686   8.495 -0.9118  0.6838  0.4810
  613MOL0     H82741   6.124   9.598   8.775  3.0440 -2.4335 -0.8517
  613MOL0     H82742   5.886   9.603   8.844 -0.1042 -0.6693  0.0728
  613MOL0     H82743   5.508   9.355   8.776 -1.0999  1.0231 -0.2094
  613MOL0     H82744   5.632   9.275   8.693  0.5520  0.8473 -2.0931
  613MOL0     H82745   5.602   9.367   8.489 -2.1912 -0.7513 -1.0445
  613MOL0     H82746   5.580   9.522   8.544  3.6428 -1.6280 -1.8408
  613MOL0     H82747   5.391   9.436   8.437  0.1901 -0.2603  0.1336
  613MOL0     H82748   5.340   9.452   8.608  1.8098  0.5549  1.3035
  613MOL0     H82749   5.418   9.194   8.461 -1.0783  0.5288 -0.9849
  613MOL0     H82750   5.390   9.211   8.633  2.7111  1.1039  0.2925
  613MOL0     H82751   4.999   9.270   8.446 -0.1408  1.3228  0.4509
  613MOL0     H82752   5.805   9.300   8.540  2.0485 -2.2457 -0.2922
  613MOL0     H82753   6.115   9.295   8.390 -1.5500  3.3801  0.6905
  613MOL0     H82754   6.121   9.194   8.539 -1.5183 -1.9300  0.7704
  613MOL0     H82755   5.977   9.181   8.439 -1.2988  0.1723  1.9364
  614MOL0     O82756   8.472   5.173  10.992 -0.0889  0.0773 -0.0150
  614MOL0     C82757   8.431   5.216  10.886 -0.4421 -0.8690 -0.6577
  614MOL0     O82758   8.513   5.292  10.803  0.1175  0.0256  0.2389
  614MOL0     C82759   8.632   5.337  10.856 -0.3553  0.2449 -0.0753
  614MOL0     C82760   8.735   5.248  10.893  0.0417  0.5695  0.1675
  614MOL0     C82761   8.852   5.294  10.951 -1.6228 -0.2207 -0.6459
  614MOL0     C82762   8.873   5.437  10.964  0.3632  0.2474 -0.0660
  614MOL0     O82763   9.002   5.474  11.011 -0.2302 -0.4642  0.2261
  614MOL0     C82764   9.075   5.567  10.920  0.0155 -0.1197 -0.1008
  614MOL0     C82765   9.102   5.704  10.985  0.2532 -0.3305  0.0513
  614MOL0     C82766   9.171   5.805  10.892 -0.2977 -0.2300  0.2366
  614MOL0     C82767   9.171   5.951  10.956 -0.3584  0.3639  0.0404
  614MOL0     C82768   9.237   6.049  10.856  0.9463 -0.1044 -0.8986
  614MOL0     C82769   9.390   6.030  10.821  0.2957  0.3295 -0.4128
  614MOL0     C82770   9.479   6.037  10.951 -0.5118  0.1812 -0.0049
  614MOL0     C82771   9.629   6.030  10.919  0.2878 -0.1595 -0.6074
  614MOL0     N82772   9.674   5.911  10.859  0.3707 -0.0687  0.0601
  614MOL0     C82773   9.765   5.892  10.754 -0.5199 -0.4717  1.2026
  614MOL0     C82774   9.772   5.760  10.738 -0.9127 -0.0881  0.2668
  614MOL0     C82775   9.857   5.686  10.635 -0.3040 -0.0550 -0.2549
  614MOL0     C82776   9.980   5.614  10.687 -0.2603 -0.0040  0.2587
  614MOL0     C82777  10.046   5.555  10.564 -0.8223  0.0167  0.2389
  614MOL0     C82778  10.163   5.460  10.607  0.1898 -0.1736  0.4184
  614MOL0     O82779  10.258   5.534  10.686 -0.0459 -0.6463 -0.0397
  614MOL0     C82780  10.384   5.478  10.677 -1.1798  0.0008  0.1491
  614MOL0     C82781  10.409   5.342  10.664  0.2197  0.1763  0.5114
  614MOL0     C82782  10.541   5.293  10.676  0.7994 -0.4550  0.3645
  614MOL0     C82783  10.648   5.387  10.687  0.6945  0.4482  0.3094
  614MOL0     C82784  10.793   5.345  10.672 -0.0081  0.6907  0.5756
  614MOL0     O82785  10.821   5.212  10.645  0.1879  0.1800  0.6124
  614MOL0     C82786  10.950   5.158  10.654 -0.9381 -0.8054  0.3876
  614MOL0     C82787  11.040   5.198  10.757  0.4242  0.2698  0.1813
  614MOL0     C82788  11.161   5.129  10.763 -0.5927  0.2020 -0.6172
  614MOL0     C82789  11.205   5.039  10.656  0.4133 -0.8564  0.5540
  614MOL0     O82790  11.337   5.015  10.654 -0.7775  0.5882 -0.6034
  614MOL0     C82791  11.403   5.008  10.525 -0.5120 -1.0317  0.0572
  614MOL0     C82792  11.559   5.033  10.545  0.6948  0.6682 -0.2837
  614MOL0     C82793  11.637   4.921  10.611 -0.3026  0.2207 -0.2944
  614MOL0     C82794  11.761   4.983  10.673  0.8991 -0.4638  1.1242
  614MOL0     C82795  11.834   4.878  10.754 -1.2433 -0.6077 -0.1212
  614MOL0     C82796  11.974   4.926  10.805  0.0508 -1.1363  0.0182
  614MOL0     C82797  12.048   4.824  10.883  0.1239  1.2682 -0.1555
  614MOL0     C82798  12.187   4.860  10.927 -0.6987  0.1610  1.6266
  614MOL0    Cl82799  12.181   4.982  11.062 -0.4216  0.0396  0.0495
  614MOL0     C82800  11.112   5.000  10.553  0.3350 -0.1537  0.5511
  614MOL0     C82801  10.988   5.057  10.562  0.1601  0.8963  0.1528
  614MOL0     O82802  10.872   5.434  10.683  0.1475 -0.4594  0.4134
  614MOL0     C82803  10.616   5.526  10.692  0.2364 -0.0840 -0.1499
  614MOL0     C82804  10.483   5.571  10.688  0.4008  0.2937 -0.9943
  614MOL0     N82805   9.686   5.699  10.827 -0.3430  0.2412  0.2154
  614MOL0     N82806   9.618   5.789  10.890 -0.0466 -0.2915  0.3521
  614MOL0     C82807   8.770   5.526  10.905 -0.5169  0.0823 -0.6010
  614MOL0     C82808   8.648   5.472  10.868  0.3780  0.1610  0.0141
  614MOL0     C82809   8.291   5.201  10.841  0.0381 -0.2095  0.1666
  614MOL0     C82810   8.266   5.214  10.702 -0.2801  0.0274 -0.8899
  614MOL0     C82811   8.137   5.222  10.650 -0.2597  0.6217 -0.0344
  614MOL0     C82812   8.028   5.201  10.728  0.4734 -0.4045 -0.4977
  614MOL0     O82813   7.910   5.218  10.672  0.5025 -0.4109 -0.0498
  614MOL0     C82814   7.790   5.206  10.741 -0.6639  0.6792  0.2000
  614MOL0     C82815   7.669   5.253  10.659 -0.8795 -0.2879  0.1185
  614MOL0     C82816   7.576   5.137  10.610 -0.0980  0.5382 -0.2833
  614MOL0     C82817   7.465   5.185  10.526  0.7559 -0.0137  0.3030
  614MOL0     C82818   7.367   5.268  10.594  0.0714 -0.8703 -0.1909
  614MOL0     C82819   7.279   5.337  10.650 -0.0613 -0.0918  0.2555
  614MOL0     C82820   8.049   5.167  10.866  0.2376 -0.5054  0.0599
  614MOL0     C82821   8.176   5.175  10.922 -0.1157 -0.3778 -0.4526
  614MOL0     C82822   8.190   5.155  11.071  0.0479 -0.5680 -0.0805
  614MOL0     H82823   8.723   5.140  10.887 -0.9197  0.6613  0.3602
  614MOL0     H82824   8.923   5.224  10.992  0.8059  1.8132 -1.1530
  614MOL0     H82825   9.167   5.517  10.890  0.0590 -0.4054  0.4950
  614MOL0     H82826   9.017   5.578  10.828 -0.4937 -0.8712  0.1220
  614MOL0     H82827   9.164   5.689  11.073 -0.3956  0.7815  0.7294
  614MOL0     H82828   9.005   5.751  11.006  0.5015 -0.0501  0.5777
  614MOL0     H82829   9.138   5.802  10.788  0.4421 -0.2993 -0.0073
  614MOL0     H82830   9.276   5.773  10.898 -0.6613 -1.7091 -0.6871
  614MOL0     H82831   9.068   5.985  10.974 -0.7711 -0.6558 -0.3344
  614MOL0     H82832   9.211   5.959  11.057 -0.5364  2.3228 -0.0000
  614MOL0     H82833   9.167   6.050  10.772 -1.9916  0.7811  1.3800
  614MOL0     H82834   9.238   6.147  10.905 -1.4372 -1.7569  2.9178
  614MOL0     H82835   9.405   5.938  10.764  2.6542  0.3277  0.0794
  614MOL0     H82836   9.422   6.114  10.758  0.7161  3.6104  3.7784
  614MOL0     H82837   9.448   5.960  11.023 -1.8134  1.6376  1.0557
  614MOL0     H82838   9.460   6.132  11.003  2.7162  2.7034 -2.9596
  614MOL0     H82839   9.663   6.117  10.862  0.1664  1.7806  2.0927
  614MOL0     H82840   9.683   6.050  11.012  0.2181  2.8715 -1.0952
  614MOL0     H82841   9.822   5.961  10.692 -3.2757  1.9583  1.1307
  614MOL0     H82842   9.793   5.611  10.586  1.7263  0.1158 -3.4340
  614MOL0     H82843   9.881   5.753  10.552 -1.9242 -1.2132 -1.7632
  614MOL0     H82844  10.042   5.683  10.745  0.2420 -0.7830  0.6732
  614MOL0     H82845   9.944   5.533  10.752  1.3555 -2.2247 -1.4183
  614MOL0     H82846  10.073   5.637  10.496 -2.5821 -0.0432 -0.5949
  614MOL0     H82847   9.971   5.495  10.512 -1.4788  0.6052  0.4829
  614MOL0     H82848  10.201   5.418  10.514 -2.8651 -1.0789 -0.5322
  614MOL0     H82849  10.120   5.384  10.673  1.1786  0.5263  1.9295
  614MOL0     H82850  10.327   5.270  10.657 -0.3224  0.5422  2.5524
  614MOL0     H82851  10.563   5.186  10.670  1.3062 -0.3156 -0.6408
  614MOL0     H82852  10.999   5.256  10.839  0.7266  0.2658  0.3391
  614MOL0     H82853  11.234   5.170  10.832 -1.2059 -0.2560  0.3213
  614MOL0     H82854  11.388   4.912  10.474 -2.1387  0.7640 -3.2192
  614MOL0     H82855  11.363   5.077  10.449 -1.9043 -0.1069  1.5655
  614MOL0     H82856  11.609   5.048  10.448  2.7275  1.2823  0.8071
  614MOL0     H82857  11.571   5.125  10.602  1.4619  2.6917 -3.4196
  614MOL0     H82858  11.577   4.872  10.689 -0.9356  0.0283 -0.8880
  614MOL0     H82859  11.661   4.856  10.527  1.2606  4.2056 -3.2396
  614MOL0     H82860  11.745   5.073  10.733  0.2716  0.1751  0.0261
  614MOL0     H82861  11.814   5.023  10.586 -1.0668  1.3187  0.6547
  614MOL0     H82862  11.856   4.793  10.689  3.8887 -0.6477  1.2118
  614MOL0     H82863  11.778   4.841  10.840 -1.9214  1.6032  0.4565
  614MOL0     H82864  12.028   4.958  10.716  1.7181 -0.9012  1.0813
  614MOL0     H82865  11.962   5.016  10.865  0.5607 -0.2351 -1.2041
  614MOL0     H82866  12.054   4.734  10.822 -2.4498 -0.5438  2.0089
  614MOL0     H82867  11.995   4.807  10.978  4.9521 -0.8095  2.5173
  614MOL0     H82868  12.242   4.772  10.960  4.1182  2.5670  0.9017
  614MOL0     H82869  12.248   4.898  10.844 -1.4009 -0.9444  0.5541
  614MOL0     H82870  11.133   4.923  10.479 -1.1063  0.0146 -0.0715
  614MOL0     H82871  10.907   5.028  10.496 -0.5044 -0.5486  1.5522
  614MOL0     H82872  10.692   5.602  10.697 -0.6513  0.7635  1.3286
  614MOL0     H82873  10.467   5.678  10.685  0.3025  0.3644  0.9473
  614MOL0     H82874   8.791   5.632  10.899  1.6893 -0.3454 -1.6637
  614MOL0     H82875   8.566   5.539  10.844  1.2164  0.9739 -0.6822
  614MOL0     H82876   8.343   5.244  10.632  0.1570  2.4106  0.5065
  614MOL0     H82877   8.127   5.232  10.543  3.0038  2.5681 -0.3006
  614MOL0     H82878   7.780   5.257  10.837  1.7754 -0.7501  1.3149
  614MOL0     H82879   7.783   5.099  10.765  0.6405  0.5059 -0.1116
  614MOL0     H82880   7.697   5.303  10.566 -5.4780 -4.1886 -3.9481
  614MOL0     H82881   7.613   5.319  10.726  1.9221  0.3490  2.0295
  614MOL0     H82882   7.539   5.077  10.693  2.6392  1.1321  1.5058
  614MOL0     H82883   7.644   5.073  10.553  0.5518  0.8386  0.1440
  614MOL0     H82884   7.506   5.241  10.442 -2.7293  3.1480  0.4872
  614MOL0     H82885   7.416   5.107  10.467 -1.1300  2.2501 -1.3088
  614MOL0     H82886   7.195   5.388  10.693  0.8143 -1.0462  3.3921
  614MOL0     H82887   7.967   5.152  10.936  0.2834 -2.2260 -0.2171
  614MOL0     H82888   8.262   5.083  11.112 -2.1065 -1.9093  1.5507
  614MOL0     H82889   8.217   5.252  11.113  3.2980 -1.1713 -0.4568
  614MOL0     H82890   8.094   5.135  11.119 -0.4996  1.9778 -0.0068
  615MOL0     O82891  10.518   5.403   7.116 -0.0365 -0.4031 -0.0432
  615MOL0     C82892  10.581   5.440   7.015  0.1005  0.5856 -0.0857
  615MOL0     O82893  10.712   5.484   7.008  0.4987 -0.8131  0.1809
  615MOL0     C82894  10.797   5.464   7.112  0.3128 -0.2455  0.0174
  615MOL0     C82895  10.837   5.567   7.193  0.3879  0.1249 -0.4669
  615MOL0     C82896  10.939   5.542   7.282 -0.0804 -0.7490  0.7345
  615MOL0     C82897  11.006   5.417   7.293 -0.5332 -1.0690  0.0198
  615MOL0     O82898  11.100   5.404   7.391  0.1081  0.0978  0.5606
  615MOL0     C82899  11.178   5.280   7.409 -0.6230 -0.3349 -0.0040
  615MOL0     C82900  11.303   5.308   7.495  0.2833 -0.4527 -0.5896
  615MOL0     C82901  11.416   5.214   7.462 -0.2530  0.0732 -0.2844
  615MOL0     C82902  11.512   5.198   7.579  0.4339  0.1836  0.3439
  615MOL0     C82903  11.608   5.079   7.547  0.0955  0.3004  0.2561
  615MOL0     C82904  11.701   5.048   7.658  0.0389 -0.9745  0.1093
  615MOL0     C82905  11.810   4.947   7.615  0.1370  0.5346  0.5775
  615MOL0     C82906  11.756   4.801   7.594 -0.1027 -0.3914  0.0617
  615MOL0     N82907  11.869   4.710   7.618 -0.0427  0.0322 -0.4677
  615MOL0     C82908  12.002   4.707   7.573  0.1377  0.1634 -0.1012
  615MOL0     C82909  12.072   4.617   7.648  0.5371 -0.3475  0.7135
  615MOL0     C82910  12.218   4.593   7.641 -0.7505 -0.5821 -0.4213
  615MOL0     C82911  12.285   4.636   7.777  0.2519  0.2661  0.3550
  615MOL0     C82912  12.440   4.620   7.779 -0.1009  0.1749 -0.3302
  615MOL0     C82913  12.489   4.657   7.915  0.3885 -0.1671  0.2282
  615MOL0     O82914  12.618   4.606   7.947 -0.2581 -0.0124  0.6226
  615MOL0     C82915  12.733   4.675   7.920  0.2883 -1.2992  0.3652
  615MOL0     C82916  12.732   4.800   7.862 -0.7978 -0.3904 -0.0312
  615MOL0     C82917  12.852   4.863   7.826  0.0131 -0.3644 -0.3653
  615MOL0     C82918  12.974   4.801   7.866 -0.0167 -0.8695  0.1776
  615MOL0     C82919  13.109   4.868   7.841  0.7013 -0.5682  0.7030
  615MOL0     O82920  13.224   4.801   7.884  0.4158  0.5147 -0.8241
  615MOL0     C82921  13.350   4.848   7.834 -0.1095  0.6834 -1.0154
  615MOL0     C82922  13.460   4.860   7.923 -0.0635 -0.1819 -0.1440
  615MOL0     C82923  13.589   4.901   7.881 -0.3642  0.4281 -0.5121
  615MOL0     C82924  13.608   4.923   7.743 -0.2801  1.2427 -0.5359
  615MOL0     O82925  13.731   4.962   7.690 -0.1694  0.9883  1.1262
  615MOL0     C82926  13.834   5.006   7.780 -0.2050  0.0636  0.6946
  615MOL0     C82927  13.941   5.058   7.692 -0.6002  0.0624  0.4481
  615MOL0     C82928  14.075   5.086   7.755 -0.7706  0.4481 -0.5640
  615MOL0     C82929  14.183   5.108   7.647  0.0701  0.3423  0.5756
  615MOL0     C82930  14.325   5.158   7.684  0.0287  0.9295  0.2508
  615MOL0     C82931  14.408   5.183   7.560  0.1644  0.2572  0.3847
  615MOL0     C82932  14.545   5.226   7.590  0.1031  0.1036 -0.0353
  615MOL0     C82933  14.646   5.206   7.467  0.8240  0.5916 -0.0400
  615MOL0    Cl82934  14.821   5.214   7.510  0.1991 -0.0796 -0.0874
  615MOL0     C82935  13.494   4.909   7.654 -0.2313 -0.9548 -0.4675
  615MOL0     C82936  13.369   4.873   7.702  0.0868 -0.1908  0.1087
  615MOL0     O82937  13.105   4.988   7.796 -0.2142  0.3171 -0.7236
  615MOL0     C82938  12.979   4.681   7.929  1.3811  1.0284  0.6158
  615MOL0     C82939  12.851   4.617   7.961 -0.5354  0.6776 -1.1835
  615MOL0     N82940  11.980   4.562   7.735  0.1958  0.1173 -0.4530
  615MOL0     N82941  11.871   4.623   7.726 -0.7076  0.3446 -0.3306
  615MOL0     C82942  10.966   5.316   7.215 -0.4698 -0.7852 -0.4224
  615MOL0     C82943  10.855   5.335   7.124  0.2095  1.2665 -0.3995
  615MOL0     C82944  10.508   5.447   6.885 -0.7327 -0.0112  0.2137
  615MOL0     C82945  10.577   5.438   6.770 -0.2517  0.8632 -0.9050
  615MOL0     C82946  10.514   5.442   6.645  0.6034 -0.3872 -0.4727
  615MOL0     C82947  10.377   5.453   6.632  0.4640 -0.2403 -0.6111
  615MOL0     O82948  10.324   5.472   6.504 -0.6037 -0.2731  0.0122
  615MOL0     C82949  10.189   5.518   6.493 -0.2836 -0.2896  0.0402
  615MOL0     C82950  10.167   5.566   6.353 -0.0902  0.2549 -0.0160
  615MOL0     C82951  10.262   5.672   6.299 -0.6207 -0.2416  1.0035
  615MOL0     C82952  10.272   5.805   6.368 -0.6669  0.5934  0.2948
  615MOL0     C82953  10.144   5.873   6.380 -0.4773 -0.1574  0.0669
  615MOL0     C82954  10.032   5.927   6.376  0.0991  0.1158 -0.0988
  615MOL0     C82955  10.305   5.453   6.752  0.5219 -0.5696  0.2090
  615MOL0     C82956  10.369   5.448   6.876  0.4395 -0.7307 -1.0968
  615MOL0     C82957  10.281   5.488   6.986 -0.2222 -0.2610 -0.3136
  615MOL0     H82958  10.787   5.663   7.203  1.4038  0.4709  1.8098
  615MOL0     H82959  10.976   5.631   7.332  1.0369 -1.2513  0.8433
  615MOL0     H82960  11.120   5.203   7.462 -1.1221  1.4546  2.1958
  615MOL0     H82961  11.212   5.242   7.312 -1.9648 -0.3546 -0.4893
  615MOL0     H82962  11.281   5.296   7.602  3.0924  2.1777  0.4362
  615MOL0     H82963  11.335   5.412   7.484 -0.6386  0.1829  2.0425
  615MOL0     H82964  11.473   5.243   7.373  0.1052  0.5159  0.0871
  615MOL0     H82965  11.366   5.122   7.428  0.1787  0.6969 -2.8248
  615MOL0     H82966  11.571   5.288   7.599  2.8737 -1.1226 -0.5780
  615MOL0     H82967  11.456   5.172   7.669  0.0157  1.0637  0.3513
  615MOL0     H82968  11.540   4.995   7.529  0.9530 -0.4303  0.3268
  615MOL0     H82969  11.665   5.102   7.457  2.8435  1.6785  2.1969
  615MOL0     H82970  11.748   5.142   7.690 -0.3882 -0.9404  0.6494
  615MOL0     H82971  11.656   5.011   7.750 -0.1270  1.2831  1.0102
  615MOL0     H82972  11.897   4.939   7.681  1.0824 -1.6687 -0.8005
  615MOL0     H82973  11.850   4.992   7.524 -2.4538  2.9631  0.4788
  615MOL0     H82974  11.674   4.787   7.665 -2.6382 -0.2441 -2.6179
  615MOL0     H82975  11.720   4.788   7.492  2.0783 -1.2376 -0.6577
  615MOL0     H82976  12.047   4.775   7.501 -0.6539  1.2768  0.4228
  615MOL0     H82977  12.240   4.486   7.631  0.7238 -0.5468  1.7926
  615MOL0     H82978  12.265   4.650   7.560  2.5178 -1.2879  0.8142
  615MOL0     H82979  12.260   4.741   7.797 -1.3063  0.6602 -2.9354
  615MOL0     H82980  12.238   4.573   7.853 -0.3467  0.6227  0.2937
  615MOL0     H82981  12.500   4.679   7.709  1.9761 -0.9285  0.4399
  615MOL0     H82982  12.459   4.518   7.748  1.2606  0.2248  0.2688
  615MOL0     H82983  12.424   4.616   7.993  1.5246  0.9310  1.8506
  615MOL0     H82984  12.482   4.765   7.932 -0.1571 -0.4574  2.0502
  615MOL0     H82985  12.642   4.859   7.849 -0.6299 -0.6150 -2.6542
  615MOL0     H82986  12.854   4.965   7.787 -0.4439 -0.0959  0.2803
  615MOL0     H82987  13.435   4.849   8.028  0.6257  1.4213  0.2138
  615MOL0     H82988  13.667   4.917   7.955  0.5875  1.4004 -1.6656
  615MOL0     H82989  13.805   5.082   7.854 -0.3929  0.4820  0.1923
  615MOL0     H82990  13.859   4.919   7.842  1.2698  0.9420  1.3797
  615MOL0     H82991  13.959   4.987   7.610  5.2833  1.1206  0.4148
  615MOL0     H82992  13.914   5.152   7.645  0.6923  0.1808 -0.1089
  615MOL0     H82993  14.051   5.175   7.813 -4.4193 -0.7541  0.0222
  615MOL0     H82994  14.101   5.007   7.827 -1.8655  1.5879  1.1609
  615MOL0     H82995  14.148   5.172   7.566  0.4445 -0.6998 -0.4315
  615MOL0     H82996  14.198   5.010   7.600 -0.4252 -0.4188  1.9531
  615MOL0     H82997  14.372   5.085   7.751  0.8693 -0.7037 -1.9631
  615MOL0     H82998  14.310   5.254   7.733 -1.5005  0.1093  1.4916
  615MOL0     H82999  14.406   5.092   7.500 -0.7551  0.9545 -0.6748
  615MOL0     H83000  14.356   5.248   7.490 -1.1098 -0.6178  0.4910
  615MOL0     H83001  14.586   5.172   7.677 -1.2702  0.0468  0.6069
  615MOL0     H83002  14.551   5.332   7.616 -1.4450  0.7840 -2.1209
  615MOL0     H83003  14.627   5.107   7.424 -0.1255  0.1824  1.2586
  615MOL0     H83004  14.627   5.288   7.398  2.6134  1.5013  0.4730
  615MOL0     H83005  13.516   4.933   7.551 -2.3187  2.8966 -0.1968
  615MOL0     H83006  13.284   4.873   7.635  1.4624  0.3952 -1.7205
  615MOL0     H83007  13.064   4.626   7.967 -0.9421 -2.1497  1.7315
  615MOL0     H83008  12.846   4.519   8.007 -4.4447  0.3695 -1.9242
  615MOL0     H83009  11.001   5.213   7.224 -2.3579 -1.3988  0.3875
  615MOL0     H83010  10.834   5.255   7.054  0.3470  0.4436  0.4838
  615MOL0     H83011  10.685   5.435   6.782 -0.2512  1.3839 -0.7546
  615MOL0     H83012  10.579   5.428   6.560  1.3083  0.8479 -0.1665
  615MOL0     H83013  10.175   5.604   6.560 -1.0726  0.1416 -0.6657
  615MOL0     H83014  10.112   5.444   6.516 -2.9447  1.7042 -1.8567
  615MOL0     H83015  10.066   5.608   6.355 -0.9237 -1.6554  2.0949
  615MOL0     H83016  10.166   5.480   6.285 -0.9921 -1.4896  2.0809
  615MOL0     H83017  10.238   5.694   6.194  0.1091 -2.9776  0.1925
  615MOL0     H83018  10.357   5.619   6.287  0.0152  1.0322  0.0800
  615MOL0     H83019  10.317   5.793   6.467 -1.9610 -0.5537  0.7797
  615MOL0     H83020  10.338   5.860   6.300 -2.1998  1.3287 -0.6290
  615MOL0     H83021   9.931   5.960   6.375  0.6030  1.8001 -2.3534
  615MOL0     H83022  10.197   5.461   6.749  0.6521  1.5613 -3.2397
  615MOL0     H83023  10.330   5.571   7.038 -1.5041  1.2529 -1.4350
  615MOL0     H83024  10.183   5.516   6.946 -0.7862 -2.6610 -0.7367
  615MOL0     H83025  10.262   5.404   7.053 -0.0345  0.1483  0.2620
  616MOL0     O83026   4.297   5.658   3.542  0.8895 -0.9337 -0.2855
  616MOL0     C83027   4.234   5.555   3.506  0.0622 -0.3534  0.2807
  616MOL0     O83028   4.293   5.457   3.431  0.2477  0.3599  0.2950
  616MOL0     C83029   4.429   5.440   3.430 -0.6583 -0.5982 -0.8743
  616MOL0     C83030   4.522   5.461   3.535 -0.2871  0.2782 -0.2879
  616MOL0     C83031   4.659   5.474   3.521 -0.2944 -0.8156 -0.4995
  616MOL0     C83032   4.714   5.445   3.401 -0.2402 -1.0854 -0.0221
  616MOL0     O83033   4.844   5.444   3.373 -0.4715  0.0263  0.3714
  616MOL0     C83034   4.948   5.430   3.471 -0.0899 -0.6040 -0.5225
  616MOL0     C83035   5.083   5.439   3.400 -0.1868  0.4954  0.6995
  616MOL0     C83036   5.134   5.311   3.338 -0.1414  0.1036  0.6634
  616MOL0     C83037   5.272   5.347   3.276  0.1921  0.3397  0.3281
  616MOL0     C83038   5.330   5.225   3.198  0.0698 -0.2456 -0.2277
  616MOL0     C83039   5.455   5.253   3.120  0.4057 -0.1465  0.4259
  616MOL0     C83040   5.500   5.135   3.030 -0.1914 -0.0221  0.0805
  616MOL0     C83041   5.594   5.156   2.903 -0.1267  0.0740 -0.2289
  616MOL0     N83042   5.699   5.255   2.923 -0.5873 -0.3713 -0.0635
  616MOL0     C83043   5.826   5.239   2.883 -0.0623 -0.9347 -0.2939
  616MOL0     C83044   5.892   5.350   2.930  0.2643 -0.1448 -0.6883
  616MOL0     C83045   6.036   5.369   2.917 -0.5309 -0.2963  0.3851
  616MOL0     C83046   6.110   5.306   3.036  0.3935  0.3525  0.0238
  616MOL0     C83047   6.261   5.319   3.007 -0.2892  0.1534 -0.1250
  616MOL0     C83048   6.357   5.258   3.121 -0.1024  0.0437  0.6829
  616MOL0     O83049   6.496   5.257   3.100  0.4428 -0.3263 -0.3834
  616MOL0     C83050   6.589   5.228   3.193  0.4842  0.2233 -0.9638
  616MOL0     C83051   6.574   5.209   3.329  0.6744  0.6209 -0.4713
  616MOL0     C83052   6.673   5.162   3.415  0.2219  1.1467  0.8623
  616MOL0     C83053   6.802   5.127   3.352  0.1746 -0.3354  0.6526
  616MOL0     C83054   6.901   5.064   3.432 -0.5982  0.1612 -0.5660
  616MOL0     O83055   7.019   5.040   3.362  0.9542 -0.5138 -0.0114
  616MOL0     C83056   7.118   4.964   3.424  0.2910 -0.0495 -0.1744
  616MOL0     C83057   7.169   4.992   3.551  0.5986  0.1679 -0.6667
  616MOL0     C83058   7.285   4.926   3.599 -0.1224 -0.4311  0.2446
  616MOL0     C83059   7.339   4.818   3.521  0.1699  0.4723 -1.4295
  616MOL0     O83060   7.444   4.736   3.559  0.1561 -0.2303  0.6269
  616MOL0     C83061   7.545   4.789   3.650 -0.0647 -0.3444  0.4136
  616MOL0     C83062   7.689   4.760   3.595  0.6947  0.7382 -0.8445
  616MOL0     C83063   7.736   4.859   3.495  0.2157 -0.4155  0.2051
  616MOL0     C83064   7.883   4.820   3.444  0.0716  0.2990 -0.4498
  616MOL0     C83065   7.930   4.918   3.338 -0.6652  0.9341  0.1985
  616MOL0     C83066   7.844   4.946   3.221  0.3451 -0.1149  0.3760
  616MOL0     C83067   7.907   5.052   3.126  0.3802 -0.6008 -0.2784
  616MOL0     C83068   7.836   5.056   2.993  0.5405 -0.0047 -0.1887
  616MOL0    Cl83069   7.907   4.922   2.889 -0.2925 -0.5932 -0.0699
  616MOL0     C83070   7.281   4.784   3.403  0.3349  0.2822  0.0941
  616MOL0     C83071   7.169   4.858   3.360  0.5161  0.5036 -0.1526
  616MOL0     O83072   6.872   5.018   3.541  0.4286  0.6434 -0.3195
  616MOL0     C83073   6.826   5.156   3.214 -0.6264 -0.1933  0.4230
  616MOL0     C83074   6.718   5.216   3.147 -0.4554  0.1209  0.4330
  616MOL0     N83075   5.804   5.439   2.984 -0.0162 -0.4168  0.6307
  616MOL0     N83076   5.687   5.387   2.972 -0.1011  0.6500 -0.7784
  616MOL0     C83077   4.634   5.410   3.301 -0.1280 -0.8954 -0.0533
  616MOL0     C83078   4.498   5.417   3.307  0.1861  0.0930 -1.1795
  616MOL0     C83079   4.087   5.534   3.544  0.8639  0.0364 -1.0178
  616MOL0     C83080   4.026   5.650   3.584  0.2810  0.6800 -0.8905
  616MOL0     C83081   3.883   5.648   3.606  0.0429  0.8763  0.3895
  616MOL0     C83082   3.810   5.528   3.605  0.0030  0.1220  0.2021
  616MOL0     O83083   3.673   5.549   3.637  0.0073 -0.1643 -0.3385
  616MOL0     C83084   3.593   5.438   3.665 -0.6415  0.4239  0.5984
  616MOL0     C83085   3.451   5.478   3.698 -1.1385  0.6944  0.0784
  616MOL0     C83086   3.392   5.578   3.596 -0.0391 -0.0210  0.5914
  616MOL0     C83087   3.316   5.506   3.492  0.0414 -0.2153 -0.0822
  616MOL0     C83088   3.190   5.463   3.555  1.1785  0.1786  0.1788
  616MOL0     C83089   3.081   5.410   3.570 -0.7434 -0.2994  0.8954
  616MOL0     C83090   3.875   5.411   3.578 -0.1997  0.4683  0.5750
  616MOL0     C83091   4.011   5.414   3.541 -0.5025 -0.8292 -0.3928
  616MOL0     C83092   4.073   5.285   3.510  0.6181 -0.0360  0.9771
  616MOL0     H83093   4.483   5.491   3.632 -0.0613 -0.6054  0.0796
  616MOL0     H83094   4.711   5.508   3.609 -1.2575 -1.4804  0.3514
  616MOL0     H83095   4.939   5.522   3.530 -1.9445 -0.2344 -1.2916
  616MOL0     H83096   4.942   5.345   3.539  0.3055 -1.0181 -0.9976
  616MOL0     H83097   5.160   5.458   3.475  2.4514 -1.0024 -1.4274
  616MOL0     H83098   5.080   5.519   3.326  1.9919  2.5370  2.6814
  616MOL0     H83099   5.073   5.283   3.251  1.7550 -1.3253 -0.2663
  616MOL0     H83100   5.128   5.235   3.416  0.1637 -0.3825  0.2184
  616MOL0     H83101   5.251   5.424   3.202 -1.0340  0.1749  0.4829
  616MOL0     H83102   5.346   5.381   3.349  0.5989 -0.7615  0.4400
  616MOL0     H83103   5.338   5.139   3.266  0.9991 -0.5719 -0.7417
  616MOL0     H83104   5.253   5.187   3.131  0.9102 -3.6683  0.5389
  616MOL0     H83105   5.439   5.345   3.063 -0.5977  0.4709  1.6532
  616MOL0     H83106   5.536   5.264   3.192  0.8648 -1.4814  0.1530
  616MOL0     H83107   5.409   5.085   2.995 -1.4839  0.5217  2.4181
  616MOL0     H83108   5.544   5.069   3.105 -0.0504 -0.8781 -0.7310
  616MOL0     H83109   5.630   5.055   2.880 -2.0749 -0.8297  0.4653
  616MOL0     H83110   5.527   5.194   2.826 -1.1635  1.8515  1.4586
  616MOL0     H83111   5.871   5.156   2.830 -2.6034 -1.5067 -1.6659
  616MOL0     H83112   6.071   5.325   2.823 -0.7213 -2.0825  1.1222
  616MOL0     H83113   6.050   5.478   2.918 -0.8835 -0.2478  1.6742
  616MOL0     H83114   6.075   5.351   3.129 -1.4578 -2.2372  0.6681
  616MOL0     H83115   6.092   5.198   3.035  0.3158  0.3578 -1.6651
  616MOL0     H83116   6.284   5.426   3.005 -0.2079  0.1560  0.4862
  616MOL0     H83117   6.288   5.275   2.911 -0.1699  1.7756 -0.8622
  616MOL0     H83118   6.329   5.153   3.130  0.5256 -0.0299  2.1158
  616MOL0     H83119   6.321   5.303   3.214 -0.2348  0.2318  0.5413
  616MOL0     H83120   6.474   5.209   3.373  1.8588  1.7310  2.4723
  616MOL0     H83121   6.653   5.132   3.517  1.3461  1.9026  1.3218
  616MOL0     H83122   7.127   5.068   3.616 -1.8008  0.6020 -2.6031
  616MOL0     H83123   7.317   4.940   3.702 -0.1393  2.6618 -0.0648
  616MOL0     H83124   7.530   4.895   3.671 -0.8681 -0.3191 -0.2237
  616MOL0     H83125   7.536   4.732   3.743 -1.0708  0.5356  0.8835
  616MOL0     H83126   7.753   4.757   3.683 -0.6687 -1.4352  0.1622
  616MOL0     H83127   7.690   4.655   3.562  2.1975  0.7558 -0.9153
  616MOL0     H83128   7.662   4.866   3.415  0.0300 -0.4414  0.3742
  616MOL0     H83129   7.741   4.957   3.542 -1.6591  0.7523 -1.8345
  616MOL0     H83130   7.880   4.721   3.398  2.7343 -0.6594  1.2216
  616MOL0     H83131   7.946   4.824   3.534 -1.9726 -0.9079  1.1132
  616MOL0     H83132   8.025   4.881   3.299  0.2142  0.3071  2.7712
  616MOL0     H83133   7.939   5.019   3.379 -1.6213  2.2391 -2.5396
  616MOL0     H83134   7.825   4.857   3.161  0.5753  0.1896 -0.1624
  616MOL0     H83135   7.746   4.986   3.248 -0.4497 -0.1746 -2.1660
  616MOL0     H83136   8.012   5.025   3.107  0.2202 -1.6603  0.2606
  616MOL0     H83137   7.897   5.145   3.184  0.4003 -0.3119 -0.7349
  616MOL0     H83138   7.729   5.034   2.989  0.5911 -0.2679 -0.0743
  616MOL0     H83139   7.855   5.154   2.946 -0.9646  0.8716  0.9509
  616MOL0     H83140   7.319   4.699   3.348  1.7210 -0.7325  2.4502
  616MOL0     H83141   7.128   4.828   3.265 -0.4420 -0.2281  0.4717
  616MOL0     H83142   6.921   5.141   3.163 -0.8529  0.2104 -0.1201
  616MOL0     H83143   6.720   5.244   3.042  0.3891 -0.3149  0.3279
  616MOL0     H83144   4.680   5.386   3.206  1.6301  1.3520  0.1517
  616MOL0     H83145   4.435   5.402   3.221 -2.7746  1.9177  0.4905
  616MOL0     H83146   4.080   5.743   3.595  3.9885 -1.3729  0.0350
  616MOL0     H83147   3.826   5.736   3.635  0.5803  1.0704  0.8887
  616MOL0     H83148   3.633   5.375   3.745 -0.8181  0.1398  0.4667
  616MOL0     H83149   3.599   5.377   3.574 -0.1499  2.0001 -0.4622
  616MOL0     H83150   3.440   5.527   3.795 -0.4253  0.5105  0.2543
  616MOL0     H83151   3.391   5.386   3.697 -1.6754  0.9475 -3.3304
  616MOL0     H83152   3.462   5.654   3.558 -0.7405  0.8020  0.9294
  616MOL0     H83153   3.321   5.643   3.647 -2.0480 -1.0040 -0.8168
  616MOL0     H83154   3.297   5.563   3.401  3.0515 -1.5297 -1.6548
  616MOL0     H83155   3.365   5.414   3.459  1.0289  1.1706 -2.8298
  616MOL0     H83156   2.984   5.366   3.584 -1.9586  1.5648 -1.0997
  616MOL0     H83157   3.831   5.312   3.573 -0.1762  0.4468  0.7976
  616MOL0     H83158   4.025   5.198   3.556 -1.5979 -0.4133 -1.7659
  616MOL0     H83159   4.087   5.278   3.401  1.0851  0.6942  0.9821
  616MOL0     H83160   4.176   5.274   3.547  1.2234 -0.2267 -0.6646
  617MOL0     O83161   0.719   6.835   7.847 -0.4256  0.0917  0.3047
  617MOL0     C83162   0.681   6.762   7.756 -0.7052 -0.3103 -0.4220
  617MOL0     O83163   0.757   6.673   7.692  0.0363 -0.3809  0.2271
  617MOL0     C83164   0.890   6.643   7.724 -0.0628 -0.8004  0.3714
  617MOL0     C83165   0.937   6.512   7.698 -0.8065 -0.2844  0.5990
  617MOL0     C83166   1.067   6.477   7.738 -0.3994  0.3824  0.8678
  617MOL0     C83167   1.163   6.575   7.760 -0.4015  0.3317  0.3952
  617MOL0     O83168   1.293   6.531   7.773 -0.3355 -0.0700 -0.2704
  617MOL0     C83169   1.400   6.625   7.775  0.0341 -0.9259  0.0381
  617MOL0     C83170   1.532   6.547   7.771 -0.1332 -0.1253 -0.0355
  617MOL0     C83171   1.659   6.626   7.777 -0.0947 -1.2508  0.1275
  617MOL0     C83172   1.691   6.702   7.912  0.1676  0.1241  0.1284
  617MOL0     C83173   1.811   6.795   7.912  0.8791  0.4034  0.4774
  617MOL0     C83174   1.883   6.823   8.051 -1.0312  0.2803 -0.5795
  617MOL0     C83175   2.027   6.896   8.044  0.7758  0.9947 -0.0818
  617MOL0     C83176   2.106   6.851   8.160 -0.9517 -0.3428 -0.8453
  617MOL0     N83177   2.246   6.879   8.134 -0.3187 -0.4170  0.1892
  617MOL0     C83178   2.315   6.982   8.201 -0.4473 -0.3099 -0.0070
  617MOL0     C83179   2.448   6.948   8.182 -0.3635  0.1891 -0.4295
  617MOL0     C83180   2.561   7.035   8.233  0.7646 -0.3290 -0.6253
  617MOL0     C83181   2.675   7.054   8.134 -0.8041  0.1644 -0.3229
  617MOL0     C83182   2.757   6.924   8.109 -0.0877 -0.1421  0.1547
  617MOL0     C83183   2.903   6.955   8.064  0.5457 -0.6320 -0.9032
  617MOL0     O83184   2.958   6.824   8.047 -0.1123  0.1327  0.0729
  617MOL0     C83185   3.095   6.806   8.040  0.2268  0.0555  0.5370
  617MOL0     C83186   3.149   6.675   8.049 -0.5531  0.1641 -0.5946
  617MOL0     C83187   3.280   6.652   8.050  0.2177 -0.1300 -0.4332
  617MOL0     C83188   3.369   6.765   8.044 -0.1461  0.4292  0.1443
  617MOL0     C83189   3.520   6.755   8.059  0.6279 -0.8056  1.1026
  617MOL0     O83190   3.592   6.869   8.034 -0.0977  0.3846 -0.2308
  617MOL0     C83191   3.732   6.871   8.042 -0.3485 -0.2404  1.1413
  617MOL0     C83192   3.805   6.893   7.928  0.6744  0.6214  0.0450
  617MOL0     C83193   3.943   6.893   7.939  0.4295  0.1576 -0.1097
  617MOL0     C83194   4.006   6.840   8.059 -1.3818 -0.8347  0.0908
  617MOL0     O83195   4.147   6.841   8.062 -0.1471  0.9865 -0.3996
  617MOL0     C83196   4.206   6.972   8.026 -0.3568 -0.2973 -0.0711
  617MOL0     C83197   4.348   6.960   8.073 -0.0958 -0.4575  0.3906
  617MOL0     C83198   4.365   6.933   8.223 -0.6320  0.1848 -0.1948
  617MOL0     C83199   4.522   6.935   8.251  0.0770 -0.5966 -0.1798
  617MOL0     C83200   4.552   6.907   8.395  0.1910  0.7842 -0.2229
  617MOL0     C83201   4.490   6.774   8.452 -0.2540 -0.0562  0.6998
  617MOL0     C83202   4.558   6.652   8.396 -0.1140  0.2305 -0.9090
  617MOL0     C83203   4.698   6.637   8.450 -0.0841  0.0879  0.1300
  617MOL0    Cl83204   4.745   6.473   8.399 -0.6552 -0.4487  0.0609
  617MOL0     C83205   3.932   6.811   8.173  0.6902 -0.2832  0.3047
  617MOL0     C83206   3.794   6.827   8.158 -0.9916  0.2192  0.2364
  617MOL0     O83207   3.566   6.648   8.078  0.0512  0.2172  0.6541
  617MOL0     C83208   3.315   6.894   8.031 -0.9256 -0.5294 -0.0001
  617MOL0     C83209   3.180   6.915   8.023 -0.6649  0.0260 -0.9301
  617MOL0     N83210   2.459   6.834   8.105  0.4270 -0.7730  0.0566
  617MOL0     N83211   2.335   6.790   8.084  0.5356  0.2915  0.1039
  617MOL0     C83212   1.109   6.699   7.793  0.3079  0.2314 -0.9110
  617MOL0     C83213   0.979   6.743   7.775 -0.6095  0.3735  0.1649
  617MOL0     C83214   0.547   6.766   7.703 -0.2746 -0.1430  0.1365
  617MOL0     C83215   0.493   6.644   7.638  0.2239 -0.3221  0.7267
  617MOL0     C83216   0.364   6.646   7.599 -0.0415  0.4936  0.1813
  617MOL0     C83217   0.283   6.757   7.609 -0.7457 -0.2893  0.6091
  617MOL0     O83218   0.159   6.724   7.562  0.5605 -0.7051 -0.0421
  617MOL0     C83219   0.071   6.837   7.584 -0.3330 -0.0791 -0.4827
  617MOL0     C83220  -0.058   6.800   7.519  0.1580  0.2128 -0.2925
  617MOL0     C83221  -0.047   6.789   7.374  0.0854  0.3815 -0.4857
  617MOL0     C83222  -0.178   6.740   7.323  0.5869  0.8351  0.3322
  617MOL0     C83223  -0.166   6.693   7.182  0.1675 -0.4568  0.0368
  617MOL0     C83224  -0.180   6.644   7.072 -0.2693 -0.1795 -0.0521
  617MOL0     C83225   0.335   6.880   7.656  0.4826  0.3219 -0.0006
  617MOL0     C83226   0.468   6.883   7.697 -0.4705  0.0319 -0.1434
  617MOL0     C83227   0.518   7.019   7.750 -0.5408  0.4724 -1.2415
  617MOL0     H83228   0.869   6.437   7.661 -3.0524  3.4306 -3.8300
  617MOL0     H83229   1.104   6.376   7.724 -3.6891 -0.9912  1.1593
  617MOL0     H83230   1.396   6.695   7.691  1.6509 -0.2923  0.4480
  617MOL0     H83231   1.394   6.686   7.866 -1.7879  1.2640 -1.4393
  617MOL0     H83232   1.539   6.483   7.683  1.3020 -0.0253 -0.0323
  617MOL0     H83233   1.541   6.469   7.847 -1.2806 -0.6417 -0.4250
  617MOL0     H83234   1.659   6.702   7.698  0.1617 -1.4224 -0.0384
  617MOL0     H83235   1.744   6.564   7.748 -0.5083 -2.7363  1.9042
  617MOL0     H83236   1.606   6.759   7.951 -0.6631 -0.7779 -0.3193
  617MOL0     H83237   1.700   6.629   7.993 -1.0689  1.0238  1.1317
  617MOL0     H83238   1.892   6.750   7.854  0.1331 -1.9362  1.1188
  617MOL0     H83239   1.783   6.889   7.864 -1.0435  0.1885  1.1140
  617MOL0     H83240   1.822   6.891   8.111 -1.4953  0.4827 -1.2838
  617MOL0     H83241   1.891   6.731   8.111  3.1960  1.3151  0.8435
  617MOL0     H83242   2.004   7.003   8.046  0.8678  1.0107  0.2516
  617MOL0     H83243   2.075   6.866   7.950 -0.8633 -0.0572 -0.6282
  617MOL0     H83244   2.072   6.908   8.247  0.1465 -0.9406  0.0057
  617MOL0     H83245   2.093   6.743   8.175 -2.2111 -0.2287 -1.0263
  617MOL0     H83246   2.268   7.064   8.255  0.4729  1.1500 -1.3203
  617MOL0     H83247   2.520   7.131   8.263  2.4398 -0.3301  1.9132
  617MOL0     H83248   2.598   6.997   8.328  0.5567  2.0616  0.4693
  617MOL0     H83249   2.634   7.091   8.039 -0.5157  0.0428 -0.4979
  617MOL0     H83250   2.732   7.136   8.179 -0.0745 -0.9135  0.7419
  617MOL0     H83251   2.716   6.868   8.025  1.6447 -2.5131  0.7780
  617MOL0     H83252   2.759   6.849   8.189  1.2830 -0.2292  0.0610
  617MOL0     H83253   2.960   7.004   8.144  0.7835  0.6705 -1.8309
  617MOL0     H83254   2.904   7.018   7.974  0.6327 -1.3654 -1.4189
  617MOL0     H83255   3.095   6.588   8.085  1.0975 -0.1968  1.1303
  617MOL0     H83256   3.315   6.555   8.083  2.7115  0.2188 -1.7322
  617MOL0     H83257   3.751   6.916   7.837 -2.0839 -2.3894  0.7359
  617MOL0     H83258   4.006   6.925   7.856  2.4221  0.2881  1.3741
  617MOL0     H83259   4.222   6.989   7.919 -0.8191 -0.8252 -0.2282
  617MOL0     H83260   4.143   7.041   8.083  0.6742  0.2363  0.4329
  617MOL0     H83261   4.410   6.889   8.016  0.2291  1.1017 -1.3166
  617MOL0     H83262   4.403   7.051   8.048  1.1581 -2.2183 -4.6441
  617MOL0     H83263   4.306   7.008   8.277  0.1075  1.9089 -1.6407
  617MOL0     H83264   4.324   6.833   8.231  1.2591 -0.5883  0.4073
  617MOL0     H83265   4.566   7.033   8.231 -1.0393 -0.0225  0.1035
  617MOL0     H83266   4.567   6.856   8.189 -0.1247 -0.7951 -0.0741
  617MOL0     H83267   4.503   6.985   8.454 -1.2202 -1.9504  2.5243
  617MOL0     H83268   4.659   6.906   8.416  0.2955 -0.3590 -0.7415
  617MOL0     H83269   4.510   6.785   8.559 -0.5552  0.7297  0.6849
  617MOL0     H83270   4.384   6.762   8.427 -0.0285  0.4194 -0.6198
  617MOL0     H83271   4.557   6.648   8.287 -1.0259  0.9330 -0.9385
  617MOL0     H83272   4.493   6.565   8.416 -0.7730  0.7797 -0.6253
  617MOL0     H83273   4.757   6.722   8.415 -1.2905  1.4414  1.2535
  617MOL0     H83274   4.690   6.630   8.559  1.1376 -4.4807  0.1374
  617MOL0     H83275   3.966   6.773   8.268 -2.6878 -3.2702  0.5087
  617MOL0     H83276   3.729   6.795   8.239 -1.5216  1.6127  0.3915
  617MOL0     H83277   3.388   6.974   8.021  0.0843 -1.2663  1.1814
  617MOL0     H83278   3.147   7.018   8.019 -0.9366  0.3063  3.6014
  617MOL0     H83279   1.185   6.769   7.827 -0.0631 -0.2501  1.0419
  617MOL0     H83280   0.953   6.846   7.795 -0.6423  0.0779  1.7373
  617MOL0     H83281   0.545   6.549   7.642 -0.9327 -1.0789 -1.1209
  617MOL0     H83282   0.317   6.552   7.570  1.6827 -0.5735  0.6744
  617MOL0     H83283   0.105   6.927   7.533  0.0631 -0.4020 -0.7997
  617MOL0     H83284   0.039   6.848   7.688 -0.7411  1.6558 -0.7684
  617MOL0     H83285  -0.129   6.881   7.536 -2.4742 -2.0188 -0.1283
  617MOL0     H83286  -0.105   6.710   7.560 -0.2278 -0.7875 -2.7449
  617MOL0     H83287   0.043   6.734   7.343 -1.6642 -3.2067  0.3000
  617MOL0     H83288  -0.042   6.890   7.332 -1.7610  0.1575 -1.3382
  617MOL0     H83289  -0.211   6.661   7.392 -0.9232  2.5695  1.6988
  617MOL0     H83290  -0.252   6.818   7.341 -0.0399 -0.1055  2.0560
  617MOL0     H83291  -0.196   6.609   6.972  1.3680  0.1530 -0.4683
  617MOL0     H83292   0.278   6.972   7.665  1.6154  0.9215  1.3777
  617MOL0     H83293   0.515   7.029   7.859  1.6608 -1.7673 -0.8793
  617MOL0     H83294   0.622   7.037   7.723  0.1993 -1.2268  0.2002
  617MOL0     H83295   0.461   7.102   7.708  0.6451  1.4025 -1.0404
  618MOL0     O83296  10.961   1.693  10.567 -0.2768 -0.3314  0.3199
  618MOL0     C83297  10.957   1.590  10.500  0.5693  0.7864 -0.5619
  618MOL0     O83298  11.056   1.490  10.501  0.0067  0.3841  0.0653
  618MOL0     C83299  11.166   1.491  10.590  0.3142 -0.0461  0.4095
  618MOL0     C83300  11.295   1.453  10.550 -0.1562  0.2797  0.1334
  618MOL0     C83301  11.406   1.456  10.644 -0.1380 -0.1021 -0.7301
  618MOL0     C83302  11.383   1.481  10.773 -1.0705 -0.5782  1.3344
  618MOL0     O83303  11.494   1.467  10.851 -0.1628 -0.4485 -0.1260
  618MOL0     C83304  11.475   1.497  10.993  0.4752  0.4118  0.2768
  618MOL0     C83305  11.604   1.495  11.073 -0.4876  0.0269 -0.0154
  618MOL0     C83306  11.684   1.364  11.059 -0.1108 -0.4613  0.6161
  618MOL0     C83307  11.828   1.388  11.117 -0.0806  0.3439 -0.0124
  618MOL0     C83308  11.903   1.258  11.141 -0.4520  0.3797 -1.0069
  618MOL0     C83309  11.962   1.197  11.020 -0.2661 -0.3693  0.3750
  618MOL0     C83310  12.108   1.148  11.049  0.0245 -0.3196 -0.0500
  618MOL0     C83311  12.176   1.096  10.923  0.2631 -0.4843 -0.6737
  618MOL0     N83312  12.315   1.081  10.962 -0.5925  0.3347  0.1307
  618MOL0     C83313  12.413   1.173  10.925  0.6953 -0.2034 -0.4172
  618MOL0     C83314  12.530   1.113  10.971  0.2742 -0.6271  0.1599
  618MOL0     C83315  12.662   1.178  10.941 -0.4136  0.7557 -0.2235
  618MOL0     C83316  12.740   1.074  10.859  0.0227  0.5772 -0.6652
  618MOL0     C83317  12.679   1.065  10.716  0.3378 -1.0144 -0.3073
  618MOL0     C83318  12.763   0.990  10.619  0.7563  0.5501 -0.2817
  618MOL0     O83319  12.882   1.057  10.594  0.3459  0.3263 -0.3372
  618MOL0     C83320  12.990   0.989  10.542 -0.3370  0.0088 -0.0910
  618MOL0     C83321  12.990   0.867  10.475  0.4966 -0.0855 -0.0580
  618MOL0     C83322  13.110   0.807  10.426  0.4636 -0.5639 -0.1756
  618MOL0     C83323  13.232   0.869  10.446 -0.2726 -0.6215 -0.5898
  618MOL0     C83324  13.351   0.807  10.387  0.1893  0.3058 -0.1358
  618MOL0     O83325  13.476   0.836  10.439  0.5065 -0.5694 -0.7943
  618MOL0     C83326  13.583   0.749  10.421 -0.4033 -0.1118  0.5844
  618MOL0     C83327  13.710   0.800  10.403  0.8116 -0.2761 -0.0356
  618MOL0     C83328  13.824   0.721  10.391  0.1382 -0.5256 -0.0625
  618MOL0     C83329  13.807   0.576  10.406 -0.0774  0.6800  0.5583
  618MOL0     O83330  13.920   0.498  10.385  1.1843  0.1406  0.4371
  618MOL0     C83331  14.048   0.543  10.428 -0.1431 -0.1968 -0.7200
  618MOL0     C83332  14.049   0.542  10.577 -0.3472 -0.1044 -1.1179
  618MOL0     C83333  14.184   0.590  10.634  0.4504 -0.2447  0.9357
  618MOL0     C83334  14.301   0.485  10.621 -0.0170 -0.1870 -0.0496
  618MOL0     C83335  14.411   0.518  10.727 -0.3485  0.2244  0.5295
  618MOL0     C83336  14.539   0.445  10.692 -0.1880  0.5013  0.5904
  618MOL0     C83337  14.629   0.513  10.586  0.1321  0.2731  0.0092
  618MOL0     C83338  14.735   0.431  10.509  0.1573 -0.3440  0.7205
  618MOL0    Cl83339  14.834   0.324  10.615 -0.0247 -0.4151  0.4515
  618MOL0     C83340  13.678   0.527  10.422 -0.0334  0.4273 -0.7089
  618MOL0     C83341  13.572   0.610  10.437  0.0652  0.1813  0.1336
  618MOL0     O83342  13.335   0.737  10.287  0.1056  0.0578  0.3850
  618MOL0     C83343  13.228   0.996  10.517 -0.1975  0.1594  0.4868
  618MOL0     C83344  13.115   1.055  10.565  0.0825  0.2588 -0.1072
  618MOL0     N83345  12.500   0.993  11.024 -0.3877 -0.1967 -0.1303
  618MOL0     N83346  12.372   0.974  11.020 -1.1292 -0.2795  0.2046
  618MOL0     C83347  11.255   1.525  10.816 -0.4160 -0.2199 -0.7107
  618MOL0     C83348  11.146   1.526  10.724 -0.5248  0.2482  0.5300
  618MOL0     C83349  10.824   1.568  10.429 -0.1868 -0.2997  0.0643
  618MOL0     C83350  10.722   1.663  10.459 -0.0401 -0.6538  0.1194
  618MOL0     C83351  10.600   1.652  10.399  0.5601 -0.2105  1.0232
  618MOL0     C83352  10.582   1.562  10.290  0.8041  0.3451 -0.1804
  618MOL0     O83353  10.464   1.568  10.224  0.2592 -0.5156  0.7619
  618MOL0     C83354  10.430   1.440  10.157 -0.3620 -0.6784 -0.8352
  618MOL0     C83355  10.289   1.456  10.101  0.0573  0.2540 -0.0450
  618MOL0     C83356  10.275   1.559   9.993 -0.2545 -0.6961  0.5426
  618MOL0     C83357  10.150   1.552   9.902  0.4204  0.5744  0.0294
  618MOL0     C83358  10.026   1.548   9.981  0.7848 -0.8537  0.3254
  618MOL0     C83359   9.923   1.531  10.042  0.2386 -0.4565  0.1997
  618MOL0     C83360  10.678   1.462  10.273 -0.1225 -0.4769 -0.1284
  618MOL0     C83361  10.793   1.459  10.347 -0.3152 -0.4369  0.5482
  618MOL0     C83362  10.890   1.347  10.305  0.2582 -0.0961 -0.7271
  618MOL0     H83363  11.302   1.419  10.447 -2.4110  3.9182 -1.4268
  618MOL0     H83364  11.503   1.417  10.613  1.2744  2.3093  0.3525
  618MOL0     H83365  11.434   1.598  11.007  1.5362  1.1560 -1.5620
  618MOL0     H83366  11.411   1.418  11.033  2.7067 -1.2310  0.7408
  618MOL0     H83367  11.579   1.518  11.177  0.8203  2.3259 -0.1626
  618MOL0     H83368  11.667   1.573  11.031 -2.0889  1.1755 -0.3931
  618MOL0     H83369  11.698   1.342  10.953 -0.7497  1.6813  0.0269
  618MOL0     H83370  11.630   1.284  11.110 -0.4536 -0.1870  0.6888
  618MOL0     H83371  11.886   1.454  11.052 -1.6422  0.7321 -1.0701
  618MOL0     H83372  11.812   1.432  11.216  2.3147  0.4702  0.3654
  618MOL0     H83373  11.979   1.270  11.218 -1.0562  0.7962 -0.4667
  618MOL0     H83374  11.834   1.185  11.185  1.4355 -2.6535 -2.7530
  618MOL0     H83375  11.903   1.108  10.992 -1.3710  1.2063 -2.8172
  618MOL0     H83376  11.954   1.269  10.939 -1.2639 -0.8372  0.0296
  618MOL0     H83377  12.105   1.061  11.117  1.0098  0.2096  0.6889
  618MOL0     H83378  12.172   1.219  11.101 -0.6108 -1.0055  1.7849
  618MOL0     H83379  12.146   0.992  10.904 -2.5698 -0.0459  0.9250
  618MOL0     H83380  12.164   1.157  10.833  0.9364  0.6280 -0.0191
  618MOL0     H83381  12.398   1.266  10.872  1.4143  0.4210  0.4424
  618MOL0     H83382  12.652   1.270  10.883 -0.7468  1.8049  1.4257
  618MOL0     H83383  12.703   1.206  11.038 -0.4867  2.3579 -0.6275
  618MOL0     H83384  12.849   1.086  10.853  0.2680  0.5040  2.3287
  618MOL0     H83385  12.726   0.973  10.900 -0.9074  0.2489 -1.7383
  618MOL0     H83386  12.647   1.160  10.672 -0.4882 -0.4771  1.3905
  618MOL0     H83387  12.589   1.003  10.719 -0.2396 -0.3352 -2.1690
  618MOL0     H83388  12.707   0.975  10.526  1.3560 -0.1814 -0.5381
  618MOL0     H83389  12.771   0.888  10.660  0.0566  0.7628  0.4171
  618MOL0     H83390  12.896   0.813  10.464 -0.4699  1.3858  0.5647
  618MOL0     H83391  13.120   0.707  10.385 -0.5134  0.0250 -1.9561
  618MOL0     H83392  13.716   0.909  10.403  2.2663 -0.3150  1.4895
  618MOL0     H83393  13.921   0.761  10.364  1.0128 -2.6916 -0.3454
  618MOL0     H83394  14.113   0.465  10.388  0.8892 -0.3142  1.1062
  618MOL0     H83395  14.087   0.637  10.388  1.7444 -0.7872 -0.3505
  618MOL0     H83396  13.971   0.607  10.616  0.1019 -1.9201  3.4911
  618MOL0     H83397  14.027   0.444  10.620  0.3029  0.6824  1.1296
  618MOL0     H83398  14.216   0.685  10.589  0.5069 -0.6906  0.0166
  618MOL0     H83399  14.171   0.613  10.740  0.9013  0.6851  0.7970
  618MOL0     H83400  14.346   0.481  10.521  1.1141 -1.2536  0.4687
  618MOL0     H83401  14.260   0.385  10.630 -0.0803 -0.2990 -1.3733
  618MOL0     H83402  14.382   0.483  10.826  1.5243  1.6186  1.6382
  618MOL0     H83403  14.426   0.626  10.741  1.1458  0.2206 -0.8302
  618MOL0     H83404  14.596   0.436  10.784 -1.3690  5.3317  2.0699
  618MOL0     H83405  14.514   0.346  10.651  0.1848  1.7834 -3.1949
  618MOL0     H83406  14.687   0.590  10.638 -0.5828  2.2345 -1.9455
  618MOL0     H83407  14.565   0.567  10.516  0.7226  0.8645 -0.0872
  618MOL0     H83408  14.683   0.370  10.435  1.9078 -0.8578 -0.1375
  618MOL0     H83409  14.798   0.500  10.451  1.1936  0.1289  2.3505
  618MOL0     H83410  13.654   0.421  10.422  2.1548 -0.1184  0.7280
  618MOL0     H83411  13.478   0.557  10.449 -0.8465  1.6400 -0.3242
  618MOL0     H83412  13.316   1.053  10.544 -1.9909  2.4557  1.8073
  618MOL0     H83413  13.095   1.146  10.620 -3.5966 -0.8144  0.6182
  618MOL0     H83414  11.226   1.558  10.915  2.8445 -0.9421  0.6223
  618MOL0     H83415  11.048   1.560  10.757 -0.9917  0.3847 -0.9446
  618MOL0     H83416  10.739   1.739  10.535 -1.1771 -2.1954  2.0014
  618MOL0     H83417  10.517   1.721  10.410  1.4880  1.5996 -2.0434
  618MOL0     H83418  10.436   1.368  10.239 -1.9021 -2.0717 -1.8810
  618MOL0     H83419  10.490   1.406  10.072  0.9476  0.7352 -0.5148
  618MOL0     H83420  10.207   1.480  10.169 -0.7780 -2.8319  0.1761
  618MOL0     H83421  10.262   1.356  10.066 -0.8495  0.2682  0.5630
  618MOL0     H83422  10.370   1.553   9.939  0.9110 -0.8364  2.4964
  618MOL0     H83423  10.271   1.661  10.034 -2.5714 -0.6071  0.2013
  618MOL0     H83424  10.152   1.637   9.834  1.3732  0.8134  0.3441
  618MOL0     H83425  10.162   1.466   9.835  0.0702 -0.7114  1.5449
  618MOL0     H83426   9.826   1.534  10.087  0.4429  0.0792  0.6132
  618MOL0     H83427  10.663   1.392  10.191 -0.0488 -0.3744 -0.2293
  618MOL0     H83428  10.981   1.393  10.264 -0.2193  0.8172 -0.7931
  618MOL0     H83429  10.921   1.293  10.395 -1.4383 -1.3767 -0.8597
  618MOL0     H83430  10.856   1.268  10.237 -0.1059 -0.9532  0.4240
  619MOL0     O83431   9.905   9.864  10.202 -0.2184  0.5880  0.4001
  619MOL0     C83432   9.838   9.773  10.153 -0.6518  0.6829 -0.6535
  619MOL0     O83433   9.865   9.692  10.044  0.9645 -0.4750 -1.0100
  619MOL0     C83434   9.990   9.672   9.989 -0.4564 -0.3008 -0.8398
  619MOL0     C83435  10.027   9.538   9.972  0.0994 -0.0422  0.1593
  619MOL0     C83436  10.149   9.508   9.906 -0.2884  0.2752  0.4136
  619MOL0     C83437  10.237   9.612   9.870 -0.4965  0.2414 -0.6633
  619MOL0     O83438  10.360   9.584   9.810  0.2273 -0.4618  0.2191
  619MOL0     C83439  10.478   9.645   9.873  0.3923  0.6952 -0.2508
  619MOL0     C83440  10.521   9.582  10.002  0.1923 -0.1386  0.7951
  619MOL0     C83441  10.650   9.653  10.046  0.1461  0.0563  0.3380
  619MOL0     C83442  10.716   9.587  10.167  0.7153  0.0352 -0.2953
  619MOL0     C83443  10.835   9.665  10.213  0.1289 -0.0082  0.2881
  619MOL0     C83444  10.899   9.597  10.335  0.3768 -0.0879 -0.5340
  619MOL0     C83445  11.036   9.655  10.377 -0.6458  0.1432 -0.5845
  619MOL0     C83446  11.143   9.585  10.298  0.0288 -0.3527  0.5949
  619MOL0     N83447  11.269   9.641  10.331  0.2872 -0.0306  0.3348
  619MOL0     C83448  11.316   9.757  10.274  0.0083  0.4655  0.6247
  619MOL0     C83449  11.430   9.791  10.340 -0.3420 -0.7410  0.6848
  619MOL0     C83450  11.520   9.908  10.330 -0.9990  0.0867 -0.7248
  619MOL0     C83451  11.655   9.875  10.378  0.0797 -0.4425  0.0175
  619MOL0     C83452  11.743  10.001  10.381  0.3003  0.3195 -0.1943
  619MOL0     C83453  11.895   9.975  10.394  0.5442  0.1103 -0.1303
  619MOL0     O83454  11.972  10.101  10.396 -0.3489 -0.5470  0.0742
  619MOL0     C83455  12.108  10.077  10.409  0.1257  0.5605  0.3107
  619MOL0     C83456  12.189   9.959  10.389  0.2173 -0.3014  0.5030
  619MOL0     C83457  12.326   9.961  10.396 -0.4406  0.1282 -0.0900
  619MOL0     C83458  12.389  10.077  10.443  0.1848 -0.5960 -0.0994
  619MOL0     C83459  12.536  10.083  10.459 -0.6190 -0.5259 -0.5218
  619MOL0     O83460  12.600   9.969  10.431 -0.2618 -0.2055 -0.4838
  619MOL0     C83461  12.737   9.974  10.406  0.2594 -0.6909  0.3985
  619MOL0     C83462  12.817   9.927  10.510  0.0275  0.8482  0.5203
  619MOL0     C83463  12.958   9.929  10.498 -0.1992  0.5551  0.3366
  619MOL0     C83464  13.019   9.972  10.369  0.1103  0.1026 -0.3093
  619MOL0     O83465  13.150   9.950  10.365  0.2649  0.7490  0.3246
  619MOL0     C83466  13.200   9.901  10.242 -0.1835 -0.0279  0.1218
  619MOL0     C83467  13.337   9.834  10.244 -0.5165  0.4668  0.0250
  619MOL0     C83468  13.455   9.928  10.252 -0.0967 -0.0353  0.5816
  619MOL0     C83469  13.578   9.849  10.216 -0.1001  0.1627 -0.2452
  619MOL0     C83470  13.706   9.935  10.205  0.2976  0.2129 -0.7130
  619MOL0     C83471  13.823   9.864  10.135  0.1017  0.4990  0.2492
  619MOL0     C83472  13.958   9.911  10.180 -0.7338 -0.1846 -0.7145
  619MOL0     C83473  14.070   9.905  10.073 -0.2511 -0.2920  0.4774
  619MOL0    Cl83474  14.223   9.975  10.144  0.4244  0.5609 -0.1187
  619MOL0     C83475  12.935  10.032  10.270  0.1083  0.1773  0.3352
  619MOL0     C83476  12.794  10.043  10.293  0.0949  0.1881  0.2494
  619MOL0     O83477  12.587  10.186  10.500 -0.1872  0.6259 -0.1024
  619MOL0     C83478  12.308  10.181  10.479  0.4659 -0.5565 -0.6599
  619MOL0     C83479  12.164  10.179  10.466 -0.5264  0.1455 -0.0537
  619MOL0     N83480  11.436   9.707  10.449  0.7192  0.2273  0.2001
  619MOL0     N83481  11.343   9.616  10.441 -0.3337 -0.2434 -0.4100
  619MOL0     C83482  10.195   9.741   9.876  0.3562 -0.1601 -0.0723
  619MOL0     C83483  10.076   9.773   9.945  0.4135 -0.2852  0.0463
  619MOL0     C83484   9.711   9.731  10.220 -0.2995  0.2196  0.3730
  619MOL0     C83485   9.621   9.647  10.144 -0.0439  0.1532 -0.4111
  619MOL0     C83486   9.495   9.614  10.196  0.4971 -0.2696  0.6724
  619MOL0     C83487   9.453   9.654  10.324  0.0618 -0.3362  0.7769
  619MOL0     O83488   9.340   9.620  10.378 -0.2043 -0.0035  0.4101
  619MOL0     C83489   9.235   9.561  10.293 -0.0958  0.0471 -0.1568
  619MOL0     C83490   9.110   9.546  10.385 -0.7290 -0.0780  0.5627
  619MOL0     C83491   9.034   9.670  10.382 -0.2284 -0.5430  0.4674
  619MOL0     C83492   8.902   9.657  10.463 -0.0488 -0.1328 -0.0749
  619MOL0     C83493   8.789   9.581  10.399 -1.3534 -0.9977  0.3511
  619MOL0     C83494   8.687   9.532  10.353 -0.3960 -0.6118  0.1738
  619MOL0     C83495   9.543   9.735  10.400  0.5583 -0.2829 -0.3253
  619MOL0     C83496   9.668   9.775  10.351 -0.8020 -0.4904 -0.2386
  619MOL0     C83497   9.752   9.854  10.450  0.4570  0.2925  0.0915
  619MOL0     H83498   9.956   9.458   9.991 -0.4401 -0.2555 -2.3098
  619MOL0     H83499  10.184   9.407   9.889  1.2626  0.9604 -0.7475
  619MOL0     H83500  10.566   9.638   9.808  0.5762 -0.8780  0.1202
  619MOL0     H83501  10.455   9.749   9.896  1.4518  0.4686  2.1843
  619MOL0     H83502  10.546   9.476   9.994 -0.9542 -0.4530  1.1929
  619MOL0     H83503  10.437   9.596  10.070  1.0061  1.9928  1.4261
  619MOL0     H83504  10.610   9.752  10.071 -1.8974 -0.0084 -2.2071
  619MOL0     H83505  10.722   9.672   9.966 -1.2554 -0.4730 -1.1013
  619MOL0     H83506  10.638   9.577  10.243 -0.1650 -0.3177 -1.2241
  619MOL0     H83507  10.744   9.488  10.132 -0.7659 -0.5745  0.1567
  619MOL0     H83508  10.914   9.673  10.138 -0.1826  0.4066  0.0007
  619MOL0     H83509  10.787   9.759  10.240 -0.6484 -0.2908 -0.1028
  619MOL0     H83510  10.826   9.609  10.415 -0.6054 -5.0803 -0.3673
  619MOL0     H83511  10.908   9.489  10.322 -4.4110 -0.3830 -3.5782
  619MOL0     H83512  11.056   9.640  10.484  0.3473 -0.4970 -0.8442
  619MOL0     H83513  11.052   9.760  10.352 -0.1626  0.0766 -0.5711
  619MOL0     H83514  11.161   9.485  10.338  2.7425  0.0909  0.6526
  619MOL0     H83515  11.120   9.592  10.191  1.2361  3.5773  0.4613
  619MOL0     H83516  11.260   9.789  10.187  1.7667 -0.7476 -1.0354
  619MOL0     H83517  11.533   9.948  10.229  3.6063  1.2570  0.0961
  619MOL0     H83518  11.483   9.983  10.400 -2.0753 -0.7200 -0.4024
  619MOL0     H83519  11.652   9.819  10.472 -0.1208 -1.8400 -0.8004
  619MOL0     H83520  11.693   9.798  10.310 -3.0459 -3.4213  1.3397
  619MOL0     H83521  11.701  10.054  10.467 -1.3131 -0.1138 -0.6809
  619MOL0     H83522  11.718  10.074  10.302  2.5732  0.2424 -1.0591
  619MOL0     H83523  11.920   9.906  10.313 -0.7541 -0.5822  0.0247
  619MOL0     H83524  11.906   9.927  10.491 -1.5534  0.1946  0.2086
  619MOL0     H83525  12.149   9.864  10.355 -0.6004  0.5266 -0.9594
  619MOL0     H83526  12.372   9.864  10.378 -1.6750 -0.3344 -0.8287
  619MOL0     H83527  12.775   9.885  10.600  1.4329  1.8860  1.7184
  619MOL0     H83528  13.009   9.893  10.587 -1.3256  1.9214  1.6163
  619MOL0     H83529  13.132   9.828  10.198 -1.9412  1.8016 -0.3658
  619MOL0     H83530  13.201   9.986  10.172 -0.8806 -1.2257 -1.3936
  619MOL0     H83531  13.335   9.763  10.327 -0.8032 -1.1243 -1.3051
  619MOL0     H83532  13.347   9.773  10.154 -1.0621  0.3817  0.0206
  619MOL0     H83533  13.448  10.010  10.179  2.4305 -0.0021  0.3115
  619MOL0     H83534  13.451   9.984  10.347 -0.4373 -1.2741  1.3123
  619MOL0     H83535  13.563   9.802  10.118  0.1892  0.7797 -0.5914
  619MOL0     H83536  13.585   9.762  10.282  1.4770  1.0624  0.8385
  619MOL0     H83537  13.728   9.959  10.310  1.6184  1.5948 -1.2715
  619MOL0     H83538  13.684  10.029  10.154 -2.9444 -1.8724 -3.5500
  619MOL0     H83539  13.814   9.761  10.169 -0.0830  0.1136 -0.9287
  619MOL0     H83540  13.810   9.870  10.027  1.0478  2.9154  0.2148
  619MOL0     H83541  13.992   9.852  10.265  1.8060 -1.1406 -2.2749
  619MOL0     H83542  13.947  10.017  10.207 -0.3728  0.4622 -2.8380
  619MOL0     H83543  14.093   9.802  10.045  1.4685  1.2926 -5.5175
  619MOL0     H83544  14.048   9.951   9.977 -0.3973 -1.3038  0.0141
  619MOL0     H83545  12.969  10.067  10.173  1.0321  2.3259  1.3790
  619MOL0     H83546  12.737  10.100  10.220  3.7300  1.3311 -2.0189
  619MOL0     H83547  12.352  10.276  10.506  0.2855 -0.9287  1.0369
  619MOL0     H83548  12.109  10.268  10.496 -0.2834 -0.2198  1.5890
  619MOL0     H83549  10.245   9.819   9.818  1.6063 -1.5873 -1.0028
  619MOL0     H83550  10.039   9.874   9.953 -0.7300 -0.7966  1.8273
  619MOL0     H83551   9.650   9.603  10.049  0.1620 -0.0551 -0.2518
  619MOL0     H83552   9.432   9.568  10.121 -0.5753  0.2750  1.2180
  619MOL0     H83553   9.272   9.463  10.261 -0.2201 -0.3453  0.8597
  619MOL0     H83554   9.223   9.634  10.212  1.0030  4.2438  3.1136
  619MOL0     H83555   9.137   9.515  10.487  0.7174 -1.7994 -0.2949
  619MOL0     H83556   9.046   9.467  10.344  0.6216 -0.4438 -0.9362
  619MOL0     H83557   9.014   9.710  10.283 -0.8753 -0.5642  0.5832
  619MOL0     H83558   9.095   9.739  10.442  0.6026 -1.1385  0.3307
  619MOL0     H83559   8.911   9.616  10.564  2.3742  0.0529 -0.1634
  619MOL0     H83560   8.869   9.759  10.484  0.1809  0.6319 -2.9538
  619MOL0     H83561   8.593   9.498  10.315 -0.2266  0.6630 -1.5262
  619MOL0     H83562   9.514   9.763  10.501 -1.1239  0.0015 -0.8520
  619MOL0     H83563   9.762   9.956  10.411 -0.9357  1.0466  1.5814
  619MOL0     H83564   9.707   9.866  10.548  1.6744 -1.9024  0.9857
  619MOL0     H83565   9.853   9.812  10.450  0.9629  1.4627 -0.0772
  620MOL0     O83566   6.002   1.882   4.344  0.2815 -0.1634  0.9517
  620MOL0     C83567   5.929   1.977   4.350 -0.5435 -0.6352 -0.0790
  620MOL0     O83568   5.947   2.080   4.441  0.0025 -0.7763  0.3251
  620MOL0     C83569   6.045   2.080   4.536 -0.4471 -0.3530 -0.5048
  620MOL0     C83570   5.994   2.076   4.666 -0.9646  0.6155  0.6868
  620MOL0     C83571   6.084   2.067   4.775 -0.3003  0.1501 -1.1188
  620MOL0     C83572   6.222   2.056   4.761 -0.4549  0.0218  0.1829
  620MOL0     O83573   6.306   2.076   4.863  0.9920  0.5405 -0.7583
  620MOL0     C83574   6.420   1.986   4.878  0.1276 -0.5178  0.0113
  620MOL0     C83575   6.445   1.967   5.029 -0.6351  0.1441  0.7369
  620MOL0     C83576   6.329   1.910   5.099  0.7291  0.5574  0.2640
  620MOL0     C83577   6.269   1.783   5.047 -0.2783  0.0187 -0.6171
  620MOL0     C83578   6.162   1.737   5.136 -0.8520  0.0684 -1.1107
  620MOL0     C83579   6.083   1.631   5.067 -0.6510 -1.0823 -0.1373
  620MOL0     C83580   5.996   1.544   5.162  0.2475  0.1235 -0.2121
  620MOL0     C83581   5.927   1.419   5.103 -0.7048  0.2373  0.5496
  620MOL0     N83582   6.036   1.330   5.059  0.0626 -0.6172  0.1801
  620MOL0     C83583   6.109   1.237   5.137 -0.2747 -0.5601 -0.2500
  620MOL0     C83584   6.195   1.184   5.056 -0.4804 -0.1734  0.1508
  620MOL0     C83585   6.283   1.070   5.099  0.8949 -0.3520  0.0531
  620MOL0     C83586   6.433   1.111   5.074 -0.1648 -0.6351 -1.4954
  620MOL0     C83587   6.521   1.016   5.157  0.4832 -0.3618 -0.3866
  620MOL0     C83588   6.662   1.052   5.127 -0.1645  0.0860 -0.4638
  620MOL0     O83589   6.748   0.998   5.220  0.2676  0.4880 -0.5994
  620MOL0     C83590   6.880   1.009   5.199  0.1505  0.0433 -0.2097
  620MOL0     C83591   6.962   1.118   5.179 -0.0984 -0.3102 -0.3956
  620MOL0     C83592   7.101   1.114   5.180 -0.2252 -0.4039 -0.1184
  620MOL0     C83593   7.170   0.988   5.178  0.0682  0.0692  0.4757
  620MOL0     C83594   7.313   0.982   5.154 -0.2811  0.7704 -0.2193
  620MOL0     O83595   7.373   0.865   5.199  0.8062 -0.1389 -0.5256
  620MOL0     C83596   7.506   0.839   5.187  0.0249  0.0850 -0.4350
  620MOL0     C83597   7.536   0.714   5.134  0.2161  0.0730 -0.6314
  620MOL0     C83598   7.672   0.682   5.119  0.2680 -0.2638  0.3334
  620MOL0     C83599   7.771   0.770   5.161  0.2063 -0.6122  0.0174
  620MOL0     O83600   7.901   0.732   5.147 -0.1480  0.3592 -0.6704
  620MOL0     C83601   7.992   0.776   5.255  0.2499  0.4392 -0.1137
  620MOL0     C83602   8.114   0.682   5.255  0.1362  0.1851 -0.3897
  620MOL0     C83603   8.201   0.719   5.135  0.1360 -0.0554 -0.8331
  620MOL0     C83604   8.339   0.662   5.152 -0.0516 -0.4336 -0.9293
  620MOL0     C83605   8.422   0.710   5.032 -0.2913 -0.2807  0.6522
  620MOL0     C83606   8.560   0.665   5.042  0.3740 -0.2781 -0.8477
  620MOL0     C83607   8.645   0.725   4.929  0.2685  0.0573 -0.0225
  620MOL0     C83608   8.790   0.721   4.966  0.1420 -1.5946 -0.1930
  620MOL0    Cl83609   8.839   0.550   4.965 -0.0093 -0.4741 -0.1059
  620MOL0     C83610   7.738   0.896   5.206 -0.0475  1.4702 -0.1965
  620MOL0     C83611   7.608   0.923   5.232  0.7998  0.1621  0.5014
  620MOL0     O83612   7.361   1.067   5.085 -0.0372  0.6487  0.0543
  620MOL0     C83613   7.088   0.874   5.191  0.1707 -0.8734 -1.2928
  620MOL0     C83614   6.948   0.883   5.208  1.5664  0.3957  0.0109
  620MOL0     N83615   6.166   1.222   4.929  0.2084  0.0464  0.9178
  620MOL0     N83616   6.064   1.307   4.929  0.5106  0.8908 -0.5759
  620MOL0     C83617   6.274   2.068   4.630  0.5111  0.4693 -0.1402
  620MOL0     C83618   6.186   2.076   4.516  0.3155  0.2261 -0.2957
  620MOL0     C83619   5.821   1.986   4.243  0.3255 -0.5630  0.7179
  620MOL0     C83620   5.754   2.108   4.236 -0.2005 -0.2518  0.0031
  620MOL0     C83621   5.646   2.137   4.153 -0.6585  0.0438  0.2467
  620MOL0     C83622   5.607   2.038   4.056 -0.7758  0.1463  0.6602
  620MOL0     O83623   5.503   2.044   3.960 -0.2640  1.1073  0.1792
  620MOL0     C83624   5.401   2.134   3.979  0.5616 -0.7796  0.2809
  620MOL0     C83625   5.307   2.096   4.093  0.0854  0.1066  0.0096
  620MOL0     C83626   5.250   1.955   4.094 -0.4689 -0.1605 -0.0218
  620MOL0     C83627   5.200   1.910   3.959  0.4662  0.0168  0.4174
  620MOL0     C83628   5.111   1.795   3.983  0.6710 -0.2315  0.8217
  620MOL0     C83629   5.041   1.699   3.996 -0.1443 -0.1251 -0.5253
  620MOL0     C83630   5.674   1.914   4.060  0.4139  0.5430 -0.4344
  620MOL0     C83631   5.778   1.887   4.149 -0.0132 -0.0697 -1.2746
  620MOL0     C83632   5.839   1.746   4.144  0.2803 -0.2761 -0.7151
  620MOL0     H83633   5.886   2.069   4.675 -0.9324 -0.9626  0.0417
  620MOL0     H83634   6.025   2.065   4.867  0.4317 -1.8537 -0.6239
  620MOL0     H83635   6.392   1.887   4.841  0.0447 -0.5725  0.2185
  620MOL0     H83636   6.507   2.033   4.832 -0.4921  0.0600 -0.5971
  620MOL0     H83637   6.470   2.060   5.082  0.6241  0.4812 -0.3910
  620MOL0     H83638   6.540   1.915   5.038 -0.0575  0.9175 -0.5864
  620MOL0     H83639   6.255   1.991   5.106 -1.1603 -1.1499  0.8650
  620MOL0     H83640   6.367   1.883   5.197 -1.2967  1.2658  1.2989
  620MOL0     H83641   6.235   1.798   4.944 -1.8213  0.8259 -0.0369
  620MOL0     H83642   6.349   1.709   5.049 -0.5938 -0.3377 -0.9301
  620MOL0     H83643   6.207   1.699   5.228 -0.8991  0.5932 -0.8674
  620MOL0     H83644   6.099   1.826   5.150 -0.8295  0.0624 -0.9717
  620MOL0     H83645   6.027   1.686   4.991  4.2714  1.2883 -2.5016
  620MOL0     H83646   6.152   1.568   5.011  1.0996 -0.5929  1.3536
  620MOL0     H83647   5.915   1.603   5.205  0.4255  0.0852  0.1847
  620MOL0     H83648   6.064   1.516   5.243  0.4174  0.7697 -0.1267
  620MOL0     H83649   5.856   1.376   5.173 -1.7635 -1.2075 -1.3089
  620MOL0     H83650   5.866   1.450   5.017 -0.4257 -1.4113 -0.2661
  620MOL0     H83651   6.103   1.223   5.244  0.0324  1.5725  0.0919
  620MOL0     H83652   6.270   1.059   5.207  0.9344  1.5942  0.2897
  620MOL0     H83653   6.264   0.977   5.044 -0.8575 -0.6009  1.0209
  620MOL0     H83654   6.458   1.111   4.967  2.3997  1.9990 -1.0412
  620MOL0     H83655   6.449   1.214   5.108  3.9596 -1.1314 -1.4555
  620MOL0     H83656   6.511   0.913   5.124 -0.2411 -0.4885  0.2192
  620MOL0     H83657   6.508   1.034   5.264  0.5268  2.5772 -0.7859
  620MOL0     H83658   6.687   1.158   5.125  2.6885 -0.3586  2.3232
  620MOL0     H83659   6.687   1.024   5.024  1.1572 -1.3297  0.1908
  620MOL0     H83660   6.909   1.213   5.176  1.5062  0.7509  2.1305
  620MOL0     H83661   7.158   1.203   5.153 -1.4561  0.2032 -0.7868
  620MOL0     H83662   7.463   0.641   5.100 -1.1838  1.0655  0.1460
  620MOL0     H83663   7.713   0.591   5.077  0.2829  0.6713 -1.8190
  620MOL0     H83664   8.026   0.879   5.244 -1.1542  1.1695  1.7028
  620MOL0     H83665   7.930   0.767   5.345 -0.5720 -1.0970 -0.7799
  620MOL0     H83666   8.166   0.690   5.351  1.1319  0.7877 -0.9578
  620MOL0     H83667   8.074   0.581   5.251  1.3003 -0.3768  1.1787
  620MOL0     H83668   8.159   0.680   5.042  0.7165  1.6000 -1.8302
  620MOL0     H83669   8.209   0.827   5.125  0.6180  0.0879  0.7780
  620MOL0     H83670   8.335   0.553   5.159  2.4143 -0.5498 -0.4267
  620MOL0     H83671   8.385   0.700   5.243 -1.5983 -2.1654  0.6736
  620MOL0     H83672   8.423   0.819   5.048  2.0282 -0.2717  0.7850
  620MOL0     H83673   8.385   0.681   4.933  1.4722 -1.1791  0.2265
  620MOL0     H83674   8.592   0.698   5.141 -2.7299  1.1503 -0.1938
  620MOL0     H83675   8.573   0.556   5.036 -0.0358 -0.7362  3.4585
  620MOL0     H83676   8.618   0.827   4.902 -1.3131  0.0560  1.3478
  620MOL0     H83677   8.643   0.652   4.848 -1.7861  0.2366 -0.1705
  620MOL0     H83678   8.856   0.792   4.916 -2.4082  1.7119  0.7923
  620MOL0     H83679   8.790   0.752   5.071 -0.8606 -0.3830 -0.5251
  620MOL0     H83680   7.813   0.975   5.210  2.3481 -0.5172 -2.3270
  620MOL0     H83681   7.577   1.017   5.278  0.0161 -0.0232  0.3639
  620MOL0     H83682   7.136   0.777   5.193 -1.4820 -1.7233  0.1697
  620MOL0     H83683   6.887   0.796   5.228 -1.5079  2.3450 -0.2050
  620MOL0     H83684   6.381   2.086   4.619  0.4897 -0.2165 -1.9846
  620MOL0     H83685   6.216   2.068   4.412 -0.8682  1.6044 -0.7661
  620MOL0     H83686   5.777   2.186   4.309  0.7907  1.3191 -1.8886
  620MOL0     H83687   5.593   2.232   4.156 -2.2447 -0.7228 -1.5455
  620MOL0     H83688   5.348   2.141   3.884 -1.0595 -1.1905  1.1193
  620MOL0     H83689   5.440   2.235   3.996  1.1291 -0.9297 -0.0987
  620MOL0     H83690   5.225   2.165   4.075  0.7942  0.6467 -1.3192
  620MOL0     H83691   5.348   2.112   4.193 -1.2702  0.9313  0.4581
  620MOL0     H83692   5.166   1.946   4.163 -0.1795 -4.4699  0.0229
  620MOL0     H83693   5.317   1.876   4.129 -2.4861 -1.1435  1.8539
  620MOL0     H83694   5.156   1.997   3.909  0.6540  0.3367  0.8058
  620MOL0     H83695   5.280   1.874   3.894 -0.1021 -1.2706  0.4126
  620MOL0     H83696   4.972   1.618   4.001 -1.4855  0.8764 -1.9487
  620MOL0     H83697   5.657   1.837   3.986 -2.4678  0.8153 -0.1830
  620MOL0     H83698   5.879   1.713   4.241 -2.9330 -1.4641  0.3475
  620MOL0     H83699   5.760   1.674   4.123 -0.2133 -0.1558  0.5877
  620MOL0     H83700   5.914   1.744   4.065 -0.2802  0.3338 -1.2736
  621MOL0     O83701   9.211   2.001   8.603  0.8116 -0.5148 -0.1375
  621MOL0     C83702   9.216   1.995   8.483 -0.3134  0.2285  0.4563
  621MOL0     O83703   9.120   1.955   8.399 -0.1714 -0.1458  0.3934
  621MOL0     C83704   8.992   1.928   8.431 -0.4855  0.1268  0.1960
  621MOL0     C83705   8.940   1.885   8.552  0.2486 -0.0168  0.1007
  621MOL0     C83706   8.812   1.836   8.560 -0.2382 -1.4202 -0.3380
  621MOL0     C83707   8.723   1.861   8.461  0.6271 -0.2704  0.0510
  621MOL0     O83708   8.590   1.831   8.479 -0.0259 -0.1245 -0.6544
  621MOL0     C83709   8.521   1.901   8.589  0.3071  1.0063 -0.1513
  621MOL0     C83710   8.499   2.051   8.552  0.5499  0.1268 -0.0185
  621MOL0     C83711   8.404   2.127   8.646  0.7041  0.6380  0.5604
  621MOL0     C83712   8.251   2.082   8.626  0.4583 -0.2560 -0.8583
  621MOL0     C83713   8.164   2.159   8.720 -0.7620  0.2962 -0.2510
  621MOL0     C83714   8.195   2.161   8.871  0.3443  0.1056  0.4871
  621MOL0     C83715   8.066   2.161   8.951  0.7890  0.2265 -0.2574
  621MOL0     C83716   8.102   2.155   9.099  0.8325  0.3617 -0.2159
  621MOL0     N83717   7.986   2.142   9.186  0.3156 -0.1381  0.7455
  621MOL0     C83718   7.940   2.248   9.259  0.4103  1.0636 -0.2140
  621MOL0     C83719   7.853   2.190   9.346 -0.2704 -0.3582  0.2146
  621MOL0     C83720   7.775   2.253   9.460 -0.3464  1.5630 -0.2671
  621MOL0     C83721   7.626   2.211   9.447 -0.3634  1.0598 -0.3117
  621MOL0     C83722   7.542   2.246   9.552  0.7982  0.2848 -0.5652
  621MOL0     C83723   7.394   2.218   9.518  0.2103 -0.2199  0.4570
  621MOL0     O83724   7.379   2.084   9.515 -0.3454  0.1657 -0.3613
  621MOL0     C83725   7.262   2.025   9.478  0.5913  0.4845 -0.3929
  621MOL0     C83726   7.266   1.885   9.466  0.5981 -0.7877  0.4613
  621MOL0     C83727   7.143   1.811   9.442  0.8120  0.0959 -0.2589
  621MOL0     C83728   7.033   1.872   9.392  0.2409 -1.3723  0.9078
  621MOL0     C83729   6.919   1.784   9.358  0.1901 -0.7195  0.4559
  621MOL0     O83730   6.803   1.855   9.321  0.5819  0.5482  0.3759
  621MOL0     C83731   6.679   1.796   9.312  0.0614  0.2919  0.3541
  621MOL0     C83732   6.599   1.843   9.211 -0.3902 -0.4107  0.5076
  621MOL0     C83733   6.481   1.773   9.175  0.4587 -0.2428 -0.7335
  621MOL0     C83734   6.436   1.665   9.254 -0.3223  0.2695 -0.5911
  621MOL0     O83735   6.314   1.597   9.240  0.1185  0.5282 -1.5649
  621MOL0     C83736   6.235   1.620   9.128 -0.3642  0.3096 -0.1988
  621MOL0     C83737   6.101   1.557   9.155 -0.6367  0.3417 -0.3389
  621MOL0     C83738   6.034   1.617   9.283 -0.4165  1.0946  0.6901
  621MOL0     C83739   5.902   1.555   9.336 -0.2324 -0.0262  0.6281
  621MOL0     C83740   5.785   1.573   9.235 -0.4433 -0.7470  0.3092
  621MOL0     C83741   5.655   1.508   9.286 -0.0903 -0.2924  0.3904
  621MOL0     C83742   5.552   1.492   9.179 -0.4799  0.3049  0.0808
  621MOL0     C83743   5.452   1.393   9.221 -0.1097 -0.3648 -0.0324
  621MOL0    Cl83744   5.518   1.219   9.247  0.0686  0.0480 -0.3694
  621MOL0     C83745   6.515   1.626   9.363 -0.5818  0.5085 -0.7769
  621MOL0     C83746   6.631   1.697   9.390 -0.4020 -0.3272 -0.3302
  621MOL0     O83747   6.933   1.659   9.354  0.3993 -0.9145  0.1809
  621MOL0     C83748   7.029   2.020   9.391 -0.2263  0.4352  0.6016
  621MOL0     C83749   7.136   2.096   9.454 -0.2534  0.6094  0.0515
  621MOL0     N83750   7.844   2.052   9.316  1.0240  0.4275 -0.1295
  621MOL0     N83751   7.931   2.024   9.223 -0.4365  0.2766 -0.4887
  621MOL0     C83752   8.770   1.899   8.343  1.1122  0.4278  0.9791
  621MOL0     C83753   8.903   1.936   8.326 -0.5518  0.1821  0.6513
  621MOL0     C83754   9.337   2.037   8.416 -0.3760 -0.0387 -0.1981
  621MOL0     C83755   9.419   1.944   8.365 -0.3661  0.1460  0.3453
  621MOL0     C83756   9.530   1.980   8.298  0.0686 -0.8122  0.1517
  621MOL0     C83757   9.571   2.117   8.291  0.2700  0.1830 -0.3878
  621MOL0     O83758   9.694   2.143   8.230 -0.4920  0.2201  0.2917
  621MOL0     C83759   9.747   2.277   8.225  0.0352 -0.6479 -0.1381
  621MOL0     C83760   9.878   2.296   8.153  0.2614 -0.9243 -0.3579
  621MOL0     C83761   9.991   2.223   8.221  0.3759  0.0984 -0.0011
  621MOL0     C83762  10.125   2.245   8.160  0.4254 -0.0859  0.0071
  621MOL0     C83763  10.210   2.156   8.235 -0.3726  0.0452 -0.2220
  621MOL0     C83764  10.281   2.075   8.288 -0.3537 -0.6494  0.0721
  621MOL0     C83765   9.488   2.209   8.351 -0.3552  0.2647  0.3908
  621MOL0     C83766   9.377   2.166   8.418 -0.3535 -0.1890  0.0207
  621MOL0     C83767   9.300   2.271   8.491  0.8170 -0.8407 -0.6793
  621MOL0     H83768   9.009   1.878   8.635  0.4244  0.2905 -0.0198
  621MOL0     H83769   8.777   1.804   8.657 -2.0254 -0.1648 -0.5226
  621MOL0     H83770   8.423   1.852   8.598  1.3853 -1.1970  0.1637
  621MOL0     H83771   8.573   1.888   8.684 -0.0374  1.6760  0.1339
  621MOL0     H83772   8.467   2.079   8.451 -1.1348 -0.3592  0.3485
  621MOL0     H83773   8.594   2.103   8.566 -0.1425  1.3308  0.3397
  621MOL0     H83774   8.405   2.231   8.613 -0.8890  0.1352 -1.3006
  621MOL0     H83775   8.443   2.110   8.747 -0.5071 -2.4513  0.6307
  621MOL0     H83776   8.234   2.111   8.523  2.5141  3.9909 -0.2061
  621MOL0     H83777   8.236   1.974   8.636  0.8768 -0.3520 -1.2198
  621MOL0     H83778   8.157   2.262   8.685 -4.1063 -0.0542 -0.9312
  621MOL0     H83779   8.064   2.118   8.706  0.0598 -1.0752 -2.7521
  621MOL0     H83780   8.255   2.074   8.900 -1.4060 -1.8581 -1.3823
  621MOL0     H83781   8.251   2.251   8.897 -0.8215  1.0022 -0.0129
  621MOL0     H83782   8.010   2.072   8.919 -0.4923  1.1236 -0.5771
  621MOL0     H83783   8.005   2.249   8.928  0.7381  0.2374 -0.0814
  621MOL0     H83784   8.167   2.068   9.110 -1.3480 -1.7878 -2.6615
  621MOL0     H83785   8.152   2.250   9.118 -0.0084  0.6931  0.4322
  621MOL0     H83786   7.971   2.352   9.263  0.9996  0.8573  2.4925
  621MOL0     H83787   7.801   2.213   9.559 -3.3889  2.9365  1.2347
  621MOL0     H83788   7.782   2.361   9.475 -2.0957  1.8955 -1.5910
  621MOL0     H83789   7.591   2.245   9.349 -2.1717  1.2248  0.3684
  621MOL0     H83790   7.620   2.102   9.445  0.2243  0.9711  1.2709
  621MOL0     H83791   7.548   2.356   9.556  3.5468  0.2590 -1.5465
  621MOL0     H83792   7.586   2.204   9.643  1.9680 -0.9670 -1.6692
  621MOL0     H83793   7.387   2.260   9.417  1.9155 -4.1818 -1.5441
  621MOL0     H83794   7.328   2.275   9.583 -0.3879  2.0694 -1.9564
  621MOL0     H83795   7.358   1.833   9.488  1.1434 -0.8277 -1.6759
  621MOL0     H83796   7.153   1.704   9.457  1.9716  0.5050  2.2967
  621MOL0     H83797   6.637   1.928   9.155  2.0928 -1.7196  0.0810
  621MOL0     H83798   6.427   1.808   9.087  1.5276  0.4719 -1.1304
  621MOL0     H83799   6.218   1.726   9.110  0.6739  0.4100 -0.6352
  621MOL0     H83800   6.279   1.580   9.036 -1.3568 -0.0654 -0.5338
  621MOL0     H83801   6.041   1.576   9.065 -1.1315  1.9176  0.2983
  621MOL0     H83802   6.128   1.451   9.166  1.5312  0.8564 -0.1727
  621MOL0     H83803   6.108   1.610   9.363  0.2515  0.8288  0.0625
  621MOL0     H83804   6.031   1.725   9.263 -0.5804  0.9273 -0.2841
  621MOL0     H83805   5.879   1.587   9.439  0.0714 -2.9910  1.7001
  621MOL0     H83806   5.910   1.446   9.340  1.9732  0.0664 -0.0551
  621MOL0     H83807   5.815   1.530   9.140 -0.1199 -2.6109  1.2066
  621MOL0     H83808   5.776   1.682   9.226  2.1926 -0.5508 -0.8856
  621MOL0     H83809   5.684   1.406   9.313 -0.6685 -0.7969 -0.8380
  621MOL0     H83810   5.611   1.564   9.369  0.7108  1.6290 -0.4241
  621MOL0     H83811   5.593   1.467   9.081  0.0172 -4.0802  1.1937
  621MOL0     H83812   5.515   1.594   9.171  2.5710  1.6665  1.7065
  621MOL0     H83813   5.402   1.426   9.312 -1.7051  2.1053 -1.6762
  621MOL0     H83814   5.376   1.384   9.142 -0.5411  1.4246  0.1255
  621MOL0     H83815   6.485   1.549   9.433 -2.8596  1.9993 -0.0284
  621MOL0     H83816   6.694   1.666   9.473  0.9474 -1.1792 -1.6489
  621MOL0     H83817   6.942   2.069   9.350 -1.4246 -0.4639  1.9930
  621MOL0     H83818   7.121   2.197   9.491  0.7329 -0.2008  2.8924
  621MOL0     H83819   8.698   1.901   8.262 -2.4540 -4.8086  3.4897
  621MOL0     H83820   8.936   1.972   8.229  0.5875 -1.0348  0.5573
  621MOL0     H83821   9.374   1.846   8.372  1.2098 -0.7115 -1.0609
  621MOL0     H83822   9.589   1.901   8.252 -1.4047 -1.6332 -0.4060
  621MOL0     H83823   9.746   2.316   8.327 -4.2970 -2.5867  0.7754
  621MOL0     H83824   9.678   2.341   8.169 -0.1925 -0.9573 -0.2125
  621MOL0     H83825   9.896   2.404   8.152 -5.0756  0.2398 -0.3185
  621MOL0     H83826   9.861   2.258   8.052 -1.6843  2.1848 -1.3656
  621MOL0     H83827   9.975   2.116   8.236  1.3774  0.1383  1.6345
  621MOL0     H83828   9.990   2.270   8.320 -0.7424  3.2453 -1.3875
  621MOL0     H83829  10.124   2.209   8.057  1.1758 -1.3462  0.4091
  621MOL0     H83830  10.170   2.343   8.177  3.2269 -1.3862  0.6763
  621MOL0     H83831  10.327   2.007   8.357 -0.7449  0.6029  1.6194
  621MOL0     H83832   9.511   2.315   8.362 -0.2219  0.5698 -2.2467
  621MOL0     H83833   9.301   2.245   8.597 -1.7685 -3.6215 -1.2236
  621MOL0     H83834   9.339   2.373   8.483 -2.1685  0.5704  1.0932
  621MOL0     H83835   9.199   2.263   8.451  0.3016 -2.2902  0.8110
  622MOL0     O83836   5.039   9.098   5.563 -0.0254 -0.1150 -0.0572
  622MOL0     C83837   5.088   8.989   5.583 -0.7564 -0.3721  0.2163
  622MOL0     O83838   5.213   8.965   5.630  0.2393  0.3109  0.5271
  622MOL0     C83839   5.306   9.060   5.628 -0.3201  0.5331  0.5237
  622MOL0     C83840   5.417   9.033   5.551 -1.1142 -0.4763  1.0288
  622MOL0     C83841   5.522   9.129   5.544  0.4980  0.1462  0.4964
  622MOL0     C83842   5.497   9.253   5.606  0.2743  0.5294 -0.1659
  622MOL0     O83843   5.591   9.354   5.598 -0.9099  0.0122  0.2133
  622MOL0     C83844   5.611   9.451   5.693  0.4929 -0.2658  0.0790
  622MOL0     C83845   5.738   9.526   5.673  0.2157  0.7638 -0.3105
  622MOL0     C83846   5.763   9.606   5.804  0.3809  0.6162  0.2856
  622MOL0     C83847   5.887   9.682   5.777 -0.3726  0.8336  0.4697
  622MOL0     C83848   5.907   9.781   5.897 -0.0654 -0.8900 -0.5288
  622MOL0     C83849   6.023   9.885   5.880 -0.1485 -0.4822 -0.3858
  622MOL0     C83850   6.009  10.031   5.933 -0.2398 -0.3065 -0.7019
  622MOL0     C83851   5.873  10.106   5.910 -0.7927  0.7214  0.2840
  622MOL0     N83852   5.834  10.093   5.765  0.8760 -0.1309 -0.8732
  622MOL0     C83853   5.850  10.193   5.676  1.0307 -0.3104 -0.0365
  622MOL0     C83854   5.784  10.159   5.564 -0.0450  0.4285 -0.8236
  622MOL0     C83855   5.781  10.243   5.446 -0.6433 -0.8576 -0.3339
  622MOL0     C83856   5.678  10.194   5.345  0.2023 -0.0226  0.2112
  622MOL0     C83857   5.643  10.294   5.243 -0.4300  0.2059  0.2270
  622MOL0     C83858   5.507  10.258   5.180  0.4836 -0.9825 -0.1701
  622MOL0     O83859   5.489  10.347   5.069 -0.1230 -0.4041  0.7201
  622MOL0     C83860   5.379  10.320   4.995  0.5396  0.1293 -0.2819
  622MOL0     C83861   5.351  10.412   4.887  0.2562 -0.3415  0.5739
  622MOL0     C83862   5.228  10.401   4.820 -0.7464 -0.8431  0.2012
  622MOL0     C83863   5.126  10.324   4.859 -0.1360  0.1691  1.1069
  622MOL0     C83864   4.997  10.311   4.786  0.7126  0.1615  0.1773
  622MOL0     O83865   4.898  10.243   4.854 -0.5307 -0.1260 -0.6620
  622MOL0     C83866   4.784  10.215   4.787 -0.0746 -0.1967 -0.0178
  622MOL0     C83867   4.678  10.208   4.870  1.1329  0.4744  0.4838
  622MOL0     C83868   4.558  10.155   4.832 -0.6188  1.0598  0.4795
  622MOL0     C83869   4.538  10.104   4.704 -0.7435  0.5401  0.0745
  622MOL0     O83870   4.413  10.061   4.672 -0.5107  0.0151  0.0142
  622MOL0     C83871   4.395   9.974   4.563 -0.6637 -0.4817 -0.5094
  622MOL0     C83872   4.257   9.921   4.568 -0.1322  0.2558 -0.0331
  622MOL0     C83873   4.165  10.039   4.567 -0.2491  0.4109 -0.4969
  622MOL0     C83874   4.022  10.003   4.521 -0.8934  0.9712  0.0575
  622MOL0     C83875   3.921  10.114   4.546  0.2802 -0.3758  0.4386
  622MOL0     C83876   3.961  10.227   4.458  0.3376  1.0138  0.0595
  622MOL0     C83877   3.847  10.325   4.439  1.1158  0.6795 -0.4058
  622MOL0     C83878   3.880  10.444   4.338  0.3183  0.0689  0.2335
  622MOL0    Cl83879   4.000  10.556   4.392 -0.1935 -0.1236 -0.1753
  622MOL0     C83880   4.644  10.127   4.611  1.4667 -0.3897 -0.9900
  622MOL0     C83881   4.770  10.175   4.651 -0.5205 -0.4081  0.5610
  622MOL0     O83882   4.985  10.365   4.678 -0.1926  0.1016 -0.1600
  622MOL0     C83883   5.157  10.226   4.964 -0.8023  0.0885 -0.0768
  622MOL0     C83884   5.275  10.229   5.033  0.0265  0.6087 -0.0340
  622MOL0     N83885   5.736  10.028   5.579 -0.8172  0.4999  0.2198
  622MOL0     N83886   5.759   9.995   5.705 -0.2886 -0.9997  0.7699
  622MOL0     C83887   5.376   9.278   5.672  0.2287 -0.3654 -0.1844
  622MOL0     C83888   5.287   9.178   5.690  0.7897 -0.5520 -0.2577
  622MOL0     C83889   4.999   8.874   5.548  0.6892 -0.5884 -0.5875
  622MOL0     C83890   5.052   8.752   5.519  0.2531  0.2829  1.4096
  622MOL0     C83891   4.972   8.643   5.488 -0.1975 -0.0108 -0.0024
  622MOL0     C83892   4.833   8.660   5.485  0.2856 -0.0704  0.4810
  622MOL0     O83893   4.750   8.565   5.427  0.0426  0.7421 -0.3474
  622MOL0     C83894   4.784   8.428   5.417  0.4288 -0.2034  0.3683
  622MOL0     C83895   4.662   8.346   5.447  0.5066  0.0601 -0.2816
  622MOL0     C83896   4.574   8.340   5.319  0.3987 -0.2036 -0.5975
  622MOL0     C83897   4.428   8.282   5.351 -0.2811 -0.0404 -0.4563
  622MOL0     C83898   4.430   8.156   5.430 -0.4093 -0.1563 -0.0047
  622MOL0     C83899   4.436   8.061   5.505  0.3689 -0.0835 -0.0313
  622MOL0     C83900   4.778   8.779   5.535  0.1088 -0.7471  0.5106
  622MOL0     C83901   4.864   8.890   5.566  0.0237  0.9274 -0.2007
  622MOL0     C83902   4.792   9.009   5.612 -0.0998 -0.1750 -0.2600
  622MOL0     H83903   5.425   8.938   5.498  0.9862 -0.0412  0.4728
  622MOL0     H83904   5.614   9.097   5.496  1.9379 -0.0107  3.1621
  622MOL0     H83905   5.517   9.507   5.682 -0.2253 -1.4663 -0.1457
  622MOL0     H83906   5.605   9.408   5.793  0.5473 -2.1641 -0.6820
  622MOL0     H83907   5.727   9.591   5.586  0.4304 -0.9468 -1.6615
  622MOL0     H83908   5.807   9.444   5.652 -0.2454  0.4706 -0.7185
  622MOL0     H83909   5.788   9.545   5.890  2.6732  1.1199  0.0581
  622MOL0     H83910   5.688   9.679   5.834 -1.0160 -0.6524 -0.0179
  622MOL0     H83911   5.968   9.608   5.772 -2.4513 -1.4933 -0.5798
  622MOL0     H83912   5.892   9.737   5.683  1.0251  0.5860  0.3766
  622MOL0     H83913   5.815   9.840   5.906 -1.3209 -2.5549 -1.7707
  622MOL0     H83914   5.923   9.718   5.984  1.7118  1.0155  0.6310
  622MOL0     H83915   6.110   9.852   5.937  0.1289 -0.6681 -0.9186
  622MOL0     H83916   6.043   9.893   5.773  1.3924  2.3520  0.0162
  622MOL0     H83917   6.096  10.074   5.883  0.4230  0.0062  0.6705
  622MOL0     H83918   6.033  10.044   6.039 -0.2890 -1.3057 -0.5574
  622MOL0     H83919   5.801  10.061   5.979  0.4008 -2.2555 -0.3028
  622MOL0     H83920   5.884  10.213   5.933  1.0372  0.8544 -1.0315
  622MOL0     H83921   5.889  10.292   5.696 -0.7561  1.0626 -2.7117
  622MOL0     H83922   5.769  10.349   5.468  2.3807  0.0546 -2.4880
  622MOL0     H83923   5.879  10.223   5.402 -0.1537 -3.6298  1.7618
  622MOL0     H83924   5.712  10.107   5.288  1.5458 -0.6000  1.8148
  622MOL0     H83925   5.594  10.151   5.399  0.4506 -2.8672 -1.4838
  622MOL0     H83926   5.729  10.298   5.176  0.3961  1.9244  1.2963
  622MOL0     H83927   5.633  10.397   5.279 -0.3090  1.2312 -2.4185
  622MOL0     H83928   5.430  10.274   5.256  0.7531 -2.2892  0.4094
  622MOL0     H83929   5.510  10.154   5.146  1.6391 -1.2590  0.7225
  622MOL0     H83930   5.422  10.487   4.854 -1.2038 -0.1161 -2.3544
  622MOL0     H83931   5.216  10.463   4.732 -0.0087 -1.3145 -0.2429
  622MOL0     H83932   4.688  10.247   4.971  0.4863  0.6302  0.4898
  622MOL0     H83933   4.471  10.126   4.890 -1.5453 -2.6842 -2.3905
  622MOL0     H83934   4.414  10.033   4.473 -1.0403 -0.2493 -0.4357
  622MOL0     H83935   4.446   9.878   4.571 -1.5876 -0.8213  3.0247
  622MOL0     H83936   4.250   9.859   4.478  3.4654 -0.9985  0.3818
  622MOL0     H83937   4.249   9.851   4.651  0.1213 -1.3704 -1.3317
  622MOL0     H83938   4.169  10.087   4.665 -0.1867  0.8149 -0.6981
  622MOL0     H83939   4.205  10.118   4.504  0.4815  0.8011  0.4215
  622MOL0     H83940   3.977   9.919   4.574 -1.1738  0.9373 -0.2361
  622MOL0     H83941   4.031   9.980   4.415  0.5575  1.3323  0.0773
  622MOL0     H83942   3.922  10.148   4.650  0.6820 -0.7403  0.5576
  622MOL0     H83943   3.823  10.079   4.514  1.1223 -0.0405 -2.8875
  622MOL0     H83944   4.031  10.287   4.518 -1.0950 -0.1252  3.0778
  622MOL0     H83945   4.002  10.192   4.364 -0.5809 -0.6760  0.2461
  622MOL0     H83946   3.813  10.354   4.539 -4.0197 -4.3748 -0.1445
  622MOL0     H83947   3.759  10.273   4.399  2.4903 -2.6016  0.5313
  622MOL0     H83948   3.895  10.403   4.237 -4.4496  0.6922 -0.9810
  622MOL0     H83949   3.784  10.494   4.326 -0.4273 -1.8849 -3.6861
  622MOL0     H83950   4.621  10.114   4.505 -1.1056 -0.1350 -0.5208
  622MOL0     H83951   4.859  10.180   4.588 -0.8928  0.6876  0.1035
  622MOL0     H83952   5.092  10.140   4.980 -3.0332  1.4442 -1.2843
  622MOL0     H83953   5.288  10.159   5.115  1.5289  0.3023 -0.4892
  622MOL0     H83954   5.344   9.379   5.695 -3.6353 -1.2026 -1.2102
  622MOL0     H83955   5.200   9.199   5.751  1.0856  1.0389 -0.3238
  622MOL0     H83956   5.160   8.739   5.518  0.3220  0.5287 -1.6109
  622MOL0     H83957   5.039   8.563   5.460  1.3787  0.0037  3.2416
  622MOL0     H83958   4.869   8.408   5.483 -0.1425 -0.5684  1.0055
  622MOL0     H83959   4.813   8.393   5.317 -0.5167  0.9651 -0.3386
  622MOL0     H83960   4.595   8.378   5.527 -1.2267  2.0199 -2.3591
  622MOL0     H83961   4.697   8.249   5.480  1.0775  0.4769  0.3544
  622MOL0     H83962   4.628   8.286   5.241 -1.6561  0.7396 -2.8069
  622MOL0     H83963   4.566   8.435   5.265 -1.0418  0.2209  0.3061
  622MOL0     H83964   4.378   8.358   5.411  0.3065  2.0912 -2.5562
  622MOL0     H83965   4.369   8.271   5.260 -2.9064  0.4487  1.0652
  622MOL0     H83966   4.468   7.980   5.567 -0.0070 -0.1967  0.0203
  622MOL0     H83967   4.670   8.789   5.541  0.1033 -0.2237 -0.2966
  622MOL0     H83968   4.847   9.070   5.684 -0.9436 -0.8137  0.9653
  622MOL0     H83969   4.754   9.069   5.529 -3.6205 -0.9910  0.5751
  622MOL0     H83970   4.700   8.978   5.663  0.9686  0.3803  2.1501
  623MOL0     O83971   7.830   3.260   7.092 -0.0690 -0.2308  0.5717
  623MOL0     C83972   7.834   3.240   7.215 -0.0454 -0.0213  0.0841
  623MOL0     O83973   7.862   3.336   7.316  0.1750  0.6512  0.3965
  623MOL0     C83974   7.915   3.445   7.272 -0.4816  0.1198 -0.2632
  623MOL0     C83975   7.835   3.544   7.230  1.0631 -0.1376 -0.8532
  623MOL0     C83976   7.884   3.670   7.209  0.5178 -0.4902 -0.1426
  623MOL0     C83977   8.018   3.705   7.219 -0.9520 -0.3524 -1.6312
  623MOL0     O83978   8.052   3.838   7.206 -0.2022  0.0935 -0.3408
  623MOL0     C83979   8.176   3.890   7.257  0.0647 -0.2872 -0.2062
  623MOL0     C83980   8.169   4.038   7.238 -0.3007 -0.4426  0.5918
  623MOL0     C83981   8.303   4.095   7.290  0.1375  0.7161 -0.6981
  623MOL0     C83982   8.293   4.253   7.303  0.9375 -0.1799 -0.1836
  623MOL0     C83983   8.438   4.297   7.328 -0.0475  0.2211  0.4535
  623MOL0     C83984   8.500   4.270   7.475 -0.0701  0.1568 -0.0398
  623MOL0     C83985   8.622   4.358   7.495 -0.2666  0.5309 -0.0227
  623MOL0     C83986   8.694   4.329   7.633  0.7953  0.2847 -0.2065
  623MOL0     N83987   8.791   4.228   7.625  0.5188  0.2840  0.2212
  623MOL0     C83988   8.778   4.097   7.670  0.3646 -0.0917  0.3116
  623MOL0     C83989   8.906   4.052   7.651 -0.1807  0.1214  0.2841
  623MOL0     C83990   8.949   3.911   7.694 -0.4270 -0.0733  0.4599
  623MOL0     C83991   8.864   3.791   7.647  0.5822  1.1996  0.0135
  623MOL0     C83992   8.945   3.659   7.660 -0.1903  0.0596 -0.0704
  623MOL0     C83993   8.860   3.536   7.619 -0.1543 -0.3548  0.7650
  623MOL0     O83994   8.938   3.418   7.589  0.2720  0.6089 -0.3950
  623MOL0     C83995   8.877   3.292   7.601 -1.1862 -0.3461 -0.0673
  623MOL0     C83996   8.745   3.263   7.622  0.5932  0.7039 -0.3850
  623MOL0     C83997   8.695   3.135   7.619  0.0235  0.1257 -0.7187
  623MOL0     C83998   8.781   3.024   7.601 -0.4444 -0.3854 -0.1909
  623MOL0     C83999   8.732   2.887   7.583 -0.3294 -0.6588 -0.6520
  623MOL0     O84000   8.590   2.875   7.604 -0.4218  0.3263 -0.5862
  623MOL0     C84001   8.547   2.743   7.611 -0.1800 -0.1519 -0.0967
  623MOL0     C84002   8.475   2.702   7.725 -1.6459  0.1863  0.5361
  623MOL0     C84003   8.427   2.571   7.739  0.2139  0.5971 -0.4512
  623MOL0     C84004   8.451   2.475   7.643  0.3085 -0.2095  0.1160
  623MOL0     O84005   8.403   2.344   7.659 -0.3783  0.1625  0.2266
  623MOL0     C84006   8.372   2.276   7.533  0.4882 -0.2746 -0.1406
  623MOL0     C84007   8.264   2.172   7.563  0.3296 -0.0847 -1.0848
  623MOL0     C84008   8.136   2.244   7.574  0.0825 -0.3738  0.2162
  623MOL0     C84009   8.013   2.142   7.562 -1.0904 -0.4209 -0.6802
  623MOL0     C84010   7.978   2.070   7.701 -0.3722 -0.4538  0.0351
  623MOL0     C84011   7.849   1.995   7.673  0.8885  0.2586  0.9174
  623MOL0     C84012   7.825   1.865   7.757  0.2293 -0.2885 -0.2128
  623MOL0     C84013   7.724   1.775   7.701 -0.4971 -0.1875 -0.0061
  623MOL0    Cl84014   7.712   1.636   7.807 -0.0685  0.0435  0.0979
  623MOL0     C84015   8.515   2.516   7.520 -0.2043 -0.0898 -0.9229
  623MOL0     C84016   8.554   2.649   7.508 -0.5309 -0.1707 -0.3384
  623MOL0     O84017   8.813   2.802   7.542 -0.3374 -0.1923 -0.1544
  623MOL0     C84018   8.920   3.051   7.587  0.4400 -0.4531 -1.0879
  623MOL0     C84019   8.968   3.179   7.590  0.3284 -0.3372 -0.0483
  623MOL0     N84020   8.992   4.147   7.601  0.3871  0.0563  0.4836
  623MOL0     N84021   8.920   4.256   7.591  0.5585 -0.3543  0.1563
  623MOL0     C84022   8.109   3.595   7.243  0.4460 -0.4951 -0.0155
  623MOL0     C84023   8.055   3.466   7.269 -0.0649 -0.1237 -0.5357
  623MOL0     C84024   7.814   3.097   7.264  1.1351 -0.0577  0.6520
  623MOL0     C84025   7.841   3.068   7.399 -0.4766 -0.5947  0.6365
  623MOL0     C84026   7.807   2.948   7.457  0.5193  0.1803  0.1943
  623MOL0     C84027   7.730   2.858   7.383 -0.0762  0.1117 -0.3519
  623MOL0     O84028   7.698   2.746   7.446  0.5324 -0.3681  0.0924
  623MOL0     C84029   7.553   2.727   7.455  0.6525 -0.6019  0.0344
  623MOL0     C84030   7.511   2.621   7.567 -0.4130  0.2542  0.1764
  623MOL0     C84031   7.619   2.555   7.654  0.6701  0.3218  0.7179
  623MOL0     C84032   7.685   2.442   7.577 -0.6551  0.4341  0.2775
  623MOL0     C84033   7.605   2.321   7.554  0.5386 -0.4210 -0.0682
  623MOL0     C84034   7.540   2.226   7.531 -1.1963 -0.0914  0.4783
  623MOL0     C84035   7.711   2.875   7.246 -0.4391 -0.3191  0.2979
  623MOL0     C84036   7.755   2.992   7.180 -0.4810  0.2148 -0.1677
  623MOL0     C84037   7.697   3.013   7.039 -0.9528  0.2164 -0.4079
  623MOL0     H84038   7.726   3.545   7.236  1.0653  0.1213 -0.8266
  623MOL0     H84039   7.806   3.742   7.184  0.8809 -0.6794 -1.9896
  623MOL0     H84040   8.174   3.875   7.365 -2.0002  1.0806  0.0161
  623MOL0     H84041   8.260   3.839   7.210  0.1153 -0.6105  0.2352
  623MOL0     H84042   8.088   4.087   7.293 -0.3121  1.7594 -1.2259
  623MOL0     H84043   8.147   4.072   7.136 -1.8602 -0.0975  1.0292
  623MOL0     H84044   8.380   4.063   7.220 -0.6903  0.1732 -1.3760
  623MOL0     H84045   8.333   4.051   7.385 -1.2835  0.8382 -0.1641
  623MOL0     H84046   8.257   4.294   7.208  1.9835 -0.3237 -0.6558
  623MOL0     H84047   8.231   4.293   7.384  2.1592  2.5968 -0.4785
  623MOL0     H84048   8.511   4.255   7.258  1.0043  0.3798  1.4198
  623MOL0     H84049   8.448   4.403   7.304  2.3468  0.0498  0.3916
  623MOL0     H84050   8.415   4.289   7.541 -0.2267 -0.3148 -0.0989
  623MOL0     H84051   8.532   4.165   7.471  2.6028  0.9367 -1.3235
  623MOL0     H84052   8.587   4.462   7.494 -0.4360  0.5401  2.0505
  623MOL0     H84053   8.698   4.331   7.421 -0.3766 -0.5320  0.2383
  623MOL0     H84054   8.741   4.424   7.662 -1.5537  0.5764  3.3752
  623MOL0     H84055   8.620   4.291   7.704 -1.0214 -1.4375 -2.8324
  623MOL0     H84056   8.685   4.052   7.703 -1.0883  0.6352 -2.4360
  623MOL0     H84057   9.048   3.896   7.649 -0.7733 -0.9795 -0.0296
  623MOL0     H84058   8.969   3.915   7.801  0.5700 -0.0075  0.2784
  623MOL0     H84059   8.777   3.793   7.714  0.6513 -0.3175  0.1697
  623MOL0     H84060   8.840   3.808   7.542  0.3743 -4.3200 -1.1037
  623MOL0     H84061   8.979   3.647   7.763  0.0787  0.8361 -0.0604
  623MOL0     H84062   9.033   3.650   7.594 -1.0696 -2.7227 -1.0277
  623MOL0     H84063   8.800   3.569   7.534  1.1844  1.0038  0.2882
  623MOL0     H84064   8.791   3.515   7.701 -1.2571 -1.4808 -0.4092
  623MOL0     H84065   8.665   3.333   7.643  0.4293  0.3928  0.0433
  623MOL0     H84066   8.588   3.118   7.624 -0.2528  1.3277 -2.0751
  623MOL0     H84067   8.489   2.769   7.809  0.5273 -2.4689  2.4611
  623MOL0     H84068   8.365   2.548   7.825 -0.2906 -1.4552 -1.3107
  623MOL0     H84069   8.334   2.345   7.457 -1.7569 -1.6346 -0.3508
  623MOL0     H84070   8.465   2.224   7.509 -0.3940 -1.2410 -1.5997
  623MOL0     H84071   8.263   2.099   7.481 -0.3273 -0.4549 -0.7594
  623MOL0     H84072   8.288   2.128   7.660  0.3325  2.7400  0.3051
  623MOL0     H84073   8.128   2.303   7.665 -2.0418 -0.6637  0.2890
  623MOL0     H84074   8.125   2.310   7.487  0.0966 -0.2391  0.3166
  623MOL0     H84075   8.039   2.073   7.481 -0.0364  1.7289 -2.2471
  623MOL0     H84076   7.924   2.201   7.536 -1.1576  1.3764  2.9970
  623MOL0     H84077   7.969   2.151   7.774 -2.1746  0.6437 -1.3066
  623MOL0     H84078   8.047   1.990   7.729 -0.4470 -0.6815 -0.4094
  623MOL0     H84079   7.766   2.063   7.695  0.2501  0.3555 -1.4955
  623MOL0     H84080   7.850   1.968   7.567  1.0086 -1.1910  1.2716
  623MOL0     H84081   7.796   1.896   7.858  2.0122  0.2282  0.1753
  623MOL0     H84082   7.921   1.815   7.769 -1.1599 -2.5123  3.1311
  623MOL0     H84083   7.630   1.830   7.697 -0.4193  0.0107  0.7323
  623MOL0     H84084   7.750   1.747   7.599 -0.7400  1.9218 -0.6987
  623MOL0     H84085   8.528   2.446   7.438 -0.2980 -0.5703 -0.5325
  623MOL0     H84086   8.600   2.679   7.415  1.4951  0.6898  0.8727
  623MOL0     H84087   8.997   2.974   7.586  0.9317 -0.2085  2.5057
  623MOL0     H84088   9.074   3.200   7.596  0.0672  0.6056  2.7651
  623MOL0     H84089   8.214   3.621   7.253  0.0153  1.5785 -0.3397
  623MOL0     H84090   8.127   3.389   7.298 -1.5729 -1.8228 -1.1187
  623MOL0     H84091   7.898   3.135   7.463  1.9311 -1.5398 -0.3970
  623MOL0     H84092   7.850   2.914   7.550 -0.7437 -0.9375  0.4060
  623MOL0     H84093   7.527   2.682   7.359 -0.2180  0.7073 -0.3651
  623MOL0     H84094   7.498   2.821   7.458 -0.3346 -1.1716  0.2729
  623MOL0     H84095   7.448   2.540   7.529 -1.3937  0.2191  1.7894
  623MOL0     H84096   7.442   2.669   7.636 -2.3525 -0.9154 -0.8478
  623MOL0     H84097   7.567   2.511   7.740 -1.6914  0.4612 -0.5827
  623MOL0     H84098   7.694   2.624   7.694  1.3101  0.5551 -0.8230
  623MOL0     H84099   7.711   2.493   7.484  0.8398  1.9596  1.4664
  623MOL0     H84100   7.779   2.412   7.625  0.2054  1.7223 -0.5398
  623MOL0     H84101   7.486   2.137   7.507  1.7619 -1.9139  0.1001
  623MOL0     H84102   7.644   2.803   7.201 -1.3366  0.6577  0.0279
  623MOL0     H84103   7.613   3.083   7.052 -0.1000  0.8840  2.2299
  623MOL0     H84104   7.775   3.044   6.970  0.0334 -1.7231 -0.2215
  623MOL0     H84105   7.648   2.925   6.998 -0.3372 -0.8998  1.1488
  624MOL0     O84106   0.742   2.791   0.698  0.0536 -0.4073  0.4301
  624MOL0     C84107   0.689   2.745   0.595 -0.1068  0.8092  0.0209
  624MOL0     O84108   0.745   2.747   0.469 -0.0151  0.0450  0.8488
  624MOL0     C84109   0.870   2.799   0.470 -0.4666 -0.4197 -0.0053
  624MOL0     C84110   0.893   2.934   0.456 -0.3833 -0.7284 -0.2490
  624MOL0     C84111   1.022   2.996   0.456  0.6443 -0.3447 -0.0766
  624MOL0     C84112   1.133   2.915   0.476  0.4444 -0.3346  0.5962
  624MOL0     O84113   1.253   2.977   0.485 -0.0976 -0.1830 -0.2265
  624MOL0     C84114   1.366   2.915   0.432  0.3866 -0.2102  0.1060
  624MOL0     C84115   1.475   3.021   0.444  0.2083  0.8265 -1.1869
  624MOL0     C84116   1.604   2.994   0.373  0.3355  0.5491  0.3051
  624MOL0     C84117   1.679   2.879   0.433 -0.5202  0.0682 -0.3537
  624MOL0     C84118   1.826   2.849   0.371 -0.0140  0.4687 -0.1039
  624MOL0     C84119   1.938   2.873   0.472  0.2061  0.5325 -0.0404
  624MOL0     C84120   2.081   2.847   0.415  0.1475 -0.4411 -0.5442
  624MOL0     C84121   2.200   2.891   0.515 -0.0568 -0.3437  0.6312
  624MOL0     N84122   2.325   2.812   0.504 -0.1570 -0.5407 -0.1618
  624MOL0     C84123   2.395   2.788   0.382  0.1294 -0.5933  0.3538
  624MOL0     C84124   2.493   2.698   0.420  0.4346 -0.0706 -0.4152
  624MOL0     C84125   2.602   2.642   0.338 -0.5946 -0.3425  0.5843
  624MOL0     C84126   2.624   2.494   0.317  0.4729  0.0365 -0.1162
  624MOL0     C84127   2.638   2.419   0.459 -0.7399  0.2210  0.5726
  624MOL0     C84128   2.722   2.280   0.470  0.2571  0.3408 -0.8906
  624MOL0     O84129   2.823   2.286   0.372 -0.5170  0.3510 -0.2058
  624MOL0     C84130   2.909   2.174   0.368 -0.1591 -0.0815  0.3387
  624MOL0     C84131   3.019   2.173   0.289 -0.5492 -0.0747 -0.4780
  624MOL0     C84132   3.120   2.080   0.275  0.1133 -1.6347 -0.0906
  624MOL0     C84133   3.117   1.967   0.349 -0.6282  0.2113  0.0119
  624MOL0     C84134   3.216   1.864   0.354 -0.1830 -0.6066  0.7753
  624MOL0     O84135   3.176   1.738   0.389  0.1513 -0.2309  0.1215
  624MOL0     C84136   3.274   1.645   0.415 -0.1340  0.1348  0.4934
  624MOL0     C84137   3.393   1.623   0.343  0.1402  0.2555  0.3148
  624MOL0     C84138   3.487   1.531   0.390 -0.7430 -0.1303 -0.6498
  624MOL0     C84139   3.466   1.461   0.508  0.7835 -0.6264  0.3261
  624MOL0     O84140   3.567   1.388   0.556  0.5946  0.0002 -0.6913
  624MOL0     C84141   3.642   1.444   0.665 -0.9943 -0.2091  0.1977
  624MOL0     C84142   3.782   1.376   0.676  0.3014 -0.3142 -0.2832
  624MOL0     C84143   3.774   1.240   0.739 -0.2122 -0.3818 -0.3166
  624MOL0     C84144   3.923   1.176   0.730 -0.2870 -0.6891 -0.3233
  624MOL0     C84145   3.912   1.035   0.769  0.2692 -0.5390  0.0261
  624MOL0     C84146   4.045   0.960   0.763 -0.1351  0.4437 -0.6759
  624MOL0     C84147   4.026   0.807   0.782 -0.1759 -0.3006 -0.0052
  624MOL0     C84148   4.146   0.737   0.731 -0.7974  0.5135 -0.5760
  624MOL0    Cl84149   4.116   0.572   0.694  0.3056  0.0664  0.2649
  624MOL0     C84150   3.348   1.480   0.574  0.1675  0.6237  0.9146
  624MOL0     C84151   3.256   1.566   0.531 -0.2701  0.3816  0.5194
  624MOL0     O84152   3.330   1.895   0.321 -0.4621 -0.2884 -0.1998
  624MOL0     C84153   2.996   1.955   0.432  0.2232 -0.0868 -0.5826
  624MOL0     C84154   2.899   2.052   0.444  0.3890  0.8884  0.2775
  624MOL0     N84155   2.477   2.666   0.554  0.0496 -0.5055  0.0336
  624MOL0     N84156   2.365   2.725   0.597  0.2521 -0.2416 -0.4886
  624MOL0     C84157   1.115   2.772   0.467  0.2054 -0.1659  0.0024
  624MOL0     C84158   0.983   2.718   0.469 -0.1310 -0.2160  0.4807
  624MOL0     C84159   0.551   2.687   0.607  0.0256 -0.7205 -0.1384
  624MOL0     C84160   0.482   2.699   0.733 -0.3124 -0.8432 -0.0265
  624MOL0     C84161   0.358   2.642   0.754  0.3984 -0.0443 -0.2943
  624MOL0     C84162   0.293   2.571   0.651  0.1451  0.0814 -1.1196
  624MOL0     O84163   0.178   2.500   0.687  0.4502 -0.3156 -0.3800
  624MOL0     C84164   0.102   2.431   0.589 -0.3890  0.2655  0.2639
  624MOL0     C84165  -0.019   2.364   0.660  0.1929  0.7160 -0.2394
  624MOL0     C84166  -0.113   2.303   0.567 -0.1112  0.4944 -0.8614
  624MOL0     C84167  -0.230   2.226   0.622  0.0734  0.7212 -0.7126
  624MOL0     C84168  -0.331   2.209   0.522  0.0359 -0.6458  0.3602
  624MOL0     C84169  -0.396   2.197   0.423  0.3328  0.8610 -0.9249
  624MOL0     C84170   0.349   2.572   0.528 -0.1890 -0.5524 -0.1054
  624MOL0     C84171   0.473   2.624   0.503 -0.4671  0.3628 -0.4749
  624MOL0     C84172   0.529   2.588   0.368 -0.9717 -0.9368  0.8265
  624MOL0     H84173   0.816   3.010   0.452 -0.3226 -0.6100  0.7424
  624MOL0     H84174   1.018   3.104   0.460 -2.9939 -0.3298 -0.8448
  624MOL0     H84175   1.387   2.818   0.479 -1.2166 -0.4114  0.4577
  624MOL0     H84176   1.349   2.899   0.325 -1.2560 -0.3441  0.3708
  624MOL0     H84177   1.493   3.042   0.550 -2.3132 -2.4928  0.0772
  624MOL0     H84178   1.430   3.109   0.396  0.3144  0.3747 -2.1318
  624MOL0     H84179   1.668   3.082   0.377  1.3971 -0.1968  0.2416
  624MOL0     H84180   1.586   2.969   0.268 -0.8456 -0.5251  0.7400
  624MOL0     H84181   1.700   2.893   0.539 -1.0752  0.9753 -0.3598
  624MOL0     H84182   1.630   2.781   0.427  3.7873 -2.3836  0.3056
  624MOL0     H84183   1.832   2.744   0.339 -0.0464  1.1540 -2.5568
  624MOL0     H84184   1.839   2.905   0.278 -1.9262 -0.2922 -0.8885
  624MOL0     H84185   1.932   2.979   0.498 -0.8276  0.7103 -0.9350
  624MOL0     H84186   1.926   2.810   0.561 -1.5532  0.2245 -0.4706
  624MOL0     H84187   2.098   2.905   0.324  0.1136  1.3455  0.5339
  624MOL0     H84188   2.091   2.739   0.405  0.4112 -0.3592 -1.1990
  624MOL0     H84189   2.216   2.999   0.513 -2.9869  0.1795  0.0476
  624MOL0     H84190   2.154   2.878   0.613 -2.2093  1.0740 -0.0988
  624MOL0     H84191   2.388   2.843   0.288  0.5007 -0.7742  0.2192
  624MOL0     H84192   2.575   2.687   0.242  0.0056  0.0775  0.6076
  624MOL0     H84193   2.691   2.691   0.380 -0.7140 -0.2595  0.7436
  624MOL0     H84194   2.540   2.456   0.259 -0.7172 -0.1063  1.6276
  624MOL0     H84195   2.720   2.485   0.266  1.7032 -2.9377  2.4116
  624MOL0     H84196   2.537   2.398   0.495 -0.2344 -3.3058  0.2377
  624MOL0     H84197   2.689   2.490   0.525  2.7554  0.1633 -1.7736
  624MOL0     H84198   2.659   2.193   0.450  2.3729 -1.9478  1.6918
  624MOL0     H84199   2.747   2.270   0.575 -1.0357 -0.4038 -0.6261
  624MOL0     H84200   3.047   2.263   0.235 -0.3549 -0.5401 -1.1808
  624MOL0     H84201   3.206   2.108   0.216 -0.6500 -3.5508 -2.2841
  624MOL0     H84202   3.408   1.673   0.248 -1.2929 -0.5685 -0.3819
  624MOL0     H84203   3.574   1.518   0.327  0.4610  1.5502  0.5676
  624MOL0     H84204   3.659   1.550   0.646  1.9393 -0.8086 -1.0550
  624MOL0     H84205   3.589   1.430   0.760 -1.7849 -0.1786 -0.2314
  624MOL0     H84206   3.824   1.377   0.575 -1.1845  2.5284 -0.9925
  624MOL0     H84207   3.840   1.447   0.736 -0.2106  0.9958 -1.2763
  624MOL0     H84208   3.743   1.262   0.841  0.8176  1.5553 -0.3638
  624MOL0     H84209   3.706   1.172   0.688  1.7783 -1.4747 -1.6342
  624MOL0     H84210   3.999   1.229   0.788 -1.3003 -0.0335  0.4242
  624MOL0     H84211   3.961   1.187   0.628  1.5378  1.4117  0.4906
  624MOL0     H84212   3.838   0.991   0.702 -0.6959  1.9326 -0.6605
  624MOL0     H84213   3.869   1.029   0.869  1.6683 -1.3891  0.6045
  624MOL0     H84214   4.089   0.980   0.665 -2.3842  1.7715 -1.4653
  624MOL0     H84215   4.116   1.003   0.836 -0.1587  1.1166 -1.0366
  624MOL0     H84216   3.932   0.779   0.734 -1.1232 -0.4776  1.8434
  624MOL0     H84217   4.010   0.786   0.888 -0.5282 -0.1646 -0.0313
  624MOL0     H84218   4.183   0.778   0.636  0.5876  1.6159  0.3948
  624MOL0     H84219   4.230   0.744   0.800  0.1110  3.6808 -1.8422
  624MOL0     H84220   3.319   1.428   0.665 -0.2545  0.6479  0.7988
  624MOL0     H84221   3.161   1.579   0.581 -1.7260 -0.8948 -1.7768
  624MOL0     H84222   2.987   1.870   0.499 -0.9156  0.5270  0.0771
  624MOL0     H84223   2.815   2.038   0.511  1.6890 -1.6975  1.4953
  624MOL0     H84224   1.196   2.702   0.479 -1.0837 -1.7192 -0.0930
  624MOL0     H84225   0.977   2.610   0.466 -0.2223 -0.1829 -0.6108
  624MOL0     H84226   0.528   2.747   0.819 -2.7640 -0.6909  1.2947
  624MOL0     H84227   0.315   2.643   0.853 -0.8379  4.8383 -0.6655
  624MOL0     H84228   0.164   2.350   0.550  0.1616  0.5625  0.5190
  624MOL0     H84229   0.094   2.500   0.505  3.6847  0.1517 -0.3898
  624MOL0     H84230  -0.072   2.444   0.714  0.0900  1.5728 -1.5577
  624MOL0     H84231   0.007   2.291   0.737 -4.1531  1.0471  1.8925
  624MOL0     H84232  -0.058   2.234   0.502 -2.1799  0.2547 -2.5055
  624MOL0     H84233  -0.146   2.389   0.507  0.3731  0.7099 -0.8222
  624MOL0     H84234  -0.195   2.126   0.651 -0.0314 -0.0579 -3.0875
  624MOL0     H84235  -0.280   2.275   0.706  0.2935  0.7594 -0.6034
  624MOL0     H84236  -0.444   2.181   0.328  0.1454  2.0939 -1.0458
  624MOL0     H84237   0.304   2.541   0.434  2.8738 -1.3453 -1.4312
  624MOL0     H84238   0.614   2.519   0.368 -0.3551 -0.1908  1.2650
  624MOL0     H84239   0.452   2.540   0.307 -1.8748 -2.2182  2.8610
  624MOL0     H84240   0.559   2.677   0.311 -0.0332 -0.1275  2.5019
  625MOL0     O84241   7.448   2.990   8.922  0.1943 -0.0990 -0.6189
  625MOL0     C84242   7.454   2.868   8.900 -0.4189  0.1431 -0.2339
  625MOL0     O84243   7.565   2.797   8.886  0.0655  0.0358 -0.3297
  625MOL0     C84244   7.683   2.867   8.901  0.5821  0.2864 -0.7288
  625MOL0     C84245   7.757   2.865   9.020  0.9705 -0.6821 -0.2527
  625MOL0     C84246   7.892   2.904   9.021 -0.4050  0.5870 -0.2707
  625MOL0     C84247   7.951   2.946   8.903 -1.1300 -0.9386 -0.1903
  625MOL0     O84248   8.085   2.994   8.891  0.6627  0.8033  0.5011
  625MOL0     C84249   8.169   3.003   9.005 -0.9492 -0.0788  0.3368
  625MOL0     C84250   8.313   3.047   8.957  0.9002  0.3908 -0.2908
  625MOL0     C84251   8.326   3.183   8.894  0.7131 -0.2175  0.6775
  625MOL0     C84252   8.475   3.232   8.900 -0.6917 -0.4126  0.3775
  625MOL0     C84253   8.521   3.274   9.036  0.2651 -0.0781 -0.1458
  625MOL0     C84254   8.654   3.203   9.064  0.1377  0.4702 -0.2331
  625MOL0     C84255   8.697   3.215   9.205 -0.5451  0.4442  0.2488
  625MOL0     C84256   8.833   3.151   9.243  0.2593  0.5415  0.0168
  625MOL0     N84257   8.861   3.118   9.385 -0.1407  0.6219 -0.8592
  625MOL0     C84258   8.963   3.166   9.464  0.3935  0.0762 -0.4594
  625MOL0     C84259   8.952   3.093   9.581 -0.3482 -0.2082  0.3166
  625MOL0     C84260   9.032   3.106   9.709 -0.6663  0.2691  0.3955
  625MOL0     C84261   9.158   3.014   9.699 -0.6669  0.6664 -0.4274
  625MOL0     C84262   9.251   3.045   9.589  0.6529 -0.2023 -0.1074
  625MOL0     C84263   9.388   2.982   9.598 -0.0816  0.2301 -0.6288
  625MOL0     O84264   9.465   3.036   9.703 -0.6884  0.6546  0.4001
  625MOL0     C84265   9.589   2.984   9.717  0.1099 -0.7180 -0.2437
  625MOL0     C84266   9.656   3.035   9.830 -0.0050  0.5114  0.2965
  625MOL0     C84267   9.786   2.991   9.868  0.5450  0.1033  0.0351
  625MOL0     C84268   9.847   2.892   9.791  0.1088  0.6954  0.1574
  625MOL0     C84269   9.987   2.865   9.808 -1.0483 -0.2487  0.2472
  625MOL0     O84270  10.048   2.906   9.924 -0.0732 -0.1608  0.0358
  625MOL0     C84271  10.178   2.864   9.951 -0.7742  1.0016  0.4412
  625MOL0     C84272  10.259   2.956  10.012 -1.1223  0.3838 -0.4826
  625MOL0     C84273  10.396   2.927  10.046  0.0037  0.2730 -0.0937
  625MOL0     C84274  10.445   2.802  10.023 -0.6451  0.7567 -0.7246
  625MOL0     O84275  10.573   2.769  10.068 -0.0399  0.3292  0.0594
  625MOL0     C84276  10.658   2.871  10.131 -0.0916 -0.3345 -0.1438
  625MOL0     C84277  10.798   2.813  10.164 -0.1099  0.1201  0.4681
  625MOL0     C84278  10.885   2.820  10.043  1.1466  0.1368  0.4407
  625MOL0     C84279  11.011   2.748  10.070 -0.5395 -0.4089 -0.2426
  625MOL0     C84280  11.090   2.750   9.941 -0.0790  0.1636 -0.6805
  625MOL0     C84281  11.214   2.663   9.960  0.4731 -0.7794 -0.2467
  625MOL0     C84282  11.320   2.730  10.050 -0.0598 -1.0314 -0.1188
  625MOL0     C84283  11.437   2.639  10.086  0.1292  0.8654  0.1281
  625MOL0    Cl84284  11.525   2.702  10.225 -0.0339  0.5384 -0.4381
  625MOL0     C84285  10.363   2.704   9.968  0.0654  0.1544  0.4464
  625MOL0     C84286  10.235   2.739   9.923 -0.1833  0.4577  0.3446
  625MOL0     O84287  10.044   2.805   9.717  0.0992 -0.0276  0.9071
  625MOL0     C84288   9.778   2.843   9.680 -0.0611 -0.2614  0.0477
  625MOL0     C84289   9.657   2.887   9.638  0.2920 -0.5798  0.4611
  625MOL0     N84290   8.857   2.999   9.560 -0.1890  0.2435 -0.5871
  625MOL0     N84291   8.810   3.009   9.445  1.0250  0.2600 -0.2153
  625MOL0     C84292   7.876   2.950   8.781  0.3379 -0.3328 -0.5698
  625MOL0     C84293   7.743   2.910   8.785 -0.1586 -1.3198  0.2217
  625MOL0     C84294   7.328   2.795   8.894  0.4395 -0.3666  0.3152
  625MOL0     C84295   7.325   2.666   8.837 -0.3908 -0.2643  0.4115
  625MOL0     C84296   7.207   2.593   8.832  0.1774  0.0993 -0.1263
  625MOL0     C84297   7.084   2.642   8.882 -0.6085 -0.4455  0.3721
  625MOL0     O84298   6.975   2.571   8.854 -0.3823 -0.1615 -0.0813
  625MOL0     C84299   6.857   2.589   8.937 -0.0305  0.0209  0.5851
  625MOL0     C84300   6.770   2.471   8.949  0.1552 -0.5341 -0.5038
  625MOL0     C84301   6.689   2.434   8.824 -0.7475  0.6699 -0.5971
  625MOL0     C84302   6.658   2.277   8.832  0.3435 -0.1778 -0.0189
  625MOL0     C84303   6.550   2.246   8.936  0.4318  0.4989  0.4851
  625MOL0     C84304   6.460   2.227   9.015  0.3518 -0.1536  0.1148
  625MOL0     C84305   7.086   2.767   8.946  0.2789 -1.8591  0.1933
  625MOL0     C84306   7.203   2.842   8.952 -0.5871 -0.4359  1.3281
  625MOL0     C84307   7.186   2.978   9.023 -0.3363 -0.1718  0.2462
  625MOL0     H84308   7.712   2.826   9.111  1.2039 -0.1448  0.0992
  625MOL0     H84309   7.947   2.909   9.114 -2.0249  0.7726  0.6994
  625MOL0     H84310   8.140   3.086   9.071 -0.9019  1.2683 -1.2630
  625MOL0     H84311   8.170   2.903   9.048 -1.5710 -1.1802 -2.0446
  625MOL0     H84312   8.334   2.966   8.886 -0.4537 -2.3303  2.2127
  625MOL0     H84313   8.385   3.043   9.040  1.0062  0.9943 -0.3521
  625MOL0     H84314   8.253   3.256   8.933 -0.1091 -1.4436  1.4998
  625MOL0     H84315   8.301   3.172   8.788  1.4145 -0.9504  0.5825
  625MOL0     H84316   8.534   3.145   8.867  0.5073  0.9804 -1.3450
  625MOL0     H84317   8.500   3.308   8.826  3.3739 -0.8078  1.1539
  625MOL0     H84318   8.551   3.379   9.040  0.7553 -0.1926 -0.7917
  625MOL0     H84319   8.443   3.253   9.111 -1.6024  0.5650 -1.8165
  625MOL0     H84320   8.641   3.095   9.058  1.6935  0.2986 -1.4334
  625MOL0     H84321   8.728   3.230   8.988 -0.2345 -1.0277 -1.1585
  625MOL0     H84322   8.616   3.158   9.252 -0.3384  1.7884  2.3735
  625MOL0     H84323   8.704   3.322   9.227  1.0768  0.3333  0.3971
  625MOL0     H84324   8.849   3.055   9.193  1.3929 -0.2723  1.8449
  625MOL0     H84325   8.910   3.220   9.206  1.4589 -2.4993 -3.8334
  625MOL0     H84326   9.034   3.244   9.437  0.2314  0.4181  0.0871
  625MOL0     H84327   9.083   3.202   9.723  2.6023 -1.2941  0.2578
  625MOL0     H84328   8.980   3.085   9.802  0.7146  1.5494  1.5105
  625MOL0     H84329   9.211   3.023   9.794 -0.1798 -0.3801 -0.5879
  625MOL0     H84330   9.133   2.908   9.687  1.1776 -0.1772  2.2790
  625MOL0     H84331   9.263   3.154   9.588  2.2621 -0.3201 -2.1660
  625MOL0     H84332   9.213   3.004   9.495  3.3827  1.2263 -1.9764
  625MOL0     H84333   9.442   3.026   9.514  2.0774  3.3678  2.1271
  625MOL0     H84334   9.386   2.873   9.603  0.5129  0.2573  0.9367
  625MOL0     H84335   9.606   3.109   9.892  0.6269  0.7270  0.5604
  625MOL0     H84336   9.831   3.032   9.957  0.8282 -0.7768  0.3130
  625MOL0     H84337  10.224   3.058  10.028 -0.2787  1.2928 -3.7536
  625MOL0     H84338  10.447   3.011  10.091 -0.5203 -0.3177  1.6866
  625MOL0     H84339  10.659   2.957  10.064  0.5797  1.3519  1.9297
  625MOL0     H84340  10.609   2.902  10.224 -2.1751 -0.6024 -1.0898
  625MOL0     H84341  10.839   2.879  10.242  0.9107  1.6095 -1.2499
  625MOL0     H84342  10.793   2.717  10.217  1.8864 -0.0380  0.4391
  625MOL0     H84343  10.835   2.770   9.960  0.6040  0.1279  0.7710
  625MOL0     H84344  10.912   2.925  10.027 -1.2148  0.5762 -1.1049
  625MOL0     H84345  11.011   2.649  10.118  1.3141 -0.7472 -0.8820
  625MOL0     H84346  11.050   2.808  10.153 -1.1043  0.5517 -0.6565
  625MOL0     H84347  11.125   2.850   9.917  3.0573 -0.1536  1.9057
  625MOL0     H84348  11.042   2.701   9.856 -0.4852  0.7945 -0.8215
  625MOL0     H84349  11.176   2.570  10.003 -0.3015 -0.8428 -1.0406
  625MOL0     H84350  11.257   2.638   9.862 -1.8627  1.8310 -2.0819
  625MOL0     H84351  11.267   2.763  10.139 -1.6458  0.1300 -1.4541
  625MOL0     H84352  11.361   2.820  10.004  0.4885  0.5082  3.1184
  625MOL0     H84353  11.391   2.545  10.118  1.6602  1.1049  3.5049
  625MOL0     H84354  11.500   2.620   9.999 -1.4618 -0.7145 -0.7490
  625MOL0     H84355  10.408   2.606   9.960  2.2887  0.7855  3.4073
  625MOL0     H84356  10.182   2.654   9.880  0.8302  0.3156 -0.6676
  625MOL0     H84357   9.830   2.769   9.620 -0.0972 -0.7140  0.5710
  625MOL0     H84358   9.617   2.843   9.547  0.6428 -0.8095  0.4144
  625MOL0     H84359   7.928   2.980   8.690 -3.1110  0.5929 -2.4198
  625MOL0     H84360   7.696   2.911   8.687  3.8376  0.6388 -1.8811
  625MOL0     H84361   7.417   2.623   8.799 -0.3384 -2.0517  2.4131
  625MOL0     H84362   7.220   2.491   8.798  0.2278 -0.7789  2.3362
  625MOL0     H84363   6.805   2.675   8.894 -1.1986 -1.2637 -0.6859
  625MOL0     H84364   6.885   2.615   9.040 -0.5604  0.1233  0.7068
  625MOL0     H84365   6.700   2.488   9.031 -0.3745 -1.6027 -0.7279
  625MOL0     H84366   6.832   2.384   8.975 -0.0906 -0.5389  0.0823
  625MOL0     H84367   6.743   2.459   8.732 -1.1187  2.4284 -0.3793
  625MOL0     H84368   6.599   2.496   8.816 -0.7661  0.6206 -0.7775
  625MOL0     H84369   6.623   2.248   8.732  1.2162  0.7950 -0.6144
  625MOL0     H84370   6.750   2.222   8.854  1.3062  1.8644  1.4264
  625MOL0     H84371   6.377   2.213   9.081 -1.6265 -1.0354 -2.3807
  625MOL0     H84372   6.996   2.810   8.989 -1.0116 -2.5712 -1.6833
  625MOL0     H84373   7.219   3.064   8.963  1.1199 -1.4388 -0.8284
  625MOL0     H84374   7.080   3.002   9.041 -0.3603 -1.2514  1.7204
  625MOL0     H84375   7.235   2.975   9.120 -0.7251  0.1548  0.4571
  626MOL0     O84376   1.168   8.118   1.140 -0.4896  0.4259 -0.0288
  626MOL0     C84377   1.175   8.219   1.073  0.1228  1.5265 -0.0031
  626MOL0     O84378   1.098   8.326   1.089 -0.1147 -0.5754 -0.6757
  626MOL0     C84379   1.021   8.354   1.199  0.0806  0.0115  0.0941
  626MOL0     C84380   0.919   8.452   1.187  0.8547 -0.3196 -0.0405
  626MOL0     C84381   0.837   8.481   1.292 -0.7430 -0.3300  0.3554
  626MOL0     C84382   0.862   8.431   1.419  0.0694  0.4780  0.1981
  626MOL0     O84383   0.793   8.466   1.533  0.1795  0.3776  0.0395
  626MOL0     C84384   0.655   8.453   1.527  0.7957 -0.2035 -0.0636
  626MOL0     C84385   0.614   8.379   1.655  0.7904 -0.8407  0.1991
  626MOL0     C84386   0.468   8.382   1.695 -0.2278 -0.0291  0.0224
  626MOL0     C84387   0.452   8.341   1.838  0.0119  0.9371  0.0367
  626MOL0     C84388   0.305   8.318   1.875 -0.6602 -0.2622  0.5053
  626MOL0     C84389   0.295   8.273   2.027 -1.0620 -0.1944  1.0224
  626MOL0     C84390   0.152   8.272   2.075  0.2826  0.3993 -0.1087
  626MOL0     C84391   0.136   8.307   2.220  0.3697 -0.2834  0.8290
  626MOL0     N84392  -0.007   8.346   2.252 -0.8473 -0.4814 -0.0552
  626MOL0     C84393  -0.118   8.266   2.259  0.0304  0.0768 -0.0806
  626MOL0     C84394  -0.223   8.354   2.260  0.4031 -0.8248 -1.2191
  626MOL0     C84395  -0.366   8.315   2.261 -1.0435 -0.7607  0.7468
  626MOL0     C84396  -0.448   8.437   2.271  0.6728 -0.7719  0.2610
  626MOL0     C84397  -0.600   8.397   2.270 -0.4589  0.4201  0.6449
  626MOL0     C84398  -0.680   8.490   2.360  1.5752  0.0024  0.2091
  626MOL0     O84399  -0.706   8.611   2.288  0.9647 -0.2079 -0.2024
  626MOL0     C84400  -0.682   8.727   2.365 -0.6032  0.8902  0.6193
  626MOL0     C84401  -0.641   8.836   2.281 -0.6214 -0.8879  0.6425
  626MOL0     C84402  -0.604   8.956   2.351  0.5650 -0.8981  0.2058
  626MOL0     C84403  -0.601   8.969   2.490  0.3100  0.0504 -0.6478
  626MOL0     C84404  -0.557   9.089   2.558  0.1545 -0.3013  0.5727
  626MOL0     O84405  -0.510   9.190   2.477  0.4442  0.7779  0.8646
  626MOL0     C84406  -0.443   9.285   2.541  0.2890  0.0222 -0.4879
  626MOL0     C84407  -0.321   9.266   2.613  0.5579 -0.5363 -1.0846
  626MOL0     C84408  -0.258   9.378   2.672 -0.3400 -0.1147  0.9475
  626MOL0     C84409  -0.300   9.504   2.633  0.0118 -0.7276  0.5102
  626MOL0     O84410  -0.233   9.621   2.646 -0.2971  0.0839  0.0794
  626MOL0     C84411  -0.131   9.633   2.743 -0.0708 -0.3552  0.4019
  626MOL0     C84412  -0.124   9.780   2.764 -0.2968  0.8667 -0.2992
  626MOL0     C84413  -0.007   9.827   2.858  0.0461  0.1199  0.4759
  626MOL0     C84414  -0.021   9.777   2.998 -0.4873  0.1507  0.4546
  626MOL0     C84415   0.110   9.799   3.071  0.7271 -0.0581  0.1275
  626MOL0     C84416   0.129   9.716   3.202 -1.1196 -1.0353  0.7982
  626MOL0     C84417   0.030   9.765   3.303 -0.4113 -0.8208  0.1802
  626MOL0     C84418  -0.017   9.648   3.388  0.0864  0.6750 -0.2341
  626MOL0    Cl84419   0.126   9.572   3.482  0.0780 -0.0660 -0.0400
  626MOL0     C84420  -0.419   9.520   2.557 -0.0751  0.7021 -0.2604
  626MOL0     C84421  -0.492   9.411   2.515  0.1638  0.6198 -0.2789
  626MOL0     O84422  -0.565   9.094   2.679 -0.1650 -0.4441 -0.1889
  626MOL0     C84423  -0.649   8.861   2.567 -0.7356  0.5161 -0.3733
  626MOL0     C84424  -0.689   8.743   2.503  0.6817 -0.1680 -0.0676
  626MOL0     N84425  -0.173   8.487   2.272  0.1642  0.1937 -0.6058
  626MOL0     N84426  -0.043   8.480   2.267  0.3693 -0.1876  0.4439
  626MOL0     C84427   0.965   8.335   1.435 -0.4543 -0.1299  0.2658
  626MOL0     C84428   1.044   8.298   1.323  0.0731 -0.5632  0.3776
  626MOL0     C84429   1.262   8.215   0.950 -0.7346  0.2040  0.3450
  626MOL0     C84430   1.392   8.158   0.950  0.4989 -0.1809 -0.0062
  626MOL0     C84431   1.482   8.173   0.848  0.1222  0.4714 -0.0613
  626MOL0     C84432   1.448   8.244   0.732  0.0241 -0.3842 -0.4163
  626MOL0     O84433   1.536   8.283   0.633  0.1381 -0.7824 -0.5203
  626MOL0     C84434   1.620   8.192   0.572 -0.1576  0.0755 -0.0093
  626MOL0     C84435   1.544   8.109   0.466 -0.9894  0.2303  0.2896
  626MOL0     C84436   1.524   8.186   0.339  0.9768 -0.0369 -0.6345
  626MOL0     C84437   1.442   8.115   0.233  0.1311 -0.5939  0.0740
  626MOL0     C84438   1.522   8.015   0.171  0.6994 -0.1117  0.0077
  626MOL0     C84439   1.606   7.938   0.128  0.6179  0.6289  0.0742
  626MOL0     C84440   1.321   8.299   0.725  0.0615  0.8804  0.5603
  626MOL0     C84441   1.227   8.287   0.833  0.5582 -0.5057  0.7967
  626MOL0     C84442   1.091   8.348   0.799 -0.1736  0.4196 -0.0386
  626MOL0     H84443   0.895   8.497   1.092  0.1660 -0.1802  0.1904
  626MOL0     H84444   0.751   8.545   1.278 -0.5810 -0.3896 -1.1260
  626MOL0     H84445   0.598   8.544   1.510  0.4864 -0.1732  1.0553
  626MOL0     H84446   0.626   8.389   1.444  0.0167  1.3546 -1.0271
  626MOL0     H84447   0.665   8.420   1.742  0.4722 -1.2320  0.5761
  626MOL0     H84448   0.649   8.276   1.647 -0.1147 -1.1159 -0.4782
  626MOL0     H84449   0.413   8.309   1.635  1.2759 -3.6946  2.7122
  626MOL0     H84450   0.421   8.481   1.686 -1.1902 -0.3136  1.5135
  626MOL0     H84451   0.508   8.248   1.853 -2.9486 -1.5875 -2.9783
  626MOL0     H84452   0.490   8.418   1.905 -0.8070  0.6339  0.8731
  626MOL0     H84453   0.256   8.412   1.847  0.0167  0.2290  0.9337
  626MOL0     H84454   0.258   8.240   1.814  0.7197  0.0110 -0.9903
  626MOL0     H84455   0.347   8.176   2.031  0.4355  0.5877  1.3615
  626MOL0     H84456   0.356   8.350   2.074  0.4610 -0.9472  0.3746
  626MOL0     H84457   0.119   8.169   2.064  1.9059 -0.1078 -0.4037
  626MOL0     H84458   0.089   8.336   2.013  0.8180  0.1033 -0.9655
  626MOL0     H84459   0.165   8.223   2.284 -2.9439 -1.5500  0.8384
  626MOL0     H84460   0.196   8.397   2.237  2.2618 -1.7300  2.2476
  626MOL0     H84461  -0.126   8.159   2.277 -3.1486  0.3549  0.6923
  626MOL0     H84462  -0.382   8.265   2.165  0.1566  2.1140 -1.1303
  626MOL0     H84463  -0.387   8.254   2.348 -1.3745 -1.9440 -0.1463
  626MOL0     H84464  -0.422   8.491   2.362  0.2222  1.9673 -1.1334
  626MOL0     H84465  -0.422   8.504   2.188 -0.8936 -2.9236 -2.1242
  626MOL0     H84466  -0.609   8.292   2.299  0.5335  0.1158 -0.0689
  626MOL0     H84467  -0.647   8.394   2.171  0.3882  0.5360  0.2255
  626MOL0     H84468  -0.621   8.504   2.451 -0.6613 -0.9657  1.9126
  626MOL0     H84469  -0.779   8.446   2.377  1.4676  0.2242  0.1576
  626MOL0     H84470  -0.621   8.832   2.174  0.4612  1.7063  0.6714
  626MOL0     H84471  -0.575   9.034   2.282 -0.7639 -2.8273 -2.7627
  626MOL0     H84472  -0.286   9.165   2.630  1.1197 -0.3900 -1.3768
  626MOL0     H84473  -0.166   9.351   2.722 -1.5216 -1.0535  2.7098
  626MOL0     H84474  -0.158   9.586   2.838  2.1076 -0.8879  0.8068
  626MOL0     H84475  -0.034   9.598   2.707  0.7181  0.5284  1.5786
  626MOL0     H84476  -0.117   9.830   2.667  1.1411  0.7960 -0.2572
  626MOL0     H84477  -0.215   9.826   2.803 -1.1837 -0.7911 -0.3400
  626MOL0     H84478   0.081   9.788   2.806  1.3126  3.2209  0.0861
  626MOL0     H84479   0.005   9.935   2.857  0.1092  0.1213  1.1917
  626MOL0     H84480  -0.035   9.668   2.995 -1.0818  0.2420 -0.6368
  626MOL0     H84481  -0.108   9.825   3.043 -0.2082  0.4796  0.6427
  626MOL0     H84482   0.108   9.906   3.096 -1.3546  0.4734 -1.9540
  626MOL0     H84483   0.191   9.765   3.005  1.2047  0.1600  0.5974
  626MOL0     H84484   0.118   9.613   3.166 -2.0909 -0.6691 -0.0056
  626MOL0     H84485   0.233   9.726   3.234 -1.1205 -0.2993  0.5976
  626MOL0     H84486  -0.057   9.803   3.248  1.8730  0.9527 -2.5063
  626MOL0     H84487   0.070   9.844   3.367  1.6785  0.4336 -2.4524
  626MOL0     H84488  -0.103   9.677   3.450  0.0123  2.0777 -0.9533
  626MOL0     H84489  -0.060   9.566   3.328  3.7072 -0.6138 -1.3031
  626MOL0     H84490  -0.451   9.621   2.534 -0.5988  1.3457  2.8667
  626MOL0     H84491  -0.586   9.423   2.462  0.6506 -0.7279 -1.5230
  626MOL0     H84492  -0.659   8.866   2.675  1.4853 -1.9816  0.0395
  626MOL0     H84493  -0.720   8.658   2.563  1.0253 -0.2718 -0.0305
  626MOL0     H84494   0.994   8.321   1.538 -1.3710  2.1308  0.8949
  626MOL0     H84495   1.136   8.242   1.331  1.0561  0.7459 -1.1317
  626MOL0     H84496   1.431   8.114   1.042 -2.8900 -0.9168  1.2116
  626MOL0     H84497   1.581   8.139   0.873  0.0530  0.4294  0.1560
  626MOL0     H84498   1.654   8.121   0.649 -2.8549  0.1848  1.3829
  626MOL0     H84499   1.709   8.228   0.520 -1.0783 -0.9756 -2.4266
  626MOL0     H84500   1.451   8.069   0.508 -1.8598  0.9326 -0.9238
  626MOL0     H84501   1.607   8.021   0.448  2.1855  2.2337  0.8243
  626MOL0     H84502   1.618   8.222   0.294  0.5079  1.8131 -0.2172
  626MOL0     H84503   1.470   8.273   0.375  2.1472  0.3368  0.2992
  626MOL0     H84504   1.352   8.073   0.278 -0.0851  0.6924  0.9279
  626MOL0     H84505   1.416   8.184   0.152 -0.6550  0.5872  1.2897
  626MOL0     H84506   1.680   7.864   0.106 -0.1050 -0.1312  0.1780
  626MOL0     H84507   1.285   8.352   0.637 -1.7289 -2.6637 -1.0620
  626MOL0     H84508   1.012   8.312   0.865 -1.1493  2.0370 -0.2767
  626MOL0     H84509   1.095   8.457   0.799 -0.4003  0.5051 -2.6600
  626MOL0     H84510   1.068   8.324   0.695 -1.3442  1.6489 -0.0890
  627MOL0     O84511   6.957  10.991   1.371  0.2253 -0.2195 -0.0277
  627MOL0     C84512   6.970  10.972   1.252  0.5208 -0.1946  0.2097
  627MOL0     O84513   6.909  10.872   1.181 -0.7484  0.5023 -0.5260
  627MOL0     C84514   6.799  10.818   1.239 -0.5047  0.1833 -0.3569
  627MOL0     C84515   6.801  10.720   1.341  0.1357  0.4281 -0.7330
  627MOL0     C84516   6.673  10.670   1.386 -0.5236  0.3896  0.4389
  627MOL0     C84517   6.556  10.733   1.354 -0.3220 -0.2031  0.6015
  627MOL0     O84518   6.446  10.704   1.437  0.6984  0.0939 -0.0306
  627MOL0     C84519   6.339  10.639   1.365  0.3838  0.2896 -0.3905
  627MOL0     C84520   6.217  10.660   1.451  0.9381 -0.3151 -0.2122
  627MOL0     C84521   6.111  10.556   1.427  0.0224  0.5305  0.2516
  627MOL0     C84522   6.037  10.566   1.297  0.2042  0.4667  0.6700
  627MOL0     C84523   5.928  10.452   1.285 -0.4300 -0.7214  0.0960
  627MOL0     C84524   5.855  10.475   1.147  0.6361 -0.0008  1.1427
  627MOL0     C84525   5.762  10.356   1.125  0.0581 -0.2913 -0.0211
  627MOL0     C84526   5.617  10.360   1.172 -0.1565  0.8265  0.1839
  627MOL0     N84527   5.592  10.278   1.289  0.4717  0.1154 -0.0819
  627MOL0     C84528   5.589  10.144   1.294  0.4912  0.5046  0.0794
  627MOL0     C84529   5.557  10.104   1.417 -0.1471  0.2920  0.3687
  627MOL0     C84530   5.540   9.957   1.455 -0.6342  0.4264 -0.1518
  627MOL0     C84531   5.663   9.864   1.426  0.7332 -0.5328 -0.5283
  627MOL0     C84532   5.784   9.904   1.509  0.6469 -0.2454 -0.3593
  627MOL0     C84533   5.919   9.824   1.486  0.5028 -0.7278 -0.2746
  627MOL0     O84534   5.972   9.847   1.355 -0.0633 -0.1919 -0.1133
  627MOL0     C84535   6.078   9.929   1.361  0.0444  0.0051 -0.4718
  627MOL0     C84536   6.196   9.867   1.405 -0.5357  0.3330 -0.0823
  627MOL0     C84537   6.309   9.945   1.415  0.5029 -0.2837 -0.1183
  627MOL0     C84538   6.308  10.080   1.371  0.0637  0.4305 -0.2577
  627MOL0     C84539   6.436  10.157   1.365 -0.0600  0.5065  1.1425
  627MOL0     O84540   6.548  10.082   1.349  0.8937  0.3357 -0.0006
  627MOL0     C84541   6.672  10.136   1.346 -0.6392 -0.7038  0.4871
  627MOL0     C84542   6.778  10.043   1.348 -0.5110  0.1345 -0.6928
  627MOL0     C84543   6.912  10.088   1.347  0.6610  0.0322  1.1193
  627MOL0     C84544   6.940  10.226   1.336 -0.3240 -0.0701  0.4674
  627MOL0     O84545   7.069  10.280   1.331  0.2953  0.0039 -0.5887
  627MOL0     C84546   7.178  10.183   1.338 -0.1714 -0.7954  0.1927
  627MOL0     C84547   7.299  10.260   1.298  0.1695  0.4788 -0.8467
  627MOL0     C84548   7.279  10.359   1.180 -0.1765  0.7286 -0.6077
  627MOL0     C84549   7.410  10.428   1.147 -0.3510 -0.0802  0.6873
  627MOL0     C84550   7.408  10.541   1.038  1.5663  1.0405  1.2177
  627MOL0     C84551   7.376  10.681   1.093 -0.0765  0.5841 -0.2190
  627MOL0     C84552   7.374  10.801   0.990 -0.6128 -0.5071 -0.1614
  627MOL0     C84553   7.499  10.890   1.007  0.2423  0.0469 -0.4936
  627MOL0    Cl84554   7.641  10.780   0.998 -0.1082 -0.2705  0.0060
  627MOL0     C84555   6.838  10.317   1.317  0.5606 -0.2776 -0.3046
  627MOL0     C84556   6.709  10.273   1.332  0.2491  0.3534 -0.0725
  627MOL0     O84557   6.425  10.279   1.350  0.0589  0.3063 -0.0423
  627MOL0     C84558   6.189  10.144   1.332 -0.8281  0.6583 -0.3651
  627MOL0     C84559   6.078  10.067   1.319  1.0672  0.1132 -0.4975
  627MOL0     N84560   5.535  10.219   1.494  0.3744 -0.8296  0.7690
  627MOL0     N84561   5.550  10.322   1.412 -0.1775 -0.7766  0.6098
  627MOL0     C84562   6.558  10.837   1.269  0.1394 -0.1162  0.8539
  627MOL0     C84563   6.676  10.870   1.202  0.5916 -0.8044  0.0519
  627MOL0     C84564   7.077  11.033   1.172 -0.6516 -0.2687 -0.0431
  627MOL0     C84565   7.194  11.072   1.239 -0.3581  0.3081 -0.2488
  627MOL0     C84566   7.292  11.139   1.165 -0.3085 -0.1682 -0.2381
  627MOL0     C84567   7.289  11.155   1.028  0.0494 -0.5499  0.0548
  627MOL0     O84568   7.392  11.224   0.971  0.5677  0.1327  0.1669
  627MOL0     C84569   7.366  11.365   0.944 -0.0639 -0.3519  0.0362
  627MOL0     C84570   7.495  11.438   0.917 -0.4135 -0.5679  0.3300
  627MOL0     C84571   7.473  11.583   0.862 -0.0835  0.3966 -0.0688
  627MOL0     C84572   7.596  11.652   0.799  0.1183  0.0269  0.4352
  627MOL0     C84573   7.566  11.786   0.752  0.0301 -0.0497 -0.8438
  627MOL0     C84574   7.555  11.900   0.715 -0.8294  0.2795  0.4196
  627MOL0     C84575   7.172  11.117   0.964 -0.0614 -0.6094  0.4295
  627MOL0     C84576   7.064  11.059   1.028 -0.1351 -0.2781  0.4959
  627MOL0     C84577   6.928  11.040   0.957 -0.0617  0.1183 -0.4497
  627MOL0     H84578   6.893  10.677   1.379  1.4489  2.5639 -1.3214
  627MOL0     H84579   6.665  10.593   1.462  2.5143  1.3615  1.9082
  627MOL0     H84580   6.316  10.689   1.270 -0.4563 -0.2377 -0.4711
  627MOL0     H84581   6.351  10.531   1.355  2.5569  0.3729  0.7831
  627MOL0     H84582   6.182  10.760   1.423 -3.3993 -2.0072 -1.8004
  627MOL0     H84583   6.256  10.649   1.552  2.9898 -0.6650 -0.9798
  627MOL0     H84584   6.029  10.565   1.500 -3.5238 -0.8229 -3.2158
  627MOL0     H84585   6.151  10.455   1.425 -0.7658  0.2140 -0.7157
  627MOL0     H84586   5.993  10.666   1.290  1.4153  0.9242 -2.2911
  627MOL0     H84587   6.112  10.559   1.217 -0.3244  1.3257  0.0935
  627MOL0     H84588   5.980  10.357   1.303  1.1997  0.3658  1.3823
  627MOL0     H84589   5.847  10.452   1.358 -2.3627 -1.2943 -1.9149
  627MOL0     H84590   5.796  10.567   1.146  2.8889  1.6621  3.8615
  627MOL0     H84591   5.919  10.483   1.059 -3.1697  3.3936 -1.6501
  627MOL0     H84592   5.815  10.263   1.148 -0.2556 -0.2443  0.9691
  627MOL0     H84593   5.749  10.351   1.017  1.2495  0.9049 -0.2573
  627MOL0     H84594   5.586  10.463   1.188 -2.6636 -0.0336  1.4086
  627MOL0     H84595   5.550  10.320   1.096  0.6057 -2.4766  1.0858
  627MOL0     H84596   5.593  10.072   1.213 -2.3638  1.5688 -1.1656
  627MOL0     H84597   5.511   9.945   1.559 -1.9179  2.1050 -0.2787
  627MOL0     H84598   5.457   9.923   1.392  1.0346 -2.1018 -1.1448
  627MOL0     H84599   5.630   9.763   1.452  0.2199 -0.2124  0.1093
  627MOL0     H84600   5.698   9.854   1.323  2.2075 -1.4240  0.0216
  627MOL0     H84601   5.756   9.892   1.614  3.5916 -1.0839  0.4356
  627MOL0     H84602   5.798  10.012   1.506 -2.3336  0.2480  0.6299
  627MOL0     H84603   5.908   9.717   1.505 -1.1060 -0.6543 -0.6147
  627MOL0     H84604   5.980   9.860   1.570  4.0731 -2.6567 -1.7946
  627MOL0     H84605   6.200   9.761   1.425  2.1845  0.5196  0.7410
  627MOL0     H84606   6.403   9.903   1.448 -0.0972 -0.4486  1.4581
  627MOL0     H84607   6.760   9.936   1.355  2.6513 -0.5730 -1.5253
  627MOL0     H84608   6.988  10.012   1.363 -1.2093 -1.8135  1.6650
  627MOL0     H84609   7.177  10.136   1.437  0.3819 -1.1619  0.0303
  627MOL0     H84610   7.161  10.115   1.254 -0.0072 -1.4608  0.6926
  627MOL0     H84611   7.333  10.323   1.381  2.3894  0.1482 -1.4552
  627MOL0     H84612   7.384  10.194   1.280 -1.0495 -0.9592 -1.4684
  627MOL0     H84613   7.248  10.305   1.090 -0.6113  0.7279 -0.4609
  627MOL0     H84614   7.194  10.427   1.196 -1.1172 -0.8947  1.8004
  627MOL0     H84615   7.490  10.363   1.108  0.3536  2.2911 -2.2046
  627MOL0     H84616   7.440  10.477   1.240 -0.1075 -0.8624  1.0354
  627MOL0     H84617   7.340  10.522   0.955  0.5546  0.9427  2.0386
  627MOL0     H84618   7.504  10.530   0.986  0.9232  0.4881  0.1305
  627MOL0     H84619   7.280  10.666   1.143  0.6788 -0.8726  0.8916
  627MOL0     H84620   7.444  10.709   1.175  1.3375  2.6083 -1.9553
  627MOL0     H84621   7.290  10.869   1.008  0.9357  1.7901 -1.1640
  627MOL0     H84622   7.366  10.765   0.887 -1.6090  0.2055 -0.3442
  627MOL0     H84623   7.502  10.971   0.933 -1.6708  0.7238  0.1326
  627MOL0     H84624   7.505  10.944   1.102  1.9754 -1.8801  0.5826
  627MOL0     H84625   6.862  10.422   1.298 -1.1213  0.2069  0.0806
  627MOL0     H84626   6.636  10.352   1.329 -0.3201 -0.1894 -0.7140
  627MOL0     H84627   6.187  10.250   1.308 -0.0443  1.2462  1.9103
  627MOL0     H84628   5.984  10.113   1.290  0.1641 -0.8020  0.8883
  627MOL0     H84629   6.460  10.880   1.254 -1.2109 -3.4395 -0.7460
  627MOL0     H84630   6.670  10.952   1.130 -0.4058 -3.0762 -2.6097
  627MOL0     H84631   7.214  11.053   1.344 -0.1045 -3.8970 -0.8945
  627MOL0     H84632   7.372  11.184   1.222 -1.1719  0.0151  0.8506
  627MOL0     H84633   7.333  11.415   1.036  3.2880  0.5872  0.8674
  627MOL0     H84634   7.299  11.364   0.858  0.3485 -2.1886 -0.3063
  627MOL0     H84635   7.533  11.380   0.832 -1.4342 -0.8449  0.0463
  627MOL0     H84636   7.569  11.437   0.998  2.4921  2.9731 -1.9477
  627MOL0     H84637   7.439  11.653   0.939 -0.6389 -0.9119  0.9283
  627MOL0     H84638   7.398  11.578   0.782  1.3201  0.1072 -1.4121
  627MOL0     H84639   7.685  11.657   0.863  0.0308 -0.0066  0.5613
  627MOL0     H84640   7.623  11.598   0.708 -2.6696 -1.5967  0.4497
  627MOL0     H84641   7.539  12.003   0.691  0.2097  0.7648  1.6945
  627MOL0     H84642   7.164  11.146   0.860 -0.7729  3.5901  1.4621
  627MOL0     H84643   6.843  11.083   1.011  0.0727  0.2323 -0.3276
  627MOL0     H84644   6.947  11.087   0.860  3.0711 -1.1541 -0.5594
  627MOL0     H84645   6.906  10.933   0.951 -1.3387  0.4124 -1.5434
  628MOL0     O84646   0.673   0.792   1.763 -0.1475  0.1343 -0.3905
  628MOL0     C84647   0.690   0.764   1.649 -0.3516 -0.1598  0.1888
  628MOL0     O84648   0.808   0.781   1.590 -0.1441  0.0569  0.2519
  628MOL0     C84649   0.906   0.850   1.646 -0.5751 -0.1933 -0.0305
  628MOL0     C84650   1.016   0.783   1.704  0.4153  0.2687  0.1503
  628MOL0     C84651   1.119   0.852   1.761  0.5392 -0.0695  0.0845
  628MOL0     C84652   1.129   0.991   1.755 -0.1335  0.7269  0.3023
  628MOL0     O84653   1.239   1.043   1.813 -0.1506 -0.1873  0.2814
  628MOL0     C84654   1.217   1.176   1.874 -0.1720 -0.0909 -0.2988
  628MOL0     C84655   1.325   1.194   1.982 -0.7554  0.3416  0.1435
  628MOL0     C84656   1.332   1.339   2.028 -0.2708 -0.3946 -0.1938
  628MOL0     C84657   1.439   1.367   2.134  0.1146  0.5128 -1.0896
  628MOL0     C84658   1.580   1.397   2.080  0.4857  0.0131  0.0369
  628MOL0     C84659   1.653   1.448   2.197  0.2023 -0.2683 -0.4871
  628MOL0     C84660   1.785   1.516   2.170 -0.0895  0.0374  0.3885
  628MOL0     C84661   1.863   1.542   2.297 -0.2794 -0.0752  1.1518
  628MOL0     N84662   1.947   1.428   2.335  1.2112 -0.2190 -1.0257
  628MOL0     C84663   2.069   1.396   2.285  0.3247  0.0302 -0.3690
  628MOL0     C84664   2.107   1.286   2.356 -0.2036  0.0502 -0.5937
  628MOL0     C84665   2.232   1.199   2.314  0.4036  0.1486 -0.0561
  628MOL0     C84666   2.367   1.253   2.345  0.3063 -0.0014 -0.5506
  628MOL0     C84667   2.393   1.240   2.493  0.2156 -0.4374 -0.1190
  628MOL0     C84668   2.533   1.295   2.527 -0.2540  0.1893 -0.0416
  628MOL0     O84669   2.573   1.264   2.659 -0.8448 -0.3035  0.0020
  628MOL0     C84670   2.712   1.260   2.682 -1.0553  0.1856 -0.3444
  628MOL0     C84671   2.815   1.327   2.608  0.3412  0.3344  0.2614
  628MOL0     C84672   2.949   1.327   2.649 -0.0299  0.8688 -0.5001
  628MOL0     C84673   2.986   1.244   2.750 -0.6044  0.8347 -0.2530
  628MOL0     C84674   3.125   1.257   2.791  0.5478  1.1933 -0.4103
  628MOL0     O84675   3.146   1.214   2.918 -1.1044  0.8234  0.1338
  628MOL0     C84676   3.278   1.215   2.955  0.3481  0.1362  0.7372
  628MOL0     C84677   3.345   1.092   2.948 -0.1270  0.2049 -1.0825
  628MOL0     C84678   3.487   1.100   2.976  0.0479 -0.5341  0.2796
  628MOL0     C84679   3.554   1.220   3.022  0.2400 -0.0951 -0.2560
  628MOL0     O84680   3.680   1.224   3.078 -0.1556 -0.5398  0.1856
  628MOL0     C84681   3.793   1.168   3.006 -0.9599  0.0692 -0.0631
  628MOL0     C84682   3.916   1.208   3.084 -0.3884  0.2997 -0.2133
  628MOL0     C84683   4.048   1.150   3.018  0.4046 -0.4075 -0.1343
  628MOL0     C84684   4.157   1.140   3.119  0.0847  0.2045 -0.9679
  628MOL0     C84685   4.269   1.058   3.073 -0.0710 -0.1613  0.0468
  628MOL0     C84686   4.376   1.060   3.186 -0.0188 -0.0891  0.9540
  628MOL0     C84687   4.491   0.956   3.155  0.7239 -0.6860  0.5604
  628MOL0     C84688   4.542   0.934   3.007  0.7905 -0.1118  0.4910
  628MOL0    Cl84689   4.426   0.880   2.876  0.0796 -0.5209  0.4221
  628MOL0     C84690   3.471   1.335   3.031 -0.8834 -0.1462 -0.1664
  628MOL0     C84691   3.338   1.332   2.998  0.4086 -0.2933 -0.0336
  628MOL0     O84692   3.208   1.297   2.711  0.2791  0.0783  0.2267
  628MOL0     C84693   2.889   1.173   2.819 -0.3035  1.1255  0.4222
  628MOL0     C84694   2.755   1.183   2.786  0.3381  0.0280  0.5863
  628MOL0     N84695   2.018   1.264   2.459  0.3772 -0.3616 -0.0270
  628MOL0     N84696   1.918   1.349   2.441  0.6538 -1.4036 -0.3992
  628MOL0     C84697   1.022   1.065   1.698  0.2575 -0.5714  0.5425
  628MOL0     C84698   0.913   0.991   1.642 -0.3747 -0.0592  0.2203
  628MOL0     C84699   0.578   0.717   1.566  0.5798 -0.0379 -0.0582
  628MOL0     C84700   0.603   0.663   1.438 -0.2188  0.6453  0.1173
  628MOL0     C84701   0.506   0.603   1.361  0.8491 -0.4664 -0.0000
  628MOL0     C84702   0.375   0.605   1.403  0.3724 -0.2829  0.1065
  628MOL0     O84703   0.264   0.562   1.336  0.4917  0.3275 -0.3921
  628MOL0     C84704   0.210   0.636   1.231 -0.5331  0.2509 -0.4006
  628MOL0     C84705   0.067   0.678   1.262  0.5975 -0.6317  0.0161
  628MOL0     C84706  -0.048   0.576   1.258 -0.2440  0.2204  0.4827
  628MOL0     C84707  -0.183   0.639   1.263 -0.6784 -1.1333  0.6405
  628MOL0     C84708  -0.281   0.536   1.272 -0.0816  0.1898 -0.4424
  628MOL0     C84709  -0.362   0.452   1.273 -0.3497 -0.0393 -0.4562
  628MOL0     C84710   0.352   0.650   1.529  0.1574 -1.0182  0.4329
  628MOL0     C84711   0.442   0.716   1.607 -1.4263 -0.0809 -0.0334
  628MOL0     C84712   0.390   0.787   1.725 -0.3604  1.6648  0.4689
  628MOL0     H84713   1.011   0.675   1.696  0.9741  0.2625 -0.1365
  628MOL0     H84714   1.200   0.795   1.806  0.1395 -0.3885  0.4001
  628MOL0     H84715   1.227   1.260   1.805  1.8286  0.3076  0.4124
  628MOL0     H84716   1.121   1.185   1.926  0.7698 -0.9468  1.7261
  628MOL0     H84717   1.423   1.177   1.936 -0.9038  0.1392 -0.0981
  628MOL0     H84718   1.319   1.131   2.071  1.2097 -1.8527 -1.1607
  628MOL0     H84719   1.235   1.361   2.074 -0.1103 -1.8570  0.9439
  628MOL0     H84720   1.348   1.410   1.946 -0.6322  2.4187  2.0260
  628MOL0     H84721   1.401   1.446   2.200 -1.2353 -1.0014  0.0338
  628MOL0     H84722   1.455   1.280   2.199 -0.6685  1.2899  0.1848
  628MOL0     H84723   1.616   1.300   2.045  3.4180  0.5456  1.2973
  628MOL0     H84724   1.579   1.479   2.007 -0.4131 -0.7554 -0.8508
  628MOL0     H84725   1.601   1.529   2.250  1.7785 -0.2914  1.2298
  628MOL0     H84726   1.664   1.365   2.267  0.6692  2.1762  2.5923
  628MOL0     H84727   1.774   1.617   2.130 -1.1749  0.5729  1.9271
  628MOL0     H84728   1.841   1.448   2.105 -0.4798 -1.6226  1.7091
  628MOL0     H84729   1.931   1.623   2.270  0.4774 -0.9520  0.3739
  628MOL0     H84730   1.788   1.567   2.373 -1.2337 -2.3132  1.0287
  628MOL0     H84731   2.119   1.436   2.197 -0.5194 -1.6524 -1.6545
  628MOL0     H84732   2.227   1.104   2.368  0.6594  1.6507  2.8038
  628MOL0     H84733   2.225   1.175   2.208  4.9159 -1.0753 -0.2719
  628MOL0     H84734   2.449   1.198   2.298  1.2140 -0.3013  1.2998
  628MOL0     H84735   2.354   1.356   2.310 -2.2942 -0.7751 -2.1762
  628MOL0     H84736   2.386   1.132   2.511 -1.0720 -0.4852 -0.7541
  628MOL0     H84737   2.314   1.291   2.548 -0.3187  1.0390 -2.1222
  628MOL0     H84738   2.541   1.404   2.521 -1.2599  0.4109  1.8048
  628MOL0     H84739   2.604   1.251   2.456  1.3893  2.4000  0.1148
  628MOL0     H84740   2.786   1.386   2.522 -0.8437  2.1749  1.8351
  628MOL0     H84741   3.011   1.391   2.586  1.1958  0.3401  0.1450
  628MOL0     H84742   3.294   1.001   2.920 -0.1226 -0.4770  0.9616
  628MOL0     H84743   3.539   1.005   2.976 -1.7125 -1.5543 -0.5129
  628MOL0     H84744   3.790   1.059   3.012  0.0619 -0.0317 -1.0855
  628MOL0     H84745   3.809   1.208   2.906 -0.7011 -0.6378 -0.3104
  628MOL0     H84746   3.935   1.316   3.080  0.2575  0.1691 -0.8155
  628MOL0     H84747   3.923   1.175   3.189 -0.3286 -1.3163 -0.6945
  628MOL0     H84748   4.020   1.049   2.987 -1.0943  0.3936 -1.5286
  628MOL0     H84749   4.081   1.200   2.926 -1.6927 -1.5101 -1.5469
  628MOL0     H84750   4.126   1.104   3.217  2.0037  0.8473 -0.0788
  628MOL0     H84751   4.185   1.244   3.139  1.1486 -0.0976 -0.8602
  628MOL0     H84752   4.317   1.099   2.984 -2.0187 -0.2077 -1.0853
  628MOL0     H84753   4.244   0.953   3.052  1.4932 -0.8299  1.3214
  628MOL0     H84754   4.414   1.162   3.179 -0.2717  0.0078  0.9986
  628MOL0     H84755   4.330   1.039   3.283  0.2918  0.0623  1.1387
  628MOL0     H84756   4.454   0.856   3.175  1.0998 -0.4513  2.6253
  628MOL0     H84757   4.580   0.984   3.213  1.1261  1.1002 -0.8153
  628MOL0     H84758   4.589   1.026   2.971 -2.4011  0.7108 -2.0985
  628MOL0     H84759   4.618   0.855   3.013  1.4707  0.6163  2.1340
  628MOL0     H84760   3.518   1.430   3.056 -3.1139  1.4727 -1.7492
  628MOL0     H84761   3.268   1.415   2.991 -3.3436 -2.8766  2.8919
  628MOL0     H84762   2.913   1.119   2.910 -1.8941 -0.4643 -0.0458
  628MOL0     H84763   2.673   1.135   2.839  0.7374 -2.4660 -0.8887
  628MOL0     H84764   1.032   1.173   1.700  0.1761 -0.5021 -1.2984
  628MOL0     H84765   0.822   1.047   1.624  0.7284  2.8447  2.8738
  628MOL0     H84766   0.704   0.653   1.399 -0.1321  0.7407  0.3134
  628MOL0     H84767   0.530   0.565   1.262 -2.0953 -1.2784 -0.4978
  628MOL0     H84768   0.207   0.577   1.139  1.0100 -0.0425 -0.2996
  628MOL0     H84769   0.273   0.724   1.215  2.0456 -1.7511 -2.1042
  628MOL0     H84770   0.055   0.761   1.191  2.2447 -1.0951 -0.8508
  628MOL0     H84771   0.070   0.713   1.366 -1.8093  4.0463 -1.2182
  628MOL0     H84772  -0.038   0.504   1.340 -1.9861 -0.1495  0.4015
  628MOL0     H84773  -0.040   0.526   1.161 -0.0267 -1.1378  1.1722
  628MOL0     H84774  -0.199   0.708   1.346 -1.2683 -2.0886  1.3304
  628MOL0     H84775  -0.210   0.688   1.169 -1.8539 -0.6334  1.2285
  628MOL0     H84776  -0.438   0.377   1.271 -0.6853  0.3108 -1.5603
  628MOL0     H84777   0.248   0.642   1.562  0.2120  1.6244  1.5186
  628MOL0     H84778   0.389   0.712   1.804  0.6859  1.1075 -0.0282
  628MOL0     H84779   0.443   0.878   1.758  0.5462  1.1808  0.3816
  628MOL0     H84780   0.287   0.812   1.697 -1.0755 -0.9453  0.5481
  629MOL0     O84781   7.499   1.627   8.967  0.1093  0.0177 -0.4125
  629MOL0     C84782   7.589   1.647   8.879  0.3605 -0.2097  0.5661
  629MOL0     O84783   7.555   1.657   8.742 -0.0597  0.2492 -0.6037
  629MOL0     C84784   7.432   1.633   8.693  0.2703  0.0609 -0.4412
  629MOL0     C84785   7.424   1.556   8.578 -0.0964  0.6257  0.5938
  629MOL0     C84786   7.298   1.522   8.523  0.2686  0.0221  0.2133
  629MOL0     C84787   7.178   1.567   8.584 -0.2475 -1.0213 -0.3036
  629MOL0     O84788   7.055   1.541   8.532 -0.3556 -0.1445 -0.0076
  629MOL0     C84789   7.018   1.401   8.525 -0.0786  0.2109 -0.1407
  629MOL0     C84790   6.947   1.369   8.660  0.8447 -0.2455  0.3196
  629MOL0     C84791   6.789   1.364   8.634 -0.7463 -0.3796  0.1151
  629MOL0     C84792   6.739   1.490   8.566  0.4981 -0.0638 -0.3700
  629MOL0     C84793   6.585   1.500   8.554 -0.3721 -0.1323  0.1591
  629MOL0     C84794   6.527   1.394   8.458 -0.2279 -0.1921  0.3773
  629MOL0     C84795   6.367   1.407   8.461  0.5222  0.3226 -0.6255
  629MOL0     C84796   6.317   1.544   8.412 -0.2304 -1.1245 -0.2038
  629MOL0     N84797   6.370   1.584   8.279 -0.6386  0.0904  0.4524
  629MOL0     C84798   6.488   1.643   8.255 -0.6174 -0.5487 -0.3466
  629MOL0     C84799   6.506   1.671   8.120 -0.5845  0.1946 -0.6808
  629MOL0     C84800   6.629   1.742   8.052 -0.0038 -0.6034 -0.1911
  629MOL0     C84801   6.744   1.642   8.055 -0.0842  0.4590  0.0553
  629MOL0     C84802   6.884   1.698   8.013  0.7692  0.4728  0.1783
  629MOL0     C84803   7.011   1.610   8.052  1.1572 -0.2482  0.6824
  629MOL0     O84804   7.123   1.698   8.044 -0.0168  0.5406  0.0199
  629MOL0     C84805   7.250   1.655   8.086  0.2232  0.3151  0.1929
  629MOL0     C84806   7.269   1.526   8.139  0.2610  0.4129 -0.6423
  629MOL0     C84807   7.398   1.493   8.188 -0.0807  1.1764 -0.5308
  629MOL0     C84808   7.507   1.575   8.165  0.2600 -0.0061  0.3090
  629MOL0     C84809   7.641   1.536   8.204  0.1445  0.3176 -0.8440
  629MOL0     O84810   7.749   1.624   8.177  0.1555 -0.3420 -0.3383
  629MOL0     C84811   7.870   1.572   8.206  0.1564 -1.0009 -0.2741
  629MOL0     C84812   7.909   1.541   8.341 -0.6617  0.2394 -0.2505
  629MOL0     C84813   8.040   1.487   8.371  0.1236 -0.0095 -0.0881
  629MOL0     C84814   8.128   1.465   8.259  0.0780  0.8379 -0.2012
  629MOL0     O84815   8.254   1.418   8.273  0.2904 -0.0411  0.1817
  629MOL0     C84816   8.321   1.470   8.388  0.5791 -0.5878 -0.1683
  629MOL0     C84817   8.471   1.433   8.383  0.5772 -0.7780 -0.2931
  629MOL0     C84818   8.541   1.475   8.253  0.3363 -0.1535  0.1099
  629MOL0     C84819   8.697   1.466   8.253 -0.5944  0.5581 -0.3440
  629MOL0     C84820   8.768   1.557   8.150 -0.4510  1.2835  0.1326
  629MOL0     C84821   8.923   1.569   8.169  0.3893  0.1739  0.3805
  629MOL0     C84822   8.976   1.684   8.078  0.2913 -0.0893 -0.4065
  629MOL0     C84823   9.121   1.717   8.119  0.0022 -0.1573  0.6137
  629MOL0    Cl84824   9.174   1.843   8.008 -0.2144  0.0760 -0.4037
  629MOL0     C84825   8.090   1.491   8.125  0.2396 -0.4758  0.0806
  629MOL0     C84826   7.962   1.550   8.101  0.0110 -0.2181 -0.1393
  629MOL0     O84827   7.650   1.428   8.267  0.0296 -0.3078  0.6535
  629MOL0     C84828   7.486   1.704   8.114 -0.9663 -0.7221  0.2893
  629MOL0     C84829   7.357   1.742   8.062 -0.4050 -0.2940 -0.6281
  629MOL0     N84830   6.393   1.606   8.061  0.2982  0.4017  0.1205
  629MOL0     N84831   6.311   1.565   8.158 -0.0340  0.7349  0.9065
  629MOL0     C84832   7.190   1.655   8.691  0.2504 -0.2994 -0.1560
  629MOL0     C84833   7.314   1.685   8.752 -0.0306 -0.1345 -0.1214
  629MOL0     C84834   7.734   1.673   8.920  1.0316  0.0046 -0.7615
  629MOL0     C84835   7.771   1.620   9.040  0.7032  0.8485 -0.6390
  629MOL0     C84836   7.903   1.636   9.085 -0.3679 -0.9685 -0.6152
  629MOL0     C84837   7.996   1.714   9.020 -0.6988  0.1820 -0.5631
  629MOL0     O84838   8.119   1.736   9.071  0.3797  0.0734  0.6344
  629MOL0     C84839   8.206   1.626   9.097 -0.3698  0.5872 -0.1893
  629MOL0     C84840   8.246   1.563   8.968  0.1273 -0.7436  0.7845
  629MOL0     C84841   8.333   1.659   8.886 -0.3861 -0.3912 -0.2136
  629MOL0     C84842   8.344   1.618   8.744  0.1464 -0.6257 -0.1117
  629MOL0     C84843   8.231   1.663   8.663 -0.4279 -0.1365  0.2959
  629MOL0     C84844   8.135   1.693   8.592 -0.2250  0.1174 -0.4871
  629MOL0     C84845   7.961   1.760   8.892  0.0328 -0.0912  0.0102
  629MOL0     C84846   7.834   1.746   8.842 -0.2136 -0.5645 -0.9187
  629MOL0     C84847   7.793   1.830   8.722 -0.4821  0.0498 -0.4704
  629MOL0     H84848   7.515   1.520   8.532 -0.7390  0.7403 -0.8293
  629MOL0     H84849   7.301   1.459   8.435 -0.1790 -2.5378  1.8981
  629MOL0     H84850   6.959   1.390   8.434  0.6069  1.7656 -0.8196
  629MOL0     H84851   7.106   1.339   8.505  0.9700  1.2237  1.1647
  629MOL0     H84852   6.961   1.445   8.737 -0.6133  0.5240 -0.1310
  629MOL0     H84853   6.992   1.284   8.712  1.5368  1.1402  2.0809
  629MOL0     H84854   6.741   1.355   8.731 -0.9847 -1.7435 -0.1114
  629MOL0     H84855   6.764   1.277   8.572 -2.0009  0.3199 -0.4014
  629MOL0     H84856   6.774   1.570   8.632 -0.7456  0.3791 -0.2270
  629MOL0     H84857   6.769   1.502   8.462  1.8402 -0.0639 -0.0081
  629MOL0     H84858   6.555   1.475   8.656  4.9271 -1.2810  1.8048
  629MOL0     H84859   6.552   1.602   8.536  0.9811  0.2485 -0.3142
  629MOL0     H84860   6.563   1.399   8.355  1.7109  3.0488  1.0340
  629MOL0     H84861   6.557   1.296   8.495  2.0558 -0.5168 -2.0374
  629MOL0     H84862   6.334   1.388   8.563 -4.7319  0.7223 -1.9832
  629MOL0     H84863   6.325   1.326   8.402  0.6980 -1.7697  1.9604
  629MOL0     H84864   6.209   1.539   8.396 -0.2725 -0.7612 -0.0468
  629MOL0     H84865   6.331   1.624   8.485 -2.7467 -0.0747 -0.7656
  629MOL0     H84866   6.554   1.667   8.338 -0.7944  0.0801 -0.3817
  629MOL0     H84867   6.601   1.766   7.949  0.7930  1.5391  0.0536
  629MOL0     H84868   6.653   1.830   8.112 -1.2343 -0.3963  0.0202
  629MOL0     H84869   6.759   1.614   8.159  0.9549  1.7387  0.2894
  629MOL0     H84870   6.729   1.547   8.002 -2.6141  0.2542  1.0448
  629MOL0     H84871   6.891   1.798   8.057  2.2704  1.3728 -1.9812
  629MOL0     H84872   6.881   1.702   7.904  3.2826  1.3950  0.0902
  629MOL0     H84873   7.024   1.539   7.970 -0.0077 -0.3728  0.5999
  629MOL0     H84874   7.002   1.558   8.148  2.3459  1.0961  1.5661
  629MOL0     H84875   7.187   1.456   8.131  3.2767 -3.6220  0.3572
  629MOL0     H84876   7.407   1.405   8.250 -0.6525  1.6046  0.1721
  629MOL0     H84877   7.836   1.556   8.420  1.6522  0.1889  2.0222
  629MOL0     H84878   8.068   1.457   8.472 -0.3420 -1.8571 -0.4705
  629MOL0     H84879   8.312   1.579   8.397  0.2303 -0.6243 -0.0699
  629MOL0     H84880   8.286   1.416   8.476  1.6953 -0.5183  0.3362
  629MOL0     H84881   8.521   1.473   8.472 -0.2097 -2.5612  1.0078
  629MOL0     H84882   8.478   1.325   8.397  1.9914 -0.5803  0.7688
  629MOL0     H84883   8.489   1.423   8.173 -2.9765  3.1957 -0.2076
  629MOL0     H84884   8.529   1.584   8.248  1.7648  0.0198  0.1305
  629MOL0     H84885   8.723   1.361   8.235 -0.2381  0.2952  1.5370
  629MOL0     H84886   8.737   1.488   8.352  0.4372 -0.6628 -0.4598
  629MOL0     H84887   8.722   1.656   8.154 -2.7684  0.2598  0.7487
  629MOL0     H84888   8.749   1.523   8.048  1.2049  0.7747 -0.0292
  629MOL0     H84889   8.951   1.583   8.274  0.7336 -1.1358  0.4888
  629MOL0     H84890   8.966   1.471   8.144  1.4813  0.4071  1.2243
  629MOL0     H84891   8.909   1.769   8.087 -1.7964 -1.1519 -3.8976
  629MOL0     H84892   8.991   1.654   7.974  0.6246  0.8895 -0.6481
  629MOL0     H84893   9.122   1.760   8.220  0.6078  0.2817  0.4286
  629MOL0     H84894   9.188   1.631   8.114 -0.4348 -0.4471 -0.7263
  629MOL0     H84895   8.161   1.465   8.048  1.7578  1.0309  0.8819
  629MOL0     H84896   7.937   1.574   7.998 -0.0250 -3.6315 -1.0560
  629MOL0     H84897   7.566   1.775   8.095  0.2395 -2.7958 -3.2406
  629MOL0     H84898   7.336   1.842   8.024 -2.2683 -0.3452  0.1733
  629MOL0     H84899   7.096   1.688   8.734 -0.6102 -0.6399 -1.7305
  629MOL0     H84900   7.322   1.738   8.846  2.6742 -2.9744  1.4264
  629MOL0     H84901   7.698   1.567   9.101  0.5658  0.6484 -0.9758
  629MOL0     H84902   7.925   1.585   9.178 -2.6815  1.7610  1.6117
  629MOL0     H84903   8.163   1.558   9.172  0.4459 -0.2728 -0.4833
  629MOL0     H84904   8.302   1.652   9.143  1.4214 -1.8587 -2.2342
  629MOL0     H84905   8.162   1.524   8.909 -0.3275  0.3685  0.6596
  629MOL0     H84906   8.297   1.469   8.988 -3.7696 -3.0986  0.7786
  629MOL0     H84907   8.433   1.659   8.929 -1.2443  2.1408  2.1329
  629MOL0     H84908   8.296   1.762   8.893  1.1622  0.1951 -0.4346
  629MOL0     H84909   8.432   1.660   8.695  1.6981 -0.6119  2.5058
  629MOL0     H84910   8.335   1.509   8.740 -0.9754 -0.5834  0.7227
  629MOL0     H84911   8.046   1.720   8.538 -1.9643  0.7508  2.4560
  629MOL0     H84912   8.031   1.808   8.825  1.1100 -1.0179  0.4493
  629MOL0     H84913   7.781   1.763   8.637  0.0605 -0.9278  0.2174
  629MOL0     H84914   7.697   1.876   8.748 -1.3308 -2.0714  0.3319
  629MOL0     H84915   7.864   1.912   8.704  2.0619 -2.2756 -1.7724
  630MOL0     O84916   9.123   3.683   6.117 -0.3866 -0.1511  0.4997
  630MOL0     C84917   9.058   3.584   6.130  0.6685 -0.4217  0.1123
  630MOL0     O84918   9.071   3.467   6.072 -0.0243  0.9692  0.3565
  630MOL0     C84919   9.197   3.430   6.025  0.8248 -0.5392  0.1905
  630MOL0     C84920   9.312   3.449   6.105 -0.1252 -1.0054  0.0262
  630MOL0     C84921   9.434   3.415   6.038 -0.3356  0.2984 -0.0616
  630MOL0     C84922   9.436   3.378   5.904 -0.5665 -0.2206  0.8404
  630MOL0     O84923   9.549   3.356   5.831  0.3764 -0.2248 -0.1955
  630MOL0     C84924   9.683   3.351   5.882  0.1010  0.3553  0.1845
  630MOL0     C84925   9.792   3.306   5.782  0.9124  0.0617  0.4676
  630MOL0     C84926   9.933   3.311   5.832 -0.2002  0.9936  0.0224
  630MOL0     C84927  10.028   3.240   5.740  0.3902  0.5730  0.3748
  630MOL0     C84928  10.177   3.285   5.762 -0.7133 -0.5860 -0.5715
  630MOL0     C84929  10.233   3.244   5.898 -0.8703 -0.1332 -0.8072
  630MOL0     C84930  10.388   3.271   5.906  0.7047 -0.4402  0.7750
  630MOL0     C84931  10.427   3.302   6.056  0.8112  0.0144  0.1633
  630MOL0     N84932  10.578   3.299   6.066  0.0305  0.8081  0.5593
  630MOL0     C84933  10.665   3.402   6.050  0.7141  0.3217  0.8100
  630MOL0     C84934  10.779   3.355   6.096 -0.1121 -0.1089  0.3294
  630MOL0     C84935  10.903   3.441   6.104 -0.0940 -0.4247 -0.0412
  630MOL0     C84936  11.037   3.396   6.042 -0.3350 -0.4355  0.4041
  630MOL0     C84937  11.096   3.302   6.139 -0.5152  0.7272 -0.0060
  630MOL0     C84938  11.240   3.262   6.084  0.1671  0.2774 -0.1829
  630MOL0     O84939  11.335   3.372   6.054  0.5026  0.9310 -0.0586
  630MOL0     C84940  11.442   3.339   5.979  0.0559 -0.6475 -1.2019
  630MOL0     C84941  11.488   3.442   5.902  0.1708  0.1833 -0.1409
  630MOL0     C84942  11.601   3.424   5.820 -0.3737  0.0267 -0.5142
  630MOL0     C84943  11.657   3.294   5.805 -0.1455 -0.4412  0.5975
  630MOL0     C84944  11.767   3.274   5.709  0.6464  0.0629  0.0389
  630MOL0     O84945  11.823   3.145   5.710  0.0996  0.4409  0.3559
  630MOL0     C84946  11.940   3.122   5.641  0.7391 -0.2802  0.5104
  630MOL0     C84947  12.043   3.057   5.707  0.3059 -0.2013 -0.0368
  630MOL0     C84948  12.163   3.029   5.643 -0.1089 -0.5117 -0.4231
  630MOL0     C84949  12.178   3.058   5.510 -0.6952 -0.2918  0.4076
  630MOL0     O84950  12.297   3.044   5.437  0.2628  0.0437  0.0654
  630MOL0     C84951  12.421   3.039   5.510 -1.5445  0.0217  0.2574
  630MOL0     C84952  12.538   3.061   5.411  0.5211 -0.7636  0.3852
  630MOL0     C84953  12.668   3.014   5.470  0.4555  0.3112  0.0232
  630MOL0     C84954  12.793   3.043   5.386 -0.1965 -0.1500 -0.3407
  630MOL0     C84955  12.917   3.004   5.462 -0.4100 -0.4863  0.6135
  630MOL0     C84956  13.041   3.012   5.392 -0.7194  0.2670  0.0199
  630MOL0     C84957  13.084   3.149   5.341  0.2872 -0.5886  0.2304
  630MOL0     C84958  13.220   3.190   5.406 -0.2637  0.3501  0.2400
  630MOL0    Cl84959  13.199   3.221   5.583  0.3334  0.1370 -0.2762
  630MOL0     C84960  12.070   3.098   5.435 -0.3799 -0.1011  1.0659
  630MOL0     C84961  11.956   3.143   5.501 -0.7619 -0.2198 -1.0074
  630MOL0     O84962  11.798   3.371   5.640 -0.1577  0.0405 -0.1432
  630MOL0     C84963  11.600   3.183   5.875 -0.3040 -0.0916 -0.0626
  630MOL0     C84964  11.496   3.208   5.965  1.1951 -0.1551  0.5131
  630MOL0     N84965  10.764   3.219   6.127 -0.6493 -0.1549 -0.2281
  630MOL0     N84966  10.642   3.187   6.108 -0.1886  0.0830  0.4927
  630MOL0     C84967   9.317   3.368   5.831 -0.8650 -0.8357  0.6806
  630MOL0     C84968   9.199   3.384   5.896  0.2366 -0.6856  0.3003
  630MOL0     C84969   8.928   3.600   6.211 -0.0326  0.3524  0.4512
  630MOL0     C84970   8.863   3.479   6.252  0.5061 -0.1927 -0.1952
  630MOL0     C84971   8.738   3.485   6.314 -0.0110  0.0831  0.9963
  630MOL0     C84972   8.681   3.609   6.342 -0.3994  0.1315  0.1516
  630MOL0     O84973   8.555   3.606   6.400  0.3397  0.5668  0.4549
  630MOL0     C84974   8.463   3.716   6.370  0.5688  0.3234 -0.4165
  630MOL0     C84975   8.329   3.687   6.444  0.0359 -0.9706 -0.0656
  630MOL0     C84976   8.231   3.798   6.431 -0.3003 -0.6487  0.2563
  630MOL0     C84977   8.233   3.881   6.301  0.3361 -0.1520 -1.2368
  630MOL0     C84978   8.179   3.822   6.183  0.2746  0.1097 -0.4975
  630MOL0     C84979   8.106   3.773   6.096  0.1282  0.0304  0.3237
  630MOL0     C84980   8.747   3.726   6.317 -0.1722  0.6379 -0.1492
  630MOL0     C84981   8.869   3.722   6.252  0.1064  0.4254 -0.4577
  630MOL0     C84982   8.922   3.861   6.200  0.1530  1.0206 -0.5358
  630MOL0     H84983   9.319   3.476   6.209  3.1344 -0.3890 -0.2468
  630MOL0     H84984   9.530   3.428   6.088  0.9295 -1.6384 -1.8211
  630MOL0     H84985   9.700   3.449   5.928  0.9366  0.7095 -0.8574
  630MOL0     H84986   9.676   3.267   5.952 -0.9092 -0.5377 -0.9569
  630MOL0     H84987   9.779   3.370   5.694  0.5498  0.9417  1.1527
  630MOL0     H84988   9.764   3.205   5.752  0.8878 -0.3491  1.8148
  630MOL0     H84989   9.945   3.251   5.922 -1.2984 -2.0005 -1.6430
  630MOL0     H84990   9.963   3.408   5.871  2.1439  0.4371 -0.2513
  630MOL0     H84991  10.026   3.132   5.754  3.2643  0.5435  1.3516
  630MOL0     H84992  10.005   3.256   5.635  1.9999  1.1282  0.0709
  630MOL0     H84993  10.246   3.233   5.695  2.0482 -0.5737  2.0639
  630MOL0     H84994  10.183   3.393   5.751 -4.7329 -0.3513 -2.3204
  630MOL0     H84995  10.185   3.300   5.979 -2.2420  0.4262 -1.9633
  630MOL0     H84996  10.240   3.135   5.905  1.9374  0.0584  2.1587
  630MOL0     H84997  10.416   3.362   5.853  1.5014  0.9556  3.4266
  630MOL0     H84998  10.440   3.185   5.863 -4.1465 -2.4635 -1.9543
  630MOL0     H84999  10.387   3.397   6.092 -0.2357  0.4144 -1.8878
  630MOL0     H85000  10.375   3.235   6.124 -2.6813  1.3153 -0.9965
  630MOL0     H85001  10.650   3.496   5.999 -1.3092 -0.9896 -1.1914
  630MOL0     H85002  10.869   3.533   6.055 -6.5075 -1.1937  2.0058
  630MOL0     H85003  10.928   3.473   6.205  1.6273  2.0964 -1.1653
  630MOL0     H85004  11.032   3.345   5.945  4.0596 -1.0117  0.2727
  630MOL0     H85005  11.105   3.481   6.037  1.8779 -2.1808 -2.3404
  630MOL0     H85006  11.040   3.210   6.160  2.7539 -0.7907  3.1974
  630MOL0     H85007  11.121   3.345   6.237  0.1001  0.5058 -0.0662
  630MOL0     H85008  11.237   3.196   5.996  1.0646  0.8355 -0.6458
  630MOL0     H85009  11.278   3.189   6.156 -2.2532 -3.5369 -2.3533
  630MOL0     H85010  11.439   3.538   5.918 -0.2243  0.1583 -1.1409
  630MOL0     H85011  11.631   3.497   5.745  0.2495 -3.0734 -3.5436
  630MOL0     H85012  12.022   3.027   5.809  1.7253 -1.7357 -0.1616
  630MOL0     H85013  12.238   2.988   5.709  0.8413  2.9296  0.8664
  630MOL0     H85014  12.426   3.121   5.583 -0.7897  0.6904 -0.5288
  630MOL0     H85015  12.427   2.947   5.569 -2.5780  0.2111  0.6913
  630MOL0     H85016  12.523   3.015   5.313  0.9732 -2.0366  0.8962
  630MOL0     H85017  12.531   3.168   5.388 -3.1969 -0.8186  0.6111
  630MOL0     H85018  12.690   3.068   5.563  1.2616 -2.7797  1.7758
  630MOL0     H85019  12.658   2.906   5.485  0.7634  0.3797  0.7761
  630MOL0     H85020  12.803   3.146   5.350 -2.0239 -0.6477 -2.5143
  630MOL0     H85021  12.786   2.983   5.294  2.9761 -1.4980  0.1524
  630MOL0     H85022  12.910   2.901   5.498  1.1567 -0.8447 -0.0050
  630MOL0     H85023  12.925   3.064   5.553 -3.4143  0.1267  0.5741
  630MOL0     H85024  13.119   2.987   5.464 -0.1753  2.6436  0.3061
  630MOL0     H85025  13.033   2.939   5.311 -4.7872  1.0991 -0.5654
  630MOL0     H85026  13.021   3.229   5.381  0.7349  0.4736 -1.1356
  630MOL0     H85027  13.078   3.145   5.232 -2.9717 -2.7649  0.3379
  630MOL0     H85028  13.298   3.117   5.386  1.0095  1.7951 -0.2510
  630MOL0     H85029  13.263   3.281   5.363  0.6905  1.1872  2.7824
  630MOL0     H85030  12.078   3.100   5.327 -3.5297  0.7505  0.7581
  630MOL0     H85031  11.880   3.191   5.441 -1.8766 -1.6153 -0.7607
  630MOL0     H85032  11.647   3.086   5.856  0.7567  0.4721 -0.3962
  630MOL0     H85033  11.460   3.125   6.024 -1.7778 -0.0434 -0.9635
  630MOL0     H85034   9.324   3.333   5.728 -1.5353 -0.7384  0.5970
  630MOL0     H85035   9.105   3.363   5.846 -1.0835  1.0638  1.8683
  630MOL0     H85036   8.899   3.377   6.242  1.3508 -0.0497  1.0906
  630MOL0     H85037   8.685   3.397   6.349 -0.3774 -0.5240 -0.9882
  630MOL0     H85038   8.454   3.720   6.261  0.6706  0.6053 -0.4140
  630MOL0     H85039   8.497   3.807   6.420  2.2364 -0.2764 -0.3906
  630MOL0     H85040   8.346   3.686   6.552 -2.7061  1.3332  0.5319
  630MOL0     H85041   8.281   3.600   6.397  2.9906 -2.7315 -0.0413
  630MOL0     H85042   8.243   3.863   6.517  2.3682  0.5294 -0.9041
  630MOL0     H85043   8.131   3.753   6.436 -0.3130 -0.8885 -1.3209
  630MOL0     H85044   8.164   3.963   6.322 -0.5728  0.1739 -4.9049
  630MOL0     H85045   8.333   3.914   6.269  1.4653 -2.5599 -0.4059
  630MOL0     H85046   8.033   3.730   6.031  0.2752 -1.2541  0.9716
  630MOL0     H85047   8.701   3.824   6.322  1.4698  1.6550 -2.8755
  630MOL0     H85048   8.854   3.936   6.241  0.8403  0.7135  1.2494
  630MOL0     H85049   9.019   3.874   6.250 -1.3882 -0.2931  3.2138
  630MOL0     H85050   8.935   3.871   6.092 -0.4893  2.1187 -0.5297
  631MOL0     O85051   0.034   9.853   4.201 -0.2013  0.4084 -0.4625
  631MOL0     C85052  -0.022   9.747   4.206  0.1969 -0.4898 -0.2234
  631MOL0     O85053   0.033   9.625   4.241 -1.5519 -0.2663 -0.3198
  631MOL0     C85054   0.166   9.591   4.234 -0.0191  0.5747  0.0861
  631MOL0     C85055   0.262   9.657   4.154  0.1523  0.0180 -0.8254
  631MOL0     C85056   0.386   9.611   4.141 -0.7529  0.2644 -1.0333
  631MOL0     C85057   0.433   9.500   4.210  1.1307  0.3068 -0.3468
  631MOL0     O85058   0.556   9.451   4.214  0.0016 -0.1347 -0.2535
  631MOL0     C85059   0.648   9.548   4.267 -0.0904  0.0384  0.1099
  631MOL0     C85060   0.794   9.492   4.279  0.5887  0.0418  0.7801
  631MOL0     C85061   0.856   9.467   4.138  0.2423 -0.3123 -1.1223
  631MOL0     C85062   1.010   9.493   4.129 -0.2935  0.8952  0.1110
  631MOL0     C85063   1.037   9.642   4.114 -0.0061 -0.3716 -0.4310
  631MOL0     C85064   1.184   9.673   4.113  0.3075  0.5543 -0.4556
  631MOL0     C85065   1.213   9.819   4.076  0.0137  1.0168  0.5532
  631MOL0     C85066   1.363   9.833   4.073 -0.9441  0.0586  0.0792
  631MOL0     N85067   1.429   9.770   3.958 -0.6459  0.0951 -0.1429
  631MOL0     C85068   1.430   9.822   3.829  1.2435  0.2584  0.3859
  631MOL0     C85069   1.526   9.742   3.760 -0.4225  1.0229 -0.0528
  631MOL0     C85070   1.559   9.754   3.604  0.8528 -0.1743  0.3210
  631MOL0     C85071   1.439   9.791   3.510  0.3327 -0.3444 -0.9390
  631MOL0     C85072   1.478   9.801   3.363  0.9358  0.0065  0.4706
  631MOL0     C85073   1.490   9.661   3.307  0.7133  0.6914 -0.8852
  631MOL0     O85074   1.492   9.644   3.169  0.6226  0.0330 -0.3365
  631MOL0     C85075   1.587   9.699   3.084  0.4091 -0.3699  0.3296
  631MOL0     C85076   1.715   9.736   3.128 -0.4353  0.8804  0.3311
  631MOL0     C85077   1.805   9.786   3.034  0.1096 -0.1745  1.0958
  631MOL0     C85078   1.770   9.805   2.897  0.4829  0.2363  0.1292
  631MOL0     C85079   1.864   9.878   2.804 -0.0695  0.0196  0.8485
  631MOL0     O85080   1.962   9.947   2.868 -0.1535  0.1434  0.1507
  631MOL0     C85081   2.063  10.000   2.795 -0.0639  0.3146  0.4146
  631MOL0     C85082   2.139   9.929   2.699 -0.3539 -0.4419 -0.0638
  631MOL0     C85083   2.249   9.991   2.630  0.3748 -0.5570  0.0690
  631MOL0     C85084   2.272  10.136   2.647 -0.0857 -0.3527  0.4638
  631MOL0     O85085   2.348  10.219   2.570  0.2789 -0.0158  0.4136
  631MOL0     C85086   2.468  10.169   2.524  0.6256  0.1438  0.5577
  631MOL0     C85087   2.579  10.268   2.516  0.7253 -0.5023 -0.5233
  631MOL0     C85088   2.536  10.378   2.406 -0.4086  0.2917 -0.3377
  631MOL0     C85089   2.626  10.494   2.402 -0.1538 -1.1109  0.0603
  631MOL0     C85090   2.596  10.579   2.273  0.1226 -0.2059  0.1022
  631MOL0     C85091   2.474  10.663   2.281  0.2896 -0.3882  0.4193
  631MOL0     C85092   2.438  10.701   2.132 -0.4231 -0.1008  0.3546
  631MOL0     C85093   2.292  10.747   2.131  0.0614 -0.2003 -0.4690
  631MOL0    Cl85094   2.250  10.753   1.962 -0.0351  0.5268 -0.1683
  631MOL0     C85095   2.185  10.205   2.734 -0.3696 -0.2038 -1.3011
  631MOL0     C85096   2.078  10.146   2.804  0.8574  0.4860 -0.0426
  631MOL0     O85097   1.845   9.882   2.683 -0.7342  0.5338  0.3076
  631MOL0     C85098   1.636   9.778   2.858  0.4560 -0.1976 -0.1885
  631MOL0     C85099   1.548   9.720   2.952 -0.0648 -0.0556 -0.1603
  631MOL0     N85100   1.570   9.650   3.858 -0.4850 -0.0132  0.0140
  631MOL0     N85101   1.517   9.671   3.975  0.3318  0.3902 -0.4906
  631MOL0     C85102   0.340   9.431   4.288  1.1682 -0.2486 -0.2403
  631MOL0     C85103   0.206   9.470   4.301  0.1612  0.1411 -0.0806
  631MOL0     C85104  -0.170   9.760   4.195 -0.1811 -0.0056  0.8307
  631MOL0     C85105  -0.254   9.657   4.256 -0.3813 -0.0466 -0.4328
  631MOL0     C85106  -0.391   9.659   4.234  1.4474  0.3644 -0.8729
  631MOL0     C85107  -0.455   9.746   4.146 -0.0824  0.3520 -0.6927
  631MOL0     O85108  -0.590   9.721   4.122 -0.6375 -0.4966  0.3472
  631MOL0     C85109  -0.653   9.793   4.014  0.3480 -0.7880  0.3551
  631MOL0     C85110  -0.791   9.737   4.002 -0.2448  0.4312 -0.1795
  631MOL0     C85111  -0.781   9.596   3.945  0.2111 -0.0652 -0.2732
  631MOL0     C85112  -0.928   9.548   3.907 -1.2281  0.6243 -0.9418
  631MOL0     C85113  -0.960   9.418   3.962 -0.4437 -0.3595  0.0544
  631MOL0     C85114  -0.988   9.313   4.016  0.7582 -0.2522 -0.0242
  631MOL0     C85115  -0.374   9.843   4.088  0.2247 -0.0779  0.0569
  631MOL0     C85116  -0.237   9.860   4.114 -0.2720 -0.0767  0.7292
  631MOL0     C85117  -0.158   9.971   4.039 -0.0061  1.0755  0.0789
  631MOL0     H85118   0.234   9.744   4.096  2.6762  0.8407 -0.9109
  631MOL0     H85119   0.460   9.657   4.076  0.6754  0.2373  0.5180
  631MOL0     H85120   0.639   9.643   4.213 -1.5089  1.3553  2.4903
  631MOL0     H85121   0.613   9.570   4.368 -1.6601  1.2803 -0.6415
  631MOL0     H85122   0.797   9.399   4.336 -1.3545 -1.2564 -1.0931
  631MOL0     H85123   0.846   9.573   4.332  0.5345  2.0531 -2.0292
  631MOL0     H85124   0.795   9.525   4.068  1.0920  1.0811 -0.7422
  631MOL0     H85125   0.844   9.361   4.117  3.6950 -0.5076 -2.6401
  631MOL0     H85126   1.060   9.450   4.216 -0.9106 -0.6908 -0.2798
  631MOL0     H85127   1.057   9.453   4.039 -2.9942  2.0716 -1.9682
  631MOL0     H85128   0.991   9.678   4.021  0.9257 -1.5153 -1.3642
  631MOL0     H85129   1.004   9.697   4.202  0.2997 -2.7206  1.2269
  631MOL0     H85130   1.225   9.660   4.214  0.8582 -1.0644 -0.8588
  631MOL0     H85131   1.241   9.609   4.045 -3.3293 -1.0924 -2.2460
  631MOL0     H85132   1.173   9.894   4.145 -0.7325  0.4568  0.7365
  631MOL0     H85133   1.185   9.848   3.974  0.6397  1.8643  0.6146
  631MOL0     H85134   1.378   9.941   4.065 -2.9934  0.6061  2.4172
  631MOL0     H85135   1.414   9.804   4.166  0.3803 -1.5722 -1.0907
  631MOL0     H85136   1.376   9.911   3.797  1.7783  1.2047  2.0269
  631MOL0     H85137   1.639   9.827   3.593  1.3735 -0.5884  1.2244
  631MOL0     H85138   1.600   9.660   3.566  1.0881  0.3386 -0.7258
  631MOL0     H85139   1.363   9.713   3.524  0.5255 -0.3930 -0.0990
  631MOL0     H85140   1.405   9.887   3.549 -0.4915 -1.2985  0.8301
  631MOL0     H85141   1.573   9.852   3.347  0.5718  0.6013  0.1387
  631MOL0     H85142   1.397   9.847   3.306 -0.6070 -0.7645  1.9311
  631MOL0     H85143   1.408   9.604   3.351  0.5604  1.7799  0.3065
  631MOL0     H85144   1.588   9.631   3.346 -0.0021  1.5284  1.7075
  631MOL0     H85145   1.741   9.717   3.231  3.2392 -1.9951 -0.8716
  631MOL0     H85146   1.907   9.810   3.062  0.7275  1.0696 -1.7976
  631MOL0     H85147   2.131   9.824   2.673  0.7131  0.4357 -4.8881
  631MOL0     H85148   2.302   9.950   2.545  0.1276 -0.9557  0.1065
  631MOL0     H85149   2.495  10.083   2.586 -0.8783 -1.1975 -0.5565
  631MOL0     H85150   2.448  10.136   2.422  1.6168  2.9947 -0.6780
  631MOL0     H85151   2.600  10.317   2.612 -0.0270 -0.7563 -0.2260
  631MOL0     H85152   2.671  10.221   2.479  0.6078 -0.6644 -0.6123
  631MOL0     H85153   2.529  10.330   2.308 -0.3611  0.2085 -0.2998
  631MOL0     H85154   2.436  10.410   2.437  0.0131  0.4053  0.9466
  631MOL0     H85155   2.733  10.474   2.393 -0.2168 -0.6748 -2.2102
  631MOL0     H85156   2.607  10.557   2.490 -1.3294  0.5372 -1.3105
  631MOL0     H85157   2.592  10.521   2.181  2.2161  0.7725 -0.6840
  631MOL0     H85158   2.676  10.650   2.246 -0.7259  0.3522 -1.0321
  631MOL0     H85159   2.390  10.607   2.322 -0.8965  0.9264 -0.1211
  631MOL0     H85160   2.488  10.749   2.347 -1.9861 -0.5292  1.1611
  631MOL0     H85161   2.443  10.614   2.066 -0.6573 -0.3122  0.6127
  631MOL0     H85162   2.512  10.776   2.102  0.0666  0.2017  2.1798
  631MOL0     H85163   2.227  10.674   2.180  0.8985 -0.3929  0.3950
  631MOL0     H85164   2.273  10.848   2.169  0.6518  0.3405 -1.5720
  631MOL0     H85165   2.182  10.312   2.751 -0.7467 -0.5891  1.4464
  631MOL0     H85166   2.009  10.198   2.870  0.6486 -1.0243  0.9634
  631MOL0     H85167   1.597   9.808   2.761  0.6058  0.2944 -0.1012
  631MOL0     H85168   1.450   9.686   2.923  0.6811 -0.4800 -2.3412
  631MOL0     H85169   0.360   9.346   4.352 -1.1406 -0.1078  0.7989
  631MOL0     H85170   0.130   9.420   4.360  0.5033 -0.8335 -0.4454
  631MOL0     H85171  -0.211   9.582   4.321 -1.3737  0.8729  1.3618
  631MOL0     H85172  -0.446   9.580   4.285  0.6042  2.1017  1.0555
  631MOL0     H85173  -0.603   9.777   3.918  0.6035  0.6214  0.2408
  631MOL0     H85174  -0.674   9.898   4.033 -0.2990 -0.9179  0.3991
  631MOL0     H85175  -0.851   9.797   3.933 -1.0207  0.8322  0.8127
  631MOL0     H85176  -0.834   9.748   4.102  0.2108  1.3997 -0.0816
  631MOL0     H85177  -0.741   9.519   4.011 -0.5519  1.2022  1.7758
  631MOL0     H85178  -0.711   9.590   3.862 -0.0051  0.4714 -0.4973
  631MOL0     H85179  -1.005   9.623   3.928 -1.3568  0.6784 -1.5887
  631MOL0     H85180  -0.918   9.539   3.799 -2.3727  0.7024 -1.0651
  631MOL0     H85181  -0.992   9.216   4.061 -1.0553 -0.1565  0.1015
  631MOL0     H85182  -0.418   9.911   4.016  0.9580 -0.3254 -0.6471
  631MOL0     H85183  -0.220   9.990   3.951  0.4700 -1.3038 -0.8257
  631MOL0     H85184  -0.156  10.063   4.099 -2.7070  0.3842  1.3580
  631MOL0     H85185  -0.056   9.947   4.007  0.5969  2.6225  0.6938
  632MOL0     O85186   3.483   9.449   7.668 -0.5118  0.6351 -0.0432
  632MOL0     C85187   3.408   9.524   7.726 -0.3264 -0.7714  0.5006
  632MOL0     O85188   3.426   9.570   7.849 -0.2594  0.1366  0.0661
  632MOL0     C85189   3.540   9.538   7.919  0.1614  0.0809  0.3963
  632MOL0     C85190   3.533   9.487   8.049 -0.8882  0.7680 -0.4885
  632MOL0     C85191   3.648   9.463   8.117 -0.5606  0.3215  0.6117
  632MOL0     C85192   3.767   9.484   8.053 -0.0365 -0.3780 -0.2724
  632MOL0     O85193   3.889   9.455   8.103 -0.6376 -0.3925  0.2545
  632MOL0     C85194   3.894   9.362   8.209 -0.4301  0.4526 -0.4227
  632MOL0     C85195   4.044   9.331   8.243  0.6894 -0.2452 -0.1274
  632MOL0     C85196   4.116   9.461   8.282  1.0469  0.2731 -0.7295
  632MOL0     C85197   4.243   9.425   8.349  0.3889  0.8564 -0.1486
  632MOL0     C85198   4.317   9.542   8.402  0.0873 -0.2821  0.5627
  632MOL0     C85199   4.463   9.519   8.433  0.3161 -0.1707 -0.0923
  632MOL0     C85200   4.477   9.420   8.554  0.8437 -0.1098  0.1121
  632MOL0     C85201   4.620   9.366   8.560  0.5225  0.0639  0.1878
  632MOL0     N85202   4.717   9.480   8.577  0.5421 -0.6079  0.3317
  632MOL0     C85203   4.747   9.543   8.698  0.4794 -0.7018  0.8667
  632MOL0     C85204   4.857   9.616   8.666  0.1053 -0.1151 -0.0401
  632MOL0     C85205   4.943   9.690   8.770 -0.0991  0.7568  0.7210
  632MOL0     C85206   5.043   9.615   8.854 -0.1578  0.5345 -0.0264
  632MOL0     C85207   5.129   9.711   8.944 -0.4138  0.2357  0.1589
  632MOL0     C85208   5.233   9.637   9.029 -0.6028 -0.4622  1.0067
  632MOL0     O85209   5.288   9.727   9.129 -0.5018  0.1982 -0.0963
  632MOL0     C85210   5.426   9.733   9.140 -0.2798 -0.8970 -0.4614
  632MOL0     C85211   5.489   9.860   9.159  0.1079  0.7824 -0.2683
  632MOL0     C85212   5.631   9.874   9.158  0.0178 -0.1813 -0.1131
  632MOL0     C85213   5.708   9.758   9.128  0.5811  0.8917  0.1956
  632MOL0     C85214   5.853   9.763   9.101 -0.4269 -0.6991  0.2166
  632MOL0     O85215   5.917   9.881   9.113 -0.2393 -0.0516  0.5829
  632MOL0     C85216   6.034   9.893   9.037  0.9787  0.0321 -0.2939
  632MOL0     C85217   6.163   9.884   9.089 -0.0095  0.5913  1.3781
  632MOL0     C85218   6.279   9.878   9.011  0.4634 -0.0311  0.0941
  632MOL0     C85219   6.266   9.890   8.875 -0.2980  0.3888  0.6603
  632MOL0     O85220   6.376   9.877   8.793 -0.1469  0.2497 -0.1124
  632MOL0     C85221   6.485   9.972   8.815  0.0971  0.0829 -0.6101
  632MOL0     C85222   6.617   9.882   8.835  0.7447  0.1528  0.7711
  632MOL0     C85223   6.739   9.979   8.819 -0.2138 -0.3472 -0.8532
  632MOL0     C85224   6.814   9.954   8.681  0.5938  0.2838 -0.4539
  632MOL0     C85225   6.960  10.012   8.670  0.6219 -0.7352  1.1876
  632MOL0     C85226   6.971  10.159   8.699  0.1043 -0.4354  0.3673
  632MOL0     C85227   6.925  10.237   8.581  1.2692  0.1872 -0.9044
  632MOL0     C85228   6.897  10.387   8.592  0.4467 -0.2506 -0.9084
  632MOL0    Cl85229   6.927  10.455   8.428 -0.1816 -0.1416 -0.1514
  632MOL0     C85230   6.138   9.906   8.816 -0.0353 -0.0782 -0.0942
  632MOL0     C85231   6.019   9.906   8.899  0.0392  0.5388 -0.2810
  632MOL0     O85232   5.908   9.657   9.086  0.0765  0.8317 -0.2423
  632MOL0     C85233   5.638   9.634   9.099  0.5463  0.0480  0.2847
  632MOL0     C85234   5.505   9.621   9.120 -0.8610 -0.8355  0.7017
  632MOL0     N85235   4.884   9.605   8.534 -0.7148  0.1565 -0.6234
  632MOL0     N85236   4.804   9.524   8.477 -0.0227 -0.8293 -0.5374
  632MOL0     C85237   3.771   9.532   7.919 -0.2045  0.0500 -0.6996
  632MOL0     C85238   3.659   9.562   7.853 -1.0258  0.4350  0.6916
  632MOL0     C85239   3.284   9.573   7.657  0.0893 -0.5378 -0.1480
  632MOL0     C85240   3.199   9.658   7.733 -0.2819 -0.4819  0.4222
  632MOL0     C85241   3.083   9.722   7.672 -0.1459 -0.3760  0.0060
  632MOL0     C85242   3.046   9.683   7.540 -0.3654 -0.5556 -0.2476
  632MOL0     O85243   2.926   9.720   7.473 -0.3605 -0.7938 -0.4095
  632MOL0     C85244   2.824   9.775   7.560  0.0344  0.2370 -1.0825
  632MOL0     C85245   2.701   9.814   7.481  1.1230  0.4965 -0.4308
  632MOL0     C85246   2.634   9.699   7.422  0.1731  0.3689 -0.3080
  632MOL0     C85247   2.525   9.730   7.325 -0.1617 -0.6746  0.6128
  632MOL0     C85248   2.398   9.778   7.381 -0.0269  0.3596  0.2049
  632MOL0     C85249   2.300   9.824   7.433 -0.6996 -0.0444  0.2599
  632MOL0     C85250   3.140   9.608   7.466 -0.2653 -0.4700 -0.3213
  632MOL0     C85251   3.251   9.544   7.521  0.0135  0.2372 -0.0128
  632MOL0     C85252   3.328   9.461   7.431 -0.4898 -0.9219  0.0284
  632MOL0     H85253   3.432   9.469   8.083 -1.9307  3.5280 -1.8238
  632MOL0     H85254   3.626   9.423   8.215 -0.8376 -1.1784 -0.0353
  632MOL0     H85255   3.847   9.395   8.302  3.5534 -0.6770  2.2355
  632MOL0     H85256   3.850   9.269   8.173  0.0635 -0.1677  0.5223
  632MOL0     H85257   4.085   9.283   8.154  0.2871 -0.7343 -0.0569
  632MOL0     H85258   4.039   9.258   8.324  0.9017 -1.2313 -0.9785
  632MOL0     H85259   4.050   9.513   8.352 -1.2880 -1.8948 -1.1674
  632MOL0     H85260   4.145   9.520   8.195  1.9009 -0.2995 -0.8548
  632MOL0     H85261   4.217   9.356   8.429 -1.7729  1.7893  0.0159
  632MOL0     H85262   4.308   9.375   8.276  0.1954 -0.4232  0.5252
  632MOL0     H85263   4.313   9.606   8.314 -2.2272 -1.7370 -0.4771
  632MOL0     H85264   4.260   9.590   8.483  2.6577  4.3037  0.0188
  632MOL0     H85265   4.517   9.484   8.344 -3.5481 -1.0073 -2.3516
  632MOL0     H85266   4.503   9.619   8.454 -0.2654  0.4407 -1.7438
  632MOL0     H85267   4.402   9.341   8.542  2.0667 -1.0672 -1.4745
  632MOL0     H85268   4.454   9.468   8.650  0.5696 -1.8289  0.9371
  632MOL0     H85269   4.628   9.301   8.647 -1.8012 -0.3300  0.1671
  632MOL0     H85270   4.643   9.313   8.467  2.6622  3.1078 -1.1952
  632MOL0     H85271   4.696   9.540   8.794 -0.2547  0.7402  0.5480
  632MOL0     H85272   4.997   9.769   8.717 -0.6754  0.6326 -0.0680
  632MOL0     H85273   4.876   9.748   8.834 -2.4585  0.5835 -1.4352
  632MOL0     H85274   4.991   9.542   8.917  1.2639 -1.3345 -0.9220
  632MOL0     H85275   5.108   9.556   8.790 -1.0274  1.8730 -2.2535
  632MOL0     H85276   5.066   9.768   9.012 -0.9315 -0.8471  0.6130
  632MOL0     H85277   5.179   9.776   8.872 -1.9489  1.0110 -0.2524
  632MOL0     H85278   5.310   9.600   8.961 -2.0958 -2.4227  0.3072
  632MOL0     H85279   5.194   9.545   9.074 -0.5213  0.1088  2.3017
  632MOL0     H85280   5.417   9.932   9.197  0.9297  1.2265  0.4942
  632MOL0     H85281   5.672   9.968   9.193  0.3936 -0.8085  1.2272
  632MOL0     H85282   6.176   9.881   9.197 -0.1036  3.5462  1.5657
  632MOL0     H85283   6.376   9.862   9.056  1.0858 -1.2042 -1.5761
  632MOL0     H85284   6.489  10.034   8.725 -3.2471  1.8338  0.2697
  632MOL0     H85285   6.460  10.047   8.891 -0.2124  1.0873 -1.6662
  632MOL0     H85286   6.604   9.827   8.929 -2.5124 -2.5383 -0.9992
  632MOL0     H85287   6.626   9.800   8.762  0.2604  1.2981 -0.6179
  632MOL0     H85288   6.701  10.082   8.822 -1.1582 -0.6138 -2.2674
  632MOL0     H85289   6.812   9.962   8.898 -0.9824  0.1957 -0.0014
  632MOL0     H85290   6.756   9.991   8.596 -1.2462  1.2982  1.1460
  632MOL0     H85291   6.814   9.847   8.659  2.6134  0.3098 -0.7810
  632MOL0     H85292   6.993   9.988   8.568  1.0496 -1.0473  1.3958
  632MOL0     H85293   7.014   9.951   8.743 -1.3668 -2.9231  0.9459
  632MOL0     H85294   6.917  10.195   8.787  2.5648  1.0127  1.4000
  632MOL0     H85295   7.076  10.183   8.720 -0.2323 -0.3476  2.1042
  632MOL0     H85296   6.830  10.189   8.559  1.0840  0.7790 -1.4295
  632MOL0     H85297   6.998  10.226   8.500  0.5632  0.0362 -1.5275
  632MOL0     H85298   6.794  10.401   8.624  1.2304  2.1875  0.8995
  632MOL0     H85299   6.962  10.450   8.654  0.5684 -0.8946 -0.3768
  632MOL0     H85300   6.124   9.923   8.710  1.6132  0.2928 -0.2920
  632MOL0     H85301   5.921   9.917   8.855  0.8898  1.0627 -2.1217
  632MOL0     H85302   5.692   9.542   9.079  1.8077  0.7227  0.5132
  632MOL0     H85303   5.454   9.527   9.104 -0.2144 -0.7533 -2.2935
  632MOL0     H85304   3.872   9.555   7.889  1.1734 -0.8414  2.6895
  632MOL0     H85305   3.657   9.605   7.754  0.8371  1.7666  1.1876
  632MOL0     H85306   3.211   9.680   7.839 -0.5075 -1.5925  0.6841
  632MOL0     H85307   3.030   9.792   7.736  1.4502  0.7657  0.1723
  632MOL0     H85308   2.862   9.856   7.623 -0.6120 -0.1386 -0.1793
  632MOL0     H85309   2.786   9.694   7.624 -1.0955 -0.6817 -2.8139
  632MOL0     H85310   2.726   9.887   7.404 -1.7039  1.3424 -0.6855
  632MOL0     H85311   2.625   9.859   7.546  2.2940  3.6113 -1.0424
  632MOL0     H85312   2.599   9.630   7.499 -0.7801 -1.2275 -2.0545
  632MOL0     H85313   2.715   9.658   7.360 -0.5333 -0.6987 -0.5499
  632MOL0     H85314   2.554   9.807   7.253 -1.3934  1.2989  2.1212
  632MOL0     H85315   2.492   9.638   7.275  0.8693 -0.8885  0.2958
  632MOL0     H85316   2.210   9.869   7.470  0.4870  1.4159  1.5408
  632MOL0     H85317   3.123   9.577   7.363  0.9668 -0.6786 -0.4749
  632MOL0     H85318   3.281   9.452   7.333 -1.1541 -0.2095  0.2726
  632MOL0     H85319   3.430   9.496   7.418 -0.0854 -2.3441 -0.8722
  632MOL0     H85320   3.335   9.362   7.478  0.2100  0.0802  2.1682
  633MOL0     O85321   0.333   2.521   7.453 -0.1142 -0.2810 -0.6397
  633MOL0     C85322   0.310   2.404   7.423  0.2120  0.7062 -0.8726
  633MOL0     O85323   0.401   2.297   7.443  0.2349  0.8550  0.4859
  633MOL0     C85324   0.528   2.317   7.476 -0.3129 -0.1874  0.5672
  633MOL0     C85325   0.628   2.281   7.374  0.9102  0.1490  0.4559
  633MOL0     C85326   0.764   2.290   7.403 -0.1991 -0.1287  0.4190
  633MOL0     C85327   0.804   2.353   7.524  0.3422 -0.0530  0.6905
  633MOL0     O85328   0.939   2.359   7.549 -0.1614  0.8444 -0.2209
  633MOL0     C85329   0.985   2.397   7.682  0.2320 -0.1736 -0.0309
  633MOL0     C85330   1.129   2.347   7.701  0.2568  0.3897 -0.0628
  633MOL0     C85331   1.224   2.414   7.603  0.4457  0.2677  0.3946
  633MOL0     C85332   1.338   2.317   7.559 -0.3658 -0.2245  0.4991
  633MOL0     C85333   1.459   2.397   7.498  0.3142  0.4392  0.2966
  633MOL0     C85334   1.552   2.295   7.428  0.3020  0.7248 -1.0931
  633MOL0     C85335   1.647   2.372   7.337 -0.3027 -0.4199 -0.6360
  633MOL0     C85336   1.748   2.278   7.266 -0.8315 -0.8057  0.2875
  633MOL0     N85337   1.819   2.335   7.154  0.1360 -0.0861  0.4081
  633MOL0     C85338   1.892   2.259   7.066 -1.0934  0.2883  0.2269
  633MOL0     C85339   1.963   2.355   6.995 -0.1990  0.0592  0.2036
  633MOL0     C85340   2.066   2.348   6.893 -0.0159 -0.4551 -0.7958
  633MOL0     C85341   2.123   2.205   6.868  0.2119 -0.0632 -0.0871
  633MOL0     C85342   2.224   2.214   6.749  0.1103  0.3832 -0.5947
  633MOL0     C85343   2.282   2.078   6.703  0.2071  0.3519 -0.5447
  633MOL0     O85344   2.407   2.094   6.626 -0.4585 -0.0110  0.4120
  633MOL0     C85345   2.525   2.077   6.696 -0.8467 -0.7078 -0.7501
  633MOL0     C85346   2.591   1.957   6.713 -0.1249  0.0641  0.2931
  633MOL0     C85347   2.705   1.939   6.798  0.1788 -1.2003  0.0161
  633MOL0     C85348   2.765   2.051   6.855  0.4367  0.6235 -0.2611
  633MOL0     C85349   2.883   2.033   6.941  0.5725  0.4974 -0.2962
  633MOL0     O85350   2.901   1.900   6.987  0.5298 -0.4236 -0.2723
  633MOL0     C85351   3.020   1.862   7.041 -0.3404 -0.9398 -0.2424
  633MOL0     C85352   3.132   1.891   6.966  1.1689  0.1017  0.4676
  633MOL0     C85353   3.253   1.848   7.009 -0.6153  0.1995 -0.0246
  633MOL0     C85354   3.271   1.783   7.139 -0.0101 -0.3256  0.3853
  633MOL0     O85355   3.391   1.741   7.189 -0.0149 -0.4561  0.1532
  633MOL0     C85356   3.503   1.826   7.148 -0.7657 -0.5137 -0.1897
  633MOL0     C85357   3.621   1.829   7.242 -0.2612  0.0433  0.1005
  633MOL0     C85358   3.582   1.876   7.381 -0.0312 -0.0747 -0.2147
  633MOL0     C85359   3.571   2.035   7.393  0.2127  0.5021 -0.3654
  633MOL0     C85360   3.535   2.084   7.533  0.3101  0.1381  0.1116
  633MOL0     C85361   3.473   2.224   7.530  0.1156 -0.3114 -0.0416
  633MOL0     C85362   3.461   2.282   7.669 -0.3612 -0.0115 -0.0811
  633MOL0     C85363   3.424   2.433   7.668  0.1392  1.1964  0.3795
  633MOL0    Cl85364   3.267   2.460   7.583 -0.0277 -0.1384 -0.3137
  633MOL0     C85365   3.161   1.751   7.209  0.3215  0.9243 -0.2403
  633MOL0     C85366   3.029   1.778   7.160 -0.1776 -0.1128 -0.0593
  633MOL0     O85367   2.945   2.132   6.977  0.5077 -0.9088 -0.5685
  633MOL0     C85368   2.707   2.183   6.831 -0.3863  0.9940 -0.0397
  633MOL0     C85369   2.586   2.193   6.756 -1.0112  0.4080 -0.1274
  633MOL0     N85370   1.912   2.475   7.035  0.6465 -0.0979 -0.8091
  633MOL0     N85371   1.823   2.469   7.130  0.6429 -0.1925 -0.0720
  633MOL0     C85372   0.702   2.410   7.609 -0.1645 -0.3401 -0.8655
  633MOL0     C85373   0.565   2.386   7.589  0.6920  1.2496  0.4492
  633MOL0     C85374   0.176   2.375   7.379 -0.0901  0.5025  1.1476
  633MOL0     C85375   0.159   2.268   7.286 -0.2375 -0.5378  0.0731
  633MOL0     C85376   0.031   2.235   7.247 -0.1408 -0.0671  0.0992
  633MOL0     C85377  -0.083   2.294   7.298 -0.4139  0.0462  0.0856
  633MOL0     O85378  -0.192   2.224   7.261  0.1910  0.3271  0.0414
  633MOL0     C85379  -0.294   2.299   7.186 -0.0103 -0.6456  0.3759
  633MOL0     C85380  -0.427   2.229   7.214 -0.6747 -0.1336  0.1683
  633MOL0     C85381  -0.449   2.197   7.362  0.0467 -0.2798  0.6851
  633MOL0     C85382  -0.579   2.119   7.373 -0.8183  0.3001  0.4105
  633MOL0     C85383  -0.712   2.185   7.347 -0.0818  0.2370 -0.3029
  633MOL0     C85384  -0.817   2.242   7.316  0.7432  0.2306  0.3892
  633MOL0     C85385  -0.071   2.396   7.383 -0.0616 -0.6483  0.0232
  633MOL0     C85386   0.058   2.429   7.435  0.6784 -0.1390 -1.5599
  633MOL0     C85387   0.047   2.537   7.546  0.3851  0.1578  0.1470
  633MOL0     H85388   0.592   2.239   7.281  4.0102  1.6712 -1.5712
  633MOL0     H85389   0.831   2.248   7.329  0.8490  1.5813  0.3415
  633MOL0     H85390   1.000   2.505   7.693  1.0615  0.6394 -5.7393
  633MOL0     H85391   0.918   2.355   7.757  2.4725 -0.6681  1.7902
  633MOL0     H85392   1.141   2.241   7.678  0.3521  0.2203  0.7387
  633MOL0     H85393   1.158   2.362   7.806 -0.5002  1.2547  0.0335
  633MOL0     H85394   1.280   2.483   7.667  4.0313 -2.5219  0.5939
  633MOL0     H85395   1.180   2.458   7.513 -0.4927 -0.8594  0.2769
  633MOL0     H85396   1.371   2.262   7.648  1.9836  0.1383 -0.0902
  633MOL0     H85397   1.302   2.241   7.490  1.5606 -0.0494 -0.7709
  633MOL0     H85398   1.417   2.472   7.431 -0.4620  0.0090  0.2991
  633MOL0     H85399   1.523   2.437   7.577  3.0515 -2.1198 -0.4251
  633MOL0     H85400   1.601   2.230   7.501 -1.0769  1.2081  0.3200
  633MOL0     H85401   1.499   2.224   7.364  2.3210 -1.4923 -0.4109
  633MOL0     H85402   1.694   2.447   7.401  2.1615 -1.0227 -1.6441
  633MOL0     H85403   1.596   2.434   7.263 -1.0661  0.6470  0.7393
  633MOL0     H85404   1.821   2.228   7.331 -2.2939 -3.8679 -0.2180
  633MOL0     H85405   1.678   2.211   7.215 -0.5414 -1.5048  0.7761
  633MOL0     H85406   1.905   2.152   7.057  2.1251  0.7080 -1.8188
  633MOL0     H85407   2.031   2.398   6.802  1.5212  0.2385 -1.0459
  633MOL0     H85408   2.148   2.411   6.931 -1.4425  1.8127 -1.3069
  633MOL0     H85409   2.169   2.165   6.959 -0.9512 -1.3572 -0.0399
  633MOL0     H85410   2.038   2.139   6.850 -1.7731  1.9852  1.1849
  633MOL0     H85411   2.312   2.268   6.784  1.3638 -2.9594  1.9149
  633MOL0     H85412   2.177   2.271   6.668 -0.6166  0.6044 -0.0287
  633MOL0     H85413   2.223   2.028   6.626 -0.6610  1.3861 -0.5688
  633MOL0     H85414   2.294   2.013   6.790  0.8361  1.8575  0.5402
  633MOL0     H85415   2.538   1.874   6.667 -4.6205  3.0313 -0.5620
  633MOL0     H85416   2.739   1.842   6.833  3.4967  1.1102  4.2104
  633MOL0     H85417   3.139   1.946   6.873  1.8091 -1.5454 -0.4918
  633MOL0     H85418   3.339   1.865   6.945  0.8959 -1.7014  1.3832
  633MOL0     H85419   3.529   1.788   7.049 -2.5149 -2.0162 -0.1228
  633MOL0     H85420   3.476   1.932   7.141  3.3642  0.6790 -1.1106
  633MOL0     H85421   3.664   1.729   7.243 -0.2241  0.0356 -1.1085
  633MOL0     H85422   3.691   1.902   7.199 -0.6201  1.3012  1.5658
  633MOL0     H85423   3.491   1.828   7.419 -0.7740 -0.1814 -1.9776
  633MOL0     H85424   3.655   1.840   7.453 -2.3080 -0.0140  2.2839
  633MOL0     H85425   3.491   2.063   7.325 -2.6268 -0.2841  2.3714
  633MOL0     H85426   3.666   2.077   7.359  1.7200 -2.4891 -0.2112
  633MOL0     H85427   3.629   2.073   7.588  0.1759 -0.0572  0.3038
  633MOL0     H85428   3.464   2.011   7.572 -0.7891  1.1138 -0.0258
  633MOL0     H85429   3.535   2.292   7.470  0.4072 -0.8908 -0.4143
  633MOL0     H85430   3.379   2.212   7.476  0.4845 -2.7828 -0.2809
  633MOL0     H85431   3.556   2.279   7.722  0.0115  0.6595 -0.6915
  633MOL0     H85432   3.390   2.215   7.719  0.3127 -0.7407 -0.0854
  633MOL0     H85433   3.426   2.464   7.773 -0.2555  0.8887  0.4808
  633MOL0     H85434   3.497   2.484   7.605  1.0166 -2.0642 -1.5340
  633MOL0     H85435   3.170   1.705   7.307  2.0487 -2.9942 -2.0100
  633MOL0     H85436   2.942   1.740   7.213 -0.7057  1.7666  0.5146
  633MOL0     H85437   2.752   2.274   6.869  3.7576 -0.8349 -0.0330
  633MOL0     H85438   2.548   2.294   6.741  2.2633  2.0577  1.5961
  633MOL0     H85439   0.721   2.477   7.693 -0.0082 -0.0357 -1.1436
  633MOL0     H85440   0.494   2.429   7.659 -0.7145  2.0430 -1.3706
  633MOL0     H85441   0.248   2.218   7.249  1.7779  2.0438  1.1062
  633MOL0     H85442   0.026   2.143   7.189  1.2690  0.4778 -0.9442
  633MOL0     H85443  -0.272   2.301   7.079  0.4014  0.3591  0.4664
  633MOL0     H85444  -0.302   2.406   7.206  0.1391  0.1504 -3.2012
  633MOL0     H85445  -0.440   2.130   7.170  0.4033 -0.6729  1.0119
  633MOL0     H85446  -0.503   2.294   7.168 -0.9053  0.7196  1.6883
  633MOL0     H85447  -0.447   2.290   7.420  2.1085 -0.4957  1.0458
  633MOL0     H85448  -0.366   2.141   7.405 -0.8969 -1.7053  0.7433
  633MOL0     H85449  -0.570   2.026   7.317  0.1917  1.7145 -1.9384
  633MOL0     H85450  -0.581   2.097   7.480 -1.6040 -2.1667 -0.0435
  633MOL0     H85451  -0.915   2.281   7.296  0.5639 -0.4470 -0.1026
  633MOL0     H85452  -0.161   2.437   7.427  1.4927  1.0974  1.8093
  633MOL0     H85453  -0.053   2.545   7.590 -1.2783 -0.7882 -3.1147
  633MOL0     H85454   0.120   2.513   7.623 -1.5121 -1.4799  1.5722
  633MOL0     H85455   0.080   2.629   7.496  0.9244 -1.0414 -1.8119
  634MOL0     O85456   4.094   6.305   1.945 -0.0509  0.3964 -0.1059
  634MOL0     C85457   4.062   6.267   1.835  0.3203 -0.8507 -0.0131
  634MOL0     O85458   4.124   6.319   1.729  0.4169 -0.2103  0.2373
  634MOL0     C85459   4.228   6.410   1.745 -0.0710  0.0859 -0.8860
  634MOL0     C85460   4.351   6.349   1.789  0.0433 -0.2121  0.5765
  634MOL0     C85461   4.472   6.415   1.805  0.5158 -0.7810 -0.0442
  634MOL0     C85462   4.481   6.543   1.760  0.1228  0.4018 -0.2201
  634MOL0     O85463   4.587   6.628   1.768  0.7200 -0.1747  0.4234
  634MOL0     C85464   4.713   6.564   1.806 -0.8794 -1.0742  0.1203
  634MOL0     C85465   4.818   6.683   1.800  0.1355  0.6287 -0.5015
  634MOL0     C85466   4.960   6.621   1.817 -0.3197  0.0172 -0.2161
  634MOL0     C85467   5.000   6.643   1.963  0.2143  0.6142 -0.1068
  634MOL0     C85468   5.109   6.547   2.004 -0.2846  0.2332 -0.2937
  634MOL0     C85469   5.240   6.563   1.951 -0.2640  0.2587 -0.3610
  634MOL0     C85470   5.336   6.460   2.001 -0.3378  0.4179 -1.2115
  634MOL0     C85471   5.476   6.494   1.951 -0.4092 -0.7502  0.9303
  634MOL0     N85472   5.526   6.629   1.988  0.0148  0.2617  0.0496
  634MOL0     C85473   5.531   6.747   1.913  0.4641 -0.1807  0.2374
  634MOL0     C85474   5.577   6.844   2.002 -0.7263 -0.2128 -0.1193
  634MOL0     C85475   5.596   6.989   1.962  0.4708  1.1014  0.9734
  634MOL0     C85476   5.729   7.033   2.025 -0.9721 -0.4389  0.0434
  634MOL0     C85477   5.758   7.172   1.995  0.5767  0.7851 -0.6251
  634MOL0     C85478   5.856   7.237   2.090 -0.9408 -0.5532  0.0651
  634MOL0     O85479   5.983   7.213   2.027 -0.1752  0.0667 -0.5758
  634MOL0     C85480   6.099   7.247   2.092 -0.6681  0.0695  0.5017
  634MOL0     C85481   6.114   7.308   2.215 -0.0540  0.3503  0.8131
  634MOL0     C85482   6.248   7.345   2.259 -0.5107  0.2200 -0.3243
  634MOL0     C85483   6.358   7.315   2.177  1.0004 -0.3262 -0.9234
  634MOL0     C85484   6.494   7.359   2.216  0.9984  0.2311  0.0681
  634MOL0     O85485   6.595   7.318   2.134 -0.7431 -0.2778 -0.2361
  634MOL0     C85486   6.727   7.332   2.180  0.3107  0.0840  0.2345
  634MOL0     C85487   6.779   7.326   2.310 -0.2431 -0.5533 -0.2494
  634MOL0     C85488   6.916   7.351   2.336 -0.4496  0.6361 -0.1843
  634MOL0     C85489   7.005   7.376   2.234 -0.3312 -0.2851 -0.6339
  634MOL0     O85490   7.143   7.389   2.235 -0.4115  1.2848 -0.7016
  634MOL0     C85491   7.202   7.430   2.357 -0.3409  0.6022 -0.9590
  634MOL0     C85492   7.337   7.497   2.345  0.1769  0.3081 -0.5953
  634MOL0     C85493   7.400   7.537   2.489  0.6476  0.0627  0.2016
  634MOL0     C85494   7.510   7.645   2.475 -0.0137  0.5839 -0.6832
  634MOL0     C85495   7.583   7.679   2.603 -0.7482 -0.6072  0.2010
  634MOL0     C85496   7.695   7.788   2.601 -0.7562  0.4131  0.2754
  634MOL0     C85497   7.643   7.931   2.589  0.0049  1.4839  0.2560
  634MOL0     C85498   7.673   7.995   2.453  0.3051 -0.0539  0.1051
  634MOL0    Cl85499   7.637   7.891   2.303 -0.3094 -0.0396  0.1269
  634MOL0     C85500   6.952   7.374   2.105 -0.2914  0.5933 -0.0724
  634MOL0     C85501   6.814   7.356   2.082 -0.2604 -0.1749  0.4098
  634MOL0     O85502   6.503   7.426   2.319  0.4737 -0.1413 -0.5705
  634MOL0     C85503   6.340   7.247   2.063  1.0197  0.6259 -0.3836
  634MOL0     C85504   6.213   7.205   2.027  0.3110  0.2964  0.0809
  634MOL0     N85505   5.604   6.786   2.125 -0.1383  1.1386 -0.4972
  634MOL0     N85506   5.577   6.661   2.116 -0.3543  0.1498 -0.2783
  634MOL0     C85507   4.362   6.610   1.721 -0.8844  0.5071  0.1049
  634MOL0     C85508   4.240   6.546   1.712 -0.3506  0.3853 -0.2596
  634MOL0     C85509   3.927   6.204   1.813 -0.0094  0.2513 -0.7480
  634MOL0     C85510   3.864   6.224   1.693  1.0511  0.2328  1.4495
  634MOL0     C85511   3.751   6.151   1.656 -0.5952  0.0697  0.1588
  634MOL0     C85512   3.699   6.053   1.737  0.7016 -0.3425  0.1429
  634MOL0     O85513   3.590   5.972   1.718 -0.1321 -0.2011 -0.0651
  634MOL0     C85514   3.528   5.975   1.590 -0.6633 -0.6204 -0.6109
  634MOL0     C85515   3.428   5.859   1.586 -0.0737 -0.1592 -0.1056
  634MOL0     C85516   3.346   5.849   1.455 -0.1039 -0.9484  0.5223
  634MOL0     C85517   3.433   5.871   1.334  0.7521  0.0149 -0.2883
  634MOL0     C85518   3.358   5.821   1.218 -0.6159 -0.2880 -0.3526
  634MOL0     C85519   3.296   5.788   1.121 -0.0212  0.2311  0.5717
  634MOL0     C85520   3.765   6.032   1.863 -0.8271  0.0135 -0.1383
  634MOL0     C85521   3.878   6.108   1.906 -0.0550  0.1031 -0.2547
  634MOL0     C85522   3.933   6.086   2.040  0.9893  0.1446 -0.2746
  634MOL0     H85523   4.357   6.242   1.807  2.8849 -0.3218 -0.5466
  634MOL0     H85524   4.563   6.367   1.839  1.4151 -0.0970 -1.4063
  634MOL0     H85525   4.702   6.530   1.909  2.5112  0.5323  1.1583
  634MOL0     H85526   4.737   6.486   1.733  3.0588 -1.6399  1.8040
  634MOL0     H85527   4.796   6.764   1.871  5.2980  3.0186 -1.1665
  634MOL0     H85528   4.828   6.722   1.698 -0.4631 -0.1094 -0.8553
  634MOL0     H85529   5.042   6.665   1.759 -0.0731  0.1562  0.2308
  634MOL0     H85530   4.965   6.516   1.786  0.7906 -0.0072  0.0112
  634MOL0     H85531   5.045   6.739   1.991  1.5190 -0.5756  2.2292
  634MOL0     H85532   4.915   6.625   2.029  0.0006 -0.1762 -0.5883
  634MOL0     H85533   5.111   6.551   2.113  1.3795  1.2661 -0.3351
  634MOL0     H85534   5.071   6.446   1.983  0.7070 -0.9959  3.1394
  634MOL0     H85535   5.238   6.561   1.842  0.1480 -0.0829 -0.3657
  634MOL0     H85536   5.270   6.662   1.987 -0.1384 -0.3498  1.2835
  634MOL0     H85537   5.314   6.359   1.966  1.5712 -1.1047  1.6149
  634MOL0     H85538   5.345   6.462   2.110  0.5374  1.8702 -1.2862
  634MOL0     H85539   5.546   6.427   2.001 -2.0675 -1.4897  2.3713
  634MOL0     H85540   5.479   6.460   1.848 -0.3534  1.2708  0.2168
  634MOL0     H85541   5.493   6.763   1.813  1.4773  0.0799 -0.1141
  634MOL0     H85542   5.608   6.985   1.854 -0.1276 -2.5381  0.9254
  634MOL0     H85543   5.503   7.042   1.984 -0.0075  0.8045 -0.2630
  634MOL0     H85544   5.725   7.014   2.133 -0.5604 -2.8122 -0.3047
  634MOL0     H85545   5.815   6.971   1.998 -2.3296 -2.0142 -0.8494
  634MOL0     H85546   5.670   7.233   2.018 -0.1684 -1.3622  2.8120
  634MOL0     H85547   5.792   7.172   1.891 -1.1521 -1.7997 -1.2671
  634MOL0     H85548   5.841   7.220   2.197 -0.2825  2.2253  0.6763
  634MOL0     H85549   5.830   7.343   2.090  2.2211  0.3060 -0.7569
  634MOL0     H85550   6.025   7.343   2.267 -0.4987  1.2086 -0.4732
  634MOL0     H85551   6.251   7.389   2.358  0.9807 -0.1937 -0.1634
  634MOL0     H85552   6.710   7.310   2.393  2.7018 -1.2291  2.2538
  634MOL0     H85553   6.950   7.342   2.438  0.5114  2.1442 -0.3490
  634MOL0     H85554   7.137   7.500   2.411  1.4179  1.4076  0.2141
  634MOL0     H85555   7.215   7.343   2.423 -2.1709  0.3908 -0.8318
  634MOL0     H85556   7.401   7.429   2.289 -2.6455 -1.8449 -1.4352
  634MOL0     H85557   7.315   7.587   2.287 -3.0302 -0.9171 -1.5520
  634MOL0     H85558   7.317   7.572   2.551 -2.4458 -1.4149 -2.7599
  634MOL0     H85559   7.422   7.443   2.540 -1.4869  1.3509  3.8551
  634MOL0     H85560   7.465   7.730   2.422  0.0869  1.4359  0.5717
  634MOL0     H85561   7.576   7.595   2.404 -0.8613  1.2317 -1.9840
  634MOL0     H85562   7.626   7.586   2.643 -3.4340 -2.3258 -0.5745
  634MOL0     H85563   7.506   7.706   2.675 -0.6191  2.0124 -0.5634
  634MOL0     H85564   7.751   7.787   2.695  0.3643  1.5969 -0.3445
  634MOL0     H85565   7.758   7.761   2.515 -0.9698 -1.4985  0.6741
  634MOL0     H85566   7.677   7.985   2.678  2.5832  2.4284 -1.1946
  634MOL0     H85567   7.534   7.920   2.586 -0.1438  2.7184  0.5748
  634MOL0     H85568   7.613   8.086   2.446 -0.7260 -0.6780  0.5587
  634MOL0     H85569   7.780   8.019   2.455  0.0170  1.2601  0.9980
  634MOL0     H85570   7.022   7.391   2.024 -0.7193  0.2192 -0.5265
  634MOL0     H85571   6.784   7.359   1.978  0.2096 -2.7236  0.1458
  634MOL0     H85572   6.417   7.209   1.996  0.0371 -4.8425  1.1675
  634MOL0     H85573   6.190   7.139   1.945 -0.7031 -0.2159  0.7538
  634MOL0     H85574   4.370   6.717   1.704 -0.8754  0.4234 -0.4132
  634MOL0     H85575   4.147   6.594   1.683  0.7809  1.6765 -1.9395
  634MOL0     H85576   3.902   6.302   1.628 -0.6132  1.7405  2.2051
  634MOL0     H85577   3.705   6.173   1.560 -0.4713 -2.8655 -0.6910
  634MOL0     H85578   3.595   5.951   1.507 -1.2496 -0.4324 -1.1453
  634MOL0     H85579   3.486   6.076   1.586 -0.7927 -0.4634  2.4586
  634MOL0     H85580   3.348   5.880   1.657  0.7439 -0.9338  1.0820
  634MOL0     H85581   3.465   5.758   1.609  2.2536  0.4544 -0.8832
  634MOL0     H85582   3.265   5.923   1.460 -0.3387 -1.2323  0.9120
  634MOL0     H85583   3.292   5.754   1.453 -2.3023  0.1848  2.4036
  634MOL0     H85584   3.473   5.973   1.331  3.2691 -0.6676  3.4650
  634MOL0     H85585   3.526   5.815   1.350  1.2763  1.7565  4.3210
  634MOL0     H85586   3.251   5.751   1.031  0.4689  2.4054 -0.6516
  634MOL0     H85587   3.718   5.947   1.911 -2.4826  0.5586 -0.7368
  634MOL0     H85588   3.920   6.181   2.094 -2.8987 -0.8228  0.8524
  634MOL0     H85589   3.871   6.015   2.096  3.2395 -1.6581  0.0780
  634MOL0     H85590   4.036   6.050   2.044  0.2757 -2.0835 -0.3504
  635MOL0     O85591   5.300   7.999   4.838  0.1044 -0.5811 -0.0007
  635MOL0     C85592   5.347   8.107   4.850  0.2951 -0.1673 -0.0396
  635MOL0     O85593   5.480   8.140   4.847 -0.7368  0.1860 -0.2218
  635MOL0     C85594   5.570   8.048   4.881 -0.4620 -0.4021 -0.1553
  635MOL0     C85595   5.701   8.064   4.839  0.2475  0.5581  0.5914
  635MOL0     C85596   5.811   7.989   4.872 -0.4541  0.2743 -0.0118
  635MOL0     C85597   5.790   7.880   4.964  0.2531 -0.2818 -0.4339
  635MOL0     O85598   5.897   7.809   5.016 -0.0519 -0.3392 -0.7896
  635MOL0     C85599   6.027   7.852   5.001 -0.6179  0.1667  0.0948
  635MOL0     C85600   6.073   7.979   5.079  0.1927  1.5697  0.1292
  635MOL0     C85601   6.222   8.011   5.062  0.1756  1.0201 -0.7575
  635MOL0     C85602   6.276   8.104   5.170  0.0782 -0.1172 -1.0039
  635MOL0     C85603   6.430   8.129   5.160 -0.0587  0.2345  0.2150
  635MOL0     C85604   6.515   8.031   5.238 -0.8321  0.0562 -1.1343
  635MOL0     C85605   6.663   8.083   5.246 -0.5068  0.4826 -0.1680
  635MOL0     C85606   6.758   8.006   5.353 -0.0431 -0.4788 -0.0403
  635MOL0     N85607   6.881   8.069   5.376  0.4066 -0.6920 -0.0663
  635MOL0     C85608   6.981   8.079   5.281 -0.6729  0.3302 -0.8391
  635MOL0     C85609   7.067   8.164   5.339 -0.6244 -0.3628 -0.6360
  635MOL0     C85610   7.208   8.190   5.280 -0.3660  0.5082  1.0002
  635MOL0     C85611   7.259   8.334   5.313  0.0487  0.2695  0.0225
  635MOL0     C85612   7.410   8.331   5.281  0.7776  0.7484 -0.1818
  635MOL0     C85613   7.466   8.467   5.303 -0.4800 -0.0288  0.4447
  635MOL0     O85614   7.611   8.469   5.285 -0.0344  0.0596  0.3119
  635MOL0     C85615   7.681   8.570   5.342  0.3072 -0.6886 -0.1468
  635MOL0     C85616   7.640   8.680   5.420 -0.2022 -0.0489 -0.6232
  635MOL0     C85617   7.734   8.777   5.473 -0.9008 -0.7975  0.6000
  635MOL0     C85618   7.871   8.768   5.446  0.2065 -0.4072  0.3089
  635MOL0     C85619   7.971   8.865   5.491 -0.5766  0.3984 -0.1358
  635MOL0     O85620   7.940   8.954   5.588  0.1355 -0.5403 -0.1393
  635MOL0     C85621   8.031   9.054   5.605 -0.2372 -0.3239 -0.0815
  635MOL0     C85622   8.095   9.124   5.506 -0.3429  0.0417  0.1740
  635MOL0     C85623   8.170   9.242   5.529 -1.1340 -0.7731  0.3075
  635MOL0     C85624   8.186   9.288   5.665 -0.7691 -0.8926 -0.5105
  635MOL0     O85625   8.254   9.394   5.706  0.3476 -0.5856 -0.3780
  635MOL0     C85626   8.221   9.521   5.640  0.3487  0.3489  0.1502
  635MOL0     C85627   8.353   9.580   5.594 -0.6825  0.3223 -0.0646
  635MOL0     C85628   8.431   9.635   5.718  0.9881  0.1297 -0.0496
  635MOL0     C85629   8.388   9.776   5.747 -1.1487 -0.1266 -0.4031
  635MOL0     C85630   8.471   9.831   5.864  0.1241  0.0244  0.0427
  635MOL0     C85631   8.611   9.876   5.821 -0.2222 -0.8633 -0.2678
  635MOL0     C85632   8.624  10.011   5.743  0.7062 -0.5881 -0.2729
  635MOL0     C85633   8.765  10.042   5.710  0.6079 -0.3815  0.1880
  635MOL0    Cl85634   8.831   9.934   5.580  0.1385 -0.2544  0.2513
  635MOL0     C85635   8.135   9.209   5.770 -0.3482 -0.3033  0.5210
  635MOL0     C85636   8.060   9.093   5.740  0.7515  0.2063 -0.7145
  635MOL0     O85637   8.087   8.849   5.443  0.5227  0.1746 -0.7203
  635MOL0     C85638   7.910   8.664   5.353  1.4259 -0.1121  0.2492
  635MOL0     C85639   7.815   8.572   5.305  0.7394  0.6919 -0.2426
  635MOL0     N85640   7.028   8.190   5.469  0.8877 -0.5101  0.7973
  635MOL0     N85641   6.913   8.140   5.487 -0.4928  0.3746 -0.6419
  635MOL0     C85642   5.657   7.847   4.995 -0.5864 -0.5530 -0.6423
  635MOL0     C85643   5.548   7.935   4.963 -0.3842  0.0772 -0.2916
  635MOL0     C85644   5.262   8.224   4.852 -0.0185 -0.8539  0.3041
  635MOL0     C85645   5.313   8.335   4.927 -0.3544  0.7362 -0.2284
  635MOL0     C85646   5.232   8.447   4.953 -0.6412 -0.4495  0.8972
  635MOL0     C85647   5.102   8.458   4.899 -0.5260  0.2736 -0.0811
  635MOL0     O85648   4.996   8.546   4.929 -0.1833 -1.2412 -0.2850
  635MOL0     C85649   5.020   8.636   5.043  0.0519 -0.3423  0.1816
  635MOL0     C85650   4.907   8.742   5.061 -0.2067  0.7326  0.4068
  635MOL0     C85651   4.949   8.859   5.156  0.0482  0.0862 -0.5944
  635MOL0     C85652   4.828   8.940   5.199  0.2011 -0.5563 -0.3692
  635MOL0     C85653   4.758   8.995   5.076  0.3217  0.1477 -0.8127
  635MOL0     C85654   4.703   9.046   4.978  0.1991 -0.2137  0.5804
  635MOL0     C85655   5.061   8.357   4.817  0.2258 -0.6710 -0.0996
  635MOL0     C85656   5.132   8.241   4.792 -0.1780  0.3927 -0.2481
  635MOL0     C85657   5.057   8.134   4.707  0.4487  0.1490 -1.5366
  635MOL0     H85658   5.725   8.141   4.766  2.6158  0.5775  1.3026
  635MOL0     H85659   5.906   8.021   4.832 -0.4522 -1.6508 -1.7768
  635MOL0     H85660   6.089   7.771   5.042  1.1719  0.7094 -1.3822
  635MOL0     H85661   6.056   7.839   4.896 -1.5092  0.7914 -0.2412
  635MOL0     H85662   6.042   7.957   5.182 -2.2001  1.4257 -0.5739
  635MOL0     H85663   6.014   8.067   5.053  0.7701  2.0142  0.2873
  635MOL0     H85664   6.251   8.047   4.963  1.7097 -2.4243 -1.7075
  635MOL0     H85665   6.283   7.923   5.084 -2.2153 -0.2587  1.2166
  635MOL0     H85666   6.231   8.204   5.169 -0.4068 -0.2040  1.9293
  635MOL0     H85667   6.249   8.075   5.272  2.3805 -0.0836 -0.3416
  635MOL0     H85668   6.458   8.144   5.055 -1.9501  2.5397 -0.0400
  635MOL0     H85669   6.452   8.227   5.203  0.4364  0.6682 -0.9652
  635MOL0     H85670   6.465   8.031   5.335 -2.2084 -1.8392 -1.7780
  635MOL0     H85671   6.500   7.927   5.209 -3.3425 -0.3238  1.1561
  635MOL0     H85672   6.663   8.189   5.276 -0.4441  0.5436 -0.3883
  635MOL0     H85673   6.700   8.088   5.143  1.0059  3.8038  0.3939
  635MOL0     H85674   6.702   8.005   5.447 -2.9751 -1.8395 -1.6665
  635MOL0     H85675   6.784   7.905   5.320  2.7636  0.0641  0.2693
  635MOL0     H85676   6.995   8.037   5.182 -2.2825  3.3425 -2.4993
  635MOL0     H85677   7.278   8.120   5.327 -1.4606  1.4151  4.2712
  635MOL0     H85678   7.215   8.174   5.172 -1.0198 -2.5458  1.3248
  635MOL0     H85679   7.209   8.408   5.250 -0.1276  0.2164  0.1018
  635MOL0     H85680   7.243   8.365   5.417  2.1386  0.6288  0.2840
  635MOL0     H85681   7.430   8.291   5.182 -1.6209  0.7366 -0.7166
  635MOL0     H85682   7.463   8.264   5.349  2.1546 -0.3017 -2.2023
  635MOL0     H85683   7.431   8.491   5.404  1.1343  1.1000  0.7772
  635MOL0     H85684   7.414   8.537   5.237  1.0396  1.9590  1.2313
  635MOL0     H85685   7.537   8.687   5.453 -0.1029 -1.7679  0.1297
  635MOL0     H85686   7.703   8.864   5.531  0.0811  0.3440 -0.5287
  635MOL0     H85687   8.067   9.096   5.404  0.0838 -4.1050  0.9968
  635MOL0     H85688   8.233   9.286   5.453  1.1202 -3.5772  0.3938
  635MOL0     H85689   8.163   9.516   5.547 -0.8092  2.9677  0.6357
  635MOL0     H85690   8.165   9.590   5.704 -1.8722 -0.2306 -1.0626
  635MOL0     H85691   8.425   9.505   5.561  1.6046  1.0333  2.8946
  635MOL0     H85692   8.336   9.660   5.521 -0.2412  2.7223  2.2887
  635MOL0     H85693   8.422   9.572   5.807 -1.2394  0.0141 -0.3007
  635MOL0     H85694   8.536   9.635   5.686  0.1331 -0.4714 -3.2562
  635MOL0     H85695   8.282   9.778   5.771 -0.4828 -1.1876  3.2863
  635MOL0     H85696   8.405   9.846   5.664  3.4740 -0.9948 -0.4969
  635MOL0     H85697   8.497   9.755   5.938  3.2530 -0.4210 -1.3551
  635MOL0     H85698   8.428   9.921   5.911 -0.1749  0.0972 -0.3647
  635MOL0     H85699   8.673   9.886   5.911  1.2103 -1.5241 -1.1560
  635MOL0     H85700   8.657   9.809   5.748 -1.5765 -1.3849 -0.6763
  635MOL0     H85701   8.592  10.086   5.816  0.3510  1.1554 -2.1273
  635MOL0     H85702   8.564  10.017   5.651  0.5434  0.0055 -0.1324
  635MOL0     H85703   8.767  10.142   5.666  2.7415 -0.6016 -0.3543
  635MOL0     H85704   8.833  10.049   5.796  1.6881  1.3873 -0.7439
  635MOL0     H85705   8.148   9.244   5.871  0.7341  0.3781  0.1635
  635MOL0     H85706   8.015   9.030   5.815  2.4307 -0.4744 -0.2334
  635MOL0     H85707   8.005   8.656   5.302  0.4366 -1.1827 -1.5464
  635MOL0     H85708   7.848   8.484   5.251 -1.1317 -0.1564 -0.0551
  635MOL0     H85709   5.643   7.763   5.063 -1.8215 -0.1104 -0.3116
  635MOL0     H85710   5.454   7.914   5.011 -0.5509  1.8707  0.2398
  635MOL0     H85711   5.412   8.333   4.971 -0.5309  1.0942  0.1900
  635MOL0     H85712   5.271   8.526   5.016 -2.3460  2.5560 -1.5779
  635MOL0     H85713   5.113   8.689   5.024 -0.9579  0.8130 -1.8621
  635MOL0     H85714   5.025   8.578   5.136 -0.8982  0.2128  0.5979
  635MOL0     H85715   4.818   8.696   5.105 -0.8168  1.4923 -0.0250
  635MOL0     H85716   4.873   8.788   4.968  0.2103  1.0335  0.4013
  635MOL0     H85717   5.018   8.920   5.098  2.3288  0.3954  2.2093
  635MOL0     H85718   5.001   8.827   5.247  2.5269  2.4342 -1.0672
  635MOL0     H85719   4.755   8.881   5.254 -1.9515  0.2535 -2.2147
  635MOL0     H85720   4.860   9.016   5.271  1.1027 -2.1754  1.0104
  635MOL0     H85721   4.642   9.094   4.904  2.5767  3.5362  0.8113
  635MOL0     H85722   4.965   8.372   4.769  1.3384  1.2082 -1.9109
  635MOL0     H85723   5.121   8.099   4.625 -0.4294  0.3508 -2.3309
  635MOL0     H85724   5.036   8.049   4.772 -3.6616  2.4513  0.4938
  635MOL0     H85725   4.962   8.174   4.671  0.4866  0.5474 -1.2003
  636MOL0     O85726   2.698  10.330  10.874 -0.3453  0.1413 -0.7347
  636MOL0     C85727   2.644  10.428  10.822  1.0295 -0.1524 -0.0063
  636MOL0     O85728   2.711  10.550  10.792 -0.1528  0.4413  0.0408
  636MOL0     C85729   2.847  10.548  10.822 -0.6108 -0.0534 -0.5637
  636MOL0     C85730   2.945  10.537  10.721 -0.5569 -0.2534 -0.4180
  636MOL0     C85731   3.079  10.523  10.767 -0.0572 -0.0014 -0.3514
  636MOL0     C85732   3.116  10.521  10.901 -0.4942  0.0626 -0.6199
  636MOL0     O85733   3.248  10.505  10.940 -0.3572  0.1126 -0.1035
  636MOL0     C85734   3.264  10.469  11.082 -0.3751  0.1148 -0.1270
  636MOL0     C85735   3.409  10.463  11.115  0.4295  0.0550 -0.2034
  636MOL0     C85736   3.442  10.370  11.235 -0.4653 -0.5044 -0.0419
  636MOL0     C85737   3.433  10.434  11.368 -0.1096  0.6522 -0.1643
  636MOL0     C85738   3.528  10.546  11.378 -0.6189 -1.0193  0.7431
  636MOL0     C85739   3.554  10.590  11.521 -0.7296 -0.6760 -0.0055
  636MOL0     C85740   3.676  10.692  11.540  0.1244 -0.0105  0.4428
  636MOL0     C85741   3.720  10.707  11.680 -0.6231 -0.2292  0.8020
  636MOL0     N85742   3.837  10.796  11.669  0.4741 -0.6925 -0.2690
  636MOL0     C85743   3.967  10.753  11.643  0.3769 -0.1334 -0.8281
  636MOL0     C85744   4.042  10.865  11.651  0.3077  1.1387  0.0723
  636MOL0     C85745   4.193  10.857  11.641 -0.3645  0.7831 -0.4346
  636MOL0     C85746   4.274  10.895  11.762  0.0113 -0.2462  0.0708
  636MOL0     C85747   4.399  10.809  11.784 -0.0695  0.1412 -0.2788
  636MOL0     C85748   4.465  10.839  11.922  0.4950 -0.1764  0.6487
  636MOL0     O85749   4.576  10.744  11.929  0.0663 -0.4130  0.2736
  636MOL0     C85750   4.685  10.812  11.983 -0.1228 -0.1145  0.7436
  636MOL0     C85751   4.795  10.842  11.904  0.3076  0.0230  0.1301
  636MOL0     C85752   4.915  10.886  11.955 -0.5057  0.0424 -0.4657
  636MOL0     C85753   4.923  10.909  12.100 -0.3078  0.5284  0.0198
  636MOL0     C85754   5.058  10.941  12.160  0.0021 -0.7980 -0.1205
  636MOL0     O85755   5.164  10.956  12.074 -0.6176  0.0255  0.3402
  636MOL0     C85756   5.283  11.026  12.089 -0.7771 -0.2940 -0.3611
  636MOL0     C85757   5.340  11.069  12.207  0.3712 -0.3372 -0.4060
  636MOL0     C85758   5.467  11.127  12.218 -0.2573  0.5748  0.5346
  636MOL0     C85759   5.541  11.141  12.098 -0.5982  0.1711 -0.1571
  636MOL0     O85760   5.661  11.206  12.087 -0.5958  1.0999 -0.3655
  636MOL0     C85761   5.731  11.230  12.209  0.3287  0.5611 -0.7382
  636MOL0     C85762   5.870  11.272  12.174 -0.1203  0.0090 -0.4595
  636MOL0     C85763   5.955  11.164  12.089  0.4973  0.3625 -0.5634
  636MOL0     C85764   6.092  11.209  12.058 -0.5441 -0.0557 -0.4305
  636MOL0     C85765   6.149  11.140  11.929 -0.1299 -0.5905 -0.0725
  636MOL0     C85766   6.300  11.153  11.928  0.6908  0.3423  0.1517
  636MOL0     C85767   6.365  11.046  12.007  0.5507 -0.6476  0.2117
  636MOL0     C85768   6.510  11.044  11.978  0.3913 -0.1582  0.1761
  636MOL0    Cl85769   6.594  10.929  12.089  0.1863 -0.2611  0.5538
  636MOL0     C85770   5.492  11.092  11.985 -0.6490  0.1436 -0.4325
  636MOL0     C85771   5.370  11.029  11.982 -0.7908 -0.4868  0.3626
  636MOL0     O85772   5.069  10.984  12.277 -0.0815 -0.4758 -0.6787
  636MOL0     C85773   4.809  10.898  12.179  0.4269 -0.0136  0.6768
  636MOL0     C85774   4.695  10.840  12.122  0.1635 -0.0892  0.0971
  636MOL0     N85775   3.960  10.979  11.670  1.4123  0.0181 -0.5091
  636MOL0     N85776   3.836  10.930  11.686  0.6581 -0.9303  0.4787
  636MOL0     C85777   3.012  10.542  10.994 -0.3539  0.6176  0.2060
  636MOL0     C85778   2.878  10.561  10.958  0.5471  0.4469 -0.1843
  636MOL0     C85779   2.495  10.425  10.812 -0.2654 -0.2049  0.8826
  636MOL0     C85780   2.430  10.546  10.769 -0.0303 -0.1684 -0.6584
  636MOL0     C85781   2.292  10.555  10.765 -0.1998 -0.3221  0.0374
  636MOL0     C85782   2.211  10.456  10.805  0.9313  0.1117  0.4753
  636MOL0     O85783   2.074  10.451  10.798  0.1266 -0.3648 -0.3469
  636MOL0     C85784   2.015  10.561  10.722 -0.1891 -0.6302  0.4374
  636MOL0     C85785   1.864  10.545  10.694 -0.3400 -0.0709 -0.7238
  636MOL0     C85786   1.781  10.675  10.714  0.3014 -0.0434  0.4809
  636MOL0     C85787   1.663  10.669  10.625 -0.2643  0.2892  0.1059
  636MOL0     C85788   1.579  10.789  10.656  0.5270 -0.6047  0.3706
  636MOL0     C85789   1.541  10.897  10.697  0.6089 -0.7535  0.0666
  636MOL0     C85790   2.264  10.339  10.846 -0.4449  0.2201 -0.1372
  636MOL0     C85791   2.405  10.318  10.848  0.3501 -0.1361  0.3950
  636MOL0     C85792   2.451  10.185  10.902 -0.0456  0.3341  0.2760
  636MOL0     H85793   2.916  10.529  10.617 -3.3748  2.4451  0.0113
  636MOL0     H85794   3.160  10.498  10.699  0.5843  2.0994 -0.4445
  636MOL0     H85795   3.236  10.540  11.161  1.7575  0.8587  0.0362
  636MOL0     H85796   3.226  10.369  11.103 -1.3303  0.9253  2.3767
  636MOL0     H85797   3.450  10.564  11.126  1.4544 -0.2464 -1.0643
  636MOL0     H85798   3.462  10.416  11.032  0.6747  0.2778 -0.1748
  636MOL0     H85799   3.547  10.343  11.226  0.3351  2.7741 -2.6361
  636MOL0     H85800   3.371  10.287  11.234  1.5773 -2.3187 -0.5534
  636MOL0     H85801   3.328  10.460  11.385  0.1562  2.1476 -0.6726
  636MOL0     H85802   3.455  10.349  11.434  0.4474 -0.5662 -1.8426
  636MOL0     H85803   3.618  10.519  11.322 -2.2767 -3.1677 -1.0196
  636MOL0     H85804   3.492  10.638  11.331  0.2773 -1.1811 -0.2906
  636MOL0     H85805   3.470  10.654  11.548  0.7058  0.8060  1.2299
  636MOL0     H85806   3.555  10.499  11.583 -0.6397  0.2963  1.4719
  636MOL0     H85807   3.641  10.788  11.501 -0.0974 -0.1571  0.2809
  636MOL0     H85808   3.754  10.655  11.473 -1.7151 -3.2390 -0.1099
  636MOL0     H85809   3.636  10.754  11.731 -0.9404 -0.9537  0.9576
  636MOL0     H85810   3.739  10.618  11.741 -1.3484 -0.7848  0.2415
  636MOL0     H85811   3.996  10.651  11.623  1.4358 -0.3436  1.4586
  636MOL0     H85812   4.221  10.755  11.614  0.0330  1.2072 -1.7058
  636MOL0     H85813   4.239  10.917  11.562  0.5006 -0.5952 -1.0045
  636MOL0     H85814   4.314  10.996  11.752  2.4668 -1.1835 -0.0486
  636MOL0     H85815   4.205  10.889  11.847  2.0733  2.1475  2.0768
  636MOL0     H85816   4.475  10.813  11.706  0.6386 -1.1259  0.3209
  636MOL0     H85817   4.374  10.703  11.790  0.0614  0.1806  1.5360
  636MOL0     H85818   4.386  10.830  11.997 -0.0409 -0.3858  0.0641
  636MOL0     H85819   4.489  10.946  11.930  2.3910 -0.6529  1.8006
  636MOL0     H85820   4.805  10.816  11.799  1.8492  1.1125 -0.0273
  636MOL0     H85821   4.990  10.894  11.876 -1.5679  0.3022 -1.4813
  636MOL0     H85822   5.292  11.060  12.304 -0.9418  0.9106 -0.8893
  636MOL0     H85823   5.500  11.171  12.312 -0.2879 -0.4084  1.0158
  636MOL0     H85824   5.675  11.308  12.261 -0.4861 -0.5402  0.0725
  636MOL0     H85825   5.732  11.138  12.269  2.7128  0.1186 -1.3213
  636MOL0     H85826   5.868  11.373  12.131 -1.8457  0.0079 -0.4809
  636MOL0     H85827   5.918  11.285  12.271 -2.3586  2.1637  0.4752
  636MOL0     H85828   5.957  11.065  12.136  2.0761  0.8649  0.5004
  636MOL0     H85829   5.910  11.151  11.990  0.8995 -1.5064 -0.5427
  636MOL0     H85830   6.153  11.185  12.146 -0.2055 -1.0715 -0.9289
  636MOL0     H85831   6.094  11.317  12.040  1.4041  0.1017  0.4441
  636MOL0     H85832   6.103  11.186  11.840  0.7363  1.1496  0.3174
  636MOL0     H85833   6.115  11.037  11.926 -0.6072 -0.4573 -3.0211
  636MOL0     H85834   6.332  11.140  11.824  1.8837  2.0213  0.2630
  636MOL0     H85835   6.326  11.255  11.958 -0.1275  0.5500  0.1810
  636MOL0     H85836   6.321  10.948  11.987 -1.2006  0.1693 -0.1344
  636MOL0     H85837   6.342  11.067  12.112 -0.6118  1.5247 -0.4058
  636MOL0     H85838   6.531  11.026  11.872  0.8209 -1.3446  0.4419
  636MOL0     H85839   6.545  11.147  11.989 -1.3158  0.4750 -0.0532
  636MOL0     H85840   5.556  11.100  11.897  0.8145 -3.7862  0.0982
  636MOL0     H85841   5.349  10.984  11.886 -0.3186  1.1118 -0.5080
  636MOL0     H85842   4.801  10.912  12.286 -0.0705 -2.1355  0.9682
  636MOL0     H85843   4.615  10.809  12.188  0.4482  1.3878  1.1902
  636MOL0     H85844   3.036  10.538  11.099  1.0721 -0.0247 -0.1147
  636MOL0     H85845   2.803  10.569  11.037 -0.9982  0.1849 -1.5800
  636MOL0     H85846   2.483  10.635  10.737  1.8016  0.3496  3.2799
  636MOL0     H85847   2.259  10.648  10.721  1.0998 -0.6465 -1.7238
  636MOL0     H85848   2.058  10.570  10.622  0.9900 -2.2368  0.7497
  636MOL0     H85849   2.038  10.655  10.774 -1.6258 -0.0324  0.0362
  636MOL0     H85850   1.823  10.472  10.764  1.4083  2.3437  3.1678
  636MOL0     H85851   1.843  10.506  10.594 -0.0790 -3.9965  0.5664
  636MOL0     H85852   1.854  10.749  10.677  0.3092 -0.9035 -1.3596
  636MOL0     H85853   1.754  10.697  10.817  0.1232  0.2773  0.3692
  636MOL0     H85854   1.686  10.669  10.518  0.3484 -1.3970  0.2176
  636MOL0     H85855   1.619  10.572  10.649  0.3776  0.2380  1.1024
  636MOL0     H85856   1.514  10.997  10.723  0.2489 -0.3747 -1.6684
  636MOL0     H85857   2.201  10.258  10.881  0.7220 -0.5072  0.3711
  636MOL0     H85858   2.503  10.206  10.996 -1.4393  0.6209  1.0015
  636MOL0     H85859   2.377  10.105  10.912  0.9709 -0.9280 -1.6418
  636MOL0     H85860   2.525  10.127  10.845 -0.6095  0.5065 -0.6569
  637MOL0     O85861   8.051   8.346   0.714  0.6256 -0.0270 -0.3513
  637MOL0     C85862   8.000   8.374   0.822 -0.1754  0.3693 -0.4404
  637MOL0     O85863   8.043   8.475   0.906  0.0404  0.2089 -0.3455
  637MOL0     C85864   8.148   8.546   0.855 -0.9768 -0.6033 -0.6589
  637MOL0     C85865   8.121   8.654   0.766  0.9960  0.8400 -0.2889
  637MOL0     C85866   8.218   8.754   0.738  0.5333  0.0754 -0.0057
  637MOL0     C85867   8.353   8.732   0.788  0.0744 -0.2020  0.5293
  637MOL0     O85868   8.461   8.816   0.757 -0.5391 -0.0827 -0.1329
  637MOL0     C85869   8.447   8.944   0.686  0.0138  0.0574  0.2396
  637MOL0     C85870   8.580   9.010   0.648  0.1233 -0.1547 -0.2283
  637MOL0     C85871   8.682   9.018   0.761 -0.3782 -0.3186  0.7164
  637MOL0     C85872   8.822   9.075   0.719 -0.4337 -0.3126 -1.0939
  637MOL0     C85873   8.914   9.100   0.833 -0.6633 -1.3018 -0.4607
  637MOL0     C85874   9.056   9.168   0.800 -0.3145 -1.1002  0.2926
  637MOL0     C85875   9.051   9.287   0.701 -0.1029 -0.1698 -0.0736
  637MOL0     C85876   9.199   9.336   0.672 -0.7253 -0.1317  0.1818
  637MOL0     N85877   9.283   9.346   0.792 -0.0082  0.7429  0.2347
  637MOL0     C85878   9.299   9.459   0.865 -0.6106  0.9068 -0.0222
  637MOL0     C85879   9.408   9.433   0.945  1.1701  1.0297  0.6236
  637MOL0     C85880   9.461   9.532   1.038  0.5051  0.0626 -1.2870
  637MOL0     C85881   9.566   9.473   1.130  0.0133 -0.3199 -0.8362
  637MOL0     C85882   9.616   9.587   1.219 -1.0439  0.4302  0.1242
  637MOL0     C85883   9.668   9.514   1.352 -0.1004 -0.6229 -1.0903
  637MOL0     O85884   9.747   9.394   1.357 -0.4234 -0.4311  0.4540
  637MOL0     C85885   9.865   9.387   1.285  0.7685 -0.4449 -0.2078
  637MOL0     C85886   9.935   9.500   1.228  0.4819  0.1191 -0.3208
  637MOL0     C85887  10.065   9.476   1.177  1.0546 -0.3619  0.4181
  637MOL0     C85888  10.120   9.345   1.173 -0.3719  1.0572  0.3124
  637MOL0     C85889  10.247   9.324   1.109 -0.1327 -0.1724  0.4798
  637MOL0     O85890  10.314   9.218   1.146  0.2990 -0.6212 -0.5796
  637MOL0     C85891  10.433   9.190   1.088 -0.1770  0.3524 -0.4940
  637MOL0     C85892  10.437   9.152   0.959  0.1684 -0.6360 -0.1650
  637MOL0     C85893  10.553   9.130   0.893 -0.2421 -0.8518  0.5657
  637MOL0     C85894  10.677   9.127   0.963 -0.5472 -0.7836  0.5188
  637MOL0     O85895  10.778   9.092   0.874  0.2003  0.5939  0.2272
  637MOL0     C85896  10.917   9.125   0.900  0.1835 -0.6160 -0.4482
  637MOL0     C85897  10.982   9.014   0.978  0.6534 -0.2687  0.3233
  637MOL0     C85898  11.136   9.031   1.013 -0.8166 -0.7978 -0.4041
  637MOL0     C85899  11.178   8.906   1.087  0.5793 -0.8228 -0.1481
  637MOL0     C85900  11.323   8.887   1.121  0.4294  0.6830 -0.0673
  637MOL0     C85901  11.358   8.988   1.240 -0.1259 -0.0226  0.3900
  637MOL0     C85902  11.513   8.986   1.260 -0.5528 -0.2196 -0.6024
  637MOL0     C85903  11.550   9.064   1.391 -0.0915  0.1648  0.5613
  637MOL0    Cl85904  11.725   9.047   1.409  0.2071 -0.0083 -0.0721
  637MOL0     C85905  10.674   9.159   1.098 -0.4090  1.1758 -0.3107
  637MOL0     C85906  10.552   9.192   1.160  0.0067  0.2866 -0.3379
  637MOL0     O85907  10.285   9.400   1.024  0.3740  0.3446 -0.0330
  637MOL0     C85908  10.048   9.236   1.213  0.3742  0.0664 -0.4812
  637MOL0     C85909   9.920   9.259   1.279  0.8676  0.1099 -0.2042
  637MOL0     N85910   9.446   9.306   0.917 -0.1949  0.7267 -0.1808
  637MOL0     N85911   9.383   9.253   0.817  0.0267 -1.1763 -0.9125
  637MOL0     C85912   8.372   8.629   0.881  0.0960  0.7826 -0.1371
  637MOL0     C85913   8.272   8.535   0.913  0.2880 -0.6588 -0.2420
  637MOL0     C85914   7.874   8.296   0.849  0.1884  0.0941 -1.1823
  637MOL0     C85915   7.816   8.326   0.976 -0.1607 -0.7112 -0.4466
  637MOL0     C85916   7.714   8.253   1.029 -0.2062  1.1565 -0.5673
  637MOL0     C85917   7.664   8.136   0.967  0.7193 -0.9144 -0.0496
  637MOL0     O85918   7.565   8.058   1.028 -0.6679 -0.0329  0.1033
  637MOL0     C85919   7.448   8.106   0.974 -0.0617 -0.0262  0.5268
  637MOL0     C85920   7.332   8.021   1.035 -0.0327 -0.3346 -0.3187
  637MOL0     C85921   7.193   8.069   0.998  0.5887 -1.0856  0.0877
  637MOL0     C85922   7.093   7.976   1.066  0.5438 -0.4806  0.5913
  637MOL0     C85923   6.955   8.022   1.065 -0.4439  0.2168  0.4283
  637MOL0     C85924   6.838   8.052   1.041 -0.1816 -0.4325  0.6316
  637MOL0     C85925   7.715   8.102   0.846 -0.0239 -0.1585  0.3020
  637MOL0     C85926   7.817   8.183   0.779  0.6548 -0.4316 -0.3275
  637MOL0     C85927   7.869   8.133   0.646  0.6892  0.4114  0.6636
  637MOL0     H85928   8.017   8.655   0.734  0.6293  2.6853  0.7970
  637MOL0     H85929   8.208   8.842   0.675  0.4618  1.4869  1.8569
  637MOL0     H85930   8.385   8.933   0.597  1.1216  1.4445 -0.7411
  637MOL0     H85931   8.388   9.010   0.750 -0.5743  0.6864 -0.9416
  637MOL0     H85932   8.552   9.112   0.617 -1.0323  0.0942  1.4852
  637MOL0     H85933   8.621   8.961   0.560 -2.4224  0.2053 -1.7116
  637MOL0     H85934   8.691   8.921   0.811 -1.9387 -3.0257 -3.6363
  637MOL0     H85935   8.644   9.093   0.831  0.8473 -1.4653  2.6921
  637MOL0     H85936   8.880   9.038   0.634  4.1375  1.3041  1.0130
  637MOL0     H85937   8.794   9.171   0.675  0.6505  0.1681 -0.7639
  637MOL0     H85938   8.853   9.166   0.896 -1.2699 -0.0998 -2.2509
  637MOL0     H85939   8.932   9.009   0.892  1.2456  0.1870  1.3852
  637MOL0     H85940   9.116   9.198   0.886  1.1690  1.2166 -1.4238
  637MOL0     H85941   9.115   9.093   0.749  2.0648 -0.4609  1.9438
  637MOL0     H85942   8.994   9.372   0.740  1.5030  1.3340 -0.8855
  637MOL0     H85943   9.004   9.267   0.604 -0.5795  2.4611 -0.4722
  637MOL0     H85944   9.251   9.279   0.595 -0.6221  0.2373 -0.0198
  637MOL0     H85945   9.197   9.438   0.634 -3.2292  0.2735  1.1682
  637MOL0     H85946   9.240   9.550   0.851 -0.1674  1.1772 -0.1592
  637MOL0     H85947   9.511   9.612   0.983 -0.0178  1.0935 -0.3114
  637MOL0     H85948   9.373   9.572   1.091  0.5927  1.1697 -1.9553
  637MOL0     H85949   9.512   9.395   1.184  2.8076 -2.8523 -1.5042
  637MOL0     H85950   9.647   9.425   1.076 -0.5685 -1.1389 -0.9982
  637MOL0     H85951   9.537   9.654   1.254 -2.7646 -0.7245 -1.3489
  637MOL0     H85952   9.698   9.641   1.172 -0.0315  0.0380  1.3782
  637MOL0     H85953   9.593   9.495   1.429  1.3890  0.8802  0.8369
  637MOL0     H85954   9.721   9.593   1.405  0.5632 -3.3044  2.5982
  637MOL0     H85955   9.909   9.604   1.245  1.5242  0.5765 -1.3667
  637MOL0     H85956  10.117   9.563   1.139 -0.6178  0.2419 -0.6279
  637MOL0     H85957  10.345   9.146   0.903  0.3801  6.3177 -2.1295
  637MOL0     H85958  10.555   9.119   0.785 -0.7890  1.1995  0.2911
  637MOL0     H85959  10.969   9.145   0.806  1.1772  0.6242  0.3203
  637MOL0     H85960  10.931   9.215   0.961  1.9401 -3.1359  3.2453
  637MOL0     H85961  10.922   9.007   1.069 -0.3689 -1.1204 -0.3888
  637MOL0     H85962  10.965   8.927   0.913 -2.0047  0.8195 -0.5678
  637MOL0     H85963  11.191   9.058   0.922 -1.3403  1.6243 -0.0585
  637MOL0     H85964  11.151   9.118   1.077  1.4431 -0.9404 -0.6541
  637MOL0     H85965  11.146   8.836   1.009 -2.9387  1.7004 -1.2222
  637MOL0     H85966  11.121   8.910   1.180  0.1574  4.3899 -0.2842
  637MOL0     H85967  11.382   8.919   1.035  0.6291  1.8961  0.4917
  637MOL0     H85968  11.349   8.785   1.149 -0.8673  0.1345 -0.7592
  637MOL0     H85969  11.326   9.089   1.211  1.5794  0.6443  0.7121
  637MOL0     H85970  11.309   8.961   1.334  1.1773 -1.1794  0.7626
  637MOL0     H85971  11.570   9.018   1.172 -1.6998  1.6024 -0.7122
  637MOL0     H85972  11.548   8.888   1.296 -0.0180  0.4874  0.8776
  637MOL0     H85973  11.527   9.170   1.377  0.6621  0.1444 -0.9571
  637MOL0     H85974  11.489   9.030   1.475 -1.4038  2.9113  0.8456
  637MOL0     H85975  10.767   9.158   1.155  0.0161 -0.0168 -0.9983
  637MOL0     H85976  10.550   9.225   1.263 -2.2407  2.1664 -0.9004
  637MOL0     H85977  10.071   9.132   1.197 -1.8337 -0.5868  0.1868
  637MOL0     H85978   9.877   9.173   1.330  3.0891 -0.0519  1.5333
  637MOL0     H85979   8.472   8.612   0.920 -1.3421 -1.5226  3.0378
  637MOL0     H85980   8.274   8.450   0.980  2.1992  0.8993  1.8131
  637MOL0     H85981   7.849   8.403   1.044  0.6333 -0.7745 -0.7493
  637MOL0     H85982   7.675   8.282   1.125 -0.5389  3.8843 -1.4494
  637MOL0     H85983   7.454   8.100   0.865 -1.7705  0.7807  0.3568
  637MOL0     H85984   7.417   8.209   0.994 -3.3819 -0.6049 -1.0076
  637MOL0     H85985   7.351   8.035   1.142  0.7386  5.3496 -0.9049
  637MOL0     H85986   7.350   7.920   0.995  0.0667 -1.3169  2.0136
  637MOL0     H85987   7.183   8.067   0.889 -0.3347 -2.4151  0.1659
  637MOL0     H85988   7.186   8.169   1.041  1.6646 -0.3802 -1.2856
  637MOL0     H85989   7.090   7.875   1.022 -3.5172  0.2270 -1.1840
  637MOL0     H85990   7.129   7.965   1.168  3.1418  1.7562  0.0383
  637MOL0     H85991   6.735   8.079   1.032  0.5106  1.9541 -1.1205
  637MOL0     H85992   7.668   8.014   0.804  2.5275 -1.5803  0.2270
  637MOL0     H85993   7.807   8.064   0.588  3.4211 -0.9608 -0.8071
  637MOL0     H85994   7.878   8.208   0.567 -0.6865  0.8165  0.8543
  637MOL0     H85995   7.967   8.089   0.667  0.1094 -0.9542  0.5960
  638MOL0     O85996   3.434   3.571   0.429  0.6548  0.0365 -0.0099
  638MOL0     C85997   3.335   3.649   0.432  0.6157 -0.0796 -0.5642
  638MOL0     O85998   3.285   3.702   0.546  0.1189 -0.1389 -0.0174
  638MOL0     C85999   3.372   3.716   0.653  1.2535  1.2436 -0.6102
  638MOL0     C86000   3.512   3.733   0.633  0.8392 -0.4467 -0.1678
  638MOL0     C86001   3.586   3.745   0.749 -0.1131  0.2146  0.5654
  638MOL0     C86002   3.532   3.720   0.873 -0.2316 -0.1677 -0.5219
  638MOL0     O86003   3.592   3.722   0.996  0.2013 -0.8389  0.2954
  638MOL0     C86004   3.733   3.745   1.007  0.5500 -0.5539 -0.3744
  638MOL0     C86005   3.782   3.792   1.150 -0.3028 -0.5791 -0.0059
  638MOL0     C86006   3.834   3.677   1.239 -0.1834 -0.1543  0.3948
  638MOL0     C86007   3.958   3.619   1.175  0.0084 -0.7171  0.4171
  638MOL0     C86008   4.044   3.551   1.283  0.2484 -0.2154  0.5963
  638MOL0     C86009   4.171   3.478   1.236 -0.3396 -0.1434  0.4753
  638MOL0     C86010   4.280   3.565   1.173  0.7561 -0.3142 -0.3366
  638MOL0     C86011   4.388   3.484   1.112 -0.0552  0.5035  0.2329
  638MOL0     N86012   4.467   3.562   1.018  0.3422  1.1523  0.0291
  638MOL0     C86013   4.464   3.537   0.888  0.2729 -0.4563  0.5221
  638MOL0     C86014   4.537   3.636   0.841  0.1337 -0.2482  0.3424
  638MOL0     C86015   4.552   3.669   0.690 -0.3595  0.2659 -0.6578
  638MOL0     C86016   4.418   3.696   0.630 -0.8737  0.3847 -0.0793
  638MOL0     C86017   4.436   3.679   0.479 -0.1709 -0.3815 -0.2818
  638MOL0     C86018   4.301   3.673   0.415 -0.7700 -0.6258  0.2799
  638MOL0     O86019   4.319   3.655   0.274 -0.0066  0.2338 -0.2412
  638MOL0     C86020   4.204   3.631   0.201  0.4685 -1.0255  0.2840
  638MOL0     C86021   4.220   3.601   0.063  1.1201  0.0534  0.6055
  638MOL0     C86022   4.108   3.563  -0.013  0.0133  0.9317  0.2195
  638MOL0     C86023   3.978   3.543   0.038 -0.1947  0.2985 -1.4397
  638MOL0     C86024   3.871   3.476  -0.047 -1.1633 -1.2883 -0.7028
  638MOL0     O86025   3.744   3.487  -0.011 -0.0545 -0.2303  0.1633
  638MOL0     C86026   3.653   3.462  -0.106 -0.1482  0.0351  0.0467
  638MOL0     C86027   3.591   3.341  -0.144 -1.0675 -0.1576 -0.8479
  638MOL0     C86028   3.488   3.342  -0.235  0.1151  0.7459  0.5804
  638MOL0     C86029   3.457   3.450  -0.316  0.4997 -0.7930 -0.7358
  638MOL0     O86030   3.370   3.451  -0.428 -0.1947 -0.3364 -0.5900
  638MOL0     C86031   3.301   3.330  -0.456 -0.1261  0.2678 -0.3432
  638MOL0     C86032   3.223   3.341  -0.589 -0.6517 -0.1182 -0.3213
  638MOL0     C86033   3.102   3.442  -0.584 -0.1456  0.3093 -0.6225
  638MOL0     C86034   3.027   3.474  -0.710 -0.3276 -0.0202  0.9416
  638MOL0     C86035   2.900   3.554  -0.683  0.2886 -0.1945  0.1532
  638MOL0     C86036   2.812   3.543  -0.807  0.4431  0.3158  0.2197
  638MOL0     C86037   2.864   3.622  -0.924 -0.6562  0.2084  0.2940
  638MOL0     C86038   2.795   3.572  -1.053 -0.7045  0.6365 -0.1698
  638MOL0    Cl86039   2.887   3.627  -1.197 -0.2222  0.2734  0.0981
  638MOL0     C86040   3.511   3.577  -0.269  0.3054  0.6302 -0.0443
  638MOL0     C86041   3.609   3.573  -0.174 -0.1250 -0.1850  0.4732
  638MOL0     O86042   3.917   3.447  -0.157 -0.0099 -0.4485 -0.3548
  638MOL0     C86043   3.963   3.576   0.174  0.8281  0.2344 -0.4096
  638MOL0     C86044   4.074   3.619   0.257  0.0876 -0.0013  0.9670
  638MOL0     N86045   4.599   3.717   0.939 -0.2970 -0.0892 -0.4741
  638MOL0     N86046   4.547   3.669   1.050 -0.1751 -0.3668  0.0994
  638MOL0     C86047   3.396   3.687   0.886  0.5177  0.4588  0.2707
  638MOL0     C86048   3.311   3.696   0.780  0.2343 -0.0484  0.1278
  638MOL0     C86049   3.273   3.684   0.309  1.4009 -0.0521  0.2998
  638MOL0     C86050   3.130   3.717   0.308 -0.6274  0.1924 -0.2041
  638MOL0     C86051   3.067   3.743   0.185 -0.0332 -0.3319 -0.4302
  638MOL0     C86052   3.137   3.753   0.060  0.2252  0.1252  0.3534
  638MOL0     O86053   3.079   3.783  -0.057  0.1338 -0.3083  0.1302
  638MOL0     C86054   2.945   3.833  -0.061  0.0656  0.3573 -0.9577
  638MOL0     C86055   2.834   3.731  -0.054  0.0027  0.2993  0.1240
  638MOL0     C86056   2.867   3.602  -0.129 -0.3836 -0.4192 -0.5364
  638MOL0     C86057   2.754   3.501  -0.136  0.1036 -0.1637  0.6404
  638MOL0     C86058   2.652   3.529  -0.235 -0.5849 -0.9501 -1.0102
  638MOL0     C86059   2.569   3.563  -0.314  0.3257 -0.3290 -0.5592
  638MOL0     C86060   3.277   3.726   0.065  0.4869 -0.6748 -0.4020
  638MOL0     C86061   3.341   3.693   0.184 -0.0541 -0.5117 -0.1575
  638MOL0     C86062   3.483   3.682   0.180 -0.3315 -0.4024 -0.0047
  638MOL0     H86063   3.562   3.751   0.538  0.3957  0.9789 -0.1630
  638MOL0     H86064   3.693   3.762   0.739  0.5315 -2.1135  2.4612
  638MOL0     H86065   3.788   3.654   0.981  0.8274 -0.8109  1.0071
  638MOL0     H86066   3.755   3.825   0.936 -2.6001 -0.4587 -1.4233
  638MOL0     H86067   3.710   3.851   1.206  0.5605  0.0896  0.4203
  638MOL0     H86068   3.862   3.864   1.131 -0.3769 -0.6303 -0.5538
  638MOL0     H86069   3.768   3.590   1.248 -1.3997  0.4494 -1.7610
  638MOL0     H86070   3.862   3.716   1.337  1.4061 -0.1138 -0.0580
  638MOL0     H86071   3.935   3.549   1.094  0.7139  0.9774 -1.3452
  638MOL0     H86072   4.024   3.697   1.136 -1.4681  0.6586  0.5544
  638MOL0     H86073   4.059   3.632   1.355  0.5055  0.6146 -0.3519
  638MOL0     H86074   3.982   3.484   1.342 -0.5008  0.2741  0.3885
  638MOL0     H86075   4.215   3.430   1.324 -1.4365  1.2094  1.8420
  638MOL0     H86076   4.134   3.404   1.165  1.3660 -1.1553  0.5963
  638MOL0     H86077   4.325   3.634   1.245  0.7528  0.0651 -0.6923
  638MOL0     H86078   4.247   3.634   1.095  1.6159 -0.2580 -0.6690
  638MOL0     H86079   4.446   3.442   1.194 -1.3879  1.6617  1.8474
  638MOL0     H86080   4.351   3.392   1.066  3.5714  0.2866 -2.7128
  638MOL0     H86081   4.418   3.459   0.829  1.7663 -0.6928 -0.3826
  638MOL0     H86082   4.624   3.751   0.683  2.0984 -1.5544  1.2613
  638MOL0     H86083   4.611   3.593   0.638 -2.0253 -0.8087 -1.0453
  638MOL0     H86084   4.334   3.634   0.662 -1.2245  1.3600  0.9669
  638MOL0     H86085   4.388   3.801   0.643  0.2671  1.1785 -2.8745
  638MOL0     H86086   4.485   3.583   0.459  0.6853 -0.1131  0.4748
  638MOL0     H86087   4.500   3.757   0.439  2.6612  0.4318  4.9272
  638MOL0     H86088   4.261   3.773   0.432 -0.7165 -0.3964 -0.9231
  638MOL0     H86089   4.235   3.599   0.463 -2.3000 -0.7629 -1.8812
  638MOL0     H86090   4.315   3.611   0.012  1.8973 -3.7039  1.0106
  638MOL0     H86091   4.135   3.522  -0.110  2.8424 -1.0403  1.6994
  638MOL0     H86092   3.615   3.259  -0.077  0.2752  1.7860  1.1819
  638MOL0     H86093   3.435   3.249  -0.253  1.4976  0.3329 -1.8003
  638MOL0     H86094   3.366   3.242  -0.466  0.5493  0.7681 -0.3895
  638MOL0     H86095   3.228   3.307  -0.378 -1.5059 -0.3501 -1.7604
  638MOL0     H86096   3.303   3.377  -0.655 -0.1472  0.5478  0.6401
  638MOL0     H86097   3.195   3.245  -0.634 -1.0913  0.0582 -0.4295
  638MOL0     H86098   3.035   3.397  -0.510  1.5000 -0.0151  0.7250
  638MOL0     H86099   3.126   3.541  -0.543  0.4287  0.0480 -0.3220
  638MOL0     H86100   3.016   3.385  -0.772 -0.9927  0.9807 -0.4167
  638MOL0     H86101   3.094   3.542  -0.764  1.0130 -1.3316  0.8830
  638MOL0     H86102   2.920   3.658  -0.657  0.4125 -0.1752 -0.0129
  638MOL0     H86103   2.844   3.501  -0.606  1.8433  0.0717  1.5199
  638MOL0     H86104   2.784   3.443  -0.843  0.0088  0.1868  0.9007
  638MOL0     H86105   2.718   3.593  -0.784 -0.1664 -1.8754  2.9832
  638MOL0     H86106   2.973   3.620  -0.935 -0.7623  1.9205 -1.6937
  638MOL0     H86107   2.841   3.727  -0.904  2.4602  1.1325 -0.3354
  638MOL0     H86108   2.794   3.463  -1.054  0.5867  0.6114 -0.5693
  638MOL0     H86109   2.690   3.601  -1.057 -0.7522  0.3934 -1.2202
  638MOL0     H86110   3.460   3.659  -0.317 -1.3866 -1.1911 -1.5349
  638MOL0     H86111   3.648   3.669  -0.142 -1.7057  0.9480 -0.7917
  638MOL0     H86112   3.872   3.563   0.232  0.6694  3.1436  0.1447
  638MOL0     H86113   4.063   3.644   0.362 -0.3590 -2.5456  1.5797
  638MOL0     H86114   3.354   3.650   0.979  0.1723  0.7377  0.2280
  638MOL0     H86115   3.207   3.665   0.776  0.1434  0.2983 -0.2043
  638MOL0     H86116   3.065   3.716   0.395 -1.8361 -2.9807 -1.0134
  638MOL0     H86117   2.963   3.772   0.186  0.4535  1.6352  1.5542
  638MOL0     H86118   2.940   3.885  -0.157  2.5189 -0.9590 -1.8761
  638MOL0     H86119   2.939   3.902   0.023  3.9711 -2.2568  1.7815
  638MOL0     H86120   2.743   3.771  -0.100  0.0089 -1.2929 -1.4157
  638MOL0     H86121   2.821   3.706   0.052  1.0654  0.0821  0.2140
  638MOL0     H86122   2.960   3.568  -0.084  0.3279 -0.2620 -1.8214
  638MOL0     H86123   2.900   3.637  -0.228  2.1448 -0.2832  0.2839
  638MOL0     H86124   2.796   3.402  -0.160 -1.6280 -0.4253 -1.6839
  638MOL0     H86125   2.700   3.501  -0.041 -0.0588 -1.6893  0.5756
  638MOL0     H86126   2.479   3.589  -0.367  0.7718 -0.3945 -1.3622
  638MOL0     H86127   3.342   3.734  -0.022 -0.8604 -1.8716 -1.5793
  638MOL0     H86128   3.523   3.713   0.083 -1.2691  2.2767  0.3870
  638MOL0     H86129   3.531   3.730   0.265 -1.5201  1.1136 -0.1425
  638MOL0     H86130   3.509   3.576   0.179  2.3544  0.1346 -2.9116
  639MOL0     O86131   3.596   2.279   1.961 -0.1932  0.6156  0.5320
  639MOL0     C86132   3.574   2.396   1.972 -0.0289  0.2178  0.5682
  639MOL0     O86133   3.668   2.491   1.969  0.2950 -0.0532  0.4808
  639MOL0     C86134   3.796   2.449   1.955 -0.3134  0.3329 -0.6741
  639MOL0     C86135   3.861   2.457   2.073  0.7245  0.3636  0.2885
  639MOL0     C86136   3.993   2.419   2.084  0.1302  0.2938  0.2954
  639MOL0     C86137   4.046   2.341   1.983 -0.0927  0.3563  0.2900
  639MOL0     O86138   4.176   2.293   1.992  0.1051  0.0787 -0.5949
  639MOL0     C86139   4.231   2.186   1.916 -0.2728  0.0116  1.0539
  639MOL0     C86140   4.332   2.252   1.813  0.8253  0.2864 -0.6324
  639MOL0     C86141   4.463   2.284   1.889 -0.1676 -1.7414  0.0764
  639MOL0     C86142   4.561   2.165   1.905 -0.2179 -0.1992 -0.2624
  639MOL0     C86143   4.698   2.215   1.971  0.2690 -0.6667  0.6221
  639MOL0     C86144   4.791   2.107   2.007  0.5254  0.1276  0.9218
  639MOL0     C86145   4.909   2.159   2.072  0.1886 -0.0042  0.1315
  639MOL0     C86146   5.010   2.039   2.105  0.3321 -0.1063  0.1088
  639MOL0     N86147   5.139   2.079   2.152 -0.0733 -0.2841 -0.0541
  639MOL0     C86148   5.211   2.025   2.260 -0.2238  0.4694 -0.2769
  639MOL0     C86149   5.331   2.095   2.259  0.5359  0.4079  0.3191
  639MOL0     C86150   5.431   2.084   2.374 -0.4801  0.0591  0.2617
  639MOL0     C86151   5.518   2.210   2.371  0.6871  0.6343 -0.2191
  639MOL0     C86152   5.658   2.187   2.429  0.0491 -0.1791 -0.0842
  639MOL0     C86153   5.730   2.321   2.413 -0.0637  0.3362 -0.1099
  639MOL0     O86154   5.777   2.355   2.284  0.0799  0.3631 -0.2788
  639MOL0     C86155   5.869   2.459   2.272  0.4147 -0.4994  0.1274
  639MOL0     C86156   5.941   2.459   2.154 -0.0971  0.7230  0.8692
  639MOL0     C86157   6.040   2.558   2.126 -0.5546  0.7078 -0.1081
  639MOL0     C86158   6.061   2.662   2.221 -0.9271 -0.2933 -0.0968
  639MOL0     C86159   6.161   2.778   2.199 -0.0698  0.2361  0.1000
  639MOL0     O86160   6.189   2.844   2.316 -0.5558 -0.7029 -0.8374
  639MOL0     C86161   6.291   2.934   2.321 -0.6290 -0.1810  0.0455
  639MOL0     C86162   6.414   2.917   2.254 -0.2133 -0.5383 -0.5851
  639MOL0     C86163   6.507   3.025   2.269  0.0907 -0.3613  0.6081
  639MOL0     C86164   6.487   3.138   2.348  0.5782  0.3892  0.0617
  639MOL0     O86165   6.587   3.233   2.358  0.4460  0.0999 -0.2040
  639MOL0     C86166   6.558   3.355   2.431 -0.0103  0.3521  0.6399
  639MOL0     C86167   6.655   3.472   2.431  0.2797 -0.1474 -0.0443
  639MOL0     C86168   6.804   3.426   2.460  0.3778 -0.7129  0.1432
  639MOL0     C86169   6.880   3.561   2.484 -0.4210  0.0899 -0.1705
  639MOL0     C86170   7.024   3.539   2.534  0.0437 -0.2941  0.4694
  639MOL0     C86171   7.036   3.522   2.685  0.7189 -0.8508  0.5274
  639MOL0     C86172   7.187   3.498   2.713  0.8189 -0.1323 -0.1439
  639MOL0     C86173   7.204   3.500   2.869 -0.5282  0.8631  0.4857
  639MOL0    Cl86174   7.381   3.490   2.903  0.4099  0.1335  0.0344
  639MOL0     C86175   6.360   3.151   2.419 -1.0495  0.3600  0.5102
  639MOL0     C86176   6.266   3.051   2.398 -0.3365 -0.4643  0.0375
  639MOL0     O86177   6.206   2.804   2.086  0.2467 -0.2990 -0.6745
  639MOL0     C86178   5.989   2.660   2.338  0.1171 -0.5562 -0.2361
  639MOL0     C86179   5.898   2.557   2.368 -0.0320 -0.1679  0.0041
  639MOL0     N86180   5.334   2.180   2.144  0.0322 -0.0171  0.3617
  639MOL0     N86181   5.221   2.166   2.084 -0.3802  0.0522  0.9053
  639MOL0     C86182   3.979   2.319   1.864  0.1845  0.2388  0.5388
  639MOL0     C86183   3.850   2.379   1.851  0.0134  0.1884  0.7673
  639MOL0     C86184   3.438   2.432   1.997 -0.4114 -0.3638 -0.0284
  639MOL0     C86185   3.416   2.563   2.041 -0.4735  0.0859 -0.4457
  639MOL0     C86186   3.288   2.615   2.050  0.3263 -0.5740  0.8857
  639MOL0     C86187   3.179   2.548   2.017  0.3483  0.1130  0.1593
  639MOL0     O86188   3.059   2.615   2.013  0.4164  0.0573  0.0406
  639MOL0     C86189   2.941   2.567   1.938  0.4663  0.0333  0.3233
  639MOL0     C86190   2.852   2.487   2.026  0.4366  0.5996  0.1334
  639MOL0     C86191   2.704   2.491   1.988 -0.9073 -0.0692  0.7884
  639MOL0     C86192   2.619   2.386   2.061 -0.1421  0.6536  0.3933
  639MOL0     C86193   2.474   2.402   2.047  0.1001 -0.9937  0.2952
  639MOL0     C86194   2.354   2.418   2.045  0.0281 -0.3896 -0.2596
  639MOL0     C86195   3.197   2.411   1.975  0.4452  0.3587 -0.6048
  639MOL0     C86196   3.323   2.359   1.951 -0.0634 -0.8182 -0.2972
  639MOL0     C86197   3.322   2.220   1.895 -0.4136  0.8372 -0.6121
  639MOL0     H86198   3.810   2.523   2.143 -0.6676  0.1565 -0.4996
  639MOL0     H86199   4.046   2.435   2.178 -0.0570  1.4723  0.2161
  639MOL0     H86200   4.282   2.111   1.978  1.1244 -0.4177 -0.5505
  639MOL0     H86201   4.161   2.118   1.866  0.3227 -0.3061  0.6341
  639MOL0     H86202   4.282   2.335   1.761 -2.7742 -2.2305 -1.5900
  639MOL0     H86203   4.350   2.176   1.736  0.8526 -0.8370  0.4565
  639MOL0     H86204   4.453   2.335   1.986 -2.4102  2.4194 -2.0969
  639MOL0     H86205   4.505   2.356   1.819 -1.4273 -0.8283  0.2392
  639MOL0     H86206   4.519   2.092   1.975  2.6202  0.1194  2.0099
  639MOL0     H86207   4.576   2.109   1.812 -0.1393  0.7381 -0.8306
  639MOL0     H86208   4.746   2.282   1.898 -1.0964 -0.0702  0.2241
  639MOL0     H86209   4.662   2.267   2.060 -4.2928 -1.7471 -0.3435
  639MOL0     H86210   4.734   2.030   2.060  0.1587 -0.6713 -0.5769
  639MOL0     H86211   4.825   2.060   1.914  0.0475 -2.6941  2.0938
  639MOL0     H86212   4.874   2.201   2.168  0.1030 -3.9802  2.0355
  639MOL0     H86213   4.955   2.245   2.024  1.7155  1.6932  4.1565
  639MOL0     H86214   4.968   1.986   2.191 -2.2702  0.5931 -0.6342
  639MOL0     H86215   5.012   1.962   2.027  0.2469  0.5071 -0.4996
  639MOL0     H86216   5.186   1.948   2.332 -0.6896  0.7107 -0.1796
  639MOL0     H86217   5.384   2.078   2.473 -0.4302  0.9807  0.3557
  639MOL0     H86218   5.488   1.991   2.365 -0.7316 -0.1433  0.7191
  639MOL0     H86219   5.538   2.231   2.265  3.5773  0.7688  0.2740
  639MOL0     H86220   5.462   2.284   2.429 -0.6341 -1.6961  1.6563
  639MOL0     H86221   5.720   2.121   2.368  1.4097 -0.6860  1.7498
  639MOL0     H86222   5.663   2.175   2.538 -1.0640  0.8571  0.1078
  639MOL0     H86223   5.822   2.325   2.473  2.7448  0.5572 -4.0544
  639MOL0     H86224   5.670   2.401   2.457  1.1314  1.1937  0.0230
  639MOL0     H86225   5.917   2.383   2.081  1.9436  1.9372 -1.1916
  639MOL0     H86226   6.083   2.562   2.027 -1.1024  0.0177 -0.3814
  639MOL0     H86227   6.437   2.826   2.201 -0.6973 -1.0725  0.1086
  639MOL0     H86228   6.601   3.017   2.214 -2.1885 -0.8266 -3.5731
  639MOL0     H86229   6.471   3.407   2.391 -1.8214 -0.6383  3.0449
  639MOL0     H86230   6.538   3.332   2.536 -0.7876 -1.4001  0.1308
  639MOL0     H86231   6.643   3.525   2.335 -2.1839  1.6952  1.1482
  639MOL0     H86232   6.624   3.556   2.494  1.6568  0.9729 -0.7896
  639MOL0     H86233   6.804   3.351   2.539 -0.7877 -0.1731  0.6794
  639MOL0     H86234   6.848   3.375   2.374 -0.9392 -2.0301  0.2136
  639MOL0     H86235   6.832   3.620   2.563 -0.2612  0.4310 -0.3285
  639MOL0     H86236   6.886   3.623   2.394 -1.2923 -0.5522 -0.6935
  639MOL0     H86237   7.077   3.630   2.501 -1.1762  0.5764  0.8358
  639MOL0     H86238   7.072   3.460   2.475 -2.9368 -2.6186  0.9337
  639MOL0     H86239   6.997   3.615   2.728  0.2706 -0.9478  0.3309
  639MOL0     H86240   6.975   3.436   2.712 -1.8298  0.3711 -0.8942
  639MOL0     H86241   7.250   3.578   2.673  0.7396  1.0118  1.8780
  639MOL0     H86242   7.215   3.399   2.676 -0.9205 -1.0173  0.7637
  639MOL0     H86243   7.153   3.592   2.899 -3.1075  0.4321 -2.0585
  639MOL0     H86244   7.164   3.405   2.906  2.0902 -2.4152 -4.0744
  639MOL0     H86245   6.345   3.232   2.489  1.1330  1.9895 -0.7788
  639MOL0     H86246   6.169   3.060   2.446 -1.6605 -0.2521 -2.5074
  639MOL0     H86247   6.008   2.741   2.407  2.9748 -0.1946 -1.2939
  639MOL0     H86248   5.852   2.561   2.466  0.4989 -0.3871  0.2646
  639MOL0     H86249   4.017   2.264   1.779 -3.1694 -0.3011 -0.7613
  639MOL0     H86250   3.792   2.366   1.760  1.6566  0.9543 -0.4429
  639MOL0     H86251   3.498   2.619   2.085  1.3268 -2.3735 -0.4351
  639MOL0     H86252   3.279   2.716   2.088 -2.0192 -1.3069  2.5246
  639MOL0     H86253   2.973   2.507   1.853 -1.1718 -1.3838  0.6650
  639MOL0     H86254   2.889   2.654   1.896  1.3016  0.9525  1.1125
  639MOL0     H86255   2.847   2.511   2.132  2.6971  0.7276  0.2638
  639MOL0     H86256   2.889   2.384   2.022 -0.5753  0.2636 -0.9606
  639MOL0     H86257   2.697   2.485   1.879  1.2416  0.0012  0.6164
  639MOL0     H86258   2.676   2.595   2.010  3.3215  0.8295  2.9064
  639MOL0     H86259   2.641   2.287   2.020 -0.4106  1.3632 -1.6075
  639MOL0     H86260   2.649   2.392   2.166  0.1576  3.6261  0.2356
  639MOL0     H86261   2.248   2.433   2.055  0.2125 -0.0787  1.5423
  639MOL0     H86262   3.114   2.356   1.932  0.0783  1.3757 -1.2409
  639MOL0     H86263   3.391   2.211   1.810  0.1797  0.5582 -0.1086
  639MOL0     H86264   3.364   2.154   1.971 -3.0927 -1.0151 -0.5596
  639MOL0     H86265   3.222   2.186   1.866 -0.3405 -0.9352  1.0347
  640MOL0     O86266   0.303   1.427   1.238  0.7273 -0.0890 -0.3921
  640MOL0     C86267   0.357   1.330   1.293  0.1523 -0.2038  0.0336
  640MOL0     O86268   0.487   1.307   1.288 -0.1892 -0.1375  0.1165
  640MOL0     C86269   0.575   1.405   1.249  0.2165 -1.1876  0.4882
  640MOL0     C86270   0.594   1.522   1.325 -0.5272 -0.2040  0.1127
  640MOL0     C86271   0.697   1.609   1.290 -0.3259  0.1454  0.6928
  640MOL0     C86272   0.785   1.576   1.179  0.9914 -0.8764 -0.6671
  640MOL0     O86273   0.893   1.661   1.168 -0.6935 -0.3611 -0.9220
  640MOL0     C86274   1.014   1.607   1.114  0.2088 -0.6533 -0.1883
  640MOL0     C86275   1.123   1.723   1.105  0.4503  0.7318  0.6734
  640MOL0     C86276   1.245   1.668   1.024  0.5211  0.3307 -0.6742
  640MOL0     C86277   1.345   1.604   1.127  0.2946 -0.0125 -0.6067
  640MOL0     C86278   1.472   1.564   1.056  0.3351  0.1113  0.8149
  640MOL0     C86279   1.576   1.684   1.032  0.5611 -0.5345 -0.4697
  640MOL0     C86280   1.712   1.637   0.973  0.2755 -0.4404  0.2971
  640MOL0     C86281   1.795   1.546   1.069 -0.5478  0.5261  0.0567
  640MOL0     N86282   1.929   1.515   1.005 -0.2645  0.3845  0.0302
  640MOL0     C86283   1.997   1.400   1.005 -0.5143  1.0107 -0.3163
  640MOL0     C86284   2.124   1.439   0.964  0.0310 -0.7067  0.8043
  640MOL0     C86285   2.252   1.360   0.953 -0.3504  0.3453  0.5937
  640MOL0     C86286   2.258   1.267   0.828  0.0717  0.4441  0.1499
  640MOL0     C86287   2.363   1.155   0.819  0.0854 -0.1071  0.2530
  640MOL0     C86288   2.504   1.200   0.856 -0.0900  0.2908 -0.4011
  640MOL0     O86289   2.589   1.086   0.824 -0.5184  0.2235 -0.2569
  640MOL0     C86290   2.728   1.110   0.833 -0.3873 -0.1947  0.0552
  640MOL0     C86291   2.815   1.021   0.772  0.5879 -0.6471  0.3532
  640MOL0     C86292   2.956   1.021   0.797 -0.6068 -0.8096 -1.0027
  640MOL0     C86293   3.008   1.119   0.879 -0.0084 -0.2564 -0.6617
  640MOL0     C86294   3.154   1.128   0.907 -0.1749  0.6589 -0.5019
  640MOL0     O86295   3.213   1.005   0.930  0.0603 -0.3553 -0.2570
  640MOL0     C86296   3.337   1.017   0.977  0.0140 -0.0478  0.0779
  640MOL0     C86297   3.367   1.034   1.116 -0.0310  0.7433 -0.1355
  640MOL0     C86298   3.502   1.022   1.154  0.4371  0.0990  0.2076
  640MOL0     C86299   3.608   1.015   1.059 -1.0283 -0.3435  0.4383
  640MOL0     O86300   3.743   1.008   1.100  0.0687  0.1436  0.2738
  640MOL0     C86301   3.774   1.061   1.233  0.5122 -0.5515 -0.7216
  640MOL0     C86302   3.928   1.057   1.240  0.0813 -0.4396 -0.1467
  640MOL0     C86303   3.986   1.165   1.140  0.2989 -0.1062 -0.7834
  640MOL0     C86304   4.136   1.186   1.157  0.6618 -0.4917 -0.2953
  640MOL0     C86305   4.175   1.304   1.071  0.4487  0.5869 -0.7535
  640MOL0     C86306   4.096   1.432   1.101  0.8020  0.5508  0.4960
  640MOL0     C86307   4.172   1.559   1.098 -0.5308 -0.6579  0.4009
  640MOL0     C86308   4.232   1.606   0.967  0.1517 -0.3716  0.0769
  640MOL0    Cl86309   4.314   1.769   1.004  0.1140  0.3142  0.0682
  640MOL0     C86310   3.579   1.001   0.930  0.7438  0.5700  0.1184
  640MOL0     C86311   3.446   1.009   0.889 -0.1978  0.5073 -0.5959
  640MOL0     O86312   3.207   1.238   0.919  0.3287  0.2340  0.1119
  640MOL0     C86313   2.921   1.228   0.919 -0.2649  0.0001  0.0395
  640MOL0     C86314   2.781   1.218   0.912  0.3242  0.5432  0.1932
  640MOL0     N86315   2.118   1.575   0.931 -0.0589 -0.2171  0.2392
  640MOL0     N86316   2.008   1.621   0.967  0.2733 -0.6766 -0.1267
  640MOL0     C86317   0.764   1.462   1.112  0.6622 -0.2171 -0.1846
  640MOL0     C86318   0.655   1.379   1.143  0.2170  0.3266 -0.5651
  640MOL0     C86319   0.265   1.225   1.341  0.0641 -0.0604  0.4909
  640MOL0     C86320   0.121   1.241   1.330  0.3744  0.7079  0.0715
  640MOL0     C86321   0.026   1.141   1.362 -0.3983 -0.7262  0.2499
  640MOL0     C86322   0.072   1.021   1.401 -0.1633 -0.1600  0.3109
  640MOL0     O86323  -0.019   0.926   1.433  0.7221 -0.4948 -0.3874
  640MOL0     C86324  -0.082   0.964   1.552 -0.9913  0.8747  0.5634
  640MOL0     C86325  -0.146   0.841   1.622  0.0136  0.2264  0.5589
  640MOL0     C86326  -0.040   0.740   1.657 -0.0947  0.4880 -0.4396
  640MOL0     C86327  -0.116   0.622   1.710 -0.5581  0.0712 -0.6527
  640MOL0     C86328  -0.032   0.516   1.760 -0.1443  0.1593  0.4470
  640MOL0     C86329   0.038   0.433   1.812 -0.2044  0.1061 -0.2990
  640MOL0     C86330   0.208   0.998   1.419  0.0392  0.3929 -1.0014
  640MOL0     C86331   0.308   1.098   1.382  0.0642  0.4160 -0.3419
  640MOL0     C86332   0.456   1.057   1.387  0.9136  0.0044  0.0566
  640MOL0     H86333   0.523   1.539   1.406  0.3771 -0.7170  1.0355
  640MOL0     H86334   0.711   1.699   1.350  0.9824  0.0782  0.5292
  640MOL0     H86335   1.043   1.514   1.164 -2.4973 -0.4851  1.9240
  640MOL0     H86336   0.996   1.572   1.012  0.9434 -0.4420 -0.3933
  640MOL0     H86337   1.145   1.761   1.205 -2.6498  2.1431  0.9461
  640MOL0     H86338   1.082   1.806   1.047  3.3195  0.3644 -2.1868
  640MOL0     H86339   1.296   1.755   0.981 -0.7915  1.0057 -0.8912
  640MOL0     H86340   1.213   1.590   0.955 -2.9148 -0.5363  1.6600
  640MOL0     H86341   1.374   1.666   1.212  1.8757 -0.6493 -0.6503
  640MOL0     H86342   1.292   1.516   1.164  0.9271 -1.1462 -2.2684
  640MOL0     H86343   1.517   1.486   1.117  1.8572 -0.9912 -1.5447
  640MOL0     H86344   1.443   1.525   0.957  0.3175  2.1210 -0.0238
  640MOL0     H86345   1.537   1.764   0.968  0.3243 -0.4946 -0.2802
  640MOL0     H86346   1.590   1.742   1.123 -0.4175  2.2425 -1.9723
  640MOL0     H86347   1.779   1.718   0.944  1.4535 -0.8748  1.6680
  640MOL0     H86348   1.690   1.586   0.878 -0.0784  0.5493 -0.1625
  640MOL0     H86349   1.802   1.589   1.170 -0.2991 -0.0597  0.2918
  640MOL0     H86350   1.742   1.451   1.084 -0.2860  0.4759  0.7326
  640MOL0     H86351   1.959   1.303   1.035  2.5290  0.3693  2.0159
  640MOL0     H86352   2.336   1.429   0.940  0.0494 -0.0733  0.9475
  640MOL0     H86353   2.275   1.299   1.042  1.6023 -1.2413 -0.9083
  640MOL0     H86354   2.161   1.221   0.809 -0.2701  0.1862  2.2467
  640MOL0     H86355   2.278   1.336   0.745  1.1573 -2.1799 -1.9083
  640MOL0     H86356   2.375   1.121   0.716  1.4432  0.0119  0.3513
  640MOL0     H86357   2.335   1.068   0.880  1.3009 -0.8569 -0.2223
  640MOL0     H86358   2.506   1.228   0.962  0.4786  1.7705 -0.7752
  640MOL0     H86359   2.531   1.289   0.799  0.6287  0.1513 -0.2957
  640MOL0     H86360   2.770   0.949   0.705  0.5137 -0.5235  0.2698
  640MOL0     H86361   3.020   0.945   0.752 -0.1805 -1.9130  1.3126
  640MOL0     H86362   3.291   1.047   1.192  0.8540  3.0838  0.4299
  640MOL0     H86363   3.512   1.022   1.262 -0.6393 -0.6525  0.3191
  640MOL0     H86364   3.736   1.159   1.264 -0.3539 -1.3278  0.7952
  640MOL0     H86365   3.733   0.993   1.308  0.6515  0.0064 -0.1328
  640MOL0     H86366   3.958   1.073   1.344 -0.3163 -4.1192  0.6517
  640MOL0     H86367   3.966   0.957   1.218  2.0407 -0.7533  3.8178
  640MOL0     H86368   3.974   1.132   1.036  0.5508  1.7099 -1.4382
  640MOL0     H86369   3.928   1.255   1.163 -0.5712 -1.2673  1.9786
  640MOL0     H86370   4.188   1.092   1.138 -0.3708 -0.8520 -1.5371
  640MOL0     H86371   4.146   1.211   1.263 -0.6598 -0.5954 -0.1252
  640MOL0     H86372   4.170   1.279   0.965  2.0656 -0.1733 -0.6841
  640MOL0     H86373   4.279   1.325   1.099  0.4676 -1.0546  0.5547
  640MOL0     H86374   4.028   1.438   1.016  2.7164  1.0880 -1.0920
  640MOL0     H86375   4.049   1.431   1.199  3.0333 -0.4116  1.6343
  640MOL0     H86376   4.250   1.560   1.174 -1.2256  2.6847  1.2411
  640MOL0     H86377   4.102   1.634   1.137  2.0042  2.2621 -0.2615
  640MOL0     H86378   4.300   1.531   0.926 -1.5809 -0.9930 -1.7892
  640MOL0     H86379   4.156   1.623   0.891  0.0806 -1.0664 -0.0184
  640MOL0     H86380   3.649   0.957   0.859 -2.2552 -2.4329 -1.2536
  640MOL0     H86381   3.431   1.008   0.781  2.0720 -0.0017 -0.9648
  640MOL0     H86382   2.965   1.317   0.962  2.8294 -1.1540 -0.4961
  640MOL0     H86383   2.717   1.286   0.968  1.0726  0.1422  1.5712
  640MOL0     H86384   0.828   1.436   1.028  0.4391  2.3493 -1.2371
  640MOL0     H86385   0.635   1.280   1.102 -0.2339  0.6197 -1.0560
  640MOL0     H86386   0.081   1.336   1.298 -0.9024 -0.2946 -1.4501
  640MOL0     H86387  -0.082   1.154   1.356 -0.2028  1.7433  0.9569
  640MOL0     H86388  -0.163   1.034   1.529 -1.3400  0.1142 -0.5927
  640MOL0     H86389  -0.012   1.016   1.618  1.9196  0.2711 -1.8296
  640MOL0     H86390  -0.222   0.798   1.556  0.5888 -2.1989  1.3871
  640MOL0     H86391  -0.203   0.868   1.712 -1.0109 -1.7943  0.5788
  640MOL0     H86392   0.038   0.789   1.716  0.2684  2.6862 -2.5956
  640MOL0     H86393   0.015   0.702   1.570  0.8917 -1.1237  0.8163
  640MOL0     H86394  -0.181   0.654   1.792 -1.4728  0.2571 -1.4360
  640MOL0     H86395  -0.176   0.576   1.631  1.4204 -2.9148 -0.5947
  640MOL0     H86396   0.102   0.367   1.868 -0.1162  0.0702 -0.4423
  640MOL0     H86397   0.245   0.898   1.439  0.0304  0.7551  1.0208
  640MOL0     H86398   0.517   1.111   1.460  1.0457  1.1505 -0.8658
  640MOL0     H86399   0.455   0.950   1.410 -1.1209 -0.0007  0.1007
  640MOL0     H86400   0.508   1.082   1.293 -0.1029  2.9668  0.1781
  641MOL0     O86401   5.846   8.112   6.780  0.9772 -0.7243  0.2516
  641MOL0     C86402   5.780   8.043   6.868 -0.0061  0.4557  0.1347
  641MOL0     O86403   5.834   7.946   6.944  0.6247 -0.1925  0.2130
  641MOL0     C86404   5.974   7.922   6.943  0.1188  0.1154  0.7574
  641MOL0     C86405   6.012   7.797   6.907  0.2449  0.3154  0.3654
  641MOL0     C86406   6.143   7.755   6.908 -0.3861  0.1639 -1.0976
  641MOL0     C86407   6.243   7.841   6.957 -0.0777  0.9871  0.2916
  641MOL0     O86408   6.371   7.796   6.936  0.3656 -0.0683 -0.3233
  641MOL0     C86409   6.473   7.887   6.982 -0.6340 -0.0447  0.2116
  641MOL0     C86410   6.591   7.801   7.002 -1.4712  0.1440 -0.7202
  641MOL0     C86411   6.625   7.732   6.872  0.6095  0.2474  0.3039
  641MOL0     C86412   6.741   7.635   6.881 -0.8435  0.5482 -0.0287
  641MOL0     C86413   6.790   7.577   6.742  0.3310  0.4026  0.2902
  641MOL0     C86414   6.917   7.494   6.766  0.2404  0.5521 -0.7858
  641MOL0     C86415   6.991   7.470   6.634 -0.7177 -0.5890 -0.9122
  641MOL0     C86416   7.125   7.400   6.659  0.6276 -0.4016 -0.1390
  641MOL0     N86417   7.204   7.377   6.536  0.5721 -0.0071  0.0987
  641MOL0     C86418   7.276   7.471   6.467 -0.3253  0.2136 -1.0795
  641MOL0     C86419   7.353   7.406   6.375  0.6052 -0.4106  0.3482
  641MOL0     C86420   7.425   7.485   6.267 -0.2303  0.5541  0.2222
  641MOL0     C86421   7.566   7.428   6.236  0.4069  0.3000 -0.7039
  641MOL0     C86422   7.673   7.487   6.333 -0.5040 -0.1224 -0.9240
  641MOL0     C86423   7.695   7.378   6.441  0.4212 -0.5731 -0.7274
  641MOL0     O86424   7.770   7.432   6.547  0.0728 -0.3946  0.0132
  641MOL0     C86425   7.902   7.456   6.530 -0.4770  1.2320 -0.8117
  641MOL0     C86426   7.990   7.395   6.440 -0.3440  0.4719 -0.4181
  641MOL0     C86427   8.128   7.422   6.427  0.2065 -0.0816  0.3053
  641MOL0     C86428   8.189   7.505   6.520  0.0389 -0.9701 -0.7242
  641MOL0     C86429   8.341   7.523   6.530  0.7795  0.3097 -0.7864
  641MOL0     O86430   8.383   7.638   6.589 -0.1410 -0.3710  0.5424
  641MOL0     C86431   8.508   7.659   6.606  0.3775 -0.3231  0.2316
  641MOL0     C86432   8.596   7.569   6.669  0.1411 -0.7091  0.6396
  641MOL0     C86433   8.727   7.614   6.699 -0.1290  0.3140  0.5837
  641MOL0     C86434   8.770   7.749   6.682 -0.2467 -0.0729  0.4655
  641MOL0     O86435   8.895   7.799   6.720 -0.8468  0.3789 -0.1218
  641MOL0     C86436   8.911   7.784   6.856  0.1385 -0.5611  0.5891
  641MOL0     C86437   9.045   7.828   6.894 -0.6614  0.2560  0.2608
  641MOL0     C86438   9.161   7.745   6.841  0.5346  0.1906 -0.2751
  641MOL0     C86439   9.283   7.778   6.920  0.3956 -0.5226  0.3767
  641MOL0     C86440   9.411   7.741   6.847  0.5465  0.0673 -0.0296
  641MOL0     C86441   9.539   7.728   6.939 -0.8352  0.4357 -0.1510
  641MOL0     C86442   9.659   7.672   6.875 -0.1657  0.0943  0.1439
  641MOL0     C86443   9.784   7.708   6.954 -0.0193 -0.0459 -0.1692
  641MOL0    Cl86444   9.913   7.615   6.864 -0.0319 -0.1723  0.3237
  641MOL0     C86445   8.695   7.825   6.598  0.1252 -0.2884 -0.6607
  641MOL0     C86446   8.565   7.778   6.567  0.3115  0.2513  1.0599
  641MOL0     O86447   8.416   7.433   6.486  0.3883 -0.1720 -0.0777
  641MOL0     C86448   8.111   7.577   6.602 -0.2502  0.2107 -0.2577
  641MOL0     C86449   7.972   7.549   6.619 -0.3556 -0.2228  0.5180
  641MOL0     N86450   7.311   7.279   6.377 -0.5813 -0.3398 -0.8102
  641MOL0     N86451   7.232   7.258   6.473  0.2114 -0.0446 -0.1167
  641MOL0     C86452   6.199   7.970   6.990 -0.0755 -0.1657 -0.1080
  641MOL0     C86453   6.072   8.008   6.989  0.4122  0.6551 -0.0576
  641MOL0     C86454   5.636   8.066   6.852 -0.1483 -0.4563  1.1843
  641MOL0     C86455   5.585   8.145   6.747  0.0045  0.3353  0.8219
  641MOL0     C86456   5.450   8.170   6.731 -0.0940 -0.0580  0.7683
  641MOL0     C86457   5.354   8.124   6.820  0.0427 -0.4442  0.6490
  641MOL0     O86458   5.219   8.140   6.810  0.2003 -0.2910  0.2938
  641MOL0     C86459   5.163   8.227   6.711 -0.0694 -0.5894  0.2227
  641MOL0     C86460   5.022   8.187   6.698 -0.5059  0.5837  0.1887
  641MOL0     C86461   4.935   8.181   6.828 -0.8730 -0.1954  0.8243
  641MOL0     C86462   4.785   8.161   6.798 -0.1905 -0.4181 -0.0101
  641MOL0     C86463   4.716   8.204   6.917 -0.0390 -1.4051  0.4518
  641MOL0     C86464   4.656   8.226   7.020 -1.2985  0.9919 -0.8289
  641MOL0     C86465   5.405   8.050   6.922  0.3381 -0.0324 -0.1993
  641MOL0     C86466   5.539   8.022   6.944  0.7615  0.5655  0.1256
  641MOL0     C86467   5.569   7.935   7.061 -0.8629  0.0154 -0.1220
  641MOL0     H86468   5.946   7.721   6.868  1.1579  0.3448 -1.3373
  641MOL0     H86469   6.173   7.655   6.876 -0.8376 -0.2438 -0.2842
  641MOL0     H86470   6.503   7.962   6.909  2.0535 -0.8704  0.3626
  641MOL0     H86471   6.440   7.927   7.079  1.5782 -2.3692  2.0491
  641MOL0     H86472   6.567   7.720   7.072 -1.2175  0.7435  0.0867
  641MOL0     H86473   6.667   7.868   7.043 -2.4723  0.6105  0.4672
  641MOL0     H86474   6.645   7.808   6.797 -0.7280 -1.0512 -1.4666
  641MOL0     H86475   6.544   7.661   6.849  0.9070 -0.7220  2.0487
  641MOL0     H86476   6.817   7.698   6.929 -2.3166  1.2770  1.4229
  641MOL0     H86477   6.729   7.553   6.952  0.8690 -1.3198 -1.7441
  641MOL0     H86478   6.713   7.510   6.703  1.1609 -0.6412  0.4117
  641MOL0     H86479   6.806   7.658   6.671  3.3638 -0.5515 -0.2555
  641MOL0     H86480   6.988   7.559   6.819  0.9842 -0.3884 -0.5959
  641MOL0     H86481   6.896   7.403   6.824 -0.7857  1.7500  0.8230
  641MOL0     H86482   7.011   7.561   6.576 -1.2480  0.1749  0.0711
  641MOL0     H86483   6.935   7.400   6.571  1.9989 -2.3226 -1.5597
  641MOL0     H86484   7.184   7.456   6.732 -0.3518  0.0727  0.3082
  641MOL0     H86485   7.113   7.305   6.712  0.3248  0.6192  1.7166
  641MOL0     H86486   7.289   7.577   6.489  2.6966 -0.3114  0.0873
  641MOL0     H86487   7.368   7.496   6.174  3.0026 -0.4921 -2.0610
  641MOL0     H86488   7.434   7.589   6.298  1.0358  1.3083 -2.4144
  641MOL0     H86489   7.557   7.319   6.235 -0.3771  0.3148  0.8278
  641MOL0     H86490   7.590   7.450   6.132 -1.0421  0.8977 -0.9330
  641MOL0     H86491   7.642   7.577   6.386  3.4241 -0.4198  2.4373
  641MOL0     H86492   7.766   7.507   6.280  1.4370 -0.1208  2.2379
  641MOL0     H86493   7.741   7.294   6.387  1.1779 -0.1233 -0.7996
  641MOL0     H86494   7.601   7.345   6.486  2.4645 -2.7459  2.3688
  641MOL0     H86495   7.955   7.311   6.381  0.4638 -0.0970 -0.0999
  641MOL0     H86496   8.174   7.352   6.357 -1.4844  0.3867 -1.3634
  641MOL0     H86497   8.569   7.467   6.693  1.2619 -0.6470  2.3426
  641MOL0     H86498   8.798   7.543   6.741  2.4808  2.0263 -0.6781
  641MOL0     H86499   8.832   7.840   6.908  1.2464 -0.5973  2.4209
  641MOL0     H86500   8.902   7.677   6.878 -2.7368 -0.7022 -0.8382
  641MOL0     H86501   9.060   7.933   6.869  1.3280 -0.4740 -1.9379
  641MOL0     H86502   9.042   7.810   7.002 -0.8423 -1.0170  0.0582
  641MOL0     H86503   9.150   7.639   6.866 -0.3822  0.2486 -0.3960
  641MOL0     H86504   9.171   7.755   6.732 -4.6503 -1.3563 -1.1697
  641MOL0     H86505   9.275   7.724   7.015  1.5308 -0.7905  0.3365
  641MOL0     H86506   9.277   7.885   6.938 -1.1610 -0.5013 -0.1335
  641MOL0     H86507   9.435   7.805   6.761  0.9222 -2.2565 -1.7437
  641MOL0     H86508   9.390   7.640   6.811 -0.6577 -0.1891  1.3044
  641MOL0     H86509   9.563   7.826   6.981  1.2701 -0.8218  1.8103
  641MOL0     H86510   9.520   7.661   7.023  2.2533 -0.4891 -0.0557
  641MOL0     H86511   9.674   7.698   6.769  0.3881  1.6937  0.5809
  641MOL0     H86512   9.659   7.563   6.869 -0.8312  0.1524 -1.6652
  641MOL0     H86513   9.795   7.816   6.954 -0.1410  0.0391  2.5465
  641MOL0     H86514   9.773   7.669   7.056  1.3650 -0.1286 -0.0425
  641MOL0     H86515   8.731   7.926   6.580 -2.8546  1.6800  2.9263
  641MOL0     H86516   8.499   7.842   6.508  2.4652 -0.2882 -2.2189
  641MOL0     H86517   8.154   7.653   6.666  3.1966  2.0645 -4.3406
  641MOL0     H86518   7.919   7.598   6.699 -0.3122 -0.1610  0.5090
  641MOL0     H86519   6.276   8.038   7.024  0.5046 -1.9408  2.4596
  641MOL0     H86520   6.033   8.101   7.030  0.7226 -0.1514  2.2474
  641MOL0     H86521   5.650   8.193   6.674 -0.4793  0.1577  0.2731
  641MOL0     H86522   5.426   8.225   6.640 -0.3640  2.7189  2.4167
  641MOL0     H86523   5.192   8.215   6.607  0.4500 -1.0412  0.4134
  641MOL0     H86524   5.170   8.330   6.747 -0.0181  0.2894 -2.1406
  641MOL0     H86525   5.025   8.087   6.655  0.4652  0.8016 -0.2792
  641MOL0     H86526   4.976   8.261   6.633  0.6350  0.5718 -0.6738
  641MOL0     H86527   4.950   8.274   6.885  0.0402  0.1495  0.0441
  641MOL0     H86528   4.976   8.106   6.896  1.1075 -0.0738 -0.1690
  641MOL0     H86529   4.748   8.219   6.714  0.0686  2.8138  1.9412
  641MOL0     H86530   4.759   8.055   6.788 -0.6712 -0.2317 -0.7540
  641MOL0     H86531   4.602   8.237   7.112  1.2250  1.5429  0.6951
  641MOL0     H86532   5.332   8.013   6.993  0.0063 -0.5613 -0.8056
  641MOL0     H86533   5.655   7.979   7.113  0.2484 -0.3889 -1.5760
  641MOL0     H86534   5.487   7.924   7.132 -0.7444 -2.5607 -0.3146
  641MOL0     H86535   5.599   7.834   7.035  0.3800  0.1991  0.4940
  642MOL0     O86536  10.950   9.788   0.826 -0.2568 -0.2403  0.1594
  642MOL0     C86537  10.934   9.849   0.721  0.0020 -0.3186 -0.3154
  642MOL0     O86538  11.038   9.904   0.642  0.3323 -0.7290 -0.0512
  642MOL0     C86539  11.158   9.849   0.646 -0.2402  0.7438  0.8290
  642MOL0     C86540  11.190   9.725   0.583 -0.4978 -0.5719  0.0777
  642MOL0     C86541  11.316   9.672   0.579  0.6866 -0.4168 -0.1604
  642MOL0     C86542  11.418   9.738   0.656 -0.2860  0.4057 -0.0818
  642MOL0     O86543  11.551   9.698   0.669  0.8282  0.6067 -0.5629
  642MOL0     C86544  11.610   9.651   0.547 -0.3770  0.7028  0.0938
  642MOL0     C86545  11.717   9.547   0.591  0.0183  0.0894  0.2726
  642MOL0     C86546  11.836   9.615   0.649 -0.8348 -0.3503  0.5532
  642MOL0     C86547  11.921   9.522   0.735 -0.4475 -0.2098  0.3483
  642MOL0     C86548  12.027   9.608   0.811  0.4799 -1.1215  0.0964
  642MOL0     C86549  12.151   9.641   0.721  1.0001 -0.1966 -0.3650
  642MOL0     C86550  12.270   9.532   0.731  0.5824 -0.0567  0.4391
  642MOL0     C86551  12.362   9.545   0.857  0.2034 -0.5296 -1.1224
  642MOL0     N86552  12.488   9.466   0.840 -0.3921 -0.5428 -0.4777
  642MOL0     C86553  12.621   9.514   0.846  0.1668  0.2302 -1.0278
  642MOL0     C86554  12.692   9.400   0.863  0.2180 -0.0701 -0.0182
  642MOL0     C86555  12.838   9.393   0.898  1.0480 -0.0589  0.7625
  642MOL0     C86556  12.862   9.429   1.039  0.4278 -0.4362  1.0650
  642MOL0     C86557  12.971   9.541   1.051 -0.0860 -0.2933  0.2581
  642MOL0     C86558  13.113   9.494   1.021  0.6956 -0.2190 -0.5155
  642MOL0     O86559  13.145   9.388   1.108  0.2504  0.6399  0.0808
  642MOL0     C86560  13.271   9.342   1.108  0.5364  0.0117 -1.1273
  642MOL0     C86561  13.371   9.397   1.024  0.2170 -0.1099 -0.1999
  642MOL0     C86562  13.503   9.354   1.052 -0.5477 -0.2035  0.4014
  642MOL0     C86563  13.534   9.256   1.149 -0.2157 -0.6483 -0.1834
  642MOL0     C86564  13.671   9.196   1.159  0.7754  0.2737  0.3119
  642MOL0     O86565  13.759   9.235   1.061 -0.5714  0.1775  0.3649
  642MOL0     C86566  13.886   9.180   1.049  0.7077 -0.5212 -0.0432
  642MOL0     C86567  13.949   9.207   0.928  0.0180 -0.6506  0.7483
  642MOL0     C86568  14.078   9.168   0.898 -0.3673  0.1646  0.4515
  642MOL0     C86569  14.145   9.077   0.977  0.2402  0.0411  0.8003
  642MOL0     O86570  14.271   9.026   0.970 -0.0598 -0.4224  0.0441
  642MOL0     C86571  14.319   9.029   0.833  0.0068 -0.1323 -0.7352
  642MOL0     C86572  14.467   8.992   0.839 -0.5049 -0.1774  0.4055
  642MOL0     C86573  14.512   8.980   0.696  0.4479  0.9775  0.6971
  642MOL0     C86574  14.655   8.925   0.694  0.2856  0.3223 -0.0563
  642MOL0     C86575  14.703   8.878   0.554 -0.0609 -0.0530  0.5100
  642MOL0     C86576  14.844   8.814   0.554  0.4349 -0.3416  0.6141
  642MOL0     C86577  14.961   8.920   0.594  0.6199 -0.0542 -0.5533
  642MOL0     C86578  14.961   9.045   0.494 -0.2924  0.5857 -0.4680
  642MOL0    Cl86579  15.070   9.166   0.556 -0.0868  0.0947  0.0710
  642MOL0     C86580  14.081   9.043   1.096  0.5107 -0.4939 -0.4807
  642MOL0     C86581  13.955   9.092   1.137 -0.3353 -0.2503  1.1082
  642MOL0     O86582  13.686   9.112   1.250  0.2366 -1.0013 -0.0157
  642MOL0     C86583  13.429   9.209   1.219  0.4582 -0.6861  0.1406
  642MOL0     C86584  13.299   9.250   1.197 -0.1481  0.8040 -0.3515
  642MOL0     N86585  12.615   9.287   0.862 -0.0204  0.5558 -0.1228
  642MOL0     N86586  12.494   9.327   0.864  0.4209  0.6518  0.3104
  642MOL0     C86587  11.387   9.859   0.718  0.4869  0.2509  0.0259
  642MOL0     C86588  11.257   9.912   0.720 -0.1593 -0.8716 -0.2780
  642MOL0     C86589  10.797   9.895   0.688  0.6911  0.0318  0.3988
  642MOL0     C86590  10.713   9.926   0.791  0.2499  0.5471  0.1914
  642MOL0     C86591  10.581   9.953   0.759 -0.0991 -0.7253 -0.4114
  642MOL0     C86592  10.529   9.952   0.634 -0.0162 -0.4422 -0.3011
  642MOL0     O86593  10.400   9.990   0.620 -0.0170 -0.9692 -0.5655
  642MOL0     C86594  10.352  10.000   0.482 -0.1885 -0.2671  0.2459
  642MOL0     C86595  10.232  10.101   0.488 -0.2205 -0.0475 -0.6696
  642MOL0     C86596  10.135  10.076   0.600 -0.3014  0.1004  0.4221
  642MOL0     C86597  10.005  10.160   0.593  0.7205 -0.3405 -0.2625
  642MOL0     C86598   9.936  10.172   0.724 -0.1976  0.4559  0.4494
  642MOL0     C86599   9.866  10.181   0.825  0.1193 -1.1370  0.0755
  642MOL0     C86600  10.615   9.908   0.533  0.7430 -0.1757 -0.2210
  642MOL0     C86601  10.754   9.891   0.553  0.2470  0.5712  0.0079
  642MOL0     C86602  10.848   9.853   0.434 -0.4628 -0.4388  0.0442
  642MOL0     H86603  11.109   9.679   0.528 -2.0294  1.3192  0.6419
  642MOL0     H86604  11.342   9.577   0.534  0.9177 -1.7565  2.5841
  642MOL0     H86605  11.541   9.601   0.478 -0.8559 -1.6286  2.0939
  642MOL0     H86606  11.663   9.729   0.493 -1.6154  1.0767 -0.6116
  642MOL0     H86607  11.752   9.490   0.504  0.8795 -1.8290  1.7770
  642MOL0     H86608  11.680   9.478   0.668  2.4749 -0.8878  0.6670
  642MOL0     H86609  11.807   9.695   0.718  0.6852 -1.2172  2.3168
  642MOL0     H86610  11.898   9.661   0.572 -0.8656  3.6834  2.6895
  642MOL0     H86611  11.865   9.464   0.808  2.1830 -1.5112  1.4574
  642MOL0     H86612  11.990   9.461   0.676  0.7731  0.4334  1.0752
  642MOL0     H86613  11.988   9.704   0.846  0.3734 -0.6554 -1.2325
  642MOL0     H86614  12.078   9.553   0.891  0.7292  0.4411  1.0718
  642MOL0     H86615  12.118   9.664   0.620 -1.3872 -2.9170 -0.3353
  642MOL0     H86616  12.192   9.735   0.761 -2.6724  1.3015  0.3385
  642MOL0     H86617  12.335   9.547   0.645  1.5718  1.0774  1.3515
  642MOL0     H86618  12.234   9.429   0.720  1.1320 -0.4385  2.0038
  642MOL0     H86619  12.382   9.651   0.875 -1.8938 -0.5480  2.3383
  642MOL0     H86620  12.314   9.522   0.953 -0.4059  0.0416 -1.2760
  642MOL0     H86621  12.658   9.615   0.853 -2.1834  1.0929 -0.0232
  642MOL0     H86622  12.885   9.296   0.880 -4.0604 -2.6887 -0.1240
  642MOL0     H86623  12.891   9.460   0.829  0.7815  1.5303  2.0434
  642MOL0     H86624  12.764   9.467   1.070  0.4211 -0.6736  1.3337
  642MOL0     H86625  12.887   9.336   1.090  2.3702 -0.9526 -0.6810
  642MOL0     H86626  12.969   9.585   1.151 -1.9287 -0.1916  0.2145
  642MOL0     H86627  12.950   9.618   0.976 -0.4246 -0.6812 -0.0467
  642MOL0     H86628  13.177   9.582   1.030  0.8402 -0.0570 -2.7082
  642MOL0     H86629  13.132   9.462   0.919  0.5292  0.9055 -0.9186
  642MOL0     H86630  13.353   9.470   0.945  2.7284  2.0080  1.0398
  642MOL0     H86631  13.578   9.394   0.984 -1.4221 -0.5027 -0.7768
  642MOL0     H86632  13.889   9.263   0.857  0.8505 -1.1520 -0.4042
  642MOL0     H86633  14.114   9.203   0.802  0.2735 -0.3114  0.5151
  642MOL0     H86634  14.264   8.951   0.781  1.5313 -0.8397 -1.3401
  642MOL0     H86635  14.314   9.128   0.786  0.7656  1.6740  2.6298
  642MOL0     H86636  14.519   9.077   0.885  1.6201 -0.8812 -0.5874
  642MOL0     H86637  14.476   8.903   0.902 -0.0054  0.0208  0.6140
  642MOL0     H86638  14.451   8.907   0.641  1.4206  1.6266 -1.3393
  642MOL0     H86639  14.505   9.075   0.643 -1.2405 -0.3656 -1.7058
  642MOL0     H86640  14.656   8.833   0.753 -1.1835 -1.0496 -2.0374
  642MOL0     H86641  14.725   8.992   0.745  1.5360  0.8371 -2.2971
  642MOL0     H86642  14.697   8.949   0.471 -2.1025  0.0077  0.6463
  642MOL0     H86643  14.638   8.796   0.522  0.4765  0.1789 -1.2846
  642MOL0     H86644  14.848   8.738   0.632 -0.7554  0.1738  1.2190
  642MOL0     H86645  14.869   8.768   0.458 -1.7886 -0.4306  0.0128
  642MOL0     H86646  15.056   8.866   0.592  0.8622  0.2254  1.3700
  642MOL0     H86647  14.946   8.952   0.697 -0.5671 -0.4051 -0.6033
  642MOL0     H86648  14.980   9.011   0.391 -2.8555 -2.4503 -0.1081
  642MOL0     H86649  14.864   9.093   0.478 -0.0509  1.5323  0.7720
  642MOL0     H86650  14.139   8.981   1.163  0.6340 -0.4437 -0.5420
  642MOL0     H86651  13.917   9.067   1.236 -0.3969 -0.2395  1.0877
  642MOL0     H86652  13.457   9.126   1.283  3.0004 -1.8439 -2.2837
  642MOL0     H86653  13.219   9.212   1.258 -0.1142  2.8795  1.0917
  642MOL0     H86654  11.459   9.916   0.776  0.0503 -0.8080  1.6838
  642MOL0     H86655  11.235  10.005   0.771 -1.0755 -1.2265  0.0087
  642MOL0     H86656  10.751   9.931   0.893  0.7724  0.1534  0.0202
  642MOL0     H86657  10.516   9.968   0.844 -1.9298 -1.8438 -1.5427
  642MOL0     H86658  10.307   9.903   0.457 -0.0675 -0.5282  1.0212
  642MOL0     H86659  10.419  10.041   0.406 -1.0405  1.8841  0.5629
  642MOL0     H86660  10.181  10.083   0.393 -0.7688 -0.2964 -0.3315
  642MOL0     H86661  10.279  10.201   0.488  0.7016 -0.4573 -1.3860
  642MOL0     H86662  10.189  10.118   0.685  1.5190 -1.3719  0.0503
  642MOL0     H86663  10.112   9.971   0.621  2.0392 -0.6891 -0.5814
  642MOL0     H86664  10.028  10.263   0.566  1.4531 -0.2448  0.7102
  642MOL0     H86665   9.947  10.098   0.523 -0.3767  1.7547 -1.3179
  642MOL0     H86666   9.801  10.204   0.907  1.2976  0.4472  0.6231
  642MOL0     H86667  10.583   9.899   0.429  1.0854  0.2569 -0.3658
  642MOL0     H86668  10.785   9.809   0.355 -0.4364 -0.5570  0.0895
  642MOL0     H86669  10.916   9.930   0.398 -2.0662  0.9064 -0.2783
  642MOL0     H86670  10.915   9.770   0.458  1.2483  0.4196 -1.4978
  643MOL0     O86671  10.650   7.700   1.433  1.0013  0.1314 -0.2574
  643MOL0     C86672  10.662   7.774   1.530 -0.6017  1.0760  0.2209
  643MOL0     O86673  10.765   7.849   1.547  0.1408  0.3367 -0.6535
  643MOL0     C86674  10.852   7.864   1.447 -0.3417 -0.5018  0.1316
  643MOL0     C86675  10.982   7.848   1.483 -0.0825 -0.0618  0.6285
  643MOL0     C86676  11.087   7.863   1.402  0.0907 -1.1336  0.5170
  643MOL0     C86677  11.062   7.930   1.280 -0.3318  0.1539  1.4487
  643MOL0     O86678  11.159   7.945   1.182  0.6895  0.1648  0.3801
  643MOL0     C86679  11.134   7.897   1.048 -0.0921  0.2166  0.1822
  643MOL0     C86680  11.263   7.852   0.976  0.9217  0.0204 -1.3107
  643MOL0     C86681  11.367   7.962   0.983  0.6446 -0.5053  0.0441
  643MOL0     C86682  11.457   7.957   1.110  0.5168  0.1676  0.3237
  643MOL0     C86683  11.562   8.063   1.118 -0.6805  0.5795 -0.2612
  643MOL0     C86684  11.675   8.051   1.013  0.5300  0.2617  0.4763
  643MOL0     C86685  11.758   8.176   0.999  0.4051 -0.2880 -0.1619
  643MOL0     C86686  11.820   8.231   1.127  0.3918  0.8075  0.2351
  643MOL0     N86687  11.884   8.137   1.225 -0.3626  1.0184 -0.3974
  643MOL0     C86688  11.995   8.060   1.201 -0.5153 -0.2130 -0.4742
  643MOL0     C86689  12.032   8.010   1.321  0.0435  0.4663 -0.7256
  643MOL0     C86690  12.131   7.896   1.341  0.4073 -0.0208 -0.5103
  643MOL0     C86691  12.254   7.931   1.430  0.0180 -1.0077 -0.2316
  643MOL0     C86692  12.223   7.948   1.576 -0.0185 -1.0482 -0.3583
  643MOL0     C86693  12.344   7.949   1.666  0.9743 -0.0003  0.2086
  643MOL0     O86694  12.437   8.054   1.643 -0.9366 -0.4637  0.0676
  643MOL0     C86695  12.556   8.032   1.570  0.2824  0.5336  0.3028
  643MOL0     C86696  12.633   8.152   1.552 -0.3326 -0.0020  0.1750
  643MOL0     C86697  12.736   8.154   1.463  0.7927 -0.0902  0.4750
  643MOL0     C86698  12.772   8.038   1.391 -0.1079 -0.0463 -0.0746
  643MOL0     C86699  12.885   8.031   1.294  1.0040 -0.1108 -0.2168
  643MOL0     O86700  12.937   7.907   1.272  0.4596 -0.3194 -0.2158
  643MOL0     C86701  13.057   7.913   1.198 -0.3412  0.7331  0.0864
  643MOL0     C86702  13.172   7.962   1.256 -0.9853 -0.2901 -0.4329
  643MOL0     C86703  13.294   7.967   1.187 -0.1014 -0.1230 -0.4452
  643MOL0     C86704  13.303   7.906   1.060  0.5275  0.2536  0.4477
  643MOL0     O86705  13.422   7.893   0.987 -0.6437  0.1413 -0.7517
  643MOL0     C86706  13.417   7.923   0.851  0.3709  1.0694  0.4112
  643MOL0     C86707  13.407   8.071   0.832  0.5395 -0.6953  0.1021
  643MOL0     C86708  13.358   8.099   0.686 -0.4759  0.5937 -0.1627
  643MOL0     C86709  13.370   8.245   0.662 -0.2203  0.5658 -0.1863
  643MOL0     C86710  13.351   8.267   0.516  0.0638  0.3714  0.5733
  643MOL0     C86711  13.366   8.411   0.472  0.3292  0.8223  0.0906
  643MOL0     C86712  13.510   8.464   0.469  0.0713 -0.6168  0.9108
  643MOL0     C86713  13.514   8.619   0.489 -0.4145  0.9020 -0.0360
  643MOL0    Cl86714  13.683   8.679   0.463 -0.1708  0.5514 -0.0359
  643MOL0     C86715  13.186   7.844   1.011 -0.1831  0.4870  0.3066
  643MOL0     C86716  13.063   7.835   1.078  0.0375 -0.4953  0.4790
  643MOL0     O86717  12.927   8.135   1.251 -0.3637 -0.2893 -0.1688
  643MOL0     C86718  12.694   7.918   1.408 -1.0841  0.3258  0.3538
  643MOL0     C86719  12.588   7.918   1.502 -0.2588  0.2868  0.0372
  643MOL0     N86720  11.954   8.068   1.421  0.4471 -0.2202 -0.5189
  643MOL0     N86721  11.857   8.132   1.367  0.5863  0.1948  0.1274
  643MOL0     C86722  10.929   7.973   1.242 -0.0459 -0.1199  0.1460
  643MOL0     C86723  10.825   7.925   1.322 -0.5536  0.4215  0.2983
  643MOL0     C86724  10.562   7.763   1.638  0.4315 -1.1745 -0.3958
  643MOL0     C86725  10.609   7.795   1.764 -0.2440  0.2860 -0.1210
  643MOL0     C86726  10.519   7.785   1.875 -0.1296 -0.1794  0.4911
  643MOL0     C86727  10.385   7.761   1.849 -0.7158 -0.2635  0.4288
  643MOL0     O86728  10.289   7.764   1.952 -0.2697  0.0941 -0.4916
  643MOL0     C86729  10.271   7.640   2.018 -0.6081  0.0662 -0.0155
  643MOL0     C86730  10.211   7.664   2.155  0.2846 -0.3906 -0.7321
  643MOL0     C86731  10.059   7.714   2.152 -0.3539 -0.3271 -0.1741
  643MOL0     C86732  10.016   7.764   2.289 -0.1850  0.8012  0.2669
  643MOL0     C86733  10.095   7.872   2.340  0.0249  0.0503  0.5952
  643MOL0     C86734  10.164   7.956   2.389  0.0662  0.0807  0.1347
  643MOL0     C86735  10.336   7.742   1.719  0.0212 -0.7297 -0.1269
  643MOL0     C86736  10.423   7.747   1.616  0.0137  0.2686 -0.1225
  643MOL0     C86737  10.367   7.719   1.474  0.2057  0.3371  0.0715
  643MOL0     H86738  11.010   7.821   1.584 -1.6349 -2.3098  0.5183
  643MOL0     H86739  11.185   7.830   1.437  1.1172 -0.8209 -1.8688
  643MOL0     H86740  11.064   7.813   1.054  1.1700 -0.7685  2.0393
  643MOL0     H86741  11.082   7.973   0.989 -0.0412  2.0605  2.3741
  643MOL0     H86742  11.250   7.821   0.871  0.1793  1.8738 -1.7984
  643MOL0     H86743  11.304   7.767   1.032  0.0588  0.3756 -0.1124
  643MOL0     H86744  11.310   8.055   0.992  2.7393  0.6145  3.5297
  643MOL0     H86745  11.422   7.962   0.889 -1.0438 -2.3458 -1.0279
  643MOL0     H86746  11.396   7.965   1.200  2.0566 -1.1214  1.5269
  643MOL0     H86747  11.498   7.856   1.113 -2.6814 -1.4206 -2.5399
  643MOL0     H86748  11.518   8.163   1.121 -2.9995 -0.3246 -1.4472
  643MOL0     H86749  11.614   8.043   1.212 -3.6774 -1.2499  1.1655
  643MOL0     H86750  11.743   7.969   1.041  0.9567  1.3426  2.8912
  643MOL0     H86751  11.644   8.017   0.914 -1.3815  0.1282  1.0769
  643MOL0     H86752  11.689   8.254   0.964 -0.2125  1.0267  3.5924
  643MOL0     H86753  11.838   8.159   0.927 -0.5062 -4.3380 -0.4735
  643MOL0     H86754  11.895   8.309   1.107  0.8963  0.5711  1.1095
  643MOL0     H86755  11.743   8.282   1.186  1.3673  1.9603  0.5652
  643MOL0     H86756  12.024   8.033   1.100 -2.2312 -1.1414 -0.7626
  643MOL0     H86757  12.078   7.811   1.386  0.9718 -0.0145  0.1903
  643MOL0     H86758  12.161   7.864   1.241 -0.0277 -1.5853 -0.1642
  643MOL0     H86759  12.333   7.859   1.406  0.2740 -1.3135  1.4324
  643MOL0     H86760  12.297   8.026   1.397 -2.4373 -0.5111 -2.3348
  643MOL0     H86761  12.150   7.877   1.616 -0.4172 -0.9791 -0.9385
  643MOL0     H86762  12.182   8.048   1.593  3.9155  0.8561 -1.0112
  643MOL0     H86763  12.384   7.849   1.647 -1.3935 -0.7124 -1.6936
  643MOL0     H86764  12.316   7.956   1.771  0.2950  2.2614 -0.0580
  643MOL0     H86765  12.593   8.243   1.596  0.5087  0.9198 -0.9007
  643MOL0     H86766  12.797   8.244   1.453  0.8671  0.0477  1.8751
  643MOL0     H86767  13.167   7.990   1.361  2.4410  0.1903 -0.2966
  643MOL0     H86768  13.386   8.009   1.225 -0.4076 -0.5907  0.8769
  643MOL0     H86769  13.506   7.885   0.799 -1.4441 -0.1201 -2.0326
  643MOL0     H86770  13.334   7.883   0.793  0.9348  0.6824 -0.1396
  643MOL0     H86771  13.328   8.097   0.903  0.2747 -3.8413  1.1426
  643MOL0     H86772  13.506   8.116   0.846  0.3788  0.1208 -1.3198
  643MOL0     H86773  13.423   8.035   0.626  2.5175 -0.7879  4.0364
  643MOL0     H86774  13.258   8.056   0.674  0.4749 -2.4604  1.6420
  643MOL0     H86775  13.468   8.277   0.698  0.8230 -2.5587  0.0437
  643MOL0     H86776  13.283   8.288   0.711 -0.0040  1.1979 -0.3543
  643MOL0     H86777  13.254   8.235   0.477  0.9564 -1.2116 -0.4320
  643MOL0     H86778  13.425   8.212   0.457 -0.7074  1.7215 -1.7901
  643MOL0     H86779  13.314   8.430   0.378 -1.9818 -0.3521  1.0634
  643MOL0     H86780  13.316   8.469   0.550 -0.9917 -0.1655  0.0218
  643MOL0     H86781  13.542   8.435   0.369  0.9375 -1.6704  1.4673
  643MOL0     H86782  13.574   8.418   0.546 -0.7736  2.3528  3.6061
  643MOL0     H86783  13.443   8.673   0.426 -2.5949  0.4800  1.9312
  643MOL0     H86784  13.487   8.648   0.591 -2.3005  2.5115 -0.9333
  643MOL0     H86785  13.204   7.790   0.919  3.3318  0.4880  0.8518
  643MOL0     H86786  12.974   7.782   1.046 -2.2363  2.2576  1.7987
  643MOL0     H86787  12.715   7.834   1.343  0.5719  0.7692  0.2751
  643MOL0     H86788  12.544   7.819   1.512  2.2444 -0.7435  2.0175
  643MOL0     H86789  10.899   8.026   1.151 -2.1165 -0.9830  0.2732
  643MOL0     H86790  10.724   7.945   1.286 -0.2176 -1.0584 -1.5730
  643MOL0     H86791  10.714   7.817   1.778 -0.1058  0.9334 -1.9091
  643MOL0     H86792  10.539   7.819   1.977 -1.1103  2.0113  0.0259
  643MOL0     H86793  10.365   7.584   2.021  1.5910  3.3757 -0.6635
  643MOL0     H86794  10.198   7.589   1.954  0.7084 -0.3527 -1.2374
  643MOL0     H86795  10.271   7.739   2.208  1.4632 -0.0738 -2.4363
  643MOL0     H86796  10.217   7.573   2.215  1.5716  0.6484  0.8185
  643MOL0     H86797   9.980   7.647   2.117 -1.4279  0.6848  0.2195
  643MOL0     H86798  10.057   7.799   2.083  0.1232 -1.0911 -1.1516
  643MOL0     H86799   9.911   7.795   2.278 -0.9459 -1.4199  0.6466
  643MOL0     H86800  10.011   7.676   2.355 -2.2119  1.3408  0.9202
  643MOL0     H86801  10.247   8.011   2.429  0.8914 -2.0251  1.5039
  643MOL0     H86802  10.231   7.719   1.705 -0.6255  0.9043  1.6250
  643MOL0     H86803  10.402   7.619   1.446  0.5929  0.6648 -0.6468
  643MOL0     H86804  10.258   7.724   1.484  0.2941 -0.0775  1.5021
  643MOL0     H86805  10.405   7.784   1.394  2.7770  2.1311  2.5515
  644MOL0     O86806   5.508   7.473   6.476  0.1648 -0.2242  0.3199
  644MOL0     C86807   5.420   7.388   6.490 -0.3025 -0.3694  0.0063
  644MOL0     O86808   5.424   7.282   6.567  0.1688 -0.7021  0.2574
  644MOL0     C86809   5.536   7.251   6.640 -0.0747  0.2610  0.7873
  644MOL0     C86810   5.656   7.224   6.568  0.4486 -0.5287  0.8282
  644MOL0     C86811   5.766   7.171   6.636 -0.5269 -0.1473 -0.5620
  644MOL0     C86812   5.763   7.154   6.778 -0.5117 -0.2989  0.9793
  644MOL0     O86813   5.877   7.123   6.843  0.2249 -0.6126 -0.2812
  644MOL0     C86814   5.998   7.115   6.765  1.0648  0.1234  0.3941
  644MOL0     C86815   6.101   7.100   6.876  0.0147  0.0623  0.4650
  644MOL0     C86816   6.248   7.111   6.825 -0.3138 -0.3326  0.3652
  644MOL0     C86817   6.355   7.087   6.930 -0.4926 -0.7630  0.2945
  644MOL0     C86818   6.491   7.133   6.868 -0.0344 -0.0229 -0.7246
  644MOL0     C86819   6.597   7.107   6.969  0.1219  0.7393 -0.1072
  644MOL0     C86820   6.729   7.145   6.910 -0.9073  0.0260 -0.4064
  644MOL0     C86821   6.841   7.087   6.983 -0.3950  0.0109 -0.5412
  644MOL0     N86822   6.971   7.119   6.919  0.5811 -0.8559  0.3442
  644MOL0     C86823   7.037   7.050   6.818 -0.4531  0.5618 -0.5605
  644MOL0     C86824   7.173   7.093   6.832  1.1269  0.0056  0.0777
  644MOL0     C86825   7.288   7.054   6.755  0.3628  1.0097 -0.4030
  644MOL0     C86826   7.403   7.150   6.774  0.2202 -0.0816  0.0815
  644MOL0     C86827   7.512   7.153   6.666 -0.0999 -0.0214 -0.0380
  644MOL0     C86828   7.604   7.028   6.652 -0.3422 -0.9351  0.3864
  644MOL0     O86829   7.723   7.055   6.582  0.0341  0.3147  0.6201
  644MOL0     C86830   7.835   7.100   6.651 -0.4506  0.1525  0.3254
  644MOL0     C86831   7.957   7.105   6.586  0.7728 -0.4829  0.2528
  644MOL0     C86832   8.071   7.152   6.656 -0.0299 -0.2081  0.1637
  644MOL0     C86833   8.067   7.202   6.788  0.0380 -0.3227  0.2965
  644MOL0     C86834   8.182   7.270   6.861 -1.1210  0.3538 -0.0067
  644MOL0     O86835   8.311   7.258   6.808  0.4679 -0.0780  0.4703
  644MOL0     C86836   8.417   7.311   6.873 -0.5570 -0.1209  0.8769
  644MOL0     C86837   8.541   7.252   6.851  0.3161  0.6449  0.5674
  644MOL0     C86838   8.656   7.295   6.909 -0.8084  0.6331 -0.6655
  644MOL0     C86839   8.656   7.413   6.998 -0.4970  0.7804 -0.5750
  644MOL0     O86840   8.766   7.463   7.069  0.3156 -0.1892 -0.2778
  644MOL0     C86841   8.895   7.409   7.048 -0.0669 -0.2643  0.8049
  644MOL0     C86842   8.994   7.492   7.136 -0.2989 -0.7172 -0.3974
  644MOL0     C86843   9.140   7.437   7.137  0.5618  0.1057 -0.2187
  644MOL0     C86844   9.210   7.495   7.263  1.0390  0.3978 -0.4052
  644MOL0     C86845   9.350   7.440   7.286  0.2933  0.4589  0.1993
  644MOL0     C86846   9.452   7.546   7.310 -0.5723 -0.1191  0.5779
  644MOL0     C86847   9.587   7.491   7.311 -1.0030 -0.2921 -0.0143
  644MOL0     C86848   9.699   7.582   7.348  1.4371 -0.2285  1.0436
  644MOL0    Cl86849   9.836   7.482   7.388  0.1861  0.2284 -0.4432
  644MOL0     C86850   8.534   7.477   7.011  0.1578 -0.0427  0.8361
  644MOL0     C86851   8.411   7.429   6.945  0.3764 -0.0020 -0.4282
  644MOL0     O86852   8.150   7.315   6.971 -0.4557  0.0047 -1.0491
  644MOL0     C86853   7.945   7.183   6.853 -0.2954  0.0122 -0.3713
  644MOL0     C86854   7.827   7.130   6.787 -0.8018  0.0867 -1.1313
  644MOL0     N86855   7.166   7.184   6.938  0.4055  0.3743 -1.1380
  644MOL0     N86856   7.048   7.204   6.991 -0.4915  0.0755  0.2296
  644MOL0     C86857   5.645   7.179   6.848 -0.3780 -0.2062  1.3545
  644MOL0     C86858   5.530   7.226   6.776  0.5467  0.1513  0.3313
  644MOL0     C86859   5.325   7.380   6.376  0.5688 -0.3130 -0.1158
  644MOL0     C86860   5.251   7.263   6.364 -0.9540 -0.0824  0.8321
  644MOL0     C86861   5.152   7.242   6.265 -0.1425  0.0280 -0.3075
  644MOL0     C86862   5.140   7.340   6.169  0.5355 -0.1887  1.0256
  644MOL0     O86863   5.040   7.330   6.069  0.1749 -0.1567 -0.4881
  644MOL0     C86864   4.903   7.318   6.111  0.2135  0.6618  0.2081
  644MOL0     C86865   4.857   7.434   6.190 -0.6715  0.0445  0.2147
  644MOL0     C86866   4.862   7.568   6.112  0.4089 -0.7849  0.1875
  644MOL0     C86867   4.780   7.677   6.178 -0.5500 -0.5284 -0.0638
  644MOL0     C86868   4.641   7.644   6.162 -0.7350 -0.1001 -0.0688
  644MOL0     C86869   4.533   7.601   6.174  0.4856  0.2692  1.7440
  644MOL0     C86870   5.228   7.445   6.167 -0.0506 -1.4503 -0.1158
  644MOL0     C86871   5.311   7.477   6.271  0.2581 -0.0764  0.8616
  644MOL0     C86872   5.368   7.616   6.265 -0.5049  0.1523  0.1910
  644MOL0     H86873   5.671   7.240   6.461 -0.9888  0.3959  0.7459
  644MOL0     H86874   5.856   7.170   6.576  0.2285  4.8318  0.0720
  644MOL0     H86875   5.991   7.028   6.698 -0.3695  0.8295 -0.4125
  644MOL0     H86876   6.019   7.207   6.709 -0.2361  0.7596  0.9204
  644MOL0     H86877   6.066   7.010   6.927  0.1673 -0.0648  0.3483
  644MOL0     H86878   6.076   7.176   6.950 -3.2795 -0.7104  0.3296
  644MOL0     H86879   6.269   7.208   6.779  0.6162 -0.1941  1.0556
  644MOL0     H86880   6.273   7.042   6.743  2.5676 -0.3758  1.1550
  644MOL0     H86881   6.331   7.146   7.019 -0.3185  2.6218 -1.7110
  644MOL0     H86882   6.362   6.983   6.962 -1.7027 -1.1480 -0.5897
  644MOL0     H86883   6.512   7.067   6.783 -0.9450 -0.2196 -0.8043
  644MOL0     H86884   6.492   7.237   6.834 -2.4440  0.1860 -0.3067
  644MOL0     H86885   6.585   7.164   7.061 -0.2436 -0.9231  0.9096
  644MOL0     H86886   6.597   7.002   6.998  2.6369  1.2666  2.2320
  644MOL0     H86887   6.735   7.254   6.911 -0.2898 -0.0037 -0.0795
  644MOL0     H86888   6.738   7.104   6.809  1.7853 -1.1082  0.1941
  644MOL0     H86889   6.846   7.132   7.082  0.9767  1.3915 -1.1970
  644MOL0     H86890   6.832   6.979   6.990 -0.7775  0.0741 -0.0086
  644MOL0     H86891   7.001   6.977   6.746  1.3430 -0.2552 -0.7004
  644MOL0     H86892   7.329   6.956   6.781 -1.9753 -0.2576 -1.2127
  644MOL0     H86893   7.263   7.048   6.649  0.0634  0.7142 -0.3158
  644MOL0     H86894   7.363   7.252   6.774 -0.2217 -0.2048 -2.3285
  644MOL0     H86895   7.455   7.145   6.870  1.3192  1.8857 -0.3551
  644MOL0     H86896   7.576   7.239   6.691 -0.1057  0.0647 -0.3111
  644MOL0     H86897   7.465   7.156   6.567 -1.0244  1.9753  0.4073
  644MOL0     H86898   7.548   6.947   6.605 -2.7880  0.6458  0.4358
  644MOL0     H86899   7.622   6.983   6.750 -2.5362 -1.2993  0.6591
  644MOL0     H86900   7.952   7.077   6.482  1.6712 -1.4385  0.4600
  644MOL0     H86901   8.169   7.167   6.611  0.4415 -0.3679  1.1114
  644MOL0     H86902   8.541   7.165   6.786 -3.7789  0.1964  0.9100
  644MOL0     H86903   8.750   7.242   6.895 -0.9135 -0.4708  2.1605
  644MOL0     H86904   8.895   7.303   7.076 -3.0776  0.0565  2.5502
  644MOL0     H86905   8.927   7.417   6.944 -3.4164  2.1569 -0.2214
  644MOL0     H86906   9.008   7.588   7.085  4.8509 -1.6718 -1.4058
  644MOL0     H86907   8.959   7.505   7.239  1.8106  0.4928  0.2285
  644MOL0     H86908   9.129   7.329   7.155 -1.6960  0.4124  0.5479
  644MOL0     H86909   9.192   7.466   7.046 -0.0522 -0.8672 -0.9098
  644MOL0     H86910   9.150   7.481   7.354 -1.0944 -1.5182 -1.9805
  644MOL0     H86911   9.212   7.603   7.247 -1.8414  0.8270  1.3697
  644MOL0     H86912   9.373   7.376   7.200 -1.3795 -1.7172  1.2516
  644MOL0     H86913   9.341   7.379   7.376  0.3840 -0.1215 -0.1787
  644MOL0     H86914   9.448   7.618   7.227  0.0704 -1.0608 -0.3012
  644MOL0     H86915   9.429   7.603   7.400 -1.1721  1.5282 -0.5562
  644MOL0     H86916   9.610   7.455   7.210  0.6528 -0.0809  0.2617
  644MOL0     H86917   9.586   7.412   7.387 -1.1365 -0.3968 -0.1247
  644MOL0     H86918   9.722   7.659   7.273 -1.7760 -1.6816 -1.6853
  644MOL0     H86919   9.663   7.634   7.437 -1.1776 -1.0246  0.5312
  644MOL0     H86920   8.536   7.558   7.082  1.5527 -0.0757  0.8626
  644MOL0     H86921   8.312   7.471   6.960  0.6887 -0.3606  3.7170
  644MOL0     H86922   7.937   7.199   6.960 -2.0495  0.5104 -0.5520
  644MOL0     H86923   7.745   7.138   6.858  0.2198 -1.0924  0.2329
  644MOL0     H86924   5.649   7.173   6.956 -0.4116 -1.9897  1.2902
  644MOL0     H86925   5.441   7.255   6.830  1.1893 -0.8194  1.9892
  644MOL0     H86926   5.278   7.180   6.429  0.0918 -1.2557 -1.0056
  644MOL0     H86927   5.089   7.155   6.277 -1.8632  1.1851 -0.5712
  644MOL0     H86928   4.910   7.220   6.158 -1.0969 -0.2980 -1.5138
  644MOL0     H86929   4.836   7.324   6.025  1.3797 -0.7989 -0.8595
  644MOL0     H86930   4.903   7.448   6.288 -1.7357 -1.3161  0.9453
  644MOL0     H86931   4.751   7.419   6.211 -0.7979  1.3022  0.5595
  644MOL0     H86932   4.820   7.554   6.012  1.0243  4.1620 -1.0711
  644MOL0     H86933   4.965   7.603   6.106 -0.5474  2.5656  0.9919
  644MOL0     H86934   4.791   7.694   6.285  0.3695  0.5341 -0.3151
  644MOL0     H86935   4.793   7.767   6.117 -1.1332 -1.4130 -1.5599
  644MOL0     H86936   4.437   7.552   6.181  2.0267 -3.0349  1.8498
  644MOL0     H86937   5.216   7.510   6.081  0.9954 -0.3826  0.5121
  644MOL0     H86938   5.333   7.670   6.353 -0.4811 -1.3887  1.1738
  644MOL0     H86939   5.476   7.626   6.260 -0.2627 -1.6391  1.0281
  644MOL0     H86940   5.326   7.675   6.182  2.3217 -0.6239 -1.9229
  645MOL0     O86941   0.274   7.719   6.019 -0.4193 -0.1209  0.3622
  645MOL0     C86942   0.240   7.824   5.978 -0.1514 -0.4552  0.1719
  645MOL0     O86943   0.314   7.902   5.900 -0.2887  0.3712 -0.1456
  645MOL0     C86944   0.435   7.856   5.859  0.0650 -0.1936 -0.4139
  645MOL0     C86945   0.531   7.796   5.944  0.1046 -0.1452 -0.4964
  645MOL0     C86946   0.664   7.778   5.897  0.2406 -0.6834  0.4804
  645MOL0     C86947   0.696   7.803   5.763  0.1501  0.4900  0.4144
  645MOL0     O86948   0.819   7.757   5.721  0.0680 -0.3094 -0.3014
  645MOL0     C86949   0.931   7.850   5.728  0.5613  0.3093  0.0845
  645MOL0     C86950   0.972   7.891   5.586 -0.0728 -0.1998  0.6994
  645MOL0     C86951   1.076   8.002   5.582 -0.9540 -0.2023 -0.7627
  645MOL0     C86952   1.217   7.971   5.646 -0.1599 -0.0324  0.8364
  645MOL0     C86953   1.329   8.069   5.597  0.2231  0.1947 -0.1660
  645MOL0     C86954   1.372   8.045   5.456  0.3346  0.1609  0.1080
  645MOL0     C86955   1.507   8.105   5.416 -0.8691 -0.5369  0.2667
  645MOL0     C86956   1.616   8.108   5.529 -0.4408 -0.4792  0.4801
  645MOL0     N86957   1.748   8.150   5.476  0.4769  0.0128 -0.3691
  645MOL0     C86958   1.842   8.087   5.391 -0.2436  0.4014 -0.7699
  645MOL0     C86959   1.943   8.174   5.369  0.4772  0.1623  0.5046
  645MOL0     C86960   2.062   8.146   5.285  0.0200  0.0941 -0.4667
  645MOL0     C86961   2.187   8.155   5.372 -0.0069  0.0073 -0.0058
  645MOL0     C86962   2.245   8.294   5.372  0.4223 -0.1079 -0.2359
  645MOL0     C86963   2.368   8.302   5.440 -0.2624 -0.1412 -1.2861
  645MOL0     O86964   2.427   8.433   5.412  0.2465  0.2897 -0.2470
  645MOL0     C86965   2.543   8.465   5.472 -0.4151 -0.3908 -0.3135
  645MOL0     C86966   2.589   8.600   5.478  0.8386  0.6662  0.3988
  645MOL0     C86967   2.716   8.634   5.521 -0.9834  0.0373  0.1679
  645MOL0     C86968   2.808   8.539   5.566  0.4843  0.4653  0.1752
  645MOL0     C86969   2.942   8.575   5.608 -0.2632  0.6264  0.4103
  645MOL0     O86970   2.988   8.698   5.562 -0.0879  0.2250  0.1255
  645MOL0     C86971   3.105   8.756   5.618 -0.5358 -1.4875  0.0288
  645MOL0     C86972   3.138   8.758   5.755  0.4613  0.6550  0.9351
  645MOL0     C86973   3.253   8.809   5.814  0.1219 -0.2959  0.2128
  645MOL0     C86974   3.343   8.886   5.729 -0.0108  0.2647  0.1821
  645MOL0     O86975   3.458   8.927   5.777  0.9460 -0.1952 -0.2519
  645MOL0     C86976   3.459   9.062   5.822 -1.3919  0.8851 -0.0819
  645MOL0     C86977   3.599   9.076   5.880 -0.0279  0.3742  0.0111
  645MOL0     C86978   3.602   9.111   6.031 -0.3005 -0.3417 -0.1899
  645MOL0     C86979   3.746   9.140   6.069 -1.0909 -1.0426 -0.5630
  645MOL0     C86980   3.751   9.187   6.214 -0.4907  0.8992  0.3180
  645MOL0     C86981   3.898   9.224   6.266  0.4302 -0.7928 -0.6823
  645MOL0     C86982   3.894   9.218   6.422  0.1799  0.0260 -0.1382
  645MOL0     C86983   4.035   9.213   6.462  0.9576  0.1582  0.0546
  645MOL0    Cl86984   4.044   9.241   6.641 -0.4640 -0.0810  0.0593
  645MOL0     C86985   3.307   8.895   5.595  0.2476  0.2905 -0.3313
  645MOL0     C86986   3.187   8.841   5.536 -0.3302  0.4859  0.2498
  645MOL0     O86987   3.007   8.493   5.665 -0.5379  0.0685 -0.3386
  645MOL0     C86988   2.760   8.405   5.563 -0.8490 -0.1408 -1.2645
  645MOL0     C86989   2.640   8.369   5.517  0.5225  0.1689  0.7789
  645MOL0     N86990   1.919   8.285   5.452 -0.3952 -0.0020  0.0064
  645MOL0     N86991   1.803   8.270   5.511 -0.0176 -0.7658  0.2181
  645MOL0     C86992   0.599   7.854   5.681  0.1349 -0.7469  0.5282
  645MOL0     C86993   0.472   7.883   5.730 -0.2716 -0.3774  0.0022
  645MOL0     C86994   0.107   7.878   6.025 -0.1551  0.2105  0.1320
  645MOL0     C86995   0.084   8.019   6.008  0.4684  1.0239 -0.6726
  645MOL0     C86996  -0.034   8.075   6.050 -0.1842  0.4855 -0.1627
  645MOL0     C86997  -0.130   7.995   6.101  0.1904  0.5923 -0.4043
  645MOL0     O86998  -0.244   8.064   6.137  0.3899  0.2242  0.2461
  645MOL0     C86999  -0.360   7.992   6.191 -0.3827 -0.5180 -0.0573
  645MOL0     C87000  -0.431   7.901   6.098 -0.9351 -1.0233  0.1391
  645MOL0     C87001  -0.500   7.993   5.994  0.5163 -0.3808  0.6702
  645MOL0     C87002  -0.595   7.918   5.898  0.1687  0.0992 -0.3165
  645MOL0     C87003  -0.719   7.867   5.962  0.5342  0.7632  0.1799
  645MOL0     C87004  -0.822   7.849   6.019 -0.3065  0.6208 -0.1346
  645MOL0     C87005  -0.108   7.849   6.126 -0.3186 -0.2049  0.2862
  645MOL0     C87006   0.008   7.787   6.088  0.0719 -1.1124  0.1700
  645MOL0     C87007   0.024   7.639   6.095  0.6595 -0.3476  0.3153
  645MOL0     H87008   0.502   7.781   6.047  0.8375 -2.6216 -0.5905
  645MOL0     H87009   0.738   7.745   5.969  0.0044 -0.5140  0.8035
  645MOL0     H87010   0.895   7.934   5.788 -0.7784 -0.5464  0.5147
  645MOL0     H87011   1.011   7.801   5.784  0.2484  1.4378  1.5627
  645MOL0     H87012   0.878   7.909   5.533 -1.8657 -2.1739  2.9634
  645MOL0     H87013   1.009   7.804   5.531  2.0042  0.1425  1.4395
  645MOL0     H87014   1.035   8.086   5.637  0.1393  0.1008 -0.3912
  645MOL0     H87015   1.091   8.022   5.475 -2.1332 -0.6797 -1.0439
  645MOL0     H87016   1.209   7.980   5.755  0.1280 -1.1116  0.9563
  645MOL0     H87017   1.237   7.870   5.609  0.1635  0.7184 -1.1930
  645MOL0     H87018   1.292   8.170   5.614  0.5855  0.1444  0.9944
  645MOL0     H87019   1.421   8.054   5.653  2.0157  1.1013 -2.6794
  645MOL0     H87020   1.367   7.938   5.435 -0.3373 -0.2239  2.0911
  645MOL0     H87021   1.297   8.076   5.382 -0.7061 -1.0952  0.5964
  645MOL0     H87022   1.489   8.204   5.375 -0.7857  0.6030  2.8127
  645MOL0     H87023   1.545   8.040   5.336 -0.2230 -1.3996  1.2457
  645MOL0     H87024   1.591   8.175   5.612  0.2930  0.4177 -0.0126
  645MOL0     H87025   1.626   8.007   5.572  0.4624 -0.8036 -0.4598
  645MOL0     H87026   1.842   7.993   5.338  1.8288 -0.1369  0.0878
  645MOL0     H87027   2.048   8.048   5.240 -1.3764 -0.7312  1.6066
  645MOL0     H87028   2.057   8.210   5.197 -1.9072  0.1381 -0.3582
  645MOL0     H87029   2.160   8.121   5.473 -0.7621  0.2459 -0.1171
  645MOL0     H87030   2.254   8.076   5.337 -3.2827 -2.1411 -1.9181
  645MOL0     H87031   2.180   8.376   5.405 -0.6104 -1.1755  0.4728
  645MOL0     H87032   2.276   8.320   5.271  3.8030 -0.1378  0.6783
  645MOL0     H87033   2.430   8.221   5.401 -0.0859 -0.2794 -0.7223
  645MOL0     H87034   2.350   8.286   5.546 -1.5271  0.8608 -1.3216
  645MOL0     H87035   2.524   8.683   5.451 -0.2001 -0.3109 -0.1517
  645MOL0     H87036   2.743   8.738   5.532  2.7155 -0.6529 -0.8564
  645MOL0     H87037   3.078   8.694   5.820  0.9426 -1.7983 -0.8840
  645MOL0     H87038   3.280   8.808   5.919  0.4791 -0.9490  0.1214
  645MOL0     H87039   3.447   9.129   5.737 -1.7464 -2.1641 -2.6220
  645MOL0     H87040   3.397   9.073   5.911 -0.1641  0.3925  0.8614
  645MOL0     H87041   3.643   8.976   5.881  1.0579  0.8290  1.2793
  645MOL0     H87042   3.656   9.146   5.819 -0.2281  0.9358  0.4595
  645MOL0     H87043   3.537   9.199   6.038 -2.0179 -1.1786 -3.5854
  645MOL0     H87044   3.555   9.032   6.092  0.7958 -1.2349 -0.4724
  645MOL0     H87045   3.790   9.218   6.006  2.8007 -0.8173  2.0643
  645MOL0     H87046   3.804   9.049   6.051  0.5309 -0.1190 -0.1632
  645MOL0     H87047   3.709   9.105   6.274  1.0281 -0.2374 -0.1176
  645MOL0     H87048   3.680   9.268   6.235 -0.2034  0.4452  3.6460
  645MOL0     H87049   3.971   9.156   6.220  2.7487  0.6253  0.6828
  645MOL0     H87050   3.912   9.325   6.226  0.6792  0.3143  2.0002
  645MOL0     H87051   3.840   9.135   6.467 -1.0592  1.2009  0.6316
  645MOL0     H87052   3.848   9.309   6.463  2.3051  0.6983  0.8966
  645MOL0     H87053   4.076   9.116   6.432  0.1117 -0.7266  1.6760
  645MOL0     H87054   4.102   9.284   6.412  1.9896  0.5534  1.9174
  645MOL0     H87055   3.359   8.959   5.524 -1.3978  2.3993  0.2665
  645MOL0     H87056   3.162   8.848   5.431  0.7260 -2.3427 -0.2775
  645MOL0     H87057   2.832   8.334   5.601  1.3423  3.1476  1.2963
  645MOL0     H87058   2.614   8.264   5.508 -1.3009  0.7259 -1.3332
  645MOL0     H87059   0.620   7.859   5.575 -0.8349 -3.9021  0.0682
  645MOL0     H87060   0.403   7.950   5.678 -0.4332  0.8516  1.7022
  645MOL0     H87061   0.161   8.082   5.966  2.4254 -1.2912 -0.7680
  645MOL0     H87062  -0.046   8.183   6.043  1.5686  0.6169 -1.9912
  645MOL0     H87063  -0.427   8.068   6.232 -0.6861  0.2887 -1.9474
  645MOL0     H87064  -0.338   7.925   6.275  1.4692 -1.5055 -1.2629
  645MOL0     H87065  -0.491   7.840   6.166 -0.1033 -1.6175  0.3606
  645MOL0     H87066  -0.364   7.835   6.042 -0.8909  1.2924 -2.7745
  645MOL0     H87067  -0.424   8.042   5.932  1.7479 -2.3539  0.5122
  645MOL0     H87068  -0.564   8.062   6.050  1.4324  0.2813  0.9279
  645MOL0     H87069  -0.611   7.995   5.822  3.8226  0.1254 -1.2311
  645MOL0     H87070  -0.555   7.835   5.839  0.7637  0.4262 -0.3842
  645MOL0     H87071  -0.914   7.840   6.073  0.2799  1.5340  1.0627
  645MOL0     H87072  -0.190   7.789   6.164 -1.4576 -0.5541 -2.4858
  645MOL0     H87073   0.021   7.597   5.994 -0.7499 -1.7650  0.8965
  645MOL0     H87074   0.111   7.618   6.157  0.0383 -0.8464  1.0279
  645MOL0     H87075  -0.061   7.597   6.149  1.5780  0.1066  2.1666
  646MOL0     O87076   7.763   1.408   0.354 -0.0193  0.6684 -0.3500
  646MOL0     C87077   7.694   1.312   0.387  0.1348 -0.0359  0.0724
  646MOL0     O87078   7.742   1.191   0.389 -0.4301 -0.6520 -0.1227
  646MOL0     C87079   7.863   1.165   0.329  0.8983  0.2938 -0.2334
  646MOL0     C87080   7.865   1.134   0.191  0.4037  0.8212  1.7663
  646MOL0     C87081   7.983   1.107   0.128  0.3294  0.0166 -0.5398
  646MOL0     C87082   8.102   1.131   0.196  0.4364  0.9861 -0.0667
  646MOL0     O87083   8.217   1.127   0.113  0.6194  0.4090  0.2003
  646MOL0     C87084   8.339   1.171   0.179 -0.0517  0.6967 -0.4526
  646MOL0     C87085   8.447   1.172   0.068 -0.5389 -0.2949  0.1965
  646MOL0     C87086   8.591   1.151   0.118  1.4623 -0.2639  0.2927
  646MOL0     C87087   8.641   1.258   0.212 -1.3773  0.1201  0.1401
  646MOL0     C87088   8.800   1.273   0.248  1.2588  0.5755 -0.3985
  646MOL0     C87089   8.877   1.264   0.120 -0.4492  0.3087  0.1032
  646MOL0     C87090   9.023   1.291   0.142  0.2240 -0.0844 -0.1629
  646MOL0     C87091   9.098   1.222   0.254 -0.6438  0.2281 -0.1011
  646MOL0     N87092   9.250   1.232   0.235  0.3838 -0.3771 -0.2860
  646MOL0     C87093   9.335   1.123   0.226 -0.4682 -0.0526  0.3000
  646MOL0     C87094   9.457   1.180   0.220 -0.0192  0.7843  0.0465
  646MOL0     C87095   9.591   1.119   0.203  0.9899 -0.8047 -0.2583
  646MOL0     C87096   9.616   1.029   0.321  0.6415 -0.0891 -0.2319
  646MOL0     C87097   9.763   1.008   0.351  0.2044  0.4021 -0.0921
  646MOL0     C87098   9.830   0.901   0.259  0.3743  0.1909 -0.0148
  646MOL0     O87099   9.972   0.903   0.296  0.2820  0.6422 -0.3159
  646MOL0     C87100  10.058   0.807   0.254 -0.1554  0.4529  0.1175
  646MOL0     C87101  10.027   0.716   0.156 -0.1529  0.1603 -0.4792
  646MOL0     C87102  10.129   0.636   0.100 -0.2604 -0.0738 -0.5886
  646MOL0     C87103  10.258   0.646   0.140 -0.7436 -0.2037  0.0482
  646MOL0     C87104  10.363   0.561   0.086 -0.4021  0.1032 -0.2231
  646MOL0     O87105  10.483   0.557   0.154  0.1165  0.3675 -0.7874
  646MOL0     C87106  10.586   0.475   0.093  0.5824  0.3463  0.2280
  646MOL0     C87107  10.600   0.342   0.137 -0.0407 -0.1269  0.1010
  646MOL0     C87108  10.694   0.256   0.085 -0.2642 -0.2422 -0.3114
  646MOL0     C87109  10.785   0.303  -0.013  0.2573  0.3338 -0.9310
  646MOL0     O87110  10.894   0.229  -0.052  0.2920  0.2741 -0.2928
  646MOL0     C87111  10.900   0.088  -0.016 -1.1464  0.5106  0.0205
  646MOL0     C87112  10.965   0.078   0.123 -0.1970 -0.1843 -0.2555
  646MOL0     C87113  10.975  -0.071   0.157 -1.1656 -0.6579  0.6127
  646MOL0     C87114  11.029  -0.094   0.299  0.5368  0.0011  0.2767
  646MOL0     C87115  11.032  -0.238   0.344  0.8451  0.0999 -0.5745
  646MOL0     C87116  11.130  -0.325   0.263 -0.3154  1.1008 -0.0219
  646MOL0     C87117  11.181  -0.453   0.323  0.6531  0.3904 -0.1961
  646MOL0     C87118  11.315  -0.456   0.390  0.0470  0.1237  0.4866
  646MOL0    Cl87119  11.318  -0.609   0.478  0.0878  0.2915 -0.0253
  646MOL0     C87120  10.766   0.436  -0.061 -0.1363 -0.4911  0.2066
  646MOL0     C87121  10.666   0.517  -0.011  0.3862  0.1502  0.6285
  646MOL0     O87122  10.323   0.471   0.007 -0.0391 -0.1667 -0.1793
  646MOL0     C87123  10.294   0.747   0.234  0.7263 -0.7376 -0.6726
  646MOL0     C87124  10.186   0.823   0.286 -0.3079 -0.7955  0.1516
  646MOL0     N87125   9.445   1.316   0.240  0.7947  0.1957  0.0831
  646MOL0     N87126   9.316   1.352   0.249 -0.2101  0.4386  0.3094
  646MOL0     C87127   8.101   1.158   0.338 -0.4135 -0.1531  0.0095
  646MOL0     C87128   7.979   1.178   0.404 -0.0612 -0.1917  0.2797
  646MOL0     C87129   7.554   1.331   0.443 -0.5933  0.5721  0.3463
  646MOL0     C87130   7.488   1.217   0.498  0.2315  0.5683  0.4240
  646MOL0     C87131   7.356   1.239   0.540 -0.3367 -0.2294  0.6848
  646MOL0     C87132   7.284   1.353   0.520  0.0446 -0.1448 -0.8609
  646MOL0     O87133   7.151   1.373   0.555 -0.0289  0.1048  0.0805
  646MOL0     C87134   7.084   1.273   0.642 -0.4988  0.7326 -0.0754
  646MOL0     C87135   6.964   1.334   0.706 -0.2053 -0.5127  0.7187
  646MOL0     C87136   6.867   1.244   0.785 -0.2421  0.3105  0.0958
  646MOL0     C87137   6.924   1.211   0.917 -0.6416 -0.2400 -0.0219
  646MOL0     C87138   6.827   1.125   0.990 -0.1057 -0.9554 -0.8195
  646MOL0     C87139   6.740   1.065   1.048  0.2963  0.0893 -0.0954
  646MOL0     C87140   7.350   1.464   0.471  0.2607  0.0592  0.4362
  646MOL0     C87141   7.487   1.455   0.442 -0.3830  0.6839 -0.1757
  646MOL0     C87142   7.553   1.580   0.404 -0.1917 -0.1422 -0.8397
  646MOL0     H87143   7.773   1.118   0.135  0.9206 -0.4768  1.2691
  646MOL0     H87144   7.984   1.079   0.023  1.1766 -2.9171  0.1352
  646MOL0     H87145   8.328   1.273   0.216  0.2895  0.7555 -0.5144
  646MOL0     H87146   8.373   1.098   0.253 -0.0459  0.3445 -0.7971
  646MOL0     H87147   8.446   1.261   0.005  2.3345 -1.7984 -2.2225
  646MOL0     H87148   8.428   1.087   0.002  1.3738 -1.7438  1.4021
  646MOL0     H87149   8.649   1.169   0.027  1.1802  2.1012  0.5237
  646MOL0     H87150   8.595   1.051   0.163 -2.4081 -0.1654  1.1451
  646MOL0     H87151   8.620   1.356   0.167  1.1561 -0.2926 -2.2006
  646MOL0     H87152   8.580   1.253   0.302 -1.4724 -2.0779 -0.0076
  646MOL0     H87153   8.804   1.375   0.288 -3.1789  1.0379 -0.6544
  646MOL0     H87154   8.820   1.192   0.319 -1.1025  0.7440  0.5404
  646MOL0     H87155   8.864   1.163   0.080 -2.4487 -0.4429  2.4007
  646MOL0     H87156   8.837   1.328   0.041 -1.1907  0.7754  0.8448
  646MOL0     H87157   9.037   1.397   0.164  0.5118 -0.2366  0.4071
  646MOL0     H87158   9.075   1.262   0.050  3.2305 -0.0534  1.3796
  646MOL0     H87159   9.069   1.254   0.355 -2.1421 -0.0197 -0.4192
  646MOL0     H87160   9.071   1.116   0.246 -0.5712  0.2749 -1.0009
  646MOL0     H87161   9.311   1.017   0.223 -2.5618  0.3719  0.0033
  646MOL0     H87162   9.587   1.052   0.116 -2.0401 -0.4065 -0.5366
  646MOL0     H87163   9.671   1.191   0.184  0.4243 -0.6117 -2.1793
  646MOL0     H87164   9.573   1.077   0.409  2.6789  0.1755  0.6742
  646MOL0     H87165   9.558   0.937   0.306  2.5517 -0.9630 -3.3330
  646MOL0     H87166   9.788   0.966   0.449  2.3129 -3.3308 -1.9917
  646MOL0     H87167   9.818   1.102   0.336  1.1519 -0.4468 -2.3677
  646MOL0     H87168   9.812   0.934   0.156  0.5683  1.3512  0.3096
  646MOL0     H87169   9.772   0.808   0.258  0.4337  0.1432  0.6339
  646MOL0     H87170   9.925   0.701   0.122 -0.0663  0.8662 -1.0915
  646MOL0     H87171  10.104   0.576   0.013 -1.5273 -1.2390  0.5235
  646MOL0     H87172  10.530   0.311   0.215  0.7309 -1.8973  0.1445
  646MOL0     H87173  10.701   0.164   0.143 -0.9276  1.1506  2.1184
  646MOL0     H87174  10.802   0.041  -0.031 -0.5345 -0.5959 -0.6709
  646MOL0     H87175  10.973   0.036  -0.078 -1.6334 -0.6176  0.3711
  646MOL0     H87176  11.059   0.133   0.118 -0.4289  0.6673  2.6011
  646MOL0     H87177  10.901   0.134   0.192 -1.2788 -2.5994  0.8119
  646MOL0     H87178  10.872  -0.106   0.153 -0.3344 -3.2172 -1.3467
  646MOL0     H87179  11.043  -0.117   0.085 -0.1046  0.3001  0.9684
  646MOL0     H87180  10.947  -0.043   0.351 -1.5333  0.7572 -3.3749
  646MOL0     H87181  11.124  -0.040   0.310 -0.6298  2.0533  0.8104
  646MOL0     H87182  10.930  -0.279   0.344  0.8576  0.0656 -0.0676
  646MOL0     H87183  11.066  -0.241   0.448  1.1753 -0.0878 -0.6865
  646MOL0     H87184  11.075  -0.350   0.172 -1.5619 -1.6127  1.3619
  646MOL0     H87185  11.213  -0.261   0.231 -0.2732 -0.5467 -3.6492
  646MOL0     H87186  11.191  -0.524   0.241 -1.2546  1.0784 -1.0739
  646MOL0     H87187  11.116  -0.484   0.406  2.7379 -0.6262  1.1321
  646MOL0     H87188  11.393  -0.453   0.313  0.4582  1.0993  0.9302
  646MOL0     H87189  11.335  -0.376   0.461  0.7579 -2.3573  3.2729
  646MOL0     H87190  10.836   0.459  -0.141  0.1394  2.7023  1.2227
  646MOL0     H87191  10.647   0.613  -0.057  0.7171 -1.0553 -2.2335
  646MOL0     H87192  10.394   0.770   0.270  0.0847  0.9626  0.1228
  646MOL0     H87193  10.207   0.909   0.349  2.8685 -1.4257  0.1013
  646MOL0     H87194   8.195   1.153   0.392 -0.6211  0.4239  0.4385
  646MOL0     H87195   7.983   1.210   0.507  0.8662  0.8727 -0.0634
  646MOL0     H87196   7.541   1.130   0.534  2.3104  1.7375  0.3965
  646MOL0     H87197   7.315   1.164   0.607  0.2108 -1.0982  0.0709
  646MOL0     H87198   7.155   1.239   0.718  1.1185  2.4365 -0.7319
  646MOL0     H87199   7.064   1.185   0.580  0.8045  1.1539 -1.1433
  646MOL0     H87200   6.907   1.392   0.633 -0.5156  0.6214  1.8338
  646MOL0     H87201   6.997   1.416   0.770  1.6569  0.7170 -1.6174
  646MOL0     H87202   6.839   1.155   0.727  1.7960 -0.9342  0.8907
  646MOL0     H87203   6.767   1.285   0.797  0.0584  1.5910 -1.5017
  646MOL0     H87204   7.013   1.150   0.898  0.2928  1.1649 -0.2309
  646MOL0     H87205   6.952   1.302   0.970  3.0811  0.4915 -2.8130
  646MOL0     H87206   6.666   1.021   1.111  1.8953 -1.9807  0.4345
  646MOL0     H87207   7.288   1.553   0.462  0.8319  0.9839  4.0180
  646MOL0     H87208   7.647   1.590   0.458  0.5731  0.0406 -2.1447
  646MOL0     H87209   7.586   1.584   0.299  0.2656  0.5941 -0.6766
  646MOL0     H87210   7.494   1.671   0.418  2.6403  1.4856  1.7889
  647MOL0     O87211   1.201   0.445   2.879  0.4206  0.1131 -0.8169
  647MOL0     C87212   1.236   0.537   2.797 -0.8179 -0.1347 -0.8489
  647MOL0     O87213   1.359   0.597   2.794  0.2896  0.0250 -0.0749
  647MOL0     C87214   1.463   0.538   2.872  0.2122 -1.4293  0.2824
  647MOL0     C87215   1.515   0.410   2.857  0.1102 -0.3713  0.0913
  647MOL0     C87216   1.632   0.380   2.935  0.5892  0.9623 -0.5688
  647MOL0     C87217   1.689   0.459   3.034  0.2525 -0.3043  0.1570
  647MOL0     O87218   1.794   0.432   3.118 -0.2769  0.0193  0.2409
  647MOL0     C87219   1.825   0.298   3.153 -0.1100  0.2812 -1.0164
  647MOL0     C87220   1.933   0.302   3.272 -0.2715  0.2795  0.1749
  647MOL0     C87221   1.905   0.409   3.385  0.5484 -0.0359 -0.0320
  647MOL0     C87222   2.018   0.397   3.502  0.0587  0.2294  0.4375
  647MOL0     C87223   2.156   0.438   3.450  0.0120  0.2724 -0.3664
  647MOL0     C87224   2.265   0.429   3.564  0.3674  0.4593 -0.3722
  647MOL0     C87225   2.410   0.443   3.512  0.5248  0.2721  1.0912
  647MOL0     C87226   2.509   0.405   3.617  0.6850  0.3578 -0.5243
  647MOL0     N87227   2.641   0.424   3.553  0.2114 -0.6797 -0.7350
  647MOL0     C87228   2.700   0.536   3.502 -0.0936  0.3201  0.1773
  647MOL0     C87229   2.807   0.489   3.430  0.3858  0.3862  0.0995
  647MOL0     C87230   2.908   0.576   3.347 -0.0693 -0.1552  0.1817
  647MOL0     C87231   3.018   0.629   3.437  0.7571 -0.2314  0.3225
  647MOL0     C87232   3.094   0.513   3.496  0.0210 -0.1716  0.7835
  647MOL0     C87233   3.236   0.574   3.531  0.1753  0.0907  0.5904
  647MOL0     O87234   3.331   0.472   3.546 -0.1924  0.0213  0.1466
  647MOL0     C87235   3.439   0.495   3.633  0.1926  0.4876 -0.0388
  647MOL0     C87236   3.441   0.417   3.752 -0.7244 -0.3355  0.2156
  647MOL0     C87237   3.547   0.431   3.844  0.2590  0.3425  0.4923
  647MOL0     C87238   3.651   0.519   3.818  0.6009 -1.1026  0.1531
  647MOL0     C87239   3.763   0.535   3.903 -1.2939 -1.1279  0.3039
  647MOL0     O87240   3.850   0.645   3.886  0.5683 -0.7780 -0.6213
  647MOL0     C87241   3.980   0.652   3.937  0.2432 -0.5930 -0.1125
  647MOL0     C87242   4.062   0.547   3.952  0.6115 -0.2159  0.7552
  647MOL0     C87243   4.193   0.565   3.996 -0.3806 -0.3943 -0.1245
  647MOL0     C87244   4.250   0.691   4.024 -0.2109  0.4863 -0.0416
  647MOL0     O87245   4.383   0.697   4.057  0.4583 -0.1625  0.3268
  647MOL0     C87246   4.468   0.812   4.030  0.4119  0.1950  0.8728
  647MOL0     C87247   4.605   0.772   4.005 -0.7877  0.3494 -0.3172
  647MOL0     C87248   4.703   0.887   4.032  0.0578  0.2885  0.7584
  647MOL0     C87249   4.846   0.844   4.031  0.3153 -1.1261 -0.0158
  647MOL0     C87250   4.934   0.962   4.072  1.0985  0.0573  0.8514
  647MOL0     C87251   5.082   0.937   4.021  0.2440  0.0165 -0.1629
  647MOL0     C87252   5.170   1.059   4.051 -0.3337  0.3270 -0.0611
  647MOL0     C87253   5.314   1.020   4.097  0.1015 -0.4018  0.3578
  647MOL0    Cl87254   5.298   0.929   4.253  0.0863 -0.1565  0.0531
  647MOL0     C87255   4.169   0.799   4.013  0.6782  0.1336 -0.2539
  647MOL0     C87256   4.032   0.785   3.966  0.0997  0.9366  0.6184
  647MOL0     O87257   3.776   0.448   3.986  0.5228 -0.4073  0.0900
  647MOL0     C87258   3.652   0.587   3.696  0.0358  0.1834 -0.0971
  647MOL0     C87259   3.547   0.573   3.603  0.5008 -0.3723  0.4713
  647MOL0     N87260   2.807   0.353   3.453  0.0421  0.0777  0.8387
  647MOL0     N87261   2.718   0.317   3.533 -0.2757  0.5605 -0.1338
  647MOL0     C87262   1.632   0.588   3.046  0.8961 -0.1789 -0.5790
  647MOL0     C87263   1.519   0.628   2.965 -0.6284 -0.6833 -0.2130
  647MOL0     C87264   1.146   0.585   2.694  0.3970  0.0155 -0.2300
  647MOL0     C87265   1.020   0.643   2.730  0.1693 -0.1349  0.6290
  647MOL0     C87266   0.936   0.707   2.641  0.1025 -0.4333  0.3644
  647MOL0     C87267   0.978   0.708   2.507 -0.0371  0.9293 -0.5156
  647MOL0     O87268   0.894   0.765   2.414 -0.6224  0.5464 -0.1735
  647MOL0     C87269   0.753   0.768   2.445  0.7195 -0.4581  0.1670
  647MOL0     C87270   0.670   0.763   2.320  0.1446  1.2147  0.0940
  647MOL0     C87271   0.698   0.868   2.209 -0.7226  0.2558 -0.5563
  647MOL0     C87272   0.616   0.827   2.080  0.7953  0.2349 -0.4226
  647MOL0     C87273   0.474   0.824   2.092  0.2706  0.8478 -0.1351
  647MOL0     C87274   0.360   0.812   2.114  0.0977 -0.2271 -0.1424
  647MOL0     C87275   1.106   0.662   2.469 -0.5374 -0.4734 -0.2527
  647MOL0     C87276   1.191   0.600   2.564 -0.4840 -0.4457  0.7583
  647MOL0     C87277   1.328   0.561   2.503 -0.1929 -0.2289 -0.1260
  647MOL0     H87278   1.468   0.340   2.789  0.2237 -0.4892  0.1363
  647MOL0     H87279   1.673   0.280   2.931  0.5344  0.9675 -1.8395
  647MOL0     H87280   1.730   0.254   3.186 -0.2576 -1.1663 -3.1265
  647MOL0     H87281   1.882   0.244   3.076 -0.4766  0.5347 -1.4697
  647MOL0     H87282   2.032   0.320   3.231  0.9355 -0.4083  2.5857
  647MOL0     H87283   1.944   0.203   3.318  3.7042  0.1902 -0.6539
  647MOL0     H87284   1.806   0.403   3.429  0.8039  0.0815  0.5680
  647MOL0     H87285   1.913   0.509   3.340 -1.0124 -0.6655 -1.8350
  647MOL0     H87286   1.997   0.463   3.587  0.0842  1.3167 -0.3657
  647MOL0     H87287   2.032   0.299   3.547 -0.2152 -0.0738 -0.1401
  647MOL0     H87288   2.203   0.384   3.367 -0.0243  3.1400 -2.3974
  647MOL0     H87289   2.152   0.545   3.427  4.0906  0.8636  0.8186
  647MOL0     H87290   2.235   0.501   3.640 -1.5335  0.6029 -1.2052
  647MOL0     H87291   2.252   0.326   3.600 -1.1167  0.7560  0.0030
  647MOL0     H87292   2.420   0.550   3.492  0.8545  0.0529  0.0331
  647MOL0     H87293   2.427   0.380   3.424 -0.1985  0.4099  0.8461
  647MOL0     H87294   2.503   0.471   3.704  1.9824  1.1662 -1.0264
  647MOL0     H87295   2.498   0.303   3.653 -0.8095  1.2609  1.8334
  647MOL0     H87296   2.659   0.637   3.501  0.0698  0.3859 -0.5077
  647MOL0     H87297   2.950   0.522   3.262 -1.2472  0.0804 -0.5786
  647MOL0     H87298   2.854   0.661   3.305 -0.4161 -0.1037  0.7236
  647MOL0     H87299   3.068   0.709   3.382  0.1746 -0.8370 -1.1280
  647MOL0     H87300   2.965   0.681   3.518 -3.4134 -3.8063  0.2590
  647MOL0     H87301   3.102   0.434   3.421 -0.1469 -0.1033  0.6949
  647MOL0     H87302   3.043   0.470   3.583  1.4634 -2.3851  0.6149
  647MOL0     H87303   3.220   0.617   3.630 -3.9904  2.2095 -0.7561
  647MOL0     H87304   3.277   0.651   3.465  2.7231 -1.4863  0.1956
  647MOL0     H87305   3.352   0.356   3.764  1.9319 -5.1513 -1.6442
  647MOL0     H87306   3.540   0.377   3.938  0.8792  3.2293  2.3159
  647MOL0     H87307   4.021   0.449   3.929 -1.5507  1.1509 -1.8516
  647MOL0     H87308   4.258   0.480   4.012  1.4736  0.7252 -1.3314
  647MOL0     H87309   4.425   0.864   3.944  0.1108  1.5009  1.7776
  647MOL0     H87310   4.467   0.897   4.098  2.0624  2.8811 -2.1732
  647MOL0     H87311   4.628   0.683   4.065  2.8304  1.1060 -0.3463
  647MOL0     H87312   4.610   0.735   3.902 -1.8790 -2.1157  0.4385
  647MOL0     H87313   4.698   0.965   3.956  5.1939  1.1181  0.8884
  647MOL0     H87314   4.672   0.929   4.128 -2.1174  1.0568 -0.2003
  647MOL0     H87315   4.866   0.809   3.929  0.7434 -0.3059 -0.2221
  647MOL0     H87316   4.846   0.751   4.089 -3.5424 -0.0730  2.0333
  647MOL0     H87317   4.939   0.996   4.175  0.3050 -0.7510  1.1723
  647MOL0     H87318   4.895   1.054   4.028  0.8577  0.1541  1.2656
  647MOL0     H87319   5.124   0.859   4.085 -1.3888  0.5453  1.6916
  647MOL0     H87320   5.089   0.911   3.915  0.9335 -1.0095  0.1213
  647MOL0     H87321   5.127   1.126   4.127  0.3365 -0.0265  0.6416
  647MOL0     H87322   5.185   1.121   3.962 -0.2417 -0.4047 -0.5618
  647MOL0     H87323   5.357   0.957   4.019  0.2506  1.4800 -1.1527
  647MOL0     H87324   5.371   1.113   4.101  0.9399 -0.8088 -1.4761
  647MOL0     H87325   4.191   0.902   4.036 -0.1677 -0.3707  3.4411
  647MOL0     H87326   3.976   0.877   3.952  1.6708  1.9986  1.1814
  647MOL0     H87327   3.740   0.647   3.675  1.6707 -0.8120  3.1791
  647MOL0     H87328   3.541   0.635   3.514  2.4837  1.1434  1.3288
  647MOL0     H87329   1.669   0.664   3.114  1.2668  2.8911 -3.8806
  647MOL0     H87330   1.478   0.729   2.969  0.1324 -0.3976  1.5441
  647MOL0     H87331   1.002   0.637   2.837 -1.3457 -6.4268  0.4124
  647MOL0     H87332   0.847   0.754   2.682 -0.0986 -0.8720  0.4370
  647MOL0     H87333   0.728   0.862   2.494 -0.3890  0.9680 -2.8956
  647MOL0     H87334   0.722   0.696   2.521 -1.8749  0.3594 -0.0283
  647MOL0     H87335   0.571   0.791   2.357 -0.1313 -0.3886  0.6658
  647MOL0     H87336   0.667   0.659   2.286 -0.7165  0.5234  2.0760
  647MOL0     H87337   0.804   0.870   2.184 -0.5749  3.8969 -0.1375
  647MOL0     H87338   0.663   0.966   2.244 -2.9017 -1.2226  1.7367
  647MOL0     H87339   0.635   0.901   2.001 -0.2624 -0.2684 -1.1715
  647MOL0     H87340   0.648   0.732   2.038  0.2948 -0.4795  0.7637
  647MOL0     H87341   0.255   0.803   2.132  0.1131 -2.3547 -0.8997
  647MOL0     H87342   1.128   0.671   2.364 -0.4914 -3.7070 -0.6118
  647MOL0     H87343   1.358   0.462   2.537  0.0418 -0.4896 -1.0610
  647MOL0     H87344   1.323   0.572   2.394 -0.7309 -0.2453 -0.1041
  647MOL0     H87345   1.406   0.633   2.530 -0.6104 -0.1068  0.7692
  648MOL0     O87346   6.003   4.298   8.711  0.2097 -0.2824  0.1786
  648MOL0     C87347   5.954   4.361   8.804  0.2509 -0.7289  0.7215
  648MOL0     O87348   6.021   4.401   8.915  0.4342 -0.4461 -0.3970
  648MOL0     C87349   6.162   4.394   8.904  0.2142 -0.0566 -0.0931
  648MOL0     C87350   6.239   4.322   8.998 -0.8080 -0.9764 -0.1015
  648MOL0     C87351   6.377   4.334   9.003 -0.2588 -0.2300 -0.2131
  648MOL0     C87352   6.442   4.423   8.913 -0.6407  0.0570  1.0987
  648MOL0     O87353   6.574   4.425   8.908 -0.4150  0.5139  0.0427
  648MOL0     C87354   6.637   4.502   9.006 -0.8561 -0.1426  0.3507
  648MOL0     C87355   6.754   4.589   8.968 -0.4783  0.5822 -0.2671
  648MOL0     C87356   6.795   4.681   9.083 -0.6025  0.0893 -0.2158
  648MOL0     C87357   6.893   4.792   9.040 -0.1194  0.1554 -0.3065
  648MOL0     C87358   7.027   4.743   8.979  0.3071 -0.0128 -0.0095
  648MOL0     C87359   7.132   4.845   8.996  0.1349 -0.8385 -0.2644
  648MOL0     C87360   7.265   4.791   8.944 -0.0848 -1.5203 -0.5133
  648MOL0     C87361   7.368   4.906   8.916 -0.1818 -0.0851 -0.1933
  648MOL0     N87362   7.381   5.001   9.022 -0.2956 -0.1419 -0.5536
  648MOL0     C87363   7.472   4.992   9.132  0.6602  0.6170  0.3489
  648MOL0     C87364   7.441   5.102   9.204 -0.6268 -0.5852  0.4011
  648MOL0     C87365   7.515   5.139   9.340 -0.0139  0.2565  0.8613
  648MOL0     C87366   7.614   5.250   9.324 -0.4192 -0.6523  0.4631
  648MOL0     C87367   7.553   5.391   9.325 -0.8557  0.1160 -0.2213
  648MOL0     C87368   7.654   5.503   9.344 -0.8797 -0.1219 -0.0097
  648MOL0     O87369   7.723   5.520   9.217  0.6386  0.4837  0.2556
  648MOL0     C87370   7.844   5.582   9.214 -0.4341  0.5150 -0.1176
  648MOL0     C87371   7.879   5.680   9.304  0.4470 -0.2097 -0.3457
  648MOL0     C87372   8.004   5.740   9.309 -0.5269 -0.0609 -0.4852
  648MOL0     C87373   8.100   5.722   9.206  0.0777  0.7422  0.5775
  648MOL0     C87374   8.236   5.778   9.209 -0.8486 -0.4239 -0.0824
  648MOL0     O87375   8.322   5.766   9.100 -0.6397  0.0508 -0.0303
  648MOL0     C87376   8.447   5.821   9.105  0.0214  0.7888  0.0678
  648MOL0     C87377   8.479   5.953   9.137 -0.0489  0.0682 -0.2270
  648MOL0     C87378   8.609   5.993   9.147  0.1231 -0.8687 -0.4893
  648MOL0     C87379   8.719   5.897   9.129  0.1384 -0.2675 -0.2413
  648MOL0     O87380   8.848   5.947   9.150  0.0993  0.1390 -0.1132
  648MOL0     C87381   8.951   5.877   9.083 -0.0802  0.1790 -0.2215
  648MOL0     C87382   9.082   5.967   9.093  0.0442 -0.2918 -0.3777
  648MOL0     C87383   9.179   5.903   8.995 -0.0658  0.8726  0.9539
  648MOL0     C87384   9.322   5.973   9.000 -0.1139 -0.7973  0.1318
  648MOL0     C87385   9.426   5.917   8.903 -0.4496  0.1277 -0.2511
  648MOL0     C87386   9.563   5.982   8.915 -0.5725 -0.2768 -1.0815
  648MOL0     C87387   9.667   5.920   8.829 -0.4814 -0.2706 -0.0996
  648MOL0     C87388   9.798   5.999   8.827 -0.0972  0.4598 -0.9655
  648MOL0    Cl87389   9.915   5.915   8.715 -0.0114  0.2966  0.0275
  648MOL0     C87390   8.681   5.767   9.097  0.1368 -0.2845 -0.0827
  648MOL0     C87391   8.547   5.728   9.076  0.1389 -0.2772  0.0403
  648MOL0     O87392   8.266   5.837   9.315 -0.0903  0.0262  0.3643
  648MOL0     C87393   8.059   5.633   9.095  0.9943 -0.2875 -0.5334
  648MOL0     C87394   7.933   5.563   9.107  0.1894  0.4036  0.4411
  648MOL0     N87395   7.343   5.178   9.136  0.0534  0.0673 -0.5977
  648MOL0     N87396   7.300   5.114   9.026 -0.7662 -0.0391 -0.7362
  648MOL0     C87397   6.366   4.500   8.826 -0.3130  0.7723 -0.2891
  648MOL0     C87398   6.230   4.485   8.821  0.1498  0.1529 -0.0255
  648MOL0     C87399   5.812   4.355   8.801 -0.9096 -0.2392  1.0276
  648MOL0     C87400   5.751   4.398   8.688  0.6379  0.5955 -0.1343
  648MOL0     C87401   5.610   4.420   8.686  0.8551  0.4383 -0.3354
  648MOL0     C87402   5.533   4.380   8.797  0.0759  0.7741  0.5075
  648MOL0     O87403   5.398   4.399   8.815  0.2584 -0.0160  0.1325
  648MOL0     C87404   5.313   4.453   8.704 -0.6141  0.4811 -0.0682
  648MOL0     C87405   5.270   4.343   8.611  0.4215  0.6488  0.5441
  648MOL0     C87406   5.206   4.234   8.686  0.7183  0.2703 -0.0992
  648MOL0     C87407   5.113   4.151   8.596 -0.0630 -0.2285  0.4725
  648MOL0     C87408   5.171   4.030   8.549 -0.7639  0.1966 -0.4548
  648MOL0     C87409   5.209   3.924   8.500 -0.7390  0.0989 -0.1400
  648MOL0     C87410   5.592   4.306   8.895 -0.3013 -0.4589  0.0264
  648MOL0     C87411   5.737   4.300   8.907 -0.2144  0.1896  0.3326
  648MOL0     C87412   5.806   4.241   9.032  0.2034  0.0281  0.6145
  648MOL0     H87413   6.183   4.267   9.074 -1.4379 -1.8131 -1.1374
  648MOL0     H87414   6.443   4.273   9.064 -2.3157 -0.8476  1.5289
  648MOL0     H87415   6.565   4.570   9.052  0.0151 -0.3492  2.1028
  648MOL0     H87416   6.679   4.435   9.083 -2.2926 -0.9703  0.4656
  648MOL0     H87417   6.727   4.650   8.882 -0.8424 -1.0815 -1.3684
  648MOL0     H87418   6.836   4.525   8.934 -0.8013  0.5460 -0.9914
  648MOL0     H87419   6.842   4.619   9.160  1.0402  1.8195  0.2425
  648MOL0     H87420   6.711   4.731   9.134  1.0806  0.1356  2.7090
  648MOL0     H87421   6.845   4.858   8.968 -2.0734 -0.4553  0.3853
  648MOL0     H87422   6.917   4.845   9.133 -1.2797  3.2667 -1.6427
  648MOL0     H87423   7.057   4.647   9.022  0.9731  0.7796  1.3854
  648MOL0     H87424   7.005   4.735   8.872  1.5269  3.1494 -0.5880
  648MOL0     H87425   7.097   4.939   8.951  0.6407 -0.7959 -0.5789
  648MOL0     H87426   7.147   4.859   9.104 -0.8606  0.1254 -0.2326
  648MOL0     H87427   7.240   4.755   8.844 -1.5436  1.0723 -1.1908
  648MOL0     H87428   7.311   4.711   9.002  1.2706 -0.2018  0.3236
  648MOL0     H87429   7.467   4.870   8.886  0.8022  2.2970 -0.0058
  648MOL0     H87430   7.337   4.957   8.825 -0.7304  0.6255  0.3792
  648MOL0     H87431   7.537   4.908   9.153  0.1252  0.1541  0.1852
  648MOL0     H87432   7.443   5.167   9.418  0.9558  2.4904  1.0437
  648MOL0     H87433   7.564   5.048   9.376  2.2588  0.3528 -1.6725
  648MOL0     H87434   7.689   5.250   9.403 -1.1361  0.2787  1.1674
  648MOL0     H87435   7.677   5.238   9.236  1.6358 -0.8168  1.8966
  648MOL0     H87436   7.490   5.394   9.414  0.5016 -1.1674  0.8267
  648MOL0     H87437   7.491   5.414   9.238 -0.3246  0.3506 -0.5468
  648MOL0     H87438   7.723   5.472   9.423  1.5140  0.9472 -1.5779
  648MOL0     H87439   7.602   5.597   9.364  0.8706  1.4870 -2.4950
  648MOL0     H87440   7.819   5.719   9.385  1.4360 -0.1146  0.3556
  648MOL0     H87441   8.031   5.805   9.392 -2.1768 -1.6812  1.4137
  648MOL0     H87442   8.395   6.020   9.151 -0.2853  0.3556 -2.5375
  648MOL0     H87443   8.632   6.097   9.170 -0.6056 -0.9207  0.5740
  648MOL0     H87444   8.975   5.783   9.133  0.1750  1.4747  2.2834
  648MOL0     H87445   8.927   5.846   8.981  2.9440 -3.2569 -0.0671
  648MOL0     H87446   9.056   6.067   9.057  0.1287  0.4916  1.6298
  648MOL0     H87447   9.124   5.959   9.193  2.1774 -0.8180 -1.2459
  648MOL0     H87448   9.179   5.795   9.011  0.0304  0.5100 -1.2241
  648MOL0     H87449   9.140   5.922   8.895  1.9211  0.9219  0.1302
  648MOL0     H87450   9.358   5.950   9.101 -1.5176 -1.4827  0.5010
  648MOL0     H87451   9.309   6.082   8.992  1.0588 -0.6370  0.2923
  648MOL0     H87452   9.390   5.922   8.799  1.4598  1.4284 -0.8938
  648MOL0     H87453   9.445   5.813   8.929  0.0871  0.6176  1.3993
  648MOL0     H87454   9.549   6.090   8.902  0.5571  0.5131  2.8719
  648MOL0     H87455   9.596   5.966   9.018 -0.5502  1.4863 -0.7828
  648MOL0     H87456   9.635   5.928   8.725 -1.5465  1.5508  0.3155
  648MOL0     H87457   9.683   5.814   8.850  1.8964  0.0718  0.0566
  648MOL0     H87458   9.782   6.095   8.778  0.6207  0.3857 -1.3576
  648MOL0     H87459   9.849   6.001   8.924  1.1390 -0.9151 -1.5475
  648MOL0     H87460   8.751   5.688   9.072 -0.6681 -1.4199  1.1280
  648MOL0     H87461   8.530   5.628   9.037  0.7052 -0.6955  0.8451
  648MOL0     H87462   8.119   5.603   9.011 -0.9716 -1.9355 -1.4527
  648MOL0     H87463   7.907   5.492   9.029 -2.6161 -0.7134  2.2479
  648MOL0     H87464   6.431   4.570   8.775  1.6150  0.1188  1.1814
  648MOL0     H87465   6.168   4.538   8.748  0.3508  0.7904  0.2618
  648MOL0     H87466   5.803   4.429   8.598  3.0591 -1.6327  0.3724
  648MOL0     H87467   5.555   4.467   8.606 -1.6230 -1.1403  0.3239
  648MOL0     H87468   5.367   4.537   8.658  2.2257 -0.8683  0.5436
  648MOL0     H87469   5.221   4.484   8.754 -0.7180 -1.5112  1.0812
  648MOL0     H87470   5.350   4.311   8.545 -1.0289  0.7742 -1.3493
  648MOL0     H87471   5.198   4.404   8.556  1.7252  2.2198  0.5039
  648MOL0     H87472   5.135   4.276   8.757  0.6659  1.8657 -1.0392
  648MOL0     H87473   5.282   4.170   8.731 -0.3958 -1.5816 -0.7404
  648MOL0     H87474   5.018   4.130   8.647 -1.0149  0.7696 -0.8073
  648MOL0     H87475   5.064   4.205   8.514 -1.0777 -0.2296  1.0625
  648MOL0     H87476   5.239   3.831   8.456  0.2925  1.2783 -2.0551
  648MOL0     H87477   5.531   4.272   8.979 -1.9283  1.3148 -0.3705
  648MOL0     H87478   5.732   4.180   9.085  0.3747  0.5431  1.4648
  648MOL0     H87479   5.890   4.178   9.002 -0.5527 -0.6583 -0.1391
  648MOL0     H87480   5.836   4.311   9.110 -2.2371  1.6862  0.1872
  649MOL0     O87481  10.556   5.286   0.077  0.0010 -0.4578 -0.0426
  649MOL0     C87482  10.542   5.265   0.197  0.3101  0.4669 -1.2342
  649MOL0     O87483  10.641   5.252   0.279 -0.6694 -0.1830  0.0811
  649MOL0     C87484  10.779   5.274   0.246 -0.4543 -1.2535  1.0753
  649MOL0     C87485  10.827   5.348   0.143 -0.9178  0.0375  0.4315
  649MOL0     C87486  10.961   5.375   0.131 -0.9593  0.5754  0.2344
  649MOL0     C87487  11.054   5.319   0.223  0.5274  0.0935 -0.4179
  649MOL0     O87488  11.190   5.337   0.209 -0.1348  0.2285 -0.1976
  649MOL0     C87489  11.239   5.427   0.314  0.5955 -0.3441  0.0447
  649MOL0     C87490  11.393   5.420   0.312  0.0554 -0.5342  0.2868
  649MOL0     C87491  11.442   5.277   0.359  0.7406  0.0751  0.1634
  649MOL0     C87492  11.594   5.270   0.375 -0.2610  0.2925 -0.7174
  649MOL0     C87493  11.643   5.147   0.450  0.1022  0.2401 -0.0445
  649MOL0     C87494  11.782   5.190   0.494 -0.5801 -0.2484 -0.5199
  649MOL0     C87495  11.869   5.076   0.523  0.0692 -0.1153 -0.0099
  649MOL0     C87496  12.011   5.120   0.489 -0.1802  0.5968  0.6776
  649MOL0     N87497  12.107   5.027   0.545 -0.2005  0.1176  0.4199
  649MOL0     C87498  12.105   4.980   0.676 -0.0915 -0.3623  0.3117
  649MOL0     C87499  12.220   4.909   0.693  0.3560 -0.6870 -0.1497
  649MOL0     C87500  12.271   4.852   0.814  0.6673  0.1928 -0.4249
  649MOL0     C87501  12.328   4.950   0.915 -0.5357  0.8155 -0.6537
  649MOL0     C87502  12.373   4.869   1.046  0.4078 -0.0495 -0.0921
  649MOL0     C87503  12.441   4.957   1.147 -0.5254 -0.4618 -0.1380
  649MOL0     O87504  12.537   5.043   1.086  0.5840 -0.1531  0.2796
  649MOL0     C87505  12.642   4.986   1.022 -0.1007 -0.0732 -0.2389
  649MOL0     C87506  12.702   4.862   1.049 -0.7125 -0.5212 -0.3179
  649MOL0     C87507  12.819   4.825   0.980 -0.9983 -0.5384  0.6911
  649MOL0     C87508  12.880   4.917   0.889 -0.3417 -0.2992 -0.9833
  649MOL0     C87509  13.003   4.882   0.800  0.0002  0.1166 -0.1236
  649MOL0     O87510  13.064   4.765   0.831  0.2067  0.3199 -0.2158
  649MOL0     C87511  13.181   4.734   0.761 -0.2568 -0.4578 -0.0586
  649MOL0     C87512  13.180   4.635   0.657 -0.1471  0.9646 -0.0420
  649MOL0     C87513  13.304   4.608   0.597  0.3651 -0.1558 -0.6082
  649MOL0     C87514  13.424   4.684   0.628  0.2275 -0.0248 -0.3955
  649MOL0     O87515  13.549   4.677   0.565  0.1484 -0.2080  0.2862
  649MOL0     C87516  13.541   4.635   0.429 -0.3325 -0.3631  0.1894
  649MOL0     C87517  13.686   4.621   0.375 -0.3593 -0.5959  0.2038
  649MOL0     C87518  13.702   4.654   0.234  0.0310 -0.3443 -0.0498
  649MOL0     C87519  13.845   4.621   0.185 -0.4689 -0.4272 -0.0098
  649MOL0     C87520  13.847   4.623   0.033  0.5950 -0.2816 -0.3153
  649MOL0     C87521  13.986   4.681  -0.011 -0.7257 -0.4720 -0.2217
  649MOL0     C87522  14.005   4.644  -0.161  0.4805  0.0221  0.6810
  649MOL0     C87523  14.143   4.689  -0.215 -0.6809 -0.1660  0.1437
  649MOL0    Cl87524  14.184   4.589  -0.356  0.0330 -0.1091  0.2190
  649MOL0     C87525  13.417   4.774   0.730 -0.5831  0.0307 -0.1882
  649MOL0     C87526  13.299   4.798   0.792 -0.0763 -0.1570  0.1233
  649MOL0     O87527  13.049   4.971   0.723  0.3305 -0.4147 -0.1738
  649MOL0     C87528  12.813   5.038   0.868 -0.5903 -0.3992  0.0447
  649MOL0     C87529  12.704   5.072   0.937  0.9009 -0.3634 -0.1448
  649MOL0     N87530  12.277   4.901   0.569 -0.9823 -0.4832 -0.5525
  649MOL0     N87531  12.210   4.968   0.479 -1.1077  0.3233  0.0110
  649MOL0     C87532  11.008   5.234   0.322 -0.4517 -0.2605 -0.3668
  649MOL0     C87533  10.867   5.211   0.341  0.0965 -0.3553  0.1948
  649MOL0     C87534  10.406   5.280   0.264  0.0779  0.6351 -1.0387
  649MOL0     C87535  10.389   5.216   0.400  0.2180 -1.3787  0.6355
  649MOL0     C87536  10.263   5.203   0.455  0.0955  0.0657 -0.5131
  649MOL0     C87537  10.151   5.242   0.393  0.7260  0.7708  0.2039
  649MOL0     O87538  10.032   5.226   0.459  0.5232 -0.1464  0.1726
  649MOL0     C87539   9.909   5.247   0.391  0.3412  0.6212 -0.0579
  649MOL0     C87540   9.789   5.189   0.475 -0.3709  0.3013  0.2136
  649MOL0     C87541   9.779   5.040   0.469  0.2433 -0.3218  0.4158
  649MOL0     C87542   9.639   4.977   0.504  0.3951 -0.0679  0.0960
  649MOL0     C87543   9.552   4.991   0.385  0.0849 -0.8845  0.0234
  649MOL0     C87544   9.475   4.993   0.291  0.5064  0.3561 -0.6206
  649MOL0     C87545  10.161   5.314   0.277  0.5164 -0.1469  0.8792
  649MOL0     C87546  10.291   5.333   0.208  0.5531  0.0364  0.1830
  649MOL0     C87547  10.286   5.401   0.078 -0.0885  0.0784  0.0524
  649MOL0     H87548  10.763   5.379   0.061 -0.7024 -0.7206 -0.0381
  649MOL0     H87549  11.005   5.438   0.054  2.8274 -0.0468  1.6580
  649MOL0     H87550  11.202   5.529   0.298 -0.0033 -0.1921  2.0893
  649MOL0     H87551  11.210   5.405   0.417  2.2490  0.8356  0.8135
  649MOL0     H87552  11.444   5.496   0.372  0.0001  0.0359 -0.3691
  649MOL0     H87553  11.424   5.432   0.208 -1.3168 -2.0613 -0.3291
  649MOL0     H87554  11.416   5.207   0.279 -0.7055  1.1911 -0.3935
  649MOL0     H87555  11.391   5.257   0.454  2.4547 -3.3417  0.5108
  649MOL0     H87556  11.640   5.281   0.276  1.2873 -2.8645 -0.4809
  649MOL0     H87557  11.615   5.360   0.434 -0.9896  0.8460 -1.2766
  649MOL0     H87558  11.577   5.134   0.536  2.1264 -0.6688  1.4418
  649MOL0     H87559  11.639   5.068   0.374  1.0505  1.2237 -1.1544
  649MOL0     H87560  11.831   5.255   0.422 -2.3378  2.5112  0.5931
  649MOL0     H87561  11.774   5.261   0.577 -1.4840  0.1856 -0.9581
  649MOL0     H87562  11.842   4.987   0.465  1.5979 -1.9043  1.8714
  649MOL0     H87563  11.862   5.051   0.629  0.4881 -3.5662 -0.6945
  649MOL0     H87564  12.022   5.128   0.381 -3.0882  1.1086  0.3455
  649MOL0     H87565  12.038   5.220   0.525 -0.9747  0.7149  0.9712
  649MOL0     H87566  12.037   5.006   0.756  0.1867  0.3843  0.3100
  649MOL0     H87567  12.196   4.790   0.864  3.6188 -0.0370  4.3154
  649MOL0     H87568  12.346   4.779   0.786 -0.1249 -1.7527  2.0992
  649MOL0     H87569  12.416   4.999   0.873 -1.1929  1.1460 -1.6924
  649MOL0     H87570  12.250   5.023   0.939 -0.3046  0.7593  0.3028
  649MOL0     H87571  12.436   4.784   1.020 -0.1513  0.1093 -2.1034
  649MOL0     H87572  12.282   4.832   1.094  0.4090  0.8716  0.6706
  649MOL0     H87573  12.499   4.896   1.217  2.5028 -0.8290 -2.7201
  649MOL0     H87574  12.368   5.003   1.214 -0.9353  0.8181 -1.4066
  649MOL0     H87575  12.663   4.787   1.117  2.3457 -0.5514  1.6228
  649MOL0     H87576  12.862   4.725   0.983  3.4807  1.1642  0.2063
  649MOL0     H87577  13.095   4.574   0.630 -0.5421  1.2123  0.6013
  649MOL0     H87578  13.316   4.533   0.519  1.3654  0.7938 -1.3999
  649MOL0     H87579  13.496   4.538   0.407 -0.2485 -0.8075  1.8541
  649MOL0     H87580  13.494   4.717   0.374  1.4638  0.8128  0.3183
  649MOL0     H87581  13.754   4.694   0.419 -1.7650  1.8817 -1.4835
  649MOL0     H87582  13.713   4.517   0.394 -1.3454 -1.4972 -2.7919
  649MOL0     H87583  13.633   4.599   0.169 -3.1249  2.8705  0.2941
  649MOL0     H87584  13.682   4.761   0.221  1.0756 -0.0780  0.4640
  649MOL0     H87585  13.872   4.519   0.213  0.0066 -0.4640 -0.5886
  649MOL0     H87586  13.913   4.700   0.219  0.0596 -0.2774 -1.3602
  649MOL0     H87587  13.769   4.689  -0.007  1.1979  0.2272 -0.6873
  649MOL0     H87588  13.828   4.529  -0.020 -3.4065  1.0062 -1.5118
  649MOL0     H87589  13.987   4.790   0.000 -2.1521 -0.4906  0.4127
  649MOL0     H87590  14.066   4.642   0.053 -0.1594 -1.3051 -1.4060
  649MOL0     H87591  13.920   4.677  -0.220 -1.4043 -3.4718  1.1889
  649MOL0     H87592  14.004   4.534  -0.163  0.3017  0.0359 -0.3813
  649MOL0     H87593  14.144   4.795  -0.240  1.1142 -0.3468 -0.6887
  649MOL0     H87594  14.221   4.669  -0.140  0.4983 -0.4131 -1.1152
  649MOL0     H87595  13.503   4.830   0.766 -0.6499  0.4653 -0.6933
  649MOL0     H87596  13.298   4.861   0.881 -1.8618  0.6564 -0.4301
  649MOL0     H87597  12.848   5.099   0.785  1.1105 -3.7569 -1.8978
  649MOL0     H87598  12.650   5.165   0.926 -2.0891 -2.0966 -1.2547
  649MOL0     H87599  11.076   5.197   0.398  0.7663  1.5652 -0.5227
  649MOL0     H87600  10.830   5.148   0.421  0.1722 -1.0090 -0.2735
  649MOL0     H87601  10.478   5.164   0.435  0.0003 -1.9260  0.3810
  649MOL0     H87602  10.245   5.169   0.557  1.3725 -1.4057 -0.7344
  649MOL0     H87603   9.915   5.183   0.302  1.0983  1.3071 -0.5016
  649MOL0     H87604   9.885   5.348   0.358  0.2114  0.1299 -1.5394
  649MOL0     H87605   9.696   5.224   0.428 -1.0230 -3.2637 -1.5456
  649MOL0     H87606   9.785   5.222   0.579 -1.6897  1.2564 -0.1084
  649MOL0     H87607   9.851   5.013   0.547 -0.0009  3.8271  2.3565
  649MOL0     H87608   9.799   4.998   0.370 -0.4892 -1.3901  0.7093
  649MOL0     H87609   9.656   4.874   0.536  0.4620  0.3374  1.3961
  649MOL0     H87610   9.582   5.033   0.579 -3.1967 -1.4973 -1.3424
  649MOL0     H87611   9.417   4.978   0.202  0.6672  0.9959 -0.8305
  649MOL0     H87612  10.071   5.325   0.217  0.9929 -1.2319 -0.0707
  649MOL0     H87613  10.354   5.487   0.084  0.7660 -0.4701 -1.2525
  649MOL0     H87614  10.320   5.332   0.000 -4.7051 -0.1924 -2.0661
  649MOL0     H87615  10.186   5.441   0.061 -0.4536 -0.5826  0.5991
  650MOL0     O87616  10.968   9.291   8.602  0.5803 -0.0167 -0.9897
  650MOL0     C87617  10.946   9.358   8.701 -0.2277  0.4310 -0.5158
  650MOL0     O87618  11.035   9.442   8.759 -0.6769 -0.6516 -0.0434
  650MOL0     C87619  11.159   9.468   8.712  0.6796  0.8293  0.0047
  650MOL0     C87620  11.199   9.474   8.576  0.8833  0.3562 -0.3286
  650MOL0     C87621  11.332   9.488   8.535 -0.7098 -0.0742  0.3300
  650MOL0     C87622  11.432   9.510   8.632 -0.0523  0.6510 -0.1312
  650MOL0     O87623  11.561   9.509   8.598 -0.0298 -0.2494  0.1476
  650MOL0     C87624  11.652   9.592   8.677  0.4039 -0.3124 -0.2568
  650MOL0     C87625  11.763   9.625   8.591 -0.3083 -0.7557  0.2145
  650MOL0     C87626  11.724   9.758   8.515 -0.7470  0.6017 -0.1328
  650MOL0     C87627  11.829   9.781   8.413 -0.9002 -0.5266  0.2364
  650MOL0     C87628  11.967   9.823   8.468  0.2151  0.6636 -0.8349
  650MOL0     C87629  11.983   9.951   8.544  0.1257  0.2706  0.0974
  650MOL0     C87630  12.131   9.986   8.570  0.2854 -0.2905  0.2303
  650MOL0     C87631  12.184  10.057   8.439  0.3092 -0.1716 -0.1868
  650MOL0     N87632  12.330  10.102   8.449 -0.4381  0.0181  0.5642
  650MOL0     C87633  12.444  10.045   8.388 -0.1195  0.0343  0.1193
  650MOL0     C87634  12.542  10.130   8.419 -0.4877  0.1032 -0.6075
  650MOL0     C87635  12.690  10.129   8.386  0.4269 -1.1327 -0.0055
  650MOL0     C87636  12.782  10.203   8.493 -0.2675 -0.7293  0.0380
  650MOL0     C87637  12.760  10.141   8.626 -0.1990  0.0984  0.8331
  650MOL0     C87638  12.872  10.155   8.723 -0.0993 -1.5848  0.5998
  650MOL0     O87639  12.855  10.075   8.837  0.0115  0.0397  0.3214
  650MOL0     C87640  12.967  10.011   8.873  0.1394  0.0633 -0.7730
  650MOL0     C87641  12.949   9.882   8.923  0.0644  0.4880 -0.4969
  650MOL0     C87642  13.069   9.804   8.939 -0.9286  0.6187  0.6220
  650MOL0     C87643  13.199   9.861   8.928  0.2885  0.1451 -0.6970
  650MOL0     C87644  13.320   9.783   8.940 -0.8900 -0.1767  0.7486
  650MOL0     O87645  13.312   9.653   8.899 -0.2703 -0.4237 -0.1190
  650MOL0     C87646  13.408   9.547   8.919 -0.4235 -0.3168  0.3919
  650MOL0     C87647  13.373   9.432   8.845  0.6164  0.0208 -0.3064
  650MOL0     C87648  13.457   9.319   8.857 -0.1069 -0.0113 -0.1278
  650MOL0     C87649  13.583   9.320   8.931  0.2670  0.4879  0.4199
  650MOL0     O87650  13.668   9.209   8.923 -0.4392 -0.0156 -0.2324
  650MOL0     C87651  13.798   9.193   9.006  0.3778  0.7068 -0.2145
  650MOL0     C87652  13.865   9.052   8.987  0.5129 -0.0363  0.0680
  650MOL0     C87653  14.001   9.047   9.050  0.1874  0.3779 -0.3447
  650MOL0     C87654  14.078   8.911   9.026  0.1735 -0.8832  0.0216
  650MOL0     C87655  14.209   8.899   9.094  0.8502  0.5444  0.5299
  650MOL0     C87656  14.295   8.788   9.027 -0.2532 -0.1827 -0.1945
  650MOL0     C87657  14.429   8.764   9.104 -0.5824 -0.1305 -0.6507
  650MOL0     C87658  14.516   8.658   9.030 -0.0157  0.1783 -0.2528
  650MOL0    Cl87659  14.600   8.724   8.878 -0.0548  0.0316 -0.3575
  650MOL0     C87660  13.620   9.444   8.987 -0.1076 -0.2960  0.6311
  650MOL0     C87661  13.529   9.555   8.988 -0.6896  0.7771  0.1911
  650MOL0     O87662  13.420   9.839   8.980  0.8534 -0.3400  0.4346
  650MOL0     C87663  13.203   9.998   8.913  0.8291  0.3846  0.9593
  650MOL0     C87664  13.092  10.070   8.877  0.4104  0.5948  0.1732
  650MOL0     N87665  12.492  10.228   8.503 -0.6274  0.0730 -0.1378
  650MOL0     N87666  12.364  10.212   8.520 -0.0895  0.8646  0.1062
  650MOL0     C87667  11.394   9.514   8.761 -0.2081 -0.4613  0.0613
  650MOL0     C87668  11.262   9.493   8.807  0.7318 -0.3338 -0.7992
  650MOL0     C87669  10.811   9.345   8.759  0.0247 -0.4438 -0.1905
  650MOL0     C87670  10.714   9.267   8.697  0.2887 -0.1455 -0.3747
  650MOL0     C87671  10.580   9.265   8.737 -0.5023 -0.3535 -0.2578
  650MOL0     C87672  10.538   9.332   8.854 -0.2227  0.0369  0.1143
  650MOL0     O87673  10.411   9.332   8.908  0.4549  0.3197  0.6255
  650MOL0     C87674  10.312   9.256   8.835  0.4375  0.0244 -0.6287
  650MOL0     C87675  10.186   9.267   8.928  0.1805  0.4121  0.4946
  650MOL0     C87676  10.111   9.397   8.896  0.1669  0.7557  0.0768
  650MOL0     C87677   9.980   9.393   8.968 -0.4526 -0.1283  0.8357
  650MOL0     C87678   9.908   9.523   8.937  0.2096 -0.7391  0.5047
  650MOL0     C87679   9.830   9.626   8.917 -0.8786  0.5887 -0.1342
  650MOL0     C87680  10.639   9.404   8.924 -0.8323 -0.1825 -0.0482
  650MOL0     C87681  10.767   9.408   8.876  0.3608 -0.1112 -0.1710
  650MOL0     C87682  10.861   9.477   8.973  0.2671  0.0990  0.0467
  650MOL0     H87683  11.125   9.444   8.502 -0.7250 -3.6112  2.5425
  650MOL0     H87684  11.360   9.465   8.433 -0.0750 -3.4658  1.1533
  650MOL0     H87685  11.610   9.679   8.728 -1.4265 -0.1655 -1.9356
  650MOL0     H87686  11.689   9.528   8.758  0.3731 -0.0680 -0.0485
  650MOL0     H87687  11.782   9.542   8.521 -0.8344 -0.7046  0.0013
  650MOL0     H87688  11.849   9.645   8.655 -1.4681 -0.6976  1.8205
  650MOL0     H87689  11.710   9.841   8.585 -0.0570  1.4427 -0.9598
  650MOL0     H87690  11.626   9.749   8.468 -2.5965  1.2616  3.3088
  650MOL0     H87691  11.841   9.696   8.345  1.4166  0.2709 -0.4389
  650MOL0     H87692  11.789   9.857   8.345 -0.8913 -1.3734 -0.7516
  650MOL0     H87693  12.011   9.744   8.530  1.2937  1.1472 -0.9570
  650MOL0     H87694  12.033   9.822   8.380  0.5349  2.3615 -0.6471
  650MOL0     H87695  11.945  10.041   8.495  0.2371  0.8783  1.0823
  650MOL0     H87696  11.924   9.933   8.635 -2.7740 -0.0171 -1.7181
  650MOL0     H87697  12.183   9.892   8.589  3.5024  0.7818 -2.1974
  650MOL0     H87698  12.133  10.044   8.663  0.8857 -1.0198  0.6779
  650MOL0     H87699  12.186   9.987   8.355  0.1793 -0.3483 -0.0436
  650MOL0     H87700  12.127  10.148   8.422  0.8864  0.2852  0.2689
  650MOL0     H87701  12.443   9.956   8.326 -0.4414  1.6547 -2.3402
  650MOL0     H87702  12.728  10.029   8.363 -0.8497 -1.2919 -1.5833
  650MOL0     H87703  12.698  10.196   8.300 -0.1301  3.4157  3.0994
  650MOL0     H87704  12.887  10.203   8.461  0.0751 -1.0280  1.1304
  650MOL0     H87705  12.757  10.309   8.493  1.6470 -0.2294  0.1518
  650MOL0     H87706  12.748  10.035   8.598 -0.4619  0.3541 -0.0611
  650MOL0     H87707  12.673  10.183   8.676 -1.1054  0.1060 -0.6796
  650MOL0     H87708  12.877  10.263   8.741  1.4952 -0.9134 -2.8860
  650MOL0     H87709  12.967  10.136   8.672  0.9459  1.6210  1.0878
  650MOL0     H87710  12.851   9.841   8.942  0.7338 -1.5841 -1.2270
  650MOL0     H87711  13.071   9.696   8.950  0.8864  0.3779 -1.4056
  650MOL0     H87712  13.280   9.420   8.791 -2.6251 -1.1854  4.8413
  650MOL0     H87713  13.425   9.226   8.810  0.6141 -0.0164 -0.6418
  650MOL0     H87714  13.866   9.269   8.968  0.0206  1.0044 -0.2623
  650MOL0     H87715  13.783   9.205   9.114 -0.3212 -2.9033  0.2118
  650MOL0     H87716  13.796   8.975   9.025 -1.4178  2.1037  1.1488
  650MOL0     H87717  13.888   9.030   8.883  1.4392  2.1250 -0.2280
  650MOL0     H87718  14.052   9.135   9.011 -0.6783  1.1169  0.1369
  650MOL0     H87719  13.994   9.053   9.159  0.9983 -1.6995 -0.1396
  650MOL0     H87720  14.078   8.884   8.920  1.6740 -2.1293  0.2989
  650MOL0     H87721  14.021   8.830   9.073  2.3910 -2.6370 -0.1579
  650MOL0     H87722  14.192   8.869   9.198 -0.2453 -0.4057  0.0934
  650MOL0     H87723  14.268   8.992   9.094  0.3807  0.9928 -3.1416
  650MOL0     H87724  14.236   8.696   9.019  0.5478 -0.6997 -0.2769
  650MOL0     H87725  14.318   8.813   8.923  0.5858 -1.2647 -0.2877
  650MOL0     H87726  14.394   8.716   9.195  0.2282  0.6423  0.0881
  650MOL0     H87727  14.489   8.847   9.142  0.9185 -2.7779  3.4617
  650MOL0     H87728  14.593   8.627   9.102  0.5671 -4.7862 -2.5735
  650MOL0     H87729  14.458   8.572   8.997  0.5478 -0.3874  0.2025
  650MOL0     H87730  13.714   9.449   9.041  0.9707 -0.4910 -1.1200
  650MOL0     H87731  13.558   9.651   9.031 -0.2199  0.1602  1.2933
  650MOL0     H87732  13.306  10.030   8.919  2.0120 -3.2469  3.1917
  650MOL0     H87733  13.099  10.174   8.845 -1.1585  0.6595 -0.0473
  650MOL0     H87734  11.471   9.521   8.837  0.8279  0.2452 -1.0213
  650MOL0     H87735  11.247   9.481   8.913  0.9673  2.8074 -0.3059
  650MOL0     H87736  10.749   9.221   8.605  0.9701  0.8051 -0.5966
  650MOL0     H87737  10.507   9.207   8.683  0.7853 -1.0138 -1.3448
  650MOL0     H87738  10.349   9.153   8.836 -0.3595 -0.2857 -1.4638
  650MOL0     H87739  10.288   9.278   8.730  1.2600 -2.4199 -1.3971
  650MOL0     H87740  10.215   9.260   9.034  2.0296  1.3501  0.0837
  650MOL0     H87741  10.114   9.186   8.909 -0.9915  0.8011  2.8758
  650MOL0     H87742  10.093   9.403   8.788 -1.8288 -3.2760 -0.0074
  650MOL0     H87743  10.176   9.474   8.938  2.7258 -2.1502  1.8628
  650MOL0     H87744   9.924   9.304   8.938  1.0273 -1.3929  1.7195
  650MOL0     H87745   9.986   9.388   9.077 -1.8272 -0.3052  0.9271
  650MOL0     H87746   9.760   9.706   8.904 -0.8133  1.0041  1.7482
  650MOL0     H87747  10.605   9.455   9.013  2.3912  0.7669  0.7887
  650MOL0     H87748  10.934   9.399   8.996  0.0831 -0.9432 -2.5781
  650MOL0     H87749  10.912   9.560   8.924  2.6475 -1.9332 -1.1025
  650MOL0     H87750  10.802   9.517   9.057  0.2001  0.8731 -0.3676
  651MOL0     O87751   9.531   9.155   3.296 -0.3943 -0.1306 -0.1383
  651MOL0     C87752   9.601   9.222   3.221  0.2020 -0.3512 -0.4114
  651MOL0     O87753   9.683   9.320   3.256  0.2117 -0.5205  0.1049
  651MOL0     C87754   9.679   9.369   3.380 -0.9981 -0.0715 -0.1807
  651MOL0     C87755   9.586   9.470   3.421  0.1427 -0.0471 -0.6631
  651MOL0     C87756   9.605   9.530   3.553  0.2733  0.2848 -0.2406
  651MOL0     C87757   9.702   9.483   3.639  0.4142 -0.7218 -0.4388
  651MOL0     O87758   9.726   9.554   3.755  0.2502  0.5562  0.1578
  651MOL0     C87759   9.626   9.632   3.812  0.1505 -0.1615 -0.3499
  651MOL0     C87760   9.646   9.640   3.970  0.6873  0.5291  0.1168
  651MOL0     C87761   9.777   9.713   3.995 -0.2835  0.0946 -0.4369
  651MOL0     C87762   9.872   9.621   4.074 -0.3589 -0.6459 -0.2186
  651MOL0     C87763  10.017   9.700   4.069  0.8817  0.4250 -0.1124
  651MOL0     C87764  10.029   9.828   4.159 -0.9887 -0.2801 -0.2911
  651MOL0     C87765  10.148   9.918   4.108  0.3846 -0.5329 -0.1488
  651MOL0     C87766  10.186  10.036   4.197  0.0786  0.3058 -0.0565
  651MOL0     N87767  10.305  10.104   4.153  1.0033  0.5874 -0.8284
  651MOL0     C87768  10.433  10.089   4.204  0.2187 -0.1380 -0.8146
  651MOL0     C87769  10.516  10.131   4.101  0.5348 -0.2902  0.1173
  651MOL0     C87770  10.661  10.150   4.118  0.5393 -0.3738  0.8173
  651MOL0     C87771  10.717  10.224   3.987 -0.1067 -0.2373  0.1407
  651MOL0     C87772  10.864  10.233   4.005 -0.0080  0.5626 -0.2213
  651MOL0     C87773  10.918  10.317   3.890 -0.1279 -0.0597 -0.3758
  651MOL0     O87774  11.054  10.347   3.920 -0.6478 -0.4371 -0.5009
  651MOL0     C87775  11.143  10.273   3.849 -0.1418 -0.1300  0.8588
  651MOL0     C87776  11.253  10.251   3.925  0.6164 -0.4001  0.2850
  651MOL0     C87777  11.350  10.162   3.868 -0.4508 -0.3987 -0.1703
  651MOL0     C87778  11.332  10.107   3.741 -0.1137 -0.9926  0.1190
  651MOL0     C87779  11.444  10.032   3.686  0.6979 -0.0334  0.7700
  651MOL0     O87780  11.516   9.961   3.778 -0.2465 -0.2644  0.6897
  651MOL0     C87781  11.617   9.868   3.740 -0.2241  0.2790 -0.5779
  651MOL0     C87782  11.738   9.849   3.821  0.5318 -0.5163  0.0155
  651MOL0     C87783  11.847   9.763   3.786  0.6038  0.7326  0.1027
  651MOL0     C87784  11.825   9.690   3.670  0.1190  0.4820 -0.0522
  651MOL0     O87785  11.905   9.593   3.606 -0.0532  0.4419 -0.5017
  651MOL0     C87786  12.047   9.599   3.642  0.9301 -0.1023 -0.3869
  651MOL0     C87787  12.066   9.505   3.763  0.6697 -0.6496 -0.4105
  651MOL0     C87788  12.069   9.362   3.708  0.8188  0.3803 -0.0932
  651MOL0     C87789  12.120   9.281   3.828  0.0714 -0.2852 -0.7207
  651MOL0     C87790  12.154   9.135   3.790 -0.6669  0.0658 -0.1963
  651MOL0     C87791  12.202   9.046   3.905  0.3627 -0.0685 -0.8297
  651MOL0     C87792  12.187   8.892   3.870 -0.0631  0.3571  0.1305
  651MOL0     C87793  12.300   8.811   3.934 -0.1148 -0.0181  0.1370
  651MOL0    Cl87794  12.334   8.829   4.115 -0.3909 -0.3705 -0.2031
  651MOL0     C87795  11.705   9.703   3.597 -0.2920 -0.1836  0.4142
  651MOL0     C87796  11.601   9.783   3.632  0.2149  0.4004 -0.2020
  651MOL0     O87797  11.465  10.032   3.563  0.0404  0.0368 -0.2794
  651MOL0     C87798  11.226  10.147   3.665 -0.3336  0.4495  0.7499
  651MOL0     C87799  11.130  10.233   3.716 -0.1891  0.8298 -0.5774
  651MOL0     N87800  10.438  10.180   3.998 -0.1115 -0.3138 -0.3368
  651MOL0     N87801  10.314  10.168   4.034 -0.3095 -0.1209  0.6647
  651MOL0     C87802   9.782   9.374   3.606  0.2211 -0.6343  0.3027
  651MOL0     C87803   9.780   9.324   3.474  0.0371 -0.0918 -0.4640
  651MOL0     C87804   9.596   9.164   3.077 -0.5277  0.0114 -0.5026
  651MOL0     C87805   9.474   9.134   3.025 -0.0984 -0.7568 -0.2741
  651MOL0     C87806   9.453   9.092   2.896  0.1398  0.0953  0.0084
  651MOL0     C87807   9.564   9.070   2.808 -0.2692 -0.9251 -0.1556
  651MOL0     O87808   9.562   9.036   2.676 -0.4499  0.3248  0.5482
  651MOL0     C87809   9.441   9.019   2.607  0.0994 -0.1852  0.0902
  651MOL0     C87810   9.462   8.911   2.493  0.1605  0.1274  0.2333
  651MOL0     C87811   9.497   8.769   2.545  0.6654  0.4231 -0.0722
  651MOL0     C87812   9.511   8.682   2.421 -0.0221  0.2520 -0.9595
  651MOL0     C87813   9.653   8.698   2.387 -0.0617 -0.1276  0.6847
  651MOL0     C87814   9.766   8.727   2.352  0.1270 -0.4095 -0.0716
  651MOL0     C87815   9.689   9.113   2.860 -0.3698 -0.0837 -1.1176
  651MOL0     C87816   9.709   9.153   2.992 -0.6253 -0.3650  0.1139
  651MOL0     C87817   9.847   9.183   3.045 -0.0105 -0.5691  0.2544
  651MOL0     H87818   9.512   9.512   3.354  1.2511  0.9072 -1.3374
  651MOL0     H87819   9.539   9.614   3.571 -0.5995 -0.2236 -1.0249
  651MOL0     H87820   9.630   9.735   3.774  1.4695  0.4381  1.2939
  651MOL0     H87821   9.528   9.588   3.792  0.7964 -1.1944 -1.2963
  651MOL0     H87822   9.663   9.539   4.008  2.5751  1.1698  1.1749
  651MOL0     H87823   9.565   9.691   4.022  0.7067  0.9725 -0.2838
  651MOL0     H87824   9.757   9.807   4.046 -1.9020 -0.3881 -0.1333
  651MOL0     H87825   9.816   9.739   3.896  0.1983  1.3015  0.0526
  651MOL0     H87826   9.846   9.607   4.180  0.4311  0.2108  0.1108
  651MOL0     H87827   9.874   9.525   4.022 -0.1026 -0.9492  0.3426
  651MOL0     H87828  10.088   9.619   4.088  0.6030 -0.0668 -1.0982
  651MOL0     H87829  10.030   9.725   3.963 -5.4057 -2.5883 -2.0630
  651MOL0     H87830   9.946   9.899   4.168 -0.6036  0.4720 -2.2429
  651MOL0     H87831  10.053   9.786   4.258  0.3469 -1.1198 -0.9332
  651MOL0     H87832  10.116   9.962   4.013  0.3783  0.1443  0.1669
  651MOL0     H87833  10.237   9.856   4.087  0.0724 -1.4313  1.0644
  651MOL0     H87834  10.099  10.102   4.201  0.6327  1.0638 -0.4215
  651MOL0     H87835  10.205  10.001   4.299 -0.2933  0.9793  0.2483
  651MOL0     H87836  10.462  10.054   4.302 -0.2588 -0.8209 -0.9128
  651MOL0     H87837  10.681  10.215   4.204 -0.4031  1.1926 -0.1034
  651MOL0     H87838  10.712  10.055   4.135  0.1172 -0.4354  1.7708
  651MOL0     H87839  10.700  10.173   3.891 -0.7692  0.9748 -0.4114
  651MOL0     H87840  10.675  10.325   3.989 -0.9686 -0.5868  2.5019
  651MOL0     H87841  10.923  10.141   4.016 -0.0213  0.6514  0.6173
  651MOL0     H87842  10.892  10.278   4.100 -0.8395 -0.5078  0.5560
  651MOL0     H87843  10.863  10.410   3.874 -0.9245 -0.7949 -2.1733
  651MOL0     H87844  10.907  10.260   3.797  0.5709  1.4886 -1.4512
  651MOL0     H87845  11.265  10.283   4.027  1.4323 -4.6430  1.7525
  651MOL0     H87846  11.438  10.129   3.923  1.1673  0.0924 -2.3780
  651MOL0     H87847  11.756   9.903   3.913 -0.7065  2.7053 -1.4661
  651MOL0     H87848  11.933   9.760   3.853  1.6539 -1.8634 -1.2413
  651MOL0     H87849  12.103   9.570   3.553  1.1390  2.7142 -1.2689
  651MOL0     H87850  12.087   9.700   3.658  0.2881  0.2528 -1.0020
  651MOL0     H87851  12.167   9.528   3.799  1.1942  1.5030 -3.0071
  651MOL0     H87852  11.997   9.521   3.846  1.1218 -3.0840  0.5276
  651MOL0     H87853  11.969   9.330   3.676 -0.6555  1.3226  3.1022
  651MOL0     H87854  12.140   9.354   3.626 -0.7476 -4.7851 -1.3262
  651MOL0     H87855  12.049   9.289   3.911  0.4617  0.2153 -0.4328
  651MOL0     H87856  12.210   9.325   3.872 -1.5564  0.9370  1.6275
  651MOL0     H87857  12.221   9.135   3.704 -2.8470 -0.3405 -2.0081
  651MOL0     H87858  12.064   9.086   3.751  0.8426 -1.6886 -1.6775
  651MOL0     H87859  12.306   9.075   3.920  0.1828  0.2731 -0.1864
  651MOL0     H87860  12.139   9.070   3.992  0.9214  0.5616 -0.5966
  651MOL0     H87861  12.181   8.865   3.764 -3.1109  0.0440  0.2929
  651MOL0     H87862  12.100   8.841   3.912 -1.8543  2.0216 -1.3990
  651MOL0     H87863  12.296   8.705   3.907 -2.0824 -0.1328  0.7728
  651MOL0     H87864  12.386   8.860   3.886 -1.2871  0.5579 -1.4627
  651MOL0     H87865  11.688   9.638   3.512 -1.0476  0.9863 -0.3408
  651MOL0     H87866  11.507   9.788   3.578  0.3480 -2.2511 -0.8023
  651MOL0     H87867  11.221  10.112   3.562 -0.8610  0.5048  0.7557
  651MOL0     H87868  11.052  10.260   3.644  0.2642  1.2024 -0.9329
  651MOL0     H87869   9.852   9.329   3.675 -0.6786 -2.4374  0.0858
  651MOL0     H87870   9.847   9.245   3.443  3.2482  3.0196 -2.2389
  651MOL0     H87871   9.380   9.150   3.077 -1.2509 -1.5155 -2.0079
  651MOL0     H87872   9.352   9.069   2.864 -0.3706  1.8413  0.2488
  651MOL0     H87873   9.414   9.112   2.555 -0.7358 -0.8211 -0.6494
  651MOL0     H87874   9.356   8.978   2.662 -0.5602 -0.1452 -0.8747
  651MOL0     H87875   9.536   8.943   2.419  0.0123 -4.7392 -2.3824
  651MOL0     H87876   9.364   8.905   2.444 -1.1116  1.9743  2.3422
  651MOL0     H87877   9.425   8.722   2.611 -1.5589  0.9776 -1.9770
  651MOL0     H87878   9.589   8.778   2.604  1.7257 -1.9860 -1.2430
  651MOL0     H87879   9.486   8.578   2.441 -0.1616  0.4149 -0.2350
  651MOL0     H87880   9.459   8.727   2.336 -1.9157  1.2684  0.6246
  651MOL0     H87881   9.867   8.758   2.334 -0.1982  1.0283  0.4207
  651MOL0     H87882   9.778   9.111   2.798  0.1450  0.8472 -0.4306
  651MOL0     H87883   9.864   9.133   3.141 -1.2847 -1.3248  0.1070
  651MOL0     H87884   9.935   9.159   2.985 -0.2384  1.8792 -1.2192
  651MOL0     H87885   9.856   9.291   3.063  1.9120 -0.2379 -2.1705
  652MOL0     O87886  10.387   6.883   5.614 -0.0845 -0.2127 -0.1565
  652MOL0     C87887  10.389   6.996   5.660  0.0707 -0.6777 -0.0471
  652MOL0     O87888  10.489   7.056   5.732 -0.4412 -0.7901 -0.1233
  652MOL0     C87889  10.614   6.999   5.719 -0.0947  0.6265  0.4103
  652MOL0     C87890  10.678   6.965   5.835  0.5723  0.6612  0.1846
  652MOL0     C87891  10.803   6.908   5.839  0.5498 -1.2199 -0.0433
  652MOL0     C87892  10.861   6.871   5.715 -0.4093  0.3799 -0.2676
  652MOL0     O87893  10.970   6.793   5.725 -0.3171  0.2887 -0.9135
  652MOL0     C87894  11.059   6.777   5.612  0.0369  0.2295 -0.4466
  652MOL0     C87895  11.179   6.670   5.641 -0.0728 -0.7394  0.0441
  652MOL0     C87896  11.258   6.728   5.770  0.3763  0.2216  0.2206
  652MOL0     C87897  11.362   6.621   5.824  0.2278 -0.3207 -0.1364
  652MOL0     C87898  11.484   6.697   5.873 -0.2207 -0.1223  0.7110
  652MOL0     C87899  11.593   6.599   5.911 -0.2785 -0.9764 -0.0696
  652MOL0     C87900  11.725   6.674   5.933  0.1640 -0.7685  0.5652
  652MOL0     C87901  11.847   6.580   5.980 -0.3775  0.2554 -0.0798
  652MOL0     N87902  11.979   6.648   5.998 -0.4018 -0.1408 -0.4316
  652MOL0     C87903  12.017   6.755   5.922  0.1045 -1.1199 -1.0569
  652MOL0     C87904  12.140   6.786   5.962  0.1720  0.5566 -0.4012
  652MOL0     C87905  12.228   6.891   5.897  0.4292 -0.5819  0.2263
  652MOL0     C87906  12.370   6.842   5.897 -0.7955 -0.7293 -0.3693
  652MOL0     C87907  12.459   6.892   5.787 -0.3108  0.7994  0.6456
  652MOL0     C87908  12.589   6.810   5.803  0.1661  0.3147  0.2391
  652MOL0     O87909  12.660   6.860   5.926  0.9175  0.4117 -0.0770
  652MOL0     C87910  12.793   6.868   5.935 -0.7603 -0.2327 -0.1767
  652MOL0     C87911  12.843   6.940   6.042 -0.9082 -0.6352  0.1675
  652MOL0     C87912  12.977   6.959   6.053 -0.2256  0.7038  0.0750
  652MOL0     C87913  13.067   6.895   5.966 -0.4678 -0.5372  0.2410
  652MOL0     C87914  13.211   6.919   5.993  0.0842  0.1519  0.3154
  652MOL0     O87915  13.257   6.987   6.104  0.1568 -0.4494 -0.2531
  652MOL0     C87916  13.391   6.979   6.119 -0.1482  0.5445  0.2613
  652MOL0     C87917  13.475   7.054   6.036  0.0262 -0.1903 -0.2156
  652MOL0     C87918  13.614   7.066   6.053  0.4107 -0.0881 -0.3303
  652MOL0     C87919  13.673   6.990   6.160 -0.4057 -0.4737  0.0366
  652MOL0     O87920  13.805   6.987   6.196 -0.2707  1.0776  0.2650
  652MOL0     C87921  13.888   7.057   6.113 -0.2144 -0.6607 -0.4588
  652MOL0     C87922  13.895   7.200   6.154  0.0053 -0.5378 -0.3865
  652MOL0     C87923  14.009   7.287   6.097  0.4547 -0.4737 -0.0970
  652MOL0     C87924  14.144   7.267   6.148 -0.0803 -0.1219  0.2901
  652MOL0     C87925  14.234   7.361   6.062  0.4512  0.4424 -0.9165
  652MOL0     C87926  14.367   7.400   6.125 -0.0315  0.2438  0.0807
  652MOL0     C87927  14.441   7.486   6.027 -0.7093 -0.3600  0.2220
  652MOL0     C87928  14.571   7.550   6.089 -0.0730  0.5744  0.0124
  652MOL0    Cl87929  14.692   7.423   6.133 -0.0250 -0.0945  0.0478
  652MOL0     C87930  13.594   6.912   6.246 -0.3875 -1.0861 -0.0215
  652MOL0     C87931  13.455   6.916   6.231 -0.0058 -0.4528 -0.9130
  652MOL0     O87932  13.276   6.888   5.893 -1.3868 -0.6520 -0.3267
  652MOL0     C87933  13.022   6.821   5.858  0.4026 -0.0213  0.6182
  652MOL0     C87934  12.889   6.802   5.848 -0.0786  0.0993 -0.0256
  652MOL0     N87935  12.158   6.710   6.073  0.1092 -0.1938 -0.1989
  652MOL0     N87936  12.054   6.630   6.101  0.3833 -0.2696  0.1990
  652MOL0     C87937  10.803   6.914   5.591  0.8927 -0.4636  0.4181
  652MOL0     C87938  10.671   6.975   5.592 -0.2477  0.1633  0.2890
  652MOL0     C87939  10.279   7.077   5.612  0.6806 -0.3560  0.3626
  652MOL0     C87940  10.269   7.216   5.661 -0.2599  0.6004 -1.2899
  652MOL0     C87941  10.178   7.302   5.613  0.8399 -0.0532  0.3944
  652MOL0     C87942  10.071   7.258   5.533  0.0910  0.1891  0.3561
  652MOL0     O87943   9.960   7.326   5.500  0.1758 -0.1619  0.6566
  652MOL0     C87944   9.957   7.474   5.527 -0.6769 -0.3285  0.0711
  652MOL0     C87945   9.847   7.542   5.444 -0.4732  0.1433 -0.2598
  652MOL0     C87946   9.866   7.691   5.435  0.6387 -0.5119 -0.1219
  652MOL0     C87947   9.756   7.746   5.333  0.1808  0.6807  0.4259
  652MOL0     C87948   9.622   7.728   5.385 -0.1154 -0.2095  0.4897
  652MOL0     C87949   9.519   7.706   5.438 -0.2867  0.6205  0.1594
  652MOL0     C87950  10.064   7.121   5.500 -1.0571  0.2258 -0.7866
  652MOL0     C87951  10.166   7.032   5.535  0.1545  0.2956 -0.5910
  652MOL0     C87952  10.151   6.896   5.468  1.2140 -0.0967 -0.0864
  652MOL0     H87953  10.625   7.000   5.923 -0.4698  0.9102 -0.5306
  652MOL0     H87954  10.853   6.890   5.934 -0.1157  0.3697  0.6470
  652MOL0     H87955  11.005   6.737   5.525 -0.8331 -0.3936  0.3585
  652MOL0     H87956  11.099   6.876   5.590 -0.2068  0.7633  1.3881
  652MOL0     H87957  11.244   6.661   5.554 -0.9503  0.4298 -0.7537
  652MOL0     H87958  11.133   6.573   5.664  0.1565 -0.9020 -0.1733
  652MOL0     H87959  11.189   6.753   5.851  0.1202 -1.1094  0.4394
  652MOL0     H87960  11.309   6.820   5.741  1.5400 -0.9436 -1.6834
  652MOL0     H87961  11.324   6.571   5.913  2.6477 -2.9654 -0.4254
  652MOL0     H87962  11.387   6.540   5.754 -1.4737 -2.2263  1.3263
  652MOL0     H87963  11.517   6.758   5.788  1.7423 -2.5922 -0.4262
  652MOL0     H87964  11.465   6.777   5.946 -1.5860  0.8098 -0.5903
  652MOL0     H87965  11.558   6.540   5.996  1.5690 -2.1616 -0.0713
  652MOL0     H87966  11.601   6.524   5.832  0.7118 -0.8777 -0.0836
  652MOL0     H87967  11.704   6.753   6.006  0.5099 -0.5438  0.4227
  652MOL0     H87968  11.740   6.724   5.837 -1.6938 -0.3993  0.4239
  652MOL0     H87969  11.815   6.522   6.066 -2.6928 -0.8829 -1.6124
  652MOL0     H87970  11.871   6.511   5.898 -0.0404 -0.4219  0.5838
  652MOL0     H87971  11.955   6.799   5.843 -0.8205 -2.3631 -1.0560
  652MOL0     H87972  12.194   6.913   5.795 -3.5615 -2.2506  0.9947
  652MOL0     H87973  12.207   6.981   5.955  2.5105 -1.0040  1.7764
  652MOL0     H87974  12.413   6.878   5.990  0.0399  3.0719 -2.0518
  652MOL0     H87975  12.375   6.732   5.895 -2.0028 -0.8149 -2.8282
  652MOL0     H87976  12.485   6.998   5.794 -1.5376  1.1140  0.6694
  652MOL0     H87977  12.421   6.878   5.686  0.6289  1.9537  0.1049
  652MOL0     H87978  12.649   6.837   5.715  1.4497 -0.0273  0.9709
  652MOL0     H87979  12.566   6.704   5.798  0.8278  0.2228 -1.6099
  652MOL0     H87980  12.780   6.996   6.111  0.4924 -0.7785  1.6218
  652MOL0     H87981  13.012   7.009   6.143  0.6951  1.7271 -0.8166
  652MOL0     H87982  13.426   7.097   5.950  0.1055  0.8486  0.2504
  652MOL0     H87983  13.678   7.122   5.986  0.5241  2.3078  1.6008
  652MOL0     H87984  13.990   7.019   6.128 -0.4634 -0.7415  1.1841
  652MOL0     H87985  13.865   7.045   6.006 -1.6849 -2.9236  0.0436
  652MOL0     H87986  13.813   7.246   6.099 -0.7641  0.1314  1.2701
  652MOL0     H87987  13.873   7.205   6.261 -2.7001 -0.2415 -0.8959
  652MOL0     H87988  14.003   7.276   5.989 -0.8157  4.2896 -0.7348
  652MOL0     H87989  13.979   7.389   6.122  0.6558 -0.3192 -0.4812
  652MOL0     H87990  14.164   7.160   6.133  0.3972 -0.3867  2.5066
  652MOL0     H87991  14.154   7.287   6.255  2.2180 -1.9751  0.5054
  652MOL0     H87992  14.175   7.450   6.039  1.4837  0.7530 -2.5696
  652MOL0     H87993  14.250   7.300   5.972 -0.1771 -1.7928  0.4206
  652MOL0     H87994  14.334   7.440   6.222  1.0360 -4.5334  2.7507
  652MOL0     H87995  14.433   7.317   6.151 -0.8803 -0.6135 -0.4114
  652MOL0     H87996  14.376   7.569   5.998 -1.7171 -0.7333  1.3360
  652MOL0     H87997  14.475   7.430   5.939 -1.1813  1.4964 -1.2202
  652MOL0     H87998  14.607   7.612   6.006 -2.3783 -0.7854 -2.1519
  652MOL0     H87999  14.539   7.617   6.170  1.3652 -0.1277  1.2123
  652MOL0     H88000  13.633   6.844   6.321 -0.5195  0.9369  1.9673
  652MOL0     H88001  13.393   6.871   6.307 -1.4295  1.6229 -0.7775
  652MOL0     H88002  13.083   6.768   5.785 -3.0400 -0.3719 -2.3191
  652MOL0     H88003  12.849   6.745   5.765  1.5491 -1.8331  0.4588
  652MOL0     H88004  10.839   6.872   5.498 -0.4124  1.0472 -0.8202
  652MOL0     H88005  10.618   6.996   5.500 -0.7435 -1.4334  0.1714
  652MOL0     H88006  10.337   7.256   5.736  0.3345 -2.8734  0.2316
  652MOL0     H88007  10.176   7.407   5.642 -2.3285  0.3375 -0.8267
  652MOL0     H88008  10.053   7.518   5.497 -0.9553  0.1335 -0.1549
  652MOL0     H88009   9.932   7.494   5.631 -1.1868  1.0430 -0.2940
  652MOL0     H88010   9.755   7.515   5.498  0.9777 -0.1804  2.2013
  652MOL0     H88011   9.839   7.499   5.344  0.6468  1.0565 -0.7729
  652MOL0     H88012   9.969   7.717   5.407  0.6075 -1.0033 -0.7176
  652MOL0     H88013   9.853   7.738   5.533  2.8535  4.8942 -2.0802
  652MOL0     H88014   9.778   7.850   5.304 -2.0924  0.6308 -1.8207
  652MOL0     H88015   9.761   7.686   5.242  1.3857  1.4821 -0.0541
  652MOL0     H88016   9.432   7.683   5.496 -0.5684 -1.6824 -1.0454
  652MOL0     H88017   9.978   7.090   5.441 -2.2615 -1.0387  1.5169
  652MOL0     H88018  10.195   6.892   5.369  1.4108  0.8338 -0.0496
  652MOL0     H88019  10.187   6.807   5.520 -3.3433 -1.5946  0.9790
  652MOL0     H88020  10.044   6.889   5.444  1.4203  0.8505 -1.3844
  653MOL0     O88021   6.783   8.687   2.919 -0.3566  0.6287 -0.2335
  653MOL0     C88022   6.674   8.740   2.944  0.1159 -0.3635  0.7641
  653MOL0     O88023   6.636   8.865   2.908  0.0285 -0.1490  0.1444
  653MOL0     C88024   6.716   8.935   2.820 -0.0430  0.2139  0.6976
  653MOL0     C88025   6.677   8.964   2.688  0.6373 -0.5845 -0.5596
  653MOL0     C88026   6.759   9.040   2.608 -0.0139 -0.6860  0.4149
  653MOL0     C88027   6.887   9.077   2.654 -0.4962 -0.1259  0.8002
  653MOL0     O88028   6.970   9.138   2.570  0.6641  0.4157  0.2728
  653MOL0     C88029   6.954   9.110   2.428  0.7725 -0.4139  0.4532
  653MOL0     C88030   7.088   9.099   2.351  0.5837  0.1699 -0.3533
  653MOL0     C88031   7.167   9.221   2.366  0.5764 -0.2071 -0.0190
  653MOL0     C88032   7.289   9.218   2.274  0.1858  0.2471  0.2153
  653MOL0     C88033   7.416   9.307   2.312  0.1621  0.1652 -0.1908
  653MOL0     C88034   7.387   9.454   2.365  0.0639 -0.3517 -0.1231
  653MOL0     C88035   7.519   9.512   2.391  0.0652  0.2664 -0.4474
  653MOL0     C88036   7.497   9.656   2.433  0.2809 -0.2849 -0.8670
  653MOL0     N88037   7.618   9.736   2.462  0.1514 -0.4946  0.5235
  653MOL0     C88038   7.723   9.753   2.378 -0.2697  0.1086 -0.3706
  653MOL0     C88039   7.790   9.867   2.419  0.3410 -0.3378 -0.3582
  653MOL0     C88040   7.929   9.928   2.381 -0.3658  0.2035  0.0385
  653MOL0     C88041   7.962   9.904   2.231 -0.0195  0.0172 -0.0891
  653MOL0     C88042   8.036   9.770   2.218  0.1892  0.1925  0.0265
  653MOL0     C88043   8.121   9.755   2.092  0.0900  0.2534  0.2756
  653MOL0     O88044   8.184   9.631   2.105  0.2624 -0.6011 -0.7212
  653MOL0     C88045   8.304   9.622   2.049  0.7301  0.3918  0.1568
  653MOL0     C88046   8.403   9.552   2.117 -0.1592 -0.1922  0.4907
  653MOL0     C88047   8.538   9.554   2.069  0.1960 -0.7447  0.1570
  653MOL0     C88048   8.568   9.606   1.942  0.4670 -0.2448  0.2579
  653MOL0     C88049   8.704   9.611   1.891 -0.2779 -0.2791 -0.5597
  653MOL0     O88050   8.803   9.579   1.977  0.6938 -0.0919 -0.0998
  653MOL0     C88051   8.930   9.562   1.925 -0.2868  0.0961 -0.3202
  653MOL0     C88052   9.007   9.444   1.953  0.3110  0.5754  0.7663
  653MOL0     C88053   9.148   9.436   1.920 -0.0119 -0.6216 -0.7345
  653MOL0     C88054   9.212   9.545   1.864 -0.3540  0.3373 -0.0740
  653MOL0     O88055   9.348   9.539   1.827  0.6808  0.3137 -0.0933
  653MOL0     C88056   9.427   9.419   1.858 -0.0280 -0.5948 -0.2297
  653MOL0     C88057   9.571   9.444   1.800  0.1184 -0.5061 -0.7284
  653MOL0     C88058   9.679   9.339   1.839  0.4240 -0.6058 -0.3278
  653MOL0     C88059   9.724   9.360   1.983 -0.1875 -0.3062  0.9978
  653MOL0     C88060   9.840   9.270   2.031 -0.0439 -0.4736  0.8723
  653MOL0     C88061   9.828   9.119   1.982 -0.1868  0.1473 -0.4342
  653MOL0     C88062   9.730   9.037   2.068  0.8752 -0.2457  0.4815
  653MOL0     C88063   9.708   8.890   2.026 -0.0846  0.3497 -0.0157
  653MOL0    Cl88064   9.610   8.890   1.863  0.1767 -0.3757 -0.1841
  653MOL0     C88065   9.134   9.661   1.823 -0.2623 -0.3829  0.0437
  653MOL0     C88066   9.001   9.665   1.867  0.4271  0.5110 -0.5467
  653MOL0     O88067   8.722   9.645   1.768 -0.6592  0.2225 -0.0862
  653MOL0     C88068   8.464   9.658   1.869 -0.1711 -0.0001 -0.6063
  653MOL0     C88069   8.338   9.667   1.924  0.2930  0.6930 -0.0558
  653MOL0     N88070   7.719   9.915   2.533 -0.3099  0.4127  0.1838
  653MOL0     N88071   7.617   9.840   2.553  0.0427 -0.0440  0.2979
  653MOL0     C88072   6.925   9.045   2.783  0.3493  0.5582 -0.1846
  653MOL0     C88073   6.841   8.978   2.867  0.1914  0.6923 -0.3532
  653MOL0     C88074   6.557   8.664   3.005 -0.3277 -0.1751  0.1184
  653MOL0     C88075   6.427   8.714   2.991  0.5331  0.5317  0.2228
  653MOL0     C88076   6.310   8.649   3.036 -0.4026  0.0747 -0.7325
  653MOL0     C88077   6.323   8.522   3.094  0.3354  0.4502 -0.3354
  653MOL0     O88078   6.220   8.452   3.146  0.3096 -0.1537 -0.6720
  653MOL0     C88079   6.087   8.473   3.102 -0.5031  0.6629  0.6104
  653MOL0     C88080   6.010   8.353   3.139 -0.3955  0.2460 -0.7067
  653MOL0     C88081   5.998   8.340   3.289 -0.1678  0.6160 -0.2416
  653MOL0     C88082   5.893   8.426   3.359  0.5962 -0.4554 -0.5376
  653MOL0     C88083   5.757   8.417   3.306  0.5752 -0.8351 -0.2606
  653MOL0     C88084   5.637   8.411   3.278  0.9640  0.2547  0.5537
  653MOL0     C88085   6.447   8.461   3.097  0.2291  0.8343  0.1751
  653MOL0     C88086   6.566   8.530   3.053 -0.2396  0.0812 -0.7243
  653MOL0     C88087   6.689   8.445   3.062 -1.0725  0.2145 -0.2928
  653MOL0     H88088   6.571   8.945   2.672 -0.5269  2.9210  1.8899
  653MOL0     H88089   6.716   9.055   2.510 -1.3305  1.9389  1.2873
  653MOL0     H88090   6.914   9.014   2.395  1.2435  0.4234 -2.8552
  653MOL0     H88091   6.907   9.197   2.383 -1.7386 -2.6153 -1.5181
  653MOL0     H88092   7.068   9.077   2.245 -0.0831  0.5551 -0.3167
  653MOL0     H88093   7.140   9.012   2.389  1.3629  0.0617 -1.5911
  653MOL0     H88094   7.197   9.235   2.470  2.4577  2.3843 -0.8273
  653MOL0     H88095   7.104   9.307   2.340 -1.0010 -1.1999  0.3888
  653MOL0     H88096   7.322   9.114   2.270  2.1593  0.6716  2.9385
  653MOL0     H88097   7.255   9.247   2.174 -0.3151  0.2084  0.3736
  653MOL0     H88098   7.472   9.247   2.383 -0.3893  2.3205  2.2024
  653MOL0     H88099   7.485   9.312   2.227  1.5891  0.5023  0.9495
  653MOL0     H88100   7.333   9.516   2.293  0.7733  0.4592  0.0353
  653MOL0     H88101   7.323   9.435   2.451 -0.1788  0.4649 -0.1169
  653MOL0     H88102   7.588   9.507   2.305  2.2754 -1.0015  1.2855
  653MOL0     H88103   7.567   9.452   2.469 -2.7171 -3.6297 -1.4395
  653MOL0     H88104   7.429   9.706   2.363  1.2791 -1.0600 -2.4499
  653MOL0     H88105   7.447   9.662   2.530  2.0008  2.0066 -0.0316
  653MOL0     H88106   7.753   9.696   2.290  1.3064  1.5573 -0.8319
  653MOL0     H88107   7.920  10.037   2.396  0.6066  0.6655 -2.3686
  653MOL0     H88108   7.996   9.880   2.452 -0.2626 -1.5185 -1.1817
  653MOL0     H88109   7.871   9.906   2.170 -0.1926 -1.1610  0.0994
  653MOL0     H88110   8.034   9.981   2.202 -0.3850 -0.3960 -2.3036
  653MOL0     H88111   7.964   9.688   2.221 -1.4110  0.9814 -5.7627
  653MOL0     H88112   8.105   9.769   2.303  0.1354 -1.3443  0.0741
  653MOL0     H88113   8.199   9.832   2.087  0.2151  0.3444  2.3676
  653MOL0     H88114   8.071   9.764   1.995  1.7123  1.8480 -0.4705
  653MOL0     H88115   8.383   9.509   2.215  0.6446 -2.4569 -0.2840
  653MOL0     H88116   8.617   9.511   2.129  0.2817  1.0400  1.3838
  653MOL0     H88117   8.959   9.359   2.001 -0.0227 -0.6808 -1.6019
  653MOL0     H88118   9.206   9.352   1.956  1.4141  0.4670 -0.3794
  653MOL0     H88119   9.441   9.403   1.965 -1.0025  0.5812  0.0968
  653MOL0     H88120   9.373   9.334   1.814 -1.6007  0.3927 -0.2813
  653MOL0     H88121   9.555   9.447   1.692 -0.8851  4.8793 -0.7161
  653MOL0     H88122   9.605   9.544   1.829 -0.5504  0.3853 -2.8629
  653MOL0     H88123   9.661   9.237   1.806 -0.4048 -0.5751  0.0005
  653MOL0     H88124   9.766   9.377   1.784 -0.6733  2.2517 -0.2540
  653MOL0     H88125   9.639   9.339   2.049 -1.8396  3.5953  0.3851
  653MOL0     H88126   9.752   9.464   2.003 -1.4648  0.2173  0.1506
  653MOL0     H88127   9.834   9.274   2.140 -0.5091 -0.0564  0.8359
  653MOL0     H88128   9.936   9.312   2.001 -0.5217  0.7482  0.9959
  653MOL0     H88129   9.793   9.114   1.878  0.9483  1.1562 -0.8786
  653MOL0     H88130   9.931   9.084   1.989  0.6650  2.7452  1.7264
  653MOL0     H88131   9.628   9.076   2.075  1.1536  0.5683  0.1867
  653MOL0     H88132   9.778   9.027   2.166  1.5951  2.7051  0.5225
  653MOL0     H88133   9.793   8.823   2.010 -1.8704 -2.0127 -0.2710
  653MOL0     H88134   9.648   8.839   2.102 -2.1770  1.1454 -1.0622
  653MOL0     H88135   9.175   9.747   1.771 -2.0650  0.7167  0.3456
  653MOL0     H88136   8.958   9.764   1.851  1.1615  1.1078  0.9326
  653MOL0     H88137   8.474   9.682   1.763 -0.8929 -1.7375 -1.1069
  653MOL0     H88138   8.264   9.721   1.866  1.2575  1.9010 -0.2133
  653MOL0     H88139   7.028   9.073   2.802  0.4114  2.0759 -2.3052
  653MOL0     H88140   6.873   8.951   2.967 -0.7110  2.7794  0.5480
  653MOL0     H88141   6.413   8.810   2.942 -1.4499  0.0725 -0.2147
  653MOL0     H88142   6.215   8.700   3.047 -0.7288 -0.3170 -1.6964
  653MOL0     H88143   6.089   8.475   2.993  1.4539 -0.5220  0.5700
  653MOL0     H88144   6.054   8.570   3.140 -1.4824 -0.2881  2.3313
  653MOL0     H88145   6.069   8.267   3.107 -0.7698 -1.0966  1.9106
  653MOL0     H88146   5.909   8.346   3.099 -0.7496 -1.7102  0.4107
  653MOL0     H88147   6.095   8.377   3.324  0.1734 -0.0528 -0.4511
  653MOL0     H88148   5.982   8.234   3.311  0.1397  1.2624  3.9541
  653MOL0     H88149   5.899   8.416   3.467 -2.3028  2.0285  0.0155
  653MOL0     H88150   5.920   8.532   3.346 -0.4674 -0.1794 -0.6180
  653MOL0     H88151   5.532   8.407   3.256  1.2616 -0.9461 -0.8569
  653MOL0     H88152   6.440   8.358   3.128  0.9808  0.9042  0.6109
  653MOL0     H88153   6.679   8.352   3.118  0.8852 -0.4702 -0.9807
  653MOL0     H88154   6.728   8.430   2.961 -0.1561 -4.8848  0.5680
  653MOL0     H88155   6.769   8.500   3.114 -1.4800 -0.7089  1.3567
  654MOL0     O88156  11.101   1.085   5.137  0.2022  0.9972  0.1775
  654MOL0     C88157  11.049   1.014   5.050  0.1391 -0.8159 -0.1532
  654MOL0     O88158  11.125   0.954   4.950 -0.8609  0.0854  0.4812
  654MOL0     C88159  11.263   0.963   4.959 -0.8897 -0.4007  0.3642
  654MOL0     C88160  11.339   0.849   4.924  1.0777 -0.3610 -1.0426
  654MOL0     C88161  11.473   0.844   4.935 -0.4328 -0.4440  0.0314
  654MOL0     C88162  11.546   0.948   4.982  0.5146 -0.7381  0.0741
  654MOL0     O88163  11.679   0.955   4.991  0.2005  0.7758 -0.6892
  654MOL0     C88164  11.766   0.844   4.959 -0.3170  0.0664  0.7632
  654MOL0     C88165  11.801   0.757   5.076  0.1522 -0.4243 -0.2183
  654MOL0     C88166  11.818   0.816   5.211  0.0143 -0.3695  0.3876
  654MOL0     C88167  11.827   0.708   5.321  0.0057  0.1491  0.0183
  654MOL0     C88168  11.944   0.613   5.317  0.4708  0.1081  0.1961
  654MOL0     C88169  12.078   0.677   5.344 -0.6229 -0.0942 -0.6153
  654MOL0     C88170  12.198   0.577   5.344 -0.9175 -0.1992  0.2667
  654MOL0     C88171  12.196   0.472   5.447  0.4565  0.3577 -0.4546
  654MOL0     N88172  12.326   0.411   5.494  0.3531 -0.3832  0.2113
  654MOL0     C88173  12.382   0.436   5.614  0.6237 -0.3017 -0.3603
  654MOL0     C88174  12.506   0.385   5.607  0.0039 -0.4082 -0.0863
  654MOL0     C88175  12.599   0.417   5.723  0.5170 -0.0027 -0.5357
  654MOL0     C88176  12.738   0.400   5.671 -0.1613  0.5253 -0.3508
  654MOL0     C88177  12.841   0.432   5.784  0.2552 -0.3754 -0.3869
  654MOL0     C88178  12.982   0.390   5.738 -0.3907  0.5616 -0.6293
  654MOL0     O88179  13.069   0.402   5.859 -1.2749 -0.2462  0.1473
  654MOL0     C88180  13.180   0.324   5.862 -0.4755  1.0840  0.1069
  654MOL0     C88181  13.202   0.204   5.789  0.4841  0.5602 -0.1918
  654MOL0     C88182  13.318   0.129   5.804  0.2978  0.2597 -0.0819
  654MOL0     C88183  13.417   0.174   5.893  0.3051  0.2039 -0.9764
  654MOL0     C88184  13.537   0.100   5.911  1.0161 -0.5640 -0.7137
  654MOL0     O88185  13.545  -0.004   5.826  0.6785  0.8341  0.1960
  654MOL0     C88186  13.658  -0.085   5.821 -1.2916  0.8587 -0.3589
  654MOL0     C88187  13.734  -0.081   5.698  0.1005  0.8307 -0.5080
  654MOL0     C88188  13.841  -0.166   5.681 -0.1762  0.3484  0.0394
  654MOL0     C88189  13.880  -0.256   5.788  1.3248  0.1596 -0.5789
  654MOL0     O88190  13.985  -0.351   5.778 -0.1034 -0.3411 -1.1755
  654MOL0     C88191  14.068  -0.355   5.671 -0.3692  0.5924  0.4573
  654MOL0     C88192  14.176  -0.459   5.707 -0.7707  0.2177  0.4631
  654MOL0     C88193  14.276  -0.427   5.815 -0.4934 -1.2760  0.1168
  654MOL0     C88194  14.380  -0.534   5.848  0.4859  0.5359 -0.3315
  654MOL0     C88195  14.493  -0.491   5.931  0.0589 -0.2419  0.1532
  654MOL0     C88196  14.604  -0.598   5.938  0.1819 -0.6364 -0.2254
  654MOL0     C88197  14.722  -0.557   6.023  0.1689 -0.3888 -0.2843
  654MOL0     C88198  14.689  -0.540   6.172 -0.8208 -0.6603 -0.3246
  654MOL0    Cl88199  14.639  -0.699   6.237  0.3330 -0.0530  0.3766
  654MOL0     C88200  13.805  -0.265   5.908 -0.1619  0.3228 -0.5206
  654MOL0     C88201  13.702  -0.183   5.917  0.5416 -0.4685  0.6704
  654MOL0     O88202  13.620   0.140   5.992 -0.1585 -0.4009 -0.2345
  654MOL0     C88203  13.398   0.294   5.963 -0.0884  0.2036 -0.3001
  654MOL0     C88204  13.283   0.364   5.945 -0.7018  0.2391 -0.2554
  654MOL0     N88205  12.516   0.314   5.485 -0.3816 -0.8122 -0.0188
  654MOL0     N88206  12.408   0.339   5.417 -0.1885  0.4196 -0.5104
  654MOL0     C88207  11.478   1.078   5.007 -0.3619  0.6972 -0.2613
  654MOL0     C88208  11.339   1.077   4.998  0.2179 -0.0277 -0.3919
  654MOL0     C88209  10.904   0.995   5.048 -0.4167 -0.7483  0.4170
  654MOL0     C88210  10.841   0.961   4.924 -0.1358  0.3818  0.4309
  654MOL0     C88211  10.707   0.944   4.907  0.8900 -0.4584  0.0939
  654MOL0     C88212  10.615   0.970   5.013 -0.4477  0.1802  0.3730
  654MOL0     O88213  10.483   0.968   4.975 -0.6611  0.5352  0.1514
  654MOL0     C88214  10.381   1.019   5.068  0.2047  1.1006  0.4079
  654MOL0     C88215  10.257   0.935   5.044 -0.1441 -0.3125 -0.3100
  654MOL0     C88216  10.261   0.790   5.092 -0.6931  0.8591 -0.1670
  654MOL0     C88217  10.211   0.703   4.977  0.0029  0.2283 -1.0717
  654MOL0     C88218  10.300   0.713   4.861  0.8721 -0.4241 -0.4766
  654MOL0     C88219  10.353   0.712   4.758 -0.4157  0.1956 -0.4813
  654MOL0     C88220  10.674   1.000   5.136 -0.0560 -0.5322 -0.5230
  654MOL0     C88221  10.817   1.019   5.157  0.1888  0.2146  0.6033
  654MOL0     C88222  10.863   1.068   5.293 -0.8584 -0.3464 -0.5534
  654MOL0     H88223  11.280   0.762   4.898  1.1443 -0.6635 -0.2163
  654MOL0     H88224  11.520   0.753   4.897 -1.1660 -0.8887  0.1796
  654MOL0     H88225  11.725   0.784   4.878 -0.3587 -1.3141  1.7813
  654MOL0     H88226  11.856   0.889   4.915  0.3505 -1.9805 -0.0579
  654MOL0     H88227  11.887   0.693   5.054  0.3708  0.1500 -1.0747
  654MOL0     H88228  11.717   0.686   5.081 -0.5435  0.3408 -0.7850
  654MOL0     H88229  11.738   0.884   5.243  2.3068  1.0401  3.6257
  654MOL0     H88230  11.908   0.878   5.218 -0.5774  0.4232  1.2645
  654MOL0     H88231  11.826   0.748   5.423  0.0814  0.3147 -0.0454
  654MOL0     H88232  11.739   0.643   5.310  1.5111 -2.0867  0.6221
  654MOL0     H88233  11.915   0.531   5.383 -1.3655 -2.0222 -2.9376
  654MOL0     H88234  11.956   0.568   5.218 -0.7881  0.1344  0.0100
  654MOL0     H88235  12.082   0.764   5.278 -3.9265 -0.6209 -1.6842
  654MOL0     H88236  12.075   0.720   5.445 -0.3826  3.4466 -1.9630
  654MOL0     H88237  12.288   0.635   5.365  2.1175 -4.0980 -0.6967
  654MOL0     H88238  12.207   0.529   5.246 -0.4243 -1.8807  1.1006
  654MOL0     H88239  12.153   0.515   5.537  2.1881  1.4970 -0.1332
  654MOL0     H88240  12.131   0.396   5.401  1.0997 -1.0087  0.8314
  654MOL0     H88241  12.342   0.490   5.699  0.1213  0.0297 -0.8025
  654MOL0     H88242  12.584   0.518   5.762 -0.2510 -0.3877  0.2072
  654MOL0     H88243  12.591   0.338   5.798  0.8477  1.1393  0.7334
  654MOL0     H88244  12.755   0.298   5.634 -1.2398 -0.1897  1.0436
  654MOL0     H88245  12.750   0.472   5.589  0.2473  1.3285  0.4047
  654MOL0     H88246  12.816   0.379   5.877  3.0965 -2.0185 -0.4446
  654MOL0     H88247  12.842   0.540   5.798 -0.0622  0.0532 -3.1894
  654MOL0     H88248  13.027   0.454   5.662  0.0667  0.5929 -0.3398
  654MOL0     H88249  12.978   0.288   5.698  2.7841  0.9827 -2.3286
  654MOL0     H88250  13.135   0.175   5.709  0.5451  1.6137 -0.6375
  654MOL0     H88251  13.318   0.036   5.747 -0.5992  0.2319 -0.0419
  654MOL0     H88252  13.705  -0.013   5.618 -2.6572 -0.4695 -0.7298
  654MOL0     H88253  13.884  -0.156   5.582 -1.5281  1.3590 -0.4795
  654MOL0     H88254  14.009  -0.388   5.584 -0.3526  1.1452  0.2312
  654MOL0     H88255  14.117  -0.261   5.646  1.2730 -0.8360 -2.1508
  654MOL0     H88256  14.119  -0.549   5.731  0.2190 -0.5117  0.1366
  654MOL0     H88257  14.228  -0.479   5.613 -3.2391 -0.1659 -0.9059
  654MOL0     H88258  14.331  -0.336   5.789 -0.8635 -1.2447 -0.5693
  654MOL0     H88259  14.230  -0.411   5.913  0.3055 -0.2926  0.3571
  654MOL0     H88260  14.426  -0.571   5.756  0.4161 -1.7778  0.4981
  654MOL0     H88261  14.330  -0.621   5.892 -1.0377  1.0831 -0.9259
  654MOL0     H88262  14.453  -0.462   6.029 -0.6145  2.2694 -0.7683
  654MOL0     H88263  14.539  -0.398   5.897 -1.2868  0.2916 -0.2831
  654MOL0     H88264  14.557  -0.693   5.964 -0.0636 -0.2236  0.8592
  654MOL0     H88265  14.647  -0.619   5.839  0.2157 -0.1999 -0.3073
  654MOL0     H88266  14.767  -0.471   5.972 -0.6253  0.3456  0.2235
  654MOL0     H88267  14.792  -0.641   6.024  1.3389  0.5513  0.1884
  654MOL0     H88268  14.771  -0.492   6.227 -2.0795  1.0655  0.1252
  654MOL0     H88269  14.605  -0.473   6.190  0.2630 -0.0147  2.9954
  654MOL0     H88270  13.809  -0.345   5.980 -1.6945 -0.4103 -1.2093
  654MOL0     H88271  13.641  -0.188   6.006 -1.2675  1.5150 -0.3609
  654MOL0     H88272  13.471   0.335   6.032  0.5950  0.9802 -1.4511
  654MOL0     H88273  13.262   0.453   6.004 -3.1775  0.7501 -1.7406
  654MOL0     H88274  11.528   1.154   5.066 -2.6533  0.5478  2.0575
  654MOL0     H88275  11.294   1.176   5.012  0.5538  0.3835 -2.0633
  654MOL0     H88276  10.902   0.936   4.838  1.7336 -0.0214  1.8003
  654MOL0     H88277  10.660   0.911   4.815 -2.0105  0.2490  1.1964
  654MOL0     H88278  10.372   1.127   5.053 -1.4596  1.0612  0.9265
  654MOL0     H88279  10.427   0.999   5.165  0.6912 -0.1427 -0.0603
  654MOL0     H88280  10.218   0.950   4.943  0.6190 -3.8901 -1.2818
  654MOL0     H88281  10.188   0.977   5.117  3.0623  0.3260  2.5865
  654MOL0     H88282  10.198   0.784   5.181  0.5563 -0.3152  0.6742
  654MOL0     H88283  10.358   0.756   5.128  0.7816  0.9241 -3.6982
  654MOL0     H88284  10.219   0.599   5.009 -1.2275  0.0672 -1.2595
  654MOL0     H88285  10.107   0.727   4.952 -0.8619 -2.8588 -0.8066
  654MOL0     H88286  10.413   0.724   4.671 -0.3098  2.9776 -0.1186
  654MOL0     H88287  10.608   1.023   5.219  0.6647 -1.9769  0.4710
  654MOL0     H88288  10.785   1.105   5.360  0.6556  1.4075  0.3280
  654MOL0     H88289  10.910   0.983   5.344 -0.3094 -0.7819 -1.7494
  654MOL0     H88290  10.933   1.153   5.288 -2.4687  1.0419 -0.5658
  655MOL0     O88291  10.789   4.083   1.600 -0.7571 -0.0293  0.3890
  655MOL0     C88292  10.706   4.129   1.681  0.6764  0.5272 -0.0053
  655MOL0     O88293  10.739   4.237   1.759 -0.2811  0.0254 -0.6549
  655MOL0     C88294  10.872   4.270   1.766  0.0219  0.1052 -0.1653
  655MOL0     C88295  10.956   4.206   1.864  1.3576 -0.1710 -0.2399
  655MOL0     C88296  11.093   4.215   1.870 -0.6204  0.2989 -0.1492
  655MOL0     C88297  11.157   4.292   1.775 -1.0595  0.3770  1.0996
  655MOL0     O88298  11.292   4.324   1.773 -0.0375 -0.0257  0.2382
  655MOL0     C88299  11.366   4.256   1.883 -0.0580 -0.1616 -0.1034
  655MOL0     C88300  11.511   4.313   1.865  0.0137  0.5700  0.0347
  655MOL0     C88301  11.603   4.284   1.982  0.1649 -0.2491  0.3563
  655MOL0     C88302  11.717   4.386   1.983  0.0456  0.6515 -0.3095
  655MOL0     C88303  11.790   4.366   2.120 -0.0407 -0.1022  0.3081
  655MOL0     C88304  11.912   4.461   2.142 -0.0678  0.4564  0.1842
  655MOL0     C88305  11.976   4.426   2.277 -0.1319  0.0541 -0.1495
  655MOL0     C88306  12.110   4.483   2.291  0.1284  0.0780 -0.0389
  655MOL0     N88307  12.169   4.428   2.415  0.1788  0.2085 -0.0421
  655MOL0     C88308  12.136   4.459   2.546  0.2429  0.6547  0.7144
  655MOL0     C88309  12.212   4.373   2.616  0.3555  0.0080  0.0172
  655MOL0     C88310  12.213   4.370   2.770  0.1755 -0.0847  0.2922
  655MOL0     C88311  12.257   4.507   2.818  0.0311 -0.1136 -0.0965
  655MOL0     C88312  12.304   4.498   2.963 -0.1538 -0.0238  0.1180
  655MOL0     C88313  12.414   4.387   2.993  0.2881 -0.6909  0.2486
  655MOL0     O88314  12.527   4.408   2.908 -0.0097 -0.5953  0.3048
  655MOL0     C88315  12.632   4.327   2.931 -0.0639 -0.3716  0.6172
  655MOL0     C88316  12.655   4.238   3.037  0.5378 -0.0944 -0.1684
  655MOL0     C88317  12.766   4.158   3.036 -0.2358  0.0588 -0.2323
  655MOL0     C88318  12.871   4.173   2.937  0.7209 -0.9165 -0.2254
  655MOL0     C88319  12.997   4.097   2.950 -0.9997 -0.6482  0.0029
  655MOL0     O88320  13.051   4.053   3.072  0.7955 -0.2445  0.9813
  655MOL0     C88321  13.176   4.001   3.065  1.1592 -0.0245  0.1174
  655MOL0     C88322  13.278   4.089   3.023  0.6152  1.1154 -0.2175
  655MOL0     C88323  13.408   4.047   2.996 -0.0599 -0.8233  0.2766
  655MOL0     C88324  13.445   3.915   3.029 -0.4207 -0.0905  0.1769
  655MOL0     O88325  13.579   3.860   3.018  0.0284  0.0343  0.3103
  655MOL0     C88326  13.671   3.953   2.959 -1.0465 -0.2719  0.0492
  655MOL0     C88327  13.819   3.893   2.958  0.2350  0.3652 -0.2003
  655MOL0     C88328  13.875   3.858   3.095 -0.5527 -0.6659  0.1640
  655MOL0     C88329  14.019   3.808   3.073  0.0672 -0.2921 -0.4196
  655MOL0     C88330  14.098   3.790   3.202  0.5033 -0.2528 -0.5484
  655MOL0     C88331  14.246   3.746   3.168  0.5995 -0.1160 -0.2341
  655MOL0     C88332  14.299   3.651   3.282  0.7372  0.0525 -0.3396
  655MOL0     C88333  14.441   3.606   3.266  0.4608  0.5585 -0.2702
  655MOL0    Cl88334  14.556   3.744   3.311  0.1444 -0.2665 -0.3708
  655MOL0     C88335  13.343   3.831   3.077  0.2178  0.5920  0.5656
  655MOL0     C88336  13.209   3.864   3.100  0.3491 -0.0207  0.0818
  655MOL0     O88337  13.061   4.095   2.846 -0.2506 -0.6493 -0.2848
  655MOL0     C88338  12.845   4.271   2.836  0.1618  0.6730  0.7686
  655MOL0     C88339  12.728   4.344   2.831 -0.0333 -0.7643 -0.3381
  655MOL0     N88340  12.283   4.284   2.530 -0.0587  0.5707  0.5090
  655MOL0     N88341  12.256   4.322   2.409 -0.1118  0.5761  0.8524
  655MOL0     C88342  11.081   4.353   1.679 -0.2562  1.5370  0.5200
  655MOL0     C88343  10.943   4.339   1.671  0.0940  0.1158  0.1608
  655MOL0     C88344  10.566   4.081   1.679 -0.4793  0.1523 -0.0501
  655MOL0     C88345  10.486   4.108   1.792  0.1893  0.4700 -0.0194
  655MOL0     C88346  10.351   4.067   1.794 -1.4872  0.2491 -0.3883
  655MOL0     C88347  10.296   4.005   1.685  0.2176  0.0840  0.1485
  655MOL0     O88348  10.170   3.949   1.697 -0.0136  0.1734 -0.0820
  655MOL0     C88349  10.080   3.925   1.587 -0.0439 -0.3087  0.1603
  655MOL0     C88350  10.067   4.059   1.507  0.3401  0.2632  0.2082
  655MOL0     C88351   9.954   4.040   1.403 -0.8392  0.2400  0.2935
  655MOL0     C88352  10.009   3.988   1.268 -0.8941  0.3428 -0.2212
  655MOL0     C88353   9.909   3.934   1.168  0.3389  0.0226 -0.4355
  655MOL0     C88354   9.815   3.890   1.099 -0.4845 -0.6996  0.1673
  655MOL0     C88355  10.371   3.982   1.571 -0.4049 -0.2727  0.0135
  655MOL0     C88356  10.506   4.022   1.563 -0.5012 -0.0433  0.1761
  655MOL0     C88357  10.571   4.010   1.426 -0.1012 -1.0690  0.1148
  655MOL0     H88358  10.912   4.143   1.940 -2.9930  0.4696 -1.9294
  655MOL0     H88359  11.146   4.162   1.949  2.4276 -0.8558 -2.7667
  655MOL0     H88360  11.340   4.284   1.986  0.8596 -1.0062  0.3747
  655MOL0     H88361  11.376   4.148   1.868 -0.3179 -0.2083  0.0496
  655MOL0     H88362  11.491   4.419   1.852  2.3465  0.7792 -3.4299
  655MOL0     H88363  11.551   4.266   1.774 -2.6653  2.6421 -2.3886
  655MOL0     H88364  11.650   4.188   1.964 -0.6090 -0.2163 -2.3462
  655MOL0     H88365  11.542   4.278   2.073 -0.5300 -2.5135 -0.1962
  655MOL0     H88366  11.791   4.367   1.906 -0.5846  0.3754 -0.8514
  655MOL0     H88367  11.683   4.489   1.969  1.0162  1.0418  0.0687
  655MOL0     H88368  11.725   4.389   2.205 -0.6755 -0.8024  0.0206
  655MOL0     H88369  11.831   4.266   2.132  2.3848  0.6500 -1.0777
  655MOL0     H88370  11.979   4.454   2.056 -1.4854 -0.6061 -0.8744
  655MOL0     H88371  11.883   4.567   2.137 -0.3986  0.3199 -1.6968
  655MOL0     H88372  11.983   4.317   2.281  1.9172  0.1586  0.7499
  655MOL0     H88373  11.910   4.463   2.356 -0.3387  3.4183 -1.7566
  655MOL0     H88374  12.162   4.461   2.198 -0.2476 -0.4516 -0.1288
  655MOL0     H88375  12.109   4.592   2.293  1.9408  0.1701 -1.5436
  655MOL0     H88376  12.072   4.538   2.583 -1.6017  2.0105 -4.4853
  655MOL0     H88377  12.119   4.337   2.816  0.7725  0.8510  2.2829
  655MOL0     H88378  12.294   4.300   2.791  0.2666  0.3917  1.6135
  655MOL0     H88379  12.345   4.539   2.762  2.2815 -0.5928  2.8824
  655MOL0     H88380  12.183   4.586   2.802  1.2612  1.2547  0.7538
  655MOL0     H88381  12.211   4.485   3.018  0.1641  1.1174  0.9648
  655MOL0     H88382  12.347   4.594   2.996 -0.6466  0.3858 -0.4091
  655MOL0     H88383  12.377   4.285   2.981  1.3005 -0.7999 -2.7269
  655MOL0     H88384  12.450   4.392   3.096 -1.1868 -0.8524  0.7975
  655MOL0     H88385  12.575   4.219   3.107  0.0572 -1.5197 -1.0523
  655MOL0     H88386  12.768   4.094   3.123 -1.9842  0.5392  0.2056
  655MOL0     H88387  13.246   4.192   3.009  0.8817  1.4115  1.2325
  655MOL0     H88388  13.484   4.122   2.975 -0.2229 -0.8544 -0.4201
  655MOL0     H88389  13.647   3.979   2.855  0.7024  0.4453 -0.2077
  655MOL0     H88390  13.673   4.040   3.025  0.0394 -0.7586  0.6820
  655MOL0     H88391  13.813   3.808   2.891 -1.7212  0.0856  0.2544
  655MOL0     H88392  13.882   3.969   2.912  1.6818 -0.2576  0.7094
  655MOL0     H88393  13.871   3.950   3.154  3.5276  0.1882 -0.5640
  655MOL0     H88394  13.820   3.773   3.135  0.6051 -0.9818  1.1365
  655MOL0     H88395  14.073   3.870   3.001 -1.0659  1.7130  0.3666
  655MOL0     H88396  14.016   3.710   3.026  1.8511 -0.5803 -0.0130
  655MOL0     H88397  14.056   3.707   3.259  1.6211 -0.7001 -0.3395
  655MOL0     H88398  14.101   3.888   3.251 -1.7111 -1.1734  1.6511
  655MOL0     H88399  14.250   3.701   3.069  0.4006 -0.4504 -0.0900
  655MOL0     H88400  14.311   3.834   3.168 -1.1928  1.2618 -0.5414
  655MOL0     H88401  14.250   3.553   3.273  3.0129 -1.2081  0.0270
  655MOL0     H88402  14.280   3.682   3.385  0.8509  1.0144 -0.6018
  655MOL0     H88403  14.456   3.532   3.345 -0.6419  1.7160  1.1049
  655MOL0     H88404  14.469   3.566   3.169  1.9887 -0.3299  0.4971
  655MOL0     H88405  13.374   3.729   3.097  0.2082  0.0554 -1.8085
  655MOL0     H88406  13.127   3.798   3.124 -0.9707  1.6407  0.3743
  655MOL0     H88407  12.933   4.298   2.778  2.3746 -1.0213  3.0922
  655MOL0     H88408  12.702   4.412   2.750 -0.3029  0.5207  0.8032
  655MOL0     H88409  11.124   4.409   1.597 -0.0480 -2.9570 -2.8485
  655MOL0     H88410  10.892   4.382   1.586  0.7004  1.7630  0.5975
  655MOL0     H88411  10.528   4.147   1.884  0.3583  0.7882 -0.2281
  655MOL0     H88412  10.298   4.065   1.889 -0.4169  0.7301  0.2440
  655MOL0     H88413   9.987   3.886   1.631 -0.9678  0.3877 -1.1178
  655MOL0     H88414  10.124   3.853   1.517  0.2909 -1.1209  1.1771
  655MOL0     H88415  10.164   4.084   1.464  1.3065  1.4211  2.8792
  655MOL0     H88416  10.029   4.139   1.571  0.1059 -0.6393  1.2290
  655MOL0     H88417   9.912   4.140   1.383 -0.8018  0.4707  1.3255
  655MOL0     H88418   9.873   3.975   1.437 -0.3853  0.1272  1.1696
  655MOL0     H88419  10.075   4.059   1.218 -1.1367  1.7844  1.4347
  655MOL0     H88420  10.068   3.900   1.294  2.2602  2.0235 -1.1941
  655MOL0     H88421   9.736   3.840   1.046 -1.4198 -0.2724  1.1158
  655MOL0     H88422  10.331   3.936   1.482 -0.3959 -1.9616  0.8530
  655MOL0     H88423  10.615   4.107   1.401  1.4663 -1.6229  0.5783
  655MOL0     H88424  10.656   3.942   1.433 -0.6983 -1.8023  0.4348
  655MOL0     H88425  10.504   3.978   1.346 -2.1334  0.6971  1.0057
  656MOL0     O88426   3.591   2.685  10.793 -0.9737 -0.6634 -0.0771
  656MOL0     C88427   3.482   2.701  10.839  0.5486  0.1719 -0.3227
  656MOL0     O88428   3.468   2.776  10.957  0.7281 -0.1605 -0.1496
  656MOL0     C88429   3.582   2.815  11.019 -0.1870  0.0644  0.4676
  656MOL0     C88430   3.640   2.940  11.011  0.2350 -0.8934  1.0900
  656MOL0     C88431   3.773   2.965  11.038  0.1392 -0.2396 -0.6879
  656MOL0     C88432   3.846   2.872  11.106  0.1222  0.5691 -0.5021
  656MOL0     O88433   3.981   2.879  11.137 -0.0003  0.3075 -0.5197
  656MOL0     C88434   4.067   2.978  11.085 -0.1032  0.5468 -0.2552
  656MOL0     C88435   4.054   3.107  11.161 -0.4276  0.2973 -0.3650
  656MOL0     C88436   4.119   3.072  11.294 -0.2142 -0.4162  0.0663
  656MOL0     C88437   4.149   3.202  11.367 -0.3054  1.0251  0.5860
  656MOL0     C88438   4.265   3.181  11.465 -0.4037 -0.7068 -0.0784
  656MOL0     C88439   4.395   3.206  11.390 -1.0269  0.0540 -0.6482
  656MOL0     C88440   4.518   3.207  11.481  0.2207 -0.1172 -0.1821
  656MOL0     C88441   4.539   3.351  11.543  0.2443  0.1659  0.0297
  656MOL0     N88442   4.649   3.339  11.639  0.8232  0.4863 -0.3000
  656MOL0     C88443   4.769   3.292  11.612  0.5995 -0.5904  0.0909
  656MOL0     C88444   4.850   3.302  11.719  0.2267  0.5165  0.5996
  656MOL0     C88445   4.994   3.282  11.712  0.4524 -0.5682  0.1051
  656MOL0     C88446   5.074   3.408  11.693 -0.0394  0.7553 -0.1446
  656MOL0     C88447   5.222   3.388  11.713 -0.9941 -0.4098 -0.5160
  656MOL0     C88448   5.307   3.518  11.687 -0.4392  0.6259 -0.3518
  656MOL0     O88449   5.312   3.541  11.550 -0.3814  0.0250  0.3106
  656MOL0     C88450   5.423   3.604  11.499 -0.9337 -0.1626 -0.7935
  656MOL0     C88451   5.449   3.604  11.361  0.1135  0.0950  0.4989
  656MOL0     C88452   5.567   3.655  11.304  0.0346  0.5125 -0.0497
  656MOL0     C88453   5.666   3.715  11.383 -1.0953  0.3521 -0.5780
  656MOL0     C88454   5.793   3.764  11.319  0.5148 -0.1620  0.6344
  656MOL0     O88455   5.815   3.716  11.186  0.3267  0.7714 -0.0974
  656MOL0     C88456   5.916   3.764  11.113  0.4160 -1.0262 -0.6490
  656MOL0     C88457   5.978   3.693  11.012 -1.1646  0.0379  0.2861
  656MOL0     C88458   6.091   3.746  10.937 -0.1375 -0.5824 -0.2858
  656MOL0     C88459   6.127   3.879  10.958 -0.3061 -0.4579  0.2850
  656MOL0     O88460   6.234   3.943  10.898  0.5035 -0.3236 -0.3164
  656MOL0     C88461   6.339   3.866  10.848 -0.1717  0.3378  0.0320
  656MOL0     C88462   6.468   3.953  10.848  0.6482  0.4354 -0.4274
  656MOL0     C88463   6.502   4.002  10.992 -0.9754  0.4294  0.0096
  656MOL0     C88464   6.646   4.053  11.009 -0.0239 -0.2320  0.2266
  656MOL0     C88465   6.647   4.123  11.150 -0.5464  0.4963  0.3198
  656MOL0     C88466   6.636   4.023  11.270  0.6317 -0.7653  0.0998
  656MOL0     C88467   6.673   4.099  11.394 -0.4047 -0.1271 -0.4740
  656MOL0     C88468   6.825   4.145  11.414 -0.2460  0.6051  0.1887
  656MOL0    Cl88469   6.935   4.005  11.423 -0.0820  0.1278 -0.1868
  656MOL0     C88470   6.054   3.956  11.051  0.4982 -0.8047  0.6557
  656MOL0     C88471   5.949   3.900  11.124  0.3670 -0.2404 -0.4332
  656MOL0     O88472   5.874   3.831  11.388  0.3555  0.1585 -0.5790
  656MOL0     C88473   5.638   3.725  11.524 -0.1337 -0.3849 -0.0499
  656MOL0     C88474   5.516   3.677  11.582  0.9956  0.1055  0.4315
  656MOL0     N88475   4.778   3.354  11.826  0.3977 -0.5593 -0.1222
  656MOL0     N88476   4.657   3.381  11.771 -0.0386 -0.1449 -0.8688
  656MOL0     C88477   3.789   2.746  11.131  1.0670  0.6661  0.4926
  656MOL0     C88478   3.661   2.717  11.084  0.9000 -0.1060  0.6167
  656MOL0     C88479   3.360   2.653  10.771  0.4726  0.2381 -0.1686
  656MOL0     C88480   3.255   2.625  10.853 -0.3012 -0.0314 -0.3189
  656MOL0     C88481   3.145   2.557  10.816 -0.5965 -0.0543 -0.0337
  656MOL0     C88482   3.121   2.527  10.682 -0.6371  0.2185 -0.4328
  656MOL0     O88483   3.009   2.485  10.608 -0.0328  0.1725 -0.0533
  656MOL0     C88484   2.893   2.444  10.683  0.1459 -0.5960 -0.2639
  656MOL0     C88485   2.814   2.378  10.571  0.2258  0.1217 -0.5428
  656MOL0     C88486   2.712   2.269  10.608  0.1616 -0.4694  0.5381
  656MOL0     C88487   2.628   2.306  10.738 -0.4913 -0.2296  0.7000
  656MOL0     C88488   2.566   2.441  10.730 -0.0153 -0.3157  0.4606
  656MOL0     C88489   2.533   2.561  10.725  0.9275  0.6644 -0.0028
  656MOL0     C88490   3.225   2.552  10.588 -0.4535  0.7857  0.0924
  656MOL0     C88491   3.344   2.608  10.632 -0.5368 -0.1991  0.4333
  656MOL0     C88492   3.458   2.630  10.534  0.0879 -0.6003  0.3990
  656MOL0     H88493   3.584   3.022  10.968 -1.9468 -2.9231 -0.2008
  656MOL0     H88494   3.808   3.066  11.020  0.3087 -0.0291  0.6773
  656MOL0     H88495   4.169   2.938  11.094  0.3848  1.8964  0.5015
  656MOL0     H88496   4.052   2.999  10.979 -1.6723  0.9632  0.0335
  656MOL0     H88497   3.949   3.130  11.182 -0.1528  2.1442 -0.8792
  656MOL0     H88498   4.108   3.187  11.110 -0.4907  0.8211  0.3750
  656MOL0     H88499   4.207   3.008  11.281 -0.4056 -0.9252  1.1879
  656MOL0     H88500   4.054   3.014  11.360  0.0351 -1.2307 -0.3819
  656MOL0     H88501   4.178   3.289  11.307  0.6825  0.4045  0.1440
  656MOL0     H88502   4.065   3.224  11.433  0.5247  3.2932  0.9903
  656MOL0     H88503   4.258   3.259  11.542 -0.7134  0.8540 -1.6096
  656MOL0     H88504   4.264   3.081  11.509 -2.7073 -0.8495 -0.3237
  656MOL0     H88505   4.405   3.122  11.321  2.0714  0.2112 -0.5655
  656MOL0     H88506   4.397   3.299  11.333  1.6660  2.8436  3.4049
  656MOL0     H88507   4.608   3.184  11.424  0.9993 -2.3082  1.7829
  656MOL0     H88508   4.494   3.137  11.561 -0.1320  0.6258  0.3830
  656MOL0     H88509   4.582   3.407  11.459  1.6759 -0.6375  0.1919
  656MOL0     H88510   4.445   3.394  11.578  0.9958  2.3521 -0.4775
  656MOL0     H88511   4.795   3.258  11.512 -5.0497 -0.7939 -1.6528
  656MOL0     H88512   5.033   3.235  11.803  1.3331  3.4481  2.0316
  656MOL0     H88513   5.019   3.214  11.630 -0.8150 -1.5024  0.4586
  656MOL0     H88514   5.065   3.438  11.588  0.8568  1.1951 -0.1073
  656MOL0     H88515   5.055   3.493  11.759  1.7785  3.3339 -2.6926
  656MOL0     H88516   5.244   3.308  11.641  0.3000  0.0871 -0.7008
  656MOL0     H88517   5.247   3.348  11.811  1.5464  1.4426 -0.3242
  656MOL0     H88518   5.409   3.486  11.713 -1.1047 -1.0404  0.3664
  656MOL0     H88519   5.257   3.599  11.740 -1.0660  0.5718 -0.8487
  656MOL0     H88520   5.375   3.547  11.306 -0.4046  1.1411  0.0765
  656MOL0     H88521   5.573   3.643  11.196  3.0090 -2.4364  0.2596
  656MOL0     H88522   5.941   3.594  10.990  0.2282 -0.0159 -2.0585
  656MOL0     H88523   6.140   3.683  10.863 -1.8291  0.6835 -2.6416
  656MOL0     H88524   6.358   3.783  10.917 -3.2151  0.1852  0.8259
  656MOL0     H88525   6.316   3.819  10.752  2.2346  0.5461 -0.7186
  656MOL0     H88526   6.552   3.890  10.816 -0.0921 -1.3270  0.9332
  656MOL0     H88527   6.457   4.044  10.788  0.8930  1.2814  0.7888
  656MOL0     H88528   6.438   4.086  11.021  1.5056  1.7342  2.1845
  656MOL0     H88529   6.487   3.920  11.063 -0.2765  1.6687  1.6548
  656MOL0     H88530   6.670   4.134  10.940  0.5908  0.8505  1.6738
  656MOL0     H88531   6.717   3.971  10.994  2.9484  2.1566  0.2695
  656MOL0     H88532   6.561   4.190  11.153 -0.3672  0.7901 -0.7510
  656MOL0     H88533   6.741   4.177  11.163 -0.1984 -0.2460  1.0411
  656MOL0     H88534   6.534   3.985  11.285 -0.1957  1.3090  0.0044
  656MOL0     H88535   6.691   3.930  11.249 -0.1176 -0.9194 -1.2886
  656MOL0     H88536   6.641   4.034  11.475 -0.5715 -1.2435 -1.4052
  656MOL0     H88537   6.614   4.190  11.411 -2.1387 -1.7756  3.2778
  656MOL0     H88538   6.869   4.199  11.330  1.3442 -0.7456  0.1105
  656MOL0     H88539   6.838   4.202  11.506  0.3344 -0.8705  1.0465
  656MOL0     H88540   6.057   4.063  11.068  0.2806 -0.5752 -0.6416
  656MOL0     H88541   5.896   3.955  11.202  0.2413  1.4794 -1.6935
  656MOL0     H88542   5.715   3.764  11.589 -1.9425 -0.7159  2.4344
  656MOL0     H88543   5.505   3.687  11.690  1.5336 -0.6226  0.5599
  656MOL0     H88544   3.858   2.678  11.180  1.6620  2.8201  2.8257
  656MOL0     H88545   3.613   2.619  11.084  1.3095 -0.3307 -0.7794
  656MOL0     H88546   3.255   2.646  10.960  0.9320  1.0854 -0.5077
  656MOL0     H88547   3.072   2.538  10.893 -2.8280  0.1986 -1.9709
  656MOL0     H88548   2.845   2.532  10.726 -0.5849  0.5282 -3.0972
  656MOL0     H88549   2.932   2.371  10.754  0.6660  0.5823  0.6895
  656MOL0     H88550   2.868   2.337  10.485 -2.0176  0.7566 -2.3740
  656MOL0     H88551   2.750   2.455  10.526  0.2421 -0.2792 -1.2661
  656MOL0     H88552   2.763   2.174  10.629  0.7020 -0.2408  0.2839
  656MOL0     H88553   2.646   2.252  10.522 -2.7243  0.0797  2.5038
  656MOL0     H88554   2.546   2.235  10.753 -2.6044  1.1831 -2.7871
  656MOL0     H88555   2.687   2.300  10.830 -0.4278 -2.8827  0.5730
  656MOL0     H88556   2.493   2.659  10.712 -1.4077 -0.1834  0.2391
  656MOL0     H88557   3.222   2.525  10.482 -0.7548  0.6934  0.1223
  656MOL0     H88558   3.507   2.532  10.524 -1.5911 -1.4722  0.4178
  656MOL0     H88559   3.416   2.662  10.439 -0.2480  1.8001  1.2703
  656MOL0     H88560   3.532   2.702  10.572  0.5773 -1.9082  2.0850
  657MOL0     O88561   2.763   6.175   7.539  0.0372 -0.1258  0.2351
  657MOL0     C88562   2.742   6.073   7.598 -0.3498 -0.4381 -0.8758
  657MOL0     O88563   2.831   6.017   7.688 -0.4407  0.0803  0.5415
  657MOL0     C88564   2.963   6.060   7.689 -0.3513  0.0228 -0.0078
  657MOL0     C88565   3.053   5.993   7.598  0.0941  0.1532 -0.4471
  657MOL0     C88566   3.190   6.022   7.605 -0.2809  0.0643  0.1385
  657MOL0     C88567   3.239   6.123   7.684 -0.8691 -0.4229  0.2048
  657MOL0     O88568   3.369   6.159   7.681 -0.8908 -0.3186 -0.5327
  657MOL0     C88569   3.440   6.203   7.799 -0.1614  0.1688  1.0582
  657MOL0     C88570   3.460   6.351   7.788 -0.2545 -1.6322  0.2622
  657MOL0     C88571   3.569   6.384   7.688  0.7286  0.2003  0.1853
  657MOL0     C88572   3.649   6.509   7.742  0.0651 -0.0263  0.5688
  657MOL0     C88573   3.744   6.575   7.643 -0.2814  0.0632  0.3031
  657MOL0     C88574   3.856   6.483   7.608  0.4898  0.1502  0.0586
  657MOL0     C88575   3.970   6.542   7.514  0.4052 -0.7487 -0.1014
  657MOL0     C88576   4.077   6.595   7.609  0.1129  0.1164  0.4023
  657MOL0     N88577   4.206   6.638   7.547  0.5720 -0.8371 -0.4723
  657MOL0     C88578   4.305   6.558   7.514 -0.3912  0.4142 -0.6325
  657MOL0     C88579   4.393   6.640   7.442 -0.1372  0.8468  0.0371
  657MOL0     C88580   4.523   6.604   7.384  0.3466 -0.0966  0.0019
  657MOL0     C88581   4.626   6.646   7.487 -0.7380 -0.1271  0.2719
  657MOL0     C88582   4.766   6.608   7.432  0.3080 -0.5730  0.6793
  657MOL0     C88583   4.874   6.640   7.527 -1.1048 -0.0925 -1.4067
  657MOL0     O88584   4.890   6.787   7.546 -0.1481 -0.5125  0.2565
  657MOL0     C88585   5.009   6.807   7.606  0.0893 -0.0136 -0.6998
  657MOL0     C88586   5.119   6.860   7.537 -0.6447 -0.5358  0.6320
  657MOL0     C88587   5.242   6.880   7.590 -0.2819 -0.3711  0.5418
  657MOL0     C88588   5.262   6.842   7.725  0.6938 -0.0030  0.3855
  657MOL0     C88589   5.397   6.872   7.787 -0.2697 -0.7653 -0.0642
  657MOL0     O88590   5.495   6.927   7.699  0.7275 -0.0033 -0.1763
  657MOL0     C88591   5.620   6.968   7.748  0.3453 -0.5683  0.3620
  657MOL0     C88592   5.723   6.958   7.651 -0.3891  0.6975 -0.2457
  657MOL0     C88593   5.845   7.009   7.685 -0.6374 -0.7194  0.3527
  657MOL0     C88594   5.880   7.057   7.818  0.9052 -0.5307  0.0404
  657MOL0     O88595   6.005   7.097   7.850  0.0756  0.3288 -0.0778
  657MOL0     C88596   6.115   7.053   7.776  0.3310  0.0148 -0.4246
  657MOL0     C88597   6.230   7.092   7.864  0.1137 -0.1452  0.3057
  657MOL0     C88598   6.367   7.045   7.813 -0.5325  1.2149  0.2388
  657MOL0     C88599   6.471   7.089   7.912 -0.5095 -0.3759 -0.6115
  657MOL0     C88600   6.610   7.045   7.863  0.1848 -0.1861  0.2907
  657MOL0     C88601   6.721   7.116   7.931 -0.4885  0.0416 -0.5577
  657MOL0     C88602   6.854   7.054   7.902 -0.1319 -0.3455 -0.3730
  657MOL0     C88603   6.914   7.080   7.768 -0.5525  0.4928 -0.0201
  657MOL0    Cl88604   6.942   7.260   7.728  0.0097  0.1947 -0.0146
  657MOL0     C88605   5.781   7.059   7.914  0.6784 -0.1867  0.5789
  657MOL0     C88606   5.650   7.016   7.879  0.0516 -0.0264  0.0568
  657MOL0     O88607   5.419   6.841   7.905  0.0113  0.1224 -0.1787
  657MOL0     C88608   5.152   6.792   7.799 -0.2056 -0.1814  0.6189
  657MOL0     C88609   5.026   6.769   7.737 -0.7094 -0.5529  0.4003
  657MOL0     N88610   4.339   6.768   7.436 -0.4282 -0.5155  0.0567
  657MOL0     N88611   4.229   6.764   7.500  0.3131 -0.3848  0.6692
  657MOL0     C88612   3.150   6.193   7.782 -0.0647  1.0443  0.6274
  657MOL0     C88613   3.015   6.161   7.782  0.2157  0.5661 -0.2187
  657MOL0     C88614   2.612   5.998   7.584 -0.0941 -0.8583  0.3984
  657MOL0     C88615   2.610   5.859   7.603 -0.3992  0.3413  0.2116
  657MOL0     C88616   2.482   5.779   7.579  0.2812 -0.2205  0.4496
  657MOL0     C88617   2.370   5.843   7.527 -1.0520 -0.1835 -0.7071
  657MOL0     O88618   2.252   5.787   7.498  0.1833 -0.4746 -0.2956
  657MOL0     C88619   2.235   5.653   7.532  0.5170  0.2673  0.4142
  657MOL0     C88620   2.079   5.606   7.521 -0.3407  0.9201  0.1895
  657MOL0     C88621   2.027   5.582   7.372 -0.2894  0.8749 -0.1884
  657MOL0     C88622   1.966   5.705   7.316 -0.2636 -0.5063 -0.2836
  657MOL0     C88623   2.013   5.733   7.179  0.5362 -0.2617 -0.2245
  657MOL0     C88624   2.040   5.781   7.072 -0.6191  0.0196  0.0823
  657MOL0     C88625   2.379   5.979   7.516 -0.1854 -0.1735 -0.0071
  657MOL0     C88626   2.492   6.059   7.548 -0.6710 -0.2238 -0.7110
  657MOL0     C88627   2.480   6.209   7.523 -0.8977 -0.3119  0.3425
  657MOL0     H88628   3.014   5.920   7.528  1.5015 -1.3343  0.2323
  657MOL0     H88629   3.273   5.979   7.551  2.0014  0.9643  2.6991
  657MOL0     H88630   3.381   6.186   7.890  1.0993 -1.1826  1.6732
  657MOL0     H88631   3.540   6.162   7.813  0.3243  0.5164 -1.0391
  657MOL0     H88632   3.486   6.399   7.883  0.2308 -0.2564 -0.5474
  657MOL0     H88633   3.368   6.397   7.751  0.9610 -0.4951 -1.4729
  657MOL0     H88634   3.535   6.412   7.588  1.3302  0.3400  0.0203
  657MOL0     H88635   3.627   6.294   7.667 -1.0688 -1.1170  0.5719
  657MOL0     H88636   3.580   6.585   7.778 -0.4896 -0.8821  1.3957
  657MOL0     H88637   3.705   6.471   7.829  3.0729 -1.3747 -1.7866
  657MOL0     H88638   3.698   6.620   7.554  0.3230  0.4017  0.1546
  657MOL0     H88639   3.789   6.651   7.708  0.2819 -0.4635  0.5344
  657MOL0     H88640   3.893   6.442   7.702  0.0072 -1.3361 -0.3604
  657MOL0     H88641   3.817   6.396   7.554 -0.6343 -0.3448  1.6241
  657MOL0     H88642   3.929   6.616   7.445  0.1390  0.0507  0.8775
  657MOL0     H88643   4.011   6.460   7.454 -1.8464 -2.1627  0.1615
  657MOL0     H88644   4.035   6.680   7.664 -0.1415 -0.8504  1.7353
  657MOL0     H88645   4.096   6.516   7.682  1.4557  0.8635  0.8962
  657MOL0     H88646   4.313   6.450   7.522 -0.8860  0.3406 -1.0384
  657MOL0     H88647   4.532   6.497   7.366 -0.0306 -0.5243  2.1583
  657MOL0     H88648   4.533   6.666   7.294  0.1496 -0.5050 -0.3021
  657MOL0     H88649   4.621   6.754   7.504  2.2068 -0.1042  1.6145
  657MOL0     H88650   4.607   6.590   7.578  1.1893 -4.3487 -1.6313
  657MOL0     H88651   4.773   6.665   7.339  0.2314  0.7800  1.4689
  657MOL0     H88652   4.765   6.501   7.412  1.6702 -0.9939  2.5649
  657MOL0     H88653   4.966   6.598   7.486  1.2490  1.0397  2.2547
  657MOL0     H88654   4.859   6.590   7.623  0.4279  1.7171 -0.1453
  657MOL0     H88655   5.106   6.902   7.437 -0.6973 -0.6518  0.5895
  657MOL0     H88656   5.327   6.910   7.530 -0.7078 -1.3965 -0.6085
  657MOL0     H88657   5.706   6.905   7.558  2.6341 -2.9918  1.0406
  657MOL0     H88658   5.921   7.013   7.608  0.4159 -1.4559  1.3326
  657MOL0     H88659   6.113   6.944   7.768 -0.3248  0.1342 -2.9804
  657MOL0     H88660   6.112   7.096   7.675 -3.4344 -0.1590 -0.5568
  657MOL0     H88661   6.225   7.200   7.874 -4.4768 -0.0558 -0.7600
  657MOL0     H88662   6.218   7.048   7.963  0.0110 -2.9783 -0.8590
  657MOL0     H88663   6.364   6.936   7.803  1.0696  1.1392  0.3055
  657MOL0     H88664   6.384   7.083   7.712 -0.9868  1.6907  0.3404
  657MOL0     H88665   6.453   7.059   8.015 -0.3156  0.9367 -0.1883
  657MOL0     H88666   6.468   7.198   7.918  1.9464 -0.3634  2.9146
  657MOL0     H88667   6.615   7.071   7.757 -2.7790 -0.6852 -0.0602
  657MOL0     H88668   6.621   6.938   7.878 -1.8194 -0.7003 -1.4253
  657MOL0     H88669   6.722   7.220   7.898  2.4390 -0.5135 -2.5892
  657MOL0     H88670   6.716   7.110   8.041  0.3941  0.1721 -0.5077
  657MOL0     H88671   6.858   6.945   7.913  3.3372 -0.2185  0.6450
  657MOL0     H88672   6.915   7.086   7.987  0.0724  0.1115 -0.6886
  657MOL0     H88673   7.013   7.035   7.769 -1.0801 -1.0982  5.0793
  657MOL0     H88674   6.854   7.022   7.697 -0.2523 -2.0499  1.6659
  657MOL0     H88675   5.802   7.107   8.009  3.4650 -0.3820  0.1599
  657MOL0     H88676   5.564   7.025   7.944 -0.9394  2.5529 -1.4656
  657MOL0     H88677   5.173   6.771   7.904  0.4401 -1.7307  0.2084
  657MOL0     H88678   4.943   6.733   7.798 -2.8562  0.6872 -1.6273
  657MOL0     H88679   3.184   6.271   7.849 -1.2241  2.6669 -0.5887
  657MOL0     H88680   2.936   6.190   7.851 -1.0762 -2.6508 -0.1586
  657MOL0     H88681   2.700   5.813   7.644  0.3837  0.7546 -0.9794
  657MOL0     H88682   2.490   5.680   7.621  0.0350  0.5953  2.5123
  657MOL0     H88683   2.258   5.639   7.638  0.4834  1.3357  0.5695
  657MOL0     H88684   2.295   5.591   7.464 -0.1100 -1.2374  1.1927
  657MOL0     H88685   2.019   5.680   7.575  1.6291  2.0944  0.8752
  657MOL0     H88686   2.062   5.507   7.564  1.0273 -0.9575 -3.1764
  657MOL0     H88687   1.966   5.492   7.360  1.2146 -0.0184 -1.4826
  657MOL0     H88688   2.118   5.567   7.313  0.3765  1.2245  0.7284
  657MOL0     H88689   1.859   5.686   7.324  0.0540 -2.4548 -0.1054
  657MOL0     H88690   1.994   5.789   7.379  0.1499 -0.7622 -0.1210
  657MOL0     H88691   2.065   5.821   6.976  4.8121 -1.2140  0.6295
  657MOL0     H88692   2.292   6.026   7.471 -2.8631 -3.2460  1.5460
  657MOL0     H88693   2.377   6.245   7.530 -1.5337 -2.2746  2.4275
  657MOL0     H88694   2.531   6.258   7.607 -2.8332 -1.6857  2.4181
  657MOL0     H88695   2.527   6.228   7.426 -1.0032 -0.9595  0.1562
  658MOL0     O88696   1.987   6.328   0.097 -0.0807 -1.1487 -0.5872
  658MOL0     C88697   2.012   6.444   0.061 -0.6833  0.3898  0.0916
  658MOL0     O88698   1.940   6.558   0.100 -0.3786 -0.4940  0.1685
  658MOL0     C88699   1.812   6.562   0.142 -0.2727  0.4006  0.0251
  658MOL0     C88700   1.716   6.459   0.144  0.6982  0.1801  0.9222
  658MOL0     C88701   1.593   6.490   0.208 -0.8423 -0.0090  0.2382
  658MOL0     C88702   1.551   6.618   0.253 -1.3537 -0.2916 -0.6812
  658MOL0     O88703   1.427   6.628   0.313  0.3538 -0.1458 -0.7368
  658MOL0     C88704   1.372   6.760   0.326 -0.6854 -0.1813  0.2434
  658MOL0     C88705   1.223   6.746   0.354  0.0738  0.6807  0.5607
  658MOL0     C88706   1.196   6.694   0.498  0.0433  0.2435 -0.5428
  658MOL0     C88707   1.150   6.811   0.579  0.4070  0.3941 -0.3562
  658MOL0     C88708   1.125   6.762   0.724 -0.0784  0.1037 -0.0548
  658MOL0     C88709   1.067   6.870   0.815  0.2562  0.9377 -0.3299
  658MOL0     C88710   0.991   6.807   0.937  0.1398 -0.6388 -0.0021
  658MOL0     C88711   0.842   6.860   0.956 -0.1174  0.9749 -0.8814
  658MOL0     N88712   0.761   6.814   0.847 -0.0994  0.0851 -0.5097
  658MOL0     C88713   0.769   6.698   0.778 -0.3564 -0.3811  0.1525
  658MOL0     C88714   0.721   6.723   0.656  0.4852  0.3927  0.4828
  658MOL0     C88715   0.701   6.616   0.556 -0.0297  0.3596 -0.5131
  658MOL0     C88716   0.799   6.621   0.436  0.1087 -0.4063 -0.9269
  658MOL0     C88717   0.782   6.494   0.347  0.3119  0.1000 -0.1903
  658MOL0     C88718   0.881   6.476   0.229 -0.0676 -0.0988 -1.0046
  658MOL0     O88719   0.887   6.340   0.182 -0.0846 -0.0663 -0.0382
  658MOL0     C88720   1.010   6.286   0.146 -0.2642  0.1846  0.2354
  658MOL0     C88721   1.082   6.355   0.052  0.7269  0.4125 -0.1613
  658MOL0     C88722   1.210   6.304   0.019 -0.5956  0.1291 -0.6788
  658MOL0     C88723   1.263   6.187   0.084 -0.2910  0.8439  0.1484
  658MOL0     C88724   1.403   6.146   0.073  0.2897  0.1381  0.3709
  658MOL0     O88725   1.446   6.058   0.165 -0.0628  0.1227 -0.4804
  658MOL0     C88726   1.568   6.000   0.153 -1.0245 -1.1101  0.6226
  658MOL0     C88727   1.684   6.065   0.194  0.1430 -0.5016 -0.1227
  658MOL0     C88728   1.810   6.003   0.176 -1.0149  0.6811  0.4438
  658MOL0     C88729   1.827   5.873   0.119  0.2087  0.2538  1.1277
  658MOL0     O88730   1.958   5.824   0.107  0.4868 -0.1023 -0.2291
  658MOL0     C88731   1.994   5.681   0.093 -0.3673 -0.3789 -0.1282
  658MOL0     C88732   2.149   5.659   0.107  0.4056 -0.2504  0.0721
  658MOL0     C88733   2.202   5.556   0.202  0.3272 -0.0812  0.1048
  658MOL0     C88734   2.148   5.415   0.162 -0.2742  0.2549  0.1933
  658MOL0     C88735   2.178   5.323   0.266  0.1557  0.7470 -0.5899
  658MOL0     C88736   2.161   5.176   0.220 -0.3653 -0.1116 -0.3930
  658MOL0     C88737   2.219   5.086   0.324  0.2911 -0.1747 -0.1903
  658MOL0     C88738   2.372   5.107   0.336 -0.0556  0.5573 -0.2207
  658MOL0    Cl88739   2.458   5.023   0.203 -0.0786 -0.1776  0.2241
  658MOL0     C88740   1.714   5.809   0.080 -0.4532  0.1025 -0.5492
  658MOL0     C88741   1.583   5.868   0.094 -0.4496 -0.4439  0.1683
  658MOL0     O88742   1.466   6.186  -0.028  0.4285 -0.2289  0.3974
  658MOL0     C88743   1.180   6.128   0.183 -1.1739  0.4719  0.1987
  658MOL0     C88744   1.055   6.173   0.204 -0.7126  0.3747  0.6864
  658MOL0     N88745   0.674   6.851   0.643  1.3654  0.5669 -0.1507
  658MOL0     N88746   0.694   6.904   0.763  0.1917  0.3714  0.2975
  658MOL0     C88747   1.652   6.714   0.238 -0.0856  0.3739 -0.2222
  658MOL0     C88748   1.778   6.689   0.191  0.3013 -0.4651  0.5285
  658MOL0     C88749   2.134   6.452  -0.028 -0.6270 -0.8366 -0.5392
  658MOL0     C88750   2.205   6.331  -0.068  0.2048 -0.1615 -0.3753
  658MOL0     C88751   2.319   6.338  -0.152 -0.5889 -0.0040  0.1381
  658MOL0     C88752   2.375   6.463  -0.180 -0.0330 -1.0056 -0.5795
  658MOL0     O88753   2.495   6.457  -0.247  0.3181 -0.1938 -1.2023
  658MOL0     C88754   2.553   6.584  -0.285 -0.0563  0.5404 -0.1915
  658MOL0     C88755   2.676   6.561  -0.382 -0.1424 -0.4996  1.1019
  658MOL0     C88756   2.802   6.505  -0.320 -0.4870 -0.3876  0.2175
  658MOL0     C88757   2.929   6.525  -0.408  0.5462 -0.2442 -0.7471
  658MOL0     C88758   3.060   6.482  -0.346  0.2496  0.0980  0.3634
  658MOL0     C88759   3.165   6.442  -0.301  0.7707  0.4071 -0.6637
  658MOL0     C88760   2.315   6.578  -0.130  0.3455  0.2181 -0.0549
  658MOL0     C88761   2.196   6.578  -0.061  0.7951  0.4704 -0.8192
  658MOL0     C88762   2.133   6.712  -0.029  0.6407 -0.3174 -0.0066
  658MOL0     H88763   1.733   6.367   0.089 -2.7318  0.2929 -0.5462
  658MOL0     H88764   1.526   6.410   0.236 -1.0212 -0.2314 -0.7978
  658MOL0     H88765   1.427   6.812   0.406 -0.8522  0.3530  0.0170
  658MOL0     H88766   1.391   6.813   0.232  0.3917 -2.3798 -0.8478
  658MOL0     H88767   1.187   6.658   0.299 -3.1182  2.1935  0.0280
  658MOL0     H88768   1.167   6.835   0.326  2.4192  2.0055 -0.1722
  658MOL0     H88769   1.289   6.650   0.535 -1.2035 -1.9024  0.2317
  658MOL0     H88770   1.119   6.618   0.513  0.3796 -0.2674 -1.3326
  658MOL0     H88771   1.224   6.892   0.575  1.6572 -0.6597  0.6888
  658MOL0     H88772   1.054   6.847   0.540  1.6191 -0.7102 -5.0725
  658MOL0     H88773   1.060   6.675   0.720 -0.6972  0.5037  1.0469
  658MOL0     H88774   1.224   6.728   0.757  0.2367  1.1461  0.0979
  658MOL0     H88775   1.136   6.943   0.859  2.6032 -1.5173  0.3457
  658MOL0     H88776   0.990   6.929   0.765 -0.0262  1.5768  0.8224
  658MOL0     H88777   1.048   6.830   1.027 -0.0650 -2.9607  0.7856
  658MOL0     H88778   0.992   6.698   0.927 -0.0874 -0.8757  2.1137
  658MOL0     H88779   0.801   6.827   1.052 -0.3723 -1.0389 -1.6357
  658MOL0     H88780   0.854   6.968   0.968  1.0656  0.7078  0.8900
  658MOL0     H88781   0.805   6.599   0.804 -2.6830 -1.7988 -1.5767
  658MOL0     H88782   0.715   6.521   0.607  0.4580  0.0849 -1.1437
  658MOL0     H88783   0.599   6.616   0.515 -0.2276  0.8989 -0.0278
  658MOL0     H88784   0.778   6.719   0.393  0.9072  0.7597  1.2209
  658MOL0     H88785   0.903   6.617   0.468 -0.5519  0.9183  1.7307
  658MOL0     H88786   0.686   6.503   0.295  0.8889  0.2936 -1.2243
  658MOL0     H88787   0.802   6.411   0.417  0.6591 -1.2714 -1.8600
  658MOL0     H88788   0.977   6.523   0.249 -0.4013 -0.7311  2.9197
  658MOL0     H88789   0.833   6.530   0.147 -0.9108  1.6133  0.5477
  658MOL0     H88790   1.033   6.441   0.007 -2.4112 -2.1299 -2.0136
  658MOL0     H88791   1.273   6.366  -0.044 -1.6423  1.9317 -0.0404
  658MOL0     H88792   1.683   6.172   0.215  3.6326 -0.0977 -1.4079
  658MOL0     H88793   1.898   6.065   0.190  0.6597 -0.9390 -2.0494
  658MOL0     H88794   1.950   5.625   0.176  1.8925 -2.8794 -0.4895
  658MOL0     H88795   1.951   5.636   0.004  0.6884 -0.3007 -0.7005
  658MOL0     H88796   2.182   5.640   0.004  0.1323  0.2438 -0.1097
  658MOL0     H88797   2.188   5.755   0.142  0.7092 -0.4146  0.1860
  658MOL0     H88798   2.311   5.541   0.203  0.0315 -2.8634  0.3618
  658MOL0     H88799   2.166   5.579   0.302 -0.9522  2.8583 -0.9120
  658MOL0     H88800   2.209   5.388   0.075  2.3526  2.3210  1.2484
  658MOL0     H88801   2.042   5.428   0.141 -0.0377  1.6502 -0.3016
  658MOL0     H88802   2.104   5.342   0.344 -2.5618  0.5960 -2.9610
  658MOL0     H88803   2.279   5.341   0.305  1.1858 -1.7768 -1.8950
  658MOL0     H88804   2.055   5.153   0.204  0.1354 -1.6856 -1.7570
  658MOL0     H88805   2.212   5.160   0.124  0.2444 -0.9887  0.0651
  658MOL0     H88806   2.204   4.980   0.300  1.9278 -0.5887  0.4658
  658MOL0     H88807   2.169   5.102   0.420 -3.2922  0.1947 -1.9868
  658MOL0     H88808   2.409   5.209   0.345 -1.2244  0.8665  1.5053
  658MOL0     H88809   2.402   5.055   0.427 -2.0710 -2.2661 -0.9938
  658MOL0     H88810   1.726   5.712   0.032  0.6576 -0.7163  1.3049
  658MOL0     H88811   1.492   5.813   0.072 -1.5041  0.8407  1.0827
  658MOL0     H88812   1.218   6.043   0.237  0.9371 -0.2289 -2.1933
  658MOL0     H88813   1.000   6.113   0.275 -1.1705 -1.0375 -0.8016
  658MOL0     H88814   1.615   6.814   0.257 -3.2833 -1.0537  2.1511
  658MOL0     H88815   1.858   6.761   0.204 -0.6275  0.7106 -0.1032
  658MOL0     H88816   2.158   6.236  -0.047  1.2313 -0.9006 -1.3612
  658MOL0     H88817   2.363   6.245  -0.186  2.1816  0.4715  2.1103
  658MOL0     H88818   2.574   6.647  -0.197  0.2615  3.6261 -2.3159
  658MOL0     H88819   2.482   6.642  -0.344  0.0449 -0.5182 -1.3861
  658MOL0     H88820   2.704   6.654  -0.433 -2.3474 -1.4822 -2.2036
  658MOL0     H88821   2.643   6.489  -0.458  2.2582 -1.9608  1.3472
  658MOL0     H88822   2.792   6.397  -0.308  1.3994 -0.4922  1.1020
  658MOL0     H88823   2.814   6.539  -0.217 -2.1413 -2.8286  1.3057
  658MOL0     H88824   2.921   6.467  -0.501  1.5877 -1.2706 -0.2265
  658MOL0     H88825   2.929   6.632  -0.434 -0.1421 -0.4830 -1.7994
  658MOL0     H88826   3.243   6.404  -0.238 -0.0521 -1.1481 -0.5366
  658MOL0     H88827   2.359   6.675  -0.152 -1.1115  0.5834 -1.5421
  658MOL0     H88828   2.129   6.713   0.080  2.3116 -1.4586  0.0997
  658MOL0     H88829   2.200   6.791  -0.065  0.6382  0.2479  1.2056
  658MOL0     H88830   2.033   6.718  -0.073  0.5927 -0.5475  0.0706
  659MOL0     O88831   1.722   6.882   8.905 -0.2328 -0.0759 -0.2288
  659MOL0     C88832   1.725   6.966   8.989  0.6434 -0.6142 -0.5980
  659MOL0     O88833   1.843   7.023   9.038  0.2380  0.3013 -0.6390
  659MOL0     C88834   1.961   7.012   8.969 -0.7002  0.7552 -0.1785
  659MOL0     C88835   1.972   6.999   8.830  0.5609 -1.1185  0.3531
  659MOL0     C88836   2.095   7.009   8.774 -1.0146  0.1988 -0.4293
  659MOL0     C88837   2.211   7.006   8.847 -0.2410  0.8139  0.4592
  659MOL0     O88838   2.331   7.004   8.787 -0.6560 -0.4860 -0.9470
  659MOL0     C88839   2.363   7.090   8.676 -0.1568 -0.3669 -0.3787
  659MOL0     C88840   2.505   7.057   8.629  0.0779  0.0762 -0.9726
  659MOL0     C88841   2.624   7.090   8.725 -0.0687 -0.4036  0.0564
  659MOL0     C88842   2.765   7.037   8.670  0.5583 -0.4624 -0.1871
  659MOL0     C88843   2.889   7.079   8.746 -1.0113  0.3089 -0.2329
  659MOL0     C88844   3.017   7.028   8.684  0.4816 -0.3871 -0.0449
  659MOL0     C88845   3.147   7.045   8.767 -0.7816 -0.3048  0.7694
  659MOL0     C88846   3.277   6.997   8.691 -0.1934  0.2412  0.4653
  659MOL0     N88847   3.395   7.059   8.757 -0.0644  0.3265 -0.8901
  659MOL0     C88848   3.438   7.192   8.763  0.0975 -0.1819 -0.7293
  659MOL0     C88849   3.558   7.194   8.819 -0.3313 -0.7168 -0.3539
  659MOL0     C88850   3.632   7.321   8.853 -0.5262  0.0611 -0.5934
  659MOL0     C88851   3.758   7.290   8.944  0.1619 -0.4798  0.0402
  659MOL0     C88852   3.812   7.420   9.015 -0.4653 -0.5712 -0.8614
  659MOL0     C88853   3.942   7.392   9.093  0.0825  0.3375  0.2533
  659MOL0     O88854   3.975   7.519   9.129  0.6741  0.1028  0.0420
  659MOL0     C88855   4.096   7.550   9.181 -0.6870 -0.1030 -0.2983
  659MOL0     C88856   4.206   7.467   9.183  0.5418  0.4988  0.1234
  659MOL0     C88857   4.329   7.505   9.241 -0.1785  0.0782  0.4675
  659MOL0     C88858   4.335   7.624   9.300  0.2252 -0.6652 -0.0863
  659MOL0     C88859   4.469   7.670   9.347 -0.8228  0.6423  0.1817
  659MOL0     O88860   4.578   7.585   9.330 -0.5199  0.2714  0.3493
  659MOL0     C88861   4.703   7.636   9.362  0.2300  0.0949  1.1726
  659MOL0     C88862   4.764   7.602   9.479  0.9128 -0.2141 -0.5360
  659MOL0     C88863   4.889   7.650   9.503  0.4915 -0.5829  0.4718
  659MOL0     C88864   4.964   7.738   9.420  0.6148  0.1135 -0.0434
  659MOL0     O88865   5.087   7.775   9.461  0.0985 -0.2268  0.4328
  659MOL0     C88866   5.155   7.875   9.383  0.1870 -0.1205 -0.4805
  659MOL0     C88867   5.300   7.911   9.437  1.0507 -0.0082 -0.0119
  659MOL0     C88868   5.372   7.798   9.486 -0.2943  0.2305  0.7727
  659MOL0     C88869   5.379   7.689   9.380  0.3963 -0.1078 -0.0069
  659MOL0     C88870   5.479   7.579   9.408  0.2034  0.0262 -0.6482
  659MOL0     C88871   5.630   7.614   9.400 -0.8307 -1.2244  0.3832
  659MOL0     C88872   5.725   7.493   9.417  0.5909 -0.2559  0.1116
  659MOL0     C88873   5.865   7.528   9.385 -0.1462 -0.1256  0.3594
  659MOL0    Cl88874   5.955   7.377   9.412  0.3100 -0.1876 -0.5156
  659MOL0     C88875   4.898   7.773   9.297 -0.4501 -0.0628 -0.1705
  659MOL0     C88876   4.762   7.737   9.273 -0.6945  0.4673 -0.1494
  659MOL0     O88877   4.479   7.780   9.406 -0.1217  0.2674  0.7680
  659MOL0     C88878   4.222   7.702   9.317 -0.2640 -0.6202  0.2798
  659MOL0     C88879   4.103   7.666   9.257  0.0203  0.1345  0.0558
  659MOL0     N88880   3.590   7.066   8.855  0.9129  0.2857  0.0405
  659MOL0     N88881   3.495   6.985   8.814  0.1664  0.5217 -0.5027
  659MOL0     C88882   2.203   7.004   8.986  0.7021  0.3563 -0.2950
  659MOL0     C88883   2.078   7.013   9.045  0.0404 -0.1135 -0.4711
  659MOL0     C88884   1.597   7.007   9.057 -0.2849  0.7703  0.1331
  659MOL0     C88885   1.599   7.040   9.194  0.5593  0.3721 -1.2369
  659MOL0     C88886   1.486   7.086   9.255 -0.3697 -0.4309 -0.1637
  659MOL0     C88887   1.374   7.105   9.184  0.0979  0.4995  0.6976
  659MOL0     O88888   1.266   7.161   9.247  0.0542  0.8537  0.5787
  659MOL0     C88889   1.145   7.191   9.188 -0.2810 -0.2687 -0.0293
  659MOL0     C88890   1.143   7.298   9.083  0.0155  0.8187 -0.1793
  659MOL0     C88891   1.049   7.410   9.136  0.7947 -0.5670 -0.5735
  659MOL0     C88892   1.023   7.526   9.039 -0.6625 -0.2126  1.0299
  659MOL0     C88893   0.929   7.500   8.924 -0.3418  0.0663 -0.5724
  659MOL0     C88894   0.863   7.494   8.819  0.4351  0.3161 -0.4483
  659MOL0     C88895   1.366   7.064   9.048  0.3467 -0.5082  0.9097
  659MOL0     C88896   1.479   7.011   8.986  0.0912  0.2352  0.5233
  659MOL0     C88897   1.464   6.974   8.840 -0.0667 -0.0455 -0.1226
  659MOL0     H88898   1.892   6.988   8.757  1.1164  0.3239 -0.5074
  659MOL0     H88899   2.092   6.999   8.666 -2.0029  1.5457 -0.5555
  659MOL0     H88900   2.293   7.081   8.593  0.9649 -1.7463 -1.2297
  659MOL0     H88901   2.340   7.194   8.699  1.0623  0.0431 -0.9367
  659MOL0     H88902   2.520   7.114   8.537 -2.2697  2.1868 -0.1723
  659MOL0     H88903   2.506   6.950   8.607  0.8738  0.1782 -1.4630
  659MOL0     H88904   2.603   7.048   8.824 -0.1613 -0.7544 -0.1110
  659MOL0     H88905   2.635   7.198   8.733 -0.5156 -0.3310 -0.2718
  659MOL0     H88906   2.755   6.929   8.657 -0.9740 -0.2010 -1.4625
  659MOL0     H88907   2.767   7.077   8.568 -1.3666 -4.5640 -2.0422
  659MOL0     H88908   2.907   7.186   8.753  0.0277  0.1478 -0.3323
  659MOL0     H88909   2.879   7.045   8.850  2.9500  3.7922  1.5673
  659MOL0     H88910   3.004   6.920   8.672  0.3401 -0.3249 -0.4855
  659MOL0     H88911   3.031   7.071   8.584 -0.6470  3.1286  1.1812
  659MOL0     H88912   3.128   6.985   8.858  2.0826 -2.2924  0.1913
  659MOL0     H88913   3.161   7.148   8.799 -1.0869 -0.4587  1.4196
  659MOL0     H88914   3.273   6.889   8.705  0.0310  0.1705  0.0225
  659MOL0     H88915   3.267   7.008   8.582  0.2704 -2.1568  0.1322
  659MOL0     H88916   3.380   7.271   8.718 -0.9359 -0.2588  0.3935
  659MOL0     H88917   3.668   7.383   8.770 -1.4810  1.0667 -0.2779
  659MOL0     H88918   3.563   7.382   8.913 -1.8259 -0.9191 -1.0404
  659MOL0     H88919   3.734   7.211   9.016  0.4400 -0.3279  0.2979
  659MOL0     H88920   3.828   7.248   8.870  1.9351  3.6550 -0.8900
  659MOL0     H88921   3.741   7.479   9.074  0.2555 -0.6543  0.1273
  659MOL0     H88922   3.836   7.488   8.933  0.3463  0.2561  0.0279
  659MOL0     H88923   4.012   7.336   9.029  0.9499  3.3205 -1.6425
  659MOL0     H88924   3.916   7.336   9.183 -2.3069  1.0299  0.0447
  659MOL0     H88925   4.201   7.371   9.133 -0.1963  1.1757 -1.1661
  659MOL0     H88926   4.416   7.440   9.231  2.2468  3.0021  1.2557
  659MOL0     H88927   4.714   7.534   9.548 -0.3246  2.0767  0.9334
  659MOL0     H88928   4.933   7.613   9.595 -0.0540  0.9342  1.3771
  659MOL0     H88929   5.173   7.836   9.283  1.9409 -1.1323  0.1921
  659MOL0     H88930   5.096   7.967   9.372  0.4907  0.1170 -0.1623
  659MOL0     H88931   5.357   7.971   9.365  1.8090  1.4308  1.7150
  659MOL0     H88932   5.290   7.982   9.519  1.9760  0.6901 -0.4749
  659MOL0     H88933   5.471   7.840   9.509 -1.0734  1.0310  2.8944
  659MOL0     H88934   5.325   7.764   9.579 -1.0382  2.1738  1.1645
  659MOL0     H88935   5.406   7.729   9.282  0.8947 -0.1216  0.1208
  659MOL0     H88936   5.278   7.648   9.373 -0.0573  1.1243 -1.0404
  659MOL0     H88937   5.457   7.508   9.327 -0.0584  0.3469 -0.8590
  659MOL0     H88938   5.460   7.545   9.510  1.8106 -0.7674 -0.5749
  659MOL0     H88939   5.649   7.666   9.305  1.6292 -0.8622  1.0146
  659MOL0     H88940   5.648   7.682   9.483  1.4886  0.6077 -1.4745
  659MOL0     H88941   5.686   7.411   9.357  0.9100  0.1574 -0.6695
  659MOL0     H88942   5.716   7.449   9.517 -0.7648  0.6803  0.4275
  659MOL0     H88943   5.874   7.574   9.286 -0.2791 -1.1980 -0.1578
  659MOL0     H88944   5.891   7.605   9.459  0.5238  0.1064 -0.1106
  659MOL0     H88945   4.954   7.830   9.223 -0.0018 -1.7786 -1.2007
  659MOL0     H88946   4.715   7.785   9.189 -2.6320 -1.6841 -0.3848
  659MOL0     H88947   4.232   7.796   9.370 -0.4356 -0.5169  0.1304
  659MOL0     H88948   4.016   7.730   9.263 -1.1997 -1.5314  1.0392
  659MOL0     H88949   2.296   6.999   9.042 -0.3958 -2.2377  1.4644
  659MOL0     H88950   2.061   7.019   9.152 -2.7399  2.5118 -0.9019
  659MOL0     H88951   1.685   7.052   9.258 -0.3868  2.0201 -0.1942
  659MOL0     H88952   1.491   7.117   9.359  1.5834  1.9488 -0.8666
  659MOL0     H88953   1.078   7.217   9.270  1.3303  2.7072  0.5060
  659MOL0     H88954   1.104   7.101   9.142 -0.9103 -0.2941  0.5647
  659MOL0     H88955   1.118   7.258   8.984  0.6344  2.1527 -0.9024
  659MOL0     H88956   1.246   7.332   9.071  0.2670 -0.7048 -3.0379
  659MOL0     H88957   1.096   7.452   9.225  0.2074 -0.0421 -0.5093
  659MOL0     H88958   0.952   7.374   9.171  0.4833  0.8267  0.0887
  659MOL0     H88959   0.976   7.609   9.092  0.0095  0.4812  0.5575
  659MOL0     H88960   1.122   7.558   9.005 -0.3603  1.2495  3.1211
  659MOL0     H88961   0.814   7.487   8.724  0.6355  1.7240 -0.6862
  659MOL0     H88962   1.272   7.060   8.996 -0.6760 -2.0019  2.7246
  659MOL0     H88963   1.456   6.867   8.820 -2.3846  0.5803 -3.4153
  659MOL0     H88964   1.369   7.014   8.803 -0.7390 -1.6975 -0.2958
  659MOL0     H88965   1.542   7.020   8.779 -0.6919  1.0234 -0.1376
  660MOL0     O88966   0.544   3.029   1.259 -0.0693  0.3376  0.2247
  660MOL0     C88967   0.568   2.907   1.240 -0.9169  0.1944 -0.1182
  660MOL0     O88968   0.658   2.851   1.153 -0.2687  0.1079 -0.0367
  660MOL0     C88969   0.760   2.928   1.108 -0.6934 -0.3036  0.5124
  660MOL0     C88970   0.817   3.043   1.162 -0.4454  0.2597  0.0904
  660MOL0     C88971   0.916   3.121   1.097 -0.3158 -0.0182  0.0406
  660MOL0     C88972   0.964   3.079   0.973  0.1665  0.1989  0.3881
  660MOL0     O88973   1.055   3.162   0.912 -0.4021  0.1821 -0.4105
  660MOL0     C88974   1.026   3.188   0.772  0.2397 -1.0202  0.0703
  660MOL0     C88975   1.088   3.330   0.733  0.3216 -0.5592  0.7908
  660MOL0     C88976   1.237   3.346   0.765 -0.5229  0.3469 -0.2816
  660MOL0     C88977   1.310   3.458   0.686  0.6602  0.0784 -0.4008
  660MOL0     C88978   1.457   3.476   0.708 -0.1017  0.6891  0.4875
  660MOL0     C88979   1.542   3.361   0.641  0.2553  0.1721  0.7754
  660MOL0     C88980   1.695   3.370   0.678 -0.0466 -0.7599 -1.0637
  660MOL0     C88981   1.772   3.245   0.631  0.1333 -0.5941  1.2545
  660MOL0     N88982   1.913   3.259   0.661 -0.0701  0.2500 -0.6197
  660MOL0     C88983   1.972   3.323   0.773 -0.0430 -0.5489 -0.0306
  660MOL0     C88984   2.105   3.310   0.748 -0.2191  0.3041 -0.3385
  660MOL0     C88985   2.214   3.370   0.826  0.4819  0.0184 -0.3649
  660MOL0     C88986   2.308   3.453   0.745  0.1488  0.0796 -0.0721
  660MOL0     C88987   2.407   3.376   0.656  0.2066 -0.5813 -0.1946
  660MOL0     C88988   2.509   3.280   0.725 -0.2770 -0.1709  0.8298
  660MOL0     O88989   2.559   3.190   0.627  0.0512 -0.2333  0.4315
  660MOL0     C88990   2.659   3.105   0.672 -0.2731 -0.0501 -0.2277
  660MOL0     C88991   2.623   2.974   0.679  0.1293  0.2762 -0.2918
  660MOL0     C88992   2.717   2.882   0.726 -0.6459  0.7977 -0.3790
  660MOL0     C88993   2.852   2.914   0.766 -0.2096 -0.6927  0.7887
  660MOL0     C88994   2.945   2.808   0.801  0.1683 -0.1595  0.4634
  660MOL0     O88995   2.898   2.682   0.784  0.3837  0.2469  0.1572
  660MOL0     C88996   2.964   2.572   0.824  0.5600 -0.9609  0.7409
  660MOL0     C88997   2.990   2.554   0.962 -1.1379  0.5596  0.2276
  660MOL0     C88998   3.054   2.433   0.994  0.5403 -0.1084 -0.8276
  660MOL0     C88999   3.095   2.332   0.903 -0.0056  0.1186 -0.7078
  660MOL0     O89000   3.175   2.223   0.931 -0.7132  0.0215  0.1116
  660MOL0     C89001   3.283   2.257   1.023  0.6888 -0.4681  0.1431
  660MOL0     C89002   3.380   2.352   0.946  0.7247  0.1830 -0.4979
  660MOL0     C89003   3.501   2.377   1.027  0.0306  0.0021  0.7925
  660MOL0     C89004   3.477   2.426   1.162 -0.4599  0.2586 -0.1100
  660MOL0     C89005   3.610   2.464   1.228 -0.5063 -0.6739  0.2944
  660MOL0     C89006   3.690   2.346   1.259 -0.5758 -0.1075  0.3528
  660MOL0     C89007   3.828   2.379   1.326 -0.5294  0.1219  0.3537
  660MOL0     C89008   3.824   2.423   1.480 -0.6482 -0.4123 -0.6303
  660MOL0    Cl89009   3.985   2.481   1.520  0.0708 -0.4705 -0.1323
  660MOL0     C89010   3.066   2.357   0.769  1.0496  0.8575  0.1575
  660MOL0     C89011   2.997   2.473   0.730 -0.4292  0.1428  0.6936
  660MOL0     O89012   3.054   2.842   0.839  0.9015 -0.3433  0.3069
  660MOL0     C89013   2.881   3.048   0.759 -0.1934 -0.0997 -1.3840
  660MOL0     C89014   2.788   3.143   0.714  0.5582 -0.0387 -0.0221
  660MOL0     N89015   2.126   3.227   0.642 -0.3674 -0.4763  0.0506
  660MOL0     N89016   2.010   3.196   0.593 -0.0939  0.4330 -0.6374
  660MOL0     C89017   0.917   2.956   0.923 -0.1081 -0.4854  0.1146
  660MOL0     C89018   0.819   2.882   0.988 -0.5405  0.1687  0.2477
  660MOL0     C89019   0.471   2.822   1.310  0.0256 -0.8597 -0.2822
  660MOL0     C89020   0.383   2.746   1.229 -0.3944 -0.1188  0.4074
  660MOL0     C89021   0.278   2.669   1.285 -0.1599 -0.5240 -0.2026
  660MOL0     C89022   0.243   2.682   1.421  0.0719 -0.5967 -0.2096
  660MOL0     O89023   0.137   2.610   1.475 -0.0523 -0.8680  0.3089
  660MOL0     C89024   0.088   2.635   1.608  0.1479  0.0650  0.3964
  660MOL0     C89025  -0.063   2.592   1.617  0.7992  0.6417  0.5697
  660MOL0     C89026  -0.139   2.653   1.497 -0.2672  0.1210 -0.5777
  660MOL0     C89027  -0.113   2.796   1.469  0.3499 -0.7486  0.0080
  660MOL0     C89028  -0.143   2.880   1.582 -0.4440  0.0247 -0.1601
  660MOL0     C89029  -0.141   2.967   1.676 -0.1846  0.8005 -0.5812
  660MOL0     C89030   0.332   2.759   1.501 -0.6192 -0.3362 -0.6475
  660MOL0     C89031   0.443   2.827   1.450 -0.4235  0.2762 -0.5040
  660MOL0     C89032   0.523   2.911   1.542 -0.2839 -0.1311 -0.0700
  660MOL0     H89033   0.782   3.067   1.262  0.5638 -1.5889  0.9241
  660MOL0     H89034   0.942   3.220   1.134  0.4860  0.1530 -0.9662
  660MOL0     H89035   1.080   3.116   0.709  0.2439 -0.5473 -0.4790
  660MOL0     H89036   0.922   3.183   0.740  1.2597 -2.7996 -3.5108
  660MOL0     H89037   1.035   3.397   0.801  0.7476  1.9188 -1.1886
  660MOL0     H89038   1.051   3.367   0.637  1.4781  0.5901  0.7502
  660MOL0     H89039   1.290   3.252   0.746  1.5153  1.1617  1.0443
  660MOL0     H89040   1.254   3.358   0.872  0.0083  0.9295 -0.4249
  660MOL0     H89041   1.299   3.436   0.580 -0.5190  1.3184 -0.5638
  660MOL0     H89042   1.248   3.547   0.705 -2.3713 -2.0059  0.1452
  660MOL0     H89043   1.483   3.574   0.668  0.6707 -0.5299 -2.2846
  660MOL0     H89044   1.481   3.478   0.815  0.6477  1.7206  0.3147
  660MOL0     H89045   1.503   3.264   0.671 -1.1751  0.5069  0.0680
  660MOL0     H89046   1.525   3.365   0.533  1.3494  3.8275  0.5733
  660MOL0     H89047   1.719   3.378   0.784 -0.0903 -0.3210 -1.0860
  660MOL0     H89048   1.741   3.459   0.634  1.1853  0.4363  2.3329
  660MOL0     H89049   1.742   3.153   0.683  1.1910 -2.6494 -1.5265
  660MOL0     H89050   1.768   3.224   0.524 -0.5157  1.5285  0.8071
  660MOL0     H89051   1.927   3.388   0.848 -0.0341  1.0950 -1.3800
  660MOL0     H89052   2.168   3.433   0.903  2.7773  0.8467  0.4284
  660MOL0     H89053   2.261   3.296   0.892 -1.0036  0.0811  0.8215
  660MOL0     H89054   2.239   3.511   0.683  0.7721  0.5215 -0.3729
  660MOL0     H89055   2.374   3.506   0.816  0.1237  1.0903 -0.7766
  660MOL0     H89056   2.465   3.452   0.605 -2.0185  0.2950 -1.5622
  660MOL0     H89057   2.349   3.322   0.581 -2.8077 -1.1284  2.3364
  660MOL0     H89058   2.456   3.228   0.805  1.0993 -2.2810  0.4450
  660MOL0     H89059   2.588   3.344   0.765 -1.0069  1.9133 -0.8477
  660MOL0     H89060   2.526   2.937   0.647  1.2092 -2.1224 -1.0449
  660MOL0     H89061   2.686   2.778   0.729  0.2241  0.5524  0.7085
  660MOL0     H89062   2.984   2.633   1.036 -2.5218  1.2352 -0.5787
  660MOL0     H89063   3.083   2.417   1.097  0.4870 -0.3526 -0.8502
  660MOL0     H89064   3.246   2.308   1.112 -1.0517 -0.9159 -0.2843
  660MOL0     H89065   3.334   2.164   1.050  3.1559  0.2399 -1.6746
  660MOL0     H89066   3.406   2.293   0.858  1.2510  2.0089 -1.6275
  660MOL0     H89067   3.342   2.447   0.907 -2.6003 -0.2045  1.4721
  660MOL0     H89068   3.534   2.273   1.034  2.2584  0.6100  0.1921
  660MOL0     H89069   3.574   2.435   0.970  0.0363 -1.7827 -1.1475
  660MOL0     H89070   3.431   2.350   1.226 -0.1537  0.9292  0.9299
  660MOL0     H89071   3.410   2.512   1.169 -0.7480 -0.0318  0.9296
  660MOL0     H89072   3.597   2.518   1.322  1.7555 -2.1844  1.5733
  660MOL0     H89073   3.671   2.532   1.167 -2.4461  1.8328  0.9764
  660MOL0     H89074   3.636   2.275   1.321  2.2764 -3.4175 -0.6543
  660MOL0     H89075   3.717   2.288   1.171 -0.0451 -1.4783  1.3829
  660MOL0     H89076   3.874   2.460   1.269  0.6851 -1.6049 -1.2136
  660MOL0     H89077   3.892   2.292   1.308 -1.0605 -0.0724 -0.6581
  660MOL0     H89078   3.759   2.510   1.482 -1.3958 -0.9637 -0.5588
  660MOL0     H89079   3.795   2.337   1.541  2.1655 -2.3861 -1.8409
  660MOL0     H89080   3.089   2.289   0.689  0.8078 -0.6700  1.3466
  660MOL0     H89081   2.959   2.489   0.629 -0.7511  1.3472  0.9937
  660MOL0     H89082   2.982   3.081   0.781  0.4444 -3.2391  1.1413
  660MOL0     H89083   2.822   3.246   0.714  0.9109 -0.1097 -2.0644
  660MOL0     H89084   0.934   2.940   0.817  1.7214  3.7003 -0.4479
  660MOL0     H89085   0.785   2.794   0.935  2.3758 -0.4304 -0.7650
  660MOL0     H89086   0.389   2.743   1.120 -2.8306 -0.3892  0.2160
  660MOL0     H89087   0.211   2.607   1.227 -1.5849  1.5408 -0.8274
  660MOL0     H89088   0.089   2.740   1.638  0.7316  0.9921 -2.5874
  660MOL0     H89089   0.144   2.576   1.681 -1.0817 -0.2522  1.1183
  660MOL0     H89090  -0.112   2.631   1.707  0.7197  1.3383  0.2295
  660MOL0     H89091  -0.073   2.483   1.617  0.8817  0.6256 -0.3580
  660MOL0     H89092  -0.245   2.635   1.518  0.1805  0.9176  2.9529
  660MOL0     H89093  -0.117   2.599   1.404 -0.4062 -1.2955  0.1726
  660MOL0     H89094  -0.008   2.813   1.441  0.4815  2.4168  1.9546
  660MOL0     H89095  -0.176   2.825   1.384 -0.3651 -1.1628  0.3897
  660MOL0     H89096  -0.137   3.032   1.761 -1.2847  1.7120 -1.2011
  660MOL0     H89097   0.307   2.766   1.606 -2.9107 -0.6518 -1.1289
  660MOL0     H89098   0.464   2.999   1.566 -1.5101 -1.3558  1.6065
  660MOL0     H89099   0.547   2.847   1.627 -1.0282 -0.8855 -0.4157
  660MOL0     H89100   0.614   2.945   1.491 -1.2551  0.0264 -1.7617
  661MOL0     O89101   2.350   8.736   6.856 -0.4604  0.4794  0.0117
  661MOL0     C89102   2.347   8.858   6.881 -0.1363  0.0776  0.4798
  661MOL0     O89103   2.458   8.936   6.894 -0.0454  0.7228  0.3966
  661MOL0     C89104   2.577   8.866   6.913  0.3174 -0.5070 -0.5232
  661MOL0     C89105   2.641   8.812   6.804  1.0576 -0.5627 -0.2092
  661MOL0     C89106   2.764   8.741   6.819  0.3768 -0.4154 -1.0715
  661MOL0     C89107   2.817   8.731   6.948 -0.6670 -0.5977  1.2848
  661MOL0     O89108   2.932   8.668   6.963  0.0479  0.2610  0.7501
  661MOL0     C89109   3.053   8.680   6.882  0.1560  0.0000 -1.4966
  661MOL0     C89110   3.167   8.713   6.978 -1.0456  0.2744  0.0564
  661MOL0     C89111   3.307   8.718   6.909 -0.3040  0.0840  0.6832
  661MOL0     C89112   3.407   8.777   7.007 -0.3588  0.2102  0.8779
  661MOL0     C89113   3.544   8.791   6.939  0.3071  0.2104 -0.5354
  661MOL0     C89114   3.635   8.874   7.025  0.6261 -0.4770 -1.4363
  661MOL0     C89115   3.782   8.888   6.984 -0.2879 -0.3030  0.0625
  661MOL0     C89116   3.865   8.961   7.093  0.0620  0.2055  0.5303
  661MOL0     N89117   4.010   8.925   7.060 -0.0454 -0.6013  0.0708
  661MOL0     C89118   4.092   8.978   6.966  0.2928 -0.2616 -0.6191
  661MOL0     C89119   4.209   8.920   6.994  0.2004 -0.0347 -0.0117
  661MOL0     C89120   4.339   8.947   6.921  0.1425  0.2551  0.3899
  661MOL0     C89121   4.332   8.871   6.795 -0.5354  0.0719  1.0358
  661MOL0     C89122   4.334   8.723   6.806 -0.6039  0.0080  0.1223
  661MOL0     C89123   4.475   8.672   6.801 -0.5793  0.9756 -0.0227
  661MOL0     O89124   4.547   8.706   6.917  0.1041  1.0680 -0.1157
  661MOL0     C89125   4.683   8.700   6.907 -0.3159 -0.0746  0.6375
  661MOL0     C89126   4.755   8.584   6.934 -0.4165 -0.3038  0.3404
  661MOL0     C89127   4.897   8.584   6.943  0.4942 -0.7408  0.4247
  661MOL0     C89128   4.972   8.700   6.915 -0.4844  0.4085 -0.1369
  661MOL0     C89129   5.121   8.690   6.914  0.0673 -0.5904  0.3602
  661MOL0     O89130   5.179   8.578   6.969  0.2389 -0.4276 -0.2495
  661MOL0     C89131   5.317   8.568   6.994  0.6688  0.7360  0.4477
  661MOL0     C89132   5.359   8.438   7.021  0.6966  0.5696 -0.6096
  661MOL0     C89133   5.491   8.416   7.063  0.1998  0.1734  0.5561
  661MOL0     C89134   5.581   8.522   7.074  0.4190 -0.5183  0.0192
  661MOL0     O89135   5.713   8.478   7.106  0.5137  0.0249 -0.0030
  661MOL0     C89136   5.814   8.567   7.063  0.7774 -0.2516 -0.6715
  661MOL0     C89137   5.947   8.503   7.115  0.5452 -0.5890  0.0488
  661MOL0     C89138   6.007   8.402   7.016 -0.0518 -0.0795  0.6062
  661MOL0     C89139   6.073   8.460   6.894  0.4222 -0.4787  0.1210
  661MOL0     C89140   6.190   8.368   6.847 -0.4591  0.6566 -1.7142
  661MOL0     C89141   6.307   8.361   6.947 -0.1947  0.5572  1.1620
  661MOL0     C89142   6.418   8.284   6.875 -0.8275 -0.4281 -0.2245
  661MOL0     C89143   6.546   8.276   6.966  0.3097 -0.2980  0.3993
  661MOL0    Cl89144   6.662   8.162   6.903 -0.1139  0.1614  0.4771
  661MOL0     C89145   5.534   8.658   7.056  0.0743  0.4785  0.2215
  661MOL0     C89146   5.398   8.673   7.025 -0.1724  0.5827  1.1871
  661MOL0     O89147   5.187   8.784   6.867 -0.1397  0.3912 -0.0918
  661MOL0     C89148   4.896   8.820   6.898 -0.8953 -0.9091 -0.4017
  661MOL0     C89149   4.753   8.816   6.894 -0.5510 -0.2966 -0.4864
  661MOL0     N89150   4.189   8.830   7.106 -0.0219 -0.3236  0.5660
  661MOL0     N89151   4.075   8.844   7.146  0.5085  0.3569 -0.0723
  661MOL0     C89152   2.752   8.783   7.056  0.1601  0.5139 -0.3920
  661MOL0     C89153   2.631   8.854   7.039 -0.7282  0.3513 -0.5074
  661MOL0     C89154   2.215   8.919   6.881  0.1088  0.1033 -0.3885
  661MOL0     C89155   2.201   9.041   6.823 -0.1321 -0.3686  0.1512
  661MOL0     C89156   2.084   9.115   6.824 -0.1321 -0.0374  0.0982
  661MOL0     C89157   1.976   9.063   6.879  1.0930  0.2709 -0.1424
  661MOL0     O89158   1.856   9.140   6.867  0.0740 -0.0126  0.0049
  661MOL0     C89159   1.733   9.107   6.936 -0.0615 -0.5886  0.4741
  661MOL0     C89160   1.648   8.996   6.874 -0.1967  0.5098 -0.4816
  661MOL0     C89161   1.567   9.043   6.759  0.0992 -0.4610 -0.0177
  661MOL0     C89162   1.462   8.936   6.702  0.0591 -0.4988 -0.3599
  661MOL0     C89163   1.524   8.847   6.613  0.6611 -0.2763  0.5753
  661MOL0     C89164   1.580   8.774   6.537  0.0389  0.5508 -0.0166
  661MOL0     C89165   1.978   8.927   6.935 -0.5758  0.1856  0.3212
  661MOL0     C89166   2.100   8.860   6.941  0.4552 -0.1816  0.1228
  661MOL0     C89167   2.102   8.720   7.001 -1.4483 -0.1052 -0.3665
  661MOL0     H89168   2.607   8.820   6.701 -0.0129 -2.8733 -0.0980
  661MOL0     H89169   2.815   8.693   6.736  3.0359 -0.6126  0.5536
  661MOL0     H89170   3.080   8.589   6.827 -2.2598 -0.3435 -2.2348
  661MOL0     H89171   3.044   8.752   6.800  1.2112  1.0603 -0.7162
  661MOL0     H89172   3.165   8.651   7.068 -2.8436  1.1555  0.6823
  661MOL0     H89173   3.145   8.816   7.008 -0.6034  1.1562 -2.4022
  661MOL0     H89174   3.305   8.779   6.819  3.1780 -2.4694 -1.3851
  661MOL0     H89175   3.331   8.613   6.890  0.3135 -0.2606  3.0063
  661MOL0     H89176   3.371   8.874   7.043  1.3259  1.4341 -0.5451
  661MOL0     H89177   3.426   8.706   7.087 -0.9344  0.0030  0.8344
  661MOL0     H89178   3.587   8.692   6.918 -0.6750 -1.2766  3.4681
  661MOL0     H89179   3.535   8.839   6.842 -1.1023  1.2195  0.0618
  661MOL0     H89180   3.583   8.970   7.029 -1.8107 -1.7404 -1.0314
  661MOL0     H89181   3.642   8.832   7.126  0.0912 -0.7982 -1.5334
  661MOL0     H89182   3.782   8.931   6.884  0.0319  1.9068  0.9388
  661MOL0     H89183   3.822   8.787   6.978 -0.3450 -0.2219 -3.3144
  661MOL0     H89184   3.851   9.070   7.098 -1.0694  0.1698 -1.2084
  661MOL0     H89185   3.838   8.917   7.190  1.7763 -2.6883 -0.1976
  661MOL0     H89186   4.074   9.042   6.880 -1.6519  0.8139  0.5236
  661MOL0     H89187   4.336   9.055   6.904 -1.1546 -0.0378 -1.4849
  661MOL0     H89188   4.425   8.909   6.978  0.1398 -1.0360 -0.4395
  661MOL0     H89189   4.239   8.901   6.745  0.6520  3.0968  0.4203
  661MOL0     H89190   4.416   8.918   6.743 -1.5147  1.3897  0.5703
  661MOL0     H89191   4.283   8.685   6.717 -0.6809 -0.4054  0.3400
  661MOL0     H89192   4.277   8.681   6.889 -0.7960 -2.2045 -1.0703
  661MOL0     H89193   4.531   8.707   6.713  1.0678 -0.5554  0.3740
  661MOL0     H89194   4.463   8.564   6.788 -0.1752  0.6532  1.9835
  661MOL0     H89195   4.698   8.492   6.945 -0.3221 -0.3981  0.0595
  661MOL0     H89196   4.942   8.486   6.953 -4.2489 -3.3529 -0.7727
  661MOL0     H89197   5.288   8.357   7.016 -0.9186  2.0215 -2.5278
  661MOL0     H89198   5.531   8.317   7.085  0.1681 -1.0561 -3.8440
  661MOL0     H89199   5.816   8.572   6.954 -1.1938 -2.7927 -0.9432
  661MOL0     H89200   5.801   8.665   7.109 -1.3125 -0.3280 -1.0117
  661MOL0     H89201   6.021   8.578   7.145 -0.1120  0.4821 -0.8892
  661MOL0     H89202   5.917   8.443   7.201 -0.1858  1.9017  1.6403
  661MOL0     H89203   6.088   8.354   7.073 -3.0514 -0.3288  5.1680
  661MOL0     H89204   5.936   8.321   6.996 -0.3882  0.9367 -2.9543
  661MOL0     H89205   6.117   8.559   6.908  2.1165 -1.2666  0.5700
  661MOL0     H89206   5.992   8.466   6.820 -2.6481  0.1833  3.2334
  661MOL0     H89207   6.221   8.412   6.751 -1.4790  1.9985 -1.4644
  661MOL0     H89208   6.153   8.266   6.832 -0.2232  0.5714 -1.7087
  661MOL0     H89209   6.350   8.460   6.967  5.2000 -1.7213  2.7664
  661MOL0     H89210   6.282   8.307   7.039 -3.0240  2.9121  1.9189
  661MOL0     H89211   6.447   8.325   6.778  1.3282  0.2248  0.6464
  661MOL0     H89212   6.387   8.179   6.863 -0.9991 -0.5005  0.7294
  661MOL0     H89213   6.581   8.379   6.967 -2.5036  0.7801  2.7594
  661MOL0     H89214   6.528   8.244   7.069  3.5716 -2.0499  0.5517
  661MOL0     H89215   5.589   8.750   7.074  3.3779 -1.2487 -0.3357
  661MOL0     H89216   5.372   8.778   7.034 -0.4114  0.6453 -0.0353
  661MOL0     H89217   4.950   8.909   6.869 -0.6706  0.4398  3.6072
  661MOL0     H89218   4.700   8.910   6.882 -0.0450  0.0837  0.1792
  661MOL0     H89219   2.794   8.785   7.155 -0.5111  2.2628 -0.1187
  661MOL0     H89220   2.593   8.893   7.133  3.7074 -0.9493  2.1540
  661MOL0     H89221   2.284   9.071   6.761 -1.0285  0.0175 -0.8974
  661MOL0     H89222   2.070   9.209   6.772 -1.1725 -1.0467 -1.5653
  661MOL0     H89223   1.675   9.200   6.934  1.9072  0.6984 -1.5336
  661MOL0     H89224   1.755   9.074   7.038  0.7316 -2.5390 -0.2779
  661MOL0     H89225   1.569   8.965   6.943  0.2571 -2.2594 -1.0659
  661MOL0     H89226   1.709   8.907   6.856  1.1076  0.9889  1.3378
  661MOL0     H89227   1.643   9.077   6.688  2.4036  0.6741  2.7964
  661MOL0     H89228   1.504   9.128   6.788  0.7853 -0.5568  1.8779
  661MOL0     H89229   1.414   8.880   6.783 -1.2103  0.7260 -0.2299
  661MOL0     H89230   1.377   8.985   6.653 -1.3682  1.1720  3.3846
  661MOL0     H89231   1.629   8.703   6.473 -1.8368 -1.0040  0.1854
  661MOL0     H89232   1.889   8.873   6.964 -0.4668 -0.6035 -0.7681
  661MOL0     H89233   2.026   8.693   7.075 -1.3588  2.6309  0.8769
  661MOL0     H89234   2.094   8.654   6.914  2.1269 -1.5441  0.2013
  661MOL0     H89235   2.197   8.700   7.051 -1.1302 -0.0011 -0.9241
  662MOL0     O89236   7.198   7.956   9.122 -0.2832  0.1741 -0.6458
  662MOL0     C89237   7.095   8.001   9.176 -0.7158  0.0979  0.5129
  662MOL0     O89238   7.095   8.117   9.241  0.6353  0.5074 -0.1433
  662MOL0     C89239   7.206   8.205   9.243 -0.3646 -0.0827  0.0384
  662MOL0     C89240   7.312   8.179   9.321  0.2306 -0.4162  0.0976
  662MOL0     C89241   7.422   8.260   9.323  0.1992 -0.3095  0.3491
  662MOL0     C89242   7.430   8.374   9.247  0.0668 -0.7347 -0.1697
  662MOL0     O89243   7.528   8.471   9.244  0.1977  0.1901  0.6247
  662MOL0     C89244   7.641   8.457   9.325  0.0287  0.5995 -0.6048
  662MOL0     C89245   7.744   8.563   9.289 -0.0501  0.2484  0.1427
  662MOL0     C89246   7.880   8.539   9.359  0.5890 -0.4697  0.9337
  662MOL0     C89247   7.989   8.645   9.330 -0.2852 -0.4173  0.2619
  662MOL0     C89248   8.113   8.618   9.425  0.4270  0.2662 -0.1096
  662MOL0     C89249   8.220   8.713   9.389  0.1599 -0.6987 -0.9144
  662MOL0     C89250   8.321   8.713   9.506  0.2517 -0.0573 -0.7811
  662MOL0     C89251   8.435   8.813   9.475  0.7433  0.1004 -0.1359
  662MOL0     N89252   8.544   8.816   9.574  0.7098 -0.2015  0.2645
  662MOL0     C89253   8.663   8.761   9.562  0.3381  0.5251  0.1237
  662MOL0     C89254   8.720   8.774   9.678 -0.7121 -0.7650  0.1908
  662MOL0     C89255   8.860   8.734   9.706 -0.6260  0.4343 -0.0819
  662MOL0     C89256   8.963   8.836   9.673 -0.4613 -0.6646 -0.4400
  662MOL0     C89257   9.006   8.851   9.528 -0.4296 -0.4273  0.6873
  662MOL0     C89258   9.081   8.730   9.471  0.1452 -0.3047  0.3404
  662MOL0     O89259   9.198   8.707   9.547 -0.4390  0.0695  0.6705
  662MOL0     C89260   9.278   8.608   9.505 -0.4697 -0.3775  0.3651
  662MOL0     C89261   9.410   8.617   9.536 -0.0692  0.6095 -0.9938
  662MOL0     C89262   9.503   8.521   9.500 -0.7633 -0.0085 -0.3927
  662MOL0     C89263   9.461   8.410   9.425  0.1849  0.1255 -0.2829
  662MOL0     C89264   9.565   8.312   9.391  0.4037 -0.9094  0.1129
  662MOL0     O89265   9.704   8.339   9.402  0.1483  0.4787 -0.5663
  662MOL0     C89266   9.780   8.255   9.335 -0.5013  0.1273  0.1112
  662MOL0     C89267   9.870   8.167   9.398  0.4306 -0.5736  0.2394
  662MOL0     C89268   9.951   8.073   9.334  1.1248 -0.1292  0.4595
  662MOL0     C89269   9.947   8.077   9.188 -0.3213  0.4312 -0.7409
  662MOL0     O89270  10.022   7.991   9.114 -0.0433 -0.2903  0.4688
  662MOL0     C89271  10.092   7.884   9.173  0.1952  0.1039  0.6660
  662MOL0     C89272  10.132   7.786   9.067  0.4179  0.4328 -0.4247
  662MOL0     C89273  10.159   7.645   9.127 -0.1693 -0.1395 -0.4134
  662MOL0     C89274  10.215   7.547   9.022 -0.5939  0.2797 -1.2655
  662MOL0     C89275  10.313   7.443   9.086  0.5217 -0.1435  0.1974
  662MOL0     C89276  10.393   7.363   8.981  0.6393  0.7586 -0.2139
  662MOL0     C89277  10.481   7.267   9.049  1.0577  0.4888 -0.3011
  662MOL0     C89278  10.544   7.162   8.952 -0.3212 -0.1028  0.0065
  662MOL0    Cl89279  10.669   7.077   9.029  0.2106 -0.2541 -0.1453
  662MOL0     C89280   9.868   8.169   9.122  0.2291 -0.7242 -1.0033
  662MOL0     C89281   9.783   8.256   9.196  0.5919  0.3429  0.6213
  662MOL0     O89282   9.515   8.214   9.337  0.3530  0.7627 -0.3347
  662MOL0     C89283   9.324   8.396   9.389  0.1795  0.4787 -0.0351
  662MOL0     C89284   9.240   8.505   9.420  0.1197 -0.1629  0.4633
  662MOL0     N89285   8.644   8.850   9.763 -0.5016 -0.0713 -0.5010
  662MOL0     N89286   8.538   8.877   9.698  0.7796  1.0026  0.6566
  662MOL0     C89287   7.322   8.399   9.159  0.4527 -0.4909 -0.2925
  662MOL0     C89288   7.212   8.308   9.150  0.6089 -1.0548  0.3062
  662MOL0     C89289   6.976   7.914   9.179 -1.0685  0.0588 -0.8157
  662MOL0     C89290   6.860   7.979   9.215  0.2848 -0.4763  0.4481
  662MOL0     C89291   6.747   7.909   9.239 -0.6941 -0.0966 -0.8449
  662MOL0     C89292   6.733   7.774   9.217  0.0518 -0.6651 -0.1455
  662MOL0     O89293   6.603   7.726   9.237 -0.5146 -0.0581 -0.1059
  662MOL0     C89294   6.553   7.609   9.165 -0.3544  0.5417 -0.5041
  662MOL0     C89295   6.519   7.655   9.029  0.6302  0.2260  0.7736
  662MOL0     C89296   6.391   7.741   9.014 -0.1225 -0.6292 -1.0656
  662MOL0     C89297   6.332   7.742   8.872  0.3635  0.5052 -0.7258
  662MOL0     C89298   6.198   7.807   8.868  0.8931 -0.4396  0.1626
  662MOL0     C89299   6.080   7.852   8.874 -0.3979 -0.6636 -0.2249
  662MOL0     C89300   6.845   7.708   9.166  0.3411 -0.8978 -0.2837
  662MOL0     C89301   6.974   7.776   9.156  0.1974  0.1668  0.3718
  662MOL0     C89302   7.082   7.709   9.085 -0.2821  0.3002  0.4839
  662MOL0     H89303   7.297   8.087   9.378 -1.4679 -0.4617 -0.3663
  662MOL0     H89304   7.501   8.233   9.393  1.1550 -0.5293 -0.7822
  662MOL0     H89305   7.619   8.472   9.431  0.1896  2.1529 -0.7760
  662MOL0     H89306   7.682   8.356   9.319  0.0450  0.4967  0.8622
  662MOL0     H89307   7.729   8.665   9.326  3.6239  1.3226 -0.8326
  662MOL0     H89308   7.749   8.561   9.179 -0.1404 -0.5558  0.1506
  662MOL0     H89309   7.915   8.442   9.325 -1.9626 -1.7935  1.7948
  662MOL0     H89310   7.865   8.525   9.466  2.3534 -0.7737  1.1710
  662MOL0     H89311   8.013   8.656   9.224 -0.8507 -2.5167 -0.1284
  662MOL0     H89312   7.950   8.742   9.360 -1.3057 -1.1103  1.2450
  662MOL0     H89313   8.075   8.653   9.521 -1.6107  2.9368 -1.7247
  662MOL0     H89314   8.155   8.517   9.424  1.5630  0.5928  3.2687
  662MOL0     H89315   8.260   8.676   9.295 -0.9597 -0.7841 -1.3639
  662MOL0     H89316   8.182   8.815   9.380  3.7533  1.0412  1.3677
  662MOL0     H89317   8.371   8.619   9.531  0.5383  0.5932  1.2333
  662MOL0     H89318   8.271   8.743   9.598  1.6424 -1.5507  0.5325
  662MOL0     H89319   8.479   8.785   9.379 -0.1378 -0.4713 -0.3806
  662MOL0     H89320   8.401   8.917   9.474 -2.6773 -0.8780  0.9024
  662MOL0     H89321   8.711   8.710   9.479 -0.8392  2.3720 -1.7717
  662MOL0     H89322   8.863   8.735   9.815 -0.5775  2.4759 -0.0618
  662MOL0     H89323   8.885   8.632   9.674 -1.2775 -0.1660  1.2526
  662MOL0     H89324   8.925   8.935   9.698  0.0196 -0.6964  0.4588
  662MOL0     H89325   9.054   8.815   9.729 -1.0079 -0.4962  0.5290
  662MOL0     H89326   9.077   8.934   9.527  2.9290 -3.0358  0.0924
  662MOL0     H89327   8.924   8.864   9.457 -1.5803  0.5629  2.1455
  662MOL0     H89328   9.114   8.741   9.367  3.5932 -0.9619  1.2096
  662MOL0     H89329   9.009   8.648   9.465 -2.3808  1.8925 -3.4988
  662MOL0     H89330   9.440   8.701   9.597  2.2507 -1.0624  0.3444
  662MOL0     H89331   9.610   8.528   9.522 -0.7926  1.6758 -0.5866
  662MOL0     H89332   9.888   8.190   9.502 -0.6402  3.1266 -0.2273
  662MOL0     H89333  10.010   8.004   9.393  1.1370 -1.8264 -1.4200
  662MOL0     H89334  10.180   7.922   9.227 -0.1051  2.9640 -0.6880
  662MOL0     H89335  10.020   7.833   9.238 -0.5777  0.9236  0.4706
  662MOL0     H89336  10.058   7.779   8.986  1.2644 -0.4782 -1.1472
  662MOL0     H89337  10.222   7.824   9.016 -0.0562 -0.9764 -2.4496
  662MOL0     H89338  10.229   7.648   9.211  0.3826 -2.5700 -0.7009
  662MOL0     H89339  10.066   7.599   9.161  0.8338 -1.4947  0.6136
  662MOL0     H89340  10.267   7.602   8.943 -1.1900  0.4649 -1.5327
  662MOL0     H89341  10.143   7.481   8.973  0.9554 -1.2734 -1.5437
  662MOL0     H89342  10.253   7.369   9.140  0.9706 -1.0519 -0.5066
  662MOL0     H89343  10.388   7.479   9.157  1.3146 -0.7987 -0.2810
  662MOL0     H89344  10.335   7.317   8.900  0.5384  1.1406 -0.3618
  662MOL0     H89345  10.458   7.434   8.928  0.5836  2.8359  2.3073
  662MOL0     H89346  10.429   7.210   9.127  2.0051 -1.6427 -1.1524
  662MOL0     H89347  10.556   7.329   9.100 -0.7307  1.5925  1.1055
  662MOL0     H89348  10.472   7.088   8.918  0.5922 -1.5054  1.0288
  662MOL0     H89349  10.582   7.205   8.858  0.1642 -1.8249 -0.6328
  662MOL0     H89350   9.892   8.187   9.018  1.4208  2.5300 -0.3015
  662MOL0     H89351   9.723   8.330   9.143 -1.2821  0.1245  2.3178
  662MOL0     H89352   9.280   8.314   9.333 -1.6463  0.9912  0.5695
  662MOL0     H89353   9.138   8.496   9.382 -0.0882  1.9220  0.4246
  662MOL0     H89354   7.312   8.487   9.096 -0.9953  0.0265  0.6115
  662MOL0     H89355   7.130   8.313   9.079  0.4011  1.0303  0.6440
  662MOL0     H89356   6.853   8.081   9.251 -2.1198 -0.4000 -0.0820
  662MOL0     H89357   6.662   7.962   9.281 -0.3790  0.3773 -0.7926
  662MOL0     H89358   6.467   7.570   9.220 -0.6685 -0.1550 -1.4539
  662MOL0     H89359   6.630   7.530   9.160  0.7905  1.5406  0.5992
  662MOL0     H89360   6.510   7.566   8.967  4.1012 -0.1178  0.5693
  662MOL0     H89361   6.600   7.714   8.987 -0.0866 -0.1802 -1.3185
  662MOL0     H89362   6.413   7.841   9.052  1.3811 -0.5150 -2.1073
  662MOL0     H89363   6.326   7.700   9.091 -1.5736  3.2178 -0.0374
  662MOL0     H89364   6.405   7.782   8.801  2.2647 -2.5841 -0.7033
  662MOL0     H89365   6.323   7.638   8.838 -1.9856  0.5802 -0.4917
  662MOL0     H89366   5.976   7.875   8.887 -0.5844 -1.1428 -0.8191
  662MOL0     H89367   6.846   7.602   9.141 -1.2999 -1.0454  0.1394
  662MOL0     H89368   7.063   7.605   9.059  0.7379  0.0480  0.7037
  662MOL0     H89369   7.104   7.764   8.992  0.5698 -0.1931  0.3823
  662MOL0     H89370   7.175   7.706   9.142 -1.2176 -0.9922  2.0159
  663MOL0     O89371   5.489   9.429   0.005 -0.3898 -1.3466  0.5232
  663MOL0     C89372   5.413   9.519  -0.043 -0.2359 -0.5291 -0.2518
  663MOL0     O89373   5.437   9.652  -0.037  0.7455  0.1194 -0.2829
  663MOL0     C89374   5.547   9.696   0.032 -0.4409 -0.7656  0.5163
  663MOL0     C89375   5.667   9.668  -0.030 -1.0099 -0.2918 -0.1006
  663MOL0     C89376   5.787   9.737   0.010  0.0367 -0.0253  0.2895
  663MOL0     C89377   5.785   9.834   0.110  0.5033 -1.0626  0.2813
  663MOL0     O89378   5.900   9.911   0.139 -0.0477  0.5272 -0.2366
  663MOL0     C89379   6.029   9.889   0.070  0.3477 -0.4082  0.0953
  663MOL0     C89380   6.117   9.785   0.152  1.0134  0.7898 -0.5700
  663MOL0     C89381   6.265   9.797   0.122 -0.2560 -0.1273 -0.0470
  663MOL0     C89382   6.289   9.713  -0.005  0.0499 -0.7639 -0.2354
  663MOL0     C89383   6.409   9.774  -0.069 -0.4680 -0.3817  0.6518
  663MOL0     C89384   6.453   9.705  -0.202 -0.7378  0.3417 -0.0345
  663MOL0     C89385   6.571   9.782  -0.269 -0.2135  0.1902 -0.0557
  663MOL0     C89386   6.596   9.725  -0.409 -0.0205  0.2612 -0.6674
  663MOL0     N89387   6.717   9.772  -0.472  0.0998 -0.2398 -0.0612
  663MOL0     C89388   6.738   9.901  -0.506 -0.3880  0.1960 -0.1020
  663MOL0     C89389   6.855   9.894  -0.579 -0.1549  0.2147  0.0922
  663MOL0     C89390   6.917  10.011  -0.645  0.0736  0.9652 -0.3667
  663MOL0     C89391   7.042  10.053  -0.569  0.9469  0.3974 -0.2345
  663MOL0     C89392   7.072  10.185  -0.624 -0.5196 -0.1723 -0.3842
  663MOL0     C89393   7.212  10.222  -0.577  0.7908  0.2572 -0.3127
  663MOL0     O89394   7.236  10.350  -0.645 -0.0947  0.5254  0.7381
  663MOL0     C89395   7.359  10.401  -0.618  0.6977 -0.0893  0.6032
  663MOL0     C89396   7.395  10.520  -0.690  0.0286  0.0411 -0.2650
  663MOL0     C89397   7.521  10.577  -0.661 -0.7652  0.4919  0.8094
  663MOL0     C89398   7.619  10.516  -0.580 -0.4610  0.3471  1.1791
  663MOL0     C89399   7.753  10.582  -0.558 -0.0842 -0.4036 -0.5465
  663MOL0     O89400   7.794  10.667  -0.658  1.1775  0.3380  0.2431
  663MOL0     C89401   7.896  10.750  -0.633 -0.6761 -0.0424 -1.2811
  663MOL0     C89402   8.007  10.747  -0.715 -0.6086  0.4538 -0.7901
  663MOL0     C89403   8.105  10.847  -0.707  0.2556  0.5267  0.2182
  663MOL0     C89404   8.072  10.957  -0.627 -0.3806 -0.4374  0.8844
  663MOL0     O89405   8.174  11.053  -0.619 -0.0462  0.2779  0.3526
  663MOL0     C89406   8.187  11.111  -0.491 -0.1490 -0.1464 -0.1276
  663MOL0     C89407   8.256  11.249  -0.496 -0.2774  0.6400 -0.1724
  663MOL0     C89408   8.390  11.239  -0.554  0.0889 -0.7212 -0.0466
  663MOL0     C89409   8.498  11.217  -0.447  1.0216 -0.0988 -0.4299
  663MOL0     C89410   8.630  11.218  -0.506  0.0157  0.0958 -0.3084
  663MOL0     C89411   8.747  11.196  -0.400  0.2310  0.2783 -0.3730
  663MOL0     C89412   8.879  11.206  -0.473  1.4636 -0.4857  0.6503
  663MOL0     C89413   8.987  11.245  -0.368 -0.4015 -0.9521  0.2413
  663MOL0    Cl89414   9.104  11.355  -0.440  0.1731 -0.2528  0.0743
  663MOL0     C89415   7.960  10.965  -0.546 -0.4617  0.1748  0.5299
  663MOL0     C89416   7.872  10.856  -0.546  0.1527 -0.1532 -0.7824
  663MOL0     O89417   7.819  10.566  -0.451  1.0752  1.1379 -0.6737
  663MOL0     C89418   7.585  10.394  -0.521 -0.9748  0.2680 -0.1833
  663MOL0     C89419   7.454  10.353  -0.524  0.6382 -0.8993  0.2150
  663MOL0     N89420   6.898   9.758  -0.590  0.2262 -0.1607 -0.2322
  663MOL0     N89421   6.801   9.691  -0.531 -0.0070  0.8566  0.2577
  663MOL0     C89422   5.660   9.858   0.179 -0.1717  0.6916  0.2905
  663MOL0     C89423   5.546   9.791   0.135 -0.6071  0.3164  0.3073
  663MOL0     C89424   5.283   9.493  -0.090 -0.2412  0.9729  0.4346
  663MOL0     C89425   5.221   9.561  -0.208  0.1612  0.8584  0.6912
  663MOL0     C89426   5.097   9.523  -0.259 -0.3072 -0.1261  0.6345
  663MOL0     C89427   5.017   9.426  -0.202 -0.6164  1.0920  0.2492
  663MOL0     O89428   4.891   9.392  -0.246  0.0177  0.3944  0.0125
  663MOL0     C89429   4.870   9.262  -0.282  0.4856  0.1365  0.7047
  663MOL0     C89430   4.938   9.216  -0.408 -0.2767  0.5490  0.1819
  663MOL0     C89431   4.870   9.086  -0.465  0.1767  0.9521  0.2600
  663MOL0     C89432   4.921   9.074  -0.605 -0.4025 -0.0562  0.5914
  663MOL0     C89433   5.062   9.032  -0.623 -0.7307 -0.1016  0.1532
  663MOL0     C89434   5.186   9.014  -0.624 -0.2684  0.1713  0.4957
  663MOL0     C89435   5.073   9.365  -0.091 -0.3174  0.6049 -0.0089
  663MOL0     C89436   5.200   9.394  -0.031 -1.2506  0.0333  0.5368
  663MOL0     C89437   5.237   9.325   0.098  0.1408 -0.5035  0.1237
  663MOL0     H89438   5.648   9.608  -0.118 -0.4731  0.0976 -0.4891
  663MOL0     H89439   5.881   9.716  -0.039 -0.8918 -0.5537 -1.3343
  663MOL0     H89440   6.015   9.863  -0.035  4.4929 -2.4452 -0.1539
  663MOL0     H89441   6.079   9.986   0.069 -0.0655 -0.1750 -2.1739
  663MOL0     H89442   6.076   9.685   0.139 -2.5726  1.9550  0.3194
  663MOL0     H89443   6.100   9.809   0.258 -0.0856 -1.1969 -0.2468
  663MOL0     H89444   6.324   9.747   0.198 -1.4115 -2.0055 -0.3020
  663MOL0     H89445   6.288   9.903   0.119  3.5168 -0.8009  0.8469
  663MOL0     H89446   6.291   9.605   0.011 -1.0245 -0.7523  0.0550
  663MOL0     H89447   6.210   9.723  -0.079  0.7306 -1.5221 -1.0869
  663MOL0     H89448   6.396   9.880  -0.094  0.7647  0.0220  1.5996
  663MOL0     H89449   6.491   9.759   0.002 -0.6486  1.3091  1.2632
  663MOL0     H89450   6.486   9.601  -0.196  0.5052  0.7703  0.9133
  663MOL0     H89451   6.365   9.712  -0.266 -0.0532  2.5037 -0.8181
  663MOL0     H89452   6.651   9.782  -0.195 -1.5669  3.8136  1.6894
  663MOL0     H89453   6.541   9.887  -0.284  0.6638  0.2096 -1.9715
  663MOL0     H89454   6.602   9.617  -0.398 -1.0414  0.2744  0.2053
  663MOL0     H89455   6.509   9.754  -0.468 -0.4862 -1.4223 -0.8503
  663MOL0     H89456   6.673   9.986  -0.487 -3.1096 -1.7908 -0.0068
  663MOL0     H89457   6.937   9.983  -0.749 -0.1200  3.1305 -1.0383
  663MOL0     H89458   6.850  10.098  -0.650  0.3382  1.1595 -0.5959
  663MOL0     H89459   7.011  10.068  -0.466 -1.4694  3.1813 -1.2394
  663MOL0     H89460   7.128   9.986  -0.582  1.8366  1.6956 -1.3270
  663MOL0     H89461   7.004  10.261  -0.584 -0.8123 -0.9099  0.5490
  663MOL0     H89462   7.070  10.193  -0.733 -2.6982  1.6724 -0.2912
  663MOL0     H89463   7.281  10.150  -0.623  1.3500  1.1858 -0.9556
  663MOL0     H89464   7.215  10.225  -0.467 -0.8378  0.3695 -0.2534
  663MOL0     H89465   7.332  10.569  -0.763  1.4956  1.6843 -0.4936
  663MOL0     H89466   7.551  10.672  -0.704 -1.5455  0.3689 -0.0218
  663MOL0     H89467   8.023  10.655  -0.771 -2.9786 -1.8319  1.9736
  663MOL0     H89468   8.198  10.845  -0.763  0.2663 -0.5169  0.2514
  663MOL0     H89469   8.091  11.134  -0.443 -1.0940 -3.4767 -0.1952
  663MOL0     H89470   8.238  11.046  -0.419 -0.4713  0.6911  0.8825
  663MOL0     H89471   8.192  11.310  -0.561  0.1019 -0.9852 -2.1490
  663MOL0     H89472   8.254  11.297  -0.397 -0.2967 -0.4347  0.3605
  663MOL0     H89473   8.390  11.173  -0.641  0.4653  0.1450 -0.7199
  663MOL0     H89474   8.412  11.334  -0.603 -1.4278 -0.8400 -1.0048
  663MOL0     H89475   8.480  11.117  -0.405  0.2290  0.0438 -0.4124
  663MOL0     H89476   8.491  11.288  -0.364 -0.9865 -0.1322 -0.5133
  663MOL0     H89477   8.641  11.312  -0.562 -2.1545  1.0865  0.8204
  663MOL0     H89478   8.634  11.137  -0.580  0.2418  0.9685 -1.2804
  663MOL0     H89479   8.737  11.276  -0.326  0.1529  1.1105 -1.2684
  663MOL0     H89480   8.730  11.101  -0.349  1.7312  0.9475  1.4754
  663MOL0     H89481   8.865  11.288  -0.544  0.9070 -1.3315 -0.2440
  663MOL0     H89482   8.914  11.120  -0.531 -0.1388 -1.0494  0.4761
  663MOL0     H89483   8.944  11.279  -0.273  0.5331 -2.0978  1.1216
  663MOL0     H89484   9.038  11.157  -0.326  2.1088  0.8773  1.3111
  663MOL0     H89485   7.921  11.050  -0.492  2.6604  1.2151  1.3299
  663MOL0     H89486   7.776  10.867  -0.495  0.2788  4.6669 -1.1096
  663MOL0     H89487   7.668  10.345  -0.469 -0.3099  1.1854 -0.3648
  663MOL0     H89488   7.439  10.262  -0.466 -1.3325  0.1533  1.4834
  663MOL0     H89489   5.651   9.936   0.254 -0.8081  1.0780 -0.1772
  663MOL0     H89490   5.452   9.815   0.184  0.6572  0.7857  2.6517
  663MOL0     H89491   5.283   9.640  -0.250  2.1365 -1.7237 -1.7300
  663MOL0     H89492   5.043   9.573  -0.339  1.2610  1.3371  0.4191
  663MOL0     H89493   4.764   9.260  -0.305  0.5997  1.5522 -0.0511
  663MOL0     H89494   4.889   9.192  -0.200 -1.2248  0.1941  1.1929
  663MOL0     H89495   5.042   9.194  -0.382 -0.7538 -3.0635 -0.4656
  663MOL0     H89496   4.939   9.296  -0.483  1.5279 -0.3717 -0.8446
  663MOL0     H89497   4.761   9.096  -0.460  0.2260  1.7947 -0.2418
  663MOL0     H89498   4.894   9.000  -0.402  0.7156  0.4229 -0.6564
  663MOL0     H89499   4.845   9.010  -0.650 -0.2981 -0.8138  1.4704
  663MOL0     H89500   4.901   9.166  -0.661 -2.2884 -1.0752 -0.4970
  663MOL0     H89501   5.291   9.002  -0.643 -1.0281 -2.0582 -3.3108
  663MOL0     H89502   5.011   9.290  -0.043 -1.1209  0.9746 -0.4612
  663MOL0     H89503   5.290   9.396   0.162 -2.0220  1.1022  0.2184
  663MOL0     H89504   5.161   9.269   0.153 -0.7659 -2.7320 -3.0787
  663MOL0     H89505   5.302   9.240   0.072 -1.8359 -1.2326 -2.9034
  664MOL0     O89506   7.865   7.730   5.948 -0.1825 -0.3584 -0.7715
  664MOL0     C89507   7.852   7.610   5.960  0.9132  0.4593  0.3139
  664MOL0     O89508   7.946   7.525   6.007  0.3881 -0.1551  0.3863
  664MOL0     C89509   8.064   7.578   6.055  0.5696 -1.0766  0.7814
  664MOL0     C89510   8.077   7.631   6.186  0.3107 -0.2098  1.1045
  664MOL0     C89511   8.200   7.676   6.232 -0.2739  0.7934  0.2878
  664MOL0     C89512   8.313   7.678   6.155  0.8883  0.1331  0.3495
  664MOL0     O89513   8.432   7.698   6.220 -0.6711 -0.4021  0.4694
  664MOL0     C89514   8.553   7.655   6.168  0.2420  0.8163 -0.3768
  664MOL0     C89515   8.665   7.664   6.276  0.5241  0.2811  0.0943
  664MOL0     C89516   8.798   7.636   6.213  0.6660 -0.4287 -0.2856
  664MOL0     C89517   8.915   7.642   6.307 -0.8942 -0.5069  0.1045
  664MOL0     C89518   9.054   7.648   6.236 -0.0804  0.2683  0.1871
  664MOL0     C89519   9.157   7.685   6.344 -0.3390  0.1695 -0.5702
  664MOL0     C89520   9.295   7.704   6.287 -0.1110 -0.0767  0.1048
  664MOL0     C89521   9.406   7.664   6.387  0.2333  0.8925 -0.6344
  664MOL0     N89522   9.415   7.515   6.396  0.4071  0.6631  0.8533
  664MOL0     C89523   9.433   7.447   6.509 -0.1507  0.1509 -0.1013
  664MOL0     C89524   9.414   7.318   6.463 -0.2566 -0.3198 -0.3325
  664MOL0     C89525   9.418   7.207   6.556 -0.6768 -0.3213 -0.0069
  664MOL0     C89526   9.339   7.081   6.508 -0.2928  0.3415  0.9478
  664MOL0     C89527   9.376   6.973   6.621  0.3318 -0.1890  0.4586
  664MOL0     C89528   9.309   6.838   6.590  0.0192  0.5013  0.2368
  664MOL0     O89529   9.184   6.846   6.520  0.4811  0.0844 -0.1165
  664MOL0     C89530   9.152   6.727   6.467  0.3037  0.6943  0.0591
  664MOL0     C89531   9.094   6.613   6.534  0.3653 -0.1430  0.7302
  664MOL0     C89532   9.094   6.497   6.456 -0.2985 -0.0192  0.9345
  664MOL0     C89533   9.112   6.498   6.322 -0.2070 -0.0002 -0.2375
  664MOL0     C89534   9.094   6.375   6.246  0.3871  0.5928 -0.2598
  664MOL0     O89535   9.135   6.370   6.113  0.0342 -0.2810 -0.1480
  664MOL0     C89536   9.117   6.247   6.044 -0.0666 -0.3587 -0.4258
  664MOL0     C89537   9.221   6.154   6.028 -0.7736 -0.0757 -0.3998
  664MOL0     C89538   9.213   6.038   5.943  0.4241 -0.8192 -0.4098
  664MOL0     C89539   9.100   6.020   5.859  0.3128 -0.0628 -0.4995
  664MOL0     O89540   9.074   5.922   5.768 -0.4520  0.2273 -0.2247
  664MOL0     C89541   9.193   5.883   5.703 -0.0505 -0.2011  0.3484
  664MOL0     C89542   9.165   5.771   5.602 -0.1832 -0.3594  0.6764
  664MOL0     C89543   9.275   5.700   5.529 -0.8973 -0.3724  0.4449
  664MOL0     C89544   9.224   5.581   5.456 -0.2565 -0.2992 -0.1253
  664MOL0     C89545   9.306   5.522   5.338  0.2948 -0.4557  0.3715
  664MOL0     C89546   9.324   5.618   5.214  1.0891 -0.8864 -0.0400
  664MOL0     C89547   9.394   5.565   5.085 -0.6595 -0.0968  0.4607
  664MOL0     C89548   9.335   5.431   5.031 -1.0638  0.2788  0.0449
  664MOL0    Cl89549   9.427   5.386   4.888 -0.2367 -0.0696 -0.5468
  664MOL0     C89550   8.986   6.100   5.901 -0.0071  0.3596  0.4267
  664MOL0     C89551   8.997   6.215   5.986  0.1557 -0.0668 -0.2346
  664MOL0     O89552   9.042   6.277   6.304 -0.7301 -0.3907 -0.3826
  664MOL0     C89553   9.141   6.617   6.253 -1.2746  0.4789 -0.2739
  664MOL0     C89554   9.169   6.731   6.327  0.0510  0.0942  0.3878
  664MOL0     N89555   9.383   7.315   6.329 -0.1943 -0.2239  0.4416
  664MOL0     N89556   9.388   7.432   6.289 -0.7048  0.2616 -0.1120
  664MOL0     C89557   8.300   7.641   6.022  0.0537 -0.0823 -0.0722
  664MOL0     C89558   8.179   7.593   5.973  0.3850  0.2965 -1.5077
  664MOL0     C89559   7.723   7.543   5.912  0.2085  0.6744  0.6372
  664MOL0     C89560   7.732   7.415   5.862  0.3569 -0.3834 -0.2291
  664MOL0     C89561   7.617   7.358   5.795 -0.2706  0.8709 -0.0194
  664MOL0     C89562   7.500   7.432   5.788 -0.0734  0.3288  1.1046
  664MOL0     O89563   7.412   7.379   5.695 -0.1784  1.3073 -0.7343
  664MOL0     C89564   7.273   7.398   5.727 -0.0728  1.4935 -0.1411
  664MOL0     C89565   7.171   7.296   5.675  0.0292 -0.5596 -0.2250
  664MOL0     C89566   7.157   7.287   5.521 -0.2599 -0.0405 -0.4624
  664MOL0     C89567   7.011   7.286   5.469  0.1722 -0.6112  0.5391
  664MOL0     C89568   6.956   7.427   5.487  0.2704 -0.0204 -0.5457
  664MOL0     C89569   6.892   7.528   5.480 -0.0585 -0.1163  0.1063
  664MOL0     C89570   7.490   7.555   5.850 -0.4131 -0.9276 -0.0021
  664MOL0     C89571   7.602   7.613   5.911  0.5166  0.1798  0.5031
  664MOL0     C89572   7.587   7.746   5.976  0.1689 -0.1787  0.6450
  664MOL0     H89573   7.998   7.631   6.260 -0.1097  4.4296  0.9743
  664MOL0     H89574   8.221   7.708   6.334  0.9063 -0.4216  0.4521
  664MOL0     H89575   8.539   7.561   6.113 -0.5503  1.2165 -0.8894
  664MOL0     H89576   8.588   7.724   6.090  3.6466 -0.9535 -0.5846
  664MOL0     H89577   8.649   7.582   6.346  3.5283 -0.3257  0.1933
  664MOL0     H89578   8.666   7.759   6.330 -3.5732  0.8745 -0.5418
  664MOL0     H89579   8.808   7.713   6.136 -0.5330  1.5833  1.4378
  664MOL0     H89580   8.810   7.537   6.168 -0.2483 -0.6774 -0.0115
  664MOL0     H89581   8.895   7.726   6.374 -1.3496 -1.1371  0.7814
  664MOL0     H89582   8.923   7.563   6.382  0.1659 -0.5570 -0.0464
  664MOL0     H89583   9.073   7.546   6.201  1.4612  0.3056  0.7954
  664MOL0     H89584   9.056   7.726   6.159 -0.5454  0.6035  0.5096
  664MOL0     H89585   9.121   7.775   6.397 -2.9139 -0.0769 -1.7621
  664MOL0     H89586   9.159   7.607   6.421  1.4509 -1.1512 -1.8797
  664MOL0     H89587   9.314   7.808   6.257  2.2310 -0.9530 -1.7519
  664MOL0     H89588   9.324   7.653   6.196  1.8142  0.6733  0.2529
  664MOL0     H89589   9.505   7.698   6.354  1.6000  0.0564  2.2822
  664MOL0     H89590   9.380   7.696   6.488 -1.9459 -1.6720 -0.2570
  664MOL0     H89591   9.460   7.484   6.608 -2.4662 -0.4204  0.8169
  664MOL0     H89592   9.522   7.183   6.578 -0.2022 -1.8033 -3.3258
  664MOL0     H89593   9.360   7.233   6.646  0.3853  1.0727  0.3051
  664MOL0     H89594   9.230   7.093   6.504 -0.6741 -1.8300  2.9510
  664MOL0     H89595   9.364   7.059   6.404 -0.8582  2.5552  0.2690
  664MOL0     H89596   9.336   7.006   6.718 -2.4352 -0.5352 -0.4668
  664MOL0     H89597   9.485   6.976   6.631  0.7630  1.0478 -3.2013
  664MOL0     H89598   9.292   6.787   6.685  2.0335 -1.2570 -0.2628
  664MOL0     H89599   9.371   6.790   6.514 -1.4540 -0.3290 -0.5051
  664MOL0     H89600   9.087   6.602   6.641  2.9999  1.6177  1.1878
  664MOL0     H89601   9.073   6.400   6.501  0.8240 -0.8149 -0.1820
  664MOL0     H89602   9.314   6.172   6.081 -0.1601 -1.8320 -0.8165
  664MOL0     H89603   9.295   5.970   5.965 -1.2699 -2.6282  0.6938
  664MOL0     H89604   9.228   5.970   5.647  0.3382  0.3190  1.3784
  664MOL0     H89605   9.272   5.849   5.771  1.3651 -3.1684 -2.5049
  664MOL0     H89606   9.111   5.697   5.661 -1.2820 -1.7789 -1.9782
  664MOL0     H89607   9.106   5.820   5.524  1.5990  1.1691  0.1991
  664MOL0     H89608   9.327   5.767   5.459 -1.9108  1.2235  1.1498
  664MOL0     H89609   9.352   5.674   5.603 -0.7100 -2.7900 -0.5203
  664MOL0     H89610   9.125   5.599   5.414 -0.5927  1.7796  1.3751
  664MOL0     H89611   9.207   5.498   5.525  0.1559 -2.6535 -2.6957
  664MOL0     H89612   9.261   5.427   5.307  1.1367 -1.0193  0.8351
  664MOL0     H89613   9.404   5.498   5.380 -0.1226 -0.1406  1.5795
  664MOL0     H89614   9.226   5.653   5.179  1.9552  1.4833 -0.2719
  664MOL0     H89615   9.374   5.709   5.248 -1.4354  0.6820 -0.2032
  664MOL0     H89616   9.498   5.541   5.106  0.4784  1.5430 -2.7670
  664MOL0     H89617   9.401   5.645   5.011  1.7860 -0.6108  0.0790
  664MOL0     H89618   9.338   5.356   5.110  1.5669  1.9317  1.6756
  664MOL0     H89619   9.229   5.444   5.008 -1.4503  1.1142  2.0552
  664MOL0     H89620   8.889   6.082   5.854  0.1717  2.7983 -1.1038
  664MOL0     H89621   8.924   6.295   5.994 -0.6736 -0.6203 -1.8390
  664MOL0     H89622   9.136   6.625   6.145 -0.0616 -1.0820 -0.4715
  664MOL0     H89623   9.195   6.829   6.288 -1.4490  0.5540  0.4807
  664MOL0     H89624   8.379   7.636   5.948 -0.2449 -1.8504 -0.3186
  664MOL0     H89625   8.168   7.547   5.876 -2.3671  0.1172 -1.2031
  664MOL0     H89626   7.826   7.361   5.854  0.6465  0.2912 -2.0179
  664MOL0     H89627   7.606   7.260   5.751 -2.1314 -0.1163  2.4300
  664MOL0     H89628   7.250   7.494   5.681 -1.1938 -1.2344 -6.2405
  664MOL0     H89629   7.262   7.394   5.836 -0.5944  3.0138 -0.1218
  664MOL0     H89630   7.073   7.327   5.713 -0.3189 -1.3918 -0.4204
  664MOL0     H89631   7.199   7.199   5.717  1.3474  0.0778  0.4205
  664MOL0     H89632   7.205   7.194   5.491  2.4874  1.4624 -1.0406
  664MOL0     H89633   7.217   7.364   5.471  1.3815 -0.2480  1.1184
  664MOL0     H89634   7.005   7.272   5.361 -0.8299 -1.1176  0.6528
  664MOL0     H89635   6.944   7.208   5.508 -1.1461  0.1098 -0.2196
  664MOL0     H89636   6.836   7.620   5.479 -1.5982 -0.9763  1.6154
  664MOL0     H89637   7.389   7.594   5.850 -0.4163 -0.8535 -1.9927
  664MOL0     H89638   7.627   7.734   6.077  0.7635 -2.3285  0.2049
  664MOL0     H89639   7.649   7.822   5.926 -0.9498  0.4243  0.1262
  664MOL0     H89640   7.482   7.777   5.975  0.0213 -0.6836  0.2008
  665MOL0     O89641   5.530   4.138  10.380 -0.5460 -0.2082 -0.0919
  665MOL0     C89642   5.475   4.243  10.413 -0.5106 -0.3541  0.8388
  665MOL0     O89643   5.527   4.339  10.488 -0.1791  0.2988 -0.6428
  665MOL0     C89644   5.652   4.310  10.538 -0.5122 -0.1892  0.2682
  665MOL0     C89645   5.760   4.305  10.448 -0.2738 -0.2957  0.5366
  665MOL0     C89646   5.886   4.288  10.498  0.3800 -0.1945 -0.3133
  665MOL0     C89647   5.914   4.295  10.632 -0.2788 -0.0392 -0.0776
  665MOL0     O89648   6.050   4.301  10.653  0.5443  0.4066  0.4500
  665MOL0     C89649   6.101   4.300  10.787  0.6765  0.0429 -0.4281
  665MOL0     C89650   6.260   4.298  10.783 -0.0575  0.1510 -0.4476
  665MOL0     C89651   6.311   4.447  10.781 -0.1934  0.0784 -0.1798
  665MOL0     C89652   6.460   4.462  10.818 -0.1789  0.3343  0.1884
  665MOL0     C89653   6.479   4.490  10.969  0.1446 -0.8823  0.0207
  665MOL0     C89654   6.624   4.525  11.002  0.4307  0.1229 -0.8163
  665MOL0     C89655   6.647   4.562  11.145  0.2094  0.3876  0.7230
  665MOL0     C89656   6.684   4.445  11.230 -0.0315  0.1614 -0.8569
  665MOL0     N89657   6.740   4.491  11.360  0.3057  0.4440  0.0892
  665MOL0     C89658   6.826   4.594  11.377 -0.6398  0.3869  0.5793
  665MOL0     C89659   6.848   4.595  11.511  1.1689 -0.0444  0.3617
  665MOL0     C89660   6.943   4.692  11.576 -0.4658 -0.1791  0.0593
  665MOL0     C89661   7.075   4.625  11.584 -0.2327  0.1765  0.6741
  665MOL0     C89662   7.175   4.684  11.683  0.1197  0.9786 -0.1443
  665MOL0     C89663   7.267   4.796  11.627 -1.5240  0.0294 -0.5843
  665MOL0     O89664   7.364   4.732  11.537 -0.4301  0.2226  0.2285
  665MOL0     C89665   7.496   4.769  11.556 -0.4294 -0.4066 -0.3509
  665MOL0     C89666   7.550   4.770  11.690 -0.0457 -0.2023 -0.0675
  665MOL0     C89667   7.688   4.806  11.709  0.5995 -1.0971 -0.0265
  665MOL0     C89668   7.777   4.828  11.606  0.5653  0.9273  0.2807
  665MOL0     C89669   7.918   4.865  11.640  0.5441  0.0672 -0.2843
  665MOL0     O89670   7.957   4.856  11.770 -0.5350 -0.0085 -0.0944
  665MOL0     C89671   8.091   4.843  11.795 -0.0349 -0.7917 -0.2488
  665MOL0     C89672   8.136   4.892  11.916 -0.3271 -0.1691  0.0134
  665MOL0     C89673   8.277   4.885  11.944  0.5132  0.0320 -0.4971
  665MOL0     C89674   8.375   4.835  11.853 -0.1731 -0.2067  0.3597
  665MOL0     O89675   8.511   4.828  11.877 -0.1077  0.1640  0.1951
  665MOL0     C89676   8.559   4.856  12.011 -0.5266 -0.4915  0.0700
  665MOL0     C89677   8.707   4.800  12.016  0.9070 -0.2941 -0.1496
  665MOL0     C89678   8.811   4.866  11.916  0.2359  0.3500  0.0694
  665MOL0     C89679   8.932   4.776  11.910 -0.5267  0.4645  0.7314
  665MOL0     C89680   9.047   4.819  11.812  0.5301  0.6271  0.6475
  665MOL0     C89681   9.161   4.724  11.839 -0.7461  0.2003  0.1988
  665MOL0     C89682   9.290   4.780  11.794  0.3433  0.6229 -0.6835
  665MOL0     C89683   9.399   4.667  11.791  0.3567 -0.1040  0.1612
  665MOL0    Cl89684   9.491   4.685  11.946  0.0593  0.1797  0.4904
  665MOL0     C89685   8.322   4.780  11.741  0.1547 -0.2046 -0.2184
  665MOL0     C89686   8.188   4.781  11.709  0.2295  0.0548 -0.0488
  665MOL0     O89687   7.989   4.894  11.546  0.4056  0.0526 -0.0430
  665MOL0     C89688   7.720   4.819  11.477 -0.0204 -0.3941  0.8746
  665MOL0     C89689   7.583   4.793  11.443 -1.3761  0.0960  0.0386
  665MOL0     N89690   6.772   4.505  11.575  0.3882  0.9722 -0.1940
  665MOL0     N89691   6.708   4.445  11.483  0.0674 -0.1915  0.1393
  665MOL0     C89692   5.810   4.314  10.729  0.0243  0.2686 -0.6329
  665MOL0     C89693   5.680   4.311  10.678  0.4298 -0.1916  0.4048
  665MOL0     C89694   5.330   4.269  10.376  0.6681  0.8936 -0.2580
  665MOL0     C89695   5.283   4.392  10.401  0.6488 -0.0909 -0.1319
  665MOL0     C89696   5.146   4.432  10.375 -0.7343 -0.2459  0.3507
  665MOL0     C89697   5.057   4.335  10.325  0.0522  1.0669  0.6265
  665MOL0     O89698   4.919   4.348  10.295  0.6473  0.2216  0.3141
  665MOL0     C89699   4.866   4.476  10.285  0.1545 -0.3576  0.2547
  665MOL0     C89700   4.769   4.512  10.396 -0.0786  1.1544 -0.7703
  665MOL0     C89701   4.649   4.412  10.411 -0.4246 -0.1786  0.3886
  665MOL0     C89702   4.545   4.429  10.293 -0.1844  0.2637 -0.0137
  665MOL0     C89703   4.427   4.350  10.293 -0.2200  0.1788  0.4775
  665MOL0     C89704   4.327   4.284  10.280  0.2443 -0.6288 -0.1929
  665MOL0     C89705   5.107   4.202  10.312 -0.2013 -0.9597  0.3992
  665MOL0     C89706   5.234   4.174  10.343 -0.4967  0.4842  0.7369
  665MOL0     C89707   5.276   4.029  10.317  0.5604 -0.8560 -0.3903
  665MOL0     H89708   5.748   4.302  10.340  1.5944  1.7158  0.2062
  665MOL0     H89709   5.965   4.284  10.423 -1.5875 -1.0657 -2.4930
  665MOL0     H89710   6.064   4.381  10.850  2.0973  0.2320  0.2140
  665MOL0     H89711   6.069   4.206  10.832  0.5602  0.2536 -0.0702
  665MOL0     H89712   6.278   4.242  10.691 -1.2385  0.6552 -1.0139
  665MOL0     H89713   6.298   4.244  10.870 -3.0358  0.8135  1.4368
  665MOL0     H89714   6.248   4.507  10.848  0.4102 -0.7648  1.1924
  665MOL0     H89715   6.287   4.488  10.683 -0.8174 -1.3169 -0.6347
  665MOL0     H89716   6.519   4.376  10.784 -2.4443 -0.9022 -0.8523
  665MOL0     H89717   6.490   4.557  10.772 -3.4822  3.0442  3.0799
  665MOL0     H89718   6.404   4.559  11.009 -0.8512 -1.8597 -0.1357
  665MOL0     H89719   6.456   4.397  11.023 -1.2115  0.5668  2.0998
  665MOL0     H89720   6.701   4.462  10.958  1.3826  0.0622  0.8356
  665MOL0     H89721   6.625   4.618  10.945 -1.9151  1.0043  0.4415
  665MOL0     H89722   6.554   4.603  11.184  2.2932  5.2526  1.2421
  665MOL0     H89723   6.721   4.642  11.139 -0.6467  1.1626  0.1010
  665MOL0     H89724   6.597   4.386  11.260 -1.7951  2.7984 -0.4360
  665MOL0     H89725   6.758   4.387  11.175  1.2164  1.2772 -0.4096
  665MOL0     H89726   6.871   4.655  11.300  0.1174 -0.2028  0.5441
  665MOL0     H89727   6.952   4.790  11.528  1.7064  0.3193  1.3712
  665MOL0     H89728   6.911   4.713  11.678 -0.6071  2.4311 -0.4549
  665MOL0     H89729   7.058   4.520  11.608 -2.7117  0.5984  1.0442
  665MOL0     H89730   7.120   4.635  11.485 -0.0589 -1.2877  0.5885
  665MOL0     H89731   7.237   4.605  11.726 -0.5699  1.1664  1.2816
  665MOL0     H89732   7.114   4.714  11.769  0.4770  0.9207  0.1291
  665MOL0     H89733   7.309   4.855  11.709  0.6511 -0.9004 -0.9741
  665MOL0     H89734   7.200   4.861  11.569  0.1585  2.0194 -0.4046
  665MOL0     H89735   7.481   4.743  11.769 -0.6296 -2.8996 -1.3803
  665MOL0     H89736   7.732   4.803  11.809  1.9824 -2.1573 -0.6390
  665MOL0     H89737   8.066   4.936  11.987 -1.1580  0.4654 -1.1463
  665MOL0     H89738   8.310   4.931  12.037 -0.3520 -0.8154  0.2489
  665MOL0     H89739   8.551   4.964  12.028  5.3235  0.2077  0.3748
  665MOL0     H89740   8.505   4.805  12.091  0.8576 -1.0800  0.6594
  665MOL0     H89741   8.737   4.825  12.118 -3.7368  3.3539  0.6456
  665MOL0     H89742   8.703   4.692  12.004  0.4088 -0.4421  1.2601
  665MOL0     H89743   8.762   4.880  11.819 -0.6536 -2.4501  0.0356
  665MOL0     H89744   8.840   4.962  11.960 -0.4418  0.5725  0.0350
  665MOL0     H89745   8.899   4.676  11.881  3.2415 -1.4144  2.2660
  665MOL0     H89746   8.968   4.761  12.012 -1.8281  0.1688  1.1711
  665MOL0     H89747   9.077   4.923  11.832 -1.2183  1.9127 -2.6112
  665MOL0     H89748   9.021   4.821  11.705 -0.4139  1.9606  0.8818
  665MOL0     H89749   9.184   4.713  11.946 -0.3097  0.2794  0.1118
  665MOL0     H89750   9.128   4.630  11.794 -0.6510 -0.0561  0.6519
  665MOL0     H89751   9.334   4.852  11.864  0.2607  0.8006 -0.8119
  665MOL0     H89752   9.280   4.829  11.697 -1.5627  1.0064 -0.3301
  665MOL0     H89753   9.355   4.569  11.768  1.0279 -0.3886  0.0729
  665MOL0     H89754   9.465   4.676  11.705  0.3882  1.7917  0.3439
  665MOL0     H89755   8.393   4.743  11.668 -0.0443  0.6641 -0.8556
  665MOL0     H89756   8.159   4.725  11.621  3.0985 -1.8943  0.1091
  665MOL0     H89757   7.790   4.850  11.400 -2.0591  0.6763 -0.6239
  665MOL0     H89758   7.561   4.817  11.339  3.8556  2.5671 -0.8221
  665MOL0     H89759   5.831   4.329  10.834  4.1948 -1.0619 -1.0775
  665MOL0     H89760   5.594   4.314  10.744 -0.1978  0.7089 -0.4249
  665MOL0     H89761   5.340   4.479  10.430  2.9983 -2.4752  3.1377
  665MOL0     H89762   5.118   4.537  10.373 -0.8494 -0.2852 -1.1532
  665MOL0     H89763   4.813   4.490  10.190  2.1319 -3.0884 -1.3938
  665MOL0     H89764   4.938   4.558  10.284  0.5442 -0.6983 -0.6764
  665MOL0     H89765   4.739   4.618  10.398  0.5217  1.3181  0.8258
  665MOL0     H89766   4.822   4.499  10.490  1.2064  0.6285 -1.5444
  665MOL0     H89767   4.605   4.426  10.510 -2.3595  0.3910 -0.4937
  665MOL0     H89768   4.685   4.309  10.401 -0.0148 -0.4452  3.6868
  665MOL0     H89769   4.507   4.531  10.291  1.3884  0.8690 -0.4971
  665MOL0     H89770   4.590   4.419  10.194 -0.2186 -1.4997  0.1169
  665MOL0     H89771   4.239   4.230  10.251 -0.7758 -0.0277  1.6377
  665MOL0     H89772   5.039   4.122  10.283 -0.0735 -1.6308  1.8645
  665MOL0     H89773   5.325   4.042  10.220 -2.3666  3.8628 -1.5584
  665MOL0     H89774   5.350   3.996  10.392  1.0278 -0.0814 -0.4933
  665MOL0     H89775   5.189   3.965  10.304 -0.1835  0.0791 -0.1365
  666MOL0     O89776   7.684   0.625   6.438 -0.3108  0.5232 -0.3587
  666MOL0     C89777   7.621   0.717   6.484  0.4566 -0.4238  0.4293
  666MOL0     O89778   7.684   0.822   6.541  0.0720 -0.6171 -0.4514
  666MOL0     C89779   7.817   0.808   6.588  0.2957  0.7327  0.3627
  666MOL0     C89780   7.914   0.913   6.560 -1.2126 -0.0180 -0.1568
  666MOL0     C89781   8.043   0.902   6.622 -0.2607  0.2333  0.1987
  666MOL0     C89782   8.076   0.790   6.696  0.1689 -0.2153  0.3326
  666MOL0     O89783   8.207   0.783   6.739  0.1205 -1.1582  1.0862
  666MOL0     C89784   8.247   0.680   6.832  0.5304 -0.1124  0.9699
  666MOL0     C89785   8.358   0.723   6.927  0.0838  0.0683 -0.4085
  666MOL0     C89786   8.490   0.768   6.853 -0.0683 -0.4699  1.0116
  666MOL0     C89787   8.566   0.658   6.777  0.8666  0.0820  0.0314
  666MOL0     C89788   8.713   0.692   6.741 -0.1854  0.7456  0.2684
  666MOL0     C89789   8.810   0.649   6.855  0.5184 -0.7763 -0.8477
  666MOL0     C89790   8.834   0.497   6.851 -0.0443  0.5189  0.1499
  666MOL0     C89791   8.936   0.450   6.955 -1.1885 -0.0837 -0.0026
  666MOL0     N89792   9.074   0.473   6.900 -0.6418  0.2289 -0.2020
  666MOL0     C89793   9.135   0.415   6.794  0.1434  0.2633 -0.7629
  666MOL0     C89794   9.250   0.483   6.763 -0.0878 -0.0252 -0.0972
  666MOL0     C89795   9.340   0.455   6.653  0.0368 -0.4105 -0.2223
  666MOL0     C89796   9.487   0.474   6.697 -0.0169 -0.3403  0.5542
  666MOL0     C89797   9.572   0.488   6.569  0.0277 -0.1410 -0.3575
  666MOL0     C89798   9.713   0.551   6.593 -1.7074  0.3726 -0.1221
  666MOL0     O89799   9.785   0.455   6.681  0.2275 -0.1546 -0.5224
  666MOL0     C89800   9.921   0.492   6.700  0.1648  0.3492 -0.2392
  666MOL0     C89801   9.994   0.606   6.652  0.0225  0.3670 -0.2640
  666MOL0     C89802  10.129   0.622   6.691  0.4234  0.0086 -0.5060
  666MOL0     C89803  10.193   0.521   6.772 -0.3273 -0.5622  0.8967
  666MOL0     C89804  10.334   0.508   6.780  0.1438 -0.3102  0.0809
  666MOL0     O89805  10.409   0.613   6.735  0.1298  0.5518  0.3981
  666MOL0     C89806  10.543   0.598   6.725  0.1282  0.1908 -0.2359
  666MOL0     C89807  10.595   0.700   6.655  0.6864  0.1947  0.4292
  666MOL0     C89808  10.733   0.707   6.636  0.5752 -0.9136 -0.3792
  666MOL0     C89809  10.815   0.612   6.691  0.2295  0.1302  0.3494
  666MOL0     O89810  10.949   0.617   6.646 -0.0318 -0.2859 -0.7052
  666MOL0     C89811  11.048   0.643   6.749 -0.1260 -0.0436  0.1916
  666MOL0     C89812  11.179   0.681   6.675  0.3917  0.2474 -0.2133
  666MOL0     C89813  11.238   0.552   6.618  0.1954  0.5418  0.4085
  666MOL0     C89814  11.373   0.590   6.542  0.1528  0.5381 -0.0443
  666MOL0     C89815  11.450   0.467   6.480  1.0938 -0.6661  0.5288
  666MOL0     C89816  11.489   0.365   6.598  0.8449 -0.1944 -0.1664
  666MOL0     C89817  11.585   0.256   6.543  0.8826 -0.7110 -0.2488
  666MOL0     C89818  11.513   0.167   6.443 -0.5884  0.2334  0.0913
  666MOL0    Cl89819  11.610   0.017   6.412 -0.1692 -0.4194 -0.3935
  666MOL0     C89820  10.771   0.524   6.776 -0.2238  0.4537  0.2340
  666MOL0     C89821  10.637   0.515   6.797 -0.3546 -0.2609 -0.4949
  666MOL0     O89822  10.369   0.396   6.819  0.3351 -0.0930 -0.3788
  666MOL0     C89823  10.112   0.420   6.827 -0.0923  0.7575  0.3301
  666MOL0     C89824   9.976   0.413   6.798 -0.2864 -0.5815  0.3545
  666MOL0     N89825   9.265   0.575   6.865 -0.2167  0.1931  0.4051
  666MOL0     N89826   9.167   0.561   6.945  0.4588  0.4997 -0.3270
  666MOL0     C89827   7.981   0.683   6.713  0.4750  0.3638 -0.7281
  666MOL0     C89828   7.850   0.696   6.668  0.1712  0.2415 -0.6319
  666MOL0     C89829   7.467   0.717   6.471 -0.4197  0.7864 -0.6147
  666MOL0     C89830   7.408   0.649   6.369 -0.4116 -0.1812  0.0202
  666MOL0     C89831   7.276   0.660   6.348  0.0375  0.7325  0.4170
  666MOL0     C89832   7.190   0.740   6.424 -0.2853  1.3219  0.0966
  666MOL0     O89833   7.057   0.733   6.386  0.0950  0.1217  0.3335
  666MOL0     C89834   6.956   0.755   6.489 -0.3367 -0.6122  0.5732
  666MOL0     C89835   6.967   0.646   6.599 -0.5221 -0.0675 -0.1038
  666MOL0     C89836   6.836   0.565   6.625  0.2693 -0.4379  0.1898
  666MOL0     C89837   6.860   0.425   6.688  0.9274  0.4676 -0.0402
  666MOL0     C89838   6.735   0.351   6.715  0.0773 -1.2040  0.2597
  666MOL0     C89839   6.628   0.288   6.716 -0.0824 -0.4829  0.7572
  666MOL0     C89840   7.247   0.797   6.539  0.4060 -0.6880 -0.9924
  666MOL0     C89841   7.389   0.790   6.563  0.3648 -0.4033 -0.6162
  666MOL0     C89842   7.440   0.864   6.694 -0.3056  0.1376 -0.2715
  666MOL0     H89843   7.892   0.993   6.489 -0.5689 -0.2999 -0.6864
  666MOL0     H89844   8.119   0.977   6.603  1.5787 -1.4851  0.3475
  666MOL0     H89845   8.160   0.642   6.886 -0.1992 -0.0650 -0.1339
  666MOL0     H89846   8.281   0.590   6.780 -2.0534 -0.5763 -0.0670
  666MOL0     H89847   8.385   0.635   6.986 -0.6954 -0.1657 -0.3893
  666MOL0     H89848   8.323   0.808   6.986  0.9121  1.3189 -1.6394
  666MOL0     H89849   8.563   0.819   6.916  1.0235 -1.4054  0.5505
  666MOL0     H89850   8.462   0.847   6.783  3.3828  0.3156  0.2930
  666MOL0     H89851   8.557   0.561   6.827 -1.1214  0.6917  0.9614
  666MOL0     H89852   8.517   0.642   6.680  0.9779  2.4843 -0.4829
  666MOL0     H89853   8.749   0.644   6.650 -0.1053  1.6011 -0.1679
  666MOL0     H89854   8.714   0.799   6.718 -2.7968  0.5735 -0.9681
  666MOL0     H89855   8.912   0.687   6.841  1.2192 -1.8159  1.1200
  666MOL0     H89856   8.767   0.674   6.952 -0.7716 -1.0937 -1.3157
  666MOL0     H89857   8.872   0.478   6.750 -1.5490 -1.2626 -0.1351
  666MOL0     H89858   8.736   0.452   6.870 -0.1502  1.0002  0.8019
  666MOL0     H89859   8.915   0.502   7.049 -0.2511  1.1192 -0.4310
  666MOL0     H89860   8.922   0.343   6.971  1.5535 -0.2578  1.7377
  666MOL0     H89861   9.087   0.336   6.737  1.5791 -0.7488 -0.6210
  666MOL0     H89862   9.328   0.355   6.610 -1.2362 -1.7162  2.8800
  666MOL0     H89863   9.321   0.522   6.568  2.9647 -0.7874 -1.2715
  666MOL0     H89864   9.490   0.567   6.754 -0.7797 -0.5102  0.8904
  666MOL0     H89865   9.528   0.395   6.761  0.2148 -1.4047 -0.8726
  666MOL0     H89866   9.518   0.551   6.498 -0.0198 -1.1249 -1.2187
  666MOL0     H89867   9.578   0.390   6.520 -1.0384 -0.0098 -0.7771
  666MOL0     H89868   9.704   0.651   6.637 -3.4485  0.5167 -0.7162
  666MOL0     H89869   9.768   0.569   6.500 -2.2367 -1.6052 -0.8692
  666MOL0     H89870   9.942   0.668   6.579 -1.1631 -3.3122 -2.8529
  666MOL0     H89871  10.196   0.695   6.646  1.0801 -0.1414  0.2119
  666MOL0     H89872  10.525   0.754   6.592  2.8658  3.3740  0.5067
  666MOL0     H89873  10.763   0.772   6.554 -1.7175 -0.8784 -1.2849
  666MOL0     H89874  11.007   0.726   6.809 -1.7056  0.8614 -2.0064
  666MOL0     H89875  11.068   0.559   6.816  1.6183  0.1659 -0.0229
  666MOL0     H89876  11.152   0.759   6.604 -3.3088  0.7433  1.4880
  666MOL0     H89877  11.247   0.727   6.746 -0.5793  2.0163 -0.3696
  666MOL0     H89878  11.264   0.496   6.708  0.3444  3.6953  2.4870
  666MOL0     H89879  11.180   0.488   6.551 -0.3190  0.3096  1.0633
  666MOL0     H89880  11.441   0.634   6.615  0.6818  0.9452 -0.7734
  666MOL0     H89881  11.346   0.656   6.460 -3.6596 -0.1456  0.4529
  666MOL0     H89882  11.530   0.513   6.421 -2.0386  1.2360 -2.5855
  666MOL0     H89883  11.379   0.422   6.411 -0.7174  0.5839  1.5058
  666MOL0     H89884  11.552   0.423   6.666  0.2511  2.5122 -1.7638
  666MOL0     H89885  11.403   0.324   6.652  1.1885  0.3194  0.7953
  666MOL0     H89886  11.630   0.198   6.624  0.4491 -0.9070 -0.1497
  666MOL0     H89887  11.666   0.307   6.489 -0.6397  1.4417 -0.6525
  666MOL0     H89888  11.419   0.132   6.487 -0.0460  1.1624  2.0757
  666MOL0     H89889  11.498   0.216   6.346 -0.6597  0.8771  0.4229
  666MOL0     H89890  10.837   0.457   6.831 -0.4262  0.5909  0.6482
  666MOL0     H89891  10.608   0.439   6.868 -0.7804  0.8801  0.5816
  666MOL0     H89892  10.152   0.339   6.888  1.4443  0.0571 -1.4776
  666MOL0     H89893   9.920   0.330   6.840 -0.3054  0.0419  1.6411
  666MOL0     H89894   7.996   0.597   6.778  0.8883  0.6465 -0.4472
  666MOL0     H89895   7.774   0.623   6.693 -0.5978  0.0637 -3.1430
  666MOL0     H89896   7.475   0.605   6.295  0.7562 -0.0944  0.9901
  666MOL0     H89897   7.227   0.610   6.265 -1.3581  3.2363 -0.3659
  666MOL0     H89898   6.858   0.765   6.441  0.8542  1.3555 -1.5863
  666MOL0     H89899   6.969   0.848   6.545  2.3500  1.2458 -2.7831
  666MOL0     H89900   6.999   0.693   6.693  0.8821 -0.8539 -0.1534
  666MOL0     H89901   7.049   0.578   6.574 -0.6193  0.7848 -3.0018
  666MOL0     H89902   6.774   0.552   6.535 -1.6688  0.1439  1.3748
  666MOL0     H89903   6.766   0.617   6.691 -2.1759  0.0611 -2.5766
  666MOL0     H89904   6.904   0.353   6.617 -1.1300 -0.6132 -0.2982
  666MOL0     H89905   6.917   0.443   6.779 -0.6821 -0.6681  1.2628
  666MOL0     H89906   6.536   0.237   6.702  0.0925 -2.3296  4.8704
  666MOL0     H89907   7.180   0.840   6.613 -0.1763 -2.0757 -0.6799
  666MOL0     H89908   7.361   0.850   6.768 -0.8985 -1.0642 -1.1037
  666MOL0     H89909   7.530   0.813   6.731 -0.0264  2.7678  3.1898
  666MOL0     H89910   7.481   0.965   6.684  0.2503  0.1746  1.8100
  667MOL0     O89911   6.305   3.628   3.728  0.1716 -0.3668  0.1570
  667MOL0     C89912   6.251   3.568   3.821  0.0486  0.8576 -0.3401
  667MOL0     O89913   6.319   3.505   3.920 -0.8847  0.3326 -0.5565
  667MOL0     C89914   6.454   3.508   3.932 -0.5910  0.2979  0.2101
  667MOL0     C89915   6.531   3.625   3.920 -0.6217  0.8884 -0.4047
  667MOL0     C89916   6.663   3.632   3.953  0.4257 -0.2846 -0.1969
  667MOL0     C89917   6.729   3.519   3.991  0.3174 -0.7664  0.4463
  667MOL0     O89918   6.865   3.515   4.011 -0.4255 -0.1693  0.1253
  667MOL0     C89919   6.948   3.631   3.969  0.0581 -0.1611 -0.4829
  667MOL0     C89920   7.087   3.587   3.984 -0.1480 -0.2421  0.1607
  667MOL0     C89921   7.189   3.698   3.943 -0.0886 -0.3147  0.1981
  667MOL0     C89922   7.335   3.646   3.937  0.0328  0.0487  0.1775
  667MOL0     C89923   7.430   3.766   3.910  0.1605 -0.7139 -0.2952
  667MOL0     C89924   7.580   3.720   3.904 -0.0776  0.1138  0.8936
  667MOL0     C89925   7.646   3.665   4.036 -0.1527  0.3666  0.1315
  667MOL0     C89926   7.796   3.690   4.031 -0.1964 -0.2237 -0.3034
  667MOL0     N89927   7.852   3.662   4.167 -0.3607 -0.6792  0.5296
  667MOL0     C89928   7.833   3.740   4.278 -0.2487 -0.0574  0.3386
  667MOL0     C89929   7.851   3.653   4.376  0.0661  0.3741 -0.2339
  667MOL0     C89930   7.836   3.686   4.520 -0.1504  0.7314  0.2126
  667MOL0     C89931   7.970   3.718   4.593 -0.2846 -0.0311 -0.3809
  667MOL0     C89932   8.061   3.814   4.507 -0.0056 -0.0128  0.5799
  667MOL0     C89933   8.186   3.848   4.595  0.6595  0.2434 -0.1776
  667MOL0     O89934   8.257   3.956   4.549 -0.1344  0.2179  0.5712
  667MOL0     C89935   8.390   3.971   4.546 -0.0848  0.2479  0.2884
  667MOL0     C89936   8.474   3.866   4.580 -0.4452 -0.6149  0.5657
  667MOL0     C89937   8.612   3.884   4.553  0.3789 -0.0104 -0.3330
  667MOL0     C89938   8.671   4.005   4.506  0.0044  0.3618  1.2869
  667MOL0     C89939   8.813   4.015   4.474  0.4747  0.7544  0.1039
  667MOL0     O89940   8.883   3.897   4.472 -0.6434 -0.4068  0.1805
  667MOL0     C89941   9.014   3.906   4.439 -0.7348  0.5583 -0.5865
  667MOL0     C89942   9.119   3.919   4.528 -0.4145 -0.7760 -0.0892
  667MOL0     C89943   9.248   3.937   4.476  0.2585 -0.4061  0.1411
  667MOL0     C89944   9.273   3.946   4.337 -0.3814 -0.5747 -0.6019
  667MOL0     O89945   9.399   3.965   4.307  0.0335  0.3016 -0.2695
  667MOL0     C89946   9.445   3.965   4.172 -0.1311  0.3332  0.4990
  667MOL0     C89947   9.594   3.968   4.185  0.2435 -0.7074 -0.3051
  667MOL0     C89948   9.650   4.105   4.204  0.3394  0.2131 -0.5128
  667MOL0     C89949   9.796   4.123   4.162  0.3903 -0.2201  0.8314
  667MOL0     C89950   9.855   4.258   4.166  0.2130 -0.1867  0.3203
  667MOL0     C89951   9.982   4.272   4.087 -0.1413  0.4950 -0.0173
  667MOL0     C89952  10.051   4.405   4.104 -0.3114  0.2441 -0.3819
  667MOL0     C89953  10.161   4.429   3.996 -0.0372 -0.3979 -0.1157
  667MOL0    Cl89954  10.300   4.322   4.001 -0.1818 -0.0660 -0.1585
  667MOL0     C89955   9.169   3.922   4.245 -0.2825 -0.6331  0.5349
  667MOL0     C89956   9.041   3.903   4.299  0.9209  0.9165 -0.4299
  667MOL0     O89957   8.861   4.126   4.469  0.3913 -0.5769  1.0154
  667MOL0     C89958   8.574   4.113   4.487  0.1244 -0.5684  0.3856
  667MOL0     C89959   8.435   4.092   4.490 -0.0014 -0.8110 -0.6892
  667MOL0     N89960   7.901   3.534   4.330 -0.6399  0.6396 -0.5721
  667MOL0     N89961   7.896   3.541   4.203  0.2497 -0.1146 -0.2505
  667MOL0     C89962   6.659   3.405   4.006  0.1278  0.9375  0.7631
  667MOL0     C89963   6.523   3.399   3.980  0.1010  0.6476  0.2673
  667MOL0     C89964   6.100   3.565   3.843 -0.6132  0.1761 -0.3848
  667MOL0     C89965   6.049   3.471   3.937 -0.6939  0.8617  0.4285
  667MOL0     C89966   5.916   3.437   3.950 -0.2669  0.1813  0.2003
  667MOL0     C89967   5.821   3.522   3.886 -0.3758 -0.3472 -0.4420
  667MOL0     O89968   5.683   3.509   3.881 -0.3719 -0.0327  0.2275
  667MOL0     C89969   5.632   3.387   3.931  0.0839  0.2585  0.3193
  667MOL0     C89970   5.474   3.366   3.912 -1.0464 -0.4280 -1.0700
  667MOL0     C89971   5.393   3.475   3.988 -0.9419 -0.0165  0.6332
  667MOL0     C89972   5.246   3.482   3.937  0.8449 -0.8141  0.0015
  667MOL0     C89973   5.184   3.350   3.956  0.0731  0.6665  0.7843
  667MOL0     C89974   5.143   3.231   3.963  0.2719 -0.3686 -0.0722
  667MOL0     C89975   5.867   3.619   3.792 -0.8606 -0.0770  0.7979
  667MOL0     C89976   6.004   3.640   3.765  0.7859  0.4655 -0.5014
  667MOL0     C89977   6.055   3.734   3.658 -0.6659 -0.3353  0.1401
  667MOL0     H89978   6.486   3.721   3.894  1.6200  1.7438 -1.3406
  667MOL0     H89979   6.704   3.733   3.952  1.4356 -0.2211  6.1212
  667MOL0     H89980   6.920   3.653   3.866 -3.4314  1.0821  0.5639
  667MOL0     H89981   6.918   3.718   4.029 -3.2639 -2.2587  1.1976
  667MOL0     H89982   7.104   3.501   3.919  0.7142  0.2484 -0.2826
  667MOL0     H89983   7.102   3.555   4.087 -1.5813 -1.7716 -0.0681
  667MOL0     H89984   7.191   3.766   4.028  0.2608 -0.9787  0.7389
  667MOL0     H89985   7.159   3.745   3.849  0.4546  1.6451  0.9630
  667MOL0     H89986   7.360   3.593   4.030  0.7921 -1.5913 -0.9169
  667MOL0     H89987   7.344   3.575   3.855  0.3931 -0.4534  0.6437
  667MOL0     H89988   7.404   3.811   3.813 -0.4726  0.4735  0.4046
  667MOL0     H89989   7.422   3.834   3.995  0.3437 -2.9476  1.6168
  667MOL0     H89990   7.559   3.648   3.825 -1.7518  2.3687 -0.8421
  667MOL0     H89991   7.638   3.806   3.869 -1.3274  2.4826  4.1600
  667MOL0     H89992   7.632   3.557   4.036 -0.8578  0.4185 -2.0168
  667MOL0     H89993   7.597   3.703   4.126  0.1603 -0.2914  0.5913
  667MOL0     H89994   7.849   3.636   3.952 -1.4243 -0.5863 -0.8933
  667MOL0     H89995   7.821   3.796   4.021  1.6230 -0.6985 -1.1731
  667MOL0     H89996   7.806   3.844   4.289  0.2617 -0.1171  2.8544
  667MOL0     H89997   7.769   3.770   4.541  1.0004  1.3596  1.5451
  667MOL0     H89998   7.785   3.599   4.562  0.3134  0.3321 -0.0476
  667MOL0     H89999   7.954   3.770   4.688 -1.1480 -0.7858 -0.0973
  667MOL0     H90000   8.023   3.625   4.613 -1.0462  0.0796  2.6264
  667MOL0     H90001   8.003   3.906   4.494  0.4148  0.2299  0.4059
  667MOL0     H90002   8.085   3.772   4.409  1.1220 -0.1278  0.8885
  667MOL0     H90003   8.248   3.758   4.602  0.4492 -0.1498 -2.3789
  667MOL0     H90004   8.156   3.876   4.696  0.3578  1.7394 -0.6560
  667MOL0     H90005   8.435   3.774   4.622 -0.6856 -0.3487  0.9391
  667MOL0     H90006   8.681   3.803   4.575 -1.1042 -1.9416 -2.3480
  667MOL0     H90007   9.082   3.930   4.629 -1.3954 -1.1776 -0.3934
  667MOL0     H90008   9.332   3.942   4.544  1.9375 -2.0614 -1.6792
  667MOL0     H90009   9.416   3.873   4.120 -0.1363 -0.1508  1.3322
  667MOL0     H90010   9.398   4.048   4.119 -1.1697 -1.1648 -1.0618
  667MOL0     H90011   9.621   3.909   4.274 -2.5222  1.0900  1.9117
  667MOL0     H90012   9.648   3.920   4.103  2.2889  0.3985  0.3344
  667MOL0     H90013   9.588   4.171   4.142 -1.0125 -0.4896  0.0445
  667MOL0     H90014   9.631   4.142   4.305 -1.6820  1.1543 -1.1778
  667MOL0     H90015   9.805   4.090   4.058  0.7380 -0.8773  1.0671
  667MOL0     H90016   9.856   4.061   4.230  2.0640  0.5797  0.1308
  667MOL0     H90017   9.880   4.287   4.269  0.5579  2.3197 -0.4071
  667MOL0     H90018   9.778   4.327   4.130 -0.5198 -2.2373 -2.3609
  667MOL0     H90019  10.046   4.186   4.108  0.2946  0.0304 -2.8331
  667MOL0     H90020   9.946   4.258   3.984 -2.3946 -3.8929  1.0989
  667MOL0     H90021  10.094   4.407   4.205 -2.0419 -2.6204  0.5233
  667MOL0     H90022   9.978   4.486   4.092 -1.9570 -0.8192  1.6338
  667MOL0     H90023  10.104   4.420   3.903  1.5435 -1.2614 -1.0344
  667MOL0     H90024  10.196   4.531   4.015  1.1002 -1.0655  1.4886
  667MOL0     H90025   9.197   3.920   4.140 -0.4504  2.7355  0.3104
  667MOL0     H90026   8.958   3.889   4.231  1.5085  1.1230 -1.2203
  667MOL0     H90027   8.606   4.209   4.447  0.8538 -0.5137  1.0717
  667MOL0     H90028   8.369   4.172   4.457  0.9703  0.1042 -0.4712
  667MOL0     H90029   6.720   3.320   4.034  1.7392  0.3765 -3.6919
  667MOL0     H90030   6.470   3.307   4.000  0.5021  0.0477 -1.2721
  667MOL0     H90031   6.128   3.408   3.977 -0.4175 -0.7970 -2.4412
  667MOL0     H90032   5.876   3.352   4.005 -1.2387  1.7952  2.1166
  667MOL0     H90033   5.653   3.389   4.038  0.4691  0.4712  0.2410
  667MOL0     H90034   5.674   3.292   3.896 -1.9075 -0.9260  0.9721
  667MOL0     H90035   5.445   3.268   3.953 -1.4536  0.1557  0.0794
  667MOL0     H90036   5.459   3.377   3.804  0.5613  0.4668 -1.2401
  667MOL0     H90037   5.441   3.573   3.980 -1.3926  0.4400  2.9879
  667MOL0     H90038   5.400   3.455   4.095 -0.9385 -0.7229  0.5051
  667MOL0     H90039   5.197   3.566   3.987  1.5536 -1.3389  1.6385
  667MOL0     H90040   5.234   3.500   3.829 -0.6127  0.1085  0.2870
  667MOL0     H90041   5.102   3.132   3.963 -1.1532  0.2002 -1.0514
  667MOL0     H90042   5.785   3.673   3.745 -1.1403 -1.7376 -0.6998
  667MOL0     H90043   6.137   3.798   3.692 -2.4579  2.3368 -0.1816
  667MOL0     H90044   6.085   3.677   3.569  0.4665 -1.8720  1.4632
  667MOL0     H90045   5.975   3.803   3.627 -0.3305 -0.7161 -1.7160
  668MOL0     O90046   8.202   1.879   7.252 -0.6135 -1.2505 -0.4773
  668MOL0     C90047   8.124   1.962   7.199  0.2495  0.0740 -0.4368
  668MOL0     O90048   8.141   2.033   7.083  0.3996 -0.4075  0.4982
  668MOL0     C90049   8.259   2.071   7.038 -0.5118 -0.3154  0.2259
  668MOL0     C90050   8.359   2.126   7.117  0.5093  1.2307  0.4786
  668MOL0     C90051   8.476   2.170   7.069  0.4457 -0.6082 -0.7299
  668MOL0     C90052   8.511   2.144   6.941 -0.6567 -0.2104  0.4930
  668MOL0     O90053   8.635   2.166   6.883  0.2794 -0.7866  0.3721
  668MOL0     C90054   8.688   2.293   6.933 -0.8840 -0.2868 -0.2428
  668MOL0     C90055   8.757   2.371   6.815  0.2784  0.2424  0.6832
  668MOL0     C90056   8.898   2.329   6.772 -0.7363  0.3190 -0.1866
  668MOL0     C90057   9.012   2.367   6.874 -0.0686 -0.7603 -0.1892
  668MOL0     C90058   9.146   2.317   6.814 -0.3861 -0.4248 -0.2024
  668MOL0     C90059   9.254   2.356   6.920 -0.4338  0.1579 -0.1032
  668MOL0     C90060   9.395   2.362   6.867 -0.0376 -0.5869  0.1879
  668MOL0     C90061   9.475   2.448   6.967  0.1773  0.3240  0.2415
  668MOL0     N90062   9.622   2.431   6.920 -0.0168  0.2262  0.5533
  668MOL0     C90063   9.704   2.522   6.855  0.3006  0.6613  0.6316
  668MOL0     C90064   9.825   2.469   6.832 -0.5235  0.3244 -0.5975
  668MOL0     C90065   9.938   2.553   6.791  0.3821 -0.4012 -0.2123
  668MOL0     C90066  10.077   2.476   6.787  0.0295 -0.5355  0.1742
  668MOL0     C90067  10.191   2.578   6.759 -0.6183 -0.1648  0.1244
  668MOL0     C90068  10.333   2.509   6.762  0.2445 -0.9735  0.3790
  668MOL0     O90069  10.431   2.598   6.705  1.1054 -0.1931 -0.2292
  668MOL0     C90070  10.566   2.595   6.740 -0.5574 -0.5266  0.6437
  668MOL0     C90071  10.621   2.509   6.838  0.7670  0.4250  0.2894
  668MOL0     C90072  10.751   2.516   6.864  0.1593 -0.2870  0.0191
  668MOL0     C90073  10.833   2.609   6.794  0.3339 -0.2304 -0.7120
  668MOL0     C90074  10.972   2.638   6.832 -0.4116 -0.1784 -0.1276
  668MOL0     O90075  11.027   2.547   6.912  0.4880  0.4154  0.4773
  668MOL0     C90076  11.162   2.548   6.936  0.2821 -0.4048  0.6328
  668MOL0     C90077  11.246   2.544   6.826 -0.3839  0.6983 -0.0571
  668MOL0     C90078  11.393   2.538   6.847  0.3314 -0.3057  0.2227
  668MOL0     C90079  11.443   2.557   6.984  0.0134  0.3094  0.4084
  668MOL0     O90080  11.579   2.546   6.992 -0.6272  0.3465  0.0011
  668MOL0     C90081  11.645   2.558   7.123 -0.2736  0.6367  0.4657
  668MOL0     C90082  11.794   2.524   7.101  0.6453 -0.8727 -0.6791
  668MOL0     C90083  11.860   2.608   6.989 -0.5455 -0.4058  0.3967
  668MOL0     C90084  12.016   2.604   6.994 -0.3117 -1.0721 -0.5637
  668MOL0     C90085  12.076   2.663   6.864  0.4584 -0.0331 -0.0750
  668MOL0     C90086  12.225   2.693   6.875 -0.2330  0.4834  0.3523
  668MOL0     C90087  12.300   2.748   6.755  0.4306 -0.1943 -0.1076
  668MOL0     C90088  12.458   2.753   6.771  0.1505  0.1850  0.8486
  668MOL0    Cl90089  12.525   2.574   6.762 -0.1184 -0.2933 -0.0431
  668MOL0     C90090  11.347   2.560   7.084  0.4030  0.4338 -0.0726
  668MOL0     C90091  11.207   2.548   7.062 -0.2539 -0.2799  0.4421
  668MOL0     O90092  11.036   2.728   6.771  0.9442  0.4873  0.0686
  668MOL0     C90093  10.784   2.681   6.690  0.0965  0.0959  0.1949
  668MOL0     C90094  10.647   2.677   6.657 -0.0319  0.9924  0.3106
  668MOL0     N90095   9.817   2.328   6.870 -0.0985  1.0073 -1.2604
  668MOL0     N90096   9.695   2.321   6.920  0.0598  0.0455 -0.0885
  668MOL0     C90097   8.411   2.094   6.853  0.2787  0.1932  0.0586
  668MOL0     C90098   8.283   2.060   6.901 -0.2317 -0.2259 -0.1835
  668MOL0     C90099   7.987   1.959   7.247 -0.7990 -1.4479 -0.3119
  668MOL0     C90100   7.930   1.838   7.290  0.2672  1.5813  0.6683
  668MOL0     C90101   7.796   1.818   7.311 -0.4948 -0.8441 -0.0946
  668MOL0     C90102   7.712   1.929   7.306 -0.5719 -0.2841  0.2325
  668MOL0     O90103   7.581   1.932   7.325  0.5476  0.7595  0.3359
  668MOL0     C90104   7.511   1.873   7.215 -0.3221  0.3839  0.4533
  668MOL0     C90105   7.360   1.890   7.236 -0.7853 -0.0656 -0.0155
  668MOL0     C90106   7.296   1.798   7.122  0.0455 -0.1749 -0.4849
  668MOL0     C90107   7.138   1.799   7.121 -0.0822 -0.2993  0.2520
  668MOL0     C90108   7.096   1.702   7.025  0.4432 -0.1455  0.9630
  668MOL0     C90109   7.075   1.624   6.935  0.1662  0.5244  0.3516
  668MOL0     C90110   7.766   2.052   7.267  0.5717  0.3137 -1.6604
  668MOL0     C90111   7.898   2.071   7.244 -0.2184  0.4815  0.4900
  668MOL0     C90112   7.941   2.211   7.201 -0.2881 -0.0559 -0.0418
  668MOL0     H90113   8.346   2.146   7.223  0.6487 -0.5927  0.8728
  668MOL0     H90114   8.549   2.214   7.136  2.1580  0.8718 -3.4216
  668MOL0     H90115   8.613   2.355   6.984  0.5826  2.6261 -1.3963
  668MOL0     H90116   8.764   2.262   7.006 -1.9779 -0.3457  0.9179
  668MOL0     H90117   8.757   2.474   6.851  1.0410  0.5922 -0.2818
  668MOL0     H90118   8.691   2.356   6.728 -0.1333 -0.2308  1.0684
  668MOL0     H90119   8.918   2.369   6.672 -1.9669 -0.0476 -0.5922
  668MOL0     H90120   8.884   2.221   6.759 -0.4959 -0.0536  2.2368
  668MOL0     H90121   9.014   2.476   6.883  1.6779 -0.7843  0.0132
  668MOL0     H90122   8.990   2.327   6.973 -0.2534  1.0244  0.5383
  668MOL0     H90123   9.140   2.210   6.793 -1.5822 -0.2386 -0.8998
  668MOL0     H90124   9.160   2.381   6.727 -1.7226  0.1643 -0.0089
  668MOL0     H90125   9.231   2.455   6.961 -0.7318 -0.3909  1.0857
  668MOL0     H90126   9.241   2.280   6.998 -2.7121  0.4410 -0.1470
  668MOL0     H90127   9.404   2.408   6.768  1.9678 -1.0374  0.1191
  668MOL0     H90128   9.436   2.261   6.868 -1.3587 -1.1383  0.6477
  668MOL0     H90129   9.441   2.552   6.973 -1.5561 -0.2269  0.7283
  668MOL0     H90130   9.460   2.418   7.072 -1.7860  3.4737  0.9882
  668MOL0     H90131   9.674   2.621   6.823 -0.5836  0.4075  0.6563
  668MOL0     H90132   9.908   2.588   6.692 -2.0016 -1.1149  0.1984
  668MOL0     H90133   9.936   2.640   6.857 -0.0620 -0.1006 -0.6086
  668MOL0     H90134  10.095   2.419   6.879 -0.0252 -2.5095 -0.9764
  668MOL0     H90135  10.067   2.412   6.699 -2.2191  3.3338 -2.6991
  668MOL0     H90136  10.183   2.657   6.834  0.4572 -1.9322  2.2098
  668MOL0     H90137  10.183   2.634   6.665 -0.8609  1.1066  0.8751
  668MOL0     H90138  10.330   2.413   6.708  2.6528  0.0203 -1.7163
  668MOL0     H90139  10.348   2.495   6.869  1.1406  2.6626  0.8538
  668MOL0     H90140  10.572   2.430   6.894  0.4815  0.8437  0.6398
  668MOL0     H90141  10.793   2.456   6.945 -3.8212 -1.1824  1.6755
  668MOL0     H90142  11.210   2.528   6.725  0.8770  2.5744 -0.8698
  668MOL0     H90143  11.450   2.526   6.756 -1.6773 -0.4026 -1.0851
  668MOL0     H90144  11.644   2.660   7.161  1.1700  1.6509 -1.9795
  668MOL0     H90145  11.599   2.489   7.195 -0.2044  1.6454  1.4999
  668MOL0     H90146  11.845   2.514   7.197  0.8657 -4.7469 -1.0608
  668MOL0     H90147  11.809   2.422   7.066 -0.7728 -1.4134  0.2258
  668MOL0     H90148  11.824   2.567   6.895  3.4659  0.9763 -1.9775
  668MOL0     H90149  11.827   2.712   6.998  0.6529 -0.1656  2.8049
  668MOL0     H90150  12.056   2.504   7.015  0.2668 -0.5256  1.0918
  668MOL0     H90151  12.049   2.667   7.077 -0.7983 -2.3030  0.6009
  668MOL0     H90152  12.017   2.754   6.851  0.7657 -0.0475 -1.8718
  668MOL0     H90153  12.054   2.602   6.776  0.1285  0.3985 -0.2946
  668MOL0     H90154  12.253   2.764   6.954  1.4770  1.9114 -1.4362
  668MOL0     H90155  12.274   2.598   6.901  0.0099  0.7813  1.0355
  668MOL0     H90156  12.264   2.850   6.737  2.0575  0.5082  0.4130
  668MOL0     H90157  12.274   2.688   6.668  1.1107  2.0315 -1.9410
  668MOL0     H90158  12.497   2.809   6.685 -0.0955 -1.3354 -0.2986
  668MOL0     H90159  12.483   2.808   6.862  1.1881 -0.6613  1.0834
  668MOL0     H90160  11.386   2.571   7.185  3.8350 -2.5530 -0.8740
  668MOL0     H90161  11.137   2.548   7.145 -0.8699 -2.1062 -0.0442
  668MOL0     H90162  10.847   2.743   6.627 -0.1352 -0.5190 -0.6620
  668MOL0     H90163  10.608   2.738   6.577  0.0423 -0.8003 -1.1454
  668MOL0     H90164   8.441   2.087   6.749 -1.2132  2.8150 -0.6236
  668MOL0     H90165   8.206   2.015   6.839 -1.8399 -0.1493  1.6714
  668MOL0     H90166   7.988   1.746   7.291  1.4178  2.2843  1.3164
  668MOL0     H90167   7.763   1.720   7.344 -2.8993 -0.7137 -1.8988
  668MOL0     H90168   7.532   1.766   7.206  2.5672  0.9789 -1.0429
  668MOL0     H90169   7.545   1.915   7.120  2.8055  0.5266  1.5155
  668MOL0     H90170   7.329   1.994   7.223 -0.2333  0.1882  0.6200
  668MOL0     H90171   7.336   1.865   7.340  0.8215  1.0888  0.6802
  668MOL0     H90172   7.329   1.696   7.146 -0.3555  0.2634  2.1978
  668MOL0     H90173   7.334   1.831   7.024  1.3503 -0.8607 -0.2354
  668MOL0     H90174   7.084   1.776   7.214 -1.8588 -0.3912 -0.7718
  668MOL0     H90175   7.111   1.896   7.078 -0.7041 -0.8874 -0.6961
  668MOL0     H90176   7.063   1.557   6.853 -4.3984 -1.2207  2.1144
  668MOL0     H90177   7.695   2.134   7.262  1.1935  0.9578 -0.3969
  668MOL0     H90178   7.896   2.287   7.266  0.6754  1.3201 -0.9423
  668MOL0     H90179   8.048   2.223   7.221 -0.4235 -0.8383  1.2653
  668MOL0     H90180   7.917   2.238   7.098 -4.1938  0.0618  0.7370
  669MOL0     O90181   2.212   6.351   3.763 -0.4433  0.5117  1.0455
  669MOL0     C90182   2.164   6.397   3.864 -1.3256  0.0992  0.0093
  669MOL0     O90183   2.238   6.479   3.943  0.7034  0.2654 -0.5878
  669MOL0     C90184   2.375   6.476   3.955 -0.1558 -0.3242  0.8402
  669MOL0     C90185   2.471   6.388   3.890  0.1978 -0.4587  0.2677
  669MOL0     C90186   2.609   6.402   3.907 -1.0936  0.1932 -0.0440
  669MOL0     C90187   2.656   6.500   3.995 -0.1100  0.2868  0.1815
  669MOL0     O90188   2.795   6.511   3.996 -0.0310  0.2463  0.7695
  669MOL0     C90189   2.862   6.580   4.098 -0.2518 -0.0443 -0.8163
  669MOL0     C90190   2.989   6.511   4.149  0.0492  0.1613 -0.1999
  669MOL0     C90191   3.102   6.533   4.049 -0.0061  0.4361 -0.1114
  669MOL0     C90192   3.216   6.446   4.095 -0.0936  0.4349 -0.1079
  669MOL0     C90193   3.331   6.459   3.993 -0.0136 -0.0555  0.2607
  669MOL0     C90194   3.460   6.375   4.012  0.6323  0.1556 -0.8321
  669MOL0     C90195   3.567   6.415   3.904 -1.1521 -0.0824 -0.5263
  669MOL0     C90196   3.552   6.352   3.771 -0.6941  0.2136  0.5656
  669MOL0     N90197   3.657   6.402   3.677 -0.2791  0.7711 -0.4201
  669MOL0     C90198   3.795   6.404   3.711 -0.0405 -0.1749  0.1882
  669MOL0     C90199   3.859   6.448   3.603 -0.6760 -0.4287 -0.6820
  669MOL0     C90200   3.995   6.487   3.580  1.1009 -0.0944 -0.1092
  669MOL0     C90201   4.078   6.367   3.543 -0.2405 -0.7392  0.8581
  669MOL0     C90202   4.223   6.412   3.503  0.3679  0.0282 -0.2967
  669MOL0     C90203   4.329   6.300   3.472  0.4441 -0.3830 -0.1565
  669MOL0     O90204   4.451   6.373   3.438 -0.1228  0.2353  0.2744
  669MOL0     C90205   4.558   6.311   3.389 -0.2371 -0.7279 -0.2164
  669MOL0     C90206   4.579   6.177   3.390  0.3934  0.1358  0.0318
  669MOL0     C90207   4.697   6.120   3.347  0.8096 -0.1252 -0.4995
  669MOL0     C90208   4.794   6.200   3.291 -0.4597 -1.1113 -0.9276
  669MOL0     C90209   4.919   6.144   3.244 -0.4453 -0.2629  0.6099
  669MOL0     O90210   4.936   6.008   3.270  0.5910  0.2469 -0.0877
  669MOL0     C90211   5.051   5.951   3.207 -0.1346 -0.1833  0.0234
  669MOL0     C90212   5.081   5.959   3.067 -0.7283 -0.0634  0.1008
  669MOL0     C90213   5.175   5.880   3.011 -0.8389 -0.0716  0.2365
  669MOL0     C90214   5.253   5.793   3.082 -0.0850  0.2888 -0.3262
  669MOL0     O90215   5.348   5.716   3.020  0.0490  0.1125 -0.0094
  669MOL0     C90216   5.342   5.696   2.878 -0.8423 -0.4920  0.8608
  669MOL0     C90217   5.452   5.604   2.841  0.4211 -0.2764 -0.4514
  669MOL0     C90218   5.474   5.613   2.688 -0.5641  0.8948 -0.0925
  669MOL0     C90219   5.588   5.517   2.640  0.0296  0.0124  0.4210
  669MOL0     C90220   5.727   5.582   2.661  0.1379  1.0699  0.6391
  669MOL0     C90221   5.821   5.496   2.590 -0.3742 -0.3681 -0.0513
  669MOL0     C90222   5.965   5.551   2.611  1.4041  0.3912  0.3464
  669MOL0     C90223   6.077   5.489   2.540  0.3748  0.1186  0.2317
  669MOL0    Cl90224   6.069   5.558   2.379 -0.1941 -0.1459  0.3555
  669MOL0     C90225   5.234   5.780   3.220  0.8576 -0.2074  0.6409
  669MOL0     C90226   5.142   5.870   3.285  0.5326 -0.0165 -0.2912
  669MOL0     O90227   5.009   6.214   3.188  0.3826 -0.2422  0.7616
  669MOL0     C90228   4.767   6.342   3.276  0.3618 -0.1912  0.1292
  669MOL0     C90229   4.650   6.392   3.324  0.2393 -0.1745  0.0901
  669MOL0     N90230   3.765   6.453   3.504 -0.1881  0.2317 -0.4404
  669MOL0     N90231   3.646   6.430   3.544 -0.5688  0.3533 -0.8470
  669MOL0     C90232   2.569   6.587   4.068 -0.4096 -0.0790 -0.1649
  669MOL0     C90233   2.431   6.572   4.045 -0.4485  0.2402  0.3728
  669MOL0     C90234   2.026   6.364   3.901  0.0512  0.3576  0.4720
  669MOL0     C90235   1.968   6.244   3.846 -0.6478  0.2009  0.6471
  669MOL0     C90236   1.840   6.194   3.879  0.6151 -0.4847  0.3000
  669MOL0     C90237   1.757   6.277   3.957 -0.3107  0.4730 -0.3830
  669MOL0     O90238   1.632   6.232   3.986 -0.1697 -0.5586  0.2495
  669MOL0     C90239   1.547   6.246   3.874 -0.3187  0.0372  1.1963
  669MOL0     C90240   1.396   6.227   3.907 -0.0500 -0.2891 -0.6572
  669MOL0     C90241   1.369   6.096   3.995  0.0663  0.1093 -0.1046
  669MOL0     C90242   1.399   5.949   3.922  0.6201 -0.1733 -0.1450
  669MOL0     C90243   1.520   5.892   3.988 -0.6190  0.7938  0.2076
  669MOL0     C90244   1.624   5.855   4.041  0.3637 -0.5368  0.7884
  669MOL0     C90245   1.804   6.398   4.016  0.2387 -0.1116  1.1476
  669MOL0     C90246   1.936   6.440   3.986 -0.4544 -0.4958 -0.3300
  669MOL0     C90247   1.975   6.572   4.044 -0.6098 -0.1954  0.3474
  669MOL0     H90248   2.447   6.298   3.834  0.4328 -0.3221 -0.0590
  669MOL0     H90249   2.660   6.331   3.843 -1.1433  0.2234 -0.1164
  669MOL0     H90250   2.878   6.683   4.063  2.0333  0.3178  1.0177
  669MOL0     H90251   2.803   6.593   4.189  1.1172 -0.5588  0.1836
  669MOL0     H90252   2.968   6.404   4.161  1.4298 -0.2263 -1.0088
  669MOL0     H90253   3.011   6.561   4.244  1.4866 -0.8012  0.0069
  669MOL0     H90254   3.129   6.638   4.034  2.7402  0.0275  1.4384
  669MOL0     H90255   3.071   6.503   3.949 -1.8013  2.3187 -0.1961
  669MOL0     H90256   3.263   6.480   4.187 -1.4926 -0.8955  1.1538
  669MOL0     H90257   3.191   6.340   4.108 -0.0040  0.2410 -1.3706
  669MOL0     H90258   3.292   6.441   3.892 -2.6359  1.6398  0.8691
  669MOL0     H90259   3.368   6.562   3.990 -1.0265  0.3815  1.7791
  669MOL0     H90260   3.515   6.405   4.101 -1.6204  1.5322  0.1954
  669MOL0     H90261   3.445   6.266   4.012 -2.3434  0.4824 -0.4331
  669MOL0     H90262   3.666   6.381   3.935 -0.3280 -0.2603 -3.1214
  669MOL0     H90263   3.580   6.523   3.895 -1.6867 -0.0489 -0.9840
  669MOL0     H90264   3.574   6.245   3.776 -1.7092 -0.0989 -0.8660
  669MOL0     H90265   3.453   6.364   3.728  0.9906  2.9182 -3.1594
  669MOL0     H90266   3.837   6.394   3.811 -0.2245  2.6103  0.6187
  669MOL0     H90267   3.997   6.567   3.506 -0.8505 -1.1982 -1.4459
  669MOL0     H90268   4.029   6.541   3.668  0.6717  1.0805 -0.6534
  669MOL0     H90269   4.077   6.299   3.629  1.0728 -1.6393  0.1856
  669MOL0     H90270   4.035   6.311   3.459  0.2511 -1.8437  1.3215
  669MOL0     H90271   4.268   6.468   3.585  3.1070  1.0627 -2.3553
  669MOL0     H90272   4.217   6.488   3.424  3.4125 -1.2955 -1.9479
  669MOL0     H90273   4.305   6.245   3.381  2.5274  1.5967 -2.0386
  669MOL0     H90274   4.335   6.231   3.557 -0.4729  0.4099  0.5763
  669MOL0     H90275   4.500   6.109   3.420  0.1017 -0.1675 -1.3525
  669MOL0     H90276   4.713   6.015   3.373  0.7367 -0.4714 -1.7995
  669MOL0     H90277   5.014   6.015   3.003  0.2737  0.3260 -0.6233
  669MOL0     H90278   5.187   5.896   2.905  0.8787 -3.8531 -0.2738
  669MOL0     H90279   5.243   5.668   2.842 -1.6123  3.4990 -0.5772
  669MOL0     H90280   5.374   5.782   2.820  0.2629 -1.5758 -0.1973
  669MOL0     H90281   5.546   5.631   2.890  1.4180 -0.9187 -1.9430
  669MOL0     H90282   5.431   5.501   2.869 -1.5936 -0.4771 -2.4279
  669MOL0     H90283   5.388   5.587   2.625  0.2588 -0.6062 -0.6540
  669MOL0     H90284   5.506   5.710   2.650 -0.3022 -0.0517 -2.4970
  669MOL0     H90285   5.574   5.492   2.534 -0.1077  0.7895  0.2533
  669MOL0     H90286   5.582   5.421   2.693  1.0355  0.9943  2.4248
  669MOL0     H90287   5.754   5.593   2.767  2.8055  1.2058  0.0183
  669MOL0     H90288   5.730   5.679   2.612  0.0237  1.2602  1.0087
  669MOL0     H90289   5.821   5.396   2.635 -2.3547 -0.3713  0.0083
  669MOL0     H90290   5.789   5.487   2.486 -0.4424 -1.8349  0.0788
  669MOL0     H90291   5.986   5.529   2.716  1.8958  0.7660  0.3335
  669MOL0     H90292   5.969   5.659   2.596  0.0359  0.2669 -1.1979
  669MOL0     H90293   6.177   5.516   2.578  0.2856  0.1607  0.4374
  669MOL0     H90294   6.069   5.381   2.553  0.5795  0.3163  2.4942
  669MOL0     H90295   5.284   5.700   3.274 -0.3851  0.2620  2.6028
  669MOL0     H90296   5.110   5.877   3.389 -2.5436  0.3747 -1.1609
  669MOL0     H90297   4.851   6.401   3.242  0.6703  0.6616  2.1769
  669MOL0     H90298   4.633   6.498   3.307 -0.0722 -0.3017 -0.4147
  669MOL0     H90299   2.607   6.676   4.117  0.5924  0.8192 -2.4118
  669MOL0     H90300   2.367   6.642   4.099 -2.5764 -2.2990  1.3426
  669MOL0     H90301   2.026   6.173   3.788 -1.1188  0.5994 -0.3320
  669MOL0     H90302   1.814   6.099   3.833  0.7851 -0.5981  0.4392
  669MOL0     H90303   1.579   6.168   3.804  3.3133  1.9893  0.4339
  669MOL0     H90304   1.556   6.338   3.817  1.5332 -0.5981  0.3564
  669MOL0     H90305   1.353   6.217   3.807  1.3560 -1.9280 -1.1439
  669MOL0     H90306   1.359   6.313   3.963  3.3078  0.5149  0.5542
  669MOL0     H90307   1.266   6.095   4.031  0.7788  0.6700  2.1449
  669MOL0     H90308   1.423   6.098   4.090 -1.5374 -2.2197  0.9588
  669MOL0     H90309   1.309   5.889   3.935  1.9539 -2.5179 -1.1600
  669MOL0     H90310   1.410   5.971   3.815  4.0113 -0.4001  0.0434
  669MOL0     H90311   1.712   5.830   4.097  0.5976 -0.5719  0.4113
  669MOL0     H90312   1.739   6.448   4.086  0.9617 -0.4172  2.0576
  669MOL0     H90313   1.892   6.641   4.060  0.4187  0.6754  2.1073
  669MOL0     H90314   2.020   6.553   4.142 -2.8894 -1.8147  1.1772
  669MOL0     H90315   2.045   6.623   3.978 -2.2108  1.6127 -0.0326
  670MOL0     O90316   0.196   9.001   5.507 -0.2207 -0.5408  0.2890
  670MOL0     C90317   0.181   8.884   5.557  0.4207 -0.7074 -0.5879
  670MOL0     O90318   0.272   8.771   5.545 -0.1548  0.6762  0.0117
  670MOL0     C90319   0.404   8.780   5.521  1.4184  0.0393  0.6398
  670MOL0     C90320   0.473   8.675   5.471 -0.2094  0.4969 -0.3543
  670MOL0     C90321   0.614   8.683   5.460  1.0092 -0.1736  0.1277
  670MOL0     C90322   0.685   8.793   5.499  0.3113 -0.3907 -0.2048
  670MOL0     O90323   0.821   8.787   5.492  0.1753 -0.0552 -0.4379
  670MOL0     C90324   0.911   8.895   5.527  0.4622  0.9567 -0.1445
  670MOL0     C90325   1.052   8.847   5.537  0.5883  0.0689 -0.2830
  670MOL0     C90326   1.095   8.758   5.415 -0.2941  0.1578  0.4059
  670MOL0     C90327   1.233   8.692   5.434  0.4978  0.6486  0.6032
  670MOL0     C90328   1.249   8.548   5.376  0.6530 -0.0981 -0.0117
  670MOL0     C90329   1.387   8.481   5.418 -0.3902  0.2426 -0.8997
  670MOL0     C90330   1.507   8.555   5.367  0.1780 -0.6431  0.2605
  670MOL0     C90331   1.639   8.484   5.379  0.0470 -0.2970 -0.2720
  670MOL0     N90332   1.742   8.532   5.285  0.3414  0.4072  0.5433
  670MOL0     C90333   1.836   8.452   5.227 -0.2536  0.0575 -0.0824
  670MOL0     C90334   1.920   8.537   5.163 -0.8619  0.5080 -0.7816
  670MOL0     C90335   2.031   8.498   5.078 -0.2339 -0.3424  0.2006
  670MOL0     C90336   2.149   8.589   5.081  0.9769 -0.7032 -0.1279
  670MOL0     C90337   2.279   8.526   5.015 -0.2531  0.9169 -0.0829
  670MOL0     C90338   2.405   8.579   5.072  0.6554 -0.0248  0.0792
  670MOL0     O90339   2.444   8.707   5.028 -0.2740 -0.1711  0.6577
  670MOL0     C90340   2.567   8.753   5.066 -0.8639  0.0566  0.2280
  670MOL0     C90341   2.655   8.696   5.158  0.6791 -0.4968 -0.5821
  670MOL0     C90342   2.780   8.756   5.183  0.0768  0.1667 -0.4121
  670MOL0     C90343   2.819   8.873   5.113  0.4468  0.9168  0.4144
  670MOL0     C90344   2.940   8.951   5.135  0.2426 -1.0041  0.1786
  670MOL0     O90345   2.945   9.078   5.091  1.4068  0.7056  0.1617
  670MOL0     C90346   3.044   9.172   5.101 -0.5616 -0.1498  0.3374
  670MOL0     C90347   3.140   9.179   5.201 -0.7633 -0.4586 -0.2030
  670MOL0     C90348   3.249   9.272   5.199 -0.1783  0.7241  0.1310
  670MOL0     C90349   3.274   9.345   5.088  0.2694 -0.3018 -0.2765
  670MOL0     O90350   3.387   9.418   5.088  0.1282 -0.4677 -0.4281
  670MOL0     C90351   3.425   9.488   4.967 -0.7310  0.6165 -1.0729
  670MOL0     C90352   3.508   9.391   4.878 -0.4753 -0.6083  0.3754
  670MOL0     C90353   3.524   9.449   4.733  0.7119 -0.1351  0.4235
  670MOL0     C90354   3.628   9.384   4.661  0.1954 -0.1303 -0.2624
  670MOL0     C90355   3.771   9.416   4.708  0.3629 -1.4434  0.1110
  670MOL0     C90356   3.883   9.348   4.631 -0.0957 -0.5902 -0.5956
  670MOL0     C90357   3.932   9.417   4.498  0.5335 -0.0139 -0.6682
  670MOL0     C90358   3.982   9.561   4.516 -0.5119  0.3730  0.2830
  670MOL0    Cl90359   4.142   9.552   4.605 -0.4024 -0.0492 -0.3076
  670MOL0     C90360   3.178   9.341   4.990  0.2096  0.0641 -0.4466
  670MOL0     C90361   3.071   9.258   4.996  1.0551  0.2130  0.9294
  670MOL0     O90362   3.034   8.895   5.193  0.2035  0.8228 -0.0041
  670MOL0     C90363   2.733   8.914   5.009  0.1706 -0.9154  0.7354
  670MOL0     C90364   2.609   8.861   5.000 -0.1143  0.0332 -0.2325
  670MOL0     N90365   1.877   8.673   5.183 -0.1189  0.2985  0.0348
  670MOL0     N90366   1.773   8.667   5.257  0.0898 -0.5683 -0.1888
  670MOL0     C90367   0.619   8.908   5.540  0.2756 -0.1282 -0.2561
  670MOL0     C90368   0.479   8.899   5.552 -0.9005 -0.1194 -0.5210
  670MOL0     C90369   0.045   8.864   5.609  0.0708  0.1707 -0.8025
  670MOL0     C90370  -0.005   8.733   5.607  0.0417 -0.1094 -0.5509
  670MOL0     C90371  -0.135   8.715   5.663  0.6665  0.3105  0.0681
  670MOL0     C90372  -0.216   8.816   5.698  0.1744 -0.1541  0.0736
  670MOL0     O90373  -0.340   8.781   5.728  0.2541  0.4215  0.0728
  670MOL0     C90374  -0.436   8.888   5.762 -1.0685  0.1928 -0.3176
  670MOL0     C90375  -0.567   8.827   5.807  0.5465 -0.1984 -0.4333
  670MOL0     C90376  -0.556   8.761   5.947 -0.1268  0.2342 -0.0800
  670MOL0     C90377  -0.695   8.705   5.986  0.1405  0.6951  0.3627
  670MOL0     C90378  -0.688   8.673   6.130 -0.5229 -0.1853 -0.0578
  670MOL0     C90379  -0.700   8.655   6.252  0.3912 -0.5616  0.3592
  670MOL0     C90380  -0.164   8.942   5.703  0.0582  0.7147 -0.2966
  670MOL0     C90381  -0.029   8.968   5.669 -0.5348  0.0591  0.4699
  670MOL0     C90382   0.009   9.116   5.669  0.6060 -0.5051 -0.0913
  670MOL0     H90383   0.425   8.579   5.453 -2.3346  1.6060 -0.9737
  670MOL0     H90384   0.657   8.589   5.428  1.0164 -0.2813  0.4507
  670MOL0     H90385   0.915   8.976   5.454  3.1360 -0.9565 -2.3386
  670MOL0     H90386   0.888   8.937   5.625  3.7073  1.1709  0.6324
  670MOL0     H90387   1.064   8.787   5.628  3.0487  2.4676  1.1327
  670MOL0     H90388   1.124   8.928   5.546  3.3010 -2.2915  1.0543
  670MOL0     H90389   1.095   8.807   5.317  1.2372  2.1328  1.3320
  670MOL0     H90390   1.030   8.670   5.403  2.0060 -1.4193 -1.2598
  670MOL0     H90391   1.309   8.757   5.389 -0.5028  1.2971 -0.1892
  670MOL0     H90392   1.255   8.682   5.541  2.6189  1.9225  0.3446
  670MOL0     H90393   1.164   8.493   5.417  0.0435  0.6946 -0.1870
  670MOL0     H90394   1.240   8.557   5.268  0.2216  0.0404  0.0332
  670MOL0     H90395   1.403   8.468   5.525 -1.2530  1.6119 -0.5774
  670MOL0     H90396   1.387   8.381   5.372 -0.4173  1.2288 -3.1633
  670MOL0     H90397   1.530   8.653   5.408 -0.5501  0.7937 -2.5533
  670MOL0     H90398   1.495   8.560   5.258  0.8511 -0.7962  0.1735
  670MOL0     H90399   1.668   8.493   5.484 -0.9346 -0.1446 -0.0068
  670MOL0     H90400   1.631   8.375   5.371  1.1362 -0.4135  0.0194
  670MOL0     H90401   1.839   8.344   5.215  0.1279 -0.0866  1.1697
  670MOL0     H90402   2.064   8.400   5.112  0.6922 -0.4342 -0.9075
  670MOL0     H90403   1.997   8.489   4.974 -0.9541  1.2561  0.2697
  670MOL0     H90404   2.127   8.683   5.030 -1.1350 -0.6211  0.8216
  670MOL0     H90405   2.158   8.612   5.188  0.6558 -0.1595 -0.2184
  670MOL0     H90406   2.272   8.547   4.908 -0.7056  0.4347 -0.1545
  670MOL0     H90407   2.267   8.419   5.036 -0.9883  1.3745  2.1704
  670MOL0     H90408   2.478   8.501   5.048  1.6506  0.5667  1.0784
  670MOL0     H90409   2.406   8.565   5.181 -1.8087  3.3118  0.6672
  670MOL0     H90410   2.642   8.598   5.204  3.3233 -1.8590 -2.4517
  670MOL0     H90411   2.846   8.721   5.262 -0.8710 -0.4761  0.1196
  670MOL0     H90412   3.130   9.123   5.294  2.3889 -1.8753 -0.5905
  670MOL0     H90413   3.321   9.287   5.279  1.9929 -0.6622 -1.4470
  670MOL0     H90414   3.341   9.535   4.914  0.4636  2.0476 -1.7613
  670MOL0     H90415   3.501   9.565   4.984 -1.5209  1.0580  0.6859
  670MOL0     H90416   3.603   9.374   4.930  0.7442 -0.8780 -1.8185
  670MOL0     H90417   3.461   9.292   4.868 -0.2884 -0.7026  0.4131
  670MOL0     H90418   3.430   9.440   4.677  0.8505  0.5732  0.0608
  670MOL0     H90419   3.546   9.557   4.729  0.1334 -0.0373 -0.7302
  670MOL0     H90420   3.625   9.415   4.556 -0.5098  0.5727 -0.0468
  670MOL0     H90421   3.610   9.276   4.664  0.2601 -0.1308  0.2887
  670MOL0     H90422   3.781   9.388   4.813  1.8844  0.3912  0.5103
  670MOL0     H90423   3.781   9.525   4.698  2.0535 -1.6888 -1.4679
  670MOL0     H90424   3.966   9.331   4.699  0.7262  0.2287 -1.3638
  670MOL0     H90425   3.843   9.248   4.609  0.9850 -1.3571  0.7607
  670MOL0     H90426   3.845   9.423   4.433  0.7431 -1.5697 -1.1458
  670MOL0     H90427   4.006   9.359   4.441 -0.1188  1.4341 -3.0868
  670MOL0     H90428   4.002   9.601   4.416 -0.1894 -2.3407 -0.8347
  670MOL0     H90429   3.907   9.620   4.569 -0.7956  0.6276 -0.4006
  670MOL0     H90430   3.191   9.396   4.897 -2.1704  1.5891  0.0296
  670MOL0     H90431   3.002   9.256   4.912  0.0186  0.9463  1.7355
  670MOL0     H90432   2.755   9.004   4.952 -0.2122 -1.1819  0.1584
  670MOL0     H90433   2.544   8.910   4.928 -1.4379 -0.5538  0.5337
  670MOL0     H90434   0.664   9.004   5.562 -2.9118  1.3447  0.5196
  670MOL0     H90435   0.434   8.988   5.593  0.7178  1.1765 -1.4622
  670MOL0     H90436   0.057   8.651   5.572 -0.4368 -0.3729 -0.7848
  670MOL0     H90437  -0.179   8.616   5.668  0.7672  0.2456 -0.3217
  670MOL0     H90438  -0.441   8.966   5.685  0.0443 -0.9597 -1.6040
  670MOL0     H90439  -0.389   8.939   5.847  1.5259 -4.1087  1.1024
  670MOL0     H90440  -0.611   8.762   5.731  1.4160  2.0877 -3.0486
  670MOL0     H90441  -0.644   8.902   5.824  0.0378 -0.4343 -1.5943
  670MOL0     H90442  -0.525   8.834   6.022  2.2419  1.9987 -2.5974
  670MOL0     H90443  -0.484   8.681   5.927  0.1514  0.7392 -1.1353
  670MOL0     H90444  -0.770   8.785   5.972 -0.1870  0.3177 -0.0892
  670MOL0     H90445  -0.720   8.621   5.920 -1.0894  1.6551 -0.4561
  670MOL0     H90446  -0.722   8.645   6.357 -4.9829  1.1546 -0.3325
  670MOL0     H90447  -0.220   9.032   5.724 -0.7115  0.6341 -1.8591
  670MOL0     H90448   0.107   9.125   5.717  0.5545 -2.5355  0.4521
  670MOL0     H90449   0.004   9.159   5.568 -2.3144  0.7395  0.4840
  670MOL0     H90450  -0.057   9.181   5.727  0.0954  0.9577 -2.1840
  671MOL0     O90451   0.547   5.484   3.467 -0.8124  0.4219 -1.0552
  671MOL0     C90452   0.588   5.573   3.541  0.2438 -0.1490 -0.9029
  671MOL0     O90453   0.524   5.696   3.562  0.7758 -0.0179 -0.4091
  671MOL0     C90454   0.416   5.713   3.476  0.3779  0.2361 -0.0197
  671MOL0     C90455   0.289   5.653   3.504 -0.1895  0.1550  0.5390
  671MOL0     C90456   0.184   5.671   3.409  0.6328  0.3093 -0.1639
  671MOL0     C90457   0.197   5.766   3.305 -0.0517  0.2178  0.5355
  671MOL0     O90458   0.099   5.789   3.211 -0.0671  0.6575  0.4039
  671MOL0     C90459   0.054   5.674   3.134  0.8612 -0.2702 -0.6247
  671MOL0     C90460   0.123   5.677   2.993  0.1546  0.6724 -0.6763
  671MOL0     C90461   0.104   5.551   2.911  0.2970  0.7714 -0.1181
  671MOL0     C90462  -0.052   5.529   2.876 -0.2557  0.2270  0.7849
  671MOL0     C90463  -0.074   5.413   2.782  0.6108  0.3399 -0.4873
  671MOL0     C90464  -0.220   5.374   2.755 -0.5474 -0.6338 -0.6162
  671MOL0     C90465  -0.273   5.475   2.649  0.1579 -0.4076 -0.6104
  671MOL0     C90466  -0.418   5.448   2.617  0.3185  0.8342  0.2032
  671MOL0     N90467  -0.431   5.310   2.573 -0.6503 -0.1957  0.6374
  671MOL0     C90468  -0.498   5.216   2.643 -0.1983 -0.3544  0.4765
  671MOL0     C90469  -0.463   5.098   2.580 -0.4495 -0.7034 -0.4086
  671MOL0     C90470  -0.485   4.962   2.634  0.7550  0.1641 -0.4391
  671MOL0     C90471  -0.396   4.916   2.749 -0.0472  0.1451  0.0590
  671MOL0     C90472  -0.243   4.923   2.713 -0.5470 -0.0234 -0.4146
  671MOL0     C90473  -0.208   4.840   2.586  0.0717  0.3651 -0.3467
  671MOL0     O90474  -0.075   4.804   2.549  0.3535 -0.1781 -0.4918
  671MOL0     C90475   0.006   4.909   2.511  1.1348 -0.1157 -0.2382
  671MOL0     C90476  -0.028   5.039   2.470 -0.0519 -0.8028  0.5029
  671MOL0     C90477   0.075   5.134   2.449  1.3009  0.1649  1.0602
  671MOL0     C90478   0.209   5.113   2.468 -0.0396  0.2488 -0.2928
  671MOL0     C90479   0.315   5.215   2.476  0.1247 -0.0012 -0.5244
  671MOL0     O90480   0.440   5.175   2.455 -0.2162 -0.7156  0.0646
  671MOL0     C90481   0.547   5.254   2.499  0.1990 -0.9162  0.3457
  671MOL0     C90482   0.575   5.274   2.630 -0.4893 -1.0083  0.0143
  671MOL0     C90483   0.694   5.340   2.659 -0.4819 -0.0381  0.7890
  671MOL0     C90484   0.779   5.395   2.557  0.3284  0.1138 -0.8377
  671MOL0     O90485   0.892   5.460   2.582 -0.0229  0.0156 -0.6098
  671MOL0     C90486   0.869   5.582   2.661 -0.3562  0.6177 -0.4957
  671MOL0     C90487   0.967   5.698   2.636  0.2408  1.2003  0.6233
  671MOL0     C90488   0.918   5.787   2.514 -0.0646  0.6552  0.3296
  671MOL0     C90489   1.016   5.907   2.487 -0.0670 -0.3522 -0.2374
  671MOL0     C90490   1.017   5.974   2.360  0.6624 -0.2033  0.4831
  671MOL0     C90491   0.876   6.014   2.300 -0.3970  0.7169  0.5165
  671MOL0     C90492   0.900   6.105   2.178 -0.4089 -0.8619 -0.4650
  671MOL0     C90493   0.780   6.199   2.142 -0.0199  0.2143 -0.7459
  671MOL0    Cl90494   0.768   6.347   2.239  0.0185  0.4782 -0.1013
  671MOL0     C90495   0.747   5.369   2.419 -0.6582  0.0443 -0.0024
  671MOL0     C90496   0.627   5.297   2.393  0.6762 -0.0418  0.0800
  671MOL0     O90497   0.275   5.330   2.519 -0.0013  0.7105  0.1192
  671MOL0     C90498   0.241   4.983   2.505  0.1961 -0.7404  0.1006
  671MOL0     C90499   0.142   4.885   2.516 -1.0303  0.8258 -0.4407
  671MOL0     N90500  -0.380   5.125   2.475 -0.2061 -0.1119  0.4616
  671MOL0     N90501  -0.373   5.251   2.464  0.2569  0.1167 -0.3501
  671MOL0     C90502   0.311   5.832   3.288 -0.6910  0.1705 -1.2147
  671MOL0     C90503   0.418   5.802   3.373  0.8299 -0.9191 -0.3360
  671MOL0     C90504   0.728   5.573   3.613 -0.7107  0.7060 -1.2255
  671MOL0     C90505   0.788   5.685   3.676  0.1332  0.2947  0.0214
  671MOL0     C90506   0.913   5.678   3.734 -0.3172  0.9276 -0.5816
  671MOL0     C90507   0.981   5.555   3.753  0.3827 -0.1408  0.1189
  671MOL0     O90508   1.096   5.536   3.827  0.5234  0.6844  0.8942
  671MOL0     C90509   1.196   5.639   3.826  0.3107 -0.5860 -0.1914
  671MOL0     C90510   1.330   5.576   3.782 -0.0972 -0.1734 -0.4632
  671MOL0     C90511   1.321   5.510   3.642 -0.1389  0.4000  0.0179
  671MOL0     C90512   1.424   5.404   3.604 -0.1974 -0.7096  0.0498
  671MOL0     C90513   1.563   5.451   3.600  1.0121  0.1347 -0.6842
  671MOL0     C90514   1.677   5.484   3.582 -0.0976 -0.1384  0.0382
  671MOL0     C90515   0.923   5.444   3.698 -0.0839  0.3861  0.3864
  671MOL0     C90516   0.800   5.449   3.633  0.5959  0.1895  0.1795
  671MOL0     C90517   0.755   5.315   3.578  0.1198 -0.4337 -0.4791
  671MOL0     H90518   0.273   5.601   3.598  0.8328  1.9111  1.7406
  671MOL0     H90519   0.081   5.637   3.420 -0.1820  2.8867  1.0348
  671MOL0     H90520   0.077   5.590   3.201 -1.8821  2.4100  4.1984
  671MOL0     H90521  -0.054   5.671   3.118  0.7210  0.8882 -0.0220
  671MOL0     H90522   0.231   5.693   3.005  0.3205  0.9976 -2.3522
  671MOL0     H90523   0.083   5.757   2.931 -2.2260 -0.5758 -0.8758
  671MOL0     H90524   0.133   5.460   2.964 -0.8016 -1.5359 -3.1518
  671MOL0     H90525   0.164   5.558   2.819 -1.6870  0.0451 -1.5393
  671MOL0     H90526  -0.110   5.516   2.968 -0.4054 -0.9722  0.5338
  671MOL0     H90527  -0.091   5.619   2.828 -4.0694 -1.1645  0.8778
  671MOL0     H90528  -0.023   5.426   2.686  0.4772  0.5968 -0.5226
  671MOL0     H90529  -0.024   5.328   2.830 -1.5092 -0.8825 -0.3032
  671MOL0     H90530  -0.217   5.269   2.725 -0.8771 -0.7927 -0.1176
  671MOL0     H90531  -0.265   5.381   2.855  0.4896 -3.4909  0.1632
  671MOL0     H90532  -0.224   5.467   2.551  2.6992  1.8264  0.3333
  671MOL0     H90533  -0.264   5.575   2.693 -2.9290 -0.1700 -0.3187
  671MOL0     H90534  -0.471   5.464   2.711  1.8850 -1.5152  1.5804
  671MOL0     H90535  -0.463   5.519   2.546  2.2279  2.0596  0.1276
  671MOL0     H90536  -0.532   5.225   2.746 -1.2267  2.3809  0.0076
  671MOL0     H90537  -0.586   4.960   2.677  1.8692 -0.6937  2.3447
  671MOL0     H90538  -0.476   4.888   2.554  2.5131 -0.9757  0.7415
  671MOL0     H90539  -0.419   4.974   2.838 -2.4218  0.6519 -0.8220
  671MOL0     H90540  -0.424   4.813   2.774  1.2547  0.0524  1.3069
  671MOL0     H90541  -0.194   4.898   2.808 -0.9916 -0.9383 -0.4089
  671MOL0     H90542  -0.204   5.025   2.704 -1.6016  0.4902  0.6863
  671MOL0     H90543  -0.244   4.896   2.499  2.1381  0.1047 -1.4488
  671MOL0     H90544  -0.276   4.754   2.585 -0.1486  0.5154  0.7082
  671MOL0     H90545  -0.129   5.078   2.461 -0.0239 -1.2922 -3.5183
  671MOL0     H90546   0.053   5.240   2.434 -1.3307 -0.3449  0.8236
  671MOL0     H90547   0.499   5.247   2.703 -1.2681 -0.4408 -0.5687
  671MOL0     H90548   0.716   5.376   2.760 -1.6944 -0.1245  1.0933
  671MOL0     H90549   0.766   5.617   2.651 -1.3861 -1.5380  1.5117
  671MOL0     H90550   0.870   5.562   2.769 -1.0733  1.9029 -0.2349
  671MOL0     H90551   0.962   5.761   2.725 -2.4072  1.4186  0.4203
  671MOL0     H90552   1.066   5.658   2.614 -1.1009 -0.6916 -2.7723
  671MOL0     H90553   0.902   5.722   2.427  0.8892 -0.6999  1.1262
  671MOL0     H90554   0.820   5.828   2.541  0.1502  0.9747  0.6364
  671MOL0     H90555   1.119   5.878   2.510  0.7688  2.9457  0.8240
  671MOL0     H90556   0.996   5.983   2.563  0.0404 -1.3955  0.8720
  671MOL0     H90557   1.064   5.905   2.289 -1.5330 -0.3846 -0.8871
  671MOL0     H90558   1.073   6.068   2.366  0.1575  0.2244 -1.0316
  671MOL0     H90559   0.818   5.927   2.269 -0.1422  1.5739 -2.7245
  671MOL0     H90560   0.819   6.072   2.374 -2.2140 -0.3126  0.0051
  671MOL0     H90561   0.928   6.041   2.093  1.2661 -0.4539 -0.2684
  671MOL0     H90562   0.974   6.179   2.208 -0.9278 -0.7529  0.5677
  671MOL0     H90563   0.805   6.230   2.040  4.8116  0.3606  0.2305
  671MOL0     H90564   0.687   6.142   2.140  1.2301 -1.9946  0.3927
  671MOL0     H90565   0.827   5.390   2.349  2.2123 -2.2166  2.2957
  671MOL0     H90566   0.601   5.263   2.294 -1.6738  0.8152  0.3395
  671MOL0     H90567   0.346   4.960   2.522  0.2946 -1.2810 -1.1594
  671MOL0     H90568   0.194   4.793   2.541  2.4470  2.4209 -1.2608
  671MOL0     H90569   0.320   5.897   3.201  0.2541 -1.0155 -2.0406
  671MOL0     H90570   0.514   5.848   3.351  0.9891 -0.1684  1.6884
  671MOL0     H90571   0.726   5.774   3.677  0.7544  0.7258  0.6644
  671MOL0     H90572   0.963   5.761   3.781  2.5070 -0.0483 -1.6340
  671MOL0     H90573   1.209   5.684   3.925  0.1830 -1.0991  0.0636
  671MOL0     H90574   1.179   5.721   3.756  0.4154 -0.7355 -0.3915
  671MOL0     H90575   1.359   5.508   3.863  3.3967  0.8823 -0.6794
  671MOL0     H90576   1.404   5.655   3.790  1.4332 -1.7153  3.6954
  671MOL0     H90577   1.319   5.595   3.575 -0.6580  0.2086 -0.2130
  671MOL0     H90578   1.218   5.473   3.637 -0.4296  0.7323  2.3545
  671MOL0     H90579   1.417   5.330   3.685 -0.5101 -0.3144  0.3867
  671MOL0     H90580   1.399   5.368   3.504  0.6767  1.3818 -0.9841
  671MOL0     H90581   1.776   5.521   3.563  0.2351 -0.0722  1.7344
  671MOL0     H90582   0.983   5.354   3.700 -0.4502  0.0970 -0.7412
  671MOL0     H90583   0.823   5.236   3.612  1.1178 -0.1718 -1.7975
  671MOL0     H90584   0.657   5.289   3.619 -0.5175  0.7096 -1.2148
  671MOL0     H90585   0.751   5.318   3.469  1.8836 -0.7614 -0.5797
  672MOL0     O90586  10.696   6.057   7.142 -0.1324 -0.3916 -0.2888
  672MOL0     C90587  10.772   6.033   7.050 -0.0086  0.4026 -0.7684
  672MOL0     O90588  10.909   6.048   7.053  0.1838  0.6561 -0.9119
  672MOL0     C90589  10.965   6.114   7.161  0.1567 -0.4684  0.7830
  672MOL0     C90590  11.029   6.043   7.264  0.2999 -0.1626  0.0432
  672MOL0     C90591  11.084   6.114   7.370 -0.6313  0.3331  0.2708
  672MOL0     C90592  11.075   6.255   7.375 -0.6249  0.3060  1.0926
  672MOL0     O90593  11.136   6.325   7.477 -0.4174 -0.2699  0.0172
  672MOL0     C90594  11.274   6.286   7.494  0.4557  0.2727 -0.0236
  672MOL0     C90595  11.319   6.388   7.594 -0.0845 -0.0269 -0.7207
  672MOL0     C90596  11.245   6.388   7.727 -0.1068  0.8106 -0.4325
  672MOL0     C90597  11.328   6.466   7.824  0.1745  0.9449  0.3212
  672MOL0     C90598  11.277   6.468   7.965 -0.2018 -0.1710 -0.0534
  672MOL0     C90599  11.153   6.552   7.963  0.2075 -0.2093 -0.5075
  672MOL0     C90600  11.117   6.581   8.109  0.2821  0.2569 -0.0052
  672MOL0     C90601  10.972   6.638   8.121 -0.4907  0.3648 -0.3354
  672MOL0     N90602  10.945   6.641   8.265 -0.2046  0.1821 -0.2250
  672MOL0     C90603  10.916   6.521   8.326 -0.2423  0.1480 -0.3783
  672MOL0     C90604  10.917   6.554   8.453  0.0066  0.3131 -0.6256
  672MOL0     C90605  10.905   6.449   8.562 -0.3859 -0.2381  0.4921
  672MOL0     C90606  11.039   6.368   8.586  0.0673  0.3778 -0.0646
  672MOL0     C90607  11.150   6.447   8.650 -0.6850  0.4381  0.0254
  672MOL0     C90608  11.258   6.351   8.715  0.9793  0.0149 -0.8454
  672MOL0     O90609  11.337   6.429   8.800 -0.8981  0.1017 -0.1595
  672MOL0     C90610  11.427   6.361   8.869  0.0552 -0.2664  0.7290
  672MOL0     C90611  11.447   6.225   8.876 -0.1961  0.2085  0.8219
  672MOL0     C90612  11.564   6.172   8.912 -1.0575  0.1851 -0.2731
  672MOL0     C90613  11.667   6.250   8.967  0.5142 -0.0838  0.5833
  672MOL0     C90614  11.791   6.191   9.015  0.6911  0.0986 -1.1559
  672MOL0     O90615  11.776   6.065   9.061 -0.1906 -0.2332  0.4431
  672MOL0     C90616  11.893   5.987   9.084  0.1564 -0.3255 -0.0255
  672MOL0     C90617  12.008   5.992   9.012  0.1962 -0.1683 -0.1757
  672MOL0     C90618  12.128   5.925   9.053 -0.2350 -0.1034  0.8828
  672MOL0     C90619  12.129   5.850   9.164  0.1591 -0.2470 -0.6416
  672MOL0     O90620  12.240   5.785   9.202  0.3659  0.2465 -0.6374
  672MOL0     C90621  12.266   5.806   9.340 -0.7153 -0.0675 -0.0529
  672MOL0     C90622  12.356   5.679   9.375  0.2358  0.9081  0.4309
  672MOL0     C90623  12.450   5.708   9.486 -0.6211  0.5735 -0.4250
  672MOL0     C90624  12.563   5.601   9.532  0.0460 -0.4660  0.4303
  672MOL0     C90625  12.658   5.549   9.421  0.2709 -0.6854 -0.5938
  672MOL0     C90626  12.762   5.450   9.464 -0.0844  1.0692  0.2581
  672MOL0     C90627  12.846   5.393   9.346 -1.2930  0.7619 -0.6679
  672MOL0     C90628  12.956   5.280   9.391  0.2703 -0.1082 -0.0595
  672MOL0    Cl90629  13.040   5.217   9.244 -0.2154  0.0840  0.2530
  672MOL0     C90630  12.004   5.826   9.222  0.8048 -1.2658 -0.0182
  672MOL0     C90631  11.890   5.900   9.187 -0.1023  1.0026 -0.6636
  672MOL0     O90632  11.883   6.272   9.028 -0.7515 -0.2942 -0.0120
  672MOL0     C90633  11.646   6.387   8.984 -0.4296 -1.1743  0.1050
  672MOL0     C90634  11.524   6.440   8.927 -0.2700 -0.5989 -0.5966
  672MOL0     N90635  10.954   6.682   8.475  0.0981  0.8343  0.1183
  672MOL0     N90636  10.963   6.738   8.359  0.3268  0.3655 -0.3051
  672MOL0     C90637  11.018   6.328   7.264 -0.2731  0.2759 -0.0010
  672MOL0     C90638  10.961   6.253   7.160  1.3227 -0.8584 -0.4765
  672MOL0     C90639  10.714   5.967   6.931 -0.4746 -1.0525  0.9018
  672MOL0     C90640  10.782   5.993   6.811 -0.8638  1.2661 -0.1573
  672MOL0     C90641  10.745   5.937   6.688 -0.7613 -0.1241 -0.1133
  672MOL0     C90642  10.637   5.854   6.686  0.6056  0.6239  0.5358
  672MOL0     O90643  10.589   5.791   6.574 -0.5482  0.6797  0.8591
  672MOL0     C90644  10.688   5.705   6.498  0.8095 -0.3142 -0.6600
  672MOL0     C90645  10.707   5.772   6.356  0.2420  0.5888  0.4006
  672MOL0     C90646  10.752   5.669   6.259 -0.0793  0.1296  0.6700
  672MOL0     C90647  10.753   5.721   6.103  0.2988 -0.4783 -0.2271
  672MOL0     C90648  10.876   5.795   6.077  1.0166  0.5363  0.4750
  672MOL0     C90649  10.971   5.861   6.039  0.1814  0.0071 -0.7807
  672MOL0     C90650  10.559   5.829   6.802 -0.1730  0.0498  0.5104
  672MOL0     C90651  10.602   5.878   6.924  0.7265 -0.4370  0.1715
  672MOL0     C90652  10.528   5.826   7.047 -0.0442 -0.7716  0.3244
  672MOL0     H90653  11.036   5.935   7.266  0.3368 -0.1503  1.1821
  672MOL0     H90654  11.133   6.058   7.449 -0.0004 -0.7297 -0.8515
  672MOL0     H90655  11.287   6.181   7.523  1.1720  0.0506 -1.0976
  672MOL0     H90656  11.330   6.307   7.403 -2.1131 -0.8293 -1.9804
  672MOL0     H90657  11.298   6.489   7.557 -0.7164 -0.2448 -0.9651
  672MOL0     H90658  11.425   6.365   7.610 -0.3174 -0.5232  0.2085
  672MOL0     H90659  11.229   6.288   7.767 -1.3114  1.5814  1.1290
  672MOL0     H90660  11.153   6.445   7.710 -1.0437 -1.2008 -2.8280
  672MOL0     H90661  11.427   6.420   7.826 -0.8961 -1.5259  0.0996
  672MOL0     H90662  11.330   6.565   7.777 -3.4305  1.9941  2.0270
  672MOL0     H90663  11.260   6.374   8.018 -0.4093  0.8082  1.7048
  672MOL0     H90664  11.361   6.518   8.015 -0.8891  0.7049  0.2536
  672MOL0     H90665  11.162   6.637   7.894 -1.7853 -0.2817 -0.9088
  672MOL0     H90666  11.069   6.496   7.921 -1.4910  1.6516  0.2061
  672MOL0     H90667  11.189   6.648   8.156  1.6773  1.0501 -3.0004
  672MOL0     H90668  11.135   6.491   8.168  1.9236 -0.1527 -1.0643
  672MOL0     H90669  10.971   6.740   8.083  1.0282  1.0675  1.3803
  672MOL0     H90670  10.895   6.570   8.084 -0.1934 -0.6998  0.9367
  672MOL0     H90671  10.898   6.427   8.274  2.6987  0.4955 -2.2368
  672MOL0     H90672  10.892   6.505   8.655  1.7265  1.6532 -0.2732
  672MOL0     H90673  10.820   6.384   8.538 -0.1391 -1.5541  2.8814
  672MOL0     H90674  11.003   6.288   8.652 -2.0743  0.0390 -1.5406
  672MOL0     H90675  11.070   6.320   8.493 -0.6272 -4.1667  1.7603
  672MOL0     H90676  11.109   6.516   8.724 -2.8427 -0.3847 -0.3338
  672MOL0     H90677  11.204   6.497   8.569 -0.7999  0.4902 -0.0194
  672MOL0     H90678  11.303   6.304   8.627  2.4338  2.1116 -1.2957
  672MOL0     H90679  11.199   6.287   8.782  2.6064 -0.4254  0.2174
  672MOL0     H90680  11.376   6.151   8.840  0.8301 -0.3702 -0.0755
  672MOL0     H90681  11.576   6.066   8.892 -0.2716  0.5770 -2.0686
  672MOL0     H90682  12.001   6.064   8.931 -0.6764  0.4024  0.3974
  672MOL0     H90683  12.218   5.926   8.992 -1.5456 -1.5836 -1.2437
  672MOL0     H90684  12.316   5.902   9.352  0.1222 -0.5785  0.6450
  672MOL0     H90685  12.176   5.810   9.402  0.8748 -0.5091  2.4633
  672MOL0     H90686  12.296   5.589   9.391 -0.0542  1.5101  3.0967
  672MOL0     H90687  12.421   5.649   9.292 -0.3529 -2.3374  1.0125
  672MOL0     H90688  12.506   5.801   9.477  2.7032 -1.2476 -0.1152
  672MOL0     H90689  12.389   5.717   9.577  0.5782  2.0998  0.2678
  672MOL0     H90690  12.503   5.521   9.576 -0.4838 -0.1612  0.2862
  672MOL0     H90691  12.616   5.649   9.614  0.0880  1.3683 -0.6070
  672MOL0     H90692  12.704   5.635   9.371 -1.0509 -0.5037 -1.5535
  672MOL0     H90693  12.585   5.499   9.356 -1.5841  1.3829 -0.2285
  672MOL0     H90694  12.826   5.487   9.545 -1.7620  1.0949  1.6203
  672MOL0     H90695  12.711   5.361   9.502 -2.4834  1.2925 -2.1470
  672MOL0     H90696  12.898   5.476   9.297  0.5931 -0.0812 -0.1939
  672MOL0     H90697  12.774   5.347   9.278 -0.1783 -0.1280 -1.2849
  672MOL0     H90698  13.021   5.333   9.462 -0.3402  1.2209 -0.4607
  672MOL0     H90699  12.903   5.199   9.441 -1.3231 -0.6780 -2.5241
  672MOL0     H90700  11.998   5.749   9.298 -3.1174 -0.6321  0.5449
  672MOL0     H90701  11.795   5.882   9.237  1.0183 -0.9347  0.9162
  672MOL0     H90702  11.713   6.462   9.024  0.1625 -1.0672 -1.0619
  672MOL0     H90703  11.507   6.547   8.929  0.1510 -0.5336  0.8799
  672MOL0     H90704  11.009   6.436   7.273 -2.0747  0.0763  1.0010
  672MOL0     H90705  10.913   6.304   7.077 -1.3839  1.0785  2.0347
  672MOL0     H90706  10.867   6.060   6.802  0.8396 -0.7804 -0.2552
  672MOL0     H90707  10.797   5.977   6.601 -0.6946 -1.6105 -0.7871
  672MOL0     H90708  10.652   5.602   6.486  0.2315 -0.3259  0.9057
  672MOL0     H90709  10.784   5.711   6.550 -0.8348  3.7734  2.4887
  672MOL0     H90710  10.791   5.842   6.354 -0.1232  1.0801  1.7127
  672MOL0     H90711  10.624   5.834   6.322  3.1505  3.5128 -2.0626
  672MOL0     H90712  10.687   5.581   6.258 -0.9798  0.5950 -3.8437
  672MOL0     H90713  10.857   5.648   6.278  0.1080 -0.1312 -0.5795
  672MOL0     H90714  10.754   5.633   6.039  1.8067 -0.3579 -0.4067
  672MOL0     H90715  10.663   5.777   6.073  0.5925 -0.6463 -1.4521
  672MOL0     H90716  11.056   5.922   6.016  0.7526 -1.0040 -1.4248
  672MOL0     H90717  10.468   5.771   6.795  0.2811 -0.9785  2.3291
  672MOL0     H90718  10.492   5.919   7.091 -0.4643  0.4552 -2.3848
  672MOL0     H90719  10.447   5.758   7.018 -0.6536 -0.5884  1.5469
  672MOL0     H90720  10.593   5.769   7.113  0.0497 -0.4917  0.4735
  673MOL0     O90721   8.517  10.235   7.053  0.4403 -0.7591  0.4566
  673MOL0     C90722   8.454  10.214   7.155  0.5817 -0.5260  0.2297
  673MOL0     O90723   8.509  10.184   7.269 -0.6107  0.4194  0.0929
  673MOL0     C90724   8.645  10.193   7.291 -0.3700 -0.6175 -0.0621
  673MOL0     C90725   8.703  10.323   7.272  0.5035  0.5123 -0.5408
  673MOL0     C90726   8.836  10.341   7.297  0.6400  0.8678  1.3033
  673MOL0     C90727   8.910  10.237   7.356  0.0460 -0.3467 -0.0520
  673MOL0     O90728   9.035  10.258   7.405 -0.2355  0.6874 -0.0545
  673MOL0     C90729   9.113  10.366   7.352 -1.1514 -0.1881  0.4691
  673MOL0     C90730   9.256  10.366   7.406  0.3014 -0.3810 -0.1695
  673MOL0     C90731   9.322  10.231   7.398 -0.2491 -0.9688 -0.2685
  673MOL0     C90732   9.462  10.237   7.449  0.0918  1.0746  0.3394
  673MOL0     C90733   9.530  10.099   7.447  0.1559 -0.0318  0.3666
  673MOL0     C90734   9.672  10.102   7.500  0.0344 -0.4757 -0.5736
  673MOL0     C90735   9.684  10.133   7.655  0.0399  0.4207 -0.0754
  673MOL0     C90736   9.791  10.235   7.682 -1.1220 -0.4279 -0.9903
  673MOL0     N90737   9.920  10.184   7.638  1.3525  0.0361 -0.2963
  673MOL0     C90738   9.992  10.092   7.703  0.0576  0.6306 -0.3769
  673MOL0     C90739  10.107  10.085   7.622 -0.6582  0.2141  0.3012
  673MOL0     C90740  10.212   9.979   7.635  0.0635 -0.6648 -0.2734
  673MOL0     C90741  10.182   9.858   7.547  0.9834 -0.5773  0.0346
  673MOL0     C90742  10.247   9.726   7.599 -0.3375 -0.0117  0.6837
  673MOL0     C90743  10.397   9.721   7.576  0.5149 -0.0351  0.9522
  673MOL0     O90744  10.426   9.764   7.448  0.2098 -0.2720 -0.5771
  673MOL0     C90745  10.555   9.777   7.407  0.4470  0.9276 -0.2247
  673MOL0     C90746  10.668   9.736   7.480  0.7113 -0.2585 -0.5927
  673MOL0     C90747  10.796   9.760   7.433  0.0343 -0.3624  0.2851
  673MOL0     C90748  10.822   9.831   7.310  1.2748  0.5007  0.2223
  673MOL0     C90749  10.953   9.864   7.255 -0.1310  0.0246  0.0581
  673MOL0     O90750  11.053   9.820   7.334  0.8175  0.1657  0.7546
  673MOL0     C90751  11.179   9.826   7.296  0.0319 -0.2752 -0.2053
  673MOL0     C90752  11.224   9.784   7.171 -0.7335 -0.4141  0.3270
  673MOL0     C90753  11.355   9.799   7.125 -0.3710  0.0450 -0.4230
  673MOL0     C90754  11.446   9.863   7.206  0.5544  0.1373  0.4452
  673MOL0     O90755  11.567   9.865   7.139 -0.3160  0.5350  0.1096
  673MOL0     C90756  11.684   9.899   7.222 -0.4537  0.2275  0.2691
  673MOL0     C90757  11.805   9.919   7.129  0.3378  0.1920 -0.4822
  673MOL0     C90758  11.937   9.950   7.194 -0.3939 -0.2902  0.2845
  673MOL0     C90759  11.968  10.101   7.181 -0.5068 -0.2943 -0.5455
  673MOL0     C90760  12.120  10.124   7.235  0.1455 -0.1072 -0.1360
  673MOL0     C90761  12.144  10.274   7.244  0.6583 -0.3703  0.1649
  673MOL0     C90762  12.294  10.299   7.256  0.6116 -0.5399  0.6222
  673MOL0     C90763  12.353  10.234   7.378 -0.5648 -1.3019 -0.4919
  673MOL0    Cl90764  12.509  10.307   7.424  0.3469  0.0696 -0.2246
  673MOL0     C90765  11.407   9.905   7.338 -0.2173  0.3333 -1.0232
  673MOL0     C90766  11.274   9.890   7.376 -0.3271  1.0704 -0.3691
  673MOL0     O90767  10.962   9.922   7.152 -0.1984 -0.0007  0.6393
  673MOL0     C90768  10.706   9.868   7.238  0.6002 -0.7500  0.9229
  673MOL0     C90769  10.582   9.837   7.288  0.7832 -0.0375  1.0575
  673MOL0     N90770  10.102  10.178   7.525  0.1929  0.3167  0.6123
  673MOL0     N90771   9.992  10.240   7.542 -0.0325 -0.1149  1.0035
  673MOL0     C90772   8.863  10.114   7.374  0.6295  0.0667  0.3387
  673MOL0     C90773   8.725  10.097   7.346  0.5483 -1.3093  0.0418
  673MOL0     C90774   8.313  10.181   7.146  0.7584 -0.2966 -0.2380
  673MOL0     C90775   8.233  10.249   7.239 -0.2321 -0.5168  0.4564
  673MOL0     C90776   8.091  10.245   7.235 -0.1165 -0.1844 -1.0968
  673MOL0     C90777   8.021  10.167   7.139  0.1581 -0.1531  0.5672
  673MOL0     O90778   7.880  10.165   7.151  0.3835  0.1226  0.2839
  673MOL0     C90779   7.815  10.086   7.053  0.7494  0.2751 -0.1601
  673MOL0     C90780   7.674  10.035   7.099 -0.3531 -0.2978  0.0684
  673MOL0     C90781   7.588   9.968   6.988  0.8873 -0.0679 -0.0374
  673MOL0     C90782   7.466   9.879   7.044 -0.4350 -0.1670  0.1802
  673MOL0     C90783   7.377   9.833   6.937 -0.0639 -0.8282  0.3404
  673MOL0     C90784   7.297   9.785   6.860  0.1740  0.1892 -0.1547
  673MOL0     C90785   8.098  10.111   7.032  0.0433  0.4208 -0.3547
  673MOL0     C90786   8.238  10.115   7.036 -0.1713 -0.1366 -0.3124
  673MOL0     C90787   8.314  10.041   6.925 -0.1319 -0.0023  0.3685
  673MOL0     H90788   8.645  10.404   7.228  2.4905  3.2186  1.4580
  673MOL0     H90789   8.878  10.439   7.278 -0.3264  0.7752 -1.9901
  673MOL0     H90790   9.125  10.359   7.244  0.7977 -1.8221  0.7446
  673MOL0     H90791   9.072  10.464   7.379 -0.1366  1.0964 -2.2581
  673MOL0     H90792   9.252  10.410   7.506 -0.6487 -0.3461 -0.2139
  673MOL0     H90793   9.311  10.441   7.349 -0.0809 -1.0762 -1.4991
  673MOL0     H90794   9.331  10.197   7.295 -0.1034  1.4530 -1.1036
  673MOL0     H90795   9.263  10.162   7.461  1.2608 -0.2192  2.1254
  673MOL0     H90796   9.522  10.294   7.378 -0.8005 -0.6366 -1.8900
  673MOL0     H90797   9.459  10.286   7.547 -0.2639  0.7779  0.4781
  673MOL0     H90798   9.472  10.019   7.492  1.3290 -0.9878  0.2425
  673MOL0     H90799   9.534  10.071   7.341 -3.6031 -2.2252  0.6242
  673MOL0     H90800   9.733  10.016   7.469  3.6414  1.5623  0.3286
  673MOL0     H90801   9.726  10.187   7.458  2.5796 -1.6962 -0.0104
  673MOL0     H90802   9.711  10.033   7.690 -2.5522 -0.5653 -0.6112
  673MOL0     H90803   9.595  10.164   7.711 -0.4604 -3.2610  1.5242
  673MOL0     H90804   9.763  10.331   7.637  2.2013  0.8383 -0.5960
  673MOL0     H90805   9.797  10.245   7.791 -1.1667 -1.3805 -0.8924
  673MOL0     H90806   9.963  10.030   7.788 -0.0857 -0.9735 -1.5587
  673MOL0     H90807  10.312  10.022   7.623  0.3283 -0.3529  2.3688
  673MOL0     H90808  10.222   9.950   7.740  1.4945  2.0663  0.4408
  673MOL0     H90809  10.073   9.850   7.536  0.6382  0.6553  1.9957
  673MOL0     H90810  10.224   9.888   7.451  0.1889  0.0134 -0.1375
  673MOL0     H90811  10.196   9.652   7.537  0.5637 -1.9084  2.0909
  673MOL0     H90812  10.224   9.712   7.705 -1.6336  3.6559  1.0523
  673MOL0     H90813  10.429   9.619   7.596 -0.4388 -0.8387 -1.3752
  673MOL0     H90814  10.447   9.783   7.651  1.3774 -0.3773  0.6698
  673MOL0     H90815  10.662   9.686   7.576  0.4296  2.9584  1.2157
  673MOL0     H90816  10.876   9.721   7.495  0.8598  0.9893  0.1110
  673MOL0     H90817  11.172   9.742   7.086  1.1618 -2.8978  0.2760
  673MOL0     H90818  11.371   9.757   7.026 -1.1923 -2.8965  0.5988
  673MOL0     H90819  11.672   9.988   7.285 -1.7753  0.0213  0.3487
  673MOL0     H90820  11.707   9.821   7.295  2.8634 -1.1327 -1.9834
  673MOL0     H90821  11.821   9.822   7.083  3.7853  0.4153 -0.0025
  673MOL0     H90822  11.780   9.993   7.052 -1.7492 -1.2041 -1.2360
  673MOL0     H90823  11.928   9.915   7.297 -1.0292 -2.2591 -0.3823
  673MOL0     H90824  12.021   9.897   7.149 -0.9954 -0.6798 -0.4045
  673MOL0     H90825  11.893  10.151   7.243  0.6932 -0.4928  1.1516
  673MOL0     H90826  11.954  10.137   7.079 -3.4956  1.7334  0.4435
  673MOL0     H90827  12.192  10.079   7.166 -0.4376 -2.8916  0.9272
  673MOL0     H90828  12.131  10.078   7.334  0.1537 -0.7234 -0.4214
  673MOL0     H90829  12.101  10.320   7.154 -0.1973  0.5514  1.0301
  673MOL0     H90830  12.092  10.314   7.331  0.3798  1.4961 -0.8230
  673MOL0     H90831  12.304  10.407   7.274  1.6122 -0.0586 -2.2649
  673MOL0     H90832  12.345  10.280   7.161 -3.5524 -0.8913 -1.7835
  673MOL0     H90833  12.285  10.253   7.461  1.5750 -1.7829  1.4914
  673MOL0     H90834  12.367  10.126   7.368  0.1030 -1.0738 -2.4996
  673MOL0     H90835  11.480   9.951   7.404  1.3336 -0.5610 -2.0521
  673MOL0     H90836  11.249   9.921   7.477  0.1438 -1.1312  0.4896
  673MOL0     H90837  10.721   9.917   7.142 -0.7277 -0.1466  1.0046
  673MOL0     H90838  10.498   9.870   7.227 -0.2499 -0.7000  2.0965
  673MOL0     H90839   8.910  10.030   7.424 -0.3631 -1.0067 -0.4800
  673MOL0     H90840   8.672  10.003   7.358 -0.8464 -0.2865  2.4516
  673MOL0     H90841   8.275  10.309   7.319  0.3814 -1.2966  0.7394
  673MOL0     H90842   8.039  10.305   7.310  1.3999 -1.6680  1.2650
  673MOL0     H90843   7.871   9.999   7.019  2.0396 -0.1288  2.6596
  673MOL0     H90844   7.796  10.148   6.965  2.0671 -0.7069 -1.1752
  673MOL0     H90845   7.623  10.125   7.134 -0.6505  0.4840 -2.1999
  673MOL0     H90846   7.677   9.958   7.177 -0.4808 -2.5257 -2.0113
  673MOL0     H90847   7.652   9.901   6.930  1.1642 -0.8716  1.1419
  673MOL0     H90848   7.549  10.045   6.921  0.7009 -1.5062 -1.6574
  673MOL0     H90849   7.501   9.789   7.096 -0.9400 -0.1076  0.6272
  673MOL0     H90850   7.409   9.950   7.105 -1.9025 -0.7958 -0.4185
  673MOL0     H90851   7.236   9.736   6.787  1.9597 -0.7058 -1.1103
  673MOL0     H90852   8.060  10.056   6.946  1.0713  0.3945 -0.8086
  673MOL0     H90853   8.255   9.974   6.862  2.4555 -2.1296  0.0473
  673MOL0     H90854   8.348  10.118   6.855 -1.4989 -1.4315 -1.9553
  673MOL0     H90855   8.407   9.997   6.961 -1.0760 -0.4038  2.4758
  674MOL0     O90856   9.798   9.026   9.050 -0.1543 -0.0287 -0.1211
  674MOL0     C90857   9.836   8.911   9.052  0.4957 -0.6255  0.0439
  674MOL0     O90858   9.762   8.805   9.045  0.3515 -0.1293 -0.1826
  674MOL0     C90859   9.622   8.808   9.060 -0.3101  0.2851  0.5892
  674MOL0     C90860   9.562   8.764   9.179  0.4094  0.0666  0.4487
  674MOL0     C90861   9.417   8.768   9.195 -0.9563  0.2252  0.3803
  674MOL0     C90862   9.339   8.812   9.083  0.1258 -1.0598 -0.1813
  674MOL0     O90863   9.204   8.820   9.113 -0.5442  1.1369  0.0917
  674MOL0     C90864   9.129   8.834   8.996  0.2393 -1.4548  0.4976
  674MOL0     C90865   8.978   8.838   9.021  0.3701 -0.2001 -0.2138
  674MOL0     C90866   8.948   8.945   9.120 -0.3961  0.5823 -0.2519
  674MOL0     C90867   8.798   8.944   9.157 -0.7021 -0.5631  0.2750
  674MOL0     C90868   8.765   9.080   9.219 -0.2726  0.4720 -0.4354
  674MOL0     C90869   8.624   9.092   9.265 -0.8123  0.2640  0.2320
  674MOL0     C90870   8.600   9.211   9.350 -0.4038 -0.3969  0.6478
  674MOL0     C90871   8.600   9.356   9.287  0.2881  0.6023 -0.7105
  674MOL0     N90872   8.730   9.400   9.237 -0.3840  0.5818 -0.1039
  674MOL0     C90873   8.846   9.381   9.314 -0.0220  0.2402 -0.2749
  674MOL0     C90874   8.937   9.447   9.240  0.5689 -0.5241  0.1905
  674MOL0     C90875   9.079   9.478   9.279 -0.2543  0.3196  0.1513
  674MOL0     C90876   9.163   9.515   9.163 -0.3428  0.1423 -0.0439
  674MOL0     C90877   9.163   9.395   9.064 -0.3243  0.2969 -0.0359
  674MOL0     C90878   9.277   9.438   8.965 -0.2042 -0.3194  0.4582
  674MOL0     O90879   9.334   9.313   8.912  0.0318 -0.8096  0.6757
  674MOL0     C90880   9.454   9.318   8.846  0.1103  0.6601  0.4377
  674MOL0     C90881   9.524   9.194   8.838 -0.0796  0.2809  0.3969
  674MOL0     C90882   9.644   9.182   8.768 -0.0603  0.3150 -0.6933
  674MOL0     C90883   9.699   9.304   8.711 -0.9219  0.4513 -0.0796
  674MOL0     C90884   9.839   9.292   8.646 -0.1257 -1.0315  0.0639
  674MOL0     O90885   9.903   9.179   8.665 -0.9084  0.0571  0.0957
  674MOL0     C90886  10.009   9.137   8.595 -1.1585  0.2091 -0.1162
  674MOL0     C90887  10.079   9.037   8.656  0.7588  0.0636 -0.0981
  674MOL0     C90888  10.204   9.000   8.608 -0.4406  0.1181 -0.2933
  674MOL0     C90889  10.253   9.043   8.484  0.8645 -0.5959 -0.5275
  674MOL0     O90890  10.364   8.988   8.438  0.4330 -0.2703 -0.0457
  674MOL0     C90891  10.422   9.055   8.325  0.7860  0.0478 -0.4386
  674MOL0     C90892  10.502   9.179   8.359  0.5092  0.0095  0.0481
  674MOL0     C90893  10.607   9.219   8.240 -0.1280 -0.2713  0.1851
  674MOL0     C90894  10.744   9.266   8.305 -0.0223  0.4142  0.0999
  674MOL0     C90895  10.807   9.356   8.191  0.4557 -0.4031 -0.5335
  674MOL0     C90896  10.945   9.404   8.242 -0.1439  0.4221 -0.0564
  674MOL0     C90897  11.001   9.515   8.151  0.8267  1.1063 -0.1556
  674MOL0     C90898  11.142   9.557   8.177 -0.1815 -0.7617  0.1205
  674MOL0    Cl90899  11.114   9.667   8.316 -0.1940 -0.1507  0.1975
  674MOL0     C90900  10.176   9.142   8.424 -0.5851 -0.3433 -0.5960
  674MOL0     C90901  10.064   9.196   8.480  0.8722  0.2956 -0.5167
  674MOL0     O90902   9.869   9.393   8.577 -0.1034  1.0458 -0.6167
  674MOL0     C90903   9.627   9.426   8.725 -0.0714 -0.6443  0.3968
  674MOL0     C90904   9.506   9.432   8.795 -0.3941 -0.1430  0.4259
  674MOL0     N90905   8.875   9.484   9.116 -0.8838  0.2287 -0.2775
  674MOL0     N90906   8.752   9.443   9.114 -0.6977  0.0018 -0.1179
  674MOL0     C90907   9.401   8.852   8.965  0.4747  0.7001 -0.0159
  674MOL0     C90908   9.542   8.848   8.956 -0.7822 -0.1146 -0.4411
  674MOL0     C90909   9.972   8.885   9.019  0.2242  0.7224  0.3143
  674MOL0     C90910  10.016   8.787   8.923  0.4965 -0.1142  0.1156
  674MOL0     C90911  10.150   8.758   8.890 -0.1401 -0.6064 -0.5195
  674MOL0     C90912  10.252   8.821   8.957 -0.0397 -0.1319 -0.7352
  674MOL0     O90913  10.389   8.793   8.941 -0.0439 -0.5788  0.2199
  674MOL0     C90914  10.437   8.674   8.885 -1.0200  0.3116  0.4495
  674MOL0     C90915  10.472   8.692   8.731 -0.2415  0.4622  0.0275
  674MOL0     C90916  10.581   8.791   8.707  0.5679 -0.1521  0.0602
  674MOL0     C90917  10.621   8.807   8.551 -0.2778  0.6317 -0.3033
  674MOL0     C90918  10.752   8.864   8.528  0.5873  0.1801  0.1910
  674MOL0     C90919  10.858   8.912   8.518  0.6472  0.7842 -0.5466
  674MOL0     C90920  10.212   8.921   9.042  0.0336  0.4374 -0.6885
  674MOL0     C90921  10.075   8.961   9.073 -0.2197 -0.1108 -0.0588
  674MOL0     C90922  10.047   9.068   9.181 -0.2452  0.3215  0.2902
  674MOL0     H90923   9.621   8.732   9.264  0.2167 -1.8281 -0.0800
  674MOL0     H90924   9.385   8.740   9.295  1.0179 -0.9934  0.7305
  674MOL0     H90925   9.158   8.930   8.952 -1.8516 -0.7968  0.4658
  674MOL0     H90926   9.147   8.755   8.922  1.7936  1.3335 -2.3137
  674MOL0     H90927   8.952   8.740   9.063  2.1129  0.0659  1.6369
  674MOL0     H90928   8.915   8.852   8.933 -1.4908  0.0550  1.1027
  674MOL0     H90929   8.977   9.047   9.090 -0.1541  0.2417 -1.1951
  674MOL0     H90930   8.997   8.923   9.216  0.9461 -0.9976 -1.2421
  674MOL0     H90931   8.747   8.933   9.061  1.6175 -1.6696 -0.8984
  674MOL0     H90932   8.777   8.860   9.224 -2.4952  0.2109  0.7609
  674MOL0     H90933   8.829   9.107   9.304 -1.0801  1.6663 -0.1889
  674MOL0     H90934   8.787   9.159   9.146 -0.0452  0.2503 -0.6089
  674MOL0     H90935   8.575   9.097   9.167  2.4933 -1.4844 -1.7060
  674MOL0     H90936   8.598   8.996   9.311 -0.9982  0.4124  0.4360
  674MOL0     H90937   8.654   9.209   9.446  4.8458  1.9329 -1.8240
  674MOL0     H90938   8.495   9.205   9.379 -0.2059 -0.4080  1.3830
  674MOL0     H90939   8.521   9.345   9.211 -0.0990  2.2914 -0.6048
  674MOL0     H90940   8.565   9.433   9.356  0.5897 -1.0319  1.3598
  674MOL0     H90941   8.855   9.342   9.415  0.8759 -1.4347 -0.9521
  674MOL0     H90942   9.093   9.554   9.357 -1.0344 -0.3492  0.9654
  674MOL0     H90943   9.124   9.388   9.323 -1.6688  1.2168  3.8318
  674MOL0     H90944   9.124   9.601   9.108  0.7876  0.7473  0.0926
  674MOL0     H90945   9.260   9.544   9.204 -1.9058  3.1553  1.8157
  674MOL0     H90946   9.068   9.369   9.018 -1.4207 -0.9351  2.6832
  674MOL0     H90947   9.190   9.302   9.116 -1.2351 -0.8222 -1.4946
  674MOL0     H90948   9.358   9.496   9.010 -1.5115  0.5712  1.7348
  674MOL0     H90949   9.232   9.499   8.886 -1.9291 -1.4082  0.5336
  674MOL0     H90950   9.467   9.107   8.869 -1.9403  0.7710 -1.3763
  674MOL0     H90951   9.688   9.084   8.750 -0.0755  0.3862 -1.1272
  674MOL0     H90952  10.046   8.999   8.752 -1.8931 -2.3546 -1.7962
  674MOL0     H90953  10.256   8.917   8.656 -0.9232 -0.5370 -0.8706
  674MOL0     H90954  10.499   8.989   8.283  0.9508 -1.2538  1.7462
  674MOL0     H90955  10.358   9.076   8.239  1.1916  0.1781 -0.7152
  674MOL0     H90956  10.434   9.262   8.381  2.7191  3.3184 -4.0535
  674MOL0     H90957  10.553   9.169   8.455  0.4380 -2.6992 -0.1177
  674MOL0     H90958  10.626   9.136   8.170 -0.7679  1.2424 -1.8674
  674MOL0     H90959  10.560   9.299   8.183 -2.4767 -0.2746  1.9897
  674MOL0     H90960  10.807   9.178   8.315  0.5926  0.5009 -2.3759
  674MOL0     H90961  10.722   9.325   8.394 -0.7403  1.3439 -0.6596
  674MOL0     H90962  10.747   9.437   8.150  0.8028 -0.8460 -1.9735
  674MOL0     H90963  10.817   9.281   8.112 -0.6200 -1.7650  0.5573
  674MOL0     H90964  10.927   9.446   8.341  0.3153  0.9500 -0.1929
  674MOL0     H90965  11.013   9.318   8.250 -0.6589 -0.2126 -1.9113
  674MOL0     H90966  10.933   9.599   8.144 -0.3505  0.1468 -0.6122
  674MOL0     H90967  11.002   9.464   8.054  0.4462 -0.4304  0.6210
  674MOL0     H90968  11.194   9.465   8.204 -0.2622 -0.5531  1.0041
  674MOL0     H90969  11.190   9.609   8.093 -1.7055 -0.7943 -0.8246
  674MOL0     H90970  10.211   9.179   8.328  3.3085 -1.5203  0.1787
  674MOL0     H90971  10.013   9.282   8.438  4.3137  2.1098 -1.2882
  674MOL0     H90972   9.656   9.516   8.673 -1.5311 -0.0336  0.6053
  674MOL0     H90973   9.455   9.527   8.802 -0.8811 -0.4124  0.6387
  674MOL0     H90974   9.348   8.871   8.872  1.9185 -0.5803 -1.1489
  674MOL0     H90975   9.595   8.886   8.870 -1.0930  0.6647 -0.2937
  674MOL0     H90976   9.934   8.734   8.876  0.4667  0.6278 -0.6733
  674MOL0     H90977  10.175   8.680   8.818  1.8926  0.8537 -1.4953
  674MOL0     H90978  10.367   8.592   8.898  0.6178 -1.4709 -1.2552
  674MOL0     H90979  10.527   8.642   8.938  0.2163  0.5375 -1.3871
  674MOL0     H90980  10.389   8.733   8.673  1.0637  3.5535  0.1789
  674MOL0     H90981  10.502   8.592   8.696 -2.0030 -0.0369 -0.1568
  674MOL0     H90982  10.672   8.757   8.758 -0.0442 -1.0207  0.6001
  674MOL0     H90983  10.541   8.888   8.736 -0.9384  1.9317 -6.9700
  674MOL0     H90984  10.603   8.712   8.499  4.1784 -0.1317 -0.7903
  674MOL0     H90985  10.562   8.890   8.513  0.3785  0.6778 -1.2392
  674MOL0     H90986  10.956   8.954   8.509  1.6933 -0.9378  1.7175
  674MOL0     H90987  10.297   8.969   9.089  0.6499  0.1860 -1.5104
  674MOL0     H90988   9.997   9.153   9.134 -0.2758 -0.7404 -1.7218
  674MOL0     H90989   9.990   9.023   9.262 -0.2122  1.6292  1.0578
  674MOL0     H90990  10.146   9.099   9.217  0.1805 -0.0085 -0.5572
  675MOL0     O90991  10.161   9.073   7.030 -0.3774  0.7583  0.7308
  675MOL0     C90992  10.118   8.976   6.959 -0.1353  0.1374  0.0602
  675MOL0     O90993  10.190   8.899   6.880 -0.2687  0.1500  0.4515
  675MOL0     C90994  10.329   8.909   6.876 -0.1499  0.2063 -0.2229
  675MOL0     C90995  10.395   8.791   6.869 -0.0471  0.0821  0.0186
  675MOL0     C90996  10.525   8.791   6.820 -0.2344 -0.5513  0.2323
  675MOL0     C90997  10.593   8.900   6.784 -0.3698 -1.0835  0.3607
  675MOL0     O90998  10.730   8.897   6.771 -0.0744 -0.6027 -0.3303
  675MOL0     C90999  10.809   9.012   6.741 -0.5186 -0.7776 -0.6049
  675MOL0     C91000  10.962   8.988   6.772 -0.0536 -0.0487 -0.2067
  675MOL0     C91001  11.026   8.893   6.672  1.2334 -0.1775 -0.5749
  675MOL0     C91002  11.169   8.857   6.703  1.0333 -0.6649  0.7315
  675MOL0     C91003  11.220   8.756   6.594  0.1610 -0.0048 -0.7406
  675MOL0     C91004  11.366   8.770   6.552  0.6874 -0.0251 -0.6529
  675MOL0     C91005  11.475   8.778   6.670  0.4824 -0.6923  0.0149
  675MOL0     C91006  11.453   8.654   6.761 -0.4332  0.2646 -0.6594
  675MOL0     N91007  11.487   8.526   6.694  0.4432 -0.1752 -0.0685
  675MOL0     C91008  11.615   8.471   6.674  0.8912 -0.4491  0.9885
  675MOL0     C91009  11.604   8.350   6.619  0.5538  0.5716 -0.0647
  675MOL0     C91010  11.724   8.266   6.579  0.1280  0.0717  0.1927
  675MOL0     C91011  11.823   8.222   6.680 -0.1798 -0.5812 -1.1555
  675MOL0     C91012  11.918   8.119   6.616 -0.0468  0.0255 -0.0594
  675MOL0     C91013  12.029   8.082   6.713 -0.4662  0.0677  0.2205
  675MOL0     O91014  12.145   8.045   6.634  0.3718  0.1929 -0.2059
  675MOL0     C91015  12.274   8.039   6.688  0.0929 -0.2210  0.5053
  675MOL0     C91016  12.305   7.979   6.815 -0.5207 -0.0404 -0.2754
  675MOL0     C91017  12.440   7.949   6.851  0.6032 -0.2194  0.0201
  675MOL0     C91018  12.546   7.994   6.768  0.4318 -0.0196 -0.5328
  675MOL0     C91019  12.680   7.976   6.824 -0.6294 -0.0459  0.5926
  675MOL0     O91020  12.699   7.952   6.955 -0.4429 -0.7975 -0.6833
  675MOL0     C91021  12.817   7.997   7.002 -0.0328  0.2753  0.2321
  675MOL0     C91022  12.829   8.110   7.077  0.1269  0.4413 -0.0608
  675MOL0     C91023  12.951   8.142   7.133  0.0840  0.2913 -0.0498
  675MOL0     C91024  13.072   8.072   7.107  0.4550 -0.1296  0.4059
  675MOL0     O91025  13.188   8.121   7.159  0.2277  0.1645  0.1963
  675MOL0     C91026  13.302   8.130   7.063 -0.2621 -0.7490 -0.0478
  675MOL0     C91027  13.402   8.243   7.099 -0.3411  0.0666  0.0438
  675MOL0     C91028  13.499   8.276   6.989  0.0645  1.1580  0.0998
  675MOL0     C91029  13.440   8.329   6.857  0.3524  0.6524 -0.7155
  675MOL0     C91030  13.556   8.392   6.782 -0.2380  0.2686 -0.6119
  675MOL0     C91031  13.531   8.427   6.638  0.1057 -0.1290  0.4141
  675MOL0     C91032  13.653   8.497   6.571  0.6240  0.2894 -0.4338
  675MOL0     C91033  13.621   8.538   6.430 -0.3182  0.5771  0.0673
  675MOL0    Cl91034  13.547   8.421   6.326 -0.0583  0.3522  0.2232
  675MOL0     C91035  13.062   7.957   7.034 -0.7110 -0.0798 -0.0904
  675MOL0     C91036  12.933   7.918   6.989 -0.1338 -0.1054  0.3402
  675MOL0     O91037  12.773   7.993   6.740  0.3715  0.4339  0.0370
  675MOL0     C91038  12.517   8.074   6.657  0.5425  1.1352  0.2638
  675MOL0     C91039  12.383   8.091   6.615 -0.5099 -0.6696 -0.0085
  675MOL0     N91040  11.470   8.322   6.610  0.5372  0.6382 -0.4392
  675MOL0     N91041  11.404   8.423   6.659  0.0064  0.6647  0.7611
  675MOL0     C91042  10.521   9.029   6.790  0.5351  0.3333 -0.5319
  675MOL0     C91043  10.387   9.028   6.832  0.3441 -1.0885  0.2316
  675MOL0     C91044   9.971   8.938   6.957 -0.1692 -0.1338  0.1402
  675MOL0     C91045   9.870   9.044   6.971  0.0226  0.1521  0.0074
  675MOL0     C91046   9.734   9.014   6.995 -0.0842 -0.1692  0.5185
  675MOL0     C91047   9.687   8.880   6.988 -0.2645  0.3708 -0.9484
  675MOL0     O91048   9.562   8.834   7.009  0.2749  0.3460  0.1342
  675MOL0     C91049   9.469   8.937   7.051 -0.0127 -1.0784 -0.5210
  675MOL0     C91050   9.326   8.873   7.075  0.1946 -1.1165 -0.0655
  675MOL0     C91051   9.219   8.959   7.151  0.3285  0.7816 -0.0755
  675MOL0     C91052   9.089   8.887   7.172  0.4859 -0.7771  0.6259
  675MOL0     C91053   9.014   8.876   7.046  0.4622  0.8204 -0.4287
  675MOL0     C91054   8.950   8.869   6.945 -0.4474 -0.4674  0.7433
  675MOL0     C91055   9.788   8.782   6.971 -0.3432 -0.3314  0.5639
  675MOL0     C91056   9.922   8.806   6.948 -0.4753 -0.4786  0.4285
  675MOL0     C91057  10.003   8.683   6.920  0.0389 -0.1902  0.3672
  675MOL0     H91058  10.353   8.697   6.903 -0.1936  0.2737  0.3670
  675MOL0     H91059  10.588   8.703   6.822  0.3429 -0.1627 -0.3378
  675MOL0     H91060  10.795   9.038   6.635 -2.5060  1.6898  0.1756
  675MOL0     H91061  10.789   9.101   6.801  1.6782 -1.2744  1.0112
  675MOL0     H91062  10.971   8.945   6.872  4.5361  1.8158  0.4090
  675MOL0     H91063  11.026   9.076   6.785  0.7649 -0.5534 -0.6991
  675MOL0     H91064  11.029   8.953   6.580 -2.3988  1.4406  0.1988
  675MOL0     H91065  10.964   8.805   6.659  1.4468 -0.2227 -1.3383
  675MOL0     H91066  11.234   8.945   6.711  0.2055 -0.1711  2.4216
  675MOL0     H91067  11.171   8.801   6.797 -0.0202 -0.6518  0.7675
  675MOL0     H91068  11.191   8.655   6.624 -3.1687  1.1673  0.3912
  675MOL0     H91069  11.157   8.786   6.510 -0.0294  0.4108 -0.4504
  675MOL0     H91070  11.388   8.689   6.482  0.7931 -1.0765  0.5608
  675MOL0     H91071  11.376   8.863   6.495 -1.3859  0.3587 -0.4759
  675MOL0     H91072  11.448   8.868   6.726  0.1093  1.7914 -3.7889
  675MOL0     H91073  11.579   8.786   6.637 -0.6084  1.9019 -3.4169
  675MOL0     H91074  11.530   8.657   6.838  0.4392  0.1884 -1.4985
  675MOL0     H91075  11.353   8.655   6.805  0.4242 -0.5185  1.4147
  675MOL0     H91076  11.712   8.519   6.690  1.0205 -0.3121 -0.1608
  675MOL0     H91077  11.682   8.171   6.545 -0.6206 -0.4691  2.4658
  675MOL0     H91078  11.784   8.324   6.509 -1.2678  0.6263 -0.5903
  675MOL0     H91079  11.873   8.316   6.703 -1.4714 -0.7489  3.1369
  675MOL0     H91080  11.773   8.182   6.768  1.4481 -1.0341 -0.3977
  675MOL0     H91081  11.965   8.154   6.524 -0.3327 -2.9059 -1.3994
  675MOL0     H91082  11.860   8.030   6.591  0.8127 -0.8478  0.9835
  675MOL0     H91083  12.001   8.003   6.784 -1.4138  1.1818  1.1181
  675MOL0     H91084  12.058   8.166   6.777  1.2992 -2.4166  2.9506
  675MOL0     H91085  12.228   7.938   6.880  1.6558 -0.8246  2.0048
  675MOL0     H91086  12.464   7.903   6.947 -0.7669  0.3651  0.6745
  675MOL0     H91087  12.737   8.164   7.093  0.9860  2.2527 -0.9705
  675MOL0     H91088  12.950   8.233   7.192  1.8515 -1.2449  2.5629
  675MOL0     H91089  13.359   8.036   7.060  0.9186 -0.0425 -0.8819
  675MOL0     H91090  13.264   8.158   6.964  0.8172  3.5481  0.5302
  675MOL0     H91091  13.344   8.334   7.116 -0.0527  0.1496  0.6237
  675MOL0     H91092  13.455   8.230   7.194  0.5905  0.1564 -0.4486
  675MOL0     H91093  13.572   8.348   7.028 -0.1276  1.7175 -0.5471
  675MOL0     H91094  13.552   8.185   6.958  0.0573  0.9604  0.6610
  675MOL0     H91095  13.364   8.403   6.880  1.0483  1.4761 -1.0389
  675MOL0     H91096  13.392   8.248   6.800  0.9141  0.7335 -1.3143
  675MOL0     H91097  13.640   8.322   6.781  0.1498  0.6964  0.2820
  675MOL0     H91098  13.591   8.482   6.835  1.7395 -2.2011  2.6323
  675MOL0     H91099  13.520   8.329   6.591 -1.9160 -0.2472  1.0489
  675MOL0     H91100  13.436   8.479   6.625 -0.0705 -0.7870 -1.1705
  675MOL0     H91101  13.734   8.424   6.578  2.1211  1.4755 -3.4548
  675MOL0     H91102  13.683   8.582   6.633  0.4875 -0.3933  0.5842
  675MOL0     H91103  13.543   8.615   6.432 -1.2174 -0.2839 -0.9186
  675MOL0     H91104  13.713   8.577   6.387 -0.8899  0.0334 -1.7438
  675MOL0     H91105  13.148   7.891   7.024 -0.4254  0.1315  0.8040
  675MOL0     H91106  12.920   7.824   6.935 -1.3301  0.4393 -0.3524
  675MOL0     H91107  12.591   8.120   6.593  0.5115  1.3202  0.3612
  675MOL0     H91108  12.361   8.154   6.529 -0.4435 -1.7646 -0.8531
  675MOL0     H91109  10.579   9.121   6.785 -0.0845  0.7457 -0.1378
  675MOL0     H91110  10.328   9.119   6.828 -0.8078 -1.7236  1.7979
  675MOL0     H91111   9.909   9.145   6.975  1.7853 -0.5175  1.5233
  675MOL0     H91112   9.660   9.091   7.013 -0.9662 -0.2737 -2.1174
  675MOL0     H91113   9.466   9.026   6.988  2.1098 -1.5871 -1.4447
  675MOL0     H91114   9.502   8.960   7.152  0.1228 -0.8587 -0.6143
  675MOL0     H91115   9.346   8.785   7.138 -1.2744 -1.2789  0.2152
  675MOL0     H91116   9.287   8.842   6.978 -1.2666 -1.9769  0.7472
  675MOL0     H91117   9.203   9.053   7.097 -3.0883 -1.0892 -2.6787
  675MOL0     H91118   9.246   8.989   7.253 -0.4978 -0.9956  0.7126
  675MOL0     H91119   9.115   8.790   7.214  1.2694 -0.8615 -0.0092
  675MOL0     H91120   9.032   8.932   7.254 -1.1679 -1.5708 -0.0460
  675MOL0     H91121   8.897   8.879   6.852 -2.4997 -0.2865  1.8990
  675MOL0     H91122   9.764   8.676   6.981  3.0710 -1.2912 -0.2782
  675MOL0     H91123  10.102   8.688   6.965 -0.4557  1.6079  1.3847
  675MOL0     H91124   9.954   8.588   6.940  3.6002 -2.3100 -0.2624
  675MOL0     H91125  10.013   8.696   6.812  0.1501 -2.0526  0.1236
  676MOL0     O91126   1.831   5.272   5.402 -0.3385 -0.3477 -0.4626
  676MOL0     C91127   1.757   5.358   5.451 -0.4480 -0.2068 -0.4922
  676MOL0     O91128   1.772   5.417   5.574 -0.1164 -0.4694  0.0279
  676MOL0     C91129   1.886   5.386   5.644 -0.7324 -0.4653 -0.4085
  676MOL0     C91130   2.008   5.418   5.604 -0.5363  0.3586  0.1994
  676MOL0     C91131   2.114   5.387   5.685 -0.3970 -0.6633 -0.2924
  676MOL0     C91132   2.103   5.325   5.806 -0.1069  0.7340 -0.9557
  676MOL0     O91133   2.211   5.300   5.884  0.1614 -0.1854  0.1886
  676MOL0     C91134   2.298   5.212   5.825 -0.3101  0.1245  0.9442
  676MOL0     C91135   2.415   5.181   5.921  0.3288 -0.1567 -0.1992
  676MOL0     C91136   2.505   5.066   5.861  0.9766  0.3597  0.8347
  676MOL0     C91137   2.552   5.091   5.712  0.2643 -0.1201  0.1727
  676MOL0     C91138   2.646   5.213   5.693  0.4611 -0.2171  0.9102
  676MOL0     C91139   2.725   5.193   5.557 -0.5943 -0.6714  0.2709
  676MOL0     C91140   2.848   5.103   5.567 -0.1858 -0.5167  0.2305
  676MOL0     C91141   2.914   5.097   5.422  0.5564 -0.0170 -0.3578
  676MOL0     N91142   3.059   5.078   5.439 -0.4113 -0.4526 -0.3119
  676MOL0     C91143   3.155   5.181   5.444  0.1575  0.2992  0.9893
  676MOL0     C91144   3.264   5.132   5.503 -0.0978  0.0365 -0.0059
  676MOL0     C91145   3.384   5.210   5.534 -0.2413 -0.1142  0.3380
  676MOL0     C91146   3.431   5.295   5.411  0.1591 -0.3785 -0.0125
  676MOL0     C91147   3.472   5.206   5.299 -1.1037  0.3667  0.0198
  676MOL0     C91148   3.569   5.269   5.200  0.5753 -0.3554 -0.0549
  676MOL0     O91149   3.695   5.299   5.270 -0.1332  0.2046  0.4442
  676MOL0     C91150   3.795   5.208   5.275  0.5125 -0.3199 -0.1642
  676MOL0     C91151   3.793   5.076   5.236  0.2314  0.1357 -0.1977
  676MOL0     C91152   3.916   5.003   5.237 -0.6843  0.0682 -0.3244
  676MOL0     C91153   4.038   5.063   5.280  0.2728  0.0298 -0.6665
  676MOL0     C91154   4.170   4.995   5.272  1.0382 -0.3458  0.1761
  676MOL0     O91155   4.270   5.067   5.225 -0.1487 -0.2207 -0.8214
  676MOL0     C91156   4.391   4.990   5.236 -0.0092 -0.4954  0.2000
  676MOL0     C91157   4.436   4.969   5.368  0.1407 -0.4345  0.4214
  676MOL0     C91158   4.550   4.897   5.386 -0.3400  0.1396  1.2104
  676MOL0     C91159   4.635   4.867   5.274  0.9536  0.9527 -0.3195
  676MOL0     O91160   4.754   4.808   5.305 -0.6473 -0.0391 -0.3486
  676MOL0     C91161   4.848   4.800   5.203  0.2243  0.4989 -0.5862
  676MOL0     C91162   4.970   4.749   5.271 -0.2598 -0.0382  0.0946
  676MOL0     C91163   5.074   4.709   5.175 -0.4921  0.5002  0.2858
  676MOL0     C91164   5.203   4.677   5.245  0.2962 -0.9711 -0.7730
  676MOL0     C91165   5.321   4.634   5.152  0.0432  0.3172  0.9221
  676MOL0     C91166   5.462   4.635   5.214 -0.0479 -0.7664  0.5248
  676MOL0     C91167   5.563   4.612   5.100  0.0111  0.2734 -0.3264
  676MOL0     C91168   5.705   4.631   5.150  0.3246 -0.3189 -0.1294
  676MOL0    Cl91169   5.760   4.511   5.268 -0.1901  0.1294  0.1083
  676MOL0     C91170   4.583   4.890   5.144 -0.0645  0.4588 -0.7561
  676MOL0     C91171   4.458   4.945   5.123  0.7509 -0.1803  0.1061
  676MOL0     O91172   4.170   4.874   5.295 -0.2554 -0.3793  0.1279
  676MOL0     C91173   4.023   5.193   5.322 -0.1486 -0.4520  0.4767
  676MOL0     C91174   3.912   5.270   5.308  0.0657 -0.0840 -0.2627
  676MOL0     N91175   3.238   5.000   5.547 -1.5292 -0.2861 -0.0505
  676MOL0     N91176   3.124   4.972   5.491  0.5659  0.6606 -0.2480
  676MOL0     C91177   1.972   5.312   5.858  0.1126 -0.4322  0.6651
  676MOL0     C91178   1.864   5.345   5.774  0.4075  0.6929 -0.0735
  676MOL0     C91179   1.623   5.394   5.396  0.0521  0.9194 -0.6795
  676MOL0     C91180   1.521   5.425   5.485 -0.4643 -0.3535 -0.6410
  676MOL0     C91181   1.386   5.442   5.440  0.0077  0.6306  0.0593
  676MOL0     C91182   1.359   5.443   5.304  0.2741  0.2155  0.2158
  676MOL0     O91183   1.238   5.483   5.244  0.0406  0.7749 -0.3947
  676MOL0     C91184   1.133   5.509   5.332 -0.2710 -0.3343 -0.7727
  676MOL0     C91185   1.008   5.536   5.259  0.0688 -0.3953  0.4004
  676MOL0     C91186   0.946   5.413   5.193  0.1004 -0.3337  0.4805
  676MOL0     C91187   0.835   5.443   5.086 -0.6204  0.0942  0.3636
  676MOL0     C91188   0.719   5.512   5.144 -0.0551  0.0941 -0.2454
  676MOL0     C91189   0.630   5.566   5.189  0.0139 -0.4102  0.1716
  676MOL0     C91190   1.463   5.411   5.215  0.5663  0.4311  0.3074
  676MOL0     C91191   1.590   5.381   5.256 -0.4944  0.3136 -0.7027
  676MOL0     C91192   1.693   5.334   5.145 -0.0412 -0.1882 -0.0652
  676MOL0     H91193   2.031   5.458   5.505 -0.1216  1.1256  0.5964
  676MOL0     H91194   2.212   5.415   5.648 -0.0150 -3.4054 -1.6220
  676MOL0     H91195   2.242   5.124   5.793 -0.5506  0.7805 -0.5519
  676MOL0     H91196   2.337   5.248   5.729  1.0225 -0.1034  1.3777
  676MOL0     H91197   2.379   5.149   6.020 -1.7386  1.3421 -0.3936
  676MOL0     H91198   2.486   5.264   5.928  0.4419 -0.0425 -2.1786
  676MOL0     H91199   2.437   4.981   5.856  0.4161  0.8421 -0.0714
  676MOL0     H91200   2.589   5.043   5.928  1.0256  1.1835  1.0734
  676MOL0     H91201   2.604   5.000   5.680 -0.9689 -1.5045  1.8892
  676MOL0     H91202   2.470   5.104   5.640  1.0886  3.2317 -0.3225
  676MOL0     H91203   2.590   5.307   5.701 -0.2424 -0.6457  1.1783
  676MOL0     H91204   2.710   5.214   5.782  0.6724  1.5626  0.7627
  676MOL0     H91205   2.660   5.157   5.476 -0.4635 -0.5828  0.1271
  676MOL0     H91206   2.756   5.291   5.522  1.2664 -0.7006  1.7311
  676MOL0     H91207   2.821   5.002   5.599  3.3653 -1.3076  1.2965
  676MOL0     H91208   2.912   5.152   5.641 -0.4894 -0.3290  0.3701
  676MOL0     H91209   2.869   5.015   5.366  0.8013  0.7051 -1.6526
  676MOL0     H91210   2.897   5.196   5.378 -0.6071 -0.7261 -1.5579
  676MOL0     H91211   3.136   5.279   5.403 -2.7999 -0.6290 -0.1887
  676MOL0     H91212   3.368   5.283   5.614  0.8490  0.1972  0.2981
  676MOL0     H91213   3.464   5.140   5.560 -1.7277 -2.3386 -0.7946
  676MOL0     H91214   3.361   5.374   5.385  3.2887  2.7870  0.3094
  676MOL0     H91215   3.514   5.352   5.455 -0.4250  2.4494 -2.2949
  676MOL0     H91216   3.384   5.183   5.239 -0.1521 -2.3882 -0.4331
  676MOL0     H91217   3.502   5.114   5.350 -2.8768 -0.0672  0.3242
  676MOL0     H91218   3.530   5.362   5.158 -0.8077 -1.4989 -1.4312
  676MOL0     H91219   3.581   5.202   5.114  0.7826 -2.5687  1.5931
  676MOL0     H91220   3.699   5.027   5.215 -0.0955  0.3466  0.7041
  676MOL0     H91221   3.913   4.896   5.219 -0.7295  0.1131 -0.5874
  676MOL0     H91222   4.384   5.010   5.454 -0.4376  0.5170 -0.3627
  676MOL0     H91223   4.584   4.866   5.484  0.5318  1.5596  1.3932
  676MOL0     H91224   4.820   4.727   5.127  1.5161  1.1791 -1.7652
  676MOL0     H91225   4.873   4.896   5.158  1.5595  0.5736  0.2688
  676MOL0     H91226   5.011   4.831   5.330  2.5432  0.1868 -1.9790
  676MOL0     H91227   4.945   4.661   5.331 -0.6188  1.3348  2.0735
  676MOL0     H91228   5.039   4.627   5.111  0.5849 -0.8734  1.3912
  676MOL0     H91229   5.099   4.795   5.112 -0.1896  0.5826  0.5213
  676MOL0     H91230   5.186   4.598   5.319  0.6535 -1.6452 -1.3906
  676MOL0     H91231   5.234   4.770   5.294  0.3410 -0.3092 -2.0196
  676MOL0     H91232   5.326   4.692   5.059  2.6148  1.5995  1.7661
  676MOL0     H91233   5.301   4.534   5.114 -1.2486  1.1035 -0.6002
  676MOL0     H91234   5.480   4.731   5.262 -2.2420 -0.5108  0.9490
  676MOL0     H91235   5.460   4.557   5.290 -2.1137 -0.4804  0.8299
  676MOL0     H91236   5.546   4.685   5.021 -3.0610  2.4379  2.0477
  676MOL0     H91237   5.554   4.509   5.066  0.1743 -0.2061  0.9971
  676MOL0     H91238   5.775   4.627   5.066  0.8528  0.2603  0.2758
  676MOL0     H91239   5.719   4.726   5.202  1.3551  1.3973 -3.2931
  676MOL0     H91240   4.632   4.866   5.050 -2.5088  1.2610 -2.3323
  676MOL0     H91241   4.429   4.955   5.019  1.6971  0.1459 -0.1443
  676MOL0     H91242   4.108   5.255   5.349  0.1298 -0.5964 -0.0698
  676MOL0     H91243   3.920   5.373   5.339  1.7690 -0.2338 -0.0971
  676MOL0     H91244   1.957   5.278   5.959  0.5679 -2.0696  0.2126
  676MOL0     H91245   1.761   5.344   5.809  0.3056  0.0945 -0.3717
  676MOL0     H91246   1.534   5.419   5.593 -1.5961 -0.4021 -0.4940
  676MOL0     H91247   1.305   5.443   5.511 -1.4322 -0.0078 -1.5140
  676MOL0     H91248   1.149   5.588   5.406  0.1154 -1.6225  0.5875
  676MOL0     H91249   1.106   5.421   5.392 -1.5197  0.1985 -0.5204
  676MOL0     H91250   1.028   5.620   5.192 -1.1796 -1.0040 -0.7695
  676MOL0     H91251   0.937   5.563   5.337 -3.1257 -1.7655 -1.8276
  676MOL0     H91252   0.909   5.346   5.271 -1.0152 -1.8187 -1.2410
  676MOL0     H91253   1.023   5.352   5.145 -0.5743 -0.8946  0.0995
  676MOL0     H91254   0.868   5.516   5.012  3.0764  0.3791  2.0636
  676MOL0     H91255   0.807   5.344   5.051  0.5384 -1.2870  3.0270
  676MOL0     H91256   0.537   5.615   5.213 -0.1422 -0.0680 -1.0363
  676MOL0     H91257   1.428   5.402   5.113 -0.8989  0.9348  0.7412
  676MOL0     H91258   1.649   5.342   5.045 -3.0247  2.3278  1.2751
  676MOL0     H91259   1.777   5.404   5.139 -1.0304  1.1971  1.5040
  676MOL0     H91260   1.727   5.232   5.165 -0.9089 -0.4379  0.1647
  677MOL0     O91261   7.428   2.607   5.381 -0.4370 -0.1060 -0.3603
  677MOL0     C91262   7.400   2.488   5.398 -0.3965 -0.1597 -0.7856
  677MOL0     O91263   7.493   2.393   5.442  0.4438  0.4233 -0.0311
  677MOL0     C91264   7.616   2.437   5.471  0.6082 -0.1302  1.3066
  677MOL0     C91265   7.705   2.463   5.368  0.2516 -0.2824  0.3766
  677MOL0     C91266   7.847   2.493   5.401 -0.0144  0.2906 -0.8917
  677MOL0     C91267   7.883   2.502   5.537  0.0018  0.4618 -0.6409
  677MOL0     O91268   8.011   2.544   5.578  1.1196  0.4528 -0.0672
  677MOL0     C91269   8.125   2.502   5.494  0.7217 -0.0935  0.1219
  677MOL0     C91270   8.245   2.577   5.550  0.0899 -0.5307  0.1634
  677MOL0     C91271   8.376   2.519   5.502 -0.5324 -0.0598 -0.7239
  677MOL0     C91272   8.492   2.615   5.529  0.1605  0.0077 -0.8685
  677MOL0     C91273   8.594   2.588   5.425  0.8609  0.3750  0.0036
  677MOL0     C91274   8.710   2.680   5.436  0.3971  0.8148 -0.9870
  677MOL0     C91275   8.826   2.606   5.495  0.7132  0.3769 -0.1550
  677MOL0     C91276   8.951   2.683   5.496 -0.2008 -0.7128  0.6072
  677MOL0     N91277   9.070   2.592   5.529 -0.3600 -0.1452 -0.5141
  677MOL0     C91278   9.160   2.536   5.438  0.6420  0.0647 -0.4975
  677MOL0     C91279   9.248   2.470   5.514 -0.2377 -0.2050 -0.0729
  677MOL0     C91280   9.368   2.388   5.486  0.0077  0.9120 -0.9311
  677MOL0     C91281   9.487   2.462   5.434 -0.7347  0.4564  0.9524
  677MOL0     C91282   9.536   2.583   5.519 -0.1539  0.3502  0.5605
  677MOL0     C91283   9.671   2.627   5.467 -0.4071 -0.0966  0.4372
  677MOL0     O91284   9.771   2.534   5.501  0.2593 -0.4947  0.3759
  677MOL0     C91285   9.899   2.552   5.451  0.4694 -0.1619  0.3896
  677MOL0     C91286   9.959   2.673   5.435  0.2371 -0.6693 -0.0972
  677MOL0     C91287  10.097   2.680   5.401 -0.2250  0.0447 -0.0142
  677MOL0     C91288  10.173   2.565   5.375 -0.6018  0.2277  0.6144
  677MOL0     C91289  10.312   2.577   5.345  0.0444  0.1406 -0.2673
  677MOL0     O91290  10.391   2.688   5.382  0.0348  0.5871 -0.5767
  677MOL0     C91291  10.529   2.687   5.366  0.1176 -0.4612  0.1447
  677MOL0     C91292  10.582   2.811   5.333  0.3193 -0.7305 -0.1061
  677MOL0     C91293  10.724   2.830   5.316 -0.3424 -0.3746  0.2428
  677MOL0     C91294  10.807   2.719   5.327  1.2146 -0.0291 -1.2781
  677MOL0     O91295  10.933   2.739   5.302 -0.3168  0.5362 -0.0557
  677MOL0     C91296  11.028   2.632   5.294  0.3543  0.4557  0.6414
  677MOL0     C91297  11.149   2.704   5.240 -0.5324 -0.0274  0.2829
  677MOL0     C91298  11.279   2.611   5.264  0.0047  0.0624  1.3387
  677MOL0     C91299  11.403   2.647   5.173 -0.0156  0.2008 -0.2535
  677MOL0     C91300  11.530   2.559   5.215 -0.5219 -0.5000 -0.2212
  677MOL0     C91301  11.642   2.553   5.111 -0.1577 -0.7495 -0.1102
  677MOL0     C91302  11.770   2.481   5.166  0.6001 -0.1343  0.4142
  677MOL0     C91303  11.882   2.492   5.052  0.2637 -0.0472 -0.2005
  677MOL0    Cl91304  12.004   2.379   5.081  0.4303  0.2205 -0.4142
  677MOL0     C91305  10.751   2.591   5.349 -0.1596  0.0817  0.3335
  677MOL0     C91306  10.616   2.577   5.371 -0.8751  0.5119 -0.4647
  677MOL0     O91307  10.354   2.474   5.300 -0.7978  0.6544  0.2792
  677MOL0     C91308  10.108   2.442   5.386  0.1556  0.7401  0.7608
  677MOL0     C91309   9.971   2.439   5.416 -0.0450 -1.1940  0.0077
  677MOL0     N91310   9.213   2.490   5.651 -0.0699  0.0004  1.3046
  677MOL0     N91311   9.117   2.564   5.656  0.4815 -0.1985 -0.2696
  677MOL0     C91312   7.789   2.476   5.635 -0.0919 -0.1293  0.2478
  677MOL0     C91313   7.658   2.445   5.600  0.2198  0.5016 -0.1916
  677MOL0     C91314   7.257   2.451   5.367  0.1243 -0.5930 -0.5989
  677MOL0     C91315   7.159   2.550   5.349 -0.2658 -0.5827 -0.6443
  677MOL0     C91316   7.023   2.531   5.325 -0.1275  0.0464  0.7489
  677MOL0     C91317   6.985   2.393   5.322 -0.1752 -0.3092  0.3239
  677MOL0     O91318   6.853   2.359   5.303 -0.0535  0.5613  0.0863
  677MOL0     C91319   6.782   2.452   5.218 -0.4262 -0.4080  0.0121
  677MOL0     C91320   6.650   2.391   5.186  0.6192  0.4008  0.1656
  677MOL0     C91321   6.640   2.341   5.042 -0.6799  0.4062  0.4157
  677MOL0     C91322   6.734   2.218   5.006 -0.1395 -0.7944 -1.1161
  677MOL0     C91323   6.739   2.119   5.112  0.0144  0.3625 -0.6553
  677MOL0     C91324   6.749   2.047   5.214 -0.0782 -0.7276  0.1277
  677MOL0     C91325   7.079   2.292   5.327  0.2295  0.2440 -0.4032
  677MOL0     C91326   7.208   2.321   5.348 -0.1359  0.2506  0.1622
  677MOL0     C91327   7.303   2.203   5.324 -0.3761  0.1102 -0.5424
  677MOL0     H91328   7.671   2.448   5.266  0.6619 -0.2005  0.2250
  677MOL0     H91329   7.925   2.522   5.331  1.6805  0.9108  1.1363
  677MOL0     H91330   8.129   2.393   5.496 -0.0637 -0.1221  1.7497
  677MOL0     H91331   8.104   2.529   5.390 -1.7903 -0.1161  0.5587
  677MOL0     H91332   8.247   2.568   5.659 -1.6214  2.6978  0.5780
  677MOL0     H91333   8.237   2.682   5.521  4.5555  0.4525  1.6356
  677MOL0     H91334   8.365   2.492   5.396 -1.8485  1.4001 -1.0057
  677MOL0     H91335   8.398   2.426   5.555  1.3903  1.4995  1.3910
  677MOL0     H91336   8.459   2.719   5.523 -1.5965 -0.3681  1.0336
  677MOL0     H91337   8.527   2.603   5.632 -0.3538 -2.5239 -0.9162
  677MOL0     H91338   8.612   2.481   5.433 -0.2298  0.3528  3.9467
  677MOL0     H91339   8.554   2.600   5.323  1.3172  0.6193 -0.1524
  677MOL0     H91340   8.728   2.732   5.341  0.0956 -1.0994 -2.1425
  677MOL0     H91341   8.682   2.759   5.507  1.3031  0.4692 -0.2248
  677MOL0     H91342   8.843   2.522   5.427 -1.5014 -0.5130  0.3041
  677MOL0     H91343   8.786   2.563   5.587  0.2408  1.5206  0.1892
  677MOL0     H91344   8.970   2.735   5.401 -1.3915 -0.6609  0.3764
  677MOL0     H91345   8.943   2.757   5.576  0.4745 -0.1405  0.1594
  677MOL0     H91346   9.148   2.533   5.330  1.6791  1.4236 -0.6821
  677MOL0     H91347   9.390   2.340   5.582 -1.5171 -0.6821 -1.3205
  677MOL0     H91348   9.341   2.305   5.420  1.8278  0.0808 -0.6898
  677MOL0     H91349   9.565   2.387   5.418 -0.7400  0.8451 -1.3070
  677MOL0     H91350   9.463   2.505   5.335  0.4846 -0.0375  0.4263
  677MOL0     H91351   9.560   2.550   5.620 -0.0627 -0.3189  0.3267
  677MOL0     H91352   9.470   2.669   5.532 -0.4346  0.1319  0.5855
  677MOL0     H91353   9.692   2.721   5.520  0.0654 -0.8914  1.7219
  677MOL0     H91354   9.661   2.643   5.360 -2.4983 -3.5792 -0.0239
  677MOL0     H91355   9.905   2.765   5.454 -0.4268 -0.8023 -1.2447
  677MOL0     H91356  10.138   2.778   5.420  2.4040 -1.1994  1.2537
  677MOL0     H91357  10.513   2.893   5.316 -1.6659 -2.6611 -2.2011
  677MOL0     H91358  10.773   2.924   5.294 -0.9450 -0.7955 -3.5320
  677MOL0     H91359  11.052   2.572   5.382 -0.1630  2.3743  2.1704
  677MOL0     H91360  10.984   2.565   5.219 -1.8633  3.7112 -1.2784
  677MOL0     H91361  11.127   2.720   5.134 -4.0855 -2.8902  0.3546
  677MOL0     H91362  11.161   2.800   5.291 -0.2412 -1.1803  2.5522
  677MOL0     H91363  11.318   2.628   5.364 -1.8379  1.0476  1.9298
  677MOL0     H91364  11.259   2.504   5.252  0.9152 -0.0709  0.9226
  677MOL0     H91365  11.420   2.754   5.189 -2.3629  0.4915  0.5661
  677MOL0     H91366  11.377   2.620   5.070 -1.2128 -0.7097  0.2643
  677MOL0     H91367  11.503   2.456   5.242  0.3647 -0.0498  2.8613
  677MOL0     H91368  11.574   2.599   5.307  0.0563 -2.4981  0.4236
  677MOL0     H91369  11.604   2.514   5.016 -1.4967  0.8730 -0.2970
  677MOL0     H91370  11.667   2.658   5.093 -2.1971  0.0406  1.3393
  677MOL0     H91371  11.745   2.378   5.190  0.2239 -1.0811 -3.3165
  677MOL0     H91372  11.812   2.524   5.257  0.4717  1.2070 -0.1281
  677MOL0     H91373  11.847   2.482   4.948  0.5547 -0.3333 -0.2738
  677MOL0     H91374  11.913   2.597   5.054 -2.9884  1.0050  1.3391
  677MOL0     H91375  10.823   2.510   5.347  3.1622  2.8266 -1.1333
  677MOL0     H91376  10.572   2.480   5.391 -0.6870 -0.1641 -2.9622
  677MOL0     H91377  10.155   2.346   5.364  1.3433  1.5711 -0.4900
  677MOL0     H91378   9.908   2.351   5.418 -0.4028 -1.0190 -1.9019
  677MOL0     H91379   7.822   2.492   5.737  1.3722  0.1396 -0.2445
  677MOL0     H91380   7.589   2.422   5.681  0.6751  1.7871  0.5944
  677MOL0     H91381   7.185   2.656   5.350 -0.5925 -0.4854  1.1708
  677MOL0     H91382   6.959   2.618   5.320 -0.7683 -0.5046 -1.3587
  677MOL0     H91383   6.842   2.486   5.133  2.0565  3.2711  2.9536
  677MOL0     H91384   6.757   2.538   5.280  0.0209 -1.4483  1.6937
  677MOL0     H91385   6.567   2.457   5.215 -2.1392 -2.6477 -0.1650
  677MOL0     H91386   6.625   2.305   5.249 -1.8266 -1.5098 -3.0627
  677MOL0     H91387   6.658   2.426   4.975 -1.6117 -1.9791 -3.1871
  677MOL0     H91388   6.542   2.298   5.016 -0.3102  0.0096 -0.3694
  677MOL0     H91389   6.695   2.157   4.925  0.0952 -1.1952 -0.9259
  677MOL0     H91390   6.833   2.258   4.986  0.3209 -1.3427 -0.0139
  677MOL0     H91391   6.755   1.977   5.295  2.6341  0.8471  1.4674
  677MOL0     H91392   7.049   2.190   5.302  1.2869 -0.5175  1.2976
  677MOL0     H91393   7.341   2.165   5.419 -0.5996 -3.4846 -1.7534
  677MOL0     H91394   7.253   2.114   5.284  1.3404 -1.3188  0.3204
  677MOL0     H91395   7.390   2.226   5.262 -0.3256 -0.1016 -0.5509
  678MOL0     O91396   1.411   6.808   3.284 -0.0793  0.7868 -0.2562
  678MOL0     C91397   1.377   6.924   3.256  0.3019 -0.2054  0.1373
  678MOL0     O91398   1.461   7.023   3.229 -0.3334 -0.7401 -0.4344
  678MOL0     C91399   1.590   7.030   3.261 -0.0920 -0.8315 -0.3342
  678MOL0     C91400   1.677   7.057   3.157 -0.6698  0.8366 -0.2551
  678MOL0     C91401   1.822   7.065   3.177  0.0984  0.1614  0.5410
  678MOL0     C91402   1.865   7.051   3.308 -0.1765 -0.4733  0.1521
  678MOL0     O91403   1.995   7.061   3.345  0.1199 -0.0789  0.1949
  678MOL0     C91404   2.092   7.000   3.260  0.4255 -1.1173  0.2875
  678MOL0     C91405   2.230   7.016   3.320 -0.5102 -0.3605  0.4236
  678MOL0     C91406   2.352   6.984   3.222  0.5558  0.4211  1.1381
  678MOL0     C91407   2.485   6.987   3.293 -0.8103  0.8690  0.6390
  678MOL0     C91408   2.596   6.911   3.212 -0.5667 -0.6018 -0.5545
  678MOL0     C91409   2.711   6.897   3.322  0.1201 -0.0850  0.6745
  678MOL0     C91410   2.813   6.789   3.280  0.1878  0.1364 -0.1011
  678MOL0     C91411   2.960   6.804   3.338 -0.9419  0.3607 -0.5631
  678MOL0     N91412   3.060   6.698   3.285  0.5997 -0.4534  0.9361
  678MOL0     C91413   3.031   6.580   3.217  0.4041 -0.1572  0.8323
  678MOL0     C91414   3.149   6.516   3.216  0.5998  1.0262  0.3458
  678MOL0     C91415   3.181   6.372   3.172  0.7255  0.2622  0.7157
  678MOL0     C91416   3.268   6.354   3.042  1.0165 -0.0154  0.5943
  678MOL0     C91417   3.406   6.424   3.040  0.2845 -0.0792 -0.4803
  678MOL0     C91418   3.504   6.366   3.134 -0.1745  0.6802 -0.5222
  678MOL0     O91419   3.639   6.415   3.120 -0.7467  0.1692 -0.3807
  678MOL0     C91420   3.745   6.331   3.164 -0.8529  0.1944  0.2660
  678MOL0     C91421   3.718   6.218   3.246  0.2208  0.7788 -0.2012
  678MOL0     C91422   3.819   6.129   3.274 -0.7411 -0.2023 -0.3113
  678MOL0     C91423   3.945   6.150   3.221 -0.8449  0.0948  0.1118
  678MOL0     C91424   4.059   6.053   3.253  0.5816 -0.2808  0.5072
  678MOL0     O91425   4.159   6.064   3.169 -1.3806 -0.1656  0.0333
  678MOL0     C91426   4.274   5.982   3.177 -0.2140  0.5499  0.8312
  678MOL0     C91427   4.381   6.013   3.090 -0.1940 -0.7036 -0.6158
  678MOL0     C91428   4.500   5.944   3.088  0.0517 -0.0000  0.1231
  678MOL0     C91429   4.519   5.835   3.166  0.4454 -0.4526 -0.1368
  678MOL0     O91430   4.631   5.756   3.180 -0.1458  0.1031  0.4999
  678MOL0     C91431   4.736   5.783   3.088  0.0600 -0.3093  0.7283
  678MOL0     C91432   4.854   5.675   3.101 -0.1090 -0.2973 -0.0052
  678MOL0     C91433   4.826   5.551   3.004 -0.1561  0.3284 -0.2687
  678MOL0     C91434   4.946   5.448   3.022 -0.4531  0.2470 -0.4094
  678MOL0     C91435   4.933   5.349   2.901 -0.2766 -0.1167 -0.9105
  678MOL0     C91436   5.051   5.243   2.899  0.1891  0.2743  0.1128
  678MOL0     C91437   5.188   5.306   2.864  0.7266 -0.2179  0.6847
  678MOL0     C91438   5.205   5.361   2.725  0.4661  1.0487  0.5504
  678MOL0    Cl91439   5.151   5.245   2.589 -0.4953 -0.2461 -0.5240
  678MOL0     C91440   4.419   5.806   3.252 -0.1171  0.1262 -1.1728
  678MOL0     C91441   4.300   5.873   3.262  0.2884  0.0282  0.0860
  678MOL0     O91442   4.053   5.983   3.352  0.3009  0.1842 -0.4724
  678MOL0     C91443   3.975   6.253   3.138  0.4600 -0.6609 -0.4194
  678MOL0     C91444   3.869   6.337   3.106 -0.5481  0.0081 -0.8679
  678MOL0     N91445   3.245   6.586   3.288 -0.2966  0.3066 -0.3379
  678MOL0     N91446   3.184   6.695   3.331 -0.5089  0.8328  0.2597
  678MOL0     C91447   1.776   7.029   3.407 -0.4696 -0.5417 -0.1121
  678MOL0     C91448   1.635   7.017   3.392 -0.8265 -1.0185  0.0838
  678MOL0     C91449   1.232   6.955   3.232 -1.1233 -0.1926 -0.3439
  678MOL0     C91450   1.188   7.081   3.267  0.1986 -0.3152  0.1756
  678MOL0     C91451   1.066   7.133   3.239 -0.0034 -0.2142  0.6673
  678MOL0     C91452   0.983   7.063   3.154  0.2770  0.4502  0.2237
  678MOL0     O91453   0.863   7.108   3.113 -0.4237  0.4235 -0.3212
  678MOL0     C91454   0.775   7.129   3.218  0.1134  0.5194 -0.3856
  678MOL0     C91455   0.632   7.171   3.176  0.1064 -0.0969 -0.6653
  678MOL0     C91456   0.541   7.074   3.108  1.0186  1.5023 -0.1939
  678MOL0     C91457   0.544   7.066   2.958  0.2736 -0.6704 -0.3499
  678MOL0     C91458   0.496   7.182   2.883  0.2300 -0.2950 -1.0252
  678MOL0     C91459   0.445   7.274   2.821 -0.3630  0.1501  0.4187
  678MOL0     C91460   1.017   6.932   3.123 -0.6618  0.5960  0.9919
  678MOL0     C91461   1.147   6.876   3.153  0.7883  0.4255  0.4420
  678MOL0     C91462   1.175   6.745   3.094  0.4260 -0.4010  0.1993
  678MOL0     H91463   1.664   7.049   3.050  0.8588 -2.6675 -0.3375
  678MOL0     H91464   1.889   7.083   3.094  0.8801 -0.6735  0.9712
  678MOL0     H91465   2.081   6.891   3.264  1.5559 -1.2114  1.4730
  678MOL0     H91466   2.091   7.039   3.158 -0.9828 -0.2282  0.6087
  678MOL0     H91467   2.232   6.952   3.408  2.5072 -1.2642 -0.1704
  678MOL0     H91468   2.244   7.120   3.353 -2.5640  0.0302  0.2234
  678MOL0     H91469   2.357   7.050   3.135  2.1430 -2.3195 -1.0077
  678MOL0     H91470   2.337   6.883   3.183  0.3605  1.2761 -1.1270
  678MOL0     H91471   2.512   7.090   3.319  0.3966  0.0369  3.0008
  678MOL0     H91472   2.466   6.941   3.391 -1.3244  1.0166  0.6130
  678MOL0     H91473   2.564   6.812   3.180 -2.2421 -0.8592  1.7175
  678MOL0     H91474   2.631   6.959   3.120  1.1247 -0.4641  0.1189
  678MOL0     H91475   2.770   6.988   3.336  0.4214 -0.1755  0.0029
  678MOL0     H91476   2.664   6.867   3.416 -0.6097 -0.6459  0.1474
  678MOL0     H91477   2.835   6.792   3.172  5.0712 -0.7556  0.6060
  678MOL0     H91478   2.767   6.692   3.302 -2.9188  1.9606  2.2325
  678MOL0     H91479   3.000   6.902   3.311  0.6187 -0.0084  0.3416
  678MOL0     H91480   2.953   6.802   3.447 -0.6937 -2.4357 -0.5252
  678MOL0     H91481   2.939   6.541   3.175  1.3776 -2.6057  0.8141
  678MOL0     H91482   3.222   6.325   3.262 -2.1579 -1.2069  1.3986
  678MOL0     H91483   3.087   6.316   3.163  0.3411  0.9619  0.2585
  678MOL0     H91484   3.278   6.246   3.038  1.3813 -0.0265  1.5055
  678MOL0     H91485   3.227   6.392   2.948  0.4901 -0.0843  0.7924
  678MOL0     H91486   3.387   6.529   3.061 -0.6521 -0.4025  0.3378
  678MOL0     H91487   3.443   6.430   2.937 -2.3831  1.4710 -1.4393
  678MOL0     H91488   3.512   6.258   3.125  1.0979  0.8352 -1.4493
  678MOL0     H91489   3.470   6.397   3.233 -1.3561 -1.1659 -0.2993
  678MOL0     H91490   3.623   6.192   3.291  0.7433 -0.7097  0.0994
  678MOL0     H91491   3.805   6.042   3.337 -1.0103 -0.6986 -1.0399
  678MOL0     H91492   4.373   6.093   3.017 -2.7205 -0.6857 -0.4173
  678MOL0     H91493   4.573   5.988   3.021  0.3180 -0.2321  0.2584
  678MOL0     H91494   4.704   5.777   2.984 -1.2709 -1.3483  1.1757
  678MOL0     H91495   4.770   5.886   3.108 -0.5300  0.1653 -0.5896
  678MOL0     H91496   4.942   5.729   3.066  1.8076 -3.1002  0.1766
  678MOL0     H91497   4.875   5.645   3.204  0.3321 -1.2829 -0.3707
  678MOL0     H91498   4.726   5.510   3.026 -0.0124  0.0718 -0.0870
  678MOL0     H91499   4.832   5.580   2.899  2.9359 -1.2846 -0.6527
  678MOL0     H91500   4.930   5.405   3.121 -2.6336  1.0154 -0.3761
  678MOL0     H91501   5.037   5.509   3.017 -0.3388 -0.0114 -2.3558
  678MOL0     H91502   4.932   5.391   2.800 -2.0751  2.9303  0.2524
  678MOL0     H91503   4.834   5.302   2.906 -0.3622  0.0913 -0.6160
  678MOL0     H91504   5.046   5.178   2.988  1.3810 -0.1644 -0.1277
  678MOL0     H91505   5.020   5.176   2.819  0.9292  0.6217 -0.4711
  678MOL0     H91506   5.271   5.239   2.889  0.9630 -1.1175 -2.1329
  678MOL0     H91507   5.190   5.387   2.937 -0.6302 -0.1755  0.7011
  678MOL0     H91508   5.151   5.455   2.711 -1.6292 -0.3903 -2.4070
  678MOL0     H91509   5.313   5.370   2.711  0.2858  0.9892 -1.1028
  678MOL0     H91510   4.433   5.733   3.331 -0.2986  2.7284  1.4792
  678MOL0     H91511   4.244   5.851   3.352  0.0199 -1.3929 -0.3963
  678MOL0     H91512   4.075   6.276   3.102 -0.1712  0.1447 -1.7439
  678MOL0     H91513   3.874   6.418   3.034 -1.0777  0.7208 -0.1038
  678MOL0     H91514   1.814   7.024   3.509 -0.7590 -2.1877 -0.0619
  678MOL0     H91515   1.575   6.995   3.480 -1.8793  0.7620 -0.1200
  678MOL0     H91516   1.254   7.129   3.338  0.1650 -0.4889  0.3250
  678MOL0     H91517   1.034   7.234   3.262  2.4174  0.6203  0.5863
  678MOL0     H91518   0.807   7.203   3.292 -2.0896  0.3757  0.8041
  678MOL0     H91519   0.764   7.033   3.269  3.0118  0.9212  1.2410
  678MOL0     H91520   0.656   7.259   3.115 -2.3208  0.5881 -0.7069
  678MOL0     H91521   0.582   7.206   3.267  1.2417 -0.4739  0.1323
  678MOL0     H91522   0.439   7.104   3.131  0.4817  0.8142 -1.5315
  678MOL0     H91523   0.559   6.977   3.155 -0.0671  1.0986 -0.5704
  678MOL0     H91524   0.648   7.054   2.929  0.1352  1.3759 -1.9515
  678MOL0     H91525   0.486   6.978   2.927 -0.5223  0.6120 -2.7694
  678MOL0     H91526   0.402   7.347   2.755 -0.8548 -1.8186 -1.5642
  678MOL0     H91527   0.943   6.881   3.063  1.0100  0.2410 -0.9023
  678MOL0     H91528   1.273   6.736   3.045  0.5393 -0.6353  0.4673
  678MOL0     H91529   1.196   6.679   3.178 -1.5517  1.1781  2.0506
  678MOL0     H91530   1.105   6.712   3.017  1.6258  0.1972 -1.2115
  679MOL0     O91531   8.284   8.173  10.035 -0.2460 -0.4188  0.3564
  679MOL0     C91532   8.244   8.117   9.933 -0.2976  0.1777 -0.2326
  679MOL0     O91533   8.316   8.112   9.813  0.2509  0.1962 -0.7404
  679MOL0     C91534   8.435   8.169   9.791 -0.2679 -0.1572  0.7603
  679MOL0     C91535   8.446   8.302   9.738 -0.2079 -0.4280 -0.5049
  679MOL0     C91536   8.573   8.349   9.710 -0.3884 -1.0966 -0.9076
  679MOL0     C91537   8.685   8.273   9.716 -0.2607 -0.1268 -0.1991
  679MOL0     O91538   8.808   8.338   9.693 -0.7080  0.4886  0.2862
  679MOL0     C91539   8.926   8.257   9.712 -0.2500 -0.3386 -0.4358
  679MOL0     C91540   9.043   8.358   9.689 -0.3703  0.1751 -0.2055
  679MOL0     C91541   9.177   8.296   9.725 -0.4377 -0.1739 -0.0927
  679MOL0     C91542   9.208   8.166   9.678 -0.2453  0.6184 -0.1432
  679MOL0     C91543   9.358   8.131   9.692 -0.2129  0.6389 -0.1968
  679MOL0     C91544   9.391   7.988   9.647  0.5302 -0.4290  0.8044
  679MOL0     C91545   9.534   7.958   9.705  0.5492  0.9836  0.0629
  679MOL0     C91546   9.570   7.816   9.673  0.3775  0.1111 -0.1876
  679MOL0     N91547   9.709   7.781   9.717 -0.2894  1.5942 -0.1603
  679MOL0     C91548   9.824   7.797   9.646  0.3831 -0.0675  0.6265
  679MOL0     C91549   9.925   7.746   9.712  0.0327  0.6722 -0.4672
  679MOL0     C91550  10.060   7.731   9.657  0.7215  0.1246  0.1341
  679MOL0     C91551  10.079   7.586   9.609 -0.0569  0.0881 -0.1434
  679MOL0     C91552  10.024   7.556   9.465 -0.0502  0.2854 -0.0731
  679MOL0     C91553  10.075   7.419   9.422 -0.9444 -0.0620 -0.3444
  679MOL0     O91554  10.222   7.426   9.419 -0.0755  0.1055 -0.0902
  679MOL0     C91555  10.306   7.311   9.423  1.1334  0.2347  0.3601
  679MOL0     C91556  10.441   7.333   9.419 -0.1965 -0.1764  0.2517
  679MOL0     C91557  10.534   7.236   9.430 -0.0553 -0.3271 -0.5040
  679MOL0     C91558  10.493   7.103   9.438 -0.3740 -0.1007 -0.9234
  679MOL0     C91559  10.596   6.996   9.446 -0.2400 -0.5749  1.1481
  679MOL0     O91560  10.722   7.035   9.480 -0.9414  0.2924  0.3054
  679MOL0     C91561  10.821   6.934   9.475  0.5650 -0.2527  0.0448
  679MOL0     C91562  10.827   6.836   9.570  0.3063  0.0558 -0.4835
  679MOL0     C91563  10.932   6.749   9.576 -0.1174 -0.0329 -0.9124
  679MOL0     C91564  11.034   6.747   9.486 -0.1540  0.1380 -0.3679
  679MOL0     O91565  11.126   6.658   9.475 -0.4064  0.0391  0.9974
  679MOL0     C91566  11.191   6.610   9.591  0.0727 -0.5407  0.1804
  679MOL0     C91567  11.172   6.463   9.623 -0.2066 -0.2446 -0.2675
  679MOL0     C91568  11.270   6.402   9.714 -0.3134 -1.0682  0.0639
  679MOL0     C91569  11.222   6.267   9.754 -0.4619 -0.3977 -0.8837
  679MOL0     C91570  11.342   6.183   9.820 -0.1704 -0.0954  0.3054
  679MOL0     C91571  11.423   6.123   9.705 -0.5141  0.6941  0.0780
  679MOL0     C91572  11.535   6.043   9.740  0.2372  0.4770  0.1733
  679MOL0     C91573  11.642   6.106   9.833  0.0263 -0.1537  0.4748
  679MOL0    Cl91574  11.750   5.966   9.875  0.2865  0.0507  0.2996
  679MOL0     C91575  11.021   6.835   9.379 -0.0968  0.1141  0.7531
  679MOL0     C91576  10.921   6.938   9.376 -0.3760 -0.6481  0.0187
  679MOL0     O91577  10.556   6.888   9.403 -0.9171  0.5856 -0.0346
  679MOL0     C91578  10.356   7.069   9.450  0.5434 -0.2442 -0.7750
  679MOL0     C91579  10.263   7.177   9.445 -0.4057  0.2010 -0.1523
  679MOL0     N91580   9.876   7.701   9.833 -0.1350  0.1542 -0.1489
  679MOL0     N91581   9.751   7.726   9.837  0.0957 -0.2709 -0.0534
  679MOL0     C91582   8.668   8.138   9.768 -0.0050 -0.2114 -0.3123
  679MOL0     C91583   8.545   8.085   9.791 -0.9208  0.5545 -0.5925
  679MOL0     C91584   8.111   8.041   9.931 -0.2802 -0.3428  0.4642
  679MOL0     C91585   8.093   7.950   9.826  0.3119  0.3660 -0.4181
  679MOL0     C91586   7.981   7.864   9.826  0.0508 -1.0593 -1.1072
  679MOL0     C91587   7.875   7.876   9.920 -0.1350 -0.1892  1.2203
  679MOL0     O91588   7.761   7.802   9.911 -0.2720  0.1726  0.6291
  679MOL0     C91589   7.780   7.679   9.839 -0.1112  0.3948  0.2664
  679MOL0     C91590   7.664   7.579   9.876  0.2128 -0.6203 -0.2457
  679MOL0     C91591   7.670   7.460   9.787  0.3379  0.9243  0.8933
  679MOL0     C91592   7.653   7.319   9.850  0.7778  0.0397 -0.0441
  679MOL0     C91593   7.522   7.301   9.914  0.2542  0.0556  0.6241
  679MOL0     C91594   7.433   7.306   9.994 -0.0223 -0.6218  0.7948
  679MOL0     C91595   7.889   7.970  10.020 -0.1389 -0.3130 -0.3179
  679MOL0     C91596   8.008   8.052  10.031  0.0669 -0.0715 -0.2155
  679MOL0     C91597   8.018   8.145  10.144 -0.0916 -0.2758  0.0065
  679MOL0     H91598   8.354   8.359   9.731 -1.4205 -1.5918  3.3905
  679MOL0     H91599   8.588   8.453   9.682  0.7107 -1.2089 -0.7969
  679MOL0     H91600   8.926   8.227   9.817  0.0368  2.7906  0.5405
  679MOL0     H91601   8.940   8.167   9.650  0.9299 -1.1083  0.8968
  679MOL0     H91602   9.038   8.449   9.749  0.0675  0.2187 -0.2314
  679MOL0     H91603   9.044   8.391   9.585 -1.6378  2.2709  0.3822
  679MOL0     H91604   9.182   8.294   9.834 -0.0313  3.3865  0.0783
  679MOL0     H91605   9.252   8.371   9.699 -1.9955  1.7029  0.5965
  679MOL0     H91606   9.151   8.094   9.738 -1.7658  0.7097 -1.4024
  679MOL0     H91607   9.173   8.172   9.575 -4.1966  1.7471  1.0808
  679MOL0     H91608   9.416   8.207   9.639  0.7936  1.0160  1.3868
  679MOL0     H91609   9.385   8.135   9.798 -2.1438  0.6001  0.3350
  679MOL0     H91610   9.318   7.912   9.679 -2.4605  0.9699 -2.0729
  679MOL0     H91611   9.382   7.982   9.538 -0.9901  2.4849  0.6683
  679MOL0     H91612   9.535   7.974   9.813  0.2659  3.2956 -0.2186
  679MOL0     H91613   9.604   8.028   9.658 -0.4799  0.7903 -1.8894
  679MOL0     H91614   9.503   7.751   9.729 -1.0936  2.2895  0.6983
  679MOL0     H91615   9.567   7.788   9.567 -2.2100 -1.7634  0.2814
  679MOL0     H91616   9.828   7.827   9.542 -0.8916  0.5981  0.7395
  679MOL0     H91617  10.078   7.812   9.586  1.3347  0.1010  0.2530
  679MOL0     H91618  10.132   7.744   9.739 -0.6045 -1.8826  1.7042
  679MOL0     H91619  10.186   7.568   9.621 -0.4278 -1.1253  1.8257
  679MOL0     H91620  10.030   7.515   9.677  0.3898 -1.1844 -1.1123
  679MOL0     H91621  10.060   7.629   9.392 -2.7794  0.3994 -1.4463
  679MOL0     H91622   9.915   7.561   9.462 -0.0894 -0.8037 -1.0134
  679MOL0     H91623  10.054   7.395   9.317 -0.8334  0.5610 -0.5112
  679MOL0     H91624  10.031   7.339   9.482 -1.1011 -2.0244 -2.8898
  679MOL0     H91625  10.478   7.435   9.413 -0.6298  0.0505  1.2725
  679MOL0     H91626  10.636   7.273   9.419 -0.8107  2.4115  0.9922
  679MOL0     H91627  10.743   6.811   9.634 -0.8946  3.6601 -0.4451
  679MOL0     H91628  10.922   6.664   9.643 -0.4088  0.1805 -0.6780
  679MOL0     H91629  11.299   6.630   9.582 -0.3809  2.1687 -0.1637
  679MOL0     H91630  11.161   6.668   9.678  0.7454 -0.3929  0.3258
  679MOL0     H91631  11.069   6.444   9.657 -1.3802 -0.6823 -3.6458
  679MOL0     H91632  11.181   6.413   9.526 -0.2369 -1.5918  0.4028
  679MOL0     H91633  11.358   6.401   9.649 -2.4367  5.3477 -3.9450
  679MOL0     H91634  11.278   6.470   9.799  0.7197 -1.8943  0.6419
  679MOL0     H91635  11.175   6.213   9.672  0.5447  1.2902 -2.6335
  679MOL0     H91636  11.154   6.265   9.839 -0.2114 -0.1369 -0.6722
  679MOL0     H91637  11.296   6.107   9.883 -3.5355  0.5207 -1.1811
  679MOL0     H91638  11.410   6.246   9.877  1.7814  0.5736 -2.5425
  679MOL0     H91639  11.350   6.063   9.649 -0.6283 -0.0470  0.9960
  679MOL0     H91640  11.476   6.197   9.644 -1.6802 -0.7767 -2.9227
  679MOL0     H91641  11.576   6.021   9.641  0.1140  0.1048  0.2021
  679MOL0     H91642  11.496   5.949   9.780 -1.1398  0.6040 -0.7890
  679MOL0     H91643  11.690   6.182   9.772 -2.4722  1.6976  0.6303
  679MOL0     H91644  11.615   6.142   9.933  0.8054  2.9911 -0.3414
  679MOL0     H91645  11.095   6.828   9.300  0.0218  2.7674  0.5400
  679MOL0     H91646  10.916   7.019   9.304  0.3857  0.8974  1.6386
  679MOL0     H91647  10.325   6.965   9.458 -0.0502 -0.0156  0.0015
  679MOL0     H91648  10.158   7.147   9.444  0.4890 -3.3304  0.5655
  679MOL0     H91649   8.751   8.068   9.778 -2.2810 -3.0762 -0.2054
  679MOL0     H91650   8.535   7.991   9.845 -2.2371 -0.0336 -1.7880
  679MOL0     H91651   8.164   7.935   9.745 -0.2404 -0.7273 -0.7174
  679MOL0     H91652   7.981   7.778   9.760 -1.2458 -1.8501 -0.1205
  679MOL0     H91653   7.875   7.634   9.867  0.1378  1.4817  1.2607
  679MOL0     H91654   7.771   7.704   9.733 -0.7730  2.0479  0.6754
  679MOL0     H91655   7.563   7.619   9.866  1.6588  3.7526  0.2733
  679MOL0     H91656   7.681   7.546   9.978 -3.4752 -2.2192  0.0074
  679MOL0     H91657   7.769   7.465   9.741  0.2617 -2.3699  0.0934
  679MOL0     H91658   7.594   7.475   9.710 -2.5456 -0.4370  3.2499
  679MOL0     H91659   7.656   7.240   9.774 -0.4556 -0.8161  0.7625
  679MOL0     H91660   7.728   7.304   9.928 -1.6508  0.3694  2.4816
  679MOL0     H91661   7.349   7.296  10.059 -1.0071  6.4497  1.3896
  679MOL0     H91662   7.802   7.990  10.082 -1.0301 -0.3131 -1.5337
  679MOL0     H91663   8.094   8.107  10.213  0.8368 -0.7430 -1.2487
  679MOL0     H91664   8.041   8.249  10.116 -0.4981 -0.4348 -0.9617
  679MOL0     H91665   7.925   8.147  10.202  0.3566 -3.2155  0.9933
  680MOL0     O91666   8.298   0.740   7.499 -0.1486 -0.1829  0.0071
  680MOL0     C91667   8.236   0.731   7.393  0.1298  0.8721  0.0950
  680MOL0     O91668   8.288   0.743   7.267 -0.0949 -0.6173 -0.5211
  680MOL0     C91669   8.427   0.759   7.260 -0.4771  0.3654 -0.5202
  680MOL0     C91670   8.479   0.887   7.230  0.1072  0.5948 -0.1198
  680MOL0     C91671   8.619   0.904   7.220 -0.1860 -0.7165 -0.2026
  680MOL0     C91672   8.709   0.803   7.243  0.0392  0.4657  0.0209
  680MOL0     O91673   8.844   0.819   7.240  0.5093 -0.3736 -0.2011
  680MOL0     C91674   8.897   0.913   7.147 -0.1618  0.3789  0.0215
  680MOL0     C91675   9.048   0.925   7.169  1.2396 -0.4723 -1.0555
  680MOL0     C91676   9.127   1.052   7.137  0.0288 -0.2923 -0.4017
  680MOL0     C91677   9.064   1.179   7.196  0.1705  0.1055  0.3169
  680MOL0     C91678   9.131   1.310   7.169 -0.3024 -0.2036  0.4836
  680MOL0     C91679   9.270   1.315   7.251  0.3195  0.0405 -0.6946
  680MOL0     C91680   9.247   1.337   7.403 -0.3293 -0.0714  1.0400
  680MOL0     C91681   9.375   1.322   7.487 -0.9215 -0.1190  0.2038
  680MOL0     N91682   9.474   1.432   7.476 -0.3207 -0.3797  0.0291
  680MOL0     C91683   9.604   1.431   7.428 -1.0582 -0.9615 -0.2320
  680MOL0     C91684   9.649   1.553   7.465  0.0686 -0.1705  1.1913
  680MOL0     C91685   9.799   1.582   7.449  0.3878 -0.4415  0.9486
  680MOL0     C91686   9.824   1.705   7.544 -0.3712  0.7342  0.0721
  680MOL0     C91687   9.970   1.756   7.527  0.0802 -0.1463 -0.1295
  680MOL0     C91688   9.998   1.911   7.562  1.0099  0.6647  0.5380
  680MOL0     O91689  10.068   1.942   7.682  0.5988  0.5464 -0.0532
  680MOL0     C91690  10.204   1.920   7.682 -0.4178  0.5593 -0.1725
  680MOL0     C91691  10.272   1.925   7.805  0.4765  0.3763 -0.2396
  680MOL0     C91692  10.408   1.938   7.822 -0.1068 -0.0019  0.7557
  680MOL0     C91693  10.491   1.927   7.708  0.2029  0.7379 -0.6049
  680MOL0     C91694  10.640   1.929   7.717 -0.4325  0.0738 -0.2824
  680MOL0     O91695  10.677   1.957   7.845  0.3695 -0.1036  0.3919
  680MOL0     C91696  10.805   1.960   7.889 -0.9115 -0.6546 -0.2678
  680MOL0     C91697  10.806   1.968   8.029  0.0658  0.5892 -1.2658
  680MOL0     C91698  10.929   1.984   8.091 -0.5565 -0.3636 -0.5110
  680MOL0     C91699  11.052   1.977   8.024  0.9725 -0.3010 -0.4097
  680MOL0     O91700  11.172   1.983   8.091 -0.5120  0.3774 -0.5039
  680MOL0     C91701  11.182   1.952   8.232 -0.3560  0.1834 -0.0263
  680MOL0     C91702  11.329   1.925   8.274 -0.1288 -0.3259  0.2740
  680MOL0     C91703  11.411   2.050   8.231 -0.2464 -0.9905 -0.0622
  680MOL0     C91704  11.534   2.069   8.317 -0.4705 -0.1769 -0.5713
  680MOL0     C91705  11.633   1.949   8.298  0.7170  0.1482 -0.3397
  680MOL0     C91706  11.760   1.949   8.388 -0.1313  0.0597  0.1682
  680MOL0     C91707  11.834   2.074   8.383  0.0986 -0.0472 -0.5393
  680MOL0     C91708  11.983   2.050   8.419 -0.0887 -0.1390 -0.7999
  680MOL0    Cl91709  12.043   2.195   8.497 -0.3391 -0.2698 -0.3287
  680MOL0     C91710  11.057   1.949   7.886 -0.4933 -0.8068 -0.2489
  680MOL0     C91711  10.934   1.945   7.820 -0.1887 -0.2278 -0.4128
  680MOL0     O91712  10.715   1.899   7.623 -0.4112 -0.0825 -1.1309
  680MOL0     C91713  10.421   1.910   7.590 -0.6116 -0.8791  0.3805
  680MOL0     C91714  10.285   1.912   7.572 -0.5064 -0.3959 -0.5264
  680MOL0     N91715   9.549   1.633   7.509 -0.5680 -0.3835 -0.1200
  680MOL0     N91716   9.444   1.563   7.505  1.3865 -0.0105  0.0566
  680MOL0     C91717   8.656   0.675   7.278 -0.1391  0.1399 -0.1564
  680MOL0     C91718   8.517   0.646   7.284  0.0961 -0.0164 -0.0412
  680MOL0     C91719   8.089   0.683   7.402 -0.2478 -0.2316  0.4333
  680MOL0     C91720   8.031   0.651   7.524  0.1203  0.9312 -0.0674
  680MOL0     C91721   7.892   0.625   7.544  0.1007 -0.1233 -0.3366
  680MOL0     C91722   7.802   0.627   7.437 -0.7963 -0.6057 -0.5072
  680MOL0     O91723   7.671   0.610   7.451  0.2707 -0.1507  0.3413
  680MOL0     C91724   7.613   0.589   7.581 -0.2076 -0.6263  0.0143
  680MOL0     C91725   7.465   0.539   7.565  0.6267 -0.5192 -0.2717
  680MOL0     C91726   7.452   0.416   7.466  0.4044  0.3689  0.3231
  680MOL0     C91727   7.315   0.352   7.487  0.7479  0.2315  0.4461
  680MOL0     C91728   7.206   0.453   7.466  0.0982 -0.2644 -0.5734
  680MOL0     C91729   7.114   0.528   7.454 -0.6590 -0.3919  0.0916
  680MOL0     C91730   7.862   0.644   7.309  0.1359  0.0279 -0.4490
  680MOL0     C91731   8.003   0.662   7.292  0.1562  0.5766 -0.3276
  680MOL0     C91732   8.055   0.667   7.145  0.4500 -0.3453 -0.2836
  680MOL0     H91733   8.409   0.967   7.206  0.1477  0.7770  0.3559
  680MOL0     H91734   8.645   1.007   7.196 -2.0991 -0.4367 -1.3595
  680MOL0     H91735   8.891   0.882   7.042  0.1815  0.4179 -0.0127
  680MOL0     H91736   8.862   1.016   7.160  1.4216  0.8875  0.4633
  680MOL0     H91737   9.085   0.854   7.094  0.1548 -0.7137 -1.3797
  680MOL0     H91738   9.068   0.891   7.271 -0.6126  2.2570  0.3404
  680MOL0     H91739   9.136   1.077   7.031 -0.9639  0.3169 -0.3600
  680MOL0     H91740   9.227   1.039   7.180 -0.2831 -1.3084  0.0562
  680MOL0     H91741   8.970   1.189   7.141  2.5430 -0.3340 -4.2435
  680MOL0     H91742   9.050   1.167   7.304  1.4580  1.4538  0.6547
  680MOL0     H91743   9.139   1.322   7.060  0.0972 -0.8789  0.4297
  680MOL0     H91744   9.070   1.394   7.200  1.7909  0.4221  3.3243
  680MOL0     H91745   9.333   1.226   7.246  0.9426  0.5239 -2.0458
  680MOL0     H91746   9.318   1.400   7.201 -1.9521  1.0862 -1.2479
  680MOL0     H91747   9.176   1.262   7.440 -1.4164  0.5608  0.2672
  680MOL0     H91748   9.202   1.437   7.407 -0.4054 -0.0325 -0.3109
  680MOL0     H91749   9.342   1.318   7.592 -0.6478  1.0100  0.3480
  680MOL0     H91750   9.416   1.224   7.460 -1.9733 -1.0864  1.9235
  680MOL0     H91751   9.663   1.353   7.381  0.4579  1.8931 -3.5052
  680MOL0     H91752   9.855   1.490   7.467  2.4372  0.5224 -0.0543
  680MOL0     H91753   9.828   1.610   7.347  1.5136 -0.6327  1.1954
  680MOL0     H91754   9.753   1.781   7.509 -2.0854 -0.9359 -0.2303
  680MOL0     H91755   9.805   1.684   7.650 -0.1114 -1.9181 -0.3473
  680MOL0     H91756   9.993   1.758   7.420  0.1419  0.5953 -0.1055
  680MOL0     H91757  10.043   1.701   7.587  0.1412  0.8633  0.7301
  680MOL0     H91758   9.897   1.952   7.561 -0.4715 -2.6073  2.2021
  680MOL0     H91759  10.040   1.954   7.470 -1.2598  0.0601 -0.8495
  680MOL0     H91760  10.216   1.929   7.898  1.4272  0.0521  0.3753
  680MOL0     H91761  10.453   1.948   7.920  0.4088  2.7116  0.3172
  680MOL0     H91762  10.722   1.979   8.097  1.7222  2.5371  0.6049
  680MOL0     H91763  10.937   2.024   8.191  1.2452  2.0240 -1.5163
  680MOL0     H91764  11.146   2.037   8.292 -2.7005 -0.0670 -0.9930
  680MOL0     H91765  11.123   1.864   8.257  0.9589 -0.8354 -0.4001
  680MOL0     H91766  11.339   1.917   8.382  1.0635  3.7463  0.6272
  680MOL0     H91767  11.362   1.835   8.221 -0.8557  0.2494 -1.2118
  680MOL0     H91768  11.440   2.029   8.128 -2.5886  1.6721 -1.3976
  680MOL0     H91769  11.356   2.144   8.235  1.5399  0.0675  1.0257
  680MOL0     H91770  11.525   2.067   8.426  0.8276 -0.9572 -0.4629
  680MOL0     H91771  11.582   2.163   8.287 -1.5812  0.2391 -1.0925
  680MOL0     H91772  11.662   1.945   8.193  1.1865  2.4143 -0.3593
  680MOL0     H91773  11.582   1.858   8.332  1.8035  0.3729  2.1741
  680MOL0     H91774  11.740   1.923   8.492  1.9644 -1.5130  0.2434
  680MOL0     H91775  11.817   1.861   8.358 -1.0042 -1.2353  2.0929
  680MOL0     H91776  11.786   2.139   8.457 -3.3603 -3.1918  0.3177
  680MOL0     H91777  11.832   2.113   8.281  3.9102 -0.3972 -0.8989
  680MOL0     H91778  12.005   1.974   8.495  1.2488  1.8638  0.9414
  680MOL0     H91779  12.045   2.030   8.331  0.2592  0.8904 -0.8089
  680MOL0     H91780  11.155   1.948   7.839  0.0248  0.8348  0.7289
  680MOL0     H91781  10.956   1.932   7.714  0.1939  2.3693 -0.7185
  680MOL0     H91782  10.477   1.898   7.498  0.1642  1.2950  0.5204
  680MOL0     H91783  10.245   1.923   7.471 -2.1162  0.2961  0.1445
  680MOL0     H91784   8.724   0.591   7.282 -0.4299 -0.2136 -1.9076
  680MOL0     H91785   8.482   0.549   7.318  2.9157 -1.2615 -0.3874
  680MOL0     H91786   8.101   0.632   7.606  0.2557 -3.2435 -0.9502
  680MOL0     H91787   7.861   0.631   7.647 -1.9011  4.6559 -0.9398
  680MOL0     H91788   7.607   0.680   7.641 -1.9184  1.2764 -2.8113
  680MOL0     H91789   7.673   0.505   7.619  0.6161 -0.7016 -1.3894
  680MOL0     H91790   7.395   0.617   7.535  2.8582  1.7784  0.0693
  680MOL0     H91791   7.441   0.508   7.666  2.7171 -0.7009  0.2301
  680MOL0     H91792   7.532   0.343   7.479  0.4709  0.5160  0.7533
  680MOL0     H91793   7.458   0.448   7.361 -1.6088  3.6384  1.0413
  680MOL0     H91794   7.311   0.283   7.402 -0.5981  2.1020 -1.1018
  680MOL0     H91795   7.324   0.306   7.586  1.7713  1.7929  1.1202
  680MOL0     H91796   7.025   0.582   7.429  0.0135 -0.3352 -2.4008
  680MOL0     H91797   7.798   0.629   7.223 -2.1096  0.8703  0.9820
  680MOL0     H91798   7.980   0.627   7.076 -2.0064 -1.5148  2.7783
  680MOL0     H91799   8.080   0.772   7.126  2.8627 -0.5016  1.5525
  680MOL0     H91800   8.142   0.603   7.130  0.0685 -1.1129  0.6246
  681MOL0     O91801   8.203   7.278   5.570 -0.2755 -0.4453 -0.2406
  681MOL0     C91802   8.295   7.227   5.499 -0.1517 -0.4018 -0.1338
  681MOL0     O91803   8.422   7.267   5.502 -0.0402 -0.0084  0.5010
  681MOL0     C91804   8.453   7.377   5.568 -0.3840 -0.4592  0.3455
  681MOL0     C91805   8.557   7.367   5.665 -0.1831  0.3387 -0.5892
  681MOL0     C91806   8.592   7.481   5.744 -0.1579  0.4045 -0.1052
  681MOL0     C91807   8.532   7.602   5.720 -0.6587 -0.2019 -0.1886
  681MOL0     O91808   8.584   7.710   5.793 -0.3567  0.1263  0.2716
  681MOL0     C91809   8.532   7.843   5.771 -0.2295  0.1439  0.1934
  681MOL0     C91810   8.608   7.904   5.654  0.3037  0.8990 -0.4042
  681MOL0     C91811   8.765   7.897   5.647 -0.1584  0.2467  0.3481
  681MOL0     C91812   8.812   7.990   5.539  0.8917  0.6756  0.5247
  681MOL0     C91813   8.967   7.991   5.532 -0.0522 -0.3754 -0.4611
  681MOL0     C91814   9.005   7.860   5.460 -0.2305 -0.3346  0.3156
  681MOL0     C91815   9.151   7.868   5.403 -0.1484 -0.6658 -0.1463
  681MOL0     C91816   9.162   7.984   5.296  0.3575  0.8333  0.3344
  681MOL0     N91817   9.092   7.948   5.175 -0.1631 -1.4266 -0.0337
  681MOL0     C91818   9.098   7.833   5.104  1.1145 -0.2869  0.1286
  681MOL0     C91819   9.014   7.861   4.998 -0.2560  0.1964 -0.0171
  681MOL0     C91820   9.007   7.757   4.887 -0.6266 -0.9564 -0.4041
  681MOL0     C91821   8.862   7.696   4.873 -1.1252  0.1299 -0.4442
  681MOL0     C91822   8.792   7.781   4.763  0.1446  1.0442 -0.1653
  681MOL0     C91823   8.641   7.748   4.758 -0.5170 -0.1112  0.1792
  681MOL0     O91824   8.637   7.606   4.762 -0.1633  0.3545  0.1688
  681MOL0     C91825   8.521   7.543   4.782 -0.0093  0.3258  0.0608
  681MOL0     C91826   8.414   7.565   4.697  0.6112  0.2849  0.2483
  681MOL0     C91827   8.289   7.521   4.730 -0.2586 -0.9543 -0.0245
  681MOL0     C91828   8.272   7.433   4.846 -0.5063 -0.6335 -0.1636
  681MOL0     C91829   8.139   7.370   4.872  0.1261  0.5203  0.0981
  681MOL0     O91830   8.129   7.278   4.975 -0.1758  0.3000 -0.6523
  681MOL0     C91831   8.010   7.225   5.003  0.6779 -0.2737  0.9987
  681MOL0     C91832   7.970   7.217   5.134  0.1868 -0.4356 -0.9822
  681MOL0     C91833   7.851   7.150   5.176  0.2960 -0.3790 -0.7099
  681MOL0     C91834   7.760   7.100   5.075  0.3458 -0.1133 -0.3887
  681MOL0     O91835   7.639   7.044   5.110 -0.1839 -0.2185  0.8009
  681MOL0     C91836   7.541   7.041   5.004 -1.1291 -0.0088  0.5597
  681MOL0     C91837   7.527   6.898   4.943  0.6123 -0.1022 -0.1137
  681MOL0     C91838   7.484   6.795   5.055 -0.3642 -0.5229  1.9433
  681MOL0     C91839   7.443   6.659   4.990 -0.9144 -0.0642 -0.4464
  681MOL0     C91840   7.292   6.620   5.001  0.3453 -1.2706  0.0878
  681MOL0     C91841   7.231   6.608   5.137  1.0864  0.0962 -0.7135
  681MOL0     C91842   7.085   6.565   5.110  0.2593 -0.3279 -0.4500
  681MOL0     C91843   7.004   6.525   5.239  0.5492  0.3728  0.0151
  681MOL0    Cl91844   7.053   6.349   5.278 -0.3816  0.1455 -0.3788
  681MOL0     C91845   7.805   7.106   4.936  0.9275  0.6823 -0.5213
  681MOL0     C91846   7.926   7.163   4.904 -0.6441 -0.1787  0.4318
  681MOL0     O91847   8.044   7.405   4.806 -0.6497 -0.4107  0.4177
  681MOL0     C91848   8.379   7.406   4.931 -0.4692 -0.0516 -0.3278
  681MOL0     C91849   8.505   7.468   4.902  0.6112 -0.1047  0.3621
  681MOL0     N91850   8.935   7.967   5.033 -0.0681 -0.8134  0.2579
  681MOL0     N91851   8.986   8.024   5.135 -0.7119 -0.0656 -0.1158
  681MOL0     C91852   8.439   7.617   5.618  0.0099  0.7680 -0.4117
  681MOL0     C91853   8.400   7.503   5.545  0.8754 -0.7787 -0.2662
  681MOL0     C91854   8.246   7.118   5.408  0.0890 -0.8114  0.2564
  681MOL0     C91855   8.136   7.046   5.456  0.4982  0.2778  0.2680
  681MOL0     C91856   8.093   6.931   5.378  0.0339 -0.1012 -0.0849
  681MOL0     C91857   8.155   6.890   5.258 -0.4860  0.5274 -0.2442
  681MOL0     O91858   8.129   6.785   5.178 -0.0735  0.8817 -0.0046
  681MOL0     C91859   7.995   6.735   5.192 -0.9391  0.2068 -0.5848
  681MOL0     C91860   7.962   6.654   5.066 -0.2321 -0.3326 -0.8672
  681MOL0     C91861   7.954   6.763   4.947 -0.7398  0.0176  1.0222
  681MOL0     C91862   7.913   6.691   4.820  0.1775 -0.6702 -0.3456
  681MOL0     C91863   7.893   6.791   4.712  0.0274  0.1206 -0.0124
  681MOL0     C91864   7.879   6.867   4.623 -0.2000 -0.2957 -0.4477
  681MOL0     C91865   8.260   6.969   5.218 -0.0576  0.7780 -0.6060
  681MOL0     C91866   8.313   7.080   5.287  0.2697 -0.2350 -0.2858
  681MOL0     C91867   8.431   7.148   5.230  0.6704 -0.2411  0.3343
  681MOL0     H91868   8.612   7.273   5.667  0.0400  0.4596 -0.8821
  681MOL0     H91869   8.674   7.463   5.813  2.5945 -1.9982 -3.6217
  681MOL0     H91870   8.423   7.839   5.760 -0.3038  3.6241 -1.6794
  681MOL0     H91871   8.561   7.894   5.863  2.6238 -0.2876 -0.3530
  681MOL0     H91872   8.571   8.007   5.650 -0.2999  0.7723  1.1212
  681MOL0     H91873   8.562   7.848   5.572  0.3590 -1.5128  1.1128
  681MOL0     H91874   8.788   7.792   5.627 -2.4172 -0.5167  1.4694
  681MOL0     H91875   8.811   7.920   5.744 -0.0826 -1.8216  0.8576
  681MOL0     H91876   8.767   7.962   5.444 -0.2498  3.0627  0.2896
  681MOL0     H91877   8.768   8.090   5.543 -0.9886  0.0197 -1.8034
  681MOL0     H91878   9.005   8.081   5.482  0.9784 -1.8642 -2.5225
  681MOL0     H91879   9.013   7.996   5.631 -1.1814 -0.6388  0.0958
  681MOL0     H91880   9.004   7.781   5.535  1.7351  0.0797  0.8300
  681MOL0     H91881   8.934   7.847   5.378  0.7202  0.0723 -0.5986
  681MOL0     H91882   9.181   7.771   5.363  0.5352  0.0167 -1.3646
  681MOL0     H91883   9.222   7.892   5.483 -1.5234 -0.6939  1.1313
  681MOL0     H91884   9.126   8.079   5.335  0.3343  2.1675 -2.6637
  681MOL0     H91885   9.267   7.998   5.268  0.4207 -0.5536 -0.2158
  681MOL0     H91886   9.163   7.746   5.107 -0.1002 -1.3462 -2.0825
  681MOL0     H91887   9.038   7.804   4.793 -0.7034 -0.4626 -0.1823
  681MOL0     H91888   9.088   7.687   4.909  2.2878  1.4687 -2.6235
  681MOL0     H91889   8.866   7.587   4.862 -0.2276 -0.0510  1.3482
  681MOL0     H91890   8.808   7.712   4.966  1.3738 -0.4297  1.1939
  681MOL0     H91891   8.840   7.750   4.670 -0.0359  2.2389 -0.6789
  681MOL0     H91892   8.800   7.886   4.795  0.6680  1.7452 -2.3802
  681MOL0     H91893   8.592   7.805   4.678 -0.4431  1.1691  1.0182
  681MOL0     H91894   8.607   7.790   4.854 -1.3894 -0.6502  0.1144
  681MOL0     H91895   8.441   7.618   4.606  1.5194 -0.0484  0.3063
  681MOL0     H91896   8.213   7.560   4.662  0.6858  2.6950  0.7955
  681MOL0     H91897   8.024   7.269   5.213  0.7658  2.1643 -2.9933
  681MOL0     H91898   7.837   7.135   5.283  1.3002 -1.2790 -0.6903
  681MOL0     H91899   7.446   7.063   5.053 -0.7689  0.7760  0.9319
  681MOL0     H91900   7.546   7.129   4.939  0.0161  0.3788  1.1321
  681MOL0     H91901   7.450   6.897   4.866  0.0225  0.5686  0.4624
  681MOL0     H91902   7.617   6.866   4.890  0.9217  1.9726 -0.9493
  681MOL0     H91903   7.578   6.771   5.105  1.7420  0.0901 -1.4206
  681MOL0     H91904   7.404   6.835   5.118 -4.8748 -0.9906 -2.8037
  681MOL0     H91905   7.502   6.578   5.034 -1.3890 -1.2461 -1.9162
  681MOL0     H91906   7.467   6.666   4.884 -3.6789  0.1571 -1.1471
  681MOL0     H91907   7.280   6.517   4.964 -1.5411 -0.7996 -0.7218
  681MOL0     H91908   7.228   6.685   4.941  0.2396 -2.2882 -0.9518
  681MOL0     H91909   7.283   6.525   5.185 -0.0930 -0.1000  0.2767
  681MOL0     H91910   7.232   6.692   5.207 -0.1222 -0.3684 -0.1050
  681MOL0     H91911   7.085   6.478   5.043 -2.5832  2.3636 -4.3502
  681MOL0     H91912   7.031   6.645   5.060  2.3110  1.2013 -0.3322
  681MOL0     H91913   7.019   6.598   5.319 -2.2071 -0.4190  1.3823
  681MOL0     H91914   6.897   6.542   5.223 -0.0001  0.9355  3.4572
  681MOL0     H91915   7.746   7.058   4.858 -0.6395  0.3231  0.8363
  681MOL0     H91916   7.965   7.159   4.803  1.1038 -1.9858  1.1224
  681MOL0     H91917   8.354   7.347   5.018 -1.8955  0.2355 -0.5255
  681MOL0     H91918   8.593   7.462   4.966  1.7405 -4.2102 -1.2376
  681MOL0     H91919   8.402   7.711   5.577 -1.9300 -0.3743 -1.4329
  681MOL0     H91920   8.315   7.503   5.477 -0.8803 -1.3522  1.8256
  681MOL0     H91921   8.095   7.068   5.554  0.2188 -0.7990  0.4029
  681MOL0     H91922   8.020   6.868   5.426 -0.4258 -0.1471 -0.8218
  681MOL0     H91923   7.916   6.801   5.228 -1.1580 -1.2388  1.7804
  681MOL0     H91924   8.006   6.658   5.269  0.3151 -0.3202 -1.2616
  681MOL0     H91925   7.870   6.599   5.087  0.5131 -1.2194  0.1905
  681MOL0     H91926   8.044   6.584   5.048  0.1899  0.1885 -0.9989
  681MOL0     H91927   8.047   6.818   4.930 -1.6668  0.8830 -1.9312
  681MOL0     H91928   7.881   6.837   4.979 -0.1097  1.5573 -0.9207
  681MOL0     H91929   7.983   6.610   4.794 -0.1347 -0.5680 -1.5748
  681MOL0     H91930   7.818   6.643   4.845 -0.5154 -0.1721 -1.8564
  681MOL0     H91931   7.864   6.948   4.554 -2.4545 -1.6629 -1.6676
  681MOL0     H91932   8.305   6.937   5.125 -3.2357 -2.5150 -1.2461
  681MOL0     H91933   8.522   7.136   5.290  0.2768 -2.5402  0.5522
  681MOL0     H91934   8.450   7.117   5.127  0.5165  1.9057 -0.3963
  681MOL0     H91935   8.402   7.253   5.228 -2.2103 -0.9435  0.5766
  682MOL0     O91936  10.870   5.458   3.244 -0.1485  0.3573 -0.1111
  682MOL0     C91937  10.816   5.555   3.198  0.0302 -0.1700 -0.1166
  682MOL0     O91938  10.832   5.682   3.240 -0.0216  0.1204  0.2124
  682MOL0     C91939  10.905   5.709   3.354  0.0279 -0.9733 -0.1438
  682MOL0     C91940  11.037   5.754   3.338 -0.5236 -0.0740 -0.2365
  682MOL0     C91941  11.121   5.779   3.446  0.1061  0.4934  0.3169
  682MOL0     C91942  11.079   5.760   3.579  0.1475  0.1893  0.4312
  682MOL0     O91943  11.168   5.780   3.678  0.3969  0.2854 -0.2981
  682MOL0     C91944  11.136   5.717   3.808  1.0220  0.2875 -0.1797
  682MOL0     C91945  11.241   5.735   3.913  0.3381 -0.0251  0.1009
  682MOL0     C91946  11.362   5.648   3.886 -0.1212  0.7613 -0.1495
  682MOL0     C91947  11.475   5.688   3.980  0.2992  0.2332 -0.4646
  682MOL0     C91948  11.589   5.583   3.997 -0.4497 -0.0754 -0.4683
  682MOL0     C91949  11.690   5.579   3.888 -0.2934  0.1307  0.2433
  682MOL0     C91950  11.821   5.522   3.938 -1.3774 -0.2429 -0.7378
  682MOL0     C91951  11.908   5.623   4.020  0.4058 -0.6123 -0.7329
  682MOL0     N91952  12.023   5.550   4.087 -0.4667 -0.1441 -0.2183
  682MOL0     C91953  12.099   5.457   4.027 -0.2545 -0.9943 -0.1651
  682MOL0     C91954  12.189   5.417   4.126 -0.5068 -0.1053  1.4045
  682MOL0     C91955  12.298   5.308   4.101  0.8666 -0.3370 -0.3084
  682MOL0     C91956  12.452   5.334   4.133 -0.0621  0.5496  0.2657
  682MOL0     C91957  12.481   5.384   4.274 -0.0614 -0.4851 -0.3814
  682MOL0     C91958  12.630   5.424   4.297  0.7104  0.5997 -0.1914
  682MOL0     O91959  12.666   5.539   4.225 -0.1665  0.1969  0.6173
  682MOL0     C91960  12.803   5.548   4.217 -0.1399  0.4118  0.5121
  682MOL0     C91961  12.885   5.542   4.329 -0.2342 -0.0515  0.3711
  682MOL0     C91962  13.023   5.521   4.321 -0.3263 -0.9417 -0.0900
  682MOL0     C91963  13.089   5.519   4.195 -0.0933  0.5102 -0.0954
  682MOL0     C91964  13.244   5.493   4.187 -0.3053 -0.3002 -0.8762
  682MOL0     O91965  13.301   5.522   4.070 -0.1221 -0.4086  0.4976
  682MOL0     C91966  13.426   5.506   4.050  0.3881  0.2924 -0.1750
  682MOL0     C91967  13.478   5.387   4.003 -0.2439 -0.2776 -0.2439
  682MOL0     C91968  13.618   5.371   3.983 -0.2529  1.0830 -0.3140
  682MOL0     C91969  13.708   5.481   4.007 -0.1439  0.6395  0.2480
  682MOL0     O91970  13.846   5.493   3.988  0.0404 -0.2345  0.2377
  682MOL0     C91971  13.919   5.370   3.943 -0.9638 -0.1987 -0.2390
  682MOL0     C91972  14.062   5.397   3.972 -0.4293  1.1047 -0.5095
  682MOL0     C91973  14.148   5.273   3.943 -0.7725 -0.1434  0.3407
  682MOL0     C91974  14.293   5.313   3.971  0.2955 -0.0390  0.2558
  682MOL0     C91975  14.388   5.198   3.927 -0.3355 -1.0926  0.3437
  682MOL0     C91976  14.535   5.240   3.948 -0.6159  0.5830 -0.9672
  682MOL0     C91977  14.620   5.117   3.922 -0.0893  0.5183 -0.3520
  682MOL0     C91978  14.762   5.144   3.963 -0.0130 -0.3988  0.0749
  682MOL0    Cl91979  14.855   5.068   3.837 -0.1865  0.0723 -0.0659
  682MOL0     C91980  13.651   5.600   4.049 -0.2949  0.0366  0.0925
  682MOL0     C91981  13.514   5.610   4.081 -0.5072  0.4918 -0.1401
  682MOL0     O91982  13.304   5.449   4.288 -0.5086 -0.3370 -0.4170
  682MOL0     C91983  13.006   5.529   4.084 -0.4320  0.4258  0.1537
  682MOL0     C91984  12.869   5.535   4.097 -0.0939  0.0471  0.1602
  682MOL0     N91985  12.168   5.490   4.243  0.5036 -0.2872 -0.1217
  682MOL0     N91986  12.074   5.574   4.223  0.2457  0.1116  0.1558
  682MOL0     C91987  10.941   5.711   3.595 -0.2360 -0.4447  0.3305
  682MOL0     C91988  10.854   5.687   3.484 -0.7627 -0.1447 -0.3417
  682MOL0     C91989  10.721   5.533   3.083 -0.1477  0.3407  0.0258
  682MOL0     C91990  10.639   5.424   3.091  0.2469  0.1556  0.3197
  682MOL0     C91991  10.537   5.408   3.005  0.5864  0.6398  0.2367
  682MOL0     C91992  10.506   5.496   2.908 -0.2876  0.0032 -0.3892
  682MOL0     O91993  10.398   5.501   2.822 -0.4982 -1.0266  0.2188
  682MOL0     C91994  10.327   5.383   2.783 -0.6511 -0.2943  0.2064
  682MOL0     C91995  10.215   5.368   2.882  0.3405  1.1372 -0.2840
  682MOL0     C91996  10.105   5.257   2.853 -0.4084 -0.3882  0.0946
  682MOL0     C91997   9.962   5.304   2.885  0.7693 -0.1503 -0.1796
  682MOL0     C91998   9.925   5.418   2.804 -0.2441 -0.5561 -0.0960
  682MOL0     C91999   9.872   5.505   2.728  0.1911 -0.5781 -0.1084
  682MOL0     C92000  10.597   5.600   2.887 -0.1920 -0.1593  0.8760
  682MOL0     C92001  10.702   5.620   2.978 -0.6915  0.5086  0.3538
  682MOL0     C92002  10.794   5.743   2.958  0.4446 -0.1479  0.7676
  682MOL0     H92003  11.081   5.754   3.239  2.1397  2.2104  0.8215
  682MOL0     H92004  11.225   5.805   3.426  1.5886 -0.8332  4.8575
  682MOL0     H92005  11.056   5.767   3.863  1.4005 -1.1895  1.7916
  682MOL0     H92006  11.125   5.610   3.793  1.9885  0.3103 -1.2171
  682MOL0     H92007  11.197   5.706   4.009 -1.7302 -1.2289 -1.1446
  682MOL0     H92008  11.279   5.837   3.905 -1.7496  0.7736 -0.0908
  682MOL0     H92009  11.388   5.669   3.781 -1.1076  3.0294  0.0035
  682MOL0     H92010  11.351   5.541   3.907  0.7561  0.8779  1.0402
  682MOL0     H92011  11.527   5.778   3.945 -0.1034  1.2833  1.4712
  682MOL0     H92012  11.437   5.715   4.079  2.6285 -0.0294  0.5740
  682MOL0     H92013  11.626   5.614   4.095 -1.6366  0.7949 -0.2728
  682MOL0     H92014  11.553   5.480   4.006 -1.2548  0.2915  0.6639
  682MOL0     H92015  11.661   5.507   3.811  0.2967  0.1808 -0.0285
  682MOL0     H92016  11.707   5.673   3.834 -0.3079 -0.6462 -1.1571
  682MOL0     H92017  11.875   5.482   3.851  1.6758  1.1094  0.4258
  682MOL0     H92018  11.795   5.429   3.990 -1.1662 -0.3628 -0.8454
  682MOL0     H92019  11.950   5.705   3.961 -1.3729  0.4099 -0.6443
  682MOL0     H92020  11.845   5.680   4.088  1.7660  2.7401 -2.0592
  682MOL0     H92021  12.069   5.408   3.935  1.2408 -1.6426 -0.3402
  682MOL0     H92022  12.270   5.220   4.159  0.4181 -0.4263 -0.6551
  682MOL0     H92023  12.291   5.289   3.994 -0.2550  1.2388 -0.5543
  682MOL0     H92024  12.496   5.234   4.128  0.6485  0.9024 -1.2699
  682MOL0     H92025  12.496   5.389   4.049 -0.1357 -1.8108 -1.4152
  682MOL0     H92026  12.456   5.302   4.341  0.3510 -1.2480 -1.1455
  682MOL0     H92027  12.414   5.469   4.289 -0.7842 -0.6771 -2.1739
  682MOL0     H92028  12.694   5.338   4.275  0.4053 -0.3435  2.2518
  682MOL0     H92029  12.644   5.432   4.406  0.0258  1.5844 -0.1638
  682MOL0     H92030  12.849   5.538   4.431  2.2320  1.4359  1.3840
  682MOL0     H92031  13.085   5.509   4.409 -0.9989  1.0642  0.7111
  682MOL0     H92032  13.408   5.306   3.984 -4.1829  2.5874  0.6971
  682MOL0     H92033  13.657   5.272   3.962 -0.1906  0.5756  1.9596
  682MOL0     H92034  13.885   5.279   3.992 -0.4623  0.0141  0.5441
  682MOL0     H92035  13.899   5.359   3.837 -0.3145 -0.4377 -0.3428
  682MOL0     H92036  14.088   5.487   3.915 -1.5223  1.7142 -0.0690
  682MOL0     H92037  14.067   5.422   4.079  0.4862  3.9387 -1.1325
  682MOL0     H92038  14.120   5.193   4.012 -1.6614 -0.1012  0.0431
  682MOL0     H92039  14.125   5.240   3.841 -1.8838 -0.8216  0.7877
  682MOL0     H92040  14.305   5.340   4.076  3.3029  0.5122 -0.1513
  682MOL0     H92041  14.326   5.398   3.911 -0.5705 -0.0870 -0.3137
  682MOL0     H92042  14.370   5.187   3.819 -0.1989  0.8834  0.0880
  682MOL0     H92043  14.356   5.107   3.980 -1.7911 -1.3933 -0.9725
  682MOL0     H92044  14.577   5.322   3.888  1.0235  1.7553  1.5998
  682MOL0     H92045  14.556   5.273   4.050 -1.5120  0.3031 -0.6842
  682MOL0     H92046  14.606   5.101   3.815  0.9189  0.5969 -0.5026
  682MOL0     H92047  14.583   5.033   3.982  0.7643 -0.3840 -1.0628
  682MOL0     H92048  14.791   5.249   3.954  3.0010 -1.1365 -0.1980
  682MOL0     H92049  14.795   5.106   4.060 -2.3627 -4.4813 -0.4719
  682MOL0     H92050  13.723   5.681   4.060  1.4440 -0.4139 -5.0760
  682MOL0     H92051  13.488   5.713   4.104 -1.0037  1.0161 -2.7392
  682MOL0     H92052  13.046   5.516   3.984 -0.5408  0.6619  0.0781
  682MOL0     H92053  12.807   5.535   4.009  0.4621 -0.7413 -0.2375
  682MOL0     H92054  10.891   5.700   3.690 -2.0210 -1.1095 -0.6418
  682MOL0     H92055  10.754   5.651   3.507 -0.7430  0.2530  0.3717
  682MOL0     H92056  10.655   5.343   3.162  0.3677  0.8213  1.0682
  682MOL0     H92057  10.478   5.317   3.008 -0.3799  1.2007 -1.1010
  682MOL0     H92058  10.395   5.297   2.774  1.2138  1.0682  0.7718
  682MOL0     H92059  10.283   5.410   2.686 -0.0246 -0.8127 -0.2338
  682MOL0     H92060  10.167   5.466   2.883 -4.7455 -0.9794 -1.2297
  682MOL0     H92061  10.257   5.336   2.978 -0.3194  0.8028 -0.0967
  682MOL0     H92062  10.125   5.168   2.914 -3.0047 -2.0385 -1.2732
  682MOL0     H92063  10.111   5.233   2.747 -0.2345 -1.2774  0.3014
  682MOL0     H92064   9.888   5.229   2.856 -1.9634  1.4407  2.1322
  682MOL0     H92065   9.954   5.330   2.991  1.3233 -1.0198  0.0870
  682MOL0     H92066   9.832   5.586   2.672  1.5422  1.4287  1.6593
  682MOL0     H92067  10.583   5.673   2.808  0.6895  0.2844  1.1104
  682MOL0     H92068  10.893   5.710   2.991  0.7452 -0.0013  0.0453
  682MOL0     H92069  10.800   5.775   2.853  1.7418 -0.1026  0.8376
  682MOL0     H92070  10.753   5.823   3.019  2.0992  0.4980  1.0895
  683MOL0     O92071   7.589  10.114   4.849  0.2375  0.1894  0.1003
  683MOL0     C92072   7.522  10.138   4.954 -0.4807  0.1347  1.0486
  683MOL0     O92073   7.579  10.202   5.066  0.3381  0.2211 -0.5236
  683MOL0     C92074   7.715  10.219   5.067 -0.7604  0.3960 -0.8010
  683MOL0     C92075   7.790  10.116   5.133 -0.3103 -0.9222  1.1557
  683MOL0     C92076   7.927  10.125   5.126  0.5268 -0.1989  0.3465
  683MOL0     C92077   7.992  10.236   5.074 -0.9936  0.7964  0.5949
  683MOL0     O92078   8.130  10.249   5.079  0.6233  0.2817  1.1807
  683MOL0     C92079   8.199  10.230   4.961  0.1500 -0.2108  0.7542
  683MOL0     C92080   8.352  10.222   4.961  0.5775  0.5572 -0.3100
  683MOL0     C92081   8.408  10.332   5.052 -0.4836 -0.7618 -0.2335
  683MOL0     C92082   8.547  10.354   5.005  0.1509 -0.2691 -0.0529
  683MOL0     C92083   8.615  10.474   5.074 -0.2148  0.0408 -0.6313
  683MOL0     C92084   8.754  10.514   5.017  0.2787  0.1202 -0.7974
  683MOL0     C92085   8.849  10.385   5.021 -0.6100  0.1766 -1.0698
  683MOL0     C92086   8.990  10.441   5.043  0.5027  0.8939 -0.7711
  683MOL0     N92087   9.086  10.336   5.008 -0.4679  0.2986  0.2762
  683MOL0     C92088   9.160  10.337   4.892 -0.5823  0.3598 -0.0799
  683MOL0     C92089   9.257  10.243   4.914  0.0358 -0.5422 -0.4884
  683MOL0     C92090   9.358  10.214   4.814 -0.0814  0.2190  0.1772
  683MOL0     C92091   9.318  10.108   4.714  0.9773  0.4830  1.2409
  683MOL0     C92092   9.428  10.067   4.614 -0.0297  0.3679 -0.2376
  683MOL0     C92093   9.373   9.982   4.493  0.8505  0.3632 -0.4386
  683MOL0     O92094   9.479   9.943   4.404 -0.1549  0.1705 -0.0230
  683MOL0     C92095   9.443   9.935   4.278 -0.6480 -0.4835  0.7783
  683MOL0     C92096   9.532   9.989   4.180  1.0627 -0.0279  0.3175
  683MOL0     C92097   9.499   9.974   4.041  0.2567  0.0854  0.3941
  683MOL0     C92098   9.383   9.898   3.999 -0.0270  0.3793  0.6242
  683MOL0     C92099   9.349   9.887   3.852  0.1307  0.2400 -0.5373
  683MOL0     O92100   9.232   9.820   3.819 -0.5608  0.3504  0.6811
  683MOL0     C92101   9.167   9.819   3.700 -0.5096  0.3386 -0.1779
  683MOL0     C92102   9.027   9.821   3.701  0.1413 -1.1927 -0.2503
  683MOL0     C92103   8.958   9.821   3.581 -0.1373 -0.2721  0.1718
  683MOL0     C92104   9.024   9.820   3.458 -0.2800  0.3213  0.1351
  683MOL0     O92105   8.974   9.850   3.335  0.8368 -0.4044 -0.0513
  683MOL0     C92106   8.836   9.868   3.328  0.2875  0.1131 -0.5761
  683MOL0     C92107   8.812   9.915   3.188  0.1532 -0.4243 -0.3645
  683MOL0     C92108   8.819   9.802   3.084 -0.4471 -0.4892  0.3781
  683MOL0     C92109   8.820   9.871   2.944 -0.0356 -0.2734 -0.0554
  683MOL0     C92110   8.840   9.761   2.835 -0.9828  0.2261 -0.1707
  683MOL0     C92111   8.980   9.694   2.830  0.5376 -0.5814  0.1451
  683MOL0     C92112   9.089   9.802   2.792 -0.1470  0.2805 -0.1022
  683MOL0     C92113   9.192   9.839   2.892 -0.6856 -0.6426 -0.2130
  683MOL0    Cl92114   9.309   9.960   2.820  0.0306  0.0038 -0.0262
  683MOL0     C92115   9.167   9.815   3.463 -0.2583 -0.1725 -0.3622
  683MOL0     C92116   9.238   9.810   3.579  0.4708  0.1736 -0.4915
  683MOL0     O92117   9.418   9.960   3.780  0.1468 -0.6356  0.4320
  683MOL0     C92118   9.295   9.847   4.098 -0.6902  0.0640  0.0010
  683MOL0     C92119   9.327   9.873   4.231 -0.6817  0.1473  1.0395
  683MOL0     N92120   9.236  10.182   5.039 -0.1234  0.1809 -0.6324
  683MOL0     N92121   9.146  10.255   5.095 -0.5445  0.2720  0.2230
  683MOL0     C92122   7.925  10.342   5.011 -0.4397 -0.0841 -0.7185
  683MOL0     C92123   7.783  10.331   5.004 -0.6016 -0.2130 -0.1150
  683MOL0     C92124   7.376  10.129   4.967  0.1331  0.1700 -0.5504
  683MOL0     C92125   7.311  10.191   5.076 -0.7518  0.3070  0.1530
  683MOL0     C92126   7.176  10.193   5.094  0.1496 -0.2889 -0.1280
  683MOL0     C92127   7.100  10.109   5.024  0.4192 -0.3977  0.5379
  683MOL0     O92128   6.960  10.098   5.034  0.3242  0.5699 -0.4678
  683MOL0     C92129   6.884  10.154   5.145  0.8925 -0.1803  0.7281
  683MOL0     C92130   6.884  10.071   5.273 -0.5443 -0.3988 -0.6431
  683MOL0     C92131   6.816   9.934   5.267  0.3303  0.1802  0.1470
  683MOL0     C92132   6.816   9.853   5.401  0.2366  1.0921  0.7537
  683MOL0     C92133   6.948   9.864   5.470  0.0249 -0.4139  0.5157
  683MOL0     C92134   7.041   9.863   5.535  0.0721  0.5889 -0.0055
  683MOL0     C92135   7.160  10.029   4.922  0.4001 -0.2782  0.4494
  683MOL0     C92136   7.297  10.043   4.889  0.1451  0.3354 -0.6003
  683MOL0     C92137   7.354   9.959   4.771  0.1172 -0.6730 -0.7832
  683MOL0     H92138   7.735  10.029   5.166 -1.7521 -0.5875 -0.2702
  683MOL0     H92139   7.984  10.041   5.166  0.0563 -1.9864 -2.4160
  683MOL0     H92140   8.149  10.151   4.904 -2.3690  2.5454 -1.1543
  683MOL0     H92141   8.172  10.321   4.906 -1.9735 -1.8301 -1.0648
  683MOL0     H92142   8.391  10.232   4.859 -2.1333  0.3274 -1.4555
  683MOL0     H92143   8.382  10.124   4.997 -0.8204 -0.6252 -2.2031
  683MOL0     H92144   8.409  10.304   5.157  1.2309  0.0072 -0.0056
  683MOL0     H92145   8.351  10.424   5.035  0.4791  0.3038  1.9405
  683MOL0     H92146   8.612  10.267   5.020  2.0239  1.2956  1.5981
  683MOL0     H92147   8.565  10.363   4.897 -1.1618 -0.8494 -0.3400
  683MOL0     H92148   8.541  10.555   5.079  0.6000  0.7443  0.7128
  683MOL0     H92149   8.624  10.451   5.180 -0.0706  0.8265 -0.4616
  683MOL0     H92150   8.749  10.547   4.912 -0.3949  1.0811 -0.4719
  683MOL0     H92151   8.798  10.592   5.079  2.6154 -0.3438 -1.7745
  683MOL0     H92152   8.859  10.332   4.926 -0.0865  0.0565 -0.9494
  683MOL0     H92153   8.827  10.313   5.100  1.5663  0.7270  0.1005
  683MOL0     H92154   9.016  10.536   4.995  2.5290  2.1511  2.4736
  683MOL0     H92155   8.997  10.462   5.150 -1.4424 -1.1885 -0.1637
  683MOL0     H92156   9.144  10.374   4.791  3.6055 -1.4557 -1.6178
  683MOL0     H92157   9.384  10.311   4.771 -0.0354 -0.0239 -0.3542
  683MOL0     H92158   9.449  10.176   4.861 -0.0878  2.0225  1.7526
  683MOL0     H92159   9.271  10.020   4.758 -2.4004  1.6415  0.2838
  683MOL0     H92160   9.234  10.152   4.658  1.0183 -0.0839  0.7328
  683MOL0     H92161   9.504  10.018   4.674 -0.1069  3.2913  2.5369
  683MOL0     H92162   9.483  10.144   4.560 -1.0762  0.0819 -1.7812
  683MOL0     H92163   9.305  10.037   4.427  1.6212  1.7370 -0.1355
  683MOL0     H92164   9.317   9.898   4.535 -0.3129  0.5340 -1.5760
  683MOL0     H92165   9.625  10.037   4.208  1.8098 -1.2048 -0.0818
  683MOL0     H92166   9.567  10.005   3.963 -2.5583  1.1521 -1.8040
  683MOL0     H92167   8.972   9.831   3.795 -0.6345 -2.1529 -0.5822
  683MOL0     H92168   8.850   9.832   3.580  0.0734  2.3903 -0.6617
  683MOL0     H92169   8.775   9.781   3.356 -1.2843  1.1867 -0.5402
  683MOL0     H92170   8.806   9.946   3.399  0.6763 -1.4938  1.4791
  683MOL0     H92171   8.716   9.968   3.185  0.3660  0.1765 -5.2596
  683MOL0     H92172   8.880   9.996   3.162 -1.3412  2.1690  2.9625
  683MOL0     H92173   8.903   9.736   3.107 -1.2430 -1.8524 -0.4733
  683MOL0     H92174   8.735   9.732   3.087  1.4442 -3.0040 -0.8577
  683MOL0     H92175   8.900   9.945   2.944  0.0658 -0.3696  1.0422
  683MOL0     H92176   8.728   9.925   2.919 -1.6597 -0.5408  4.5495
  683MOL0     H92177   8.807   9.797   2.737 -1.4861  1.3191  0.3847
  683MOL0     H92178   8.765   9.688   2.868 -1.1629  0.6140  0.2799
  683MOL0     H92179   9.013   9.652   2.925  0.5915 -2.1656 -0.5452
  683MOL0     H92180   8.964   9.613   2.757  0.0975  1.1932 -1.8406
  683MOL0     H92181   9.032   9.889   2.759 -0.6989 -0.5147 -1.3330
  683MOL0     H92182   9.134   9.761   2.701  0.9446  0.7822  0.1903
  683MOL0     H92183   9.142   9.876   2.983  0.6518 -1.6159  0.9731
  683MOL0     H92184   9.251   9.758   2.935  2.4998  1.5163 -0.1900
  683MOL0     H92185   9.217   9.824   3.367 -1.7651  0.2563 -1.1496
  683MOL0     H92186   9.347   9.805   3.576  0.6290  1.2597 -5.4410
  683MOL0     H92187   9.203   9.796   4.071 -0.9504  0.8775 -0.6989
  683MOL0     H92188   9.255   9.840   4.305  1.9060 -0.5212  3.3982
  683MOL0     H92189   7.979  10.424   4.966 -2.0642  0.3840 -1.9180
  683MOL0     H92190   7.727  10.408   4.952  1.6662  0.3732 -1.8860
  683MOL0     H92191   7.373  10.251   5.141 -0.7421  1.6920 -1.0795
  683MOL0     H92192   7.135  10.272   5.156  0.1551  1.0378 -1.7251
  683MOL0     H92193   6.779  10.160   5.113  0.8771 -0.5517  0.7090
  683MOL0     H92194   6.908  10.260   5.155  0.6591 -0.2173  1.8850
  683MOL0     H92195   6.832  10.134   5.347  1.1832  0.0797  0.2139
  683MOL0     H92196   6.984  10.051   5.310 -1.1353 -0.1137  1.2210
  683MOL0     H92197   6.866   9.871   5.193 -1.0455 -0.0981 -0.5852
  683MOL0     H92198   6.714   9.950   5.233  0.7374  2.4420 -0.1560
  683MOL0     H92199   6.744   9.902   5.467  2.2353  3.1102  1.5968
  683MOL0     H92200   6.793   9.748   5.382 -2.0687  1.1821  2.5941
  683MOL0     H92201   7.130   9.864   5.595  1.4228 -0.1544 -1.9128
  683MOL0     H92202   7.108   9.957   4.859  2.0242  1.1356 -2.7559
  683MOL0     H92203   7.402  10.016   4.691  1.9513  0.0973  0.7944
  683MOL0     H92204   7.420   9.877   4.800  1.0223  0.4395  0.4747
  683MOL0     H92205   7.262   9.914   4.733 -0.7608  0.3275  0.0791
  684MOL0     O92206  10.414   4.027   4.746  0.3592  0.1333  0.3015
  684MOL0     C92207  10.356   4.056   4.640  0.4249 -0.0544  0.8547
  684MOL0     O92208  10.420   4.078   4.516  0.7626  0.0225  0.0041
  684MOL0     C92209  10.554   4.081   4.525  0.6935  0.4956  0.0579
  684MOL0     C92210  10.643   3.970   4.531  0.3139  0.0548  0.6349
  684MOL0     C92211  10.786   3.975   4.543 -0.1017 -0.0332  0.7986
  684MOL0     C92212  10.848   4.098   4.567  0.3318 -0.2970 -0.3354
  684MOL0     O92213  10.978   4.097   4.606 -0.3936 -0.2088  0.5123
  684MOL0     C92214  11.044   4.225   4.622  0.3494  0.1226  0.0994
  684MOL0     C92215  11.194   4.195   4.642  0.3722 -0.4140  0.9088
  684MOL0     C92216  11.274   4.140   4.519 -0.6851 -0.4557 -0.0803
  684MOL0     C92217  11.420   4.128   4.555  0.2957 -0.4349  0.1175
  684MOL0     C92218  11.509   4.080   4.437  0.4202 -0.8300  0.4178
  684MOL0     C92219  11.654   4.065   4.462 -0.5559  0.3608 -0.8987
  684MOL0     C92220  11.737   4.187   4.515  0.6049 -0.1939  0.6980
  684MOL0     C92221  11.891   4.156   4.534 -0.6127  0.8078  0.4679
  684MOL0     N92222  11.950   4.063   4.437  0.3772  0.1130  0.3371
  684MOL0     C92223  11.989   4.100   4.305 -0.0688  0.8921 -0.0092
  684MOL0     C92224  12.035   3.987   4.252 -0.6157  0.6328  0.8835
  684MOL0     C92225  12.093   3.963   4.116  0.5717  0.2170 -0.0776
  684MOL0     C92226  12.243   3.959   4.118 -0.1474  0.6790  0.0640
  684MOL0     C92227  12.302   3.829   4.178  0.4671  0.4143  0.2658
  684MOL0     C92228  12.447   3.805   4.131 -1.3324  1.2125  0.7092
  684MOL0     O92229  12.523   3.913   4.168 -0.1822  0.0689 -0.4987
  684MOL0     C92230  12.646   3.938   4.121  0.0258 -1.0314  0.3739
  684MOL0     C92231  12.702   4.058   4.154  0.0718  0.1575 -0.7315
  684MOL0     C92232  12.826   4.096   4.108  0.1387 -0.6033  0.3696
  684MOL0     C92233  12.884   4.017   4.013 -0.7854  0.2371 -0.1860
  684MOL0     C92234  13.007   4.073   3.951  0.3567 -0.0819  0.4088
  684MOL0     O92235  13.031   4.201   3.967 -1.0627 -0.3570 -0.2275
  684MOL0     C92236  13.134   4.269   3.913  0.2066  0.1805 -0.3403
  684MOL0     C92237  13.183   4.387   3.971 -0.3819  0.1207 -0.5059
  684MOL0     C92238  13.289   4.462   3.913 -0.2935 -0.4335  0.0686
  684MOL0     C92239  13.364   4.410   3.809 -0.0153  0.1935 -0.2154
  684MOL0     O92240  13.463   4.490   3.758 -0.3861  0.0111  0.4964
  684MOL0     C92241  13.580   4.410   3.722  0.1464 -0.0750  0.5075
  684MOL0     C92242  13.697   4.509   3.707  0.1909 -0.0919  0.4607
  684MOL0     C92243  13.825   4.436   3.686  0.9705 -0.3765  0.4425
  684MOL0     C92244  13.873   4.374   3.826 -0.3214  0.4737  0.0133
  684MOL0     C92245  14.009   4.313   3.821  0.2816 -0.3604 -0.2753
  684MOL0     C92246  14.079   4.312   3.960  0.5784  0.2369  0.3297
  684MOL0     C92247  14.208   4.237   3.963 -0.6591 -0.1319  0.5577
  684MOL0     C92248  14.268   4.239   4.099 -0.1836 -0.1435  0.8508
  684MOL0    Cl92249  14.437   4.171   4.081 -0.1944  0.2125 -0.3696
  684MOL0     C92250  13.318   4.291   3.750  0.9541 -0.1904 -0.6740
  684MOL0     C92251  13.207   4.221   3.797  0.4945  0.0088 -0.8654
  684MOL0     O92252  13.078   3.988   3.904  0.2243 -0.1083  0.6813
  684MOL0     C92253  12.830   3.897   3.977 -0.0990  0.2309 -0.1199
  684MOL0     C92254  12.714   3.858   4.033 -0.2932  0.0753 -0.1358
  684MOL0     N92255  12.009   3.884   4.342  0.0180 -0.4181  0.0190
  684MOL0     N92256  11.955   3.928   4.455  0.0987  0.3148 -0.4418
  684MOL0     C92257  10.763   4.215   4.570  0.1861 -0.0793  0.3344
  684MOL0     C92258  10.624   4.204   4.540  0.2055  0.5667  0.8871
  684MOL0     C92259  10.207   4.072   4.644 -0.1527  0.2097 -0.0275
  684MOL0     C92260  10.145   4.095   4.767 -0.1228  0.4578  1.4282
  684MOL0     C92261  10.011   4.101   4.775  0.5113 -0.2867  0.1761
  684MOL0     C92262   9.927   4.090   4.664  0.1966 -0.0632  0.1685
  684MOL0     O92263   9.792   4.087   4.685 -0.5069 -0.5166  0.0978
  684MOL0     C92264   9.701   4.114   4.585  0.1567 -0.6697  0.4106
  684MOL0     C92265   9.559   4.137   4.637 -0.1985  0.2291 -1.2490
  684MOL0     C92266   9.554   4.235   4.758 -0.1750  0.2208 -0.8533
  684MOL0     C92267   9.415   4.305   4.786 -0.5947 -1.8112 -0.4460
  684MOL0     C92268   9.317   4.207   4.809  0.4262 -0.1081 -0.3513
  684MOL0     C92269   9.234   4.121   4.826 -0.2299  0.1366  0.5193
  684MOL0     C92270   9.984   4.053   4.538 -0.0566 -0.2294 -0.2611
  684MOL0     C92271  10.122   4.053   4.525 -0.3357 -0.4083  0.4447
  684MOL0     C92272  10.169   4.026   4.375 -0.0538  0.1656 -1.4603
  684MOL0     H92273  10.596   3.876   4.504 -2.0661  1.8563 -2.1041
  684MOL0     H92274  10.842   3.882   4.552  1.0511  0.4787 -0.6497
  684MOL0     H92275  11.042   4.287   4.532  1.5388 -0.3108 -0.2408
  684MOL0     H92276  11.007   4.272   4.714  0.4386 -2.4578  1.5449
  684MOL0     H92277  11.192   4.108   4.708 -1.2942 -2.0524 -1.1591
  684MOL0     H92278  11.242   4.281   4.688 -1.7484  0.5991  1.3080
  684MOL0     H92279  11.265   4.206   4.432  1.4425  1.6861  1.2113
  684MOL0     H92280  11.246   4.040   4.483  2.2099 -0.8768 -1.4653
  684MOL0     H92281  11.448   4.223   4.600  0.8921 -0.4487 -0.2189
  684MOL0     H92282  11.439   4.049   4.628  0.0316 -2.0024 -1.4257
  684MOL0     H92283  11.470   3.986   4.397 -1.3577  1.3817 -3.6553
  684MOL0     H92284  11.503   4.155   4.357 -0.5689 -1.4351 -0.0877
  684MOL0     H92285  11.663   3.980   4.530 -1.2289  1.2855  0.3898
  684MOL0     H92286  11.696   4.040   4.364 -1.2762 -1.0989 -0.8486
  684MOL0     H92287  11.691   4.223   4.608 -0.5988  3.2393 -1.0484
  684MOL0     H92288  11.727   4.262   4.437  0.1889 -0.0495  0.8817
  684MOL0     H92289  11.952   4.246   4.536 -1.5892  1.4837  0.4955
  684MOL0     H92290  11.902   4.107   4.631 -0.8548  0.5100  0.3472
  684MOL0     H92291  11.979   4.195   4.254  1.2265  0.7776 -0.5237
  684MOL0     H92292  12.061   3.868   4.070  1.7982  0.0683 -0.6719
  684MOL0     H92293  12.070   4.036   4.038  0.2511 -0.4162 -0.5885
  684MOL0     H92294  12.270   3.968   4.013 -0.1854  0.7234  0.0581
  684MOL0     H92295  12.294   4.039   4.172  2.7987 -1.4188  0.6590
  684MOL0     H92296  12.235   3.747   4.151  1.1651 -0.2441  0.4927
  684MOL0     H92297  12.297   3.840   4.286  0.5319 -2.8177  0.6949
  684MOL0     H92298  12.451   3.797   4.022  1.2207 -0.5095  0.8557
  684MOL0     H92299  12.495   3.714   4.168  1.0605  2.0609 -0.1617
  684MOL0     H92300  12.656   4.120   4.231 -0.5629 -2.8816  1.5234
  684MOL0     H92301  12.858   4.195   4.138  1.1110 -0.7307 -0.2059
  684MOL0     H92302  13.122   4.420   4.055  3.5089 -0.8571  3.1013
  684MOL0     H92303  13.307   4.566   3.939 -1.1823 -0.2830  0.1374
  684MOL0     H92304  13.597   4.336   3.801 -1.2506 -1.1521 -0.1525
  684MOL0     H92305  13.568   4.365   3.623 -0.7985 -0.3069  0.7099
  684MOL0     H92306  13.683   4.578   3.623  0.4168 -0.6021  0.0010
  684MOL0     H92307  13.699   4.567   3.800  0.5369  1.3573 -0.4136
  684MOL0     H92308  13.799   4.362   3.610  0.5314  2.1821 -2.0774
  684MOL0     H92309  13.896   4.506   3.639 -0.6479  1.4515  0.5778
  684MOL0     H92310  13.802   4.300   3.865  1.1373 -0.3156  1.2947
  684MOL0     H92311  13.888   4.446   3.907  1.6669 -0.1132  0.2007
  684MOL0     H92312  14.073   4.366   3.751 -1.1855  1.6412 -0.1713
  684MOL0     H92313  13.995   4.208   3.793  0.7582 -1.7190  3.9050
  684MOL0     H92314  14.106   4.413   3.992 -0.2972 -0.1022  2.2837
  684MOL0     H92315  14.014   4.260   4.032 -0.3231 -1.3917 -1.5777
  684MOL0     H92316  14.284   4.285   3.901 -0.1141 -0.1519  1.1900
  684MOL0     H92317  14.196   4.131   3.936  0.0227 -0.3469  1.0671
  684MOL0     H92318  14.278   4.335   4.150  0.6186 -0.9565  2.2831
  684MOL0     H92319  14.208   4.172   4.161 -1.9904  0.8228  0.2085
  684MOL0     H92320  13.371   4.235   3.673  1.4302 -0.4732 -0.1478
  684MOL0     H92321  13.179   4.128   3.747  0.4142  0.1687 -1.1226
  684MOL0     H92322  12.870   3.828   3.903 -3.7749 -2.1676 -0.0714
  684MOL0     H92323  12.682   3.757   4.008  1.6992 -1.1152  1.8008
  684MOL0     H92324  10.805   4.315   4.576 -0.5329  0.5505 -2.8052
  684MOL0     H92325  10.569   4.295   4.520  2.7341  2.0682  0.2338
  684MOL0     H92326  10.193   4.103   4.864  0.6777  0.3988  1.0492
  684MOL0     H92327   9.972   4.116   4.875  1.2549 -2.7685  0.9166
  684MOL0     H92328   9.693   4.024   4.524 -1.1621  0.7666 -1.6461
  684MOL0     H92329   9.731   4.204   4.532 -1.7759  0.2445  0.7850
  684MOL0     H92330   9.525   4.043   4.681 -0.9573  0.0861 -2.1099
  684MOL0     H92331   9.488   4.173   4.561 -0.2282  0.1061 -1.2785
  684MOL0     H92332   9.631   4.305   4.725  1.5045 -1.5167 -0.7515
  684MOL0     H92333   9.585   4.184   4.850  0.6799  0.8238 -0.7994
  684MOL0     H92334   9.423   4.377   4.869 -0.0033 -2.1629 -0.1936
  684MOL0     H92335   9.387   4.361   4.696  1.0559  1.4526  0.9070
  684MOL0     H92336   9.150   4.061   4.855 -1.6462  2.5647  1.6901
  684MOL0     H92337   9.924   4.048   4.447  2.0923 -2.4408 -1.6852
  684MOL0     H92338  10.229   4.111   4.340  5.0042 -1.8817  1.1507
  684MOL0     H92339  10.236   3.940   4.364 -0.5480 -0.0711 -2.7920
  684MOL0     H92340  10.078   4.024   4.314 -0.7660 -0.2227 -0.4137
  685MOL0     O92341   8.251   1.294   5.506  0.6558  0.6231 -0.7200
  685MOL0     C92342   8.160   1.226   5.450  0.6651 -0.1666  0.0194
  685MOL0     O92343   8.182   1.120   5.371  0.4364  0.3544  0.3991
  685MOL0     C92344   8.301   1.099   5.318 -0.4436 -0.2985  1.0358
  685MOL0     C92345   8.307   1.126   5.177  0.1398  0.0294  0.3421
  685MOL0     C92346   8.429   1.123   5.112  0.1388 -0.3064  1.3758
  685MOL0     C92347   8.542   1.078   5.179 -0.4492  0.2251  0.2611
  685MOL0     O92348   8.667   1.078   5.115  0.8319  0.0672 -0.1202
  685MOL0     C92349   8.687   1.134   4.982  0.2938  0.7865 -0.4719
  685MOL0     C92350   8.825   1.113   4.937 -0.6547  0.6548 -0.0328
  685MOL0     C92351   8.911   1.191   5.031 -0.8510 -0.9634  0.6336
  685MOL0     C92352   9.052   1.210   4.966 -0.2635 -0.1639  0.3114
  685MOL0     C92353   9.146   1.311   5.044 -0.5639  0.6936 -0.0394
  685MOL0     C92354   9.183   1.258   5.179 -0.6293 -0.2691  0.1056
  685MOL0     C92355   9.307   1.348   5.232  0.4732  0.1501 -0.6972
  685MOL0     C92356   9.442   1.304   5.172 -0.4672 -0.5205  0.2839
  685MOL0     N92357   9.532   1.423   5.161  1.0900  0.0892  0.1763
  685MOL0     C92358   9.522   1.521   5.071 -0.1912 -0.9637  0.6229
  685MOL0     C92359   9.599   1.625   5.125  1.1757 -0.0493  0.5217
  685MOL0     C92360   9.654   1.746   5.061  0.1507  0.2540 -0.1740
  685MOL0     C92361   9.716   1.723   4.925  0.6479  0.3382  0.5881
  685MOL0     C92362   9.780   1.849   4.873  0.7838 -0.0567  0.3938
  685MOL0     C92363   9.789   1.849   4.727  0.5813  0.2829  0.7231
  685MOL0     O92364   9.898   1.759   4.678  0.4808  0.2908  0.0630
  685MOL0     C92365  10.027   1.805   4.665 -0.3704  0.9063 -0.4887
  685MOL0     C92366  10.067   1.936   4.678 -0.4446 -0.2129  0.3538
  685MOL0     C92367  10.206   1.965   4.661  0.4282  0.0152  0.6057
  685MOL0     C92368  10.298   1.869   4.627 -1.3553  0.4329  0.2840
  685MOL0     C92369  10.442   1.895   4.623  0.0665  0.1974 -0.4923
  685MOL0     O92370  10.527   1.783   4.617  0.3199  0.3868 -0.2839
  685MOL0     C92371  10.664   1.794   4.614  0.3154 -0.0276  0.9128
  685MOL0     C92372  10.743   1.732   4.713 -0.4955 -0.5199  0.0218
  685MOL0     C92373  10.879   1.729   4.698 -0.1488 -0.1971 -0.1632
  685MOL0     C92374  10.945   1.779   4.589  0.6818 -0.5319  0.3585
  685MOL0     O92375  11.077   1.784   4.591 -0.0363 -0.0799  0.4698
  685MOL0     C92376  11.153   1.739   4.474  0.6994  0.1746 -0.0805
  685MOL0     C92377  11.302   1.783   4.466 -0.0322  0.5190 -0.1747
  685MOL0     C92378  11.391   1.710   4.571 -0.7969  0.1167  0.5881
  685MOL0     C92379  11.533   1.763   4.568  0.4156 -0.6995 -0.0749
  685MOL0     C92380  11.635   1.655   4.609 -0.7437 -1.0452 -0.1448
  685MOL0     C92381  11.775   1.711   4.634 -0.4196  0.1428 -0.0590
  685MOL0     C92382  11.850   1.594   4.687  0.7690 -0.3617 -0.4351
  685MOL0     C92383  11.994   1.625   4.713  0.1504  0.9787 -0.2033
  685MOL0    Cl92384  12.054   1.485   4.794  0.0957 -0.3007 -0.3199
  685MOL0     C92385  10.863   1.836   4.481 -0.8523 -0.1876  0.5245
  685MOL0     C92386  10.725   1.848   4.499  1.2918 -0.1211  0.3737
  685MOL0     O92387  10.479   2.009   4.637 -0.1123  0.3300 -0.2854
  685MOL0     C92388  10.256   1.743   4.588  0.2668  0.5102  0.0347
  685MOL0     C92389  10.123   1.703   4.622  0.8532  0.0159 -0.1965
  685MOL0     N92390   9.655   1.574   5.242  0.1649 -0.3682 -0.5894
  685MOL0     N92391   9.615   1.463   5.263  0.2033  0.2173  0.1703
  685MOL0     C92392   8.537   1.048   5.318 -0.5422 -0.1712  0.7490
  685MOL0     C92393   8.420   1.047   5.382 -0.0474  0.0053 -0.0031
  685MOL0     C92394   8.016   1.237   5.493  0.2516 -0.1132  0.6258
  685MOL0     C92395   7.937   1.124   5.492  0.0116  0.7159 -0.6499
  685MOL0     C92396   7.807   1.125   5.533  0.7359 -0.5821 -0.2384
  685MOL0     C92397   7.749   1.246   5.565  0.4398  0.5052  0.1127
  685MOL0     O92398   7.620   1.245   5.613  0.6490 -0.6565 -0.2054
  685MOL0     C92399   7.547   1.367   5.608  0.5713  0.3713 -0.5009
  685MOL0     C92400   7.408   1.330   5.664  0.0657 -0.0449  0.6055
  685MOL0     C92401   7.306   1.411   5.584 -0.4124  0.3861  0.1203
  685MOL0     C92402   7.171   1.370   5.627  0.0695  0.7971 -0.4611
  685MOL0     C92403   7.064   1.441   5.545  0.3151 -0.8803  0.2145
  685MOL0     C92404   6.983   1.488   5.465 -0.9332 -0.0962 -0.8658
  685MOL0     C92405   7.825   1.364   5.556 -0.2154  0.3854 -0.6208
  685MOL0     C92406   7.960   1.368   5.531 -0.6846  0.8758  0.4117
  685MOL0     C92407   8.035   1.496   5.526 -0.4752  0.2325 -0.8798
  685MOL0     H92408   8.221   1.144   5.114  0.7451 -0.5094 -0.6607
  685MOL0     H92409   8.430   1.148   5.007 -1.2864 -1.6605  1.0030
  685MOL0     H92410   8.622   1.075   4.916 -1.3600  0.9284  0.9379
  685MOL0     H92411   8.656   1.238   4.969 -3.1898 -0.3597 -2.7107
  685MOL0     H92412   8.819   1.147   4.833 -1.7697  0.7222  0.0474
  685MOL0     H92413   8.857   1.010   4.956  2.5176  2.1032  3.9290
  685MOL0     H92414   8.922   1.140   5.127 -0.0197  0.3359  1.2507
  685MOL0     H92415   8.868   1.287   5.059  0.0290 -0.8657  1.7312
  685MOL0     H92416   9.106   1.115   4.957  0.4934  0.1254  1.5746
  685MOL0     H92417   9.041   1.246   4.864  2.4564 -1.5430 -0.5771
  685MOL0     H92418   9.236   1.320   4.982 -0.0369 -1.4759  0.3442
  685MOL0     H92419   9.098   1.409   5.044 -4.9468 -1.1982 -0.0948
  685MOL0     H92420   9.096   1.261   5.245 -0.5757  2.3646  0.1308
  685MOL0     H92421   9.203   1.150   5.183 -0.2523 -0.1698  1.2873
  685MOL0     H92422   9.317   1.329   5.339  0.1468  0.2434 -0.6486
  685MOL0     H92423   9.282   1.454   5.222  1.1472  0.6614  2.1698
  685MOL0     H92424   9.488   1.224   5.230  0.6089 -0.8627 -1.0067
  685MOL0     H92425   9.421   1.262   5.073  4.8170  1.1799 -1.8831
  685MOL0     H92426   9.466   1.526   4.978 -2.5744 -3.5212  1.7606
  685MOL0     H92427   9.568   1.813   5.063 -0.0044  0.0285  1.4477
  685MOL0     H92428   9.725   1.798   5.125  0.6366 -0.8127  0.1863
  685MOL0     H92429   9.795   1.648   4.940  1.0735  0.6840  0.1138
  685MOL0     H92430   9.654   1.677   4.848 -0.4021 -0.9203  2.1146
  685MOL0     H92431   9.881   1.863   4.912 -0.0561  0.0217  2.6744
  685MOL0     H92432   9.720   1.933   4.909  0.4510 -1.0424  2.2697
  685MOL0     H92433   9.796   1.953   4.695  1.8772 -0.1263 -0.4050
  685MOL0     H92434   9.693   1.813   4.690  1.5761 -0.0962 -1.6623
  685MOL0     H92435  10.008   2.022   4.708 -0.5375  0.5388 -1.7877
  685MOL0     H92436  10.248   2.063   4.680 -1.0486  1.1665 -1.5060
  685MOL0     H92437  10.704   1.685   4.802 -0.5814  1.1453  0.8858
  685MOL0     H92438  10.933   1.689   4.783 -3.2227 -0.2699  1.9196
  685MOL0     H92439  11.148   1.629   4.469 -2.9821  0.2469 -1.3281
  685MOL0     H92440  11.110   1.774   4.380 -0.6995 -1.8361 -0.2520
  685MOL0     H92441  11.345   1.768   4.366 -0.7512 -1.1464 -0.2722
  685MOL0     H92442  11.312   1.887   4.498  1.2930  0.0522  1.0708
  685MOL0     H92443  11.350   1.716   4.673 -2.3025 -2.4473  0.2336
  685MOL0     H92444  11.386   1.604   4.543  0.1525  0.6355 -1.7430
  685MOL0     H92445  11.554   1.850   4.631  0.7756 -0.4976 -0.4642
  685MOL0     H92446  11.558   1.788   4.464 -1.9685 -2.1568 -1.0778
  685MOL0     H92447  11.633   1.573   4.537 -0.2664 -1.9171  0.8012
  685MOL0     H92448  11.595   1.608   4.699 -4.4998  0.6757 -0.7650
  685MOL0     H92449  11.823   1.764   4.552 -0.6854 -1.2808 -1.1706
  685MOL0     H92450  11.761   1.787   4.711 -1.0394  0.4798 -0.4968
  685MOL0     H92451  11.856   1.511   4.617  3.4202 -0.1518 -0.5358
  685MOL0     H92452  11.805   1.569   4.784 -0.9728  2.1013 -0.4985
  685MOL0     H92453  12.034   1.640   4.613  0.6021  0.1273 -0.1629
  685MOL0     H92454  12.008   1.714   4.775 -1.5339  0.8577  0.4014
  685MOL0     H92455  10.920   1.880   4.400 -0.3735  1.6936  1.8092
  685MOL0     H92456  10.675   1.900   4.417  1.2680  1.9694  1.6490
  685MOL0     H92457  10.322   1.658   4.573  0.3996  0.7226 -0.6320
  685MOL0     H92458  10.083   1.602   4.617 -1.6528  0.8883  0.7499
  685MOL0     H92459   8.620   0.992   5.359 -0.8702 -0.9429  0.3935
  685MOL0     H92460   8.422   1.030   5.489 -2.1533  1.2067  0.3039
  685MOL0     H92461   7.981   1.031   5.455  2.0064  2.1130 -2.0330
  685MOL0     H92462   7.753   1.031   5.540 -0.5279  0.1111 -0.2589
  685MOL0     H92463   7.524   1.401   5.507 -1.6469 -0.6948 -0.4120
  685MOL0     H92464   7.599   1.444   5.667 -1.5804  2.6446 -1.4312
  685MOL0     H92465   7.393   1.350   5.770 -1.4060 -0.4685  0.5001
  685MOL0     H92466   7.399   1.222   5.647 -1.3276  0.4011 -2.0152
  685MOL0     H92467   7.334   1.392   5.480  1.3918  1.1429  0.4292
  685MOL0     H92468   7.314   1.519   5.598 -2.2410  0.5647 -0.0444
  685MOL0     H92469   7.150   1.263   5.616  1.5695  0.3871  0.4841
  685MOL0     H92470   7.161   1.404   5.730 -0.5911  0.6596 -0.4699
  685MOL0     H92471   6.920   1.545   5.399 -1.0243 -0.0484 -0.7383
  685MOL0     H92472   7.786   1.463   5.577 -0.7340  0.7501 -3.0626
  685MOL0     H92473   8.108   1.514   5.446  0.6687  1.6309  0.4045
  685MOL0     H92474   7.964   1.579   5.519 -0.0218  0.6107 -1.0472
  685MOL0     H92475   8.090   1.513   5.620 -1.9621  2.9941 -0.3852
  686MOL0     O92476   6.873   4.823   5.220  0.7738  0.4125 -0.0827
  686MOL0     C92477   6.831   4.738   5.299 -0.8098 -0.4089  0.0387
  686MOL0     O92478   6.908   4.671   5.391 -0.0201 -0.3215  0.4184
  686MOL0     C92479   7.045   4.675   5.372 -0.0980 -0.2974  0.1621
  686MOL0     C92480   7.103   4.641   5.254  0.4972  0.7869 -0.6380
  686MOL0     C92481   7.245   4.658   5.227  0.0330  0.0249 -0.3501
  686MOL0     C92482   7.332   4.685   5.333 -0.1030  0.0618 -0.2536
  686MOL0     O92483   7.463   4.698   5.296  0.3905  0.1795  0.4749
  686MOL0     C92484   7.557   4.751   5.384  0.3875  0.5359 -0.6034
  686MOL0     C92485   7.690   4.766   5.313  0.6292  0.2379  0.0055
  686MOL0     C92486   7.804   4.807   5.410  0.2518 -0.5638  0.0627
  686MOL0     C92487   7.932   4.846   5.341  0.2992  0.2550 -0.5160
  686MOL0     C92488   8.033   4.888   5.439  0.2755  0.3884 -0.5991
  686MOL0     C92489   8.167   4.926   5.380  0.4109  0.0037 -0.5307
  686MOL0     C92490   8.241   4.810   5.307 -0.4356 -0.0603 -0.6208
  686MOL0     C92491   8.344   4.871   5.217  0.0280 -0.2298 -0.2552
  686MOL0     N92492   8.452   4.940   5.282 -0.2507  0.0798  0.5683
  686MOL0     C92493   8.567   4.888   5.336 -0.6284  0.3426  0.5678
  686MOL0     C92494   8.632   4.999   5.377  0.7982  0.0899  1.1355
  686MOL0     C92495   8.754   5.011   5.451 -0.8154  0.4017 -0.7781
  686MOL0     C92496   8.867   4.920   5.403 -0.0252 -0.3742  0.7645
  686MOL0     C92497   8.891   4.929   5.248 -0.2154 -0.3507  0.0446
  686MOL0     C92498   9.019   4.854   5.208 -0.0646 -0.0963  1.0023
  686MOL0     O92499   9.025   4.711   5.235 -0.0791 -0.6666  0.6887
  686MOL0     C92500   9.143   4.644   5.212 -1.2516  0.3506  0.4400
  686MOL0     C92501   9.264   4.713   5.188 -0.2972 -0.8090 -0.3050
  686MOL0     C92502   9.383   4.650   5.173 -0.7835  0.6451  0.0472
  686MOL0     C92503   9.392   4.507   5.164 -0.3255  0.4919  1.0083
  686MOL0     C92504   9.522   4.436   5.153  0.6760  0.1683  1.0352
  686MOL0     O92505   9.626   4.513   5.185 -0.3995  0.4149 -0.6327
  686MOL0     C92506   9.747   4.476   5.133  0.5148 -0.2820  0.5118
  686MOL0     C92507   9.768   4.423   5.008 -0.2232  0.5159 -0.7157
  686MOL0     C92508   9.896   4.393   4.963 -0.2151  0.4487 -0.4492
  686MOL0     C92509  10.008   4.434   5.034 -0.3116 -0.3179  0.3038
  686MOL0     O92510  10.125   4.428   4.971 -0.9058 -0.4454 -0.0048
  686MOL0     C92511  10.238   4.380   5.038  0.6910 -0.0823 -0.3794
  686MOL0     C92512  10.369   4.377   4.949 -0.6056  0.3663  0.2968
  686MOL0     C92513  10.473   4.288   5.019  0.4285 -0.2630 -0.3051
  686MOL0     C92514  10.621   4.332   4.982 -0.0745  0.1913 -1.0138
  686MOL0     C92515  10.720   4.249   5.066 -0.2242 -0.1858 -0.3239
  686MOL0     C92516  10.855   4.315   5.049  0.4671  0.7167  0.0940
  686MOL0     C92517  10.979   4.227   5.087  0.4547 -0.0023 -0.7365
  686MOL0     C92518  11.119   4.288   5.050  0.7107 -0.5358 -0.3892
  686MOL0    Cl92519  11.160   4.401   5.181  0.0972 -0.2590  0.4014
  686MOL0     C92520   9.992   4.498   5.147  0.3484  0.6667  0.1311
  686MOL0     C92521   9.858   4.514   5.205  0.3749 -0.6189 -0.4948
  686MOL0     O92522   9.526   4.319   5.119  0.1100  0.3960 -0.5477
  686MOL0     C92523   9.275   4.430   5.173  0.1669 -0.0774 -0.2766
  686MOL0     C92524   9.153   4.504   5.199 -0.3386  0.3169  0.5737
  686MOL0     N92525   8.562   5.115   5.334  0.3311 -0.0237 -0.0857
  686MOL0     N92526   8.461   5.080   5.272 -0.2275 -0.1690 -0.1577
  686MOL0     C92527   7.272   4.708   5.463  0.8267 -0.3796  0.2535
  686MOL0     C92528   7.136   4.701   5.482 -0.5226 -0.7661  0.1513
  686MOL0     C92529   6.692   4.703   5.284 -0.1149 -0.1830 -0.3314
  686MOL0     C92530   6.624   4.646   5.393  0.0497  0.5303 -0.0136
  686MOL0     C92531   6.496   4.586   5.378 -0.0585 -1.0782  0.1476
  686MOL0     C92532   6.425   4.611   5.263 -0.0707 -0.7215  0.6693
  686MOL0     O92533   6.292   4.585   5.243  0.0443  1.1237  0.2362
  686MOL0     C92534   6.209   4.497   5.316 -0.0491  0.2991  0.0429
  686MOL0     C92535   6.138   4.566   5.428  0.4446  0.2990  0.3348
  686MOL0     C92536   6.049   4.689   5.379  0.0951  0.0501 -0.2773
  686MOL0     C92537   5.963   4.747   5.489  0.0273  0.1719 -0.3185
  686MOL0     C92538   5.869   4.852   5.452  1.1110 -0.3950 -0.9234
  686MOL0     C92539   5.817   4.967   5.438  0.5060 -0.1170  0.1421
  686MOL0     C92540   6.482   4.677   5.157 -0.9152 -0.6247 -0.0020
  686MOL0     C92541   6.620   4.715   5.157 -0.5644  0.1509  0.3108
  686MOL0     C92542   6.679   4.775   5.031  0.1561 -0.2053  0.5291
  686MOL0     H92543   7.049   4.605   5.167  2.0863 -0.5337 -1.1173
  686MOL0     H92544   7.282   4.641   5.126 -1.2501 -2.4473 -0.4701
  686MOL0     H92545   7.525   4.852   5.409 -0.4414  0.1107  0.1029
  686MOL0     H92546   7.564   4.688   5.473 -0.8096 -1.7578 -2.0294
  686MOL0     H92547   7.685   4.833   5.227 -0.3106  1.1965  0.7738
  686MOL0     H92548   7.716   4.669   5.272 -0.5860  0.0768 -0.4202
  686MOL0     H92549   7.833   4.719   5.468 -0.8650 -0.9076  0.1224
  686MOL0     H92550   7.759   4.885   5.473  0.5114  0.7279 -1.2967
  686MOL0     H92551   7.968   4.757   5.288  0.9594  0.4256 -0.3587
  686MOL0     H92552   7.919   4.919   5.261 -0.6392 -0.4780 -1.0623
  686MOL0     H92553   7.993   4.970   5.500 -1.0314 -0.4188 -0.3421
  686MOL0     H92554   8.045   4.802   5.505  0.7566  0.4882 -0.5464
  686MOL0     H92555   8.151   5.008   5.310  1.1505  1.9419  1.4449
  686MOL0     H92556   8.238   4.956   5.458 -1.0238  1.3798  0.3136
  686MOL0     H92557   8.177   4.743   5.249  0.1421  1.3533 -3.0019
  686MOL0     H92558   8.290   4.755   5.388 -0.8427  0.5029  0.0109
  686MOL0     H92559   8.389   4.804   5.143  0.7522  2.4357 -2.3700
  686MOL0     H92560   8.297   4.932   5.140  1.9735 -2.0650 -3.0951
  686MOL0     H92561   8.596   4.788   5.366 -1.1294  0.7949  2.7167
  686MOL0     H92562   8.785   5.116   5.447  0.0811  0.1409 -0.8992
  686MOL0     H92563   8.734   4.994   5.557  0.9739 -0.9804 -0.6259
  686MOL0     H92564   8.957   4.954   5.456  0.7140 -0.0501 -0.6541
  686MOL0     H92565   8.846   4.815   5.424 -1.4859 -0.1664  0.4404
  686MOL0     H92566   8.896   5.035   5.223 -2.5891  0.3734  2.1393
  686MOL0     H92567   8.805   4.893   5.190 -2.8932 -0.6673  3.8124
  686MOL0     H92568   9.092   4.918   5.259  0.7811 -0.3483  0.1360
  686MOL0     H92569   9.032   4.853   5.100 -1.4169 -1.6055  0.8310
  686MOL0     H92570   9.270   4.821   5.182  2.7219 -0.8816 -0.2774
  686MOL0     H92571   9.473   4.712   5.169 -0.3162 -0.0350 -0.1659
  686MOL0     H92572   9.685   4.403   4.942 -0.4340 -0.0008 -0.2994
  686MOL0     H92573   9.917   4.350   4.865  1.1031  1.7748 -0.7852
  686MOL0     H92574  10.251   4.449   5.121  1.8252 -0.8673  0.1080
  686MOL0     H92575  10.212   4.278   5.065 -1.0808  0.2736 -0.6106
  686MOL0     H92576  10.347   4.331   4.852  0.7054 -0.6677  0.4507
  686MOL0     H92577  10.415   4.476   4.944  1.6575 -0.6258 -0.2337
  686MOL0     H92578  10.462   4.295   5.127 -1.4331 -1.1388 -0.4117
  686MOL0     H92579  10.467   4.181   4.997  1.6603 -0.5077  0.4865
  686MOL0     H92580  10.638   4.440   4.991 -0.0123  0.1120 -0.0922
  686MOL0     H92581  10.642   4.319   4.875 -2.2676  5.0837 -2.3494
  686MOL0     H92582  10.719   4.145   5.034  1.6174 -0.5819  0.7576
  686MOL0     H92583  10.686   4.239   5.169 -1.0468 -1.3976 -0.6980
  686MOL0     H92584  10.864   4.335   4.942 -1.4834 -3.0608 -0.9608
  686MOL0     H92585  10.865   4.409   5.103  1.0532  1.1531 -0.7465
  686MOL0     H92586  10.968   4.136   5.027 -0.2335 -0.2055 -0.3157
  686MOL0     H92587  10.969   4.198   5.192  3.0582 -3.0415 -1.1857
  686MOL0     H92588  11.196   4.212   5.043  0.6732 -0.4222 -3.6069
  686MOL0     H92589  11.116   4.335   4.951  0.7895  2.2027  0.8168
  686MOL0     H92590  10.080   4.529   5.202 -0.4051  0.1120  1.7261
  686MOL0     H92591   9.857   4.568   5.299 -1.5254 -0.2420 -0.6857
  686MOL0     H92592   9.278   4.321   5.178 -0.4256 -0.1033 -0.3745
  686MOL0     H92593   9.054   4.460   5.201 -1.3748  2.4164 -0.5105
  686MOL0     H92594   7.336   4.727   5.549  0.6254  1.0930  0.1019
  686MOL0     H92595   7.087   4.739   5.571 -1.9744 -0.5359 -0.7096
  686MOL0     H92596   6.672   4.624   5.487 -1.6514 -1.7887  0.4062
  686MOL0     H92597   6.461   4.528   5.462  0.2605 -1.5332 -0.0312
  686MOL0     H92598   6.266   4.415   5.361 -1.1456  0.1277  1.1708
  686MOL0     H92599   6.139   4.451   5.247  1.5555  0.2488 -1.6475
  686MOL0     H92600   6.205   4.606   5.504  1.8216  0.3731 -0.8787
  686MOL0     H92601   6.070   4.496   5.478  0.2729  0.8400  0.8674
  686MOL0     H92602   5.974   4.657   5.307 -0.1268 -0.6321  0.2543
  686MOL0     H92603   6.103   4.773   5.334 -1.2531  1.7662  1.1610
  686MOL0     H92604   5.902   4.669   5.535 -2.3160  0.2113 -3.0525
  686MOL0     H92605   6.020   4.780   5.576 -2.3344 -3.4152  2.9425
  686MOL0     H92606   5.797   5.072   5.424  1.3324 -0.0548 -0.6224
  686MOL0     H92607   6.425   4.706   5.070  1.0482 -0.5830 -1.3521
  686MOL0     H92608   6.611   4.756   4.947 -3.0658  3.2483  2.0821
  686MOL0     H92609   6.689   4.882   5.052  0.3471 -0.3418  1.1519
  686MOL0     H92610   6.775   4.731   5.003  0.9254  0.0205  2.6185
  687MOL0     O92611   7.588   3.826   3.363 -0.2520  0.4750 -0.1193
  687MOL0     C92612   7.523   3.786   3.458 -0.1955 -0.2775 -0.2841
  687MOL0     O92613   7.538   3.830   3.587 -0.2823 -0.0544  0.1400
  687MOL0     C92614   7.653   3.897   3.606  0.5614  0.1200 -0.5338
  687MOL0     C92615   7.781   3.835   3.619  0.7667  1.4222  0.2472
  687MOL0     C92616   7.894   3.916   3.631 -0.0717  0.3047 -0.0415
  687MOL0     C92617   7.887   4.061   3.646 -0.4291 -1.1307 -0.0825
  687MOL0     O92618   8.008   4.134   3.654 -0.4627  0.0321 -0.7083
  687MOL0     C92619   8.013   4.266   3.593  0.6040 -0.7654  0.0046
  687MOL0     C92620   8.151   4.322   3.602 -0.2579  0.3456 -0.5579
  687MOL0     C92621   8.190   4.452   3.546  0.1022 -0.5133  0.6268
  687MOL0     C92622   8.142   4.576   3.622  0.6698  0.0716 -0.1922
  687MOL0     C92623   8.233   4.700   3.608 -0.8079 -0.0851  0.1762
  687MOL0     C92624   8.278   4.726   3.464 -0.5131 -0.3387 -0.2849
  687MOL0     C92625   8.337   4.869   3.444  0.1717 -0.7800  0.2190
  687MOL0     C92626   8.451   4.906   3.543  0.5888 -0.5839 -0.2085
  687MOL0     N92627   8.568   4.827   3.539  0.7119  0.2435  0.2111
  687MOL0     C92628   8.656   4.821   3.433 -0.4624  0.0777  0.1229
  687MOL0     C92629   8.760   4.741   3.477 -0.3957 -0.7209  0.8001
  687MOL0     C92630   8.887   4.712   3.392  0.4040 -0.6699  0.0334
  687MOL0     C92631   9.021   4.750   3.447 -0.2728  0.2837 -0.2412
  687MOL0     C92632   9.133   4.660   3.384 -0.3840 -0.3997  0.2364
  687MOL0     C92633   9.260   4.691   3.455  0.2638 -0.0218 -0.1925
  687MOL0     O92634   9.355   4.607   3.398 -0.2561  0.0037 -0.6876
  687MOL0     C92635   9.478   4.654   3.395 -1.3368  0.8107 -0.6490
  687MOL0     C92636   9.547   4.664   3.275  0.3742 -0.6400  0.1421
  687MOL0     C92637   9.687   4.691   3.266 -0.0784 -0.2726  0.2091
  687MOL0     C92638   9.757   4.711   3.380  0.4281  0.4563 -0.3873
  687MOL0     C92639   9.911   4.714   3.371  0.3490 -0.0179 -0.5781
  687MOL0     O92640   9.977   4.716   3.494 -0.1328 -0.5113 -0.5128
  687MOL0     C92641  10.111   4.710   3.486 -0.3384 -0.0423  0.5821
  687MOL0     C92642  10.189   4.808   3.550 -0.4567 -0.1398  0.2163
  687MOL0     C92643  10.335   4.814   3.541  0.2690 -0.3477  0.4260
  687MOL0     C92644  10.399   4.710   3.472  0.1072  0.7801  0.6549
  687MOL0     O92645  10.535   4.712   3.442  0.1600 -0.4013  0.6229
  687MOL0     C92646  10.623   4.703   3.551  0.0589 -0.3818 -0.4172
  687MOL0     C92647  10.772   4.701   3.512 -0.1369  0.0525  1.0325
  687MOL0     C92648  10.857   4.711   3.638 -0.1817  0.0469 -0.0942
  687MOL0     C92649  11.007   4.708   3.616  0.0431 -0.0519  0.8452
  687MOL0     C92650  11.082   4.731   3.741 -0.8595  0.2559  0.7566
  687MOL0     C92651  11.233   4.770   3.712  0.2845 -0.1983 -0.5864
  687MOL0     C92652  11.313   4.819   3.836  0.0685 -1.4208 -0.3151
  687MOL0     C92653  11.246   4.960   3.882 -0.0970  0.2415 -0.3670
  687MOL0    Cl92654  11.313   4.985   4.051  0.4125  0.5723 -0.1536
  687MOL0     C92655  10.319   4.606   3.420  0.1998 -1.1313 -0.2129
  687MOL0     C92656  10.180   4.601   3.432 -0.4373 -0.9229 -0.2876
  687MOL0     O92657   9.961   4.705   3.258  0.3450 -0.7168 -0.3198
  687MOL0     C92658   9.695   4.723   3.504 -0.3159  0.3987  0.0110
  687MOL0     C92659   9.557   4.689   3.511  0.1805  0.0492  0.1270
  687MOL0     N92660   8.732   4.705   3.609 -0.0637  0.6309 -0.4188
  687MOL0     N92661   8.613   4.750   3.640 -0.4067 -0.5976  0.3904
  687MOL0     C92662   7.757   4.117   3.637  0.4502  0.9483 -0.5156
  687MOL0     C92663   7.640   4.038   3.618 -0.0872  0.2377  0.1029
  687MOL0     C92664   7.410   3.690   3.436  0.3763 -0.0420 -0.7302
  687MOL0     C92665   7.310   3.697   3.530  0.8477  0.5729 -0.7451
  687MOL0     C92666   7.202   3.612   3.530 -0.4379 -0.8368 -0.1618
  687MOL0     C92667   7.177   3.521   3.426 -0.2340 -0.4679 -0.2167
  687MOL0     O92668   7.065   3.438   3.420 -0.7043  0.0620  0.5218
  687MOL0     C92669   6.969   3.420   3.526 -0.6309 -1.1913 -0.0472
  687MOL0     C92670   6.878   3.306   3.502  0.7042 -0.2547 -0.1523
  687MOL0     C92671   6.796   3.275   3.629  0.4796 -0.3871 -0.5391
  687MOL0     C92672   6.733   3.146   3.605  0.1789 -0.1087  0.4125
  687MOL0     C92673   6.662   3.105   3.725  0.2186 -1.4114 -0.6486
  687MOL0     C92674   6.619   3.088   3.840 -1.1572 -0.3939  0.0715
  687MOL0     C92675   7.278   3.514   3.324 -0.3849 -0.1776 -0.4769
  687MOL0     C92676   7.391   3.596   3.329 -0.3643 -0.1121 -0.1747
  687MOL0     C92677   7.491   3.571   3.225 -0.1971 -0.1570  0.9813
  687MOL0     H92678   7.789   3.729   3.600  0.4094  1.3354  0.5748
  687MOL0     H92679   7.987   3.860   3.637  1.6260  2.7937 -1.2721
  687MOL0     H92680   7.976   4.269   3.490  0.4143  0.8265  0.0960
  687MOL0     H92681   7.943   4.333   3.644  0.3184  0.9219 -2.4693
  687MOL0     H92682   8.227   4.252   3.567 -0.2924  0.2673 -0.4759
  687MOL0     H92683   8.178   4.338   3.707 -0.0425 -0.3022 -0.5134
  687MOL0     H92684   8.147   4.460   3.446  0.5153 -2.1553  0.2858
  687MOL0     H92685   8.300   4.452   3.544  0.1139 -1.3885  0.9293
  687MOL0     H92686   8.038   4.607   3.608  0.3448 -2.0163 -3.3652
  687MOL0     H92687   8.132   4.551   3.728 -2.6495 -2.6575 -0.9577
  687MOL0     H92688   8.190   4.796   3.638  1.3848  1.4728 -1.2930
  687MOL0     H92689   8.327   4.689   3.664 -0.6740 -1.3348 -0.2649
  687MOL0     H92690   8.360   4.657   3.440  1.0247  1.2644  0.1054
  687MOL0     H92691   8.190   4.713   3.400  0.4917  2.2122 -2.3782
  687MOL0     H92692   8.257   4.942   3.455  1.7069  0.7283  2.2566
  687MOL0     H92693   8.382   4.881   3.345  2.7939  2.2368  1.5874
  687MOL0     H92694   8.487   5.005   3.513  1.9836 -0.8964  0.3249
  687MOL0     H92695   8.409   4.905   3.644 -1.5663 -2.4663 -1.0467
  687MOL0     H92696   8.657   4.882   3.343 -0.0257 -0.0343  0.0518
  687MOL0     H92697   8.893   4.603   3.390  0.1542 -0.7316  1.7320
  687MOL0     H92698   8.883   4.756   3.292 -0.2521 -0.3971  0.1773
  687MOL0     H92699   9.036   4.856   3.426  0.9244 -0.1263 -1.6443
  687MOL0     H92700   9.019   4.734   3.555 -0.2909 -2.2318 -0.5370
  687MOL0     H92701   9.138   4.665   3.275  1.7851  0.1048  0.3193
  687MOL0     H92702   9.109   4.556   3.411  0.8386 -0.9337 -0.6785
  687MOL0     H92703   9.262   4.686   3.565  2.7077 -1.9885 -0.2233
  687MOL0     H92704   9.279   4.793   3.424 -2.5386  0.2174 -1.3878
  687MOL0     H92705   9.492   4.634   3.186  0.5872 -0.5710 -0.0122
  687MOL0     H92706   9.727   4.681   3.165 -0.0047  3.2429 -0.2138
  687MOL0     H92707  10.136   4.885   3.605  0.4835  0.0000  0.9477
  687MOL0     H92708  10.391   4.888   3.596 -1.7126 -0.2054  2.3699
  687MOL0     H92709  10.605   4.784   3.621  1.5039 -0.7135  0.3758
  687MOL0     H92710  10.599   4.605   3.592 -1.7755  0.5390  0.8204
  687MOL0     H92711  10.796   4.604   3.467  0.1588  0.6719 -0.1881
  687MOL0     H92712  10.789   4.774   3.433  0.3797 -0.6487  0.4851
  687MOL0     H92713  10.832   4.801   3.696  0.3125  0.0995  0.0343
  687MOL0     H92714  10.835   4.623   3.699  1.8228 -0.7901 -0.5011
  687MOL0     H92715  11.040   4.788   3.550 -2.8047 -0.4428 -1.2654
  687MOL0     H92716  11.036   4.608   3.583  1.3551  0.5154  0.2103
  687MOL0     H92717  11.080   4.642   3.805  1.8188 -1.0812 -0.8971
  687MOL0     H92718  11.040   4.816   3.796  0.4663 -0.7378  3.4814
  687MOL0     H92719  11.273   4.684   3.658 -2.5273 -2.9628  1.3818
  687MOL0     H92720  11.229   4.855   3.643 -0.0725 -0.0219 -0.3539
  687MOL0     H92721  11.418   4.834   3.810  0.0095  0.1867  0.2684
  687MOL0     H92722  11.308   4.748   3.919 -1.8012 -0.9934 -0.0138
  687MOL0     H92723  11.263   5.042   3.811  1.5493 -0.2079 -0.5301
  687MOL0     H92724  11.139   4.950   3.900 -0.1057  1.0445  0.0997
  687MOL0     H92725  10.367   4.525   3.367 -1.5101 -1.8533 -0.7404
  687MOL0     H92726  10.132   4.520   3.378  2.4186 -2.1554 -1.2299
  687MOL0     H92727   9.759   4.752   3.587  0.7124  1.1642 -1.0124
  687MOL0     H92728   9.501   4.682   3.604 -0.7352 -3.4925 -0.5441
  687MOL0     H92729   7.747   4.226   3.639  4.1214  1.4500 -1.8116
  687MOL0     H92730   7.542   4.079   3.597  0.1319 -1.0815 -4.8583
  687MOL0     H92731   7.316   3.769   3.611  0.8338 -3.4029  3.1184
  687MOL0     H92732   7.123   3.612   3.605  0.0489  0.9294  0.4173
  687MOL0     H92733   6.910   3.510   3.547  0.4244 -0.2718 -0.9171
  687MOL0     H92734   7.031   3.402   3.614 -0.9248  0.3278  0.4939
  687MOL0     H92735   6.941   3.219   3.480  1.8131 -0.2510  2.5692
  687MOL0     H92736   6.816   3.327   3.414  1.5765 -0.5537 -0.8488
  687MOL0     H92737   6.724   3.358   3.634  1.5570  0.6143 -0.9800
  687MOL0     H92738   6.862   3.275   3.716  1.9608 -1.2170 -1.6145
  687MOL0     H92739   6.664   3.152   3.520 -1.0094  0.9830  1.4055
  687MOL0     H92740   6.800   3.063   3.581 -1.0936 -1.4346  1.2651
  687MOL0     H92741   6.593   3.069   3.943 -2.7393 -0.4732 -0.3134
  687MOL0     H92742   7.260   3.449   3.239  0.0095 -0.0406 -0.6633
  687MOL0     H92743   7.505   3.668   3.176  1.4406  0.3019  2.2712
  687MOL0     H92744   7.588   3.543   3.266  0.3192 -0.1387 -0.1916
  687MOL0     H92745   7.459   3.497   3.151  1.0697 -0.3787  0.6328
  688MOL0     O92746   9.725   0.712   1.830  0.3604  0.1190 -1.0374
  688MOL0     C92747   9.662   0.815   1.814 -0.4139 -0.2498 -0.5187
  688MOL0     O92748   9.705   0.941   1.835 -0.2543 -0.1389  0.7682
  688MOL0     C92749   9.827   0.966   1.891  0.2823 -0.7373 -0.0095
  688MOL0     C92750   9.944   0.878   1.905 -0.7229 -0.1553  0.3224
  688MOL0     C92751  10.060   0.916   1.970 -0.3225  0.0101  0.8065
  688MOL0     C92752  10.060   1.042   2.033  0.1465  0.5376 -0.3750
  688MOL0     O92753  10.157   1.080   2.117 -0.0631 -0.1327 -0.1329
  688MOL0     C92754  10.280   1.001   2.114  0.0537 -0.2175  0.2658
  688MOL0     C92755  10.381   1.073   2.209  0.3065  0.7304 -0.2292
  688MOL0     C92756  10.514   0.996   2.189 -0.3429  0.2975 -1.0246
  688MOL0     C92757  10.628   1.074   2.248 -0.1636 -0.2596 -0.1648
  688MOL0     C92758  10.757   0.989   2.259 -0.3702 -0.2131 -0.6843
  688MOL0     C92759  10.877   1.073   2.301  0.2671  0.1351  0.5896
  688MOL0     C92760  11.010   0.994   2.322  0.2822 -0.3926 -0.5452
  688MOL0     C92761  11.106   1.108   2.362 -0.5816  0.1247 -0.6894
  688MOL0     N92762  11.238   1.050   2.372 -0.1040  0.2802  0.2163
  688MOL0     C92763  11.273   0.943   2.462  0.1695  0.1309  0.0510
  688MOL0     C92764  11.383   0.895   2.400 -0.3411  0.8484 -0.4782
  688MOL0     C92765  11.476   0.786   2.450 -0.6973 -0.3398 -0.1485
  688MOL0     C92766  11.598   0.835   2.521  0.8232  0.4083  0.5669
  688MOL0     C92767  11.574   0.889   2.661 -0.1084 -1.0657 -0.3534
  688MOL0     C92768  11.708   0.898   2.739  0.5096 -0.1348 -0.0461
  688MOL0     O92769  11.806   0.974   2.674 -0.3801 -0.4915 -0.2689
  688MOL0     C92770  11.933   0.996   2.729 -0.1537  0.9381  0.1758
  688MOL0     C92771  11.975   0.966   2.862  0.0356 -0.5877  0.1049
  688MOL0     C92772  12.106   0.988   2.890  0.0671  0.1554 -0.6506
  688MOL0     C92773  12.201   1.024   2.795  0.5016  0.5162  0.2290
  688MOL0     C92774  12.343   1.020   2.832  0.8742 -0.4589 -0.7650
  688MOL0     O92775  12.430   1.082   2.756  0.2442  0.2898 -0.1066
  688MOL0     C92776  12.563   1.065   2.792  0.0135 -0.0768  0.7236
  688MOL0     C92777  12.630   0.945   2.759  0.0100  0.8170 -1.2536
  688MOL0     C92778  12.769   0.916   2.778 -0.0969  0.1840  0.0978
  688MOL0     C92779  12.842   1.020   2.840  0.4784  0.2227  0.2485
  688MOL0     O92780  12.981   1.018   2.867 -0.4731  0.1088  0.0800
  688MOL0     C92781  13.035   0.901   2.930 -0.1882 -0.4824  0.7125
  688MOL0     C92782  13.186   0.858   2.901  0.8868 -0.3668 -0.1089
  688MOL0     C92783  13.228   0.746   2.998  0.2661 -0.0782  1.3417
  688MOL0     C92784  13.376   0.726   2.991 -0.0551  0.2020  0.3747
  688MOL0     C92785  13.416   0.609   3.080  0.6034  0.6743  0.6152
  688MOL0     C92786  13.566   0.582   3.079  0.3415 -0.8700  0.3722
  688MOL0     C92787  13.630   0.703   3.168 -0.8462 -0.2487  0.2509
  688MOL0     C92788  13.788   0.686   3.170 -0.3968 -0.5204 -0.1385
  688MOL0    Cl92789  13.833   0.777   3.322  0.6409  0.0323  0.2087
  688MOL0     C92790  12.781   1.140   2.872  0.1548 -0.1697  0.6130
  688MOL0     C92791  12.652   1.163   2.843  0.5151 -0.3210  0.6355
  688MOL0     O92792  12.371   0.960   2.943 -0.6653  0.3485  0.6977
  688MOL0     C92793  12.155   1.060   2.663 -0.4861  0.2145  0.3888
  688MOL0     C92794  12.022   1.052   2.640 -0.3412  0.1556 -0.6993
  688MOL0     N92795  11.407   0.960   2.283 -0.4772  0.7681 -0.7124
  688MOL0     N92796  11.335   1.061   2.275  0.5209 -0.4276 -0.1402
  688MOL0     C92797   9.957   1.130   2.015  0.6371  0.0838 -0.8276
  688MOL0     C92798   9.841   1.093   1.946 -0.8117  0.5558 -0.1407
  688MOL0     C92799   9.524   0.797   1.764 -0.3058  0.7524  0.4567
  688MOL0     C92800   9.486   0.668   1.727 -0.0931  1.0112 -0.5556
  688MOL0     C92801   9.357   0.637   1.682  0.5136 -0.0804 -0.0254
  688MOL0     C92802   9.261   0.729   1.670 -0.2892 -0.3009 -0.3372
  688MOL0     O92803   9.133   0.712   1.623 -0.5853  0.6843 -0.4655
  688MOL0     C92804   9.070   0.587   1.620 -0.3926 -0.7290 -0.0179
  688MOL0     C92805   8.925   0.592   1.554 -0.3460  0.0475 -0.2512
  688MOL0     C92806   8.841   0.697   1.628 -0.3193 -0.0635 -0.7789
  688MOL0     C92807   8.692   0.674   1.623  0.3779 -0.2437 -0.7451
  688MOL0     C92808   8.670   0.558   1.712  0.0442  0.0834 -0.2525
  688MOL0     C92809   8.658   0.463   1.789 -0.2347 -0.4096  0.9218
  688MOL0     C92810   9.295   0.861   1.701 -0.4637  0.9771 -0.7046
  688MOL0     C92811   9.422   0.899   1.754 -0.1224  0.3351 -0.0770
  688MOL0     C92812   9.448   1.042   1.770  0.1812  0.3845  0.2854
  688MOL0     H92813   9.939   0.783   1.853 -2.2847 -0.2128  0.5330
  688MOL0     H92814  10.136   0.839   1.973 -3.3285 -3.2008  0.5846
  688MOL0     H92815  10.268   0.897   2.142 -0.4313 -0.8472 -2.0312
  688MOL0     H92816  10.314   0.984   2.011 -0.4152 -0.7273  0.1893
  688MOL0     H92817  10.342   1.076   2.312 -1.0524  4.6204 -0.6650
  688MOL0     H92818  10.376   1.177   2.176  0.2090  0.6711 -0.4017
  688MOL0     H92819  10.528   0.985   2.081  2.5057 -0.4474 -0.6645
  688MOL0     H92820  10.506   0.896   2.232 -1.8827  0.9192  0.2117
  688MOL0     H92821  10.640   1.161   2.183 -2.7580  0.5572  0.3498
  688MOL0     H92822  10.596   1.114   2.345 -2.6133  0.6211 -1.2461
  688MOL0     H92823  10.731   0.911   2.332  0.9449  1.2569  1.4482
  688MOL0     H92824  10.779   0.951   2.158 -0.5921  2.6054 -1.8977
  688MOL0     H92825  10.897   1.150   2.226 -1.6203  1.7230  1.6325
  688MOL0     H92826  10.857   1.126   2.394 -2.6765  1.0341 -0.4539
  688MOL0     H92827  11.026   0.952   2.223 -3.8777  0.3337 -1.6929
  688MOL0     H92828  11.005   0.915   2.397 -1.6172 -1.2455 -1.5094
  688MOL0     H92829  11.116   1.186   2.287  2.9747  1.2604  0.7589
  688MOL0     H92830  11.084   1.170   2.449  1.6484  1.0294 -0.7124
  688MOL0     H92831  11.233   0.929   2.562  2.5004 -0.1536  1.0143
  688MOL0     H92832  11.414   0.724   2.516 -1.2404  1.0162  0.6743
  688MOL0     H92833  11.493   0.725   2.362  2.8081  1.2377 -0.7286
  688MOL0     H92834  11.673   0.756   2.523  2.2143  1.6896  0.4506
  688MOL0     H92835  11.647   0.917   2.468  3.5545 -0.8394  0.9743
  688MOL0     H92836  11.502   0.828   2.715 -0.1245 -0.1040  0.7308
  688MOL0     H92837  11.524   0.984   2.642  1.0108 -0.3033  0.3610
  688MOL0     H92838  11.736   0.793   2.750 -1.7656 -0.9080 -1.0151
  688MOL0     H92839  11.689   0.929   2.842 -3.3763 -1.2186 -0.2966
  688MOL0     H92840  11.907   0.943   2.943  2.2099  0.8543  2.4794
  688MOL0     H92841  12.142   0.965   2.990 -0.3466 -1.6743 -0.8755
  688MOL0     H92842  12.560   0.868   2.728  0.9525 -0.7850  0.4183
  688MOL0     H92843  12.796   0.817   2.745 -1.8033 -0.2368 -0.1697
  688MOL0     H92844  13.025   0.902   3.039 -2.7865 -5.4813  0.8199
  688MOL0     H92845  12.967   0.819   2.904 -1.1563  0.7418 -0.8323
  688MOL0     H92846  13.203   0.828   2.797  0.6680  1.1123 -0.5977
  688MOL0     H92847  13.246   0.949   2.914 -1.3972  1.4519 -1.4999
  688MOL0     H92848  13.190   0.758   3.100 -0.0064 -1.6482  1.4560
  688MOL0     H92849  13.178   0.654   2.965  0.1540  0.6640 -0.6847
  688MOL0     H92850  13.415   0.820   3.031  3.0896 -0.8788  0.1074
  688MOL0     H92851  13.417   0.699   2.893  0.7553  0.8704  0.5105
  688MOL0     H92852  13.360   0.518   3.055  2.5335 -0.5481  0.5761
  688MOL0     H92853  13.381   0.627   3.183 -0.4228  1.7483  0.1096
  688MOL0     H92854  13.588   0.486   3.127 -0.6072 -0.9134  0.7328
  688MOL0     H92855  13.610   0.577   2.979  3.1293 -3.4790  1.5568
  688MOL0     H92856  13.578   0.697   3.264  0.1173 -3.2282  0.6659
  688MOL0     H92857  13.610   0.799   3.119 -1.7940 -0.5895 -0.0478
  688MOL0     H92858  13.802   0.578   3.176  0.8863 -0.3263  0.7670
  688MOL0     H92859  13.839   0.732   3.085 -0.1463 -1.7438 -0.6634
  688MOL0     H92860  12.826   1.219   2.931  2.4301  1.0740 -2.5203
  688MOL0     H92861  12.612   1.259   2.877  4.4546  1.0190  2.0980
  688MOL0     H92862  12.222   1.098   2.587  0.2601 -2.0927 -0.2103
  688MOL0     H92863  11.986   1.081   2.543 -0.1919 -1.5930 -1.3204
  688MOL0     H92864   9.954   1.231   2.054 -1.6825  1.6075 -4.3937
  688MOL0     H92865   9.750   1.151   1.951 -2.8816 -2.5708  1.6184
  688MOL0     H92866   9.553   0.583   1.739  0.9256  1.8394 -0.2510
  688MOL0     H92867   9.336   0.539   1.641  1.5089  0.3386 -1.6236
  688MOL0     H92868   9.049   0.559   1.724  0.1039 -0.0157  0.2854
  688MOL0     H92869   9.121   0.509   1.564 -2.6065 -1.6355 -0.8909
  688MOL0     H92870   8.894   0.488   1.556  0.2495 -0.1339 -0.3079
  688MOL0     H92871   8.933   0.617   1.448  2.1761  4.0892  0.6304
  688MOL0     H92872   8.859   0.794   1.580  0.0478  1.5490  2.3366
  688MOL0     H92873   8.874   0.705   1.732  1.1588 -0.2174 -1.2273
  688MOL0     H92874   8.622   0.754   1.649 -0.2644 -1.4459  1.5017
  688MOL0     H92875   8.664   0.633   1.526 -2.1016  2.0690 -1.1105
  688MOL0     H92876   8.659   0.377   1.853  0.1176 -0.9913  0.1567
  688MOL0     H92877   9.219   0.937   1.683 -0.7178  0.5800 -1.3467
  688MOL0     H92878   9.450   1.070   1.875 -1.4898  0.2588  0.3794
  688MOL0     H92879   9.536   1.069   1.710  0.0219 -0.7631 -0.4972
  688MOL0     H92880   9.367   1.096   1.718  0.5730  1.0083  0.3108
  689MOL0     O92881   6.398   9.145   6.444  0.1090 -0.8350 -0.4773
  689MOL0     C92882   6.321   9.089   6.372  0.1307 -0.2214  0.1003
  689MOL0     O92883   6.351   8.998   6.269 -0.7163  0.4138  0.4511
  689MOL0     C92884   6.492   8.980   6.251 -0.1245 -0.0377  0.2612
  689MOL0     C92885   6.562   9.087   6.198  0.0959 -0.8101  0.2262
  689MOL0     C92886   6.701   9.074   6.182 -0.5165 -0.3009 -0.3062
  689MOL0     C92887   6.770   8.949   6.199 -1.0029 -0.4117  0.5233
  689MOL0     O92888   6.903   8.949   6.180 -0.0398  0.5013 -0.0776
  689MOL0     C92889   6.971   8.914   6.296  0.2079 -0.4426  0.5445
  689MOL0     C92890   7.118   8.929   6.276  0.2177 -0.0932 -0.3034
  689MOL0     C92891   7.189   8.804   6.223 -0.8882 -0.1652 -0.4264
  689MOL0     C92892   7.318   8.846   6.146 -0.0947  0.2473  0.5754
  689MOL0     C92893   7.407   8.724   6.113  0.1385 -0.0171 -0.1671
  689MOL0     C92894   7.516   8.777   6.013  0.0826  0.3229  0.1866
  689MOL0     C92895   7.625   8.665   5.984  0.1316 -0.0092 -0.5936
  689MOL0     C92896   7.730   8.711   5.879 -0.5578  0.2723 -0.3602
  689MOL0     N92897   7.806   8.823   5.928  0.0345 -0.3006 -0.2119
  689MOL0     C92898   7.881   8.817   6.039 -0.1987  0.0875 -0.1359
  689MOL0     C92899   7.903   8.941   6.077  0.8905 -0.6763  0.1631
  689MOL0     C92900   7.986   8.988   6.195 -0.1197  0.9078  0.8820
  689MOL0     C92901   8.133   8.979   6.174 -0.1954 -0.4261 -0.1027
  689MOL0     C92902   8.214   8.985   6.311  0.3536 -1.1848  0.6758
  689MOL0     C92903   8.365   8.983   6.288 -0.2199 -0.9246 -0.5856
  689MOL0     O92904   8.403   9.102   6.226  0.7150  0.1554 -0.8911
  689MOL0     C92905   8.536   9.125   6.204  0.9710 -0.2456  0.0244
  689MOL0     C92906   8.559   9.258   6.155  0.9634 -0.5445  0.1708
  689MOL0     C92907   8.687   9.300   6.126 -0.0316 -0.3290 -0.5872
  689MOL0     C92908   8.793   9.218   6.151 -1.0814 -0.3074  0.2460
  689MOL0     C92909   8.929   9.267   6.124  0.4840 -0.1681 -0.0590
  689MOL0     O92910   9.023   9.210   6.212  0.9891  0.7146  0.4429
  689MOL0     C92911   9.157   9.240   6.207  0.2206 -0.2320 -0.4943
  689MOL0     C92912   9.215   9.244   6.329 -0.6404 -0.4348 -0.1806
  689MOL0     C92913   9.355   9.260   6.337 -0.7281 -0.1621 -0.6814
  689MOL0     C92914   9.438   9.282   6.223 -0.3438  0.0773  0.4978
  689MOL0     O92915   9.572   9.303   6.229 -0.0289  0.9859  0.2277
  689MOL0     C92916   9.633   9.270   6.357 -0.3877 -0.2968  0.1777
  689MOL0     C92917   9.777   9.315   6.351  1.0543 -0.1761  0.3999
  689MOL0     C92918   9.856   9.254   6.236  0.2600 -1.0287  0.5513
  689MOL0     C92919   9.997   9.313   6.247  0.2975  0.3938 -0.7153
  689MOL0     C92920  10.085   9.248   6.135 -0.1857  0.4978  0.0136
  689MOL0     C92921  10.222   9.317   6.114  0.4839 -0.3023  0.4754
  689MOL0     C92922  10.328   9.210   6.088  0.0178  0.3988  0.4058
  689MOL0     C92923  10.311   9.146   5.952  0.2275  0.1531 -0.3042
  689MOL0    Cl92924  10.448   9.024   5.928  0.0540  0.3431  0.2734
  689MOL0     C92925   9.369   9.291   6.101  0.3551 -0.1223  0.5142
  689MOL0     C92926   9.228   9.276   6.094 -1.0837 -0.1426 -0.0262
  689MOL0     O92927   8.946   9.349   6.036 -0.3169  0.0082 -0.5884
  689MOL0     C92928   8.771   9.095   6.209 -0.8184 -0.5904 -0.1717
  689MOL0     C92929   8.641   9.050   6.237 -0.0669  0.1290  0.2414
  689MOL0     N92930   7.836   9.025   5.986  0.1231 -0.0495  0.2453
  689MOL0     N92931   7.771   8.952   5.896 -0.2396 -0.5815 -0.2500
  689MOL0     C92932   6.693   8.838   6.229 -0.2694  0.8554 -0.0958
  689MOL0     C92933   6.558   8.849   6.253  0.3857 -0.3500 -1.0436
  689MOL0     C92934   6.180   9.118   6.391  0.8302  0.2081 -0.0666
  689MOL0     C92935   6.088   9.050   6.304  0.3211 -0.8952 -0.3459
  689MOL0     C92936   5.946   9.065   6.326 -0.4704 -0.3935  0.6182
  689MOL0     C92937   5.893   9.138   6.433 -0.0065  0.2623  0.0842
  689MOL0     O92938   5.757   9.147   6.452 -0.7083 -0.9170  0.4864
  689MOL0     C92939   5.656   9.074   6.378 -0.1363 -0.3605  0.0148
  689MOL0     C92940   5.516   9.091   6.443  0.0507 -0.9187  0.2329
  689MOL0     C92941   5.409   9.003   6.374 -0.7420 -0.7492 -0.5755
  689MOL0     C92942   5.264   9.062   6.386  0.1785  0.4658  0.6460
  689MOL0     C92943   5.210   9.052   6.524 -0.1429  1.1571 -0.4396
  689MOL0     C92944   5.183   9.046   6.641  0.4293 -0.0073 -0.0392
  689MOL0     C92945   5.977   9.198   6.529  0.2421  0.3351  0.8091
  689MOL0     C92946   6.120   9.197   6.500  0.3858 -0.0829 -0.5203
  689MOL0     C92947   6.202   9.251   6.610 -0.1617  0.3223 -0.5854
  689MOL0     H92948   6.517   9.184   6.181 -0.3378 -1.0415  0.0491
  689MOL0     H92949   6.759   9.162   6.153 -0.9034  0.3063  0.7070
  689MOL0     H92950   6.952   8.985   6.377 -0.1096  0.4643 -0.3010
  689MOL0     H92951   6.943   8.813   6.326  0.6902 -2.1039 -3.8204
  689MOL0     H92952   7.157   8.947   6.377  0.8862  0.3590 -0.6355
  689MOL0     H92953   7.142   9.018   6.218  0.7225  0.3168  0.5083
  689MOL0     H92954   7.121   8.764   6.147 -0.1026 -0.0746 -1.1884
  689MOL0     H92955   7.215   8.734   6.302  0.0383  0.7526  0.1037
  689MOL0     H92956   7.284   8.891   6.052  0.1767  0.9885  0.8279
  689MOL0     H92957   7.375   8.918   6.204 -1.5882  0.7568  1.4623
  689MOL0     H92958   7.462   8.688   6.200  1.7144  0.8526 -0.7568
  689MOL0     H92959   7.346   8.648   6.064 -0.1329  1.6104 -2.4898
  689MOL0     H92960   7.474   8.813   5.919 -2.9985 -1.1500  0.8719
  689MOL0     H92961   7.564   8.861   6.063  1.8830  0.0196 -0.9356
  689MOL0     H92962   7.578   8.576   5.942 -0.6809  0.9888 -1.8651
  689MOL0     H92963   7.671   8.630   6.077 -1.4459  0.3100  0.3611
  689MOL0     H92964   7.809   8.636   5.879  0.1676  0.7467  3.8896
  689MOL0     H92965   7.693   8.729   5.778  1.5865  3.0171 -0.7793
  689MOL0     H92966   7.921   8.731   6.091  0.9999 -0.9337 -2.5702
  689MOL0     H92967   7.960   9.093   6.210 -0.2752  0.8178  1.2713
  689MOL0     H92968   7.966   8.931   6.286  0.4784 -0.5852  0.1072
  689MOL0     H92969   8.150   8.884   6.124  3.3112 -0.6749  1.2674
  689MOL0     H92970   8.155   9.056   6.099 -4.1652 -1.1867 -2.3289
  689MOL0     H92971   8.192   8.892   6.365  0.9737 -1.6783  0.0961
  689MOL0     H92972   8.171   9.063   6.375 -2.7104 -2.6093  0.5270
  689MOL0     H92973   8.399   8.895   6.233 -0.4846 -2.3187  1.3749
  689MOL0     H92974   8.422   8.985   6.381 -0.2411  0.0558 -0.5823
  689MOL0     H92975   8.480   9.327   6.127  2.4817  1.5666  0.7887
  689MOL0     H92976   8.693   9.398   6.080  0.0284 -0.0890 -0.0734
  689MOL0     H92977   9.169   9.213   6.422  0.4700 -0.8358  0.2494
  689MOL0     H92978   9.393   9.250   6.438 -0.2475 -0.3082 -0.8761
  689MOL0     H92979   9.580   9.326   6.435 -2.7470  0.6845 -1.9720
  689MOL0     H92980   9.624   9.162   6.367  0.5106 -0.3640  0.3357
  689MOL0     H92981   9.776   9.424   6.338 -1.1334  0.0243  1.6349
  689MOL0     H92982   9.828   9.286   6.443 -1.3013 -0.8049  1.5961
  689MOL0     H92983   9.856   9.145   6.251  3.9638 -1.2677 -0.1951
  689MOL0     H92984   9.809   9.276   6.140  0.0291  2.0627  1.2637
  689MOL0     H92985  10.049   9.294   6.341  0.1596  0.0877 -0.7007
  689MOL0     H92986   9.976   9.421   6.246  0.0340  0.3581  0.2376
  689MOL0     H92987  10.032   9.261   6.040  2.0372 -2.3185 -1.7668
  689MOL0     H92988  10.113   9.145   6.156  0.6284  1.3860  4.1961
  689MOL0     H92989  10.224   9.399   6.042 -0.1704 -2.9540 -2.8104
  689MOL0     H92990  10.245   9.362   6.211 -2.0854  0.8467  0.6390
  689MOL0     H92991  10.334   9.123   6.154  0.9685  0.4533  0.4054
  689MOL0     H92992  10.424   9.261   6.097  0.9498 -1.0756 -0.7919
  689MOL0     H92993  10.213   9.098   5.943  1.2137 -1.6591 -2.4426
  689MOL0     H92994  10.334   9.215   5.870  1.1473  3.7204  2.7206
  689MOL0     H92995   9.425   9.281   6.009 -0.3197 -1.4073  0.2125
  689MOL0     H92996   9.190   9.272   5.992  0.4533  1.4290 -0.7141
  689MOL0     H92997   8.841   9.035   6.266 -3.6181 -3.3834  0.6326
  689MOL0     H92998   8.633   8.954   6.288  1.3419  0.2447  0.7310
  689MOL0     H92999   6.744   8.742   6.239 -1.9765  0.0011  0.7116
  689MOL0     H93000   6.493   8.764   6.270  1.2731 -0.8997 -0.3527
  689MOL0     H93001   6.124   8.988   6.223  0.7111 -0.1377 -0.7625
  689MOL0     H93002   5.886   9.019   6.248 -1.2861 -1.2103  1.6936
  689MOL0     H93003   5.691   8.972   6.359  2.0878  0.5392 -1.1217
  689MOL0     H93004   5.654   9.117   6.277 -3.5506 -0.0949  0.0950
  689MOL0     H93005   5.492   9.198   6.448  1.0643 -0.6799  0.2173
  689MOL0     H93006   5.525   9.053   6.545 -2.5700 -1.1575  0.4407
  689MOL0     H93007   5.411   8.905   6.424  4.4229  0.1791  1.6901
  689MOL0     H93008   5.438   8.980   6.271  2.2520  0.3949 -0.0728
  689MOL0     H93009   5.260   9.168   6.358  0.6314  0.2484 -0.2996
  689MOL0     H93010   5.202   9.007   6.314 -0.1884  0.1481  1.1941
  689MOL0     H93011   5.164   9.047   6.746  0.4008  1.9829 -0.0252
  689MOL0     H93012   5.935   9.235   6.622  1.2752 -2.0713  2.3208
  689MOL0     H93013   6.142   9.303   6.686  2.7552 -2.0602  3.7531
  689MOL0     H93014   6.259   9.177   6.667 -0.4034  0.4725 -0.1364
  689MOL0     H93015   6.269   9.332   6.581  1.0651  0.3300  1.9373
  690MOL0     O93016   3.881   7.904   5.309  1.0108 -0.0326  0.0660
  690MOL0     C93017   3.940   7.979   5.384  0.4261 -0.3995 -0.4526
  690MOL0     O93018   4.011   7.938   5.489 -0.6101  0.0187  0.3032
  690MOL0     C93019   4.026   7.805   5.498 -0.9354  0.5876  0.2458
  690MOL0     C93020   4.158   7.750   5.505 -0.2969  0.3361  0.8227
  690MOL0     C93021   4.180   7.612   5.516  0.8284  0.3587 -0.7337
  690MOL0     C93022   4.071   7.526   5.535  0.1869 -0.0081 -0.6674
  690MOL0     O93023   4.080   7.388   5.567 -0.2276 -0.9702  0.3009
  690MOL0     C93024   4.216   7.336   5.578  0.1361  0.4693  0.1324
  690MOL0     C93025   4.226   7.181   5.605 -0.5021  0.6039 -0.4427
  690MOL0     C93026   4.370   7.131   5.637 -0.1148 -0.3055  0.3542
  690MOL0     C93027   4.387   6.998   5.565  0.4451  0.3270 -0.7437
  690MOL0     C93028   4.526   6.944   5.589 -0.2479 -0.3469 -0.7275
  690MOL0     C93029   4.551   6.802   5.554  0.4798  0.5675  0.4366
  690MOL0     C93030   4.696   6.766   5.576  0.0673 -0.0795 -0.2805
  690MOL0     C93031   4.718   6.617   5.587 -0.1183 -1.1348 -0.0329
  690MOL0     N93032   4.865   6.596   5.571 -0.3476  0.1271  0.0693
  690MOL0     C93033   4.951   6.555   5.674 -0.0266 -0.2162  0.2265
  690MOL0     C93034   5.073   6.550   5.619 -0.7322 -0.0446  0.2101
  690MOL0     C93035   5.202   6.526   5.688 -0.5954  0.2969 -0.1685
  690MOL0     C93036   5.264   6.387   5.663  0.5003 -0.1790  0.7190
  690MOL0     C93037   5.397   6.366   5.739 -0.3153  0.5061 -0.2273
  690MOL0     C93038   5.504   6.459   5.717  0.2095 -0.3617 -0.2847
  690MOL0     O93039   5.571   6.448   5.591 -0.0214 -0.1277  0.4378
  690MOL0     C93040   5.701   6.466   5.599  0.7098 -0.1326 -0.5680
  690MOL0     C93041   5.752   6.589   5.561  0.5542  0.0053  0.1093
  690MOL0     C93042   5.887   6.617   5.576  0.2514  0.0790  0.3570
  690MOL0     C93043   5.979   6.518   5.618 -0.6897 -0.1454 -1.2098
  690MOL0     C93044   6.127   6.546   5.635 -0.3497 -1.3621  0.1568
  690MOL0     O93045   6.143   6.677   5.686  0.6287  0.3442  0.5503
  690MOL0     C93046   6.263   6.719   5.737 -0.2955 -0.2167 -0.0312
  690MOL0     C93047   6.376   6.652   5.769  0.4335  0.1827  0.2347
  690MOL0     C93048   6.494   6.720   5.800  0.3158 -0.3740 -0.2174
  690MOL0     C93049   6.489   6.859   5.834 -0.1941 -0.5181 -0.0495
  690MOL0     O93050   6.594   6.920   5.904 -0.7097 -0.3236 -0.0147
  690MOL0     C93051   6.735   6.872   5.892  0.0040 -0.1560  0.1627
  690MOL0     C93052   6.779   6.786   6.010 -0.3009  0.4464  0.3502
  690MOL0     C93053   6.927   6.750   6.006  0.8447  0.3974 -0.3886
  690MOL0     C93054   6.940   6.630   6.096 -0.1016 -0.2671  0.1096
  690MOL0     C93055   7.083   6.576   6.099  0.4652 -0.4288  0.2952
  690MOL0     C93056   7.103   6.461   6.211  0.4580 -0.5791 -0.2130
  690MOL0     C93057   7.013   6.340   6.175  0.1563  0.1593 -0.4702
  690MOL0     C93058   7.021   6.245   6.296 -0.5523  0.5368  0.3480
  690MOL0    Cl93059   7.187   6.171   6.324  0.2901 -0.2256  0.2232
  690MOL0     C93060   6.370   6.925   5.825 -0.0995  0.2395 -0.3307
  690MOL0     C93061   6.264   6.856   5.766  0.1937  0.5272 -0.2936
  690MOL0     O93062   6.212   6.459   5.626 -0.0917  0.3151 -0.3310
  690MOL0     C93063   5.933   6.391   5.636  0.4931 -1.2808 -0.5561
  690MOL0     C93064   5.790   6.369   5.635  0.3473  0.1891 -0.0526
  690MOL0     N93065   5.067   6.562   5.480  0.1266  0.2239 -0.4254
  690MOL0     N93066   4.943   6.595   5.453 -0.0762  1.6993  1.2717
  690MOL0     C93067   3.945   7.582   5.538 -0.1865  0.3236 -0.9211
  690MOL0     C93068   3.920   7.713   5.527 -0.4150  0.4524  0.3264
  690MOL0     C93069   3.931   8.131   5.366  0.6138  0.9183 -0.5440
  690MOL0     C93070   4.036   8.216   5.415  0.0210  0.3423 -0.1122
  690MOL0     C93071   4.033   8.358   5.390  0.1838 -0.4046  0.8833
  690MOL0     C93072   3.927   8.415   5.324 -0.6539  0.3321 -0.4842
  690MOL0     O93073   3.947   8.546   5.278 -0.0439 -0.4636 -0.3865
  690MOL0     C93074   3.856   8.606   5.184 -0.5882 -0.1396 -0.1919
  690MOL0     C93075   3.731   8.681   5.236  0.5442  0.1287  0.1690
  690MOL0     C93076   3.779   8.805   5.309 -0.7162  0.8263  0.2230
  690MOL0     C93077   3.667   8.867   5.394  1.2312  0.2852 -0.1365
  690MOL0     C93078   3.560   8.926   5.321  0.4592 -0.0539  0.3498
  690MOL0     C93079   3.479   8.984   5.247 -0.0457 -0.4174 -0.1948
  690MOL0     C93080   3.827   8.329   5.283 -0.0231 -0.2391  0.0112
  690MOL0     C93081   3.819   8.194   5.315  0.8725  0.0122 -0.4904
  690MOL0     C93082   3.693   8.116   5.276  0.2929 -0.1393  0.2775
  690MOL0     H93083   4.242   7.819   5.510 -1.3472  1.9224 -1.4368
  690MOL0     H93084   4.283   7.582   5.529  0.5124  0.2303  2.1430
  690MOL0     H93085   4.274   7.362   5.489 -0.0951 -0.1912 -0.2136
  690MOL0     H93086   4.252   7.390   5.666  1.6652 -0.1569 -0.0730
  690MOL0     H93087   4.196   7.136   5.510 -0.6177  4.3730 -2.3970
  690MOL0     H93088   4.167   7.156   5.693 -0.6321  1.7854 -0.1732
  690MOL0     H93089   4.376   7.108   5.743  1.5306  2.7288  1.0280
  690MOL0     H93090   4.443   7.208   5.611 -2.5193  1.7700 -0.6595
  690MOL0     H93091   4.312   6.930   5.608  1.0286  0.2974  0.2530
  690MOL0     H93092   4.366   7.001   5.457 -2.3592  1.3427 -0.2629
  690MOL0     H93093   4.590   7.008   5.527 -0.0512  2.0150  1.7014
  690MOL0     H93094   4.553   6.955   5.694 -0.9923  0.8697 -0.6460
  690MOL0     H93095   4.483   6.730   5.601  1.8153 -0.6363  0.6138
  690MOL0     H93096   4.527   6.793   5.448  1.2195 -2.8422  0.4350
  690MOL0     H93097   4.742   6.818   5.661 -0.5253 -0.9104  0.5815
  690MOL0     H93098   4.758   6.793   5.491 -1.4882 -1.0501 -1.7806
  690MOL0     H93099   4.689   6.570   5.682  0.4825 -1.5332 -0.0402
  690MOL0     H93100   4.668   6.578   5.497 -1.6009 -0.4219  0.4474
  690MOL0     H93101   4.926   6.564   5.779  2.7193  0.8157  0.8635
  690MOL0     H93102   5.271   6.603   5.651 -1.3506  1.3478  0.5849
  690MOL0     H93103   5.176   6.536   5.793 -1.4444 -0.4203 -0.3054
  690MOL0     H93104   5.196   6.309   5.699  2.7056 -2.1043  0.9618
  690MOL0     H93105   5.287   6.373   5.557  0.9564  1.0203  0.6469
  690MOL0     H93106   5.442   6.277   5.695  1.0845  2.2584 -2.5493
  690MOL0     H93107   5.380   6.354   5.846  3.8071  1.6990  0.6918
  690MOL0     H93108   5.581   6.449   5.795 -2.8150  0.4292  3.0624
  690MOL0     H93109   5.471   6.561   5.735  0.2063 -0.0920 -1.7311
  690MOL0     H93110   5.674   6.660   5.536  0.5594  1.4973  3.7536
  690MOL0     H93111   5.912   6.722   5.565  1.8445 -0.3274 -0.0778
  690MOL0     H93112   6.386   6.544   5.760 -1.7920 -0.4712  3.6169
  690MOL0     H93113   6.588   6.665   5.809  1.9425  2.0110 -1.4241
  690MOL0     H93114   6.749   6.829   5.793 -1.2174  2.2013 -1.1158
  690MOL0     H93115   6.798   6.961   5.890  1.8327 -1.4147 -1.4665
  690MOL0     H93116   6.758   6.835   6.105  1.2752 -1.6384  1.8719
  690MOL0     H93117   6.720   6.694   6.011  0.0274  0.2361  0.6438
  690MOL0     H93118   6.953   6.723   5.903  3.0327 -2.9217  0.8364
  690MOL0     H93119   6.998   6.828   6.035 -0.2282  2.2856 -2.5730
  690MOL0     H93120   6.868   6.550   6.076  0.1952 -0.7131  0.7963
  690MOL0     H93121   6.916   6.663   6.198  2.2431  0.2509  0.5442
  690MOL0     H93122   7.140   6.666   6.126 -5.0541  3.5949  0.1981
  690MOL0     H93123   7.113   6.530   6.005 -1.6003 -1.1701 -0.0378
  690MOL0     H93124   7.208   6.430   6.211  0.5961 -0.4287  3.2547
  690MOL0     H93125   7.069   6.499   6.307 -1.9870  2.3273 -2.0521
  690MOL0     H93126   7.055   6.298   6.083  0.4253  0.4056 -0.4643
  690MOL0     H93127   6.908   6.369   6.165  0.0003 -0.3727 -0.3539
  690MOL0     H93128   6.980   6.294   6.385  2.0012  0.3440  1.7260
  690MOL0     H93129   6.973   6.159   6.248  0.7297  1.4109 -2.8051
  690MOL0     H93130   6.365   7.028   5.860 -1.2911  0.2652 -0.5388
  690MOL0     H93131   6.168   6.907   5.755 -0.3969 -0.6832 -0.9813
  690MOL0     H93132   5.998   6.308   5.663 -2.2012 -2.3891  3.3494
  690MOL0     H93133   5.760   6.267   5.656 -0.9624 -0.0526 -2.7236
  690MOL0     H93134   3.864   7.512   5.554  1.7698 -2.3527 -1.9447
  690MOL0     H93135   3.817   7.749   5.537 -1.4811 -1.6535 -2.0440
  690MOL0     H93136   4.117   8.169   5.468 -0.4989 -1.3899 -0.7913
  690MOL0     H93137   4.111   8.427   5.418 -1.7699  2.5918 -0.5630
  690MOL0     H93138   3.826   8.533   5.108 -0.2684  0.7748 -1.2372
  690MOL0     H93139   3.915   8.680   5.129  0.4078  0.7404  1.9488
  690MOL0     H93140   3.678   8.611   5.302 -0.9771  0.2530 -0.8572
  690MOL0     H93141   3.671   8.720   5.153  2.3543 -0.4131 -1.4768
  690MOL0     H93142   3.823   8.877   5.240  0.0907  0.7142  0.6012
  690MOL0     H93143   3.854   8.773   5.383 -1.6480  0.8341  1.1910
  690MOL0     H93144   3.627   8.793   5.463  0.1441  1.9302  1.0716
  690MOL0     H93145   3.703   8.940   5.467  0.7832  0.7890 -0.4114
  690MOL0     H93146   3.411   9.035   5.181 -2.9622 -3.2555  0.3848
  690MOL0     H93147   3.746   8.361   5.220 -1.2491  1.0124  2.1008
  690MOL0     H93148   3.606   8.182   5.284 -0.1101 -0.4678 -1.1129
  690MOL0     H93149   3.701   8.073   5.176  1.0983  4.1774 -1.7794
  690MOL0     H93150   3.689   8.039   5.353  1.7116 -2.5216 -1.8553
  691MOL0     O93151   9.294   4.597   7.091  0.0792 -0.2672 -0.1619
  691MOL0     C93152   9.372   4.629   7.180  0.1112  0.1033 -1.1843
  691MOL0     O93153   9.394   4.552   7.288 -0.2050 -0.4522  0.2150
  691MOL0     C93154   9.369   4.415   7.267 -0.1855 -1.1211  0.3215
  691MOL0     C93155   9.268   4.358   7.343  0.1325 -0.0162 -0.6031
  691MOL0     C93156   9.224   4.228   7.320 -0.4942 -0.4867 -0.3758
  691MOL0     C93157   9.280   4.154   7.213  0.0982  0.1150 -0.5932
  691MOL0     O93158   9.258   4.023   7.185 -0.3298 -0.2711  0.4009
  691MOL0     C93159   9.131   3.972   7.222  0.4337 -0.7972  0.4919
  691MOL0     C93160   9.098   3.846   7.139 -0.0512 -0.4694 -0.2390
  691MOL0     C93161   9.078   3.719   7.212 -0.2824 -0.1734 -0.5978
  691MOL0     C93162   9.207   3.684   7.297  0.2867 -0.7001  0.2110
  691MOL0     C93163   9.192   3.555   7.382  0.3383 -0.5030 -0.0788
  691MOL0     C93164   9.289   3.558   7.502 -0.3186 -0.3995  0.0167
  691MOL0     C93165   9.295   3.409   7.556  0.4257 -0.1799 -0.0868
  691MOL0     C93166   9.396   3.342   7.473  0.2733  0.0964  0.4718
  691MOL0     N93167   9.536   3.387   7.469  0.3917  0.0133 -0.1215
  691MOL0     C93168   9.583   3.465   7.375  0.3177 -0.3883 -0.2736
  691MOL0     C93169   9.712   3.491   7.400  0.4720  0.9015 -0.0541
  691MOL0     C93170   9.790   3.607   7.339 -0.0572  0.5901  0.3726
  691MOL0     C93171   9.919   3.559   7.273 -0.0615  0.5982 -0.5055
  691MOL0     C93172  10.007   3.679   7.221  0.1666  0.2524 -0.4091
  691MOL0     C93173  10.137   3.622   7.163  0.5281 -0.0708 -0.1584
  691MOL0     O93174  10.221   3.723   7.109  0.3379  0.2711  0.2577
  691MOL0     C93175  10.362   3.709   7.120  0.4438  0.5122  1.0715
  691MOL0     C93176  10.428   3.599   7.169 -0.2109  1.0603 -0.2666
  691MOL0     C93177  10.563   3.607   7.198  0.7365  0.2234 -0.2762
  691MOL0     C93178  10.639   3.724   7.165 -0.1176 -0.5853 -0.2760
  691MOL0     C93179  10.784   3.736   7.175 -0.1609  0.5249  0.7177
  691MOL0     O93180  10.843   3.836   7.106  0.1928  0.1519 -0.8019
  691MOL0     C93181  10.978   3.853   7.113 -0.5836 -0.0309  0.9758
  691MOL0     C93182  11.055   3.785   7.021 -0.4830 -0.1170  0.1130
  691MOL0     C93183  11.197   3.792   7.026 -0.7016  0.3844  0.0867
  691MOL0     C93184  11.262   3.874   7.124 -0.1209 -0.2800 -0.2453
  691MOL0     O93185  11.400   3.900   7.136  0.2831  0.1211  0.2183
  691MOL0     C93186  11.484   3.871   7.026  0.5151  0.5405 -0.2188
  691MOL0     C93187  11.634   3.913   7.045  0.0868  0.6378  0.0123
  691MOL0     C93188  11.705   3.810   7.126 -0.6248 -0.1608  0.0503
  691MOL0     C93189  11.851   3.789   7.084  0.2519 -0.0765  0.2216
  691MOL0     C93190  11.934   3.915   7.123 -0.1530  0.0135  0.2307
  691MOL0     C93191  12.081   3.904   7.130 -0.1062  0.4050 -0.6224
  691MOL0     C93192  12.142   3.900   6.992 -0.6288  0.5636  0.4072
  691MOL0     C93193  12.296   3.921   7.017 -0.1220 -0.1113 -0.1994
  691MOL0    Cl93194  12.364   3.793   7.121  0.0304 -0.0081  0.5281
  691MOL0     C93195  11.174   3.932   7.221  0.4462 -0.3841 -0.8155
  691MOL0     C93196  11.041   3.926   7.217  0.2780  0.7769 -0.8623
  691MOL0     O93197  10.846   3.643   7.228 -0.3076 -0.4361 -0.3143
  691MOL0     C93198  10.566   3.825   7.106  0.4730 -0.3801  0.3677
  691MOL0     C93199  10.426   3.820   7.080  0.3195 -0.4830 -0.4491
  691MOL0     N93200   9.744   3.414   7.511  0.1606  0.7203  0.2088
  691MOL0     N93201   9.640   3.356   7.551  0.0362 -0.0474  0.1981
  691MOL0     C93202   9.374   4.214   7.126  0.6983  0.1596 -0.1508
  691MOL0     C93203   9.422   4.343   7.156 -0.3557 -0.0273 -0.2227
  691MOL0     C93204   9.449   4.756   7.175 -0.1010  0.1055 -0.0996
  691MOL0     C93205   9.556   4.770   7.274 -0.8288  0.2022  0.1410
  691MOL0     C93206   9.628   4.894   7.273  0.1214  1.1398  0.4467
  691MOL0     C93207   9.600   4.997   7.188 -0.9217  0.1639 -0.8788
  691MOL0     O93208   9.678   5.112   7.197  0.1700 -0.5244 -0.4125
  691MOL0     C93209   9.674   5.201   7.089  0.2306  0.8739  0.0879
  691MOL0     C93210   9.782   5.311   7.104 -0.1252 -0.0223  0.7427
  691MOL0     C93211   9.926   5.264   7.066 -0.1647 -0.0815  0.0723
  691MOL0     C93212   9.987   5.185   7.184  0.0112  0.1902 -0.0948
  691MOL0     C93213  10.133   5.182   7.156  0.4288  0.0550 -0.8108
  691MOL0     C93214  10.253   5.168   7.156  0.7268  0.1555  0.6425
  691MOL0     C93215   9.487   4.982   7.105  1.1878 -0.1848 -0.2780
  691MOL0     C93216   9.414   4.866   7.098  0.0084 -0.2869 -0.4663
  691MOL0     C93217   9.287   4.878   7.009 -0.7198 -0.4370 -0.3023
  691MOL0     H93218   9.227   4.422   7.420  2.5809  1.0109 -0.0600
  691MOL0     H93219   9.152   4.186   7.389 -1.4397 -0.1769 -1.1604
  691MOL0     H93220   9.113   3.962   7.329 -1.0758 -2.4974  0.1225
  691MOL0     H93221   9.056   4.041   7.180 -2.3307 -3.2947  0.9811
  691MOL0     H93222   9.183   3.848   7.071  0.3377  0.9828  0.2591
  691MOL0     H93223   9.005   3.865   7.084 -0.4861 -0.6462  0.4221
  691MOL0     H93224   9.041   3.634   7.154 -1.9421 -0.1763  0.3820
  691MOL0     H93225   9.007   3.730   7.295  1.5688 -0.4006  1.0879
  691MOL0     H93226   9.293   3.687   7.230 -0.5080 -0.3534 -0.8164
  691MOL0     H93227   9.216   3.757   7.378  0.6812 -2.4217  1.7940
  691MOL0     H93228   9.092   3.520   7.407  0.1045  0.2512  0.0909
  691MOL0     H93229   9.215   3.466   7.324 -0.4580 -1.2490  0.7345
  691MOL0     H93230   9.386   3.599   7.470 -0.3141 -0.8718 -0.6065
  691MOL0     H93231   9.266   3.629   7.581  1.5623 -0.0008  0.2709
  691MOL0     H93232   9.194   3.368   7.563 -0.3838  1.8875  1.2767
  691MOL0     H93233   9.339   3.405   7.655  2.8878 -1.7529 -1.1570
  691MOL0     H93234   9.402   3.240   7.513  1.5882 -0.2903 -0.6172
  691MOL0     H93235   9.366   3.324   7.369 -4.9799 -2.4939  2.0943
  691MOL0     H93236   9.531   3.511   7.291  1.3532 -1.7717 -1.7345
  691MOL0     H93237   9.728   3.667   7.273 -3.2105 -0.8020  1.8122
  691MOL0     H93238   9.816   3.677   7.419 -2.4364  0.7573  1.0777
  691MOL0     H93239   9.981   3.500   7.341  4.2403 -0.0608 -4.5010
  691MOL0     H93240   9.889   3.490   7.193 -0.5542  0.5041 -0.2410
  691MOL0     H93241  10.033   3.729   7.314 -1.0102 -0.2921  0.2320
  691MOL0     H93242   9.948   3.755   7.169  0.3524  0.9270  0.3612
  691MOL0     H93243  10.114   3.550   7.084 -0.7840  0.7344 -0.5381
  691MOL0     H93244  10.189   3.557   7.234  0.7030 -2.6195 -2.4908
  691MOL0     H93245  10.377   3.505   7.187  1.5884  0.1083  0.0930
  691MOL0     H93246  10.619   3.520   7.229 -0.1575 -0.1738  0.2754
  691MOL0     H93247  11.001   3.744   6.936 -0.6221 -5.9241  2.5817
  691MOL0     H93248  11.257   3.745   6.949 -1.7155 -0.7954 -0.0156
  691MOL0     H93249  11.473   3.764   7.008 -2.6067  0.6163  0.5710
  691MOL0     H93250  11.438   3.926   6.944 -0.7242 -0.2201 -0.0602
  691MOL0     H93251  11.684   3.912   6.948  2.4280 -0.2659  1.1663
  691MOL0     H93252  11.644   4.018   7.074  1.6635  0.9458 -1.4754
  691MOL0     H93253  11.694   3.823   7.234  2.4769 -4.0072  1.0536
  691MOL0     H93254  11.667   3.710   7.103  2.1474 -2.0114  2.7796
  691MOL0     H93255  11.845   3.772   6.976 -3.5034 -4.2822  0.7470
  691MOL0     H93256  11.886   3.695   7.128 -0.2218 -0.3536  0.0175
  691MOL0     H93257  11.897   3.947   7.221 -2.4669 -0.1670 -0.5249
  691MOL0     H93258  11.914   3.997   7.054 -0.4444 -0.8726 -0.7617
  691MOL0     H93259  12.113   4.000   7.171  1.9773 -0.8428  0.9388
  691MOL0     H93260  12.100   3.817   7.195  0.5915  1.8616  1.2222
  691MOL0     H93261  12.103   3.973   6.921 -2.1895 -1.9772 -1.5204
  691MOL0     H93262  12.136   3.803   6.943  0.9710  0.8864 -0.4867
  691MOL0     H93263  12.333   3.913   6.914 -4.7387  1.1357 -2.2289
  691MOL0     H93264  12.322   4.021   7.054 -1.5910  1.1417 -2.3219
  691MOL0     H93265  11.217   3.982   7.307 -0.5075  0.2134 -0.6696
  691MOL0     H93266  10.980   3.970   7.295 -1.2339 -1.9033 -0.4095
  691MOL0     H93267  10.610   3.920   7.079 -1.3715  0.3666 -0.2305
  691MOL0     H93268  10.366   3.899   7.037 -1.9534 -1.5059  0.6525
  691MOL0     H93269   9.409   4.167   7.035  1.0234  1.4821 -0.7205
  691MOL0     H93270   9.500   4.386   7.094  2.5417 -1.3616  2.2263
  691MOL0     H93271   9.578   4.690   7.343 -3.2019 -2.5826 -2.0602
  691MOL0     H93272   9.710   4.901   7.343  0.7177  1.0317 -0.2329
  691MOL0     H93273   9.574   5.244   7.092  0.6408  1.9620 -1.0010
  691MOL0     H93274   9.683   5.167   6.985  0.2533  0.5483  0.1958
  691MOL0     H93275   9.792   5.350   7.206  2.3830  0.2426  0.4730
  691MOL0     H93276   9.757   5.394   7.037  0.2648  1.1262  1.9748
  691MOL0     H93277   9.992   5.348   7.042  1.8052 -1.3320  0.8727
  691MOL0     H93278   9.924   5.198   6.979 -1.5424  1.3096 -1.0047
  691MOL0     H93279   9.990   5.230   7.284  3.5005 -1.8280  0.8910
  691MOL0     H93280   9.940   5.087   7.199  0.2762  0.1241  0.3272
  691MOL0     H93281  10.359   5.153   7.161  1.1503  2.2188 -0.7895
  691MOL0     H93282   9.463   5.061   7.035  1.2219 -0.2668 -0.3821
  691MOL0     H93283   9.246   4.975   6.983 -1.9529 -1.5162 -2.6546
  691MOL0     H93284   9.323   4.834   6.915  0.8665  0.9744 -0.4040
  691MOL0     H93285   9.204   4.827   7.057 -1.5496  3.4722  2.9160
  692MOL0     O93286   4.946   7.099   7.299  0.2669  1.0048 -0.2019
  692MOL0     C93287   4.846   7.153   7.347  0.6837 -0.3066 -0.7881
  692MOL0     O93288   4.854   7.247   7.445 -0.6623 -0.5517 -0.5322
  692MOL0     C93289   4.968   7.255   7.514  0.2068  0.2114 -0.5329
  692MOL0     C93290   5.035   7.381   7.508 -0.8177  0.1772  0.2799
  692MOL0     C93291   5.144   7.407   7.588 -0.6563  0.1837  0.1602
  692MOL0     C93292   5.186   7.312   7.681 -0.1705  0.0291 -0.2886
  692MOL0     O93293   5.291   7.345   7.765  0.2659  0.3908  0.5962
  692MOL0     C93294   5.423   7.287   7.750 -0.1462  0.2412 -1.0363
  692MOL0     C93295   5.518   7.358   7.842 -0.4026  0.0667  0.2211
  692MOL0     C93296   5.567   7.490   7.780  0.1410  0.4372  0.6839
  692MOL0     C93297   5.657   7.482   7.652  0.2831  0.3572  0.6297
  692MOL0     C93298   5.811   7.498   7.671 -0.5901 -0.5853  0.7649
  692MOL0     C93299   5.872   7.397   7.776  0.2674 -1.2530 -0.1321
  692MOL0     C93300   6.022   7.434   7.801 -0.1186  0.5273  0.2216
  692MOL0     C93301   6.120   7.424   7.686  0.2378  0.2443  0.3643
  692MOL0     N93302   6.264   7.450   7.715 -0.1126 -0.4502 -0.0435
  692MOL0     C93303   6.322   7.568   7.764 -0.1559 -1.2023  0.8629
  692MOL0     C93304   6.455   7.535   7.782  0.0548 -0.0943 -0.8225
  692MOL0     C93305   6.559   7.620   7.847  0.8557 -0.2341  0.0882
  692MOL0     C93306   6.702   7.579   7.803 -0.4277  0.3098  0.9125
  692MOL0     C93307   6.808   7.685   7.847  0.1670  0.1835 -0.1533
  692MOL0     C93308   6.956   7.645   7.807  0.1123 -0.1938 -0.1053
  692MOL0     O93309   7.025   7.773   7.796 -0.0444  0.3355  0.8973
  692MOL0     C93310   7.150   7.773   7.739 -0.9044  0.2838 -0.2303
  692MOL0     C93311   7.229   7.662   7.693 -0.0226  0.7967  0.0752
  692MOL0     C93312   7.355   7.678   7.649 -1.1200  0.1901  0.3461
  692MOL0     C93313   7.412   7.810   7.634  0.1334  0.7631 -0.2323
  692MOL0     C93314   7.552   7.816   7.585  0.2674 -0.0892  0.3427
  692MOL0     O93315   7.615   7.702   7.555 -0.3479  0.4125  0.5710
  692MOL0     C93316   7.734   7.708   7.490 -0.9480  0.6520  1.0362
  692MOL0     C93317   7.734   7.716   7.352  0.0007 -0.8259  0.0519
  692MOL0     C93318   7.850   7.719   7.279  0.2010  0.2013  0.4221
  692MOL0     C93319   7.974   7.728   7.342 -0.4398 -0.4279 -0.8802
  692MOL0     O93320   8.086   7.738   7.271 -0.8372  0.1251  0.0970
  692MOL0     C93321   8.138   7.615   7.224  0.5627 -0.2912  0.0477
  692MOL0     C93322   8.222   7.542   7.328 -0.3108  0.0840  0.3834
  692MOL0     C93323   8.343   7.622   7.376 -0.2515 -0.2731 -0.2654
  692MOL0     C93324   8.450   7.539   7.460 -1.0960  0.6205 -0.2594
  692MOL0     C93325   8.553   7.622   7.533  0.6365 -0.1350  0.2517
  692MOL0     C93326   8.675   7.551   7.595  0.5145  0.6095 -0.2856
  692MOL0     C93327   8.746   7.480   7.483 -0.5969 -0.9120  0.3424
  692MOL0     C93328   8.888   7.456   7.525  0.3418 -0.2673  0.1555
  692MOL0    Cl93329   8.999   7.593   7.560 -0.0028 -0.1528  0.5405
  692MOL0     C93330   7.981   7.731   7.481  0.7088 -0.2895  0.0482
  692MOL0     C93331   7.860   7.701   7.552 -0.1029  0.0904 -0.0554
  692MOL0     O93332   7.608   7.925   7.573 -0.9737  0.1368 -0.1121
  692MOL0     C93333   7.334   7.920   7.664  0.7755  0.2355  0.2574
  692MOL0     C93334   7.208   7.897   7.724 -0.7982 -0.2523  0.2601
  692MOL0     N93335   6.469   7.403   7.746 -0.8370  0.3577  0.2066
  692MOL0     N93336   6.357   7.355   7.696 -0.1671  0.2142  0.1512
  692MOL0     C93337   5.111   7.195   7.698  0.3235 -0.7955 -1.8927
  692MOL0     C93338   5.008   7.163   7.611 -0.5547 -0.8481  0.0864
  692MOL0     C93339   4.715   7.143   7.274  0.6391  0.2568  0.5438
  692MOL0     C93340   4.617   7.245   7.288  0.4473  0.5275  0.1735
  692MOL0     C93341   4.497   7.232   7.220  0.3258  0.4362 -0.5477
  692MOL0     C93342   4.459   7.110   7.160  0.0589  0.3213 -0.2850
  692MOL0     O93343   4.330   7.089   7.109  0.0592 -0.2943  0.0715
  692MOL0     C93344   4.252   7.001   7.195  0.1051 -0.4214 -0.2186
  692MOL0     C93345   4.103   7.029   7.198  0.7813 -0.1124 -0.0590
  692MOL0     C93346   4.071   7.176   7.212  0.0464 -0.3139  0.3658
  692MOL0     C93347   3.914   7.190   7.217  0.0958  0.3918 -1.4231
  692MOL0     C93348   3.882   7.335   7.221 -1.1429 -0.5316 -0.2783
  692MOL0     C93349   3.858   7.458   7.212  0.3066  0.4279  0.5892
  692MOL0     C93350   4.554   7.013   7.159  1.1504  0.9437 -0.2395
  692MOL0     C93351   4.685   7.020   7.199 -0.3742 -0.4385  0.0386
  692MOL0     C93352   4.782   6.907   7.185  0.0633  0.1966  0.3792
  692MOL0     H93353   5.009   7.449   7.428 -0.1217 -1.6235 -1.5499
  692MOL0     H93354   5.179   7.510   7.577 -3.6279  1.2252 -0.3476
  692MOL0     H93355   5.425   7.184   7.787 -0.2779  0.9298  1.0132
  692MOL0     H93356   5.457   7.302   7.648  0.1584  1.8372 -0.7265
  692MOL0     H93357   5.606   7.296   7.860  1.4088  2.7788  1.3704
  692MOL0     H93358   5.482   7.382   7.942  1.5321 -0.2525  1.0447
  692MOL0     H93359   5.634   7.533   7.856  4.9197 -3.9834 -0.4236
  692MOL0     H93360   5.482   7.554   7.758  1.2771  1.6586 -0.3617
  692MOL0     H93361   5.637   7.389   7.598  1.3874 -1.2032  2.7653
  692MOL0     H93362   5.627   7.564   7.586 -0.8281 -0.9371 -0.5170
  692MOL0     H93363   5.862   7.482   7.575 -1.7501  0.3524 -0.0328
  692MOL0     H93364   5.832   7.601   7.702  0.9767  0.3538 -2.9007
  692MOL0     H93365   5.825   7.403   7.874  0.5317 -1.0260 -0.0176
  692MOL0     H93366   5.860   7.302   7.724 -1.7058  0.0394 -2.2331
  692MOL0     H93367   6.071   7.375   7.879  0.2460 -1.6571 -1.5823
  692MOL0     H93368   6.012   7.537   7.838 -0.8710 -0.1793  2.0946
  692MOL0     H93369   6.102   7.330   7.633 -0.7700  0.6077  0.0417
  692MOL0     H93370   6.088   7.495   7.609 -1.8207  1.3983  2.1717
  692MOL0     H93371   6.263   7.658   7.778  0.1064 -0.5555 -1.7151
  692MOL0     H93372   6.539   7.721   7.809  3.0872  0.2524  0.0579
  692MOL0     H93373   6.554   7.611   7.956  0.4567 -0.4615  0.0533
  692MOL0     H93374   6.737   7.491   7.857 -0.4661  0.1726  0.7147
  692MOL0     H93375   6.708   7.553   7.697 -2.1124 -1.7256  1.2502
  692MOL0     H93376   6.799   7.707   7.954 -1.0699 -0.2245 -0.1526
  692MOL0     H93377   6.790   7.777   7.791 -1.7437  0.2187  0.4702
  692MOL0     H93378   6.944   7.601   7.707 -3.1591  0.5523 -0.1695
  692MOL0     H93379   7.013   7.584   7.877 -0.1457 -0.2532  0.0516
  692MOL0     H93380   7.188   7.561   7.700  1.8989 -0.4729 -3.8324
  692MOL0     H93381   7.410   7.591   7.614  0.9206  1.7446 -0.5267
  692MOL0     H93382   7.633   7.704   7.316  0.1112 -1.5594 -0.0236
  692MOL0     H93383   7.854   7.730   7.171  3.8155  2.0570  0.5963
  692MOL0     H93384   8.055   7.551   7.193 -0.3675  0.4932  0.8144
  692MOL0     H93385   8.210   7.624   7.142  1.4694 -1.7939  0.6264
  692MOL0     H93386   8.159   7.519   7.414 -2.0540  2.9956  0.0206
  692MOL0     H93387   8.265   7.453   7.281  2.5298  1.1645  0.7809
  692MOL0     H93388   8.386   7.665   7.285 -0.4794  1.1931  0.2907
  692MOL0     H93389   8.302   7.708   7.429 -3.3054  0.8118 -3.9118
  692MOL0     H93390   8.501   7.465   7.398  1.8889  2.8273 -0.6856
  692MOL0     H93391   8.396   7.491   7.542 -2.2533 -1.6993 -2.2530
  692MOL0     H93392   8.497   7.675   7.611  3.4202  1.7465  1.1570
  692MOL0     H93393   8.588   7.704   7.470 -1.6451  2.4271  2.0599
  692MOL0     H93394   8.731   7.632   7.644 -0.5322  1.8118 -1.0243
  692MOL0     H93395   8.646   7.479   7.672  3.1662  2.0218  2.2404
  692MOL0     H93396   8.739   7.536   7.389 -0.5220 -1.4466  0.0160
  692MOL0     H93397   8.690   7.390   7.457 -0.5246 -1.1319  0.9319
  692MOL0     H93398   8.886   7.388   7.611 -0.0198 -3.0615 -1.9398
  692MOL0     H93399   8.926   7.401   7.439 -1.3289 -0.7459 -0.3171
  692MOL0     H93400   8.072   7.738   7.539  1.4030  1.9876 -1.2199
  692MOL0     H93401   7.872   7.680   7.658 -0.4915 -0.7384 -0.1626
  692MOL0     H93402   7.390   8.010   7.643  2.1193 -0.5724  0.2254
  692MOL0     H93403   7.148   7.979   7.762  0.4679  0.2163  1.3198
  692MOL0     H93404   5.144   7.109   7.755  1.9035  0.1872 -1.2499
  692MOL0     H93405   4.964   7.064   7.606  0.2084 -1.1429 -2.2994
  692MOL0     H93406   4.624   7.322   7.364  2.1797 -0.9265  1.5986
  692MOL0     H93407   4.413   7.300   7.232 -0.7784 -0.6471 -1.6991
  692MOL0     H93408   4.293   6.984   7.295 -0.1257 -2.1060 -0.3827
  692MOL0     H93409   4.266   6.906   7.142  1.2315 -1.4539  1.7883
  692MOL0     H93410   4.046   6.975   7.275  0.0303  0.7190 -0.0186
  692MOL0     H93411   4.067   6.982   7.106  1.5273 -1.5239  0.3313
  692MOL0     H93412   4.121   7.229   7.131  0.4471 -2.2630 -0.7245
  692MOL0     H93413   4.113   7.208   7.308 -2.5115  3.1864  0.5266
  692MOL0     H93414   3.863   7.131   7.141 -2.8389 -1.4021  1.6088
  692MOL0     H93415   3.884   7.139   7.310  1.1642 -0.2064 -1.3938
  692MOL0     H93416   3.842   7.564   7.202  2.1869  0.6681 -0.3375
  692MOL0     H93417   4.517   6.920   7.115 -2.5358  2.5658 -0.9987
  692MOL0     H93418   4.837   6.883   7.276  2.2975  1.2977 -0.6123
  692MOL0     H93419   4.723   6.819   7.157 -1.2877  1.3786 -0.6546
  692MOL0     H93420   4.859   6.922   7.109  1.6257 -2.0039  1.4202
  693MOL0     O93421   9.170   1.267   1.570  1.2409 -0.5953 -0.1197
  693MOL0     C93422   9.150   1.335   1.676  0.6146 -0.8888 -0.9339
  693MOL0     O93423   9.247   1.398   1.748  0.3939  1.0156 -0.7147
  693MOL0     C93424   9.373   1.398   1.707  0.0333  0.5455 -0.1963
  693MOL0     C93425   9.478   1.397   1.802  0.9035  0.4063  0.1509
  693MOL0     C93426   9.611   1.402   1.764 -0.2071  0.5278  0.3061
  693MOL0     C93427   9.644   1.402   1.626  0.5954 -0.3243  0.6475
  693MOL0     O93428   9.768   1.397   1.572 -0.3242  0.0260 -0.0576
  693MOL0     C93429   9.855   1.317   1.649  0.3582  0.4284 -0.5487
  693MOL0     C93430   9.980   1.276   1.566  0.5853 -0.1245 -0.2840
  693MOL0     C93431  10.067   1.179   1.644  0.3228 -0.2967 -0.1666
  693MOL0     C93432  10.185   1.133   1.561  0.1300  0.4616  1.0329
  693MOL0     C93433  10.259   1.015   1.638  0.7220  0.5291 -0.4638
  693MOL0     C93434  10.398   0.993   1.586  0.1758  0.2335  0.3863
  693MOL0     C93435  10.403   0.865   1.497 -0.2326  0.0453 -0.2064
  693MOL0     C93436  10.289   0.843   1.392  0.8303 -0.3071  0.3164
  693MOL0     N93437  10.331   0.743   1.292 -0.2228 -0.4810  0.4509
  693MOL0     C93438  10.434   0.763   1.203  0.9863  0.2663 -0.4269
  693MOL0     C93439  10.437   0.651   1.133 -0.0478  0.2008  0.4709
  693MOL0     C93440  10.546   0.623   1.027  0.9177 -0.0507  0.4097
  693MOL0     C93441  10.688   0.581   1.079 -0.0010  0.1235 -0.4239
  693MOL0     C93442  10.807   0.597   0.980  0.6606  0.0475  0.8515
  693MOL0     C93443  10.806   0.503   0.868 -0.5498 -0.4993  0.4584
  693MOL0     O93444  10.893   0.536   0.758  0.2824 -0.8671 -0.7044
  693MOL0     C93445  11.035   0.546   0.766 -0.1961 -0.2148 -0.5836
  693MOL0     C93446  11.106   0.583   0.653 -0.1300 -0.1497 -0.7736
  693MOL0     C93447  11.245   0.583   0.651  0.7171  0.0076  0.1638
  693MOL0     C93448  11.320   0.565   0.764  0.4410 -0.2429 -0.6850
  693MOL0     C93449  11.466   0.567   0.763 -0.1961 -0.1549 -0.5203
  693MOL0     O93450  11.522   0.536   0.889  0.1463  0.0505  0.3149
  693MOL0     C93451  11.655   0.527   0.907 -0.2372 -0.3961 -0.0296
  693MOL0     C93452  11.747   0.628   0.869 -0.4087 -0.1448 -0.2525
  693MOL0     C93453  11.883   0.629   0.914  0.6358 -0.3237  0.1878
  693MOL0     C93454  11.924   0.524   0.992 -0.1855  0.4971  1.2092
  693MOL0     O93455  12.053   0.508   1.016  0.2396  0.4746 -0.6805
  693MOL0     C93456  12.139   0.616   1.046  0.2660 -0.4988  1.2368
  693MOL0     C93457  12.262   0.582   1.130 -0.2015  0.0221 -0.5034
  693MOL0     C93458  12.322   0.705   1.199  0.4303  0.5941 -0.1744
  693MOL0     C93459  12.457   0.668   1.236  0.2825 -0.3423  0.0848
  693MOL0     C93460  12.522   0.777   1.320 -0.2484 -0.4575 -0.2687
  693MOL0     C93461  12.673   0.732   1.352  0.8780  0.6882  0.9815
  693MOL0     C93462  12.714   0.753   1.500 -0.0363 -0.5242 -0.3815
  693MOL0     C93463  12.730   0.899   1.541 -0.1221  0.2030 -0.1024
  693MOL0    Cl93464  12.793   0.914   1.711  0.5163  0.6258 -0.0087
  693MOL0     C93465  11.830   0.426   1.037  0.2292 -0.2523  0.0314
  693MOL0     C93466  11.690   0.437   1.005  0.1473 -0.5734  0.0897
  693MOL0     O93467  11.523   0.616   0.660 -0.3325 -0.2645  0.2476
  693MOL0     C93468  11.256   0.515   0.879 -0.2362  0.0580  0.0619
  693MOL0     C93469  11.109   0.511   0.879 -0.2578  0.1911  0.0209
  693MOL0     N93470  10.334   0.572   1.171 -0.8750 -0.2776 -0.2676
  693MOL0     N93471  10.265   0.631   1.258 -0.5962 -0.4125 -0.3110
  693MOL0     C93472   9.542   1.406   1.529 -0.0183 -0.1620 -0.8680
  693MOL0     C93473   9.413   1.404   1.570 -0.1450 -0.4826 -0.6411
  693MOL0     C93474   9.001   1.328   1.715 -0.5501 -0.0797 -0.3479
  693MOL0     C93475   8.902   1.272   1.634  0.8422  0.4854  0.7101
  693MOL0     C93476   8.767   1.266   1.669  0.5189  0.0950  0.0489
  693MOL0     C93477   8.722   1.317   1.793 -0.4719  0.2984  0.3931
  693MOL0     O93478   8.596   1.311   1.845  0.9292 -0.2396  0.0269
  693MOL0     C93479   8.494   1.294   1.755  0.9008  0.0796  0.1931
  693MOL0     C93480   8.356   1.308   1.832 -0.6526  0.0475 -0.4386
  693MOL0     C93481   8.231   1.288   1.740  0.0704 -0.3464 -0.4780
  693MOL0     C93482   8.239   1.153   1.672 -1.3440  0.5069 -0.1496
  693MOL0     C93483   8.112   1.097   1.626  0.3387 -0.3238  0.5002
  693MOL0     C93484   8.002   1.066   1.580  0.5694  0.6307 -0.3043
  693MOL0     C93485   8.817   1.374   1.873  0.6125  0.2315  1.1428
  693MOL0     C93486   8.957   1.390   1.833  0.0074 -0.2396  0.6470
  693MOL0     C93487   9.041   1.451   1.941  0.0953  0.1067  0.1866
  693MOL0     H93488   9.448   1.404   1.906  0.8370  2.7387  0.0404
  693MOL0     H93489   9.694   1.394   1.833  2.6116 -1.5442 -2.9866
  693MOL0     H93490   9.890   1.386   1.726  3.4577  2.1014 -3.1926
  693MOL0     H93491   9.803   1.229   1.687  0.7784  0.5175  0.2433
  693MOL0     H93492  10.037   1.360   1.525  0.0958  0.0244 -0.6611
  693MOL0     H93493   9.930   1.224   1.484 -1.3179 -0.1748  0.8453
  693MOL0     H93494   9.992   1.103   1.665  0.3717  0.1575  1.7730
  693MOL0     H93495  10.108   1.216   1.738  0.3431 -3.4313  1.1756
  693MOL0     H93496  10.160   1.093   1.462  0.9683 -0.7817  1.3012
  693MOL0     H93497  10.257   1.214   1.548  1.8552 -1.2137 -0.5016
  693MOL0     H93498  10.268   1.041   1.744 -1.7231  0.4916 -0.1894
  693MOL0     H93499  10.195   0.927   1.644 -0.3473  0.9626 -3.5358
  693MOL0     H93500  10.430   1.073   1.518 -0.7169 -0.3518 -0.7608
  693MOL0     H93501  10.470   0.967   1.664  1.1339 -0.4509 -0.6929
  693MOL0     H93502  10.405   0.778   1.562 -0.4031  0.9510  1.0431
  693MOL0     H93503  10.501   0.867   1.449  0.8102 -3.1957  1.5472
  693MOL0     H93504  10.194   0.802   1.428  1.0329 -1.7531 -0.6833
  693MOL0     H93505  10.265   0.940   1.349 -0.4424 -0.6501  0.2005
  693MOL0     H93506  10.507   0.843   1.210 -2.9323  4.3312 -1.4287
  693MOL0     H93507  10.514   0.549   0.953  0.3127 -0.2806  0.8921
  693MOL0     H93508  10.573   0.711   0.967  3.7016 -1.0310  0.0821
  693MOL0     H93509  10.705   0.638   1.171  0.4979 -1.3580  0.4249
  693MOL0     H93510  10.677   0.475   1.103 -2.1649 -0.0124 -1.7406
  693MOL0     H93511  10.898   0.609   1.040  0.8281 -1.4916  0.9255
  693MOL0     H93512  10.794   0.691   0.926  1.6986  0.1392  0.7319
  693MOL0     H93513  10.701   0.490   0.842 -1.1613  1.0270  1.9753
  693MOL0     H93514  10.838   0.404   0.904  0.1373  0.4801  2.7018
  693MOL0     H93515  11.041   0.598   0.567  1.1026 -0.2756 -1.7651
  693MOL0     H93516  11.283   0.600   0.551 -1.6660  0.3224 -0.7703
  693MOL0     H93517  11.710   0.697   0.793 -0.7544 -2.3437 -2.1839
  693MOL0     H93518  11.953   0.702   0.875 -0.7667  2.4517  2.4826
  693MOL0     H93519  12.173   0.658   0.951  2.0336  0.6372  2.3086
  693MOL0     H93520  12.097   0.692   1.113  0.6724  0.6948  0.1744
  693MOL0     H93521  12.229   0.512   1.207  0.5424 -0.1571 -0.3415
  693MOL0     H93522  12.338   0.538   1.065  0.6668  0.7864 -0.0388
  693MOL0     H93523  12.331   0.789   1.129 -0.1817  0.5934 -0.2642
  693MOL0     H93524  12.271   0.741   1.289  2.0239 -0.4303  1.1889
  693MOL0     H93525  12.513   0.658   1.143  1.4879 -1.7607  0.9093
  693MOL0     H93526  12.453   0.572   1.289  1.6752 -0.4716 -0.0041
  693MOL0     H93527  12.473   0.779   1.418  1.7457 -0.2469  0.7921
  693MOL0     H93528  12.521   0.865   1.256  1.6654  1.2974  1.9374
  693MOL0     H93529  12.686   0.627   1.325 -2.0380  0.5363 -0.2688
  693MOL0     H93530  12.740   0.781   1.280 -0.6600 -1.2882 -2.0126
  693MOL0     H93531  12.813   0.712   1.520  0.6274  2.3392  3.1635
  693MOL0     H93532  12.644   0.698   1.564  1.4212 -2.5776 -0.4467
  693MOL0     H93533  12.800   0.949   1.475  0.4470 -3.6717 -2.7830
  693MOL0     H93534  12.630   0.943   1.541  0.1744  0.9102  0.8859
  693MOL0     H93535  11.866   0.345   1.100  0.7161 -0.6600 -0.7575
  693MOL0     H93536  11.615   0.368   1.041  0.9199 -0.7193  1.4769
  693MOL0     H93537  11.318   0.490   0.964  0.8654  4.0478  0.6269
  693MOL0     H93538  11.057   0.467   0.963  1.0224 -0.9451  0.2484
  693MOL0     H93539   9.562   1.400   1.422 -1.1583 -2.6581 -1.0267
  693MOL0     H93540   9.332   1.411   1.498 -0.2169 -4.7791 -1.2298
  693MOL0     H93541   8.920   1.222   1.540  0.2813 -2.1578  1.9178
  693MOL0     H93542   8.707   1.217   1.593  1.0748  2.1656 -1.8400
  693MOL0     H93543   8.504   1.194   1.710  0.7909 -0.0584  0.4739
  693MOL0     H93544   8.494   1.369   1.676 -4.1147  0.8360  0.6320
  693MOL0     H93545   8.346   1.405   1.881 -0.2456  0.1342 -0.5214
  693MOL0     H93546   8.353   1.235   1.913 -0.5170 -0.0191 -0.4928
  693MOL0     H93547   8.227   1.367   1.665 -0.3711 -1.3185 -1.4954
  693MOL0     H93548   8.144   1.300   1.805  0.5969  1.5619 -0.0669
  693MOL0     H93549   8.301   1.167   1.583 -0.0122  4.5141  1.1926
  693MOL0     H93550   8.296   1.083   1.733  1.0130  1.6934 -0.8528
  693MOL0     H93551   7.912   1.022   1.541  0.2076 -0.0769  1.2673
  693MOL0     H93552   8.785   1.401   1.974 -1.6772 -5.1371  2.1720
  693MOL0     H93553   9.097   1.368   1.985 -1.2588  0.3315  2.4511
  693MOL0     H93554   9.118   1.522   1.908 -1.8100  2.0651 -0.2884
  693MOL0     H93555   8.991   1.494   2.028  0.1569  0.0984  0.2266
  694MOL0     O93556   6.033   2.907   7.042 -0.7539 -0.5325  0.0912
  694MOL0     C93557   5.987   2.947   6.934  0.3081  0.3517 -1.2864
  694MOL0     O93558   6.043   3.036   6.855  0.2106 -0.1195 -0.1349
  694MOL0     C93559   6.141   3.119   6.905 -0.3625  1.0462 -0.2517
  694MOL0     C93560   6.115   3.232   6.994 -0.5681  1.3333  0.1282
  694MOL0     C93561   6.219   3.316   7.030 -0.8228 -0.0960  0.0300
  694MOL0     C93562   6.349   3.307   6.969  0.3625 -0.4777  0.1894
  694MOL0     O93563   6.453   3.397   7.011  0.3568 -0.2496  0.2631
  694MOL0     C93564   6.584   3.392   6.944 -0.3851 -0.5986 -0.4586
  694MOL0     C93565   6.684   3.503   6.987 -0.1822 -0.1217  1.2193
  694MOL0     C93566   6.729   3.499   7.133  0.4608  0.3541  0.0686
  694MOL0     C93567   6.693   3.631   7.200  0.3658  0.0739  0.2853
  694MOL0     C93568   6.711   3.625   7.350 -0.1354 -0.0211 -0.3666
  694MOL0     C93569   6.683   3.762   7.398  0.1134  0.6796 -0.7349
  694MOL0     C93570   6.670   3.758   7.544  1.1066  0.0733  0.4196
  694MOL0     C93571   6.793   3.730   7.628 -0.6359  0.4004 -0.6981
  694MOL0     N93572   6.894   3.830   7.598  0.2305  0.4143 -0.0076
  694MOL0     C93573   7.013   3.793   7.537 -0.4380  0.2104 -0.5269
  694MOL0     C93574   7.084   3.905   7.528  0.2753  0.3745  0.2254
  694MOL0     C93575   7.224   3.927   7.493  0.2325  0.3627 -0.4860
  694MOL0     C93576   7.314   3.894   7.617  0.6348  0.2667 -0.5077
  694MOL0     C93577   7.469   3.928   7.587 -0.0556  0.3117  0.3559
  694MOL0     C93578   7.514   3.865   7.452 -0.2143 -0.0484 -0.0460
  694MOL0     O93579   7.656   3.826   7.450 -0.6682 -0.5137  0.5794
  694MOL0     C93580   7.766   3.898   7.503  0.6678 -0.0755  0.0913
  694MOL0     C93581   7.876   3.824   7.537  0.4036 -0.0206 -0.6685
  694MOL0     C93582   7.986   3.883   7.598  0.6063 -0.5981 -0.8390
  694MOL0     C93583   7.981   4.027   7.622  0.1506  0.1829 -1.2354
  694MOL0     C93584   8.107   4.091   7.692  0.4942 -0.3111 -0.7010
  694MOL0     O93585   8.092   4.233   7.715 -0.2214 -0.8087 -0.1521
  694MOL0     C93586   8.203   4.296   7.766 -0.4345 -0.2944  0.5368
  694MOL0     C93587   8.248   4.405   7.692  0.7828 -0.7749  1.0965
  694MOL0     C93588   8.341   4.490   7.736 -0.7125  0.0078  0.8290
  694MOL0     C93589   8.401   4.468   7.865  0.6774 -0.6931 -0.3101
  694MOL0     O93590   8.499   4.555   7.920 -0.3039  0.5994 -0.4742
  694MOL0     C93591   8.592   4.622   7.837  0.2735 -0.1348  0.0891
  694MOL0     C93592   8.731   4.632   7.906  0.3449 -0.2563  0.2074
  694MOL0     C93593   8.834   4.732   7.850  0.1687 -0.1615  0.7507
  694MOL0     C93594   8.976   4.719   7.892 -0.6556  0.4380 -0.3315
  694MOL0     C93595   9.054   4.596   7.826 -0.1875  0.7603 -0.3886
  694MOL0     C93596   9.046   4.583   7.675  0.2019  0.2206 -0.2882
  694MOL0     C93597   9.072   4.710   7.604  0.3119 -0.0150  0.7042
  694MOL0     C93598   9.114   4.691   7.450  0.6082 -0.1016 -0.7736
  694MOL0    Cl93599   9.102   4.847   7.366 -0.2037 -0.0011 -0.1346
  694MOL0     C93600   8.365   4.353   7.942 -0.3696  0.3296 -0.1834
  694MOL0     C93601   8.254   4.272   7.896 -0.4068  0.0158 -0.8748
  694MOL0     O93602   8.213   4.029   7.715 -0.3704  0.4435  0.9475
  694MOL0     C93603   7.872   4.104   7.588  0.6367  0.4328  0.0106
  694MOL0     C93604   7.766   4.038   7.525 -0.5640  0.3252  0.8862
  694MOL0     N93605   7.016   4.000   7.595  0.0310  0.2857 -1.1388
  694MOL0     N93606   6.904   3.960   7.630  0.9089 -0.7139 -0.0012
  694MOL0     C93607   6.374   3.202   6.876  0.8911  0.3790 -0.1237
  694MOL0     C93608   6.270   3.108   6.853  0.0285  0.4848 -0.2706
  694MOL0     C93609   5.882   2.868   6.869  0.1342  0.4244 -0.3290
  694MOL0     C93610   5.893   2.834   6.735  0.8978  0.1332 -0.2930
  694MOL0     C93611   5.785   2.764   6.673  0.0811  0.6231  0.1471
  694MOL0     C93612   5.666   2.734   6.738  0.4959 -0.1359 -0.4065
  694MOL0     O93613   5.554   2.679   6.681 -0.1102 -0.1698 -0.0534
  694MOL0     C93614   5.552   2.661   6.537 -0.3984 -0.0163  0.2644
  694MOL0     C93615   5.410   2.617   6.500 -0.1830 -0.6899  0.2032
  694MOL0     C93616   5.355   2.504   6.580  0.0973  0.5753  0.2793
  694MOL0     C93617   5.427   2.374   6.555 -0.7730 -0.6315  0.2470
  694MOL0     C93618   5.370   2.324   6.424 -0.2961 -0.5657  0.4610
  694MOL0     C93619   5.333   2.285   6.310  0.2085 -0.2923 -0.2476
  694MOL0     C93620   5.657   2.766   6.873 -0.9053 -1.0253  0.4070
  694MOL0     C93621   5.764   2.832   6.938 -0.6382  0.2388  0.3180
  694MOL0     C93622   5.752   2.856   7.083  0.0143  0.1515  0.1273
  694MOL0     H93623   6.015   3.257   7.028 -0.5537  2.1239 -0.3893
  694MOL0     H93624   6.187   3.399   7.093 -0.3426  0.4598 -0.4430
  694MOL0     H93625   6.626   3.293   6.962  0.9064 -0.1604 -0.9263
  694MOL0     H93626   6.564   3.411   6.838  0.8415  0.4366 -0.5353
  694MOL0     H93627   6.635   3.597   6.959 -0.2936 -0.4701  0.1874
  694MOL0     H93628   6.775   3.488   6.928 -0.2273  1.6547  0.6462
  694MOL0     H93629   6.838   3.495   7.142  0.9414  2.6900 -3.0381
  694MOL0     H93630   6.684   3.412   7.182  0.1665 -0.5290 -1.6744
  694MOL0     H93631   6.747   3.718   7.162  2.2116 -1.0056  0.2707
  694MOL0     H93632   6.590   3.657   7.176  0.7615  2.1607  0.6804
  694MOL0     H93633   6.638   3.557   7.395 -0.5633  2.0389  2.3384
  694MOL0     H93634   6.815   3.608   7.383 -0.0902  0.4801 -0.2483
  694MOL0     H93635   6.757   3.832   7.358  0.0293 -0.5882 -3.2939
  694MOL0     H93636   6.592   3.802   7.354 -0.5213  0.3844  0.2647
  694MOL0     H93637   6.586   3.695   7.573 -0.5696  2.3656  0.8114
  694MOL0     H93638   6.638   3.859   7.569 -2.6876 -0.9034  0.0902
  694MOL0     H93639   6.765   3.718   7.733 -0.8402 -1.0959 -0.8985
  694MOL0     H93640   6.829   3.629   7.608 -4.7426 -1.1722 -1.2279
  694MOL0     H93641   7.043   3.697   7.495 -0.1422 -0.0833  0.3278
  694MOL0     H93642   7.244   3.857   7.411 -1.5786  0.7148 -1.2709
  694MOL0     H93643   7.230   4.031   7.463  1.0505  0.7727  0.9788
  694MOL0     H93644   7.277   3.950   7.703 -3.2881 -1.4280 -0.8700
  694MOL0     H93645   7.296   3.788   7.641  2.7088  0.3899  2.0843
  694MOL0     H93646   7.519   3.883   7.674 -1.2678  0.5316  1.1931
  694MOL0     H93647   7.484   4.036   7.581  1.2757  0.1419  0.3341
  694MOL0     H93648   7.487   3.938   7.375  0.0179  1.3382  1.1341
  694MOL0     H93649   7.454   3.774   7.441  0.6130 -0.7482  1.0275
  694MOL0     H93650   7.870   3.715   7.537 -2.7805 -0.0137  2.3963
  694MOL0     H93651   8.069   3.819   7.628  1.9732  1.5062  0.1105
  694MOL0     H93652   8.196   4.435   7.601  1.6777 -3.2769 -0.3362
  694MOL0     H93653   8.368   4.576   7.675 -0.9200  0.5216  1.4511
  694MOL0     H93654   8.592   4.577   7.737 -4.7045 -0.0306 -0.2369
  694MOL0     H93655   8.552   4.722   7.820  3.3297  1.3381  0.9038
  694MOL0     H93656   8.711   4.669   8.007  0.8422 -0.4354  0.3774
  694MOL0     H93657   8.773   4.530   7.907  0.3813 -0.2513 -0.3926
  694MOL0     H93658   8.819   4.743   7.743 -1.2958  3.2975  1.1925
  694MOL0     H93659   8.803   4.834   7.873  2.1198  0.8859 -0.9469
  694MOL0     H93660   8.987   4.708   8.000 -1.9050  0.1473 -0.2139
  694MOL0     H93661   9.031   4.807   7.860 -0.8255  0.7292  0.1637
  694MOL0     H93662   9.010   4.512   7.882 -1.6328  3.1991  2.4459
  694MOL0     H93663   9.158   4.598   7.859  0.4750  1.7312 -2.3766
  694MOL0     H93664   9.124   4.512   7.643 -0.7953 -1.6356  1.1926
  694MOL0     H93665   8.948   4.542   7.651 -0.0342  2.1709 -3.0237
  694MOL0     H93666   9.152   4.765   7.653 -0.5118  2.7532 -0.8461
  694MOL0     H93667   8.987   4.777   7.621 -0.8653 -2.2091  4.6315
  694MOL0     H93668   9.215   4.653   7.438  0.6702  0.0815 -0.8374
  694MOL0     H93669   9.050   4.626   7.389  2.2324 -1.8259 -0.6982
  694MOL0     H93670   8.415   4.328   8.035  0.5069  0.6693 -0.5498
  694MOL0     H93671   8.223   4.181   7.945  0.3729  0.5137  0.5966
  694MOL0     H93672   7.875   4.209   7.612  1.5355  0.6256 -0.8930
  694MOL0     H93673   7.688   4.096   7.477  1.3908  1.4835 -1.0642
  694MOL0     H93674   6.462   3.174   6.819  1.2995 -3.2852  1.9994
  694MOL0     H93675   6.296   3.026   6.787  0.1331 -1.8756  2.4908
  694MOL0     H93676   5.983   2.870   6.686  0.6456  0.0636 -0.8133
  694MOL0     H93677   5.801   2.752   6.566 -2.4139 -0.1676 -0.2047
  694MOL0     H93678   5.628   2.585   6.521 -0.8824 -0.9994  2.2455
  694MOL0     H93679   5.585   2.750   6.483  2.1053 -1.0961 -0.1124
  694MOL0     H93680   5.411   2.606   6.391 -0.8032 -0.3795  0.1608
  694MOL0     H93681   5.341   2.701   6.511  1.7294  0.8434  1.1433
  694MOL0     H93682   5.247   2.500   6.561 -0.0131  2.5052  0.2805
  694MOL0     H93683   5.366   2.521   6.688  4.2423 -1.4584  0.3727
  694MOL0     H93684   5.535   2.389   6.542 -0.2069 -1.9351  2.7338
  694MOL0     H93685   5.406   2.298   6.631 -0.8540  1.6642  2.6562
  694MOL0     H93686   5.298   2.245   6.217  0.6028  0.0961 -0.5690
  694MOL0     H93687   5.563   2.755   6.925 -1.1523 -0.5511  0.0677
  694MOL0     H93688   5.746   2.964   7.103 -1.6393  0.2533 -0.7710
  694MOL0     H93689   5.663   2.807   7.123 -0.6942  1.6659  0.4815
  694MOL0     H93690   5.834   2.805   7.133 -2.0644 -2.5690  0.9567
  695MOL0     O93691  11.011   2.093   0.925  0.3735  0.4699  0.1282
  695MOL0     C93692  10.947   2.114   1.027 -0.2313  0.2104  0.2970
  695MOL0     O93693  11.005   2.154   1.142  0.2838  0.1499 -0.5435
  695MOL0     C93694  11.138   2.168   1.161 -0.0493  0.2237  0.2156
  695MOL0     C93695  11.178   2.261   1.259  0.7743  0.2506 -1.4180
  695MOL0     C93696  11.311   2.277   1.301  0.6649  0.6456 -0.4705
  695MOL0     C93697  11.416   2.211   1.228  0.0202  0.2670 -0.1800
  695MOL0     O93698  11.549   2.231   1.269  0.3248 -0.1965 -0.2092
  695MOL0     C93699  11.650   2.236   1.174  0.1930 -0.1983 -0.2428
  695MOL0     C93700  11.685   2.374   1.123  0.1338  0.2001 -0.0776
  695MOL0     C93701  11.800   2.378   1.031  0.7287 -0.4702 -0.0513
  695MOL0     C93702  11.931   2.388   1.094  0.6848 -0.1629  0.2898
  695MOL0     C93703  11.976   2.526   1.155  0.4972  0.3128  0.0654
  695MOL0     C93704  12.111   2.510   1.230 -0.0921 -0.2150  0.9073
  695MOL0     C93705  12.174   2.633   1.292 -0.6292  0.2664 -0.0011
  695MOL0     C93706  12.313   2.590   1.345  0.0439 -0.1948 -0.0798
  695MOL0     N93707  12.398   2.702   1.389 -0.2548 -0.0276 -0.5616
  695MOL0     C93708  12.414   2.805   1.302 -0.5976 -0.5727  0.3600
  695MOL0     C93709  12.487   2.893   1.380 -0.3823 -0.0941  0.4567
  695MOL0     C93710  12.534   3.027   1.333  0.5169  0.4054  0.5690
  695MOL0     C93711  12.604   3.016   1.200  0.1820  0.8345  0.0298
  695MOL0     C93712  12.675   3.151   1.184  1.0176 -0.1683 -0.1728
  695MOL0     C93713  12.735   3.170   1.041 -0.1675  0.3238  0.2889
  695MOL0     O93714  12.779   3.308   1.009  1.1281 -0.2210 -0.0692
  695MOL0     C93715  12.901   3.337   1.055 -0.4213  0.2949  0.1665
  695MOL0     C93716  13.015   3.257   1.041  0.3194  0.1240 -0.4744
  695MOL0     C93717  13.134   3.298   1.094 -0.7775  0.6482 -0.7214
  695MOL0     C93718  13.148   3.421   1.169 -0.5199  0.6962  0.3862
  695MOL0     C93719  13.273   3.453   1.243 -0.0706 -0.6254  0.9133
  695MOL0     O93720  13.372   3.368   1.218 -0.0169  0.1393  0.3816
  695MOL0     C93721  13.504   3.382   1.257  0.0686 -0.3160 -0.2074
  695MOL0     C93722  13.586   3.481   1.197 -0.1440  0.0261  0.0892
  695MOL0     C93723  13.719   3.495   1.238  0.1772  0.7888 -0.0701
  695MOL0     C93724  13.778   3.399   1.317  0.0329  0.7230  0.0161
  695MOL0     O93725  13.905   3.392   1.356 -0.0133 -0.0435 -0.7262
  695MOL0     C93726  13.981   3.515   1.383  1.3118 -0.3616  0.0571
  695MOL0     C93727  14.113   3.471   1.447  1.1152  0.4520  0.5237
  695MOL0     C93728  14.206   3.591   1.444  0.3987  0.3215  0.2038
  695MOL0     C93729  14.351   3.554   1.497 -0.2840 -0.4557  0.0894
  695MOL0     C93730  14.435   3.677   1.503  0.0916 -0.0906 -0.5926
  695MOL0     C93731  14.577   3.660   1.549 -0.7129 -0.3246 -0.6019
  695MOL0     C93732  14.640   3.792   1.589  0.3987  0.5433 -0.2514
  695MOL0     C93733  14.785   3.790   1.643  0.4730 -0.7454  0.2273
  695MOL0    Cl93734  14.890   3.764   1.501  0.6974 -0.0469  0.1101
  695MOL0     C93735  13.701   3.290   1.360 -0.1888 -0.7909 -0.4906
  695MOL0     C93736  13.559   3.288   1.341 -0.2333 -0.1377  0.0419
  695MOL0     O93737  13.275   3.556   1.309  0.5613  0.8891 -0.3661
  695MOL0     C93738  13.035   3.506   1.175  0.1734 -0.2510 -0.1040
  695MOL0     C93739  12.914   3.462   1.109  0.1178 -0.0732 -0.1441
  695MOL0     N93740  12.532   2.827   1.491  0.4591  0.7562  0.1661
  695MOL0     N93741  12.484   2.709   1.502  0.6662 -0.2933  0.1412
  695MOL0     C93742  11.380   2.112   1.130 -1.6133 -0.7523  0.2411
  695MOL0     C93743  11.248   2.099   1.098  0.4845  1.6734  0.7763
  695MOL0     C93744  10.801   2.106   1.027 -0.0039 -0.1055  0.2869
  695MOL0     C93745  10.738   2.169   1.134 -0.1669  0.3097 -0.0156
  695MOL0     C93746  10.600   2.172   1.137 -0.8784 -0.6458 -0.2824
  695MOL0     C93747  10.520   2.108   1.048 -0.4227  0.2836 -0.9672
  695MOL0     O93748  10.384   2.129   1.071  1.0761  0.4012 -0.2867
  695MOL0     C93749  10.304   2.164   0.960 -0.4059 -0.0242  0.3658
  695MOL0     C93750  10.179   2.216   1.026  0.5291  0.6524 -0.7214
  695MOL0     C93751  10.083   2.279   0.925 -0.1594 -0.2946 -0.5730
  695MOL0     C93752   9.951   2.313   0.987 -0.1286  0.1912 -0.1114
  695MOL0     C93753   9.871   2.194   1.028 -0.7012 -0.2519 -0.2272
  695MOL0     C93754   9.786   2.102   1.053 -0.0346 -0.2460  0.3781
  695MOL0     C93755  10.581   2.046   0.942  0.6255 -0.5993 -0.3420
  695MOL0     C93756  10.720   2.039   0.929  0.2224  0.9967 -0.0972
  695MOL0     C93757  10.765   1.950   0.822 -0.7511  0.3651 -0.1212
  695MOL0     H93758  11.094   2.305   1.312 -0.9202 -1.8147 -2.2301
  695MOL0     H93759  11.351   2.335   1.383  0.7962 -0.5773  0.3614
  695MOL0     H93760  11.737   2.201   1.230 -0.0844  1.9012  1.6327
  695MOL0     H93761  11.629   2.168   1.091 -2.7155 -3.1297  2.5868
  695MOL0     H93762  11.679   2.449   1.203 -1.3712  1.9451 -1.7102
  695MOL0     H93763  11.598   2.395   1.060 -1.2251 -1.0342  1.3018
  695MOL0     H93764  11.785   2.464   0.965  0.9825 -0.2725  0.1491
  695MOL0     H93765  11.797   2.293   0.961 -2.8681 -0.5923  0.0354
  695MOL0     H93766  11.938   2.321   1.181  1.0965 -0.7084 -0.1580
  695MOL0     H93767  12.013   2.367   1.025  0.7283  3.1054 -0.8114
  695MOL0     H93768  11.983   2.605   1.079 -1.8023 -0.6853 -1.2775
  695MOL0     H93769  11.903   2.553   1.232  0.1914  0.8683 -0.4076
  695MOL0     H93770  12.097   2.435   1.309 -0.2613  0.9059  1.9621
  695MOL0     H93771  12.182   2.472   1.155  0.4097  1.2077  0.6220
  695MOL0     H93772  12.116   2.672   1.376 -0.2786 -1.8613  1.3186
  695MOL0     H93773  12.182   2.711   1.216 -0.0731  2.7821  2.4855
  695MOL0     H93774  12.310   2.515   1.425 -0.0989  1.8427  1.8996
  695MOL0     H93775  12.365   2.537   1.264  0.2832  0.8071 -0.5929
  695MOL0     H93776  12.380   2.822   1.201  1.1877 -0.9040 -0.3287
  695MOL0     H93777  12.453   3.098   1.315  1.6398  1.7867  0.8413
  695MOL0     H93778  12.594   3.067   1.415 -0.2002  2.6338  0.0799
  695MOL0     H93779  12.680   2.937   1.198  1.1597  1.7602 -0.3736
  695MOL0     H93780  12.524   3.003   1.126  0.1967  0.7734  0.0245
  695MOL0     H93781  12.755   3.153   1.259 -1.0372  0.8400  2.1551
  695MOL0     H93782  12.603   3.231   1.205  1.9033  1.5195 -2.9857
  695MOL0     H93783  12.660   3.139   0.967 -0.1080  0.3868  0.2016
  695MOL0     H93784  12.817   3.100   1.023 -0.7960 -0.8842  1.8253
  695MOL0     H93785  13.009   3.162   0.989 -0.4390 -0.2290  0.2341
  695MOL0     H93786  13.222   3.236   1.081 -1.2037  0.1431 -1.2253
  695MOL0     H93787  13.538   3.529   1.113 -1.7743 -1.8444 -0.1123
  695MOL0     H93788  13.765   3.580   1.190  0.8682 -1.0297 -2.8803
  695MOL0     H93789  13.996   3.562   1.286 -0.4501 -2.5926 -1.4011
  695MOL0     H93790  13.925   3.577   1.454  0.3550  0.7533 -1.5958
  695MOL0     H93791  14.100   3.437   1.550  2.8914  1.3387  1.0696
  695MOL0     H93792  14.166   3.390   1.396  0.1861 -0.6815  1.3018
  695MOL0     H93793  14.210   3.630   1.342  1.3595 -1.2224 -0.3840
  695MOL0     H93794  14.168   3.668   1.511  2.2054  2.9831 -1.6431
  695MOL0     H93795  14.404   3.483   1.433 -0.2901 -0.6771  0.3299
  695MOL0     H93796  14.354   3.518   1.600 -1.1709  0.6571  0.5244
  695MOL0     H93797  14.388   3.751   1.569  0.6993 -0.4629  0.2688
  695MOL0     H93798  14.443   3.720   1.403  3.1958  1.3558  0.1477
  695MOL0     H93799  14.588   3.606   1.644  2.2016  0.0761 -0.6044
  695MOL0     H93800  14.639   3.609   1.474  0.8766 -1.0712  1.1048
  695MOL0     H93801  14.590   3.832   1.678  0.2137  1.3997 -0.7301
  695MOL0     H93802  14.621   3.864   1.508  1.3441  0.9057 -0.1564
  695MOL0     H93803  14.805   3.883   1.698  0.9495 -0.2840 -0.6982
  695MOL0     H93804  14.790   3.702   1.707 -0.5607 -1.1819 -0.2688
  695MOL0     H93805  13.750   3.208   1.412  0.0198 -1.4261 -1.6688
  695MOL0     H93806  13.496   3.210   1.383 -0.8725  0.9749  1.2153
  695MOL0     H93807  13.042   3.603   1.224 -1.8576 -0.8103  1.4142
  695MOL0     H93808  12.827   3.526   1.117  0.5484  0.4054  0.8435
  695MOL0     H93809  11.448   2.042   1.082 -0.9555  1.5698 -2.4601
  695MOL0     H93810  11.210   2.023   1.030 -1.6911  3.7775 -0.4836
  695MOL0     H93811  10.793   2.229   1.206 -0.9247 -3.0553  3.7841
  695MOL0     H93812  10.556   2.226   1.221 -0.4363  1.0783 -1.1177
  695MOL0     H93813  10.279   2.073   0.905 -2.1128 -0.7979  2.2987
  695MOL0     H93814  10.351   2.242   0.899 -2.6524  1.9834  1.0338
  695MOL0     H93815  10.200   2.273   1.116 -0.2380 -2.7612  1.8227
  695MOL0     H93816  10.129   2.128   1.067 -0.1417  1.4968  0.3206
  695MOL0     H93817  10.064   2.219   0.836  0.7585 -0.8439 -0.4180
  695MOL0     H93818  10.138   2.366   0.888 -3.8969  2.2504 -0.5795
  695MOL0     H93819   9.963   2.382   1.070 -0.5752  1.5818 -1.1575
  695MOL0     H93820   9.903   2.373   0.908 -0.5987  0.7748  0.6082
  695MOL0     H93821   9.701   2.042   1.075 -1.4271  1.6452  0.3552
  695MOL0     H93822  10.511   1.982   0.889  1.1786  0.9800 -3.1449
  695MOL0     H93823  10.812   2.018   0.751  0.3280  0.8027  0.9756
  695MOL0     H93824  10.837   1.877   0.859 -1.9809 -0.1015  1.4793
  695MOL0     H93825  10.684   1.897   0.771 -1.3099  1.2969 -0.2414
  696MOL0     O93826  10.409  10.228   5.958 -0.3760 -0.0176 -0.8010
  696MOL0     C93827  10.318  10.283   6.021  0.9347 -0.0961  0.1597
  696MOL0     O93828  10.336  10.389   6.113 -0.3870  0.0341 -0.8024
  696MOL0     C93829  10.460  10.417   6.163 -0.2635 -0.6644  0.2109
  696MOL0     C93830  10.496  10.402   6.294 -0.0697 -0.0309 -0.1689
  696MOL0     C93831  10.620  10.449   6.335  0.2806  0.4434  0.2150
  696MOL0     C93832  10.713  10.510   6.248  0.4046  0.9388 -0.4935
  696MOL0     O93833  10.835  10.552   6.295  0.6113  0.3056  0.5621
  696MOL0     C93834  10.882  10.514   6.426  0.3229  0.7883 -0.0318
  696MOL0     C93835  11.025  10.536   6.442  0.1950 -0.0335  0.1735
  696MOL0     C93836  11.116  10.455   6.349 -0.4722  0.1947 -0.2738
  696MOL0     C93837  11.266  10.488   6.356 -0.1227 -0.9923 -0.5190
  696MOL0     C93838  11.356  10.389   6.292  0.0906  0.1608  0.3561
  696MOL0     C93839  11.502  10.425   6.287 -0.6380  0.7966  0.9548
  696MOL0     C93840  11.582  10.308   6.217 -0.4262 -0.4334  0.4850
  696MOL0     C93841  11.636  10.210   6.326  0.7315  0.3331  0.3831
  696MOL0     N93842  11.726  10.103   6.279  0.1387  0.2692  0.4035
  696MOL0     C93843  11.721  10.036   6.156 -0.0195  0.1412  0.7728
  696MOL0     C93844  11.828   9.960   6.160 -0.1211  0.6567  0.4705
  696MOL0     C93845  11.877   9.871   6.044  0.0473 -0.7761 -0.6262
  696MOL0     C93846  11.783   9.752   6.011 -1.0073  0.0705  0.6673
  696MOL0     C93847  11.834   9.676   5.880  0.5189 -0.2504  0.0609
  696MOL0     C93848  11.957   9.593   5.891  0.1209  0.0651 -0.4328
  696MOL0     O93849  12.074   9.670   5.933  0.5822 -0.3758  0.6375
  696MOL0     C93850  12.189   9.610   5.956 -0.6230  0.2196 -0.7649
  696MOL0     C93851  12.292   9.697   6.001 -0.0253  0.4465 -0.5009
  696MOL0     C93852  12.420   9.642   6.020 -0.2512  0.4115 -0.4708
  696MOL0     C93853  12.445   9.504   6.010 -0.8105  0.3644  0.0599
  696MOL0     C93854  12.581   9.457   6.025  0.2176  0.5003  0.1325
  696MOL0     O93855  12.611   9.334   5.988 -0.2250  0.0517 -0.2595
  696MOL0     C93856  12.735   9.297   6.018  0.0155 -0.2288 -0.0960
  696MOL0     C93857  12.841   9.316   5.925 -0.5787  0.2610  0.5468
  696MOL0     C93858  12.968   9.268   5.949  0.2553  0.1596  0.1628
  696MOL0     C93859  12.993   9.194   6.064  0.7335 -0.1425  0.4642
  696MOL0     O93860  13.111   9.138   6.066  0.2752  0.4837  0.3859
  696MOL0     C93861  13.157   9.064   6.178 -0.2022 -0.0182 -0.9962
  696MOL0     C93862  13.312   9.052   6.167 -0.7773 -0.4555  0.1490
  696MOL0     C93863  13.359   8.942   6.072  0.0872  0.6151  0.0597
  696MOL0     C93864  13.310   8.943   5.932 -0.1328  0.0343 -0.0742
  696MOL0     C93865  13.382   9.041   5.846 -0.8319  0.2161 -0.5780
  696MOL0     C93866  13.533   9.013   5.842 -0.1377 -0.2475 -0.0843
  696MOL0     C93867  13.582   9.120   5.745 -0.0402 -0.5344 -0.2272
  696MOL0     C93868  13.732   9.113   5.721 -0.4836  0.4131 -0.0686
  696MOL0    Cl93869  13.772   8.946   5.661  0.0646 -0.4548  0.5125
  696MOL0     C93870  12.885   9.175   6.161  0.4736  0.2187 -0.1844
  696MOL0     C93871  12.760   9.227   6.136  0.1843  0.2223 -0.8236
  696MOL0     O93872  12.666   9.535   6.071 -0.1246 -0.1363 -0.3526
  696MOL0     C93873  12.343   9.425   5.975 -0.3051 -0.0792  0.3120
  696MOL0     C93874  12.216   9.474   5.937 -0.0369 -0.6732  0.3076
  696MOL0     N93875  11.879   9.956   6.285 -1.1831  0.3695  0.4753
  696MOL0     N93876  11.825  10.055   6.352 -0.1801 -0.1190  0.2559
  696MOL0     C93877  10.676  10.522   6.117 -0.6938  0.0554  0.2978
  696MOL0     C93878  10.551  10.479   6.080  0.3637 -0.5239  0.0259
  696MOL0     C93879  10.177  10.244   5.980  0.1903 -0.4808 -0.1485
  696MOL0     C93880  10.167  10.140   5.895  0.4545  0.3618  0.7012
  696MOL0     C93881  10.042  10.095   5.853  0.0302 -0.2078  0.0177
  696MOL0     C93882   9.926  10.135   5.909 -0.3989  0.5644 -0.6595
  696MOL0     O93883   9.812  10.067   5.876  0.4625 -0.8096  0.8195
  696MOL0     C93884   9.693  10.079   5.952  0.0900 -0.7677 -1.1101
  696MOL0     C93885   9.594   9.978   5.906  0.8332  0.0317  0.4457
  696MOL0     C93886   9.626   9.834   5.904  0.3229 -0.4754  0.3686
  696MOL0     C93887   9.677   9.779   6.031 -0.2264  0.2638  1.1406
  696MOL0     C93888   9.699   9.635   6.029  0.1276 -0.2991  0.0036
  696MOL0     C93889   9.701   9.517   6.018 -0.3376 -0.2595 -1.1544
  696MOL0     C93890   9.936  10.249   5.998 -0.5571  0.2299 -0.3660
  696MOL0     C93891  10.063  10.310   6.032  0.0559  0.2724  0.3424
  696MOL0     C93892  10.062  10.437   6.114 -0.1191  1.2046  0.4254
  696MOL0     H93893  10.425  10.364   6.367 -0.3127 -1.0277 -0.9101
  696MOL0     H93894  10.648  10.437   6.439 -0.3007 -0.6151  0.2612
  696MOL0     H93895  10.832  10.575   6.501 -0.3831  0.3165 -0.1079
  696MOL0     H93896  10.864  10.406   6.435 -3.6941  1.1776 -1.3404
  696MOL0     H93897  11.046  10.503   6.544 -0.1150  0.7406  0.4872
  696MOL0     H93898  11.052  10.640   6.423  1.4582 -0.4147 -0.2804
  696MOL0     H93899  11.080  10.463   6.246 -0.8998  0.5781 -0.1004
  696MOL0     H93900  11.112  10.348   6.370  1.8125 -0.1831 -1.4291
  696MOL0     H93901  11.286  10.587   6.316 -2.6259  0.4749  1.5513
  696MOL0     H93902  11.298  10.497   6.460 -2.6646 -1.2408  0.3631
  696MOL0     H93903  11.349  10.292   6.342 -3.6610  0.5346  0.8546
  696MOL0     H93904  11.328  10.385   6.186  1.4845 -0.2656 -0.0129
  696MOL0     H93905  11.505  10.513   6.223  0.8140 -0.2049 -0.4156
  696MOL0     H93906  11.547  10.446   6.385  4.7953 -2.0751 -0.5009
  696MOL0     H93907  11.678  10.339   6.172 -0.8859  1.8298  0.9336
  696MOL0     H93908  11.525  10.255   6.141 -1.3756  1.6245 -0.3101
  696MOL0     H93909  11.686  10.257   6.411 -1.7305 -0.5081  2.3979
  696MOL0     H93910  11.542  10.168   6.363  0.5432  1.6464  1.4496
  696MOL0     H93911  11.650  10.037   6.073  1.3462  0.2414 -0.4348
  696MOL0     H93912  11.881   9.952   5.970 -0.8358  1.7609  1.9116
  696MOL0     H93913  11.978   9.834   6.063 -0.2456 -0.9062  0.7939
  696MOL0     H93914  11.807   9.698   6.103 -2.4896  0.6207  1.4082
  696MOL0     H93915  11.675   9.771   6.010 -1.0094  0.0837  1.0737
  696MOL0     H93916  11.864   9.750   5.806  1.6066  0.4263  1.1353
  696MOL0     H93917  11.754   9.609   5.847  0.8344 -0.8696  0.5320
  696MOL0     H93918  11.982   9.550   5.794 -1.9509  1.9443 -1.8997
  696MOL0     H93919  11.945   9.516   5.967  3.5030  0.3924  0.6024
  696MOL0     H93920  12.274   9.803   6.004 -2.0787  0.1803 -1.8956
  696MOL0     H93921  12.504   9.711   6.027  0.4182 -0.5503  4.4007
  696MOL0     H93922  12.820   9.370   5.833 -0.7283 -1.4972 -0.5010
  696MOL0     H93923  13.045   9.273   5.872 -1.2562 -0.4577 -1.4455
  696MOL0     H93924  13.128   9.122   6.266  1.0062  3.0027 -2.4255
  696MOL0     H93925  13.121   8.961   6.174  1.8124 -0.8880  1.2383
  696MOL0     H93926  13.358   9.150   6.150 -2.9793  0.7994  0.9300
  696MOL0     H93927  13.350   9.014   6.263 -0.1296  2.3301  1.0949
  696MOL0     H93928  13.467   8.925   6.060 -0.3338 -0.1575 -4.3562
  696MOL0     H93929  13.318   8.852   6.119  2.9172 -0.6932  0.2233
  696MOL0     H93930  13.204   8.965   5.938 -0.4468 -0.7716 -1.9006
  696MOL0     H93931  13.322   8.847   5.879  2.6476  1.0171 -1.4774
  696MOL0     H93932  13.365   9.139   5.890 -1.0572  0.1582 -0.5323
  696MOL0     H93933  13.334   9.036   5.747 -3.1668  0.4090  0.4747
  696MOL0     H93934  13.577   9.038   5.939  0.6121  1.8093 -0.9057
  696MOL0     H93935  13.554   8.907   5.822 -2.0600 -0.8310  0.7402
  696MOL0     H93936  13.560   9.218   5.788  2.7788  0.5744 -1.1142
  696MOL0     H93937  13.535   9.115   5.646 -0.0688  1.0695 -0.3091
  696MOL0     H93938  13.769   9.190   5.653  2.2867 -1.5271 -0.9556
  696MOL0     H93939  13.794   9.135   5.809  0.2454 -3.0942  0.4700
  696MOL0     H93940  12.903   9.115   6.250  0.9021 -0.9598 -1.0370
  696MOL0     H93941  12.673   9.212   6.199 -1.9263  0.7048 -3.4264
  696MOL0     H93942  12.357   9.318   5.960  2.0962  0.1120  0.8460
  696MOL0     H93943  12.144   9.401   5.902  0.2644 -1.3605  1.0660
  696MOL0     H93944  10.742  10.579   6.052 -1.0383  0.3216  0.1750
  696MOL0     H93945  10.524  10.486   5.975 -1.1954 -2.3887  0.2536
  696MOL0     H93946  10.247  10.100   5.834 -0.5096  0.0458 -0.3937
  696MOL0     H93947  10.035  10.020   5.775  1.3160 -0.0897 -0.2359
  696MOL0     H93948   9.644  10.176   5.941  0.2574 -0.7308 -1.5975
  696MOL0     H93949   9.717  10.060   6.056 -2.2926 -0.4368 -0.4419
  696MOL0     H93950   9.572  10.008   5.803  0.3149 -1.2879  0.1601
  696MOL0     H93951   9.500   9.990   5.960  0.0218  1.8107 -1.2167
  696MOL0     H93952   9.703   9.827   5.826 -3.1327 -1.1304 -3.3114
  696MOL0     H93953   9.545   9.770   5.870  1.6198 -2.5054  0.8887
  696MOL0     H93954   9.774   9.828   6.047  1.1232 -1.7574 -0.2924
  696MOL0     H93955   9.608   9.810   6.110 -0.2324  2.2909  0.3854
  696MOL0     H93956   9.692   9.410   6.018  1.2991 -0.5584  2.1483
  696MOL0     H93957   9.843  10.280   6.045 -0.6430 -0.4936 -0.0333
  696MOL0     H93958  10.123  10.420   6.204  1.3564 -0.2153 -0.7752
  696MOL0     H93959  10.108  10.519   6.059  0.7510 -1.2948 -2.9149
  696MOL0     H93960   9.959  10.468   6.134 -0.9599 -1.0444 -0.0331
  697MOL0     O93961   3.633   0.619   9.752 -0.2817 -1.0649  0.4242
  697MOL0     C93962   3.566   0.700   9.685  0.4486  0.4242  0.3162
  697MOL0     O93963   3.621   0.767   9.581  0.7458 -0.3260 -0.0602
  697MOL0     C93964   3.752   0.795   9.577  0.9113  0.7477 -1.3589
  697MOL0     C93965   3.804   0.915   9.639 -0.3084  0.5439 -0.0430
  697MOL0     C93966   3.940   0.934   9.644 -0.0980 -0.5320 -0.2341
  697MOL0     C93967   4.035   0.834   9.605  0.9602  0.0466  0.6957
  697MOL0     O93968   4.165   0.861   9.627 -0.0289 -0.7837  0.0690
  697MOL0     C93969   4.267   0.776   9.579  0.5951  0.2377  0.0792
  697MOL0     C93970   4.393   0.838   9.629 -0.1264  0.5637 -0.3728
  697MOL0     C93971   4.512   0.741   9.634 -0.2236 -0.2097 -0.6202
  697MOL0     C93972   4.621   0.809   9.720  0.3248  0.7175  0.2461
  697MOL0     C93973   4.750   0.757   9.678  0.2321  0.0182 -0.1156
  697MOL0     C93974   4.849   0.794   9.790 -0.8145 -0.6888  0.9331
  697MOL0     C93975   4.846   0.701   9.917  0.1884  0.4219  0.2994
  697MOL0     C93976   4.945   0.748  10.030  0.0354 -0.1380 -0.2183
  697MOL0     N93977   4.965   0.639  10.130 -0.8287  0.3876 -0.0961
  697MOL0     C93978   4.893   0.643  10.247  0.0889 -0.2324 -0.5852
  697MOL0     C93979   4.897   0.515  10.307  0.0984  0.7444  0.6510
  697MOL0     C93980   4.847   0.460  10.444 -0.5206  0.0024 -0.4867
  697MOL0     C93981   4.757   0.564  10.515 -0.1589  1.3530  0.6512
  697MOL0     C93982   4.836   0.683  10.587 -0.5501  0.0284 -0.1601
  697MOL0     C93983   4.876   0.634  10.726  1.0388 -0.2052 -0.2588
  697MOL0     O93984   4.967   0.735  10.794  0.5606  0.4907  0.1917
  697MOL0     C93985   5.099   0.713  10.813 -0.5310 -0.8161 -0.7237
  697MOL0     C93986   5.178   0.803  10.900 -0.0759  0.1139 -0.4868
  697MOL0     C93987   5.309   0.786  10.925 -1.4221 -0.3911  1.0109
  697MOL0     C93988   5.382   0.689  10.847 -0.0768 -0.1669  0.3712
  697MOL0     C93989   5.523   0.665  10.862 -0.5623 -0.0357 -0.1617
  697MOL0     O93990   5.580   0.560  10.793  0.1342 -0.2951  0.7851
  697MOL0     C93991   5.720   0.541  10.807  0.3243 -0.0970  0.2802
  697MOL0     C93992   5.822   0.630  10.771  0.6987 -0.0994 -0.0429
  697MOL0     C93993   5.956   0.600  10.794  0.2378  0.5396  0.4317
  697MOL0     C93994   5.999   0.480  10.849 -0.0320  0.2123  0.2930
  697MOL0     O93995   6.125   0.468  10.885 -0.2450  0.5280 -0.1694
  697MOL0     C93996   6.181   0.337  10.877 -0.3341  0.2739  0.6559
  697MOL0     C93997   6.325   0.330  10.917 -0.8215 -0.4359 -0.1411
  697MOL0     C93998   6.404   0.196  10.889 -0.1366 -0.9761 -0.5706
  697MOL0     C93999   6.546   0.215  10.936 -1.1292  0.3409 -1.2610
  697MOL0     C94000   6.637   0.090  10.918 -0.1464  0.5769 -1.1543
  697MOL0     C94001   6.785   0.126  10.958 -0.5592  0.2247 -0.2995
  697MOL0     C94002   6.880   0.012  10.914  0.1009  0.2589 -0.6358
  697MOL0     C94003   7.022   0.062  10.912  0.3921 -0.9094  0.7034
  697MOL0    Cl94004   7.126  -0.080  10.901  0.1031  0.1284  0.1142
  697MOL0     C94005   5.900   0.385  10.868  0.0123 -0.3046 -0.4421
  697MOL0     C94006   5.763   0.416  10.860  0.5522  1.1491 -0.1961
  697MOL0     O94007   5.575   0.721  10.957  0.4927  0.0116 -0.0898
  697MOL0     C94008   5.308   0.615  10.753 -0.0573  0.8082 -0.3253
  697MOL0     C94009   5.173   0.625  10.734  0.4869 -0.4664  0.2595
  697MOL0     N94010   4.983   0.442  10.226 -0.0058  0.3047 -0.1994
  697MOL0     N94011   5.017   0.516  10.123 -0.4533  0.3520 -0.6332
  697MOL0     C94012   3.981   0.718   9.551  0.3422 -0.1567 -0.1267
  697MOL0     C94013   3.839   0.696   9.536  0.1341 -0.2960  0.4667
  697MOL0     C94014   3.425   0.725   9.721  0.3819  0.6433  0.2478
  697MOL0     C94015   3.386   0.859   9.726  0.5171  0.1737  0.3650
  697MOL0     C94016   3.253   0.890   9.751  0.6990  0.3743  0.2307
  697MOL0     C94017   3.157   0.797   9.773  0.0066 -0.2753  0.8306
  697MOL0     O94018   3.035   0.854   9.796  0.3423  0.2480 -0.3113
  697MOL0     C94019   2.920   0.769   9.814  0.5010 -0.2435  0.0978
  697MOL0     C94020   2.883   0.699   9.686  0.5306 -0.2813 -0.3570
  697MOL0     C94021   2.842   0.795   9.575 -1.4412  0.2351  0.4329
  697MOL0     C94022   2.726   0.891   9.607  0.0818  0.2368  0.3631
  697MOL0     C94023   2.605   0.816   9.634 -0.7161  0.4004  0.2135
  697MOL0     C94024   2.501   0.759   9.658  0.6949 -0.0627  0.0715
  697MOL0     C94025   3.200   0.662   9.775 -0.1531 -0.2557 -0.1148
  697MOL0     C94026   3.334   0.621   9.747  0.1520  0.9558 -0.5892
  697MOL0     C94027   3.368   0.470   9.758 -0.4682  0.6625 -0.1638
  697MOL0     H94028   3.734   0.990   9.674 -0.9935 -0.0275 -0.1571
  697MOL0     H94029   3.983   1.024   9.685 -0.4778  0.2883 -1.5859
  697MOL0     H94030   4.254   0.674   9.616  1.6874 -0.1848 -0.6717
  697MOL0     H94031   4.270   0.764   9.470 -3.0585  0.2821 -0.1498
  697MOL0     H94032   4.382   0.877   9.731  1.1355  0.6384 -0.2414
  697MOL0     H94033   4.426   0.925   9.572  4.6439 -0.4034  0.4656
  697MOL0     H94034   4.533   0.734   9.526 -5.1329  2.1981 -2.0269
  697MOL0     H94035   4.493   0.644   9.680  1.9367  0.4763  1.9734
  697MOL0     H94036   4.626   0.918   9.705  0.3566  0.3411 -3.3105
  697MOL0     H94037   4.603   0.785   9.825 -0.3539 -0.9117 -0.2190
  697MOL0     H94038   4.748   0.648   9.666 -0.2650 -0.5715  3.9080
  697MOL0     H94039   4.779   0.808   9.585 -2.5897 -1.3168 -1.8654
  697MOL0     H94040   4.950   0.781   9.750 -0.8719 -1.2174  0.9473
  697MOL0     H94041   4.837   0.894   9.833  1.5668 -0.0673  0.2935
  697MOL0     H94042   4.876   0.602   9.884 -0.7570  0.0542  0.5096
  697MOL0     H94043   4.751   0.690   9.971 -0.3787 -1.1331 -0.9606
  697MOL0     H94044   5.039   0.776   9.982  0.1665  0.1955  0.2229
  697MOL0     H94045   4.904   0.837  10.077  0.4088 -0.9473  1.7348
  697MOL0     H94046   4.846   0.729  10.293  1.3173 -0.5257  1.3378
  697MOL0     H94047   4.793   0.368  10.421 -3.0187  0.9749  1.1145
  697MOL0     H94048   4.933   0.436  10.507  1.0484 -0.7392 -2.7723
  697MOL0     H94049   4.692   0.608  10.440 -0.4655  1.1860  0.8198
  697MOL0     H94050   4.694   0.510  10.586 -1.3686 -0.4860 -1.7036
  697MOL0     H94051   4.762   0.764  10.593  2.2239  2.8489 -1.4758
  697MOL0     H94052   4.932   0.716  10.546  0.5620  0.1766  2.3718
  697MOL0     H94053   4.922   0.535  10.725 -0.5366 -0.9713 -1.6698
  697MOL0     H94054   4.784   0.626  10.784  1.0427  0.4661 -0.1510
  697MOL0     H94055   5.118   0.873  10.956  0.1944  0.1246 -0.2107
  697MOL0     H94056   5.366   0.854  10.989 -0.8844  1.2404 -1.0786
  697MOL0     H94057   5.799   0.725  10.723  2.5487 -1.3885 -3.8209
  697MOL0     H94058   6.025   0.676  10.759  0.8146 -0.2187 -0.1274
  697MOL0     H94059   6.130   0.267  10.944 -2.9733  3.0631  1.7943
  697MOL0     H94060   6.168   0.309  10.772 -1.7713  1.3409  0.5222
  697MOL0     H94061   6.377   0.416  10.872 -3.0930  1.3427  0.4315
  697MOL0     H94062   6.341   0.338  11.025  0.3490 -2.8203 -0.0810
  697MOL0     H94063   6.356   0.117  10.946 -0.6161 -0.2370  0.0766
  697MOL0     H94064   6.408   0.174  10.782  1.3257 -2.4570 -0.2499
  697MOL0     H94065   6.555   0.251  11.039  3.9605 -0.6317 -1.1172
  697MOL0     H94066   6.597   0.285  10.869 -1.6613  1.6846 -0.3007
  697MOL0     H94067   6.637   0.061  10.813  1.2409 -0.2456 -0.9549
  697MOL0     H94068   6.601   0.006  10.979 -0.1074  2.1002  1.1146
  697MOL0     H94069   6.805   0.213  10.895 -1.4839  1.0671  0.5244
  697MOL0     H94070   6.799   0.157  11.062 -0.8771  1.9168 -0.7311
  697MOL0     H94071   6.847  -0.020  10.815 -0.5150  0.8297 -0.6260
  697MOL0     H94072   6.880  -0.071  10.985 -0.8034 -0.5164 -1.5231
  697MOL0     H94073   7.023   0.127  10.825 -0.2874 -0.2433  1.1777
  697MOL0     H94074   7.048   0.128  10.995  1.5255  2.0170 -1.8085
  697MOL0     H94075   5.920   0.291  10.920  2.1815  0.5352  0.3270
  697MOL0     H94076   5.691   0.339  10.885  1.1054  0.4584 -0.6696
  697MOL0     H94077   5.365   0.539  10.700  2.0988  0.7942  1.7953
  697MOL0     H94078   5.131   0.573  10.649  0.9881  1.1424 -1.0152
  697MOL0     H94079   4.040   0.630   9.527 -1.1450 -0.5374 -2.7447
  697MOL0     H94080   3.793   0.603   9.505 -2.3469  0.8193  0.6076
  697MOL0     H94081   3.457   0.936   9.698  1.6200 -0.7137  0.6732
  697MOL0     H94082   3.217   0.992   9.751 -1.6054 -0.2264 -4.0806
  697MOL0     H94083   2.834   0.827   9.848  1.5312  2.3218 -1.4126
  697MOL0     H94084   2.945   0.691   9.886 -3.2462  0.7962  2.8698
  697MOL0     H94085   2.802   0.628   9.700  0.0699  0.3203  0.0648
  697MOL0     H94086   2.961   0.630   9.653 -1.1551 -2.0328 -0.8059
  697MOL0     H94087   2.824   0.749   9.478  0.4407  0.2451  0.0312
  697MOL0     H94088   2.934   0.853   9.560 -1.3613  0.3696  1.3585
  697MOL0     H94089   2.758   0.947   9.695  1.1278  0.7660 -0.3377
  697MOL0     H94090   2.714   0.953   9.518  0.1733  0.2558  0.3637
  697MOL0     H94091   2.416   0.712   9.704  0.9254 -1.4166 -0.8532
  697MOL0     H94092   3.126   0.587   9.801 -1.2432 -0.0971 -2.4566
  697MOL0     H94093   3.462   0.452   9.703  0.5573 -1.4968  2.1211
  697MOL0     H94094   3.390   0.435   9.859  1.0500  0.2769 -0.5857
  697MOL0     H94095   3.294   0.403   9.713  0.1517  0.1714 -0.4812
  698MOL0     O94096   0.527   1.394   3.544 -0.3600  0.1401 -0.6741
  698MOL0     C94097   0.460   1.285   3.533  0.4644  0.3441  0.1330
  698MOL0     O94098   0.489   1.164   3.590 -0.3494 -0.3545 -0.3016
  698MOL0     C94099   0.604   1.167   3.669  0.2656 -0.4451 -0.2120
  698MOL0     C94100   0.728   1.139   3.607 -0.5654 -0.3855 -0.4812
  698MOL0     C94101   0.849   1.159   3.674  1.3640 -0.3960  1.0192
  698MOL0     C94102   0.845   1.191   3.808 -0.2352 -0.3034  0.2737
  698MOL0     O94103   0.961   1.207   3.871  0.6120 -0.2882  0.0437
  698MOL0     C94104   0.977   1.331   3.939 -0.3308 -0.6724  0.3744
  698MOL0     C94105   1.125   1.372   3.942 -0.4270  0.4728 -0.0393
  698MOL0     C94106   1.197   1.250   4.014 -0.6161  0.3097 -0.2469
  698MOL0     C94107   1.353   1.274   4.026 -0.5895 -0.7396  0.0160
  698MOL0     C94108   1.424   1.196   4.135 -0.1284 -0.1374  0.2006
  698MOL0     C94109   1.560   1.251   4.174 -0.0073  0.0659  1.1362
  698MOL0     C94110   1.676   1.237   4.070  0.0986  0.5929  0.1493
  698MOL0     C94111   1.706   1.091   4.016 -0.5296 -0.3185 -1.1885
  698MOL0     N94112   1.856   1.093   3.995 -0.5402  0.2733  0.3294
  698MOL0     C94113   1.928   1.089   3.872  0.8877 -0.2634 -0.4340
  698MOL0     C94114   2.055   1.130   3.901 -0.0590 -0.1489 -0.1558
  698MOL0     C94115   2.169   1.147   3.800  0.4113  0.2171 -0.0062
  698MOL0     C94116   2.211   1.285   3.770 -0.4481 -0.0027  0.2190
  698MOL0     C94117   2.350   1.279   3.695  0.0343  0.8635 -1.0648
  698MOL0     C94118   2.469   1.285   3.794 -0.8109  0.6695  0.3024
  698MOL0     O94119   2.592   1.275   3.717  0.2200 -0.2005  0.2116
  698MOL0     C94120   2.708   1.334   3.757 -0.5029  0.2130  0.4640
  698MOL0     C94121   2.721   1.420   3.862 -0.4176 -0.2131 -0.5812
  698MOL0     C94122   2.849   1.482   3.888  0.3532  0.0090 -0.3088
  698MOL0     C94123   2.963   1.459   3.807  0.5276 -0.6297  0.2232
  698MOL0     C94124   3.093   1.521   3.841  0.2860  0.6900  0.4699
  698MOL0     O94125   3.192   1.488   3.754  0.6128  0.9355 -0.7038
  698MOL0     C94126   3.315   1.543   3.780 -0.2034 -0.0871  0.0157
  698MOL0     C94127   3.365   1.639   3.698  0.3221  0.5863  0.4182
  698MOL0     C94128   3.495   1.697   3.718  0.6435 -0.4435 -0.1675
  698MOL0     C94129   3.577   1.646   3.821 -0.6460 -0.7240 -0.7447
  698MOL0     O94130   3.695   1.721   3.840  0.4861  0.2990 -0.2168
  698MOL0     C94131   3.793   1.646   3.917  0.4508  0.6929 -0.0307
  698MOL0     C94132   3.941   1.700   3.886 -0.6674  0.4182 -0.2448
  698MOL0     C94133   4.045   1.599   3.931 -0.0196 -0.7459 -0.0835
  698MOL0     C94134   4.186   1.654   3.943 -0.3173  0.5972 -0.1960
  698MOL0     C94135   4.295   1.537   3.963 -0.0985  0.0508  0.0337
  698MOL0     C94136   4.432   1.591   3.988  0.4773 -0.0454 -0.4494
  698MOL0     C94137   4.532   1.479   3.961 -0.1813  0.3915 -0.2664
  698MOL0     C94138   4.659   1.525   4.015 -0.4963  0.8367 -1.1008
  698MOL0    Cl94139   4.794   1.401   4.000 -0.2183 -0.2401  0.1337
  698MOL0     C94140   3.524   1.540   3.899  0.9254 -0.5195  0.0593
  698MOL0     C94141   3.390   1.496   3.881 -0.4779  0.0540  0.1125
  698MOL0     O94142   3.097   1.616   3.917 -0.3494 -0.3453  0.1269
  698MOL0     C94143   2.946   1.370   3.694 -0.3474  0.4213  0.3930
  698MOL0     C94144   2.824   1.315   3.671 -0.4383  0.5623 -0.2086
  698MOL0     N94145   2.062   1.154   4.037  0.0403  0.4875 -0.0361
  698MOL0     N94146   1.947   1.132   4.090 -0.3881  0.3653  0.7404
  698MOL0     C94147   0.722   1.215   3.876  0.8417  0.3710 -0.7567
  698MOL0     C94148   0.606   1.208   3.801  0.5083  0.3191 -0.1543
  698MOL0     C94149   0.327   1.282   3.461  0.8523 -0.0379  0.3008
  698MOL0     C94150   0.230   1.186   3.497 -0.5452 -0.2767 -0.1050
  698MOL0     C94151   0.102   1.178   3.430  0.0794  1.0564  0.7947
  698MOL0     C94152   0.074   1.264   3.333 -0.7403 -0.3156  0.4758
  698MOL0     O94153  -0.058   1.272   3.286 -0.3933  0.5025  0.0620
  698MOL0     C94154  -0.110   1.397   3.267  0.3442  0.1673  0.2837
  698MOL0     C94155  -0.262   1.396   3.299 -0.4350  0.5379 -0.4596
  698MOL0     C94156  -0.340   1.317   3.189  0.1969 -0.2793  0.0551
  698MOL0     C94157  -0.492   1.278   3.227 -0.2478 -0.0998 -1.4882
  698MOL0     C94158  -0.576   1.253   3.108  0.4001 -0.4615  0.0220
  698MOL0     C94159  -0.647   1.254   3.015 -0.5580  0.5984  0.8768
  698MOL0     C94160   0.166   1.366   3.296 -0.5022  0.6753 -0.7467
  698MOL0     C94161   0.294   1.381   3.360 -0.4346  0.1993  0.4456
  698MOL0     C94162   0.391   1.482   3.307  0.0487  0.2360  0.0437
  698MOL0     H94163   0.737   1.110   3.503  1.1797 -1.0489 -0.1694
  698MOL0     H94164   0.940   1.144   3.618 -0.6659  2.5779 -3.7109
  698MOL0     H94165   0.921   1.413   3.894 -0.2929  0.5529  2.4699
  698MOL0     H94166   0.948   1.319   4.044 -3.5665 -0.3225 -0.3735
  698MOL0     H94167   1.150   1.461   4.001  0.0707 -0.5359  1.3298
  698MOL0     H94168   1.163   1.376   3.840  1.5546  2.0848  0.6814
  698MOL0     H94169   1.176   1.152   3.970  0.5687 -1.5617  3.0464
  698MOL0     H94170   1.160   1.248   4.117 -1.9558 -2.0995 -0.7008
  698MOL0     H94171   1.406   1.244   3.935  0.1285  1.9259 -0.5504
  698MOL0     H94172   1.377   1.381   4.032 -1.6296 -0.4390 -0.8102
  698MOL0     H94173   1.360   1.196   4.224  1.2090 -0.6039  1.2174
  698MOL0     H94174   1.415   1.091   4.107 -4.3087  0.0309  0.3415
  698MOL0     H94175   1.553   1.357   4.201 -2.3039  0.4257 -0.5137
  698MOL0     H94176   1.601   1.194   4.257 -0.0928 -0.8276  0.5755
  698MOL0     H94177   1.771   1.276   4.108  1.3926 -0.5758 -1.7062
  698MOL0     H94178   1.658   1.304   3.985  1.5748 -0.3685 -0.9624
  698MOL0     H94179   1.671   1.013   4.084  0.8639 -0.6995 -0.8692
  698MOL0     H94180   1.651   1.069   3.925 -0.2972  1.0269 -1.6795
  698MOL0     H94181   1.891   1.053   3.777  1.0048  3.5980 -2.1303
  698MOL0     H94182   2.250   1.081   3.833 -0.6140 -2.0526 -1.7501
  698MOL0     H94183   2.127   1.102   3.709  0.0852  0.1861  0.1608
  698MOL0     H94184   2.143   1.350   3.714 -0.8138  2.1968  2.9953
  698MOL0     H94185   2.233   1.337   3.864 -2.0368 -0.6867  1.0064
  698MOL0     H94186   2.360   1.368   3.632  3.1998  1.4486  0.0643
  698MOL0     H94187   2.367   1.187   3.639 -2.3720  0.5201 -1.3471
  698MOL0     H94188   2.471   1.205   3.869 -0.7619  0.6296  0.2581
  698MOL0     H94189   2.466   1.377   3.854  3.1933  1.0597  0.2177
  698MOL0     H94190   2.640   1.453   3.926  0.7525 -1.5700  1.7216
  698MOL0     H94191   2.860   1.550   3.972 -3.1272  2.4593 -1.6146
  698MOL0     H94192   3.294   1.676   3.625  1.5035  0.5473 -0.7936
  698MOL0     H94193   3.528   1.781   3.658 -1.9717 -0.0350 -1.1443
  698MOL0     H94194   3.770   1.653   4.024 -2.0972  2.3948 -0.5967
  698MOL0     H94195   3.784   1.541   3.887 -0.2224  0.8184 -0.2910
  698MOL0     H94196   3.949   1.717   3.779 -0.7078 -2.0602 -0.7123
  698MOL0     H94197   3.961   1.800   3.926 -1.3807  0.6958 -0.5575
  698MOL0     H94198   4.014   1.534   4.013  1.1475  0.2488  1.1816
  698MOL0     H94199   4.050   1.530   3.846  0.3050  2.0974 -2.5365
  698MOL0     H94200   4.179   1.725   4.026  0.4916  0.7842 -0.2818
  698MOL0     H94201   4.207   1.722   3.860 -1.3253  1.5231  0.2816
  698MOL0     H94202   4.288   1.475   3.872 -0.1650 -0.7874  0.5972
  698MOL0     H94203   4.265   1.469   4.043  0.9175 -0.8993 -0.3501
  698MOL0     H94204   4.459   1.681   3.933  3.0395  0.8936  2.0810
  698MOL0     H94205   4.447   1.611   4.095  2.6275  1.7150 -1.0112
  698MOL0     H94206   4.534   1.449   3.855 -0.5888 -3.2572  0.6264
  698MOL0     H94207   4.494   1.391   4.014 -0.8860  0.5910 -0.4329
  698MOL0     H94208   4.688   1.620   3.968 -1.4902  1.2182 -0.9705
  698MOL0     H94209   4.642   1.535   4.123 -0.6613  0.7321 -1.1165
  698MOL0     H94210   3.577   1.492   3.981 -2.0092  0.8783  3.0441
  698MOL0     H94211   3.351   1.409   3.932  0.1470 -0.4833 -0.3006
  698MOL0     H94212   3.026   1.347   3.624  0.1826  2.5672  0.2142
  698MOL0     H94213   2.808   1.255   3.582 -0.1609  0.6249 -0.3018
  698MOL0     H94214   0.709   1.261   3.973 -0.5143  1.3281 -1.3517
  698MOL0     H94215   0.507   1.221   3.843 -0.4464 -1.0633 -1.8503
  698MOL0     H94216   0.234   1.114   3.578  0.2746 -1.8864 -1.4985
  698MOL0     H94217   0.026   1.105   3.457 -1.0863  1.1684 -1.8730
  698MOL0     H94218  -0.097   1.444   3.169  1.6110  2.3577  1.4166
  698MOL0     H94219  -0.072   1.463   3.346  0.4449  0.6714 -0.1837
  698MOL0     H94220  -0.299   1.498   3.314 -1.3999 -0.0754  1.8168
  698MOL0     H94221  -0.275   1.336   3.390  1.4763 -1.9714 -1.6935
  698MOL0     H94222  -0.281   1.229   3.162  1.8956  0.8392  0.0073
  698MOL0     H94223  -0.331   1.381   3.101 -1.1183 -1.2932 -0.8645
  698MOL0     H94224  -0.487   1.184   3.283 -2.7672  1.1598  1.1039
  698MOL0     H94225  -0.541   1.347   3.296 -1.5349 -2.5226  0.1637
  698MOL0     H94226  -0.723   1.256   2.939 -0.3692 -1.6905  0.5430
  698MOL0     H94227   0.154   1.425   3.205 -1.9136  2.2775  0.4361
  698MOL0     H94228   0.349   1.542   3.225 -1.7406 -1.3589 -0.2839
  698MOL0     H94229   0.432   1.545   3.386  1.2433  1.5382 -1.5375
  698MOL0     H94230   0.477   1.431   3.261  0.6611 -0.3318  1.7556
  699MOL0     O94231   2.702   2.735   9.939  0.1411  0.0969  0.1900
  699MOL0     C94232   2.677   2.637   9.873 -0.4019 -1.2993  0.4994
  699MOL0     O94233   2.563   2.609   9.808  0.2990  0.5033 -0.4834
  699MOL0     C94234   2.456   2.680   9.852  0.7168  0.0569  0.4695
  699MOL0     C94235   2.391   2.760   9.766 -0.1466 -0.3629  0.4267
  699MOL0     C94236   2.263   2.819   9.796  0.1970 -0.0971 -0.1752
  699MOL0     C94237   2.215   2.814   9.928  0.4665 -0.1190 -0.1729
  699MOL0     O94238   2.106   2.891   9.975 -0.1410  0.6719  0.5903
  699MOL0     C94239   2.045   2.970   9.876 -0.0588 -0.0477  1.0039
  699MOL0     C94240   1.929   3.048   9.944  0.1986 -0.0799  0.2922
  699MOL0     C94241   1.976   3.166  10.023 -0.1514  0.0902 -0.6765
  699MOL0     C94242   1.857   3.245  10.078 -0.1477  0.3995  0.0685
  699MOL0     C94243   1.804   3.168  10.203  0.2155 -0.9245 -0.0685
  699MOL0     C94244   1.728   3.264  10.294  0.5226 -0.6495 -0.2308
  699MOL0     C94245   1.647   3.203  10.403  0.0850  1.0372 -0.8495
  699MOL0     C94246   1.554   3.314  10.448 -0.5873  0.5886 -0.3625
  699MOL0     N94247   1.468   3.267  10.557 -0.0933  0.2409 -0.0109
  699MOL0     C94248   1.354   3.194  10.533 -0.1339 -0.1355 -0.3408
  699MOL0     C94249   1.299   3.190  10.656 -0.5561  0.7376  0.1843
  699MOL0     C94250   1.179   3.101  10.692  0.4526 -0.3060  0.1444
  699MOL0     C94251   1.199   3.038  10.830 -0.5668 -0.0050  0.0331
  699MOL0     C94252   1.142   3.117  10.946 -0.3453 -0.1230  0.0676
  699MOL0     C94253   0.999   3.125  10.947 -0.0271  0.1161  0.0679
  699MOL0     O94254   0.942   2.992  10.965  0.1345  0.2383  0.5184
  699MOL0     C94255   0.799   2.969  10.965  1.0637  0.1598 -0.8248
  699MOL0     C94256   0.758   2.833  10.971 -0.5470 -1.0969 -0.4313
  699MOL0     C94257   0.628   2.791  10.960  0.7053 -0.1007 -0.4000
  699MOL0     C94258   0.525   2.883  10.954 -0.4665  0.1318  0.0237
  699MOL0     C94259   0.388   2.842  10.942  0.2344 -0.8820 -0.0583
  699MOL0     O94260   0.295   2.933  10.900 -0.1869  0.3830  0.1010
  699MOL0     C94261   0.164   2.897  10.881 -0.3118 -0.5010  0.1835
  699MOL0     C94262   0.095   2.917  10.761 -0.3126  0.2747  0.3202
  699MOL0     C94263  -0.032   2.877  10.738 -0.3118  0.6267  0.7613
  699MOL0     C94264  -0.101   2.792  10.830 -0.2509  0.2661  0.6459
  699MOL0     O94265  -0.219   2.716  10.808 -0.2469 -0.1826  0.3338
  699MOL0     C94266  -0.245   2.694  10.665 -0.5184  0.2384 -0.2105
  699MOL0     C94267  -0.379   2.621  10.638 -0.0612  0.2855 -0.4372
  699MOL0     C94268  -0.500   2.664  10.722  0.3535 -0.2939 -0.9405
  699MOL0     C94269  -0.553   2.805  10.691  0.3782 -0.5663 -0.8354
  699MOL0     C94270  -0.691   2.824  10.753 -0.2196  0.5426  0.5569
  699MOL0     C94271  -0.754   2.956  10.710  0.1568 -0.3457  0.2228
  699MOL0     C94272  -0.888   2.950  10.775  0.3530 -0.1101 -0.7368
  699MOL0     C94273  -0.941   3.096  10.785  0.1110 -0.1693 -0.0733
  699MOL0    Cl94274  -0.995   3.158  10.622 -0.1481 -0.1962  0.0109
  699MOL0     C94275  -0.031   2.767  10.946  0.3755  0.2597 -1.6920
  699MOL0     C94276   0.087   2.827  10.986 -0.5715  0.2739  0.3061
  699MOL0     O94277   0.367   2.723  10.961 -0.0329 -0.6693  0.0883
  699MOL0     C94278   0.562   3.024  10.961 -0.4425  0.5060 -0.8599
  699MOL0     C94279   0.702   3.066  10.969  0.5027  0.2020  0.2877
  699MOL0     N94280   1.383   3.248  10.742 -0.0933 -0.9692  0.5553
  699MOL0     N94281   1.477   3.307  10.680 -0.1843 -0.8798 -0.7013
  699MOL0     C94282   2.285   2.733  10.026 -0.7737 -0.7421 -0.7910
  699MOL0     C94283   2.401   2.665   9.987 -0.0562 -0.3779  0.4942
  699MOL0     C94284   2.787   2.538   9.865  0.5201 -0.2619 -0.2316
  699MOL0     C94285   2.734   2.405   9.853  0.3165 -0.0173 -0.8012
  699MOL0     C94286   2.815   2.303   9.840 -0.0055  0.0295  0.2937
  699MOL0     C94287   2.958   2.318   9.850 -1.6973 -1.2727  0.2985
  699MOL0     O94288   3.034   2.205   9.844  0.2745  0.1304 -0.0511
  699MOL0     C94289   3.174   2.215   9.867 -0.3623 -0.5401 -0.1484
  699MOL0     C94290   3.238   2.088   9.815 -0.4022  0.4825  0.7503
  699MOL0     C94291   3.210   2.070   9.660 -0.0063 -0.0516  0.2643
  699MOL0     C94292   3.303   1.968   9.600 -0.4263  0.0989  0.4272
  699MOL0     C94293   3.289   1.979   9.449 -0.4558 -0.2506 -0.5330
  699MOL0     C94294   3.277   1.993   9.335  0.5501  0.4139  0.8986
  699MOL0     C94295   3.009   2.452   9.868  0.1225 -0.3371  0.6907
  699MOL0     C94296   2.927   2.562   9.882 -0.5772 -0.0490  0.1647
  699MOL0     C94297   2.988   2.701   9.890  0.1308 -0.3295 -0.3609
  699MOL0     H94298   2.439   2.765   9.669 -1.8313 -0.8730 -0.4660
  699MOL0     H94299   2.222   2.887   9.722  2.8130  2.0655  0.1813
  699MOL0     H94300   2.112   3.041   9.826  1.2377 -0.9333  1.4168
  699MOL0     H94301   2.005   2.899   9.804 -0.7683  1.4521 -0.1319
  699MOL0     H94302   1.887   2.976  10.015 -2.5645  2.3429  1.3036
  699MOL0     H94303   1.853   3.094   9.881  2.1307  3.7867  0.4719
  699MOL0     H94304   2.031   3.227   9.951 -0.8777 -0.7751 -2.0310
  699MOL0     H94305   2.043   3.149  10.108 -3.0256  1.0229  1.9428
  699MOL0     H94306   1.900   3.335  10.122  3.6751 -2.2866  2.3128
  699MOL0     H94307   1.774   3.261  10.008 -0.5023 -0.1297  0.3582
  699MOL0     H94308   1.744   3.084  10.166 -1.6621  0.9571 -1.5414
  699MOL0     H94309   1.884   3.117  10.257 -0.7201 -0.7437  1.5476
  699MOL0     H94310   1.799   3.333  10.340 -1.6837  2.4837 -1.1544
  699MOL0     H94311   1.662   3.320  10.227 -0.9382 -0.2708  1.4430
  699MOL0     H94312   1.712   3.167  10.484  0.5068 -1.2924 -2.1256
  699MOL0     H94313   1.592   3.113  10.372  1.8159 -1.0666  1.6931
  699MOL0     H94314   1.602   3.406  10.482  2.3965 -0.0672 -2.3642
  699MOL0     H94315   1.491   3.342  10.363 -0.2199 -0.0642 -0.8674
  699MOL0     H94316   1.311   3.151  10.443  0.0988 -0.3605 -0.3438
  699MOL0     H94317   1.084   3.154  10.691 -0.2249 -1.4712  0.8976
  699MOL0     H94318   1.180   3.017  10.622  1.4689 -1.3399  1.3441
  699MOL0     H94319   1.164   2.934  10.831 -0.5532 -0.0084  0.3746
  699MOL0     H94320   1.307   3.032  10.846 -0.5149 -0.1536 -0.3817
  699MOL0     H94321   1.188   3.216  10.937  0.6009 -0.4082  1.4756
  699MOL0     H94322   1.174   3.080  11.044 -0.9030 -1.3735 -0.2014
  699MOL0     H94323   0.970   3.151  10.845  2.4801  0.1970 -0.6940
  699MOL0     H94324   0.961   3.192  11.024 -1.2599 -1.4806  0.9081
  699MOL0     H94325   0.841   2.764  10.976  1.7532  1.5534  0.7532
  699MOL0     H94326   0.607   2.684  10.961 -3.7696  0.5274 -2.4863
  699MOL0     H94327   0.146   2.979  10.688  1.4725  0.5589  1.7324
  699MOL0     H94328  -0.081   2.889  10.641  0.5471 -3.3229 -0.3557
  699MOL0     H94329  -0.255   2.791  10.615  2.2164  0.6420 -0.1389
  699MOL0     H94330  -0.160   2.634  10.631 -0.0468 -1.0603  2.9323
  699MOL0     H94331  -0.397   2.635  10.531  0.0299  2.0775 -0.2493
  699MOL0     H94332  -0.367   2.513  10.650  0.4753  0.3938  0.0706
  699MOL0     H94333  -0.571   2.586  10.695  2.7985 -2.7148 -0.7717
  699MOL0     H94334  -0.477   2.660  10.829 -2.5159  0.6243 -0.2171
  699MOL0     H94335  -0.560   2.820  10.583 -1.2740 -1.5370 -0.9060
  699MOL0     H94336  -0.488   2.881  10.734 -0.2345 -0.1352 -0.6451
  699MOL0     H94337  -0.690   2.829  10.862 -1.1480 -0.3234  0.6131
  699MOL0     H94338  -0.756   2.745  10.714 -1.9919  2.4355 -0.5393
  699MOL0     H94339  -0.700   3.044  10.746 -2.0991  0.5214  1.6497
  699MOL0     H94340  -0.763   2.966  10.601  0.4809 -1.7415  0.0458
  699MOL0     H94341  -0.884   2.909  10.876 -1.4819 -0.5100 -0.7904
  699MOL0     H94342  -0.954   2.894  10.708  0.6532  0.6936 -1.7357
  699MOL0     H94343  -1.026   3.101  10.853  1.8397  0.4375  2.1706
  699MOL0     H94344  -0.866   3.166  10.823  0.0121  0.1637 -0.4809
  699MOL0     H94345  -0.084   2.696  11.008 -0.1672  1.1871 -1.0568
  699MOL0     H94346   0.134   2.808  11.082  1.5065 -0.8426 -0.8591
  699MOL0     H94347   0.491   3.105  10.948 -0.2292  0.7240 -0.6845
  699MOL0     H94348   0.718   3.172  10.985 -1.2930  0.5951 -0.2925
  699MOL0     H94349   2.257   2.715  10.130  4.0811 -0.7257  0.8059
  699MOL0     H94350   2.448   2.593  10.052 -0.5864 -4.0322 -2.7999
  699MOL0     H94351   2.626   2.394   9.855  0.1695  1.3206 -0.4145
  699MOL0     H94352   2.766   2.207   9.823 -0.5871  0.6254 -1.7145
  699MOL0     H94353   3.186   2.223   9.975 -3.0032 -1.5572  0.2815
  699MOL0     H94354   3.219   2.304   9.822 -1.4527  0.5841  0.9245
  699MOL0     H94355   3.200   1.999   9.865 -0.3125 -0.2645 -0.4554
  699MOL0     H94356   3.345   2.104   9.834 -0.2331  4.1091 -2.0642
  699MOL0     H94357   3.210   2.168   9.612  2.0710 -0.4281 -0.6182
  699MOL0     H94358   3.109   2.030   9.647  1.0054 -2.1414 -1.6545
  699MOL0     H94359   3.406   1.990   9.630 -1.0295  0.3718  2.3925
  699MOL0     H94360   3.276   1.869   9.637 -0.8067  0.0213 -0.0481
  699MOL0     H94361   3.272   2.008   9.229  0.7287 -1.0607  0.6481
  699MOL0     H94362   3.113   2.467   9.897 -0.3986  0.4765  2.2252
  699MOL0     H94363   3.097   2.693   9.892  0.1817 -0.2161 -1.8485
  699MOL0     H94364   2.947   2.749   9.801 -0.7143  0.5399  0.4696
  699MOL0     H94365   2.955   2.753   9.981  0.9346  2.1171 -1.3861
  700MOL0     O94366   2.833   0.849   1.548 -0.5011 -0.4114 -0.0715
  700MOL0     C94367   2.784   0.740   1.523 -0.1359 -0.1199 -0.4300
  700MOL0     O94368   2.855   0.622   1.503  0.5122  0.6125  0.7245
  700MOL0     C94369   2.989   0.651   1.509 -0.5183  0.0243  0.5821
  700MOL0     C94370   3.047   0.633   1.632  0.2383  0.6213 -0.2295
  700MOL0     C94371   3.181   0.653   1.649  0.4503  0.3184 -0.5339
  700MOL0     C94372   3.267   0.692   1.542  0.0201  0.4442 -0.0259
  700MOL0     O94373   3.401   0.723   1.548  0.1623 -0.0406  0.2428
  700MOL0     C94374   3.453   0.746   1.683 -0.2855 -0.0761  0.9213
  700MOL0     C94375   3.601   0.768   1.696 -0.7604 -0.4291  0.6607
  700MOL0     C94376   3.660   0.839   1.570  0.1393  0.4779 -0.8148
  700MOL0     C94377   3.813   0.814   1.567 -0.1638  0.4077 -0.0123
  700MOL0     C94378   3.890   0.889   1.670  0.2086  0.1306 -0.6568
  700MOL0     C94379   4.040   0.830   1.695  0.3190 -0.9335 -0.3253
  700MOL0     C94380   4.131   0.938   1.755  0.4598 -0.0963 -0.7129
  700MOL0     C94381   4.186   1.039   1.647  1.0113 -0.3338  0.5853
  700MOL0     N94382   4.276   0.991   1.542  0.8181  0.2774 -0.0227
  700MOL0     C94383   4.402   0.938   1.556  0.5687  0.5390  0.3604
  700MOL0     C94384   4.446   0.927   1.426 -0.2774 -1.3722 -0.2627
  700MOL0     C94385   4.573   0.869   1.380 -0.3432 -0.0981  0.1417
  700MOL0     C94386   4.693   0.867   1.468 -0.1998 -0.0553  0.2705
  700MOL0     C94387   4.819   0.803   1.401  0.4222 -0.7336  0.0318
  700MOL0     C94388   4.941   0.787   1.487 -0.5084  0.8674 -0.6646
  700MOL0     O94389   4.933   0.691   1.591  0.2320  0.2926 -0.5656
  700MOL0     C94390   5.040   0.668   1.674 -1.0381  0.5785 -0.6106
  700MOL0     C94391   5.178   0.718   1.662 -0.0340  0.4797 -0.6192
  700MOL0     C94392   5.275   0.693   1.756 -0.9393  0.6962  0.0102
  700MOL0     C94393   5.252   0.601   1.856 -0.6590  0.5931  0.6303
  700MOL0     C94394   5.361   0.569   1.949  0.5534 -0.9018 -0.0471
  700MOL0     O94395   5.486   0.596   1.915 -0.1539 -0.4700  0.0311
  700MOL0     C94396   5.579   0.631   2.008  0.2310 -0.0695  0.3150
  700MOL0     C94397   5.613   0.767   2.023  0.1715  0.0716  0.6074
  700MOL0     C94398   5.709   0.808   2.105 -1.7844  0.2575  0.0315
  700MOL0     C94399   5.786   0.714   2.184  0.5396  0.4432  0.7853
  700MOL0     O94400   5.893   0.754   2.255 -0.3078  0.1272  0.1720
  700MOL0     C94401   5.864   0.830   2.374  0.4126  0.2018 -0.5739
  700MOL0     C94402   5.982   0.923   2.421  0.7933 -0.1406 -0.7140
  700MOL0     C94403   6.107   0.849   2.475 -0.3684 -0.1256 -0.7680
  700MOL0     C94404   6.223   0.955   2.471  0.1585  0.4692 -0.0078
  700MOL0     C94405   6.355   0.896   2.533  0.6695 -0.0488 -0.4936
  700MOL0     C94406   6.481   0.950   2.467 -0.6507  0.4353 -0.6862
  700MOL0     C94407   6.612   0.876   2.523  1.5630  0.0824 -0.0220
  700MOL0     C94408   6.746   0.926   2.463 -0.9828  0.4882 -1.4017
  700MOL0    Cl94409   6.770   0.898   2.290  0.2076 -0.3622  0.1551
  700MOL0     C94410   5.753   0.577   2.169 -1.0470  0.2766 -0.1021
  700MOL0     C94411   5.650   0.535   2.080  0.2524 -0.2880  0.7135
  700MOL0     O94412   5.329   0.515   2.059 -0.3032 -0.3562 -0.0230
  700MOL0     C94413   5.124   0.548   1.876  0.9853  0.5851  0.8040
  700MOL0     C94414   5.021   0.582   1.784 -0.5259  0.4708  0.1337
  700MOL0     N94415   4.351   0.974   1.346 -0.4927  0.1672 -0.7482
  700MOL0     N94416   4.239   0.995   1.415  0.4492 -0.5639 -0.2936
  700MOL0     C94417   3.204   0.696   1.412  0.6145  0.3023 -0.6804
  700MOL0     C94418   3.070   0.680   1.401  0.2468 -0.0923  0.4277
  700MOL0     C94419   2.639   0.714   1.521 -0.3358  0.4086 -0.3572
  700MOL0     C94420   2.597   0.611   1.435 -0.1984 -0.5109 -0.3181
  700MOL0     C94421   2.461   0.589   1.415 -0.7265 -0.6735 -0.5434
  700MOL0     C94422   2.359   0.663   1.476 -0.1455  0.9802 -0.7992
  700MOL0     O94423   2.228   0.630   1.476 -0.3240  0.0252  0.1483
  700MOL0     C94424   2.176   0.502   1.436  0.5400 -0.3689 -0.3016
  700MOL0     C94425   2.023   0.489   1.472  0.5356 -0.0546  0.2074
  700MOL0     C94426   1.983   0.528   1.624 -0.2992 -0.1499  0.5527
  700MOL0     C94427   1.845   0.606   1.641 -0.3101  0.6066 -0.2038
  700MOL0     C94428   1.834   0.719   1.542  1.0902  0.1738  0.0533
  700MOL0     C94429   1.831   0.818   1.470  0.1749 -0.2981 -0.1456
  700MOL0     C94430   2.406   0.768   1.556 -0.5309 -0.1865  0.4809
  700MOL0     C94431   2.541   0.793   1.581 -0.0247  0.0928 -0.5760
  700MOL0     C94432   2.567   0.908   1.677 -0.9574 -0.3326  0.2631
  700MOL0     H94433   2.986   0.610   1.718 -0.8705  0.2507 -1.0854
  700MOL0     H94434   3.211   0.641   1.752 -3.2361  0.2703  0.6919
  700MOL0     H94435   3.408   0.836   1.726  0.6643  0.9772 -0.2112
  700MOL0     H94436   3.424   0.662   1.747  0.0723 -0.2537  0.8533
  700MOL0     H94437   3.655   0.674   1.707  0.9812 -0.0814 -3.3386
  700MOL0     H94438   3.610   0.829   1.787 -0.2232 -0.5342  0.6797
  700MOL0     H94439   3.638   0.944   1.588 -1.0240  0.0289  0.7193
  700MOL0     H94440   3.616   0.808   1.474 -2.5345  0.5399  0.2794
  700MOL0     H94441   3.824   0.705   1.575 -2.3634 -0.0375 -2.0918
  700MOL0     H94442   3.858   0.842   1.472 -1.5206 -1.7340 -1.3706
  700MOL0     H94443   3.870   0.994   1.649 -1.1570  0.1073  0.4040
  700MOL0     H94444   3.841   0.878   1.767 -1.0505  2.6616 -0.9275
  700MOL0     H94445   4.023   0.744   1.761 -5.6209  1.4967  2.1059
  700MOL0     H94446   4.088   0.800   1.602 -0.4179 -1.7631 -0.4511
  700MOL0     H94447   4.220   0.884   1.789 -0.1771 -0.7740 -0.1134
  700MOL0     H94448   4.086   0.993   1.838  0.3628  1.9037 -2.0187
  700MOL0     H94449   4.103   1.094   1.602  2.5440 -0.0846 -2.0855
  700MOL0     H94450   4.235   1.123   1.697 -2.5913  2.0900  0.4364
  700MOL0     H94451   4.458   0.901   1.642  0.8482  0.1424  0.0126
  700MOL0     H94452   4.549   0.763   1.363 -0.8727 -0.0584  0.6180
  700MOL0     H94453   4.603   0.917   1.286  0.6941 -1.2754 -0.1643
  700MOL0     H94454   4.722   0.965   1.508  2.6959  1.1072 -3.9938
  700MOL0     H94455   4.660   0.818   1.560 -0.4222  1.3604  0.9800
  700MOL0     H94456   4.844   0.858   1.310 -2.4796  0.0784 -0.3919
  700MOL0     H94457   4.787   0.706   1.361  1.1631  0.2662 -3.3808
  700MOL0     H94458   4.972   0.885   1.525  2.0172  0.4839 -1.5351
  700MOL0     H94459   5.021   0.756   1.418 -0.5561  1.6022 -1.0585
  700MOL0     H94460   5.202   0.781   1.577 -0.8979 -0.8522 -1.8892
  700MOL0     H94461   5.364   0.752   1.738  0.6823 -1.6646 -0.0614
  700MOL0     H94462   5.567   0.852   1.974  2.5468  0.2397 -1.5557
  700MOL0     H94463   5.728   0.914   2.120 -0.1394 -0.1175  0.9017
  700MOL0     H94464   5.777   0.893   2.353  0.7298  0.6008 -0.7093
  700MOL0     H94465   5.829   0.766   2.455  0.6713 -0.8587 -1.2787
  700MOL0     H94466   6.010   0.973   2.327  3.8354 -1.5048 -0.6627
  700MOL0     H94467   5.953   1.007   2.486 -2.2107 -2.2075  0.8594
  700MOL0     H94468   6.085   0.800   2.570  2.6091 -0.9558 -0.4072
  700MOL0     H94469   6.136   0.763   2.415 -1.1366 -1.8565  1.1918
  700MOL0     H94470   6.187   1.045   2.522 -2.7455 -0.5908 -0.0472
  700MOL0     H94471   6.240   0.974   2.365  0.0022  0.0917 -0.1012
  700MOL0     H94472   6.355   0.787   2.523  2.0696 -0.0314 -0.7993
  700MOL0     H94473   6.361   0.917   2.640  0.7386  0.8502 -0.6674
  700MOL0     H94474   6.489   0.924   2.361 -1.1721  1.3439 -0.9571
  700MOL0     H94475   6.477   1.056   2.492 -0.1421 -0.1512  2.3105
  700MOL0     H94476   6.602   0.771   2.492  1.6883  0.5632 -1.8524
  700MOL0     H94477   6.602   0.884   2.631  0.7919 -1.3021  0.0373
  700MOL0     H94478   6.757   1.031   2.492 -3.5857  0.4248  0.1867
  700MOL0     H94479   6.823   0.860   2.505  0.3970  1.4938 -2.2851
  700MOL0     H94480   5.816   0.500   2.213 -0.7581  1.7624  2.2482
  700MOL0     H94481   5.609   0.437   2.058 -3.9935  1.2084  1.0682
  700MOL0     H94482   5.091   0.484   1.957 -0.7454  0.9390  0.4256
  700MOL0     H94483   4.926   0.535   1.807 -0.6658  1.0345  0.7490
  700MOL0     H94484   3.264   0.713   1.323 -0.9834 -0.6711 -1.9820
  700MOL0     H94485   3.022   0.688   1.304  0.4145  1.4033  0.4368
  700MOL0     H94486   2.669   0.543   1.392  0.5024 -1.5224  2.2809
  700MOL0     H94487   2.430   0.508   1.349  3.2033 -1.9520 -1.0921
  700MOL0     H94488   2.242   0.423   1.474 -0.7334 -1.3923 -0.1552
  700MOL0     H94489   2.183   0.499   1.327 -1.5578  0.2397 -0.4954
  700MOL0     H94490   1.996   0.384   1.457  4.4884 -1.3253  1.0656
  700MOL0     H94491   1.968   0.547   1.397 -2.0697 -0.2986  1.8094
  700MOL0     H94492   2.058   0.587   1.677 -1.9187  0.5037  2.1723
  700MOL0     H94493   1.980   0.432   1.676  0.8018 -0.3424  0.2893
  700MOL0     H94494   1.758   0.541   1.624  0.6368 -0.8594  0.3510
  700MOL0     H94495   1.840   0.651   1.740 -0.2477  0.5902 -0.1932
  700MOL0     H94496   1.827   0.906   1.410 -2.7710  1.0133  1.7691
  700MOL0     H94497   2.333   0.839   1.593 -2.5490  0.1504 -3.5781
  700MOL0     H94498   2.546   1.001   1.624  2.4066 -0.2547 -1.1425
  700MOL0     H94499   2.504   0.898   1.766  0.1554  0.8547  1.2276
  700MOL0     H94500   2.671   0.911   1.710 -0.8456 -1.4915  0.0511
  701MOL0     O94501   3.005   6.461   0.016 -0.0083  0.3598 -0.0379
  701MOL0     C94502   3.045   6.561   0.081 -1.3694 -1.1904 -0.1251
  701MOL0     O94503   3.171   6.591   0.108  0.2218  0.5557  0.5222
  701MOL0     C94504   3.269   6.514   0.052 -0.6793  0.0997 -0.2693
  701MOL0     C94505   3.306   6.386   0.105  0.1058  0.1087 -0.9793
  701MOL0     C94506   3.407   6.308   0.063 -0.4099 -0.2168  0.3880
  701MOL0     C94507   3.482   6.354  -0.049  0.0970  1.0926 -0.3765
  701MOL0     O94508   3.599   6.289  -0.089  0.5225 -0.6999  0.5283
  701MOL0     C94509   3.700   6.376  -0.146 -0.2793  0.2864 -0.3883
  701MOL0     C94510   3.841   6.305  -0.139 -0.3585 -0.0034 -0.3150
  701MOL0     C94511   3.875   6.281   0.013 -0.6668 -0.7234 -0.2523
  701MOL0     C94512   4.015   6.235   0.025  0.3773  0.8085 -0.8562
  701MOL0     C94513   4.065   6.216   0.167  0.7811 -0.3157  0.0888
  701MOL0     C94514   3.997   6.106   0.247 -0.1376  0.9331  0.1824
  701MOL0     C94515   4.061   6.090   0.387  0.7054  0.4539 -0.5150
  701MOL0     C94516   4.139   5.958   0.396  0.1634  0.3554  0.6652
  701MOL0     N94517   4.214   5.964   0.515  0.1584 -0.4545  0.0770
  701MOL0     C94518   4.176   6.033   0.627  0.1943  1.2352 -0.3881
  701MOL0     C94519   4.288   6.018   0.706  0.7893 -0.3823  0.3711
  701MOL0     C94520   4.292   6.074   0.848  0.2666 -0.9633  0.6616
  701MOL0     C94521   4.427   6.075   0.912  0.1372  0.2108 -0.2573
  701MOL0     C94522   4.433   6.151   1.043  0.6478  0.3502 -0.1705
  701MOL0     C94523   4.573   6.186   1.082  0.6261  0.1030  0.3274
  701MOL0     O94524   4.615   6.285   0.986 -0.4222 -0.3570  0.6002
  701MOL0     C94525   4.745   6.335   1.000  0.1581  0.0388 -0.3840
  701MOL0     C94526   4.795   6.410   0.896 -0.0657 -0.3368 -0.1297
  701MOL0     C94527   4.929   6.460   0.902 -0.0729 -0.3949 -0.2872
  701MOL0     C94528   5.013   6.442   1.017 -0.0775  0.1485  0.4574
  701MOL0     C94529   5.141   6.505   1.031 -0.7290  0.0423  0.7302
  701MOL0     O94530   5.219   6.469   1.141 -0.2668 -0.3875  0.3192
  701MOL0     C94531   5.343   6.528   1.154 -0.4129  0.2523  0.2728
  701MOL0     C94532   5.463   6.451   1.147  0.5200 -0.3035 -0.3157
  701MOL0     C94533   5.591   6.501   1.149 -0.2261  0.1256  0.7450
  701MOL0     C94534   5.610   6.639   1.169  0.0906  0.0605 -1.0082
  701MOL0     O94535   5.732   6.700   1.180 -0.4530  0.2531  0.4131
  701MOL0     C94536   5.840   6.614   1.209 -0.5839  0.8418  0.1423
  701MOL0     C94537   5.965   6.702   1.234 -0.1749 -0.0328  0.5470
  701MOL0     C94538   6.086   6.625   1.177  0.0897  0.3189 -0.7907
  701MOL0     C94539   6.213   6.705   1.193  0.2521 -0.1186  0.3153
  701MOL0     C94540   6.314   6.628   1.109  0.1412  0.2932 -0.0586
  701MOL0     C94541   6.454   6.669   1.163  0.2582 -0.0195 -0.2128
  701MOL0     C94542   6.556   6.588   1.087  0.4707  0.1911  0.4002
  701MOL0     C94543   6.704   6.632   1.123  0.0938  0.3263 -0.0207
  701MOL0    Cl94544   6.728   6.807   1.108 -0.2562  0.0253 -0.1536
  701MOL0     C94545   5.495   6.722   1.183  0.5086 -0.3626  0.4618
  701MOL0     C94546   5.367   6.663   1.173  0.7353  0.1054  0.2827
  701MOL0     O94547   5.172   6.583   0.951 -0.2394 -0.1631 -0.4226
  701MOL0     C94548   4.957   6.378   1.125 -0.2897  0.0340 -0.2193
  701MOL0     C94549   4.829   6.322   1.119  0.2768 -0.4562  0.5057
  701MOL0     N94550   4.386   5.942   0.649  0.1160 -0.3685 -0.0953
  701MOL0     N94551   4.340   5.926   0.527 -0.0932 -0.1962 -0.2948
  701MOL0     C94552   3.441   6.477  -0.110 -0.2117 -0.2304  0.9915
  701MOL0     C94553   3.348   6.562  -0.050  0.5343  0.0406 -0.1319
  701MOL0     C94554   2.942   6.644   0.145 -0.4074 -0.4125 -0.0134
  701MOL0     C94555   2.806   6.621   0.109 -0.2720 -0.2985  0.1315
  701MOL0     C94556   2.699   6.687   0.178 -0.2871  0.3719 -0.3541
  701MOL0     C94557   2.721   6.772   0.287  1.0990 -0.7574 -0.5216
  701MOL0     O94558   2.614   6.839   0.340  0.1662 -0.3083 -0.0807
  701MOL0     C94559   2.631   6.894   0.482  0.6112  0.4242  0.2227
  701MOL0     C94560   2.500   6.900   0.547  0.0029 -0.5721 -1.0438
  701MOL0     C94561   2.523   6.948   0.691  0.7587 -0.7922  0.4711
  701MOL0     C94562   2.405   6.935   0.776  0.6872  0.6449 -1.0375
  701MOL0     C94563   2.440   6.945   0.914  0.3419 -0.1179  0.0191
  701MOL0     C94564   2.498   6.954   1.026  1.2235  0.1121  0.5353
  701MOL0     C94565   2.857   6.809   0.312  0.1501 -0.5509 -0.4345
  701MOL0     C94566   2.965   6.743   0.248  0.7699 -0.0354  0.3898
  701MOL0     C94567   3.102   6.778   0.304  0.3121  0.2449  1.0041
  701MOL0     H94568   3.243   6.351   0.186  0.7529 -1.0211 -0.9473
  701MOL0     H94569   3.445   6.214   0.101 -0.2333 -0.1167  0.4612
  701MOL0     H94570   3.691   6.397  -0.253  0.6399  1.2879 -0.2827
  701MOL0     H94571   3.701   6.474  -0.096 -1.7395 -0.5021  1.3338
  701MOL0     H94572   3.918   6.367  -0.185 -1.5553  0.5967 -1.6099
  701MOL0     H94573   3.834   6.207  -0.187 -2.8696 -1.0295  1.8488
  701MOL0     H94574   3.808   6.207   0.060  0.0504  0.1050  2.2349
  701MOL0     H94575   3.860   6.369   0.076  0.4755 -0.9690  0.3896
  701MOL0     H94576   4.032   6.138  -0.023 -1.9650 -0.3791  0.5971
  701MOL0     H94577   4.080   6.306  -0.028 -0.5310  1.7883 -0.6818
  701MOL0     H94578   4.172   6.193   0.173  1.0243  0.8219  0.2905
  701MOL0     H94579   4.040   6.304   0.227  0.7646 -0.9545  1.0423
  701MOL0     H94580   3.891   6.132   0.256 -2.0382 -2.8127 -5.6101
  701MOL0     H94581   3.993   6.011   0.193 -1.7686  1.0009  0.1401
  701MOL0     H94582   3.982   6.078   0.462 -0.2811  3.1477 -1.0379
  701MOL0     H94583   4.118   6.177   0.420  0.2138 -0.4037  2.9992
  701MOL0     H94584   4.070   5.874   0.393  0.0286  0.4760 -1.3113
  701MOL0     H94585   4.198   5.945   0.305  1.4114  1.5598  1.2684
  701MOL0     H94586   4.084   6.082   0.656 -1.4793 -1.5216 -0.6842
  701MOL0     H94587   4.231   6.164   0.854  1.3913 -0.0758 -0.5475
  701MOL0     H94588   4.233   6.003   0.906 -1.6946  0.2049  0.1882
  701MOL0     H94589   4.444   5.969   0.931 -1.7737  0.3768  3.1351
  701MOL0     H94590   4.507   6.119   0.851  1.2185 -2.1545 -0.6359
  701MOL0     H94591   4.388   6.095   1.126  3.1239  1.3836  2.0215
  701MOL0     H94592   4.393   6.252   1.038  1.3726  0.8540  2.4055
  701MOL0     H94593   4.647   6.105   1.079  2.4685  1.7284 -2.7798
  701MOL0     H94594   4.558   6.228   1.182 -1.6138 -1.9080  0.9248
  701MOL0     H94595   4.740   6.433   0.806  0.7459 -0.1826 -0.5896
  701MOL0     H94596   4.972   6.518   0.821  0.1689  2.0600  1.4482
  701MOL0     H94597   5.451   6.343   1.147  0.3500 -0.3344  2.0881
  701MOL0     H94598   5.674   6.432   1.140  0.5213  0.9492  1.1792
  701MOL0     H94599   5.818   6.546   1.291  0.3222  1.8121  1.2269
  701MOL0     H94600   5.862   6.557   1.118  0.4466  4.5386 -2.1293
  701MOL0     H94601   5.947   6.793   1.176  0.5158 -0.7004 -0.7738
  701MOL0     H94602   5.988   6.719   1.339  2.5253  0.0560  0.0169
  701MOL0     H94603   6.091   6.529   1.230  1.8476  1.8223  2.0613
  701MOL0     H94604   6.067   6.608   1.071  2.4273  0.6146 -1.3238
  701MOL0     H94605   6.243   6.692   1.297  0.3263  0.6597  0.3934
  701MOL0     H94606   6.209   6.811   1.169 -0.7248 -0.2576 -0.2010
  701MOL0     H94607   6.302   6.646   1.002 -1.3710 -2.7159 -0.5057
  701MOL0     H94608   6.298   6.521   1.125 -0.3143  0.0221 -2.0215
  701MOL0     H94609   6.469   6.777   1.156  1.2138  0.1138  2.5985
  701MOL0     H94610   6.460   6.653   1.271  1.2898 -2.3414 -0.5762
  701MOL0     H94611   6.545   6.602   0.979 -1.2445  3.3537  0.8555
  701MOL0     H94612   6.537   6.483   1.111 -1.1283 -0.7859 -4.0758
  701MOL0     H94613   6.739   6.595   1.220  2.2099 -1.3662 -1.3306
  701MOL0     H94614   6.767   6.580   1.051  2.6497  1.4930  1.2328
  701MOL0     H94615   5.499   6.829   1.199 -2.2121  0.0077 -0.7448
  701MOL0     H94616   5.278   6.726   1.165  1.9879  1.8790 -0.1940
  701MOL0     H94617   5.013   6.371   1.218  0.4495 -2.0941 -0.7654
  701MOL0     H94618   4.791   6.267   1.205  0.1342 -2.3884 -0.7359
  701MOL0     H94619   3.484   6.505  -0.206 -0.5949  0.3825  0.9983
  701MOL0     H94620   3.317   6.649  -0.107 -0.9453 -0.4563 -0.1188
  701MOL0     H94621   2.790   6.557   0.023 -1.3994 -0.6697  0.6105
  701MOL0     H94622   2.597   6.675   0.144  0.2072  1.0901 -2.2060
  701MOL0     H94623   2.680   6.991   0.485  2.5161 -0.5109  1.6199
  701MOL0     H94624   2.699   6.827   0.535  1.6496  1.1465 -0.1731
  701MOL0     H94625   2.456   6.800   0.556  0.3357 -0.6494 -0.1679
  701MOL0     H94626   2.428   6.969   0.503  1.6637  0.6667 -1.9306
  701MOL0     H94627   2.542   7.056   0.682 -1.5374 -0.4340 -0.5653
  701MOL0     H94628   2.613   6.895   0.722  1.5772 -0.4046 -1.1135
  701MOL0     H94629   2.335   7.012   0.742 -0.0646  0.3584 -0.1685
  701MOL0     H94630   2.366   6.835   0.756  1.2092  0.5894 -1.8500
  701MOL0     H94631   2.557   6.975   1.114  1.8819 -0.7031  0.2993
  701MOL0     H94632   2.870   6.892   0.382 -1.0501 -0.3139 -0.4726
  701MOL0     H94633   3.159   6.834   0.229  0.0958  1.2161  1.5463
  701MOL0     H94634   3.102   6.842   0.392  1.7484  1.3337  0.2415
  701MOL0     H94635   3.146   6.683   0.335  2.4954  1.1790  0.9119
  702MOL0     O94636   7.477   4.805   0.707 -0.4165 -0.4008  0.1240
  702MOL0     C94637   7.374   4.872   0.719 -0.3881  0.0653 -0.1612
  702MOL0     O94638   7.367   5.006   0.714 -0.1048  0.3760  0.3799
  702MOL0     C94639   7.485   5.075   0.717 -1.0500 -0.0775 -0.0616
  702MOL0     C94640   7.569   5.079   0.831 -0.1944 -0.6981  0.7493
  702MOL0     C94641   7.686   5.156   0.817 -0.5535 -0.8235 -0.7666
  702MOL0     C94642   7.727   5.219   0.700  0.3504 -0.1810 -0.8649
  702MOL0     O94643   7.842   5.287   0.703  0.6369  0.3747  0.3363
  702MOL0     C94644   7.901   5.311   0.574  0.3494 -0.2889  0.2424
  702MOL0     C94645   8.041   5.386   0.594 -0.7935  0.1797 -0.7161
  702MOL0     C94646   8.031   5.534   0.640  0.3126  0.1928  0.5144
  702MOL0     C94647   8.159   5.615   0.604 -1.0613 -0.0753  0.2237
  702MOL0     C94648   8.122   5.761   0.629 -0.6084  0.4700  0.0742
  702MOL0     C94649   8.238   5.829   0.708  0.3010  0.2878 -0.2405
  702MOL0     C94650   8.374   5.833   0.628 -0.0560 -0.2446  0.1254
  702MOL0     C94651   8.496   5.876   0.722 -0.8253  0.4096  0.7659
  702MOL0     N94652   8.561   5.766   0.781  0.4072  0.6121  0.1792
  702MOL0     C94653   8.494   5.664   0.844 -0.2575  0.9408 -0.4936
  702MOL0     C94654   8.584   5.602   0.920  0.1695  0.2923 -0.2712
  702MOL0     C94655   8.554   5.477   0.997  0.3564  0.8816 -0.5849
  702MOL0     C94656   8.673   5.384   0.993  0.6786 -0.0670  0.0909
  702MOL0     C94657   8.692   5.333   0.849 -0.1871  0.5924 -0.0403
  702MOL0     C94658   8.811   5.242   0.849  0.4091  0.7541  0.0145
  702MOL0     O94659   8.940   5.314   0.858  0.1399 -0.0176  0.2440
  702MOL0     C94660   9.056   5.238   0.869 -0.1136  0.2418  0.2391
  702MOL0     C94661   9.081   5.100   0.836 -0.2508  0.5899  0.4376
  702MOL0     C94662   9.212   5.038   0.846  0.0291 -0.0273  0.6987
  702MOL0     C94663   9.318   5.116   0.898 -0.6539  0.2997  0.3930
  702MOL0     C94664   9.451   5.059   0.926 -0.8063 -0.1440  0.2030
  702MOL0     O94665   9.536   5.140   1.011 -0.9326 -0.2609 -0.2878
  702MOL0     C94666   9.672   5.107   1.027 -0.5938 -0.1944 -0.2135
  702MOL0     C94667   9.751   5.041   0.934  0.6766  0.0985 -0.3907
  702MOL0     C94668   9.877   5.015   0.957 -0.5754 -0.4931  0.4451
  702MOL0     C94669   9.934   5.056   1.081 -0.3897  0.0023 -0.1466
  702MOL0     O94670  10.064   5.045   1.123  0.1187  0.7252  0.5976
  702MOL0     C94671  10.159   4.992   1.032 -0.5486  0.4912  0.1860
  702MOL0     C94672  10.230   5.109   0.967 -0.6433 -0.7109 -0.0869
  702MOL0     C94673  10.361   5.074   0.907 -1.1657  0.1893  0.1553
  702MOL0     C94674  10.468   5.023   1.008  0.7499  0.4888 -0.2883
  702MOL0     C94675  10.600   4.997   0.930 -0.5979 -0.6317  0.4423
  702MOL0     C94676  10.716   4.944   1.017  0.5652 -0.1899  0.3239
  702MOL0     C94677  10.857   4.934   0.949 -0.2543 -0.0620 -0.7132
  702MOL0     C94678  10.961   5.003   1.011  0.1317  0.2448 -0.1836
  702MOL0    Cl94679  10.972   4.961   1.195 -0.0164 -0.5381 -0.0892
  702MOL0     C94680   9.863   5.132   1.168 -0.1129  0.5383 -0.3077
  702MOL0     C94681   9.730   5.158   1.141  0.5516  0.3165 -0.2810
  702MOL0     O94682   9.472   4.946   0.884 -0.1259 -0.1167  0.6795
  702MOL0     C94683   9.296   5.250   0.926 -0.2567 -0.4686 -0.4832
  702MOL0     C94684   9.166   5.308   0.904  0.3287 -0.3484  0.3109
  702MOL0     N94685   8.712   5.656   0.896  0.0892 -0.6833  0.2700
  702MOL0     N94686   8.696   5.761   0.818  0.0296  0.7590  0.0566
  702MOL0     C94687   7.641   5.203   0.591 -0.5097  0.3627 -0.2942
  702MOL0     C94688   7.520   5.134   0.597 -1.0462 -0.4762 -0.5221
  702MOL0     C94689   7.251   4.799   0.741  0.4825  0.5569  0.5584
  702MOL0     C94690   7.144   4.876   0.749  0.6114  0.0701 -0.0869
  702MOL0     C94691   7.022   4.820   0.779  0.5329 -0.3086 -0.5343
  702MOL0     C94692   7.001   4.687   0.795  0.6037 -0.3680  0.2196
  702MOL0     O94693   6.882   4.638   0.839  0.0517 -0.2128  0.2047
  702MOL0     C94694   6.782   4.640   0.737  0.6116  0.2490  0.2161
  702MOL0     C94695   6.660   4.558   0.780  0.3505 -0.5352  1.4484
  702MOL0     C94696   6.573   4.623   0.885  0.3114  0.3578 -0.2846
  702MOL0     C94697   6.434   4.548   0.904  0.2219 -0.5754  0.0825
  702MOL0     C94698   6.473   4.415   0.946  0.1525 -0.4582  0.0603
  702MOL0     C94699   6.502   4.304   0.978  0.1904 -0.1562 -0.7892
  702MOL0     C94700   7.109   4.609   0.788 -0.7099  0.2857 -0.7152
  702MOL0     C94701   7.231   4.658   0.759 -0.8624  0.2542 -0.3661
  702MOL0     C94702   7.333   4.546   0.756 -0.2375 -0.5646 -0.8502
  702MOL0     H94703   7.543   5.041   0.930 -1.8060 -0.7030  0.3477
  702MOL0     H94704   7.753   5.152   0.903  1.5472 -3.5048 -2.3989
  702MOL0     H94705   7.924   5.225   0.510  1.0824  1.6279 -2.2642
  702MOL0     H94706   7.834   5.380   0.522 -1.1796 -0.5775  1.7511
  702MOL0     H94707   8.097   5.384   0.500  0.7178  1.6381  0.0756
  702MOL0     H94708   8.106   5.334   0.665  0.9650 -2.5484 -4.0439
  702MOL0     H94709   8.006   5.538   0.747  1.5086 -1.8908  0.9139
  702MOL0     H94710   7.959   5.591   0.581  1.9474  4.0740  1.9089
  702MOL0     H94711   8.249   5.582   0.657  0.1652  2.3254 -0.2402
  702MOL0     H94712   8.187   5.599   0.499  3.3319 -0.6836  1.2976
  702MOL0     H94713   8.103   5.808   0.533  0.3440 -0.8117 -0.7845
  702MOL0     H94714   8.032   5.774   0.690 -1.8989 -2.1641 -1.1008
  702MOL0     H94715   8.194   5.923   0.743 -1.6568  0.1327 -2.0874
  702MOL0     H94716   8.254   5.763   0.794 -2.3147  0.4056  0.4357
  702MOL0     H94717   8.360   5.907   0.549  0.8785  1.1323  1.2071
  702MOL0     H94718   8.403   5.737   0.585 -0.4483  0.7101 -2.4092
  702MOL0     H94719   8.569   5.931   0.663 -2.4931  1.9589  0.0411
  702MOL0     H94720   8.451   5.941   0.798  0.0748 -0.8501  2.4541
  702MOL0     H94721   8.392   5.628   0.842  0.1769 -0.7065  2.1012
  702MOL0     H94722   8.536   5.509   1.100 -0.1651  0.9672 -0.7012
  702MOL0     H94723   8.471   5.421   0.953  1.1904  1.3690 -2.9307
  702MOL0     H94724   8.763   5.434   1.031  1.4822 -2.1527  1.1098
  702MOL0     H94725   8.649   5.293   1.048 -1.0236 -0.1281 -0.7143
  702MOL0     H94726   8.708   5.409   0.771  2.5034  1.7343  1.4845
  702MOL0     H94727   8.601   5.278   0.826 -0.1454 -0.3799  1.9870
  702MOL0     H94728   8.799   5.181   0.759 -2.6876  0.5082  0.4736
  702MOL0     H94729   8.803   5.169   0.930 -1.3160 -2.2638 -2.5979
  702MOL0     H94730   9.000   5.036   0.801  1.4857 -2.3701  1.4346
  702MOL0     H94731   9.233   4.937   0.811  0.9554  0.6912 -0.9325
  702MOL0     H94732   9.698   5.011   0.845  0.8803 -0.3639 -0.3596
  702MOL0     H94733   9.934   4.963   0.881 -0.2763  1.2748 -0.5975
  702MOL0     H94734  10.230   4.938   1.096 -0.9705 -0.6684 -0.3004
  702MOL0     H94735  10.120   4.927   0.953 -1.3972 -0.6699  1.4994
  702MOL0     H94736  10.168   5.153   0.889  1.3886  0.7205 -0.9926
  702MOL0     H94737  10.251   5.179   1.048  0.9130  1.7365 -2.4113
  702MOL0     H94738  10.341   5.008   0.822 -1.4008 -0.4492  0.6998
  702MOL0     H94739  10.395   5.166   0.859 -2.0408  0.6681  0.4376
  702MOL0     H94740  10.434   4.927   1.048 -0.6491  1.1072  0.0514
  702MOL0     H94741  10.492   5.095   1.086 -0.7015  0.6779  0.0160
  702MOL0     H94742  10.634   5.093   0.888 -1.0266 -0.9863 -0.7617
  702MOL0     H94743  10.585   4.926   0.848  0.8267  3.3985 -3.7954
  702MOL0     H94744  10.733   4.993   1.113  1.7384 -0.3175  0.2028
  702MOL0     H94745  10.680   4.844   1.044  0.2565  0.1458  1.1757
  702MOL0     H94746  10.859   4.976   0.848 -0.4477  1.3751 -0.1414
  702MOL0     H94747  10.883   4.828   0.946  1.5837  0.3553 -0.7799
  702MOL0     H94748  11.056   4.975   0.963 -0.1301  0.0054 -0.5614
  702MOL0     H94749  10.947   5.111   1.002 -0.7352  0.1094 -0.5399
  702MOL0     H94750   9.922   5.175   1.249 -0.7525  0.6867  0.0834
  702MOL0     H94751   9.667   5.223   1.201  1.5847  2.7251 -1.6454
  702MOL0     H94752   9.385   5.303   0.957  0.3069 -1.4131 -0.4810
  702MOL0     H94753   9.154   5.414   0.925  1.0776 -0.1476 -0.2109
  702MOL0     H94754   7.665   5.248   0.495 -0.7231  0.8780 -0.1090
  702MOL0     H94755   7.448   5.128   0.517 -1.1555  0.1425 -0.4710
  702MOL0     H94756   7.147   4.984   0.734 -0.2261  0.3239  1.3363
  702MOL0     H94757   6.942   4.892   0.775  1.1956  0.3711 -2.6300
  702MOL0     H94758   6.826   4.575   0.661  0.0367 -3.2956  2.6645
  702MOL0     H94759   6.751   4.743   0.713 -0.0006  0.4572  1.7635
  702MOL0     H94760   6.701   4.461   0.809 -0.0875 -1.6534 -1.3655
  702MOL0     H94761   6.591   4.542   0.697  1.0935  0.7649  0.5474
  702MOL0     H94762   6.548   4.722   0.844 -0.9474 -0.3844 -1.4108
  702MOL0     H94763   6.617   4.629   0.985  0.8473 -0.6403 -0.4469
  702MOL0     H94764   6.376   4.607   0.976  0.4135  2.4113 -2.0212
  702MOL0     H94765   6.379   4.554   0.809  0.0639 -0.9862  0.1465
  702MOL0     H94766   6.521   4.203   1.008  2.8255 -0.0367 -1.8046
  702MOL0     H94767   7.086   4.506   0.815  0.3458  0.5657  1.4948
  702MOL0     H94768   7.288   4.447   0.773  2.7403 -1.9073 -0.0914
  702MOL0     H94769   7.381   4.549   0.658  0.7411 -1.5136 -0.4323
  702MOL0     H94770   7.411   4.544   0.833 -0.4611  0.6479 -0.5804
  703MOL0     O94771   0.933   6.582   6.951  0.0372 -0.5482 -0.8279
  703MOL0     C94772   0.836   6.532   7.000  0.3673  1.0567  0.6069
  703MOL0     O94773   0.832   6.455   7.117 -0.3837  0.7243  0.2105
  703MOL0     C94774   0.961   6.437   7.165  0.6360 -0.1860 -0.4769
  703MOL0     C94775   1.050   6.340   7.105 -0.0390 -0.2983  0.1866
  703MOL0     C94776   1.184   6.330   7.153  0.0522 -0.6880 -0.9166
  703MOL0     C94777   1.233   6.400   7.263  1.1226 -0.8190  0.1849
  703MOL0     O94778   1.359   6.404   7.305  0.4729 -0.1873  0.2631
  703MOL0     C94779   1.457   6.344   7.222 -0.2513 -0.5229  1.2995
  703MOL0     C94780   1.591   6.380   7.282  0.0303  0.3808  0.4011
  703MOL0     C94781   1.618   6.309   7.414  0.5015 -0.3168  0.0473
  703MOL0     C94782   1.745   6.353   7.479 -0.2494  0.3920  0.7285
  703MOL0     C94783   1.785   6.250   7.596 -0.0167 -0.4120  0.0701
  703MOL0     C94784   1.893   6.301   7.684  0.1212 -0.2087 -0.0571
  703MOL0     C94785   1.971   6.186   7.744  0.2435 -0.0597  0.7388
  703MOL0     C94786   2.080   6.239   7.831 -0.3296 -0.0029  0.1036
  703MOL0     N94787   2.034   6.325   7.940 -0.5418 -0.2512  0.2565
  703MOL0     C94788   2.013   6.283   8.073  0.2995 -0.4680  1.2277
  703MOL0     C94789   1.997   6.396   8.147  1.5779  0.5949 -0.1687
  703MOL0     C94790   1.954   6.415   8.289 -0.2015 -0.0407 -0.5585
  703MOL0     C94791   1.802   6.377   8.330 -0.6472 -0.4583 -0.8139
  703MOL0     C94792   1.707   6.470   8.258  1.2452 -0.1754 -0.1628
  703MOL0     C94793   1.568   6.454   8.314  0.5470 -0.2878 -0.2441
  703MOL0     O94794   1.477   6.537   8.228 -0.3030  0.7991 -0.6911
  703MOL0     C94795   1.344   6.490   8.224 -0.4213 -0.9063 -0.4405
  703MOL0     C94796   1.285   6.450   8.109  0.4546  0.7928 -0.2591
  703MOL0     C94797   1.148   6.411   8.109 -0.4910  0.4302  0.4120
  703MOL0     C94798   1.076   6.389   8.227 -0.0753 -0.4916 -0.6298
  703MOL0     C94799   0.954   6.321   8.229  0.1633  0.1845 -0.1834
  703MOL0     O94800   0.887   6.304   8.108 -0.3502  0.0370 -0.4421
  703MOL0     C94801   0.794   6.204   8.110  0.3956  0.7898  0.0508
  703MOL0     C94802   0.809   6.087   8.037  0.2813  0.3600  0.5432
  703MOL0     C94803   0.706   5.988   8.026 -0.7588  0.5712  0.1414
  703MOL0     C94804   0.592   6.005   8.101 -0.0863  0.0893  0.0614
  703MOL0     O94805   0.513   5.895   8.091 -0.7825  0.0009 -0.5659
  703MOL0     C94806   0.412   5.879   8.194 -0.3472  0.2348 -0.5680
  703MOL0     C94807   0.282   5.841   8.131 -0.3747 -0.1521  0.5334
  703MOL0     C94808   0.212   5.725   8.186 -0.0420 -0.1846 -0.5658
  703MOL0     C94809   0.066   5.724   8.159 -0.0681  0.0802  0.0168
  703MOL0     C94810   0.003   5.616   8.240 -0.1027 -0.2224  0.6880
  703MOL0     C94811  -0.023   5.664   8.386 -0.3685 -0.9800  0.6046
  703MOL0     C94812  -0.085   5.553   8.473 -0.0418 -0.9844 -0.4408
  703MOL0     C94813  -0.092   5.588   8.623  0.0847 -0.2347 -0.1471
  703MOL0    Cl94814  -0.187   5.464   8.704 -0.5529 -0.1592 -0.3118
  703MOL0     C94815   0.568   6.129   8.172 -0.5756 -0.1761  0.4538
  703MOL0     C94816   0.672   6.223   8.176  0.0676  0.6240 -0.3293
  703MOL0     O94817   0.921   6.269   8.336  0.6077 -0.1139 -0.2154
  703MOL0     C94818   1.140   6.435   8.348 -0.1303  0.2026  0.2918
  703MOL0     C94819   1.269   6.489   8.342 -0.6234 -0.5394  0.8062
  703MOL0     N94820   1.982   6.507   8.059  1.1137 -0.2248 -0.5091
  703MOL0     N94821   2.029   6.467   7.942 -0.0976  0.4551  0.3453
  703MOL0     C94822   1.142   6.484   7.331 -0.3965 -0.4911 -0.2532
  703MOL0     C94823   1.011   6.502   7.279  0.1962  0.0306  0.0395
  703MOL0     C94824   0.710   6.548   6.931  1.0520  0.6123  0.8345
  703MOL0     C94825   0.609   6.616   7.001  0.3571 -0.0096  0.5871
  703MOL0     C94826   0.478   6.629   6.947 -0.8121  0.7172  0.3610
  703MOL0     C94827   0.447   6.576   6.823 -0.3501 -0.3360 -0.4524
  703MOL0     O94828   0.317   6.576   6.768  0.8787  0.0377  0.0811
  703MOL0     C94829   0.235   6.696   6.774  0.0794 -0.0194  0.3777
  703MOL0     C94830   0.098   6.650   6.725  0.0901  0.0489 -0.0697
  703MOL0     C94831   0.045   6.723   6.596 -0.3736  0.1835 -0.7032
  703MOL0     C94832  -0.097   6.698   6.563  0.1164 -0.7112  0.4737
  703MOL0     C94833  -0.190   6.767   6.655 -0.1016 -0.9271  0.8621
  703MOL0     C94834  -0.263   6.807   6.746 -0.7771  0.1708  0.1894
  703MOL0     C94835   0.548   6.511   6.751 -0.4417 -0.3232 -0.0146
  703MOL0     C94836   0.682   6.499   6.797  0.4692  0.5858 -0.7919
  703MOL0     C94837   0.784   6.421   6.723  0.0743 -0.4443 -0.0652
  703MOL0     H94838   1.014   6.277   7.024  1.6879 -0.2240 -0.6673
  703MOL0     H94839   1.248   6.259   7.101 -0.4390 -1.4272 -0.5310
  703MOL0     H94840   1.439   6.236   7.217 -0.6812 -0.4076  0.2172
  703MOL0     H94841   1.457   6.387   7.122  1.8236  0.8823  1.8263
  703MOL0     H94842   1.609   6.485   7.304  0.2349 -0.2298  3.5769
  703MOL0     H94843   1.668   6.348   7.210  0.0310 -0.8451  0.9127
  703MOL0     H94844   1.619   6.201   7.397 -0.1287 -0.4666  0.8889
  703MOL0     H94845   1.533   6.332   7.479  1.5235 -1.0575  1.6904
  703MOL0     H94846   1.832   6.362   7.414 -0.8020 -1.3801 -0.3328
  703MOL0     H94847   1.721   6.450   7.523 -1.0312  1.1903 -1.3791
  703MOL0     H94848   1.697   6.228   7.657 -1.2896 -2.0896 -2.2536
  703MOL0     H94849   1.819   6.157   7.551  2.9435  1.2858 -1.5393
  703MOL0     H94850   1.961   6.356   7.619 -1.8277  2.0395 -0.3183
  703MOL0     H94851   1.840   6.354   7.764 -2.4012  0.1035 -1.8266
  703MOL0     H94852   2.019   6.144   7.656 -2.4178 -1.8009  0.0100
  703MOL0     H94853   1.905   6.112   7.789  0.8793 -0.7877  0.5005
  703MOL0     H94854   2.138   6.151   7.859  1.6594  0.4334 -2.3514
  703MOL0     H94855   2.151   6.289   7.765  1.5977  1.4474  3.0273
  703MOL0     H94856   1.994   6.183   8.111  2.7413 -1.0731  1.0100
  703MOL0     H94857   2.012   6.342   8.346  0.1042  0.7370  0.1503
  703MOL0     H94858   1.983   6.515   8.322  0.7591 -0.7338  0.7714
  703MOL0     H94859   1.788   6.272   8.305  0.0127 -1.4226  2.5040
  703MOL0     H94860   1.788   6.388   8.437  0.2953  0.9204 -0.7989
  703MOL0     H94861   1.706   6.432   8.155 -1.9717 -1.0845  0.1003
  703MOL0     H94862   1.741   6.574   8.258 -0.2072  0.5522  4.4909
  703MOL0     H94863   1.568   6.501   8.413  1.8999 -0.8594  0.0565
  703MOL0     H94864   1.540   6.351   8.336  1.5481 -0.8721 -1.5423
  703MOL0     H94865   1.354   6.452   8.025  2.6394 -3.0196  1.1801
  703MOL0     H94866   1.108   6.377   8.014 -0.8453 -2.7539  1.5657
  703MOL0     H94867   0.901   6.074   7.980  0.3724  0.9707  0.5406
  703MOL0     H94868   0.725   5.898   7.969  1.2068 -0.2910  2.0151
  703MOL0     H94869   0.449   5.799   8.259 -1.2901  1.6416  1.8252
  703MOL0     H94870   0.410   5.969   8.255  3.4008  1.6231 -2.2105
  703MOL0     H94871   0.212   5.922   8.153 -1.4404 -1.5598  2.6688
  703MOL0     H94872   0.290   5.828   8.023 -2.1144  1.7686  0.0942
  703MOL0     H94873   0.260   5.637   8.141  1.8915  0.9210 -0.7402
  703MOL0     H94874   0.234   5.724   8.293  0.8866 -2.2715 -0.7245
  703MOL0     H94875   0.039   5.704   8.055 -1.5750 -0.1914  0.4421
  703MOL0     H94876   0.027   5.824   8.178 -0.0909  0.2924 -1.0653
  703MOL0     H94877   0.051   5.518   8.235  1.1372  0.3504  1.0892
  703MOL0     H94878  -0.094   5.607   8.190  0.6938  3.9393 -2.1665
  703MOL0     H94879   0.073   5.695   8.430 -0.2257  1.3849 -1.2272
  703MOL0     H94880  -0.082   5.755   8.380  3.3730  1.6392 -4.3737
  703MOL0     H94881  -0.035   5.456   8.470 -2.4244 -2.2978  0.0887
  703MOL0     H94882  -0.185   5.537   8.434  0.1860 -0.9329 -1.0480
  703MOL0     H94883   0.006   5.589   8.670  0.4272  1.4696 -0.8122
  703MOL0     H94884  -0.140   5.686   8.631 -3.3052 -1.6982 -0.6122
  703MOL0     H94885   0.478   6.143   8.230 -1.0497 -1.7909  0.1751
  703MOL0     H94886   0.668   6.310   8.241  3.9164 -0.3684  1.5471
  703MOL0     H94887   1.098   6.417   8.446  1.4794 -0.1891  0.9303
  703MOL0     H94888   1.331   6.503   8.431  0.0619  1.2188  0.1128
  703MOL0     H94889   1.169   6.551   7.411  0.4411 -0.5146 -0.5097
  703MOL0     H94890   0.945   6.584   7.307 -1.4116 -1.2625  0.1753
  703MOL0     H94891   0.637   6.661   7.096  0.2956  1.6456 -0.1437
  703MOL0     H94892   0.408   6.674   7.017 -1.3230  0.7312 -0.1454
  703MOL0     H94893   0.257   6.788   6.719 -0.9385  1.3337  2.1604
  703MOL0     H94894   0.221   6.734   6.875  2.3960 -0.7939  1.0690
  703MOL0     H94895   0.024   6.662   6.804  0.2493  0.8956 -0.0389
  703MOL0     H94896   0.087   6.545   6.695 -0.8441  0.2635 -0.5093
  703MOL0     H94897   0.110   6.685   6.516  0.4050  1.2505 -0.5958
  703MOL0     H94898   0.055   6.832   6.603 -0.3105  0.1139  0.4638
  703MOL0     H94899  -0.122   6.731   6.462  2.1311  1.1398  0.5090
  703MOL0     H94900  -0.108   6.589   6.570  2.3586 -1.1873 -2.0448
  703MOL0     H94901  -0.325   6.822   6.832  0.9804 -0.5288  1.6203
  703MOL0     H94902   0.528   6.476   6.650 -0.2826 -0.5744  0.0385
  703MOL0     H94903   0.733   6.340   6.669  0.5139 -0.1269 -0.9731
  703MOL0     H94904   0.833   6.483   6.647  0.6801 -0.4709  0.3055
  703MOL0     H94905   0.857   6.380   6.793 -0.9869  1.1821  2.1035
  704MOL0     O94906   6.490   1.714  10.790  0.0384 -0.0111 -0.4209
  704MOL0     C94907   6.481   1.592  10.759 -0.2371 -0.2320 -0.7961
  704MOL0     O94908   6.569   1.515  10.691  0.2121 -0.3690 -0.4984
  704MOL0     C94909   6.694   1.557  10.659  0.1848 -0.6582  0.5622
  704MOL0     C94910   6.769   1.649  10.734  0.0866 -0.4788  0.3797
  704MOL0     C94911   6.896   1.681  10.693  0.4489 -0.0214  0.3401
  704MOL0     C94912   6.959   1.631  10.578  0.0663 -0.8915  0.2609
  704MOL0     O94913   7.090   1.656  10.542 -0.5749  0.3743  0.4928
  704MOL0     C94914   7.125   1.799  10.554 -0.6844  0.9529 -0.8883
  704MOL0     C94915   7.263   1.812  10.477  0.2552  0.4999 -1.1197
  704MOL0     C94916   7.313   1.954  10.444  0.1025  0.4142  0.3754
  704MOL0     C94917   7.435   1.942  10.351  0.2510  0.5602 -0.2026
  704MOL0     C94918   7.480   2.066  10.271 -0.2189  0.5599  0.3303
  704MOL0     C94919   7.551   2.049  10.128 -0.2294 -0.6025 -1.0833
  704MOL0     C94920   7.657   2.157  10.112 -0.1215 -0.9229  0.4783
  704MOL0     C94921   7.724   2.148   9.965 -0.2473 -0.3185 -0.2171
  704MOL0     N94922   7.842   2.235   9.948 -0.0630  0.5854  0.6057
  704MOL0     C94923   7.948   2.252  10.031 -0.5438  0.1208 -0.1171
  704MOL0     C94924   8.028   2.353   9.979 -0.2147  0.0236  0.1640
  704MOL0     C94925   8.150   2.420  10.042  0.6052  0.1101  1.4670
  704MOL0     C94926   8.260   2.442   9.940 -0.2731  0.9443 -0.0607
  704MOL0     C94927   8.388   2.486  10.013 -0.0919  0.0224  0.2235
  704MOL0     C94928   8.516   2.460   9.940 -0.4738  0.3937  0.8016
  704MOL0     O94929   8.526   2.525   9.812 -0.2507  0.1403  0.1386
  704MOL0     C94930   8.658   2.539   9.764  0.2603 -0.1358  0.6582
  704MOL0     C94931   8.682   2.638   9.663 -0.4945  0.2550 -0.2219
  704MOL0     C94932   8.810   2.649   9.613  0.5079 -0.3607  0.0141
  704MOL0     C94933   8.921   2.586   9.674 -0.4723  0.5834 -0.5752
  704MOL0     C94934   9.058   2.615   9.616  0.1042  1.1402 -0.6884
  704MOL0     O94935   9.071   2.631   9.481 -0.0648  0.2455  0.6847
  704MOL0     C94936   9.192   2.631   9.418 -0.4525  0.6742 -0.0286
  704MOL0     C94937   9.234   2.746   9.348  0.0383  0.8332  0.3714
  704MOL0     C94938   9.357   2.759   9.284  1.3391  1.3329 -0.1366
  704MOL0     C94939   9.450   2.657   9.304 -0.4336  0.4923  1.1365
  704MOL0     O94940   9.579   2.642   9.261  0.5394  0.4526 -0.3261
  704MOL0     C94941   9.631   2.741   9.165  0.0323  0.0674 -1.0588
  704MOL0     C94942   9.795   2.740   9.178  0.6367 -0.2666  0.0196
  704MOL0     C94943   9.859   2.609   9.137  0.3760 -0.0523 -0.4541
  704MOL0     C94944  10.001   2.630   9.083 -0.4274  0.6417  0.2336
  704MOL0     C94945  10.065   2.506   9.024 -0.9585 -0.8848 -0.1492
  704MOL0     C94946  10.188   2.543   8.945 -0.6983 -0.3842 -0.5851
  704MOL0     C94947  10.279   2.426   8.915  0.3990 -0.8123  0.2184
  704MOL0     C94948  10.399   2.484   8.840 -0.2052 -0.6240  0.2768
  704MOL0    Cl94949  10.517   2.355   8.791 -0.2155  0.2541  0.3145
  704MOL0     C94950   9.406   2.533   9.352  0.5347 -0.5043 -0.0158
  704MOL0     C94951   9.283   2.521   9.419 -0.0455 -0.3721 -0.3227
  704MOL0     O94952   9.154   2.612   9.688 -0.1352 -0.2560  0.1561
  704MOL0     C94953   8.901   2.507   9.778 -0.2053 -0.3805 -0.1854
  704MOL0     C94954   8.768   2.477   9.820  0.4051  0.4698 -0.3403
  704MOL0     N94955   7.979   2.380   9.854  0.6029  0.2543 -0.3137
  704MOL0     N94956   7.866   2.314   9.838 -0.5464  0.6136  0.0373
  704MOL0     C94957   6.886   1.538  10.503 -0.4623  0.4221  0.1063
  704MOL0     C94958   6.755   1.505  10.540 -0.4939  1.3384  0.0708
  704MOL0     C94959   6.380   1.507  10.823  0.6142  0.7673  0.3858
  704MOL0     C94960   6.314   1.410  10.744 -0.1246  0.2973  0.3271
  704MOL0     C94961   6.200   1.344  10.797  0.6887 -0.4780 -0.1380
  704MOL0     C94962   6.160   1.358  10.927  0.3798  0.1596 -0.4850
  704MOL0     O94963   6.062   1.272  10.957  0.1541  0.2368 -0.7490
  704MOL0     C94964   6.021   1.279  11.091 -0.3804  0.7256  0.0823
  704MOL0     C94965   5.942   1.159  11.123  0.0116  0.2592  0.5006
  704MOL0     C94966   5.821   1.128  11.031  0.2995  0.0584  0.6282
  704MOL0     C94967   5.782   0.984  11.046  0.5920 -0.2253 -0.4771
  704MOL0     C94968   5.769   0.953  11.189  0.6586  0.3983 -0.6257
  704MOL0     C94969   5.758   0.938  11.313  0.3122  0.6677 -0.2365
  704MOL0     C94970   6.238   1.446  11.010  0.7125 -0.7203  0.2748
  704MOL0     C94971   6.348   1.517  10.960 -0.0334  0.3142 -0.3950
  704MOL0     C94972   6.445   1.587  11.053  0.3832 -0.0749  0.2725
  704MOL0     H94973   6.731   1.692  10.826  2.6997 -2.3815  2.4814
  704MOL0     H94974   6.939   1.754  10.760 -2.1399  2.1639 -0.1851
  704MOL0     H94975   7.045   1.866  10.521 -1.5183 -0.7418 -2.5723
  704MOL0     H94976   7.143   1.813  10.661 -0.4609  3.1207 -1.1640
  704MOL0     H94977   7.248   1.755  10.385  0.3421 -1.0895 -0.1853
  704MOL0     H94978   7.334   1.756  10.538  0.0633  1.7911  0.3459
  704MOL0     H94979   7.349   2.005  10.534 -2.3176  1.1173  0.9992
  704MOL0     H94980   7.237   2.017  10.398 -1.4856 -1.9589 -0.4504
  704MOL0     H94981   7.523   1.912  10.407 -0.6028 -2.5985 -0.3744
  704MOL0     H94982   7.411   1.860  10.283 -1.7448  1.5367 -0.7618
  704MOL0     H94983   7.390   2.125  10.250 -0.3360 -0.0447 -1.0040
  704MOL0     H94984   7.535   2.119  10.348 -1.3011  1.4504  0.5101
  704MOL0     H94985   7.598   1.951  10.129  0.6718 -0.1984 -1.9271
  704MOL0     H94986   7.482   2.052  10.043 -1.6468  0.2890  0.0401
  704MOL0     H94987   7.743   2.139  10.178  2.9990  0.0830 -2.9748
  704MOL0     H94988   7.627   2.260  10.136 -1.3948 -1.3056  0.5688
  704MOL0     H94989   7.763   2.049   9.941  0.5601 -0.1674  0.4215
  704MOL0     H94990   7.649   2.175   9.890 -1.4801  0.2046  1.1325
  704MOL0     H94991   7.966   2.212  10.130 -1.8144  1.8868  0.8845
  704MOL0     H94992   8.115   2.517  10.078  0.3647  0.3039  0.7296
  704MOL0     H94993   8.193   2.356  10.119  0.6889 -1.5655  0.0937
  704MOL0     H94994   8.277   2.347   9.889 -0.5016  0.1375  1.3227
  704MOL0     H94995   8.241   2.512   9.858  3.3001  0.9887 -1.0145
  704MOL0     H94996   8.394   2.439  10.112 -0.4920  1.2247  0.8437
  704MOL0     H94997   8.388   2.594  10.030  2.2391 -0.0838  1.3481
  704MOL0     H94998   8.529   2.352   9.927 -1.0251  0.4556 -0.3534
  704MOL0     H94999   8.600   2.485  10.006  0.3467  0.7847 -0.3565
  704MOL0     H95000   8.606   2.702   9.620 -0.6376  0.3251  0.1327
  704MOL0     H95001   8.829   2.715   9.529  2.1678 -2.0781 -1.0373
  704MOL0     H95002   9.166   2.830   9.356 -0.1192  0.7639 -0.1868
  704MOL0     H95003   9.385   2.857   9.246  2.9543  0.2898 -1.8010
  704MOL0     H95004   9.588   2.713   9.069 -0.2011 -0.3511 -0.8372
  704MOL0     H95005   9.602   2.842   9.195  2.4193 -0.1846  2.7589
  704MOL0     H95006   9.835   2.818   9.113  1.0531  0.1763  0.7914
  704MOL0     H95007   9.831   2.777   9.275 -0.8209 -0.0695  0.5140
  704MOL0     H95008   9.863   2.537   9.219  0.9180  0.1212 -0.3230
  704MOL0     H95009   9.804   2.552   9.061  0.6409 -1.8052  0.6125
  704MOL0     H95010  10.065   2.680   9.156 -0.7921  1.1537  0.2119
  704MOL0     H95011   9.993   2.700   9.000 -0.4240  1.7980  1.1904
  704MOL0     H95012   9.999   2.453   8.955  0.6453 -0.7069 -1.9210
  704MOL0     H95013  10.094   2.443   9.108 -0.1801  0.8651  0.9416
  704MOL0     H95014  10.160   2.591   8.850  0.6681  1.7317  0.0417
  704MOL0     H95015  10.256   2.608   8.999  0.1756 -1.1904 -0.6748
  704MOL0     H95016  10.223   2.356   8.851 -2.6457  0.4420  1.3384
  704MOL0     H95017  10.302   2.364   9.002 -2.9345 -1.5175  0.7475
  704MOL0     H95018  10.364   2.546   8.757  1.0670  0.4403  0.5039
  704MOL0     H95019  10.461   2.545   8.905 -0.7282 -1.9914  2.1595
  704MOL0     H95020   9.472   2.447   9.358  0.3542 -0.5727  3.4384
  704MOL0     H95021   9.269   2.432   9.480 -0.0084  0.0294  0.2759
  704MOL0     H95022   8.977   2.459   9.838 -1.4679 -2.1077  0.1216
  704MOL0     H95023   8.769   2.402   9.899  1.6314  0.4620 -0.3522
  704MOL0     H95024   6.938   1.497  10.417 -2.7024  0.0386 -1.1484
  704MOL0     H95025   6.698   1.430  10.487  1.6334  0.2778 -0.8622
  704MOL0     H95026   6.334   1.409  10.638 -1.7002  2.4492 -0.0444
  704MOL0     H95027   6.136   1.277  10.741  0.6810 -1.4284  0.9626
  704MOL0     H95028   5.970   1.375  11.109  1.5684  1.8086  0.0463
  704MOL0     H95029   6.109   1.273  11.154 -0.5179 -1.0475  0.1481
  704MOL0     H95030   5.910   1.188  11.224  2.2533 -0.6118  1.5176
  704MOL0     H95031   6.006   1.071  11.118 -2.0318 -1.2861 -3.9425
  704MOL0     H95032   5.841   1.146  10.925  1.1277  2.6544  1.1477
  704MOL0     H95033   5.735   1.192  11.055 -0.9126 -0.7142 -1.3679
  704MOL0     H95034   5.685   0.965  10.998  1.0011 -0.7484 -1.1201
  704MOL0     H95035   5.846   0.910  10.997 -1.4330 -2.8664  0.6161
  704MOL0     H95036   5.752   0.930  11.419  2.3553  3.4067  0.1777
  704MOL0     H95037   6.220   1.461  11.116 -2.6189  1.2146 -0.4163
  704MOL0     H95038   6.436   1.543  11.153  0.0409  1.5718  1.0013
  704MOL0     H95039   6.548   1.567  11.021 -0.3788 -0.9670 -1.8069
  704MOL0     H95040   6.422   1.693  11.064 -1.6179 -0.6922  3.2350
  705MOL0     O95041   4.514   5.761   7.507  0.5753  0.0228  0.3072
  705MOL0     C95042   4.496   5.639   7.499 -0.5433  1.0386 -0.6512
  705MOL0     O95043   4.597   5.549   7.518 -0.2699  0.0970  0.1403
  705MOL0     C95044   4.736   5.573   7.511  0.1567  0.2309 -0.3011
  705MOL0     C95045   4.824   5.459   7.502  0.3812 -0.1310 -0.3665
  705MOL0     C95046   4.968   5.479   7.513  1.3470  0.2613 -0.0243
  705MOL0     C95047   5.028   5.610   7.520 -0.2632  0.7649  0.4476
  705MOL0     O95048   5.160   5.643   7.534  0.0486 -0.3165 -0.1876
  705MOL0     C95049   5.261   5.549   7.482 -0.3847 -0.2032 -0.7859
  705MOL0     C95050   5.308   5.599   7.349  0.0034 -0.3262 -0.1304
  705MOL0     C95051   5.449   5.535   7.314  0.0849 -0.5299  0.5758
  705MOL0     C95052   5.565   5.594   7.398  0.5050  0.1394  0.5511
  705MOL0     C95053   5.705   5.531   7.376 -0.5007 -0.5430  0.1892
  705MOL0     C95054   5.805   5.575   7.487 -0.6795 -0.0595  0.4424
  705MOL0     C95055   5.928   5.491   7.455  0.4383  0.4507  0.5873
  705MOL0     C95056   6.033   5.564   7.363 -1.0875  0.3730  0.3244
  705MOL0     N95057   6.158   5.493   7.345 -0.0444  0.0897  0.0460
  705MOL0     C95058   6.217   5.463   7.218 -0.0667  1.3842 -0.4042
  705MOL0     C95059   6.342   5.420   7.258  0.0082 -0.6891  0.2667
  705MOL0     C95060   6.457   5.381   7.165 -1.3465 -0.4462 -0.4026
  705MOL0     C95061   6.568   5.488   7.187  0.3729  0.0874 -0.7333
  705MOL0     C95062   6.712   5.443   7.142  0.1900 -0.9472 -0.2104
  705MOL0     C95063   6.819   5.559   7.152  0.0422 -0.8908  0.0631
  705MOL0     O95064   6.937   5.500   7.113 -0.1766  0.0906  0.0689
  705MOL0     C95065   7.045   5.585   7.093  0.2379  1.4556 -0.2774
  705MOL0     C95066   7.149   5.527   7.020  0.2006 -0.3687 -0.4425
  705MOL0     C95067   7.263   5.598   6.984 -0.2416 -0.0897  0.8400
  705MOL0     C95068   7.284   5.732   7.027 -1.2132 -1.0677 -0.4929
  705MOL0     C95069   7.409   5.810   7.000  0.3360 -0.1729 -0.8026
  705MOL0     O95070   7.431   5.922   7.071 -0.9554 -0.6612 -0.4027
  705MOL0     C95071   7.556   5.994   7.050  0.2896 -0.0980 -0.3630
  705MOL0     C95072   7.672   5.928   7.091  0.2238 -0.5422 -0.2093
  705MOL0     C95073   7.789   5.997   7.074 -0.2112 -0.2365  0.6163
  705MOL0     C95074   7.788   6.121   7.022  0.0039 -0.2579  0.4898
  705MOL0     O95075   7.915   6.182   7.002 -0.8384  0.2463 -0.4462
  705MOL0     C95076   7.946   6.314   6.946  1.0717  0.1940  0.1746
  705MOL0     C95077   8.089   6.325   6.898 -0.2428  0.8707 -0.3636
  705MOL0     C95078   8.201   6.333   7.005 -0.0760 -0.3364 -0.0462
  705MOL0     C95079   8.338   6.321   6.938 -0.2251  0.0239  0.4904
  705MOL0     C95080   8.450   6.318   7.046  0.5248 -1.2645  0.6649
  705MOL0     C95081   8.591   6.313   6.984  0.0668 -0.6998 -0.2970
  705MOL0     C95082   8.703   6.311   7.085 -0.1502  0.3209 -0.2528
  705MOL0     C95083   8.837   6.320   7.007  0.5207  0.5136  1.2430
  705MOL0    Cl95084   8.910   6.480   7.022  0.2046  0.2831  0.2302
  705MOL0     C95085   7.672   6.191   6.984 -0.5021  0.1753 -0.5977
  705MOL0     C95086   7.554   6.123   6.997 -0.4388 -0.5264 -0.5563
  705MOL0     O95087   7.483   5.768   6.914 -0.3839  0.7685 -0.8768
  705MOL0     C95088   7.181   5.796   7.103  0.5722 -0.3400 -0.2727
  705MOL0     C95089   7.066   5.720   7.130  0.4815  0.0553 -0.1708
  705MOL0     N95090   6.365   5.434   7.394 -0.4947  0.3375  0.0936
  705MOL0     N95091   6.246   5.454   7.440  0.7563  0.4962 -0.2332
  705MOL0     C95092   4.940   5.720   7.520 -0.2967 -0.1169 -0.3949
  705MOL0     C95093   4.800   5.697   7.516 -0.5074 -0.7740 -0.3471
  705MOL0     C95094   4.363   5.587   7.515  0.3236  0.8417  0.1811
  705MOL0     C95095   4.329   5.457   7.552 -1.0134  0.5964  0.8925
  705MOL0     C95096   4.200   5.403   7.556  0.1693 -0.3731  0.5429
  705MOL0     C95097   4.087   5.489   7.542 -0.4787 -0.6562 -0.4450
  705MOL0     O95098   3.951   5.462   7.544 -0.0313  0.0063  0.4115
  705MOL0     C95099   3.901   5.324   7.551  0.8787 -0.3858 -0.3873
  705MOL0     C95100   3.865   5.307   7.702 -0.3047 -0.4166  0.3555
  705MOL0     C95101   3.750   5.408   7.738  0.2490  0.9708 -0.4378
  705MOL0     C95102   3.697   5.378   7.878 -0.0329 -0.8046 -0.6394
  705MOL0     C95103   3.627   5.243   7.884 -0.0990 -0.0706  0.6775
  705MOL0     C95104   3.564   5.139   7.896  0.8831  0.9093 -0.3369
  705MOL0     C95105   4.113   5.626   7.517 -0.6271 -0.1272 -0.1951
  705MOL0     C95106   4.244   5.672   7.496 -0.0105  0.7237  0.0119
  705MOL0     C95107   4.237   5.810   7.441 -0.3351  0.1600 -0.4354
  705MOL0     H95108   4.798   5.355   7.485 -1.8203  0.1522  0.8931
  705MOL0     H95109   5.032   5.392   7.518 -0.9423 -1.4888  0.5874
  705MOL0     H95110   5.345   5.524   7.547 -1.0916 -1.4252 -0.2915
  705MOL0     H95111   5.207   5.454   7.470 -0.4382 -0.1187 -1.2159
  705MOL0     H95112   5.319   5.708   7.349  0.3040 -0.3536  0.5634
  705MOL0     H95113   5.242   5.582   7.264  0.9635  0.9533 -1.1752
  705MOL0     H95114   5.466   5.536   7.206 -0.4756  2.2831  0.4413
  705MOL0     H95115   5.433   5.429   7.334 -0.4317 -0.8422 -1.2563
  705MOL0     H95116   5.563   5.701   7.379 -0.3188 -0.1771 -1.3094
  705MOL0     H95117   5.536   5.591   7.504 -0.9996  1.4674  0.2112
  705MOL0     H95118   5.690   5.422   7.381 -0.1669 -0.6651 -1.2262
  705MOL0     H95119   5.753   5.554   7.281  1.6741 -0.8375  1.1680
  705MOL0     H95120   5.830   5.682   7.489  0.1641 -0.2290 -0.3906
  705MOL0     H95121   5.752   5.546   7.578  0.3632 -0.5447  0.9016
  705MOL0     H95122   5.901   5.394   7.412  0.5478  1.0444 -0.8850
  705MOL0     H95123   5.973   5.470   7.552 -0.1034 -0.2984  0.6952
  705MOL0     H95124   5.995   5.596   7.265  1.2258  1.1221 -0.3902
  705MOL0     H95125   6.055   5.660   7.409  0.5750  0.4400 -0.5416
  705MOL0     H95126   6.163   5.463   7.124 -0.3923 -0.8093 -0.2613
  705MOL0     H95127   6.491   5.281   7.194 -1.5679 -0.4034  0.0083
  705MOL0     H95128   6.429   5.386   7.059  0.1546 -0.0505 -0.8068
  705MOL0     H95129   6.537   5.587   7.152 -0.4330  1.6270  3.7180
  705MOL0     H95130   6.580   5.503   7.294 -1.0355 -0.8483 -0.4189
  705MOL0     H95131   6.716   5.399   7.042 -3.1218 -1.8328 -0.0836
  705MOL0     H95132   6.742   5.364   7.212 -0.8762 -0.2946  1.0277
  705MOL0     H95133   6.832   5.605   7.250 -0.2324 -0.4985 -0.0828
  705MOL0     H95134   6.793   5.641   7.086  1.7532  0.8352  1.4317
  705MOL0     H95135   7.152   5.429   6.974  3.6594 -0.5265 -0.1203
  705MOL0     H95136   7.340   5.549   6.926  0.9394  1.4655  1.0282
  705MOL0     H95137   7.653   5.833   7.140 -2.6087  0.2074  0.3201
  705MOL0     H95138   7.885   5.959   7.108  0.7854  1.1794 -0.5028
  705MOL0     H95139   7.873   6.330   6.867  0.8308  0.0483  0.3664
  705MOL0     H95140   7.932   6.394   7.019 -1.0633 -0.3453  0.4035
  705MOL0     H95141   8.105   6.232   6.842  2.6231  0.1307  1.4548
  705MOL0     H95142   8.103   6.411   6.831  1.5317 -0.7077 -2.1727
  705MOL0     H95143   8.178   6.417   7.072  0.1515 -0.4681  0.2026
  705MOL0     H95144   8.175   6.251   7.073 -3.4271  0.6787  0.1137
  705MOL0     H95145   8.362   6.406   6.874 -0.1788 -1.9723 -2.3173
  705MOL0     H95146   8.340   6.230   6.878  1.2676 -0.4446  1.2165
  705MOL0     H95147   8.430   6.226   7.102  0.3391 -1.9968 -0.5785
  705MOL0     H95148   8.441   6.398   7.120  2.2369 -0.5121  0.1203
  705MOL0     H95149   8.587   6.217   6.931  2.8264 -0.3826 -1.2196
  705MOL0     H95150   8.588   6.401   6.920 -0.5418  0.6780  1.5247
  705MOL0     H95151   8.706   6.215   7.138 -2.0601 -1.1957 -2.6795
  705MOL0     H95152   8.694   6.394   7.155  1.3287 -0.1056  0.4911
  705MOL0     H95153   8.903   6.250   7.060 -1.2212 -3.2568 -1.1218
  705MOL0     H95154   8.840   6.294   6.901  0.5884  0.5951  1.2255
  705MOL0     H95155   7.671   6.290   6.939  0.5457  0.2811 -0.4124
  705MOL0     H95156   7.455   6.161   6.974 -0.2216  1.8882  1.9863
  705MOL0     H95157   7.204   5.894   7.145  0.3917 -1.2579  2.1385
  705MOL0     H95158   6.987   5.774   7.181 -0.6286 -1.3164 -0.3442
  705MOL0     H95159   4.976   5.822   7.521 -1.5170  0.3844 -2.6246
  705MOL0     H95160   4.740   5.788   7.517 -0.3291 -0.6573 -0.1842
  705MOL0     H95161   4.406   5.384   7.575 -2.6451 -0.6828  2.6348
  705MOL0     H95162   4.187   5.299   7.584  1.4158 -0.1512  2.1130
  705MOL0     H95163   3.975   5.246   7.530  0.9986 -1.0098  2.0843
  705MOL0     H95164   3.809   5.308   7.494  0.3761  0.1079  0.2651
  705MOL0     H95165   3.956   5.324   7.761 -0.1009  0.2251 -0.1292
  705MOL0     H95166   3.847   5.203   7.728 -1.4570  0.1599  2.0200
  705MOL0     H95167   3.667   5.391   7.669 -0.6576 -3.6577  1.4245
  705MOL0     H95168   3.785   5.511   7.722  3.4536  0.1050  0.3892
  705MOL0     H95169   3.784   5.371   7.943  1.1719 -0.0695 -2.1083
  705MOL0     H95170   3.625   5.455   7.908  0.2021 -0.9962  0.4591
  705MOL0     H95171   3.505   5.050   7.901  0.1494  1.4593  2.1696
  705MOL0     H95172   4.025   5.686   7.495 -0.3746  0.0152 -0.8528
  705MOL0     H95173   4.322   5.842   7.379 -1.8220  2.7762 -1.3043
  705MOL0     H95174   4.157   5.819   7.367  0.6966 -0.1921 -1.6321
  705MOL0     H95175   4.220   5.886   7.518 -3.8490 -0.1161 -0.8023
  706MOL0     O95176   2.703   1.303   5.878  0.2523 -0.1123 -0.3840
  706MOL0     C95177   2.666   1.421   5.901  0.1127  0.3735  0.5859
  706MOL0     O95178   2.741   1.515   5.963  0.7357 -0.6201  0.2514
  706MOL0     C95179   2.870   1.491   5.975  0.1956  0.8153  0.1145
  706MOL0     C95180   2.958   1.576   5.905 -0.3586 -0.6072 -0.6585
  706MOL0     C95181   3.094   1.565   5.899 -0.9017  1.0529 -0.7338
  706MOL0     C95182   3.158   1.459   5.967  0.8352  0.4392  1.5614
  706MOL0     O95183   3.293   1.441   5.971 -0.7542  0.0696 -0.1559
  706MOL0     C95184   3.356   1.327   5.915 -0.0318 -0.1045 -0.5127
  706MOL0     C95185   3.516   1.316   5.926 -0.3813 -0.3149 -0.2945
  706MOL0     C95186   3.576   1.397   5.809  1.2046 -0.3153  0.8532
  706MOL0     C95187   3.728   1.365   5.779  0.7267 -0.0910  0.2534
  706MOL0     C95188   3.788   1.459   5.676  0.0722 -0.1504 -0.2410
  706MOL0     C95189   3.905   1.394   5.603  0.7821 -0.3466  0.9654
  706MOL0     C95190   4.019   1.342   5.691 -0.5182  0.3689 -0.4749
  706MOL0     C95191   4.101   1.462   5.738 -0.7126 -0.1190 -0.0956
  706MOL0     N95192   4.239   1.430   5.794  0.0339  1.2742 -0.6919
  706MOL0     C95193   4.242   1.390   5.926  0.6118  0.6062  1.1882
  706MOL0     C95194   4.369   1.360   5.947 -0.1365  0.6547 -0.0803
  706MOL0     C95195   4.426   1.281   6.063 -0.3221 -0.0937  0.1484
  706MOL0     C95196   4.579   1.246   6.057 -0.5226 -0.6629  0.2931
  706MOL0     C95197   4.673   1.366   6.069  0.8559 -0.1423  0.5094
  706MOL0     C95198   4.816   1.318   6.108 -0.0844 -0.3420 -0.4870
  706MOL0     O95199   4.893   1.438   6.126  0.5687 -0.0063  0.0906
  706MOL0     C95200   5.027   1.440   6.155 -0.2523  0.6473 -0.5371
  706MOL0     C95201   5.114   1.327   6.151 -0.0908  0.1369 -0.3565
  706MOL0     C95202   5.245   1.335   6.198 -0.1928  1.0487  0.6614
  706MOL0     C95203   5.296   1.453   6.236 -0.0933  0.4256 -0.2732
  706MOL0     C95204   5.439   1.457   6.285 -0.1484 -0.3441  0.2988
  706MOL0     O95205   5.490   1.575   6.331  0.1002 -0.0164  0.1625
  706MOL0     C95206   5.622   1.592   6.369 -0.4941 -0.4567 -0.7292
  706MOL0     C95207   5.728   1.499   6.396  0.5586 -1.1890 -0.6394
  706MOL0     C95208   5.857   1.536   6.429  0.6321 -0.0943 -0.7411
  706MOL0     C95209   5.898   1.660   6.407 -0.3611  0.1177  0.4669
  706MOL0     O95210   6.031   1.686   6.430  0.5205 -0.2283 -0.1368
  706MOL0     C95211   6.089   1.802   6.369 -0.2031 -0.3774 -0.0340
  706MOL0     C95212   6.236   1.790   6.337 -0.2639  0.1894  0.2889
  706MOL0     C95213   6.308   1.813   6.471 -0.0769 -0.0470 -0.2654
  706MOL0     C95214   6.454   1.768   6.472 -0.2110  0.1709 -0.0515
  706MOL0     C95215   6.555   1.884   6.449 -0.0578 -0.6745  0.0826
  706MOL0     C95216   6.700   1.840   6.473  0.3467  0.3110 -1.0058
  706MOL0     C95217   6.794   1.949   6.426 -0.3120  0.5969  0.2253
  706MOL0     C95218   6.937   1.916   6.404 -0.0729  0.3960 -1.0687
  706MOL0    Cl95219   7.025   2.051   6.332  0.1805 -0.1686 -0.3062
  706MOL0     C95220   5.799   1.760   6.388  1.1280 -0.4631 -0.3841
  706MOL0     C95221   5.663   1.726   6.370  0.6424 -0.4753 -0.3819
  706MOL0     O95222   5.499   1.354   6.279  0.0690 -0.4240 -0.1170
  706MOL0     C95223   5.220   1.569   6.237 -0.8521 -0.0052  0.4908
  706MOL0     C95224   5.079   1.561   6.201 -0.6736 -0.0885  0.5170
  706MOL0     N95225   4.445   1.405   5.839  0.0471 -0.4924 -0.4598
  706MOL0     N95226   4.370   1.449   5.742 -0.3783 -0.1286 -0.3062
  706MOL0     C95227   3.076   1.368   6.038 -0.0256  0.5077 -0.3699
  706MOL0     C95228   2.934   1.391   6.045 -0.8563  0.0114  0.6597
  706MOL0     C95229   2.520   1.463   5.864  1.0240 -0.1107 -0.4276
  706MOL0     C95230   2.455   1.390   5.763  0.4176  0.2572  0.0027
  706MOL0     C95231   2.318   1.413   5.720 -1.1153 -0.1647  0.0671
  706MOL0     C95232   2.247   1.520   5.773 -0.0092  0.3666 -0.2019
  706MOL0     O95233   2.118   1.552   5.744  0.9790 -0.4635 -0.5335
  706MOL0     C95234   2.078   1.511   5.611  0.2711  0.2041  0.1677
  706MOL0     C95235   1.942   1.570   5.580  0.3558 -0.0701  0.1247
  706MOL0     C95236   1.938   1.716   5.545  0.5718  0.4360  0.6467
  706MOL0     C95237   1.808   1.755   5.501  0.4594  0.0630  0.4046
  706MOL0     C95238   1.770   1.896   5.522  0.3226 -0.2337 -0.1576
  706MOL0     C95239   1.721   2.008   5.541  0.8713  0.3427  0.0957
  706MOL0     C95240   2.309   1.588   5.876 -0.1730  0.3360 -0.9511
  706MOL0     C95241   2.439   1.568   5.918 -0.4531 -0.1211 -0.4223
  706MOL0     C95242   2.485   1.629   6.044  0.9038  0.0155 -1.4042
  706MOL0     H95243   2.909   1.653   5.846  4.9114 -0.7954 -6.2883
  706MOL0     H95244   3.152   1.629   5.834  0.8326 -1.4339 -1.8251
  706MOL0     H95245   3.316   1.233   5.955  0.1634 -0.8843 -2.0818
  706MOL0     H95246   3.334   1.329   5.808 -0.2114 -0.8614 -0.4959
  706MOL0     H95247   3.552   1.213   5.923  1.2059  0.2088 -0.2959
  706MOL0     H95248   3.553   1.365   6.017  0.6127 -2.5144  0.5374
  706MOL0     H95249   3.579   1.501   5.843  0.8328 -0.2181  0.5909
  706MOL0     H95250   3.519   1.382   5.717  2.0746 -3.6424  0.7392
  706MOL0     H95251   3.779   1.378   5.875 -0.0576  0.7432  0.5748
  706MOL0     H95252   3.740   1.260   5.752  1.8928  0.1665 -0.3126
  706MOL0     H95253   3.712   1.494   5.605 -2.0168 -0.0708  1.9205
  706MOL0     H95254   3.823   1.551   5.725  2.7873  0.2722 -2.7071
  706MOL0     H95255   3.860   1.309   5.550 -2.0462  0.3311  2.1288
  706MOL0     H95256   3.942   1.459   5.523  0.1840 -0.0318  0.9366
  706MOL0     H95257   4.085   1.277   5.634 -0.9115  1.0547 -1.7626
  706MOL0     H95258   3.979   1.284   5.776  1.9520 -3.4924 -1.6798
  706MOL0     H95259   4.122   1.523   5.651  1.4867  0.5186  0.8212
  706MOL0     H95260   4.040   1.521   5.807 -2.5440 -0.6984 -1.1664
  706MOL0     H95261   4.160   1.362   5.991  0.5868 -1.4221  0.3592
  706MOL0     H95262   4.420   1.337   6.157  0.1213 -0.2151  0.2481
  706MOL0     H95263   4.373   1.185   6.066  1.4700 -1.1048  0.5340
  706MOL0     H95264   4.602   1.181   6.142  2.0480 -1.3906 -0.8535
  706MOL0     H95265   4.592   1.182   5.970  0.1245  0.3719 -0.3906
  706MOL0     H95266   4.633   1.443   6.135  0.7807  1.6068 -1.4620
  706MOL0     H95267   4.682   1.419   5.973  0.6686  1.0895  1.1556
  706MOL0     H95268   4.860   1.247   6.037 -0.1381  0.2896 -1.1748
  706MOL0     H95269   4.821   1.264   6.203  0.0716 -1.4517 -1.1055
  706MOL0     H95270   5.073   1.228   6.132 -1.2008  0.4845  0.1080
  706MOL0     H95271   5.309   1.247   6.201  0.7547  1.5627 -2.0882
  706MOL0     H95272   5.713   1.392   6.403  2.4833 -1.4489  0.2932
  706MOL0     H95273   5.925   1.461   6.468  0.3819  0.2270  0.3619
  706MOL0     H95274   6.028   1.812   6.278  1.4836  0.3221 -1.1233
  706MOL0     H95275   6.079   1.888   6.435  1.7868  1.4463 -1.9537
  706MOL0     H95276   6.247   1.691   6.291  0.8463  0.0232  0.8879
  706MOL0     H95277   6.261   1.869   6.265 -2.5339  0.3021 -0.4710
  706MOL0     H95278   6.307   1.919   6.497  0.8735  0.0619 -0.6105
  706MOL0     H95279   6.258   1.761   6.553  0.8511 -1.1781 -0.3860
  706MOL0     H95280   6.467   1.695   6.391  1.2853  1.0179 -0.5977
  706MOL0     H95281   6.476   1.715   6.565 -0.6423  1.1274  0.6022
  706MOL0     H95282   6.525   1.954   6.529 -0.0934 -0.1944 -0.3459
  706MOL0     H95283   6.540   1.933   6.353  0.3920 -0.6829  0.0044
  706MOL0     H95284   6.714   1.802   6.575  1.4302 -1.0867 -1.6391
  706MOL0     H95285   6.715   1.750   6.413  0.4626  0.5653 -1.3610
  706MOL0     H95286   6.776   2.029   6.499 -0.8466 -1.3456  2.3266
  706MOL0     H95287   6.753   1.976   6.328 -1.4012  3.0678  1.2703
  706MOL0     H95288   6.988   1.899   6.498  0.0790 -5.4884 -1.8220
  706MOL0     H95289   6.949   1.829   6.338  4.4590  0.0453 -0.0728
  706MOL0     H95290   5.819   1.867   6.383 -0.9790  0.0099  0.2207
  706MOL0     H95291   5.588   1.802   6.350  0.7630 -0.5393 -1.1149
  706MOL0     H95292   5.265   1.665   6.260 -1.9978  2.0102 -4.2375
  706MOL0     H95293   5.024   1.654   6.191 -3.3089 -1.6789 -0.5214
  706MOL0     H95294   3.127   1.290   6.095 -0.6420  0.6366  0.3716
  706MOL0     H95295   2.871   1.324   6.102  1.2617 -2.0810  0.7165
  706MOL0     H95296   2.497   1.309   5.704  0.5319 -0.6871  1.3571
  706MOL0     H95297   2.292   1.347   5.638  1.5603 -0.6279 -0.5003
  706MOL0     H95298   2.072   1.402   5.610 -1.4031  0.1572  3.4818
  706MOL0     H95299   2.155   1.540   5.539 -0.4094 -0.4036 -0.8279
  706MOL0     H95300   1.879   1.544   5.666 -0.1623  2.2822  0.5193
  706MOL0     H95301   1.905   1.509   5.497  1.4637  1.7124 -1.7579
  706MOL0     H95302   2.012   1.738   5.467  1.5229 -1.0943  1.0696
  706MOL0     H95303   1.961   1.782   5.629  1.4389 -0.6851  1.3051
  706MOL0     H95304   1.800   1.732   5.395  0.1847 -2.8137  0.9838
  706MOL0     H95305   1.726   1.695   5.542  0.5752 -0.0262  0.5074
  706MOL0     H95306   1.683   2.104   5.568  0.2757  0.7937 -2.1593
  706MOL0     H95307   2.240   1.649   5.935 -0.8157 -2.2718  1.1727
  706MOL0     H95308   2.567   1.695   6.014  0.2152  2.8541  2.2115
  706MOL0     H95309   2.411   1.692   6.094  1.3002  2.9050 -4.0820
  706MOL0     H95310   2.524   1.557   6.116  1.7511  1.9552  0.1846
  707MOL0     O95311   8.123   2.667   3.950  0.2724  0.7562 -0.7381
  707MOL0     C95312   8.026   2.718   3.887 -0.1764 -0.3143 -0.6800
  707MOL0     O95313   8.046   2.768   3.757  0.3136  0.5385 -0.0250
  707MOL0     C95314   8.177   2.780   3.711 -0.0153  0.3850  0.1167
  707MOL0     C95315   8.227   2.669   3.646  0.5337 -0.4254 -0.2059
  707MOL0     C95316   8.355   2.677   3.614 -0.9815 -0.1927  0.0330
  707MOL0     C95317   8.439   2.788   3.653  0.0341 -0.1782 -0.6784
  707MOL0     O95318   8.568   2.798   3.614 -0.5593 -0.9033  0.4786
  707MOL0     C95319   8.655   2.680   3.633 -0.2242 -0.3262 -0.5636
  707MOL0     C95320   8.799   2.721   3.639 -0.3956 -0.2909 -0.5586
  707MOL0     C95321   8.893   2.601   3.657 -0.1841  0.0457  0.1835
  707MOL0     C95322   9.035   2.647   3.685 -0.2908 -0.7966 -0.3793
  707MOL0     C95323   9.128   2.533   3.688  0.2479  0.3371  1.1032
  707MOL0     C95324   9.268   2.585   3.722  0.4319 -0.1412 -0.2655
  707MOL0     C95325   9.384   2.483   3.709  0.7490  0.7866  0.8448
  707MOL0     C95326   9.368   2.356   3.787  0.1354  0.0648  0.4253
  707MOL0     N95327   9.493   2.266   3.791  0.1026 -0.2934  0.8736
  707MOL0     C95328   9.627   2.306   3.800  0.5654 -0.3140 -0.3568
  707MOL0     C95329   9.704   2.196   3.814  0.3596  0.1421 -0.1739
  707MOL0     C95330   9.857   2.184   3.810 -0.6434  0.4270  0.3680
  707MOL0     C95331   9.932   2.259   3.918 -0.2014 -0.0079 -0.6968
  707MOL0     C95332   9.981   2.401   3.863 -0.3979  0.1570  0.6185
  707MOL0     C95333  10.134   2.416   3.826 -0.3138  0.4515 -0.1518
  707MOL0     O95334  10.172   2.304   3.746  0.1855 -0.0617  0.0479
  707MOL0     C95335  10.302   2.283   3.714 -0.5605  0.2168  0.5295
  707MOL0     C95336  10.333   2.175   3.633 -0.5860  0.3353  0.2943
  707MOL0     C95337  10.459   2.158   3.584 -0.1992 -0.7854 -0.7934
  707MOL0     C95338  10.562   2.241   3.638 -0.4429 -0.1257 -0.0104
  707MOL0     C95339  10.700   2.210   3.601  0.7135  0.2583 -0.1760
  707MOL0     O95340  10.724   2.089   3.557  0.6122 -0.3775  0.4676
  707MOL0     C95341  10.850   2.060   3.517  0.2562 -0.5334  0.6972
  707MOL0     C95342  10.969   2.116   3.566 -0.2072  0.2185 -0.0399
  707MOL0     C95343  11.099   2.094   3.509 -0.2769  0.1901 -0.9605
  707MOL0     C95344  11.108   1.985   3.430 -0.0679 -0.2021  0.4500
  707MOL0     O95345  11.236   1.946   3.398 -0.8066  0.0501 -0.2464
  707MOL0     C95346  11.257   1.817   3.335 -0.6428 -0.7139 -1.0981
  707MOL0     C95347  11.406   1.782   3.317  0.5918  0.2328  0.1841
  707MOL0     C95348  11.503   1.832   3.421 -0.2840 -0.2725 -0.4749
  707MOL0     C95349  11.488   1.760   3.553 -0.6737 -0.1212 -0.5276
  707MOL0     C95350  11.611   1.794   3.634  0.1644 -0.2407 -0.1398
  707MOL0     C95351  11.571   1.760   3.783  0.6063 -0.5204 -0.3211
  707MOL0     C95352  11.693   1.815   3.867 -0.2728 -0.3751  0.5849
  707MOL0     C95353  11.805   1.707   3.877 -0.0328 -1.1819  0.2147
  707MOL0    Cl95354  11.938   1.781   3.966  0.0365  0.0069  0.1007
  707MOL0     C95355  10.998   1.923   3.373  0.9942 -0.4263 -0.2603
  707MOL0     C95356  10.865   1.958   3.414 -0.0838  0.4425  0.3155
  707MOL0     O95357  10.776   2.294   3.633  0.0360  0.3638 -0.1133
  707MOL0     C95358  10.533   2.355   3.714  0.0394 -0.0344 -0.0763
  707MOL0     C95359  10.405   2.371   3.757 -0.0867  0.2218 -0.7293
  707MOL0     N95360   9.617   2.091   3.811 -0.1822  0.7126 -0.1741
  707MOL0     N95361   9.490   2.127   3.799 -0.6001  0.6151 -0.0720
  707MOL0     C95362   8.383   2.893   3.734  0.1963 -0.0671  0.4081
  707MOL0     C95363   8.245   2.892   3.749 -0.9853  0.0738  0.0078
  707MOL0     C95364   7.885   2.716   3.942  0.1537 -0.5373  0.1720
  707MOL0     C95365   7.786   2.752   3.851  0.1814  0.6141 -0.3327
  707MOL0     C95366   7.652   2.738   3.885  0.0657  0.0784 -0.6695
  707MOL0     C95367   7.614   2.689   4.009 -0.2256 -0.4158 -0.1920
  707MOL0     O95368   7.492   2.656   4.055  0.4610 -0.7572 -0.8923
  707MOL0     C95369   7.382   2.732   4.003  0.4687 -0.1996  0.0469
  707MOL0     C95370   7.254   2.652   4.035 -0.5384  0.0398  0.1202
  707MOL0     C95371   7.136   2.728   3.978 -0.3235  0.4576  0.5752
  707MOL0     C95372   7.024   2.633   3.940  0.0832 -0.0262  0.5189
  707MOL0     C95373   6.918   2.702   3.879 -0.2842  0.8712  0.9331
  707MOL0     C95374   6.825   2.772   3.845  0.3560 -0.2970 -0.3145
  707MOL0     C95375   7.718   2.658   4.095  0.4587 -0.8401  0.2773
  707MOL0     C95376   7.851   2.680   4.070  0.3572  0.2481 -0.0757
  707MOL0     C95377   7.952   2.650   4.176  0.6586  0.0507  0.7807
  707MOL0     H95378   8.165   2.582   3.630  0.6722 -1.4158  3.6716
  707MOL0     H95379   8.396   2.585   3.572 -3.0557  0.2994 -3.4594
  707MOL0     H95380   8.624   2.625   3.723  2.2985  1.0903  1.3107
  707MOL0     H95381   8.650   2.615   3.545 -0.8748 -0.0459 -0.7429
  707MOL0     H95382   8.809   2.784   3.728 -1.4522  0.7375 -1.1425
  707MOL0     H95383   8.828   2.781   3.553 -1.8735 -0.2581 -1.0657
  707MOL0     H95384   8.900   2.543   3.565 -2.7188 -0.2049  0.0863
  707MOL0     H95385   8.862   2.534   3.737  2.6082  0.6134  1.9100
  707MOL0     H95386   9.069   2.719   3.610  0.8259 -1.7802 -0.8334
  707MOL0     H95387   9.042   2.700   3.780  2.9890  0.5638 -1.2486
  707MOL0     H95388   9.093   2.455   3.755 -2.2853 -0.1610 -0.6362
  707MOL0     H95389   9.115   2.496   3.586 -3.1063  1.3260  1.0619
  707MOL0     H95390   9.296   2.679   3.674  2.2668  0.2906  1.5151
  707MOL0     H95391   9.271   2.605   3.829  1.0210  2.0874 -0.6336
  707MOL0     H95392   9.470   2.536   3.751  0.1614  1.6449  0.9776
  707MOL0     H95393   9.398   2.458   3.603 -1.1938  3.0935 -0.0397
  707MOL0     H95394   9.349   2.381   3.892 -2.2431  0.9468 -0.1612
  707MOL0     H95395   9.279   2.309   3.744 -0.7437  3.5062 -1.8944
  707MOL0     H95396   9.666   2.407   3.805 -2.9194  1.1007  2.5897
  707MOL0     H95397   9.892   2.080   3.812  2.3829  1.3711  0.5570
  707MOL0     H95398   9.883   2.228   3.714 -0.2218 -1.9646 -0.6864
  707MOL0     H95399   9.868   2.278   4.004 -0.5292 -4.4901  0.2828
  707MOL0     H95400  10.017   2.207   3.962 -1.5227 -1.0753  0.6788
  707MOL0     H95401   9.955   2.477   3.938  0.7502  1.0705  0.1192
  707MOL0     H95402   9.912   2.418   3.780 -3.6357  0.1477  3.0848
  707MOL0     H95403  10.184   2.414   3.923 -0.2145 -0.0624 -0.2103
  707MOL0     H95404  10.141   2.509   3.770  0.1489 -0.0049 -0.8639
  707MOL0     H95405  10.265   2.097   3.601 -0.4467  0.1040  0.5613
  707MOL0     H95406  10.475   2.065   3.530  0.3269 -1.9971  1.3256
  707MOL0     H95407  10.967   2.178   3.655 -1.8125 -1.6711  1.3302
  707MOL0     H95408  11.191   2.135   3.550  0.8456  0.3490 -3.4659
  707MOL0     H95409  11.213   1.746   3.406 -1.1475  1.9293  1.4643
  707MOL0     H95410  11.210   1.813   3.237  0.9638 -2.4145 -1.8571
  707MOL0     H95411  11.404   1.673   3.329 -1.2924  0.2450  0.3453
  707MOL0     H95412  11.441   1.792   3.214  0.3831 -2.1964 -0.2027
  707MOL0     H95413  11.604   1.819   3.379  0.0559  1.8506 -0.3977
  707MOL0     H95414  11.487   1.939   3.436  2.1553  0.3714 -1.8780
  707MOL0     H95415  11.486   1.651   3.538 -1.0147 -0.0693 -0.8733
  707MOL0     H95416  11.397   1.786   3.607  0.5123  4.6610 -0.4021
  707MOL0     H95417  11.646   1.896   3.614  0.9478 -0.8021 -1.7718
  707MOL0     H95418  11.693   1.730   3.600 -0.2230 -1.6185  1.3701
  707MOL0     H95419  11.488   1.824   3.815 -0.5841 -1.3445 -1.6758
  707MOL0     H95420  11.552   1.653   3.791  0.2048 -0.4185  0.0885
  707MOL0     H95421  11.653   1.849   3.963  3.6113  2.4547  1.4219
  707MOL0     H95422  11.731   1.915   3.844  1.4288 -1.0088  0.5118
  707MOL0     H95423  11.764   1.623   3.935  0.6051 -1.3506  0.4326
  707MOL0     H95424  11.841   1.666   3.783  0.3180 -1.1746  0.3428
  707MOL0     H95425  11.005   1.853   3.290 -0.7272 -0.8524 -0.0768
  707MOL0     H95426  10.770   1.915   3.383 -0.5274  1.0684  0.7698
  707MOL0     H95427  10.612   2.419   3.751 -0.4484  0.8056 -0.4758
  707MOL0     H95428  10.375   2.455   3.820 -1.1372  0.5026 -1.5695
  707MOL0     H95429   8.446   2.978   3.760  2.0460 -1.4031  0.5315
  707MOL0     H95430   8.193   2.975   3.797 -2.1939  0.6910 -2.1964
  707MOL0     H95431   7.813   2.790   3.753 -0.1989  1.5126 -0.1021
  707MOL0     H95432   7.583   2.753   3.803 -0.2276 -3.5851 -1.2768
  707MOL0     H95433   7.388   2.744   3.894 -0.2131  1.7716  0.1889
  707MOL0     H95434   7.378   2.832   4.047 -0.5725 -0.3147  0.2468
  707MOL0     H95435   7.239   2.644   4.143  1.0115  0.7021  0.4128
  707MOL0     H95436   7.266   2.553   3.991  0.5325  0.7881 -1.3780
  707MOL0     H95437   7.166   2.780   3.886  0.3569 -0.0039  0.5307
  707MOL0     H95438   7.099   2.803   4.049  2.5326  0.4532  2.2226
  707MOL0     H95439   7.062   2.564   3.865 -0.7732 -0.2420  0.2748
  707MOL0     H95440   6.989   2.587   4.033 -0.2768 -1.5454 -0.3343
  707MOL0     H95441   6.745   2.829   3.803  1.8920 -1.7003 -6.0578
  707MOL0     H95442   7.678   2.623   4.190 -0.5564 -2.2257 -0.6241
  707MOL0     H95443   7.902   2.618   4.268  1.2848 -3.3781  0.0652
  707MOL0     H95444   8.006   2.558   4.150 -3.5055 -1.6398 -3.4012
  707MOL0     H95445   8.025   2.727   4.203  0.6998 -0.1921  1.3747
  708MOL0     O95446   6.862   4.875  10.160  0.2988  0.0133 -0.4733
  708MOL0     C95447   6.839   4.855  10.280 -0.6817 -0.8882  0.4724
  708MOL0     O95448   6.927   4.886  10.382  0.2498  0.3109  0.3097
  708MOL0     C95449   7.058   4.902  10.331  0.7871  0.0623 -0.3924
  708MOL0     C95450   7.115   5.033  10.331  0.2363  0.0772 -0.0404
  708MOL0     C95451   7.253   5.047  10.285  0.4951  1.4668 -0.1956
  708MOL0     C95452   7.329   4.931  10.252 -0.1642  0.0896 -0.6916
  708MOL0     O95453   7.456   4.931  10.209 -0.0968 -0.1140 -0.6328
  708MOL0     C95454   7.546   4.881  10.299  0.0695  0.8749  0.1229
  708MOL0     C95455   7.675   4.876  10.213  0.3532 -0.2208 -0.8599
  708MOL0     C95456   7.776   4.793  10.271  0.0132  0.8372  0.4552
  708MOL0     C95457   7.910   4.821  10.220 -0.0659  0.5962 -0.3739
  708MOL0     C95458   8.027   4.741  10.272 -0.9208 -0.3330  0.1061
  708MOL0     C95459   8.159   4.796  10.217 -0.4020 -0.0188 -1.2757
  708MOL0     C95460   8.226   4.902  10.315 -0.2518 -0.1285 -0.8151
  708MOL0     C95461   8.318   4.839  10.423 -0.3184  0.4487  0.5384
  708MOL0     N95462   8.441   4.794  10.357  0.7613 -0.8193 -0.3187
  708MOL0     C95463   8.550   4.871  10.316  0.4781 -0.8050 -0.7775
  708MOL0     C95464   8.647   4.785  10.286  0.0960  0.0939 -0.0579
  708MOL0     C95465   8.791   4.817  10.262 -1.3749  0.5186  0.4059
  708MOL0     C95466   8.872   4.699  10.209 -0.0098  0.1504  0.1840
  708MOL0     C95467   9.015   4.726  10.174  0.3052 -0.9692 -0.7431
  708MOL0     C95468   9.108   4.599  10.176 -1.2643  1.0258  0.2013
  708MOL0     O95469   9.152   4.559  10.309 -0.9781 -0.1287  0.0606
  708MOL0     C95470   9.266   4.487  10.302 -0.5547 -0.0895 -0.1219
  708MOL0     C95471   9.263   4.346  10.300 -0.5490  0.4026 -0.2989
  708MOL0     C95472   9.378   4.271  10.303 -0.5173  0.3725 -0.1347
  708MOL0     C95473   9.506   4.333  10.320 -0.0696 -0.5048  0.5082
  708MOL0     C95474   9.630   4.264  10.341  0.3265  0.3060  0.0420
  708MOL0     O95475   9.738   4.334  10.383 -0.1007  0.4034 -0.4987
  708MOL0     C95476   9.862   4.268  10.378  0.7794  0.0606 -0.3426
  708MOL0     C95477   9.939   4.280  10.486  0.0512 -0.2304 -0.3005
  708MOL0     C95478  10.062   4.223  10.489  1.2961 -0.3447 -0.2217
  708MOL0     C95479  10.097   4.129  10.395 -0.1106 -0.0764  0.0665
  708MOL0     O95480  10.227   4.078  10.407  0.2424  0.3598 -0.7062
  708MOL0     C95481  10.257   3.973  10.318 -0.2063  0.1352 -0.5682
  708MOL0     C95482  10.381   3.908  10.388  0.2817 -0.0496  0.4225
  708MOL0     C95483  10.450   3.803  10.302 -0.3929 -0.3350  0.0638
  708MOL0     C95484  10.519   3.856  10.176  0.3647 -0.2635  0.3233
  708MOL0     C95485  10.593   3.740  10.113 -0.4249  0.5925  0.4344
  708MOL0     C95486  10.513   3.611  10.088 -0.4737 -0.1376 -0.4522
  708MOL0     C95487  10.583   3.499  10.008  0.5183  0.1417 -0.4018
  708MOL0     C95488  10.481   3.403   9.950  0.0763  0.6160 -0.6289
  708MOL0    Cl95489  10.388   3.492   9.834  0.0665 -0.5370  0.4481
  708MOL0     C95490  10.016   4.103  10.287  0.6511 -0.0436  0.4627
  708MOL0     C95491   9.895   4.174  10.281  0.0534 -1.9375  0.2795
  708MOL0     O95492   9.620   4.144  10.326 -0.4848 -0.7482 -0.2857
  708MOL0     C95493   9.507   4.471  10.328  0.4836 -0.6130  0.7530
  708MOL0     C95494   9.393   4.547  10.310  0.0953  0.5742  0.5715
  708MOL0     N95495   8.601   4.655  10.304  0.2689 -0.3120  0.1482
  708MOL0     N95496   8.473   4.660  10.342  0.3849 -0.4536 -0.0321
  708MOL0     C95497   7.267   4.804  10.250  0.2914  0.2875 -0.6317
  708MOL0     C95498   7.136   4.790  10.286  0.0656 -0.2513 -0.2577
  708MOL0     C95499   6.694   4.820  10.320 -0.3423 -0.0471  0.1811
  708MOL0     C95500   6.595   4.840  10.228  0.5838 -0.8432  0.1031
  708MOL0     C95501   6.461   4.825  10.251 -0.1151  0.5850 -1.2685
  708MOL0     C95502   6.414   4.782  10.371  0.2209 -0.4655  0.2945
  708MOL0     O95503   6.281   4.767  10.413 -0.3773  1.0080  0.2826
  708MOL0     C95504   6.175   4.755  10.318  0.6947  0.6473 -0.0466
  708MOL0     C95505   6.171   4.605  10.289  0.2565 -0.9753 -0.1581
  708MOL0     C95506   6.039   4.569  10.220  0.0782  0.0954 -0.4335
  708MOL0     C95507   6.035   4.428  10.154 -0.4383  0.1019  0.7431
  708MOL0     C95508   5.900   4.384  10.110  1.4238 -0.0954  0.4198
  708MOL0     C95509   5.790   4.336  10.084  0.0151  0.3607  0.3973
  708MOL0     C95510   6.516   4.760  10.471  0.1046  0.1686 -0.1435
  708MOL0     C95511   6.651   4.781  10.450  0.1563 -0.8566 -0.4642
  708MOL0     C95512   6.743   4.752  10.570  1.1118 -0.1494 -0.3108
  708MOL0     H95513   7.044   5.113  10.352 -2.1803 -1.0880 -2.9665
  708MOL0     H95514   7.297   5.146  10.294  0.0579  1.6074  0.4258
  708MOL0     H95515   7.555   4.947  10.385 -0.1682  0.5580  0.3918
  708MOL0     H95516   7.524   4.779  10.332  0.9392  1.6706  3.5419
  708MOL0     H95517   7.707   4.981  10.206 -3.1535  1.3639  3.0388
  708MOL0     H95518   7.656   4.834  10.114  0.9970 -1.9430 -0.2929
  708MOL0     H95519   7.753   4.691  10.238  0.5733  0.4106  1.3401
  708MOL0     H95520   7.778   4.799  10.380  1.3538 -0.5193  0.5423
  708MOL0     H95521   7.914   4.813  10.111 -0.2946 -0.4371 -0.3176
  708MOL0     H95522   7.931   4.923  10.252  1.0758  0.9395 -2.0639
  708MOL0     H95523   8.034   4.730  10.381 -0.3520  1.1437  0.2420
  708MOL0     H95524   8.016   4.637  10.240  2.0202 -0.1703 -1.8345
  708MOL0     H95525   8.230   4.714  10.208  0.4252  0.3332  1.2352
  708MOL0     H95526   8.146   4.842  10.119  2.7518  1.6033 -1.0521
  708MOL0     H95527   8.155   4.967  10.367  1.8620 -0.1091  2.2992
  708MOL0     H95528   8.292   4.967  10.257 -0.6322  1.7695  0.7631
  708MOL0     H95529   8.349   4.917  10.493  1.1741  1.0228 -0.6949
  708MOL0     H95530   8.266   4.751  10.461 -0.0505  0.2146  0.3649
  708MOL0     H95531   8.553   4.979  10.318 -0.6154 -0.6321 -3.6186
  708MOL0     H95532   8.804   4.893  10.184 -1.9014  0.5994  0.3863
  708MOL0     H95533   8.822   4.859  10.358  0.2445 -1.5054  0.8108
  708MOL0     H95534   8.871   4.619  10.284  1.2854 -0.5425 -0.5099
  708MOL0     H95535   8.827   4.664  10.115 -1.4776  2.2428  0.0546
  708MOL0     H95536   9.055   4.802  10.242  1.0292 -0.6498 -1.5013
  708MOL0     H95537   9.022   4.763  10.071 -1.2010 -1.2984 -0.9778
  708MOL0     H95538   9.192   4.606  10.106  1.6463 -4.0027  2.5809
  708MOL0     H95539   9.053   4.513  10.135  0.3774 -0.6770  1.4015
  708MOL0     H95540   9.163   4.311  10.276  0.2662 -0.4792 -2.7017
  708MOL0     H95541   9.373   4.164  10.292  3.9844 -0.0667 -0.0384
  708MOL0     H95542   9.906   4.350  10.562 -0.6656 -2.1846  1.2848
  708MOL0     H95543  10.145   4.246  10.556  0.5114  1.2980  0.2357
  708MOL0     H95544  10.171   3.906  10.317  0.7424 -1.2294  1.7430
  708MOL0     H95545  10.287   3.996  10.216  1.0055 -2.8005 -0.9734
  708MOL0     H95546  10.461   3.980  10.406  2.3562 -1.7660 -1.3354
  708MOL0     H95547  10.355   3.877  10.490  0.4563 -1.3808  0.0775
  708MOL0     H95548  10.527   3.752  10.360  1.1224 -0.4905 -2.0010
  708MOL0     H95549  10.372   3.731  10.275  0.3261 -0.8745 -0.6272
  708MOL0     H95550  10.595   3.932  10.196  0.8433 -0.9067  1.0261
  708MOL0     H95551  10.440   3.889  10.108  1.3527 -0.3434 -0.8896
  708MOL0     H95552  10.674   3.706  10.177 -1.2906 -1.5831  0.4614
  708MOL0     H95553  10.634   3.783  10.021 -1.7190 -0.3665 -0.6371
  708MOL0     H95554  10.486   3.559  10.180 -1.4079 -1.0018 -1.2009
  708MOL0     H95555  10.420   3.645  10.041 -0.3142 -1.2999 -1.6632
  708MOL0     H95556  10.657   3.454  10.076  0.6292 -1.4385 -1.5286
  708MOL0     H95557  10.644   3.542   9.928  2.0299 -1.6127 -0.2718
  708MOL0     H95558  10.527   3.318   9.899 -2.8805 -0.8578 -1.0834
  708MOL0     H95559  10.419   3.361  10.030  2.2864 -0.2151  0.7137
  708MOL0     H95560  10.050   4.047  10.201 -0.3338 -1.4317  0.9554
  708MOL0     H95561   9.826   4.162  10.197 -0.2324 -0.1800  0.2151
  708MOL0     H95562   9.591   4.534  10.353 -2.9629  5.2166 -0.4178
  708MOL0     H95563   9.399   4.652  10.339 -0.4520  0.1473  2.3850
  708MOL0     H95564   7.315   4.711  10.222  0.7160  1.0292 -2.5387
  708MOL0     H95565   7.090   4.692  10.298 -1.8436  0.4031 -1.7887
  708MOL0     H95566   6.623   4.873  10.129 -0.4613 -0.7525 -0.1715
  708MOL0     H95567   6.400   4.848  10.164  0.7258 -0.7562 -2.2424
  708MOL0     H95568   6.190   4.812  10.226  0.7509 -0.5513 -0.8100
  708MOL0     H95569   6.087   4.804  10.361 -0.6765 -0.4132 -1.5082
  708MOL0     H95570   6.189   4.553  10.383  2.0090  0.6757  0.4708
  708MOL0     H95571   6.243   4.573  10.213  1.3178 -0.0202  0.4156
  708MOL0     H95572   6.022   4.632  10.132  1.6955 -0.7346 -1.3653
  708MOL0     H95573   5.957   4.581  10.291  1.4530  1.1668  1.0535
  708MOL0     H95574   6.102   4.442  10.068  0.1187  1.4095  1.3531
  708MOL0     H95575   6.082   4.358  10.223  1.5774 -0.1493 -0.7892
  708MOL0     H95576   5.697   4.292  10.053 -1.5552  4.1015 -0.7906
  708MOL0     H95577   6.486   4.711  10.563 -0.1380 -0.4538 -0.5445
  708MOL0     H95578   6.836   4.697  10.554  1.7000  0.9490 -0.7645
  708MOL0     H95579   6.776   4.847  10.615 -0.6310  1.6413 -2.5611
  708MOL0     H95580   6.690   4.697  10.649  0.6262  0.8517  0.0885
  709MOL0     O95581   0.119   8.357   3.229  0.2948 -0.3959 -0.4037
  709MOL0     C95582   0.029   8.431   3.192  0.1990  0.3353  0.4208
  709MOL0     O95583  -0.102   8.405   3.206  0.1653  0.3135  0.4851
  709MOL0     C95584  -0.142   8.325   3.312  0.3113 -0.4911 -0.1747
  709MOL0     C95585  -0.271   8.258   3.316 -0.0574 -0.3856  1.2084
  709MOL0     C95586  -0.306   8.177   3.427 -1.4424 -1.0846  1.0108
  709MOL0     C95587  -0.220   8.156   3.538  0.4509  0.9288 -0.3403
  709MOL0     O95588  -0.275   8.079   3.638  0.0390 -0.0083 -0.0172
  709MOL0     C95589  -0.201   8.067   3.759  0.3699  1.1075 -0.0686
  709MOL0     C95590  -0.259   7.963   3.854 -0.1847 -0.0923 -0.1923
  709MOL0     C95591  -0.232   7.817   3.820  0.1524 -0.3857  0.7117
  709MOL0     C95592  -0.296   7.766   3.692  0.9211 -0.6331 -0.8380
  709MOL0     C95593  -0.254   7.632   3.637 -0.0697  0.5206 -0.2646
  709MOL0     C95594  -0.199   7.538   3.758 -0.0674  0.5982 -0.3545
  709MOL0     C95595  -0.179   7.390   3.712 -0.0317  0.0747 -0.5925
  709MOL0     C95596  -0.158   7.305   3.836  0.0500  0.2807  0.0507
  709MOL0     N95597  -0.015   7.255   3.832 -0.2634  0.2798 -1.1024
  709MOL0     C95598   0.024   7.123   3.835 -0.0874  0.5150  0.2533
  709MOL0     C95599   0.155   7.124   3.829  0.2198  0.3795  0.5214
  709MOL0     C95600   0.246   7.008   3.817  0.5103 -0.3304 -1.1423
  709MOL0     C95601   0.201   6.886   3.904 -1.5659 -0.2251 -0.4464
  709MOL0     C95602   0.316   6.776   3.920 -0.3876 -0.4964 -0.7610
  709MOL0     C95603   0.411   6.821   4.035  1.0170 -0.1743  0.1158
  709MOL0     O95604   0.532   6.753   4.037 -0.1145  0.0278 -0.0874
  709MOL0     C95605   0.626   6.800   4.125  0.5008  0.3056  0.7539
  709MOL0     C95606   0.610   6.870   4.244  0.1887 -0.1989 -0.1635
  709MOL0     C95607   0.716   6.894   4.336  0.3820 -0.0538 -0.4803
  709MOL0     C95608   0.848   6.871   4.307  0.0552  0.4087  0.2205
  709MOL0     C95609   0.958   6.910   4.389 -0.1520  0.5068 -0.5440
  709MOL0     O95610   1.067   6.838   4.381 -0.5155  0.1492 -0.3635
  709MOL0     C95611   1.182   6.895   4.444  0.4811  0.9093  0.0024
  709MOL0     C95612   1.220   7.030   4.432 -0.0257  0.2541  0.0408
  709MOL0     C95613   1.335   7.069   4.493 -0.2078 -0.0652 -0.8208
  709MOL0     C95614   1.410   6.987   4.576 -0.2918 -0.5250  0.3819
  709MOL0     O95615   1.521   7.027   4.643 -0.4015 -0.3658 -0.2690
  709MOL0     C95616   1.565   7.171   4.633  0.1025  0.1199  0.8896
  709MOL0     C95617   1.695   7.206   4.698 -0.0141  0.4632 -0.7807
  709MOL0     C95618   1.809   7.122   4.638 -0.9519 -0.0623  0.4370
  709MOL0     C95619   1.936   7.158   4.705  0.4994  0.8377 -0.0812
  709MOL0     C95620   2.064   7.099   4.636 -0.6869  0.1218 -0.1429
  709MOL0     C95621   2.192   7.133   4.717  0.7251  0.2507  0.0714
  709MOL0     C95622   2.261   7.272   4.698 -0.3099  0.4862 -0.0771
  709MOL0     C95623   2.413   7.268   4.683  0.3338  0.8007 -0.9162
  709MOL0    Cl95624   2.455   7.186   4.526  0.2063  0.2745 -0.3789
  709MOL0     C95625   1.363   6.858   4.598  0.7959 -0.6249 -0.2438
  709MOL0     C95626   1.255   6.806   4.522 -1.3269  0.1410 -0.8373
  709MOL0     O95627   0.931   6.991   4.473  0.1672  0.0670 -0.5220
  709MOL0     C95628   0.867   6.786   4.189 -0.1698  0.0830 -0.0544
  709MOL0     C95629   0.755   6.751   4.102 -0.7409  0.1722  0.7163
  709MOL0     N95630   0.199   7.247   3.852 -0.6141 -0.2003  0.1932
  709MOL0     N95631   0.098   7.329   3.847 -0.3607  0.3332 -0.3691
  709MOL0     C95632  -0.100   8.225   3.536 -0.1053  0.5158 -0.3747
  709MOL0     C95633  -0.075   8.313   3.431 -0.9947  0.6972 -0.1773
  709MOL0     C95634   0.063   8.548   3.107 -0.2367  0.1751  0.7449
  709MOL0     C95635   0.007   8.672   3.137  0.1628  0.5210 -0.3580
  709MOL0     C95636   0.030   8.779   3.063  0.3407 -0.4833 -0.5258
  709MOL0     C95637   0.119   8.777   2.950  0.7528 -0.0210 -0.2165
  709MOL0     O95638   0.148   8.893   2.892 -0.1662 -0.4433  0.0417
  709MOL0     C95639   0.187   8.894   2.761  0.4414  0.4090 -0.4786
  709MOL0     C95640   0.173   9.034   2.696 -0.2237 -0.2933 -0.4009
  709MOL0     C95641   0.143   9.031   2.544 -0.1030 -0.6163 -0.2463
  709MOL0     C95642   0.277   9.044   2.466  0.5580  0.1440  0.6150
  709MOL0     C95643   0.234   9.033   2.326 -0.3899  0.7095  1.0503
  709MOL0     C95644   0.207   9.011   2.206  0.4520  0.1968 -0.4321
  709MOL0     C95645   0.170   8.659   2.915  0.9181  0.0895 -0.5217
  709MOL0     C95646   0.150   8.543   3.000  0.4599  0.1323  0.3153
  709MOL0     C95647   0.217   8.415   2.955  0.0198  0.1624 -0.1701
  709MOL0     H95648  -0.337   8.273   3.231  0.7710  0.3388  0.6765
  709MOL0     H95649  -0.407   8.140   3.418 -1.1108 -1.8764  0.4241
  709MOL0     H95650  -0.102   8.031   3.730 -0.9384 -0.7253 -2.6654
  709MOL0     H95651  -0.192   8.160   3.816 -2.7295  1.3431  0.2170
  709MOL0     H95652  -0.357   7.992   3.893  0.0082 -2.2301  2.1688
  709MOL0     H95653  -0.210   7.980   3.950  1.1335 -1.7124 -0.5304
  709MOL0     H95654  -0.276   7.762   3.904  0.0934 -2.5306 -0.6737
  709MOL0     H95655  -0.124   7.805   3.809 -0.2150 -1.8616 -1.8653
  709MOL0     H95656  -0.405   7.762   3.698  0.7593  0.9855 -2.0468
  709MOL0     H95657  -0.278   7.841   3.615  0.1739  1.8341  1.2643
  709MOL0     H95658  -0.343   7.587   3.592  0.6116  0.1671 -1.2957
  709MOL0     H95659  -0.169   7.646   3.569  0.4129  0.6544  0.3595
  709MOL0     H95660  -0.099   7.573   3.787  0.0686 -1.4499  1.9689
  709MOL0     H95661  -0.267   7.548   3.843 -1.6996 -1.1283 -1.3733
  709MOL0     H95662  -0.094   7.390   3.642 -0.4427 -0.7500 -1.1018
  709MOL0     H95663  -0.264   7.347   3.658 -0.5214  1.4113 -0.9320
  709MOL0     H95664  -0.168   7.360   3.930 -0.3417  1.8426 -0.8652
  709MOL0     H95665  -0.236   7.229   3.824 -3.0504  3.2339  0.1415
  709MOL0     H95666  -0.035   7.032   3.845 -0.2981  0.7053  0.7627
  709MOL0     H95667   0.258   6.988   3.710  0.9163 -1.6887 -0.8618
  709MOL0     H95668   0.343   7.052   3.842 -0.2874  2.4859 -2.5624
  709MOL0     H95669   0.159   6.909   4.002 -0.7207 -1.6505  0.2730
  709MOL0     H95670   0.128   6.829   3.846 -1.3181 -2.5709  1.4135
  709MOL0     H95671   0.381   6.763   3.833  0.0104  2.3749 -1.0080
  709MOL0     H95672   0.267   6.681   3.943  0.5350 -0.3194  2.3938
  709MOL0     H95673   0.369   6.799   4.134  0.7198 -0.0917  0.0100
  709MOL0     H95674   0.427   6.930   4.036 -0.2472  0.0291  1.0414
  709MOL0     H95675   0.512   6.893   4.284  0.0943  0.9693 -1.0297
  709MOL0     H95676   0.686   6.938   4.430 -1.0910 -1.0936 -0.4350
  709MOL0     H95677   1.169   7.100   4.368 -1.0932  1.4653  2.1198
  709MOL0     H95678   1.364   7.173   4.494 -0.1146 -0.0697  0.8620
  709MOL0     H95679   1.569   7.196   4.527 -1.5814  2.6594  1.3389
  709MOL0     H95680   1.488   7.230   4.684  2.0315  1.1325  2.7803
  709MOL0     H95681   1.719   7.309   4.671  2.1574  0.2030 -0.0911
  709MOL0     H95682   1.687   7.193   4.807  2.2245  1.7726 -0.3854
  709MOL0     H95683   1.805   7.013   4.648  2.3702 -0.0855  3.6363
  709MOL0     H95684   1.812   7.140   4.530 -2.4465 -2.5358 -0.0972
  709MOL0     H95685   1.933   7.130   4.811 -1.4267  1.7610  0.1568
  709MOL0     H95686   1.949   7.266   4.720  0.4947  0.8423 -0.1092
  709MOL0     H95687   2.071   7.127   4.531 -2.1907 -2.4412 -1.0240
  709MOL0     H95688   2.057   6.990   4.632  1.4570 -0.0545 -0.2869
  709MOL0     H95689   2.168   7.116   4.823  0.2402 -1.7688 -0.3132
  709MOL0     H95690   2.268   7.056   4.699  2.0342  0.7341  2.9597
  709MOL0     H95691   2.258   7.326   4.793  2.4719 -0.2373  0.5043
  709MOL0     H95692   2.200   7.322   4.622  0.3206 -1.9397 -2.3286
  709MOL0     H95693   2.465   7.363   4.693  1.4772 -0.0261  4.0034
  709MOL0     H95694   2.443   7.198   4.762  3.7924  2.3622 -0.6687
  709MOL0     H95695   1.424   6.804   4.670  3.0919  1.0863 -0.7932
  709MOL0     H95696   1.231   6.703   4.544  1.1681 -0.0027  1.9565
  709MOL0     H95697   0.963   6.746   4.158  0.3525  1.0260  0.3052
  709MOL0     H95698   0.778   6.690   4.016 -0.2200 -0.5985  1.3786
  709MOL0     H95699  -0.044   8.230   3.629  0.9650  0.8704 -1.0140
  709MOL0     H95700   0.012   8.376   3.444  1.3877 -1.6594 -3.1906
  709MOL0     H95701  -0.060   8.671   3.223  0.8400  1.1200  0.1948
  709MOL0     H95702  -0.016   8.871   3.098 -1.3625 -2.0465  1.6041
  709MOL0     H95703   0.129   8.819   2.706  1.6929  1.3570 -3.3145
  709MOL0     H95704   0.292   8.865   2.745  0.0147 -1.3296 -0.3145
  709MOL0     H95705   0.241   9.112   2.732  0.4358 -0.9583 -0.1642
  709MOL0     H95706   0.076   9.072   2.730 -0.8530 -0.7827 -1.5890
  709MOL0     H95707   0.070   9.111   2.527 -2.1573 -2.4871 -0.7075
  709MOL0     H95708   0.096   8.937   2.514 -0.3334 -0.9917  1.2217
  709MOL0     H95709   0.313   9.145   2.489 -1.0339  0.4216  2.0380
  709MOL0     H95710   0.354   8.971   2.495  1.8535  0.0859 -2.6057
  709MOL0     H95711   0.170   8.976   2.112 -2.0398 -0.9606  0.8968
  709MOL0     H95712   0.236   8.651   2.828  0.1523  0.9511 -1.2011
  709MOL0     H95713   0.143   8.334   2.950  1.7980 -1.6618  1.1341
  709MOL0     H95714   0.285   8.433   2.872  2.2392 -1.3550  1.1933
  709MOL0     H95715   0.292   8.376   3.025  1.2908  0.9237 -1.0716
  710MOL0     O95716   6.195   9.024   4.761 -0.1254  0.3034  0.0826
  710MOL0     C95717   6.152   9.088   4.663  0.7245 -0.6336  0.4780
  710MOL0     O95718   6.218   9.194   4.600 -0.2445  0.1965 -0.3785
  710MOL0     C95719   6.350   9.222   4.632 -0.3020 -0.1541 -0.1780
  710MOL0     C95720   6.441   9.121   4.660  0.3104  0.8345  0.0125
  710MOL0     C95721   6.584   9.153   4.672  0.6589  0.3257  0.7266
  710MOL0     C95722   6.620   9.286   4.655 -0.3022 -0.1909  0.5896
  710MOL0     O95723   6.746   9.339   4.660  0.6898  0.5509  0.1386
  710MOL0     C95724   6.860   9.269   4.701  0.1215 -0.4015 -0.4899
  710MOL0     C95725   6.979   9.368   4.720  0.2810 -0.4187 -0.0638
  710MOL0     C95726   6.949   9.486   4.815 -1.0508 -0.5233  0.4031
  710MOL0     C95727   7.086   9.558   4.852  0.1244  0.1153 -0.2600
  710MOL0     C95728   7.071   9.621   4.993  0.3382 -0.1044 -0.0004
  710MOL0     C95729   7.204   9.683   5.048  0.5229 -0.9691 -0.1973
  710MOL0     C95730   7.191   9.732   5.192  0.9763  0.3958 -0.1492
  710MOL0     C95731   7.315   9.792   5.257 -0.4977 -0.3835  0.6922
  710MOL0     N95732   7.449   9.729   5.228  0.0407  0.6253  0.3651
  710MOL0     C95733   7.514   9.638   5.305  0.2004 -0.4009 -0.0936
  710MOL0     C95734   7.637   9.616   5.252 -0.5950  0.4777 -0.1864
  710MOL0     C95735   7.750   9.517   5.275 -0.9530 -0.2790  0.3300
  710MOL0     C95736   7.715   9.365   5.282  0.7372  0.3902 -0.1690
  710MOL0     C95737   7.841   9.275   5.270  0.5772  0.8726  0.8897
  710MOL0     C95738   7.790   9.123   5.253  0.4637 -0.4797 -0.2939
  710MOL0     O95739   7.892   9.028   5.236  0.2929 -0.1462 -0.0487
  710MOL0     C95740   7.960   9.035   5.114 -0.1752  0.8332 -0.2099
  710MOL0     C95741   8.092   8.995   5.119 -0.3777 -0.8200 -0.2063
  710MOL0     C95742   8.175   8.985   5.006 -0.6693 -0.2747  0.0247
  710MOL0     C95743   8.124   9.021   4.876 -0.2789  0.3439 -0.1727
  710MOL0     C95744   8.207   9.001   4.753 -0.5155 -0.4137  0.9116
  710MOL0     O95745   8.150   9.042   4.637 -0.2184  0.5378 -0.4094
  710MOL0     C95746   8.214   9.038   4.517 -1.0115  0.2909  0.5941
  710MOL0     C95747   8.186   8.932   4.433  0.4790  1.1005  0.2433
  710MOL0     C95748   8.248   8.916   4.306  0.8953 -0.3508 -0.1883
  710MOL0     C95749   8.340   9.010   4.263 -0.1440 -0.5741  0.1111
  710MOL0     O95750   8.407   9.014   4.145  0.5995 -0.0228 -0.0137
  710MOL0     C95751   8.435   8.891   4.074  1.0533 -0.2870 -0.5336
  710MOL0     C95752   8.570   8.905   4.014 -0.6206 -0.8532 -0.0451
  710MOL0     C95753   8.683   8.937   4.111 -0.0808 -0.2692 -0.1238
  710MOL0     C95754   8.816   8.915   4.036  0.0920 -0.2903  0.5417
  710MOL0     C95755   8.933   8.960   4.130  0.3797  0.1831 -0.0274
  710MOL0     C95756   9.070   8.953   4.062 -0.2947 -0.5839  0.4365
  710MOL0     C95757   9.172   9.058   4.116  0.4045  0.1342  0.2531
  710MOL0     C95758   9.304   9.074   4.044  0.3888  0.3714 -1.3325
  710MOL0    Cl95759   9.396   8.919   4.019  0.5042  0.2952 -0.1825
  710MOL0     C95760   8.372   9.121   4.346  1.3457  0.5044  0.9396
  710MOL0     C95761   8.301   9.135   4.469 -0.6390  0.4037 -0.0896
  710MOL0     O95762   8.314   8.945   4.761  0.3390 -0.0260  0.2041
  710MOL0     C95763   7.987   9.070   4.872 -0.2421 -0.4507  0.3907
  710MOL0     C95764   7.915   9.072   4.987 -0.0657 -0.6128 -0.4307
  710MOL0     N95765   7.646   9.702   5.147 -0.3076 -0.4520 -0.5107
  710MOL0     N95766   7.535   9.769   5.134  0.6140 -0.1224  0.3767
  710MOL0     C95767   6.523   9.383   4.621 -0.0867  0.8984  0.3773
  710MOL0     C95768   6.392   9.352   4.622 -0.0710  0.1411  0.9329
  710MOL0     C95769   6.013   9.065   4.610 -0.5587 -0.2129  0.0380
  710MOL0     C95770   5.961   9.157   4.515 -0.3452 -0.3576  0.0740
  710MOL0     C95771   5.827   9.159   4.483 -0.1787  0.3958  0.3630
  710MOL0     C95772   5.736   9.063   4.534 -0.1646 -0.9716 -0.2361
  710MOL0     O95773   5.602   9.079   4.499 -0.6555 -0.0843  0.2160
  710MOL0     C95774   5.511   8.972   4.538 -0.9800 -0.1970 -0.6878
  710MOL0     C95775   5.369   9.014   4.504 -0.4237 -0.0897 -0.0350
  710MOL0     C95776   5.365   9.072   4.364 -0.3141 -0.4713  0.0262
  710MOL0     C95777   5.226   9.056   4.300  0.9027 -0.8047 -0.1387
  710MOL0     C95778   5.130   9.164   4.336  0.2163  0.6023 -0.0659
  710MOL0     C95779   5.066   9.263   4.359 -0.6487 -0.3974 -0.0014
  710MOL0     C95780   5.789   8.958   4.614 -0.4831 -0.6563  0.0377
  710MOL0     C95781   5.923   8.959   4.647  0.3600  0.0286 -0.4310
  710MOL0     C95782   5.964   8.840   4.732  0.5885  0.0093  0.1369
  710MOL0     H95783   6.413   9.018   4.680  0.5583  0.5430 -1.1072
  710MOL0     H95784   6.655   9.074   4.695 -1.2641 -0.9553  2.6444
  710MOL0     H95785   6.838   9.221   4.797  2.1838 -3.0195 -1.2047
  710MOL0     H95786   6.891   9.190   4.633  0.3308  0.2452 -1.1565
  710MOL0     H95787   7.004   9.409   4.621  1.0387 -1.0180 -0.1269
  710MOL0     H95788   7.066   9.309   4.750 -2.0760 -3.1782  1.8703
  710MOL0     H95789   6.907   9.442   4.906 -2.4716 -1.1169 -0.5031
  710MOL0     H95790   6.882   9.560   4.768  0.4498 -1.5791 -3.8434
  710MOL0     H95791   7.172   9.490   4.862  0.5367  0.5785 -0.6063
  710MOL0     H95792   7.111   9.629   4.773  0.2227  0.7002  0.2914
  710MOL0     H95793   6.977   9.677   4.997 -0.0608 -0.7328 -0.3408
  710MOL0     H95794   7.048   9.538   5.061 -0.0881  1.7193  2.1867
  710MOL0     H95795   7.281   9.606   5.044  1.8537  0.3314 -1.1020
  710MOL0     H95796   7.240   9.761   4.980  2.6371 -1.2185  0.5566
  710MOL0     H95797   7.169   9.651   5.262  1.4232  1.2345  0.9814
  710MOL0     H95798   7.103   9.796   5.196  0.7798  0.1667 -0.6808
  710MOL0     H95799   7.332   9.892   5.216 -1.0860  0.4667  2.4210
  710MOL0     H95800   7.315   9.800   5.367  1.0679 -2.0266  0.8550
  710MOL0     H95801   7.472   9.588   5.392 -0.9980 -0.1301 -0.5089
  710MOL0     H95802   7.829   9.529   5.201 -0.8756  0.0529  0.4683
  710MOL0     H95803   7.801   9.538   5.369  2.0892 -1.4506 -0.9454
  710MOL0     H95804   7.670   9.332   5.377 -0.8104  0.6909 -0.7728
  710MOL0     H95805   7.639   9.344   5.206 -1.2465  2.3702  1.1398
  710MOL0     H95806   7.895   9.289   5.364  4.1489 -1.2602 -0.6457
  710MOL0     H95807   7.910   9.305   5.190  2.3931  0.7507  2.3527
  710MOL0     H95808   7.725   9.121   5.165 -0.4437 -0.3191  0.3638
  710MOL0     H95809   7.734   9.095   5.342 -1.6178 -1.1424 -1.7328
  710MOL0     H95810   8.122   8.959   5.217 -1.7940 -0.5278  0.3651
  710MOL0     H95811   8.280   8.960   5.019 -0.5852  0.3027  0.5047
  710MOL0     H95812   8.115   8.862   4.475  0.5316  0.3880 -0.8186
  710MOL0     H95813   8.222   8.839   4.235  3.1881 -0.2684 -1.1918
  710MOL0     H95814   8.425   8.808   4.144  1.7593  2.1561  2.7337
  710MOL0     H95815   8.365   8.879   3.990 -0.0272  2.7333 -0.2057
  710MOL0     H95816   8.585   8.808   3.966  2.2105  0.1603 -1.4261
  710MOL0     H95817   8.572   8.976   3.931  0.2499  0.3817  0.9954
  710MOL0     H95818   8.670   9.042   4.140 -1.4723  0.0197 -1.6174
  710MOL0     H95819   8.697   8.874   4.199  1.2571  0.1454 -0.0202
  710MOL0     H95820   8.811   8.976   3.945 -0.3258  2.4457  2.2942
  710MOL0     H95821   8.842   8.811   4.013  3.0191 -0.1684  2.7317
  710MOL0     H95822   8.936   8.902   4.222 -0.3491 -0.4457 -0.3943
  710MOL0     H95823   8.900   9.062   4.154 -1.1419 -0.2999 -0.0080
  710MOL0     H95824   9.102   8.850   4.078 -1.6335 -1.0765  0.1205
  710MOL0     H95825   9.061   8.980   3.956  0.0420  2.3322  1.0677
  710MOL0     H95826   9.179   9.039   4.224 -1.2240  1.6232  0.6724
  710MOL0     H95827   9.122   9.155   4.117 -1.1893 -0.6174 -0.8777
  710MOL0     H95828   9.286   9.122   3.947 -1.9807  0.8552 -0.7128
  710MOL0     H95829   9.362   9.145   4.104  2.3533 -2.1670 -0.0348
  710MOL0     H95830   8.429   9.209   4.315 -0.0307  0.4632 -2.0201
  710MOL0     H95831   8.323   9.219   4.534 -0.3417  0.5879 -0.4243
  710MOL0     H95832   7.937   9.104   4.782  0.3689  0.5317  0.4068
  710MOL0     H95833   7.814   9.111   4.982 -0.5784 -1.4766  1.7546
  710MOL0     H95834   6.554   9.487   4.619 -0.1013  0.9184  0.9532
  710MOL0     H95835   6.311   9.420   4.597 -2.5068 -2.4764  1.2328
  710MOL0     H95836   6.022   9.241   4.483 -1.5147 -0.1963 -1.9209
  710MOL0     H95837   5.787   9.240   4.422 -0.6407 -1.0204 -1.2886
  710MOL0     H95838   5.526   8.939   4.642  1.6415 -1.1685 -1.2750
  710MOL0     H95839   5.529   8.886   4.472  0.2259 -0.9906  0.6064
  710MOL0     H95840   5.325   9.090   4.569 -1.1487  1.1235 -1.8534
  710MOL0     H95841   5.312   8.921   4.509  0.3426 -0.4877  2.5601
  710MOL0     H95842   5.437   9.030   4.294  1.9021  1.8374  0.7626
  710MOL0     H95843   5.390   9.179   4.364 -2.1045 -0.0158 -0.6279
  710MOL0     H95844   5.228   9.067   4.191  1.1661  2.4829  0.1170
  710MOL0     H95845   5.177   8.962   4.329 -1.5416  0.2248 -0.6931
  710MOL0     H95846   5.006   9.349   4.382 -0.3937 -0.4195  0.7850
  710MOL0     H95847   5.721   8.885   4.656 -2.3269  2.1318  2.2040
  710MOL0     H95848   6.010   8.871   4.826 -0.6533  1.1286  0.4127
  710MOL0     H95849   5.881   8.775   4.760  0.1262 -0.8340 -2.8666
  710MOL0     H95850   6.021   8.780   4.661 -2.5660 -0.3994 -2.2627
  711MOL0     O95851   5.985   5.747   7.067  0.1232 -0.2176  0.6475
  711MOL0     C95852   5.955   5.783   6.952  0.9700  0.0420 -0.1428
  711MOL0     O95853   6.039   5.810   6.845  0.0938 -0.8561 -0.2126
  711MOL0     C95854   6.167   5.766   6.862 -0.0143  0.9537 -0.4611
  711MOL0     C95855   6.201   5.634   6.841 -0.7362 -0.6453 -0.5158
  711MOL0     C95856   6.333   5.590   6.838 -0.2386 -0.2513  0.2034
  711MOL0     C95857   6.435   5.680   6.850  0.9285 -0.0886  0.0786
  711MOL0     O95858   6.565   5.651   6.838 -0.3462 -0.0109 -1.2938
  711MOL0     C95859   6.608   5.523   6.789  0.0171 -1.0148  0.4398
  711MOL0     C95860   6.750   5.536   6.749 -0.3085 -0.4002  1.0871
  711MOL0     C95861   6.809   5.409   6.684 -0.0199 -0.3867  0.1702
  711MOL0     C95862   6.962   5.428   6.672  0.3210 -0.7178  0.1841
  711MOL0     C95863   7.022   5.300   6.616  0.4082  0.1540  0.0789
  711MOL0     C95864   7.171   5.314   6.591  0.6904 -0.1240 -0.0000
  711MOL0     C95865   7.231   5.195   6.525  0.4028  0.7546 -0.9377
  711MOL0     C95866   7.232   5.074   6.616 -0.1070  0.4008 -0.3327
  711MOL0     N95867   7.321   4.971   6.566  0.4542 -0.0958 -0.6790
  711MOL0     C95868   7.299   4.899   6.453  0.0918 -0.1116  0.2933
  711MOL0     C95869   7.420   4.837   6.442 -0.6320  0.4500  0.4731
  711MOL0     C95870   7.451   4.722   6.343 -0.1022  0.0282  0.5576
  711MOL0     C95871   7.425   4.766   6.194 -0.4192  0.2015 -1.1944
  711MOL0     C95872   7.521   4.883   6.154 -0.3630 -0.2114 -0.6472
  711MOL0     C95873   7.542   4.893   6.005  0.3055  0.5881 -1.1666
  711MOL0     O95874   7.658   4.976   5.977 -0.0069  0.5130  0.7446
  711MOL0     C95875   7.788   4.922   5.965 -0.0009 -0.1730 -0.2924
  711MOL0     C95876   7.832   4.801   6.021 -0.9007  0.7274 -0.0824
  711MOL0     C95877   7.963   4.748   5.995 -0.3532  0.2624 -0.0810
  711MOL0     C95878   8.056   4.828   5.926 -0.6530  0.5187 -0.0844
  711MOL0     C95879   8.196   4.787   5.908  0.3654  0.3816  0.4591
  711MOL0     O95880   8.275   4.874   5.844  0.9246  0.2568  0.0349
  711MOL0     C95881   8.412   4.851   5.827  0.7215  0.2897 -0.1592
  711MOL0     C95882   8.462   4.728   5.784  0.9580 -1.1599 -0.1330
  711MOL0     C95883   8.594   4.708   5.759 -0.2365  0.8736 -0.4100
  711MOL0     C95884   8.687   4.816   5.773  0.3317  0.4059  0.6853
  711MOL0     O95885   8.825   4.819   5.753 -0.1120  0.2032  0.0951
  711MOL0     C95886   8.898   4.697   5.717  0.0216  0.0816 -0.1010
  711MOL0     C95887   9.046   4.736   5.706  0.2222 -0.0908  0.5261
  711MOL0     C95888   9.125   4.622   5.642 -0.2190 -0.5364 -0.8713
  711MOL0     C95889   9.257   4.675   5.574  0.4006 -0.0313  0.4354
  711MOL0     C95890   9.350   4.555   5.552  0.1420  0.0543  0.2215
  711MOL0     C95891   9.497   4.594   5.518 -0.2426 -0.3225 -0.1380
  711MOL0     C95892   9.577   4.648   5.629  0.8427  0.0938 -0.8651
  711MOL0     C95893   9.671   4.535   5.681 -0.3018 -0.1184  0.5956
  711MOL0    Cl95894   9.762   4.589   5.826 -0.2423  0.0877 -0.4611
  711MOL0     C95895   8.634   4.936   5.814  0.4739 -0.2201  0.6936
  711MOL0     C95896   8.501   4.957   5.846 -0.9215  0.3276 -0.6466
  711MOL0     O95897   8.239   4.681   5.962  0.3463  0.3692 -0.3476
  711MOL0     C95898   8.010   4.950   5.866 -0.7809 -0.3515 -0.6417
  711MOL0     C95899   7.878   4.982   5.884  0.8541  0.3797 -0.2237
  711MOL0     N95900   7.503   4.861   6.549 -0.4667 -0.3289  0.9956
  711MOL0     N95901   7.448   4.953   6.618 -0.4397 -0.5723 -0.1886
  711MOL0     C95902   6.399   5.813   6.868  0.3266 -0.5100  0.8050
  711MOL0     C95903   6.266   5.863   6.873  0.0606  0.8388 -0.4849
  711MOL0     C95904   5.814   5.792   6.910 -0.4046 -0.7333 -0.0753
  711MOL0     C95905   5.782   5.739   6.788  0.1330  0.2892  0.1543
  711MOL0     C95906   5.651   5.753   6.744  0.6634 -0.1529 -0.8328
  711MOL0     C95907   5.551   5.825   6.819 -1.0957  0.5181 -0.3455
  711MOL0     O95908   5.425   5.836   6.768 -0.4172 -0.3638 -0.1654
  711MOL0     C95909   5.384   5.968   6.754 -0.0206  0.2927 -0.2957
  711MOL0     C95910   5.262   5.992   6.666  0.3989 -0.6269  0.0353
  711MOL0     C95911   5.132   5.938   6.721  0.2371 -0.8528  0.0306
  711MOL0     C95912   5.012   5.992   6.632 -0.0329 -0.3288 -0.5298
  711MOL0     C95913   4.885   5.935   6.684  0.3369  0.0539  0.1092
  711MOL0     C95914   4.779   5.883   6.721 -0.2855  0.0238  0.2987
  711MOL0     C95915   5.591   5.883   6.938  0.3923  0.3007 -0.7576
  711MOL0     C95916   5.712   5.861   6.990 -0.2652  0.4307 -0.9515
  711MOL0     C95917   5.732   5.916   7.122  0.0031  0.6175  0.0524
  711MOL0     H95918   6.129   5.554   6.825  0.4803 -2.0260  0.6890
  711MOL0     H95919   6.356   5.484   6.836 -2.3516 -0.7669 -0.1594
  711MOL0     H95920   6.589   5.440   6.858 -1.0293 -2.6454 -1.7043
  711MOL0     H95921   6.562   5.496   6.694 -2.0201 -1.1728  1.4244
  711MOL0     H95922   6.807   5.576   6.833 -0.7226  3.5449 -0.2817
  711MOL0     H95923   6.750   5.619   6.678  0.2377  1.5806  3.2780
  711MOL0     H95924   6.764   5.394   6.586 -0.9440  2.0451  0.1334
  711MOL0     H95925   6.781   5.319   6.739 -0.1711 -2.0694 -2.5288
  711MOL0     H95926   6.975   5.503   6.594 -0.8852 -0.0940  0.5529
  711MOL0     H95927   7.008   5.454   6.768 -0.2259  0.5409  0.1206
  711MOL0     H95928   7.009   5.220   6.690  1.3189  2.5923  3.1034
  711MOL0     H95929   6.979   5.276   6.518  0.3923  2.7481 -0.6127
  711MOL0     H95930   7.185   5.404   6.529  0.1862  0.8506  1.2672
  711MOL0     H95931   7.224   5.340   6.683 -1.6118  2.4092  0.7189
  711MOL0     H95932   7.328   5.231   6.489  0.2890  1.9756 -0.0886
  711MOL0     H95933   7.179   5.167   6.433  0.3256  1.8139 -1.2244
  711MOL0     H95934   7.262   5.101   6.717  0.4056  1.5358 -0.7741
  711MOL0     H95935   7.135   5.023   6.622 -0.8516  1.7847 -0.1177
  711MOL0     H95936   7.209   4.888   6.392  0.3688  0.4044 -0.2183
  711MOL0     H95937   7.556   4.690   6.352  0.2032  0.5764 -0.7771
  711MOL0     H95938   7.389   4.633   6.353 -0.3859  0.2228  0.5323
  711MOL0     H95939   7.435   4.680   6.127 -2.3735  0.0112 -1.3098
  711MOL0     H95940   7.321   4.801   6.188 -0.5780  0.2058  1.0534
  711MOL0     H95941   7.617   4.877   6.205  0.4040  1.7788 -1.7500
  711MOL0     H95942   7.469   4.972   6.190  1.8601  1.3178 -1.0112
  711MOL0     H95943   7.455   4.941   5.959  0.5641  1.0668 -1.1622
  711MOL0     H95944   7.558   4.798   5.954  0.3084  0.0892 -0.2569
  711MOL0     H95945   7.770   4.744   6.089  0.6687  0.1955  0.9600
  711MOL0     H95946   7.999   4.653   6.033  5.4284  2.2099  0.3785
  711MOL0     H95947   8.392   4.648   5.760  2.0244 -2.3890  0.6831
  711MOL0     H95948   8.628   4.610   5.726 -0.3884  1.3171 -1.9982
  711MOL0     H95949   8.897   4.615   5.789  3.5453 -0.9477 -1.0405
  711MOL0     H95950   8.861   4.675   5.616 -1.9983  3.2007 -0.1739
  711MOL0     H95951   9.054   4.821   5.637 -0.2172 -2.1164 -2.1719
  711MOL0     H95952   9.092   4.762   5.802  0.2606  0.0609  0.4683
  711MOL0     H95953   9.146   4.559   5.728 -1.3311  1.6835  1.1239
  711MOL0     H95954   9.076   4.569   5.559  0.4536 -2.3713 -0.1550
  711MOL0     H95955   9.288   4.757   5.639 -3.8955  2.1006  0.1691
  711MOL0     H95956   9.216   4.722   5.484 -0.3306 -0.9088  0.2968
  711MOL0     H95957   9.310   4.488   5.476  2.8799 -2.8736  1.1351
  711MOL0     H95958   9.349   4.491   5.641  0.6745 -1.4380 -0.8255
  711MOL0     H95959   9.549   4.508   5.475  0.0731 -0.5397  0.6412
  711MOL0     H95960   9.473   4.667   5.440 -0.9754 -0.0031  0.3760
  711MOL0     H95961   9.512   4.681   5.711 -0.8355 -2.8833 -0.8474
  711MOL0     H95962   9.628   4.740   5.600  0.0614  1.5765  2.0279
  711MOL0     H95963   9.608   4.450   5.709 -0.3666 -0.4399 -0.4900
  711MOL0     H95964   9.739   4.502   5.602 -2.5576  1.8043 -2.3390
  711MOL0     H95965   8.701   5.021   5.815  1.4983 -0.7902 -3.0408
  711MOL0     H95966   8.462   5.053   5.878  0.2612  0.1443  1.5444
  711MOL0     H95967   8.081   5.013   5.814 -2.1795  0.8162 -1.1961
  711MOL0     H95968   7.826   5.065   5.837  1.4470  1.0209  0.2377
  711MOL0     H95969   6.479   5.885   6.882 -2.0972  2.7740 -0.9970
  711MOL0     H95970   6.232   5.964   6.893 -0.1144  0.3268  2.1230
  711MOL0     H95971   5.859   5.692   6.728  0.1928  2.4149 -1.5674
  711MOL0     H95972   5.623   5.704   6.651 -0.4098 -0.1707 -0.5141
  711MOL0     H95973   5.471   6.018   6.711  2.1878 -2.8653  0.1304
  711MOL0     H95974   5.360   6.022   6.846  1.8716  1.8793 -0.6760
  711MOL0     H95975   5.283   5.947   6.569 -0.9331  1.2333 -1.1710
  711MOL0     H95976   5.258   6.101   6.662  2.1212 -0.4348  1.8258
  711MOL0     H95977   5.113   5.978   6.822  0.9307  1.5879 -0.7439
  711MOL0     H95978   5.122   5.829   6.724 -1.2297 -0.8037 -1.5083
  711MOL0     H95979   5.009   6.101   6.626  1.5273 -0.2277 -0.1299
  711MOL0     H95980   5.029   5.965   6.528  1.1551 -1.3016 -0.1107
  711MOL0     H95981   4.677   5.854   6.733 -2.4981  2.9305 -6.4113
  711MOL0     H95982   5.511   5.941   6.984  0.6456 -1.1109  1.6039
  711MOL0     H95983   5.709   5.849   7.206  2.7716 -1.0167 -0.3577
  711MOL0     H95984   5.838   5.940   7.137  0.7212 -2.1366 -0.1818
  711MOL0     H95985   5.669   6.004   7.135  0.8929  1.5151 -1.4468
  712MOL0     O95986   8.317   4.121   8.395  0.6199 -0.0955 -0.1484
  712MOL0     C95987   8.294   4.022   8.468 -0.0856  0.4771 -0.0812
  712MOL0     O95988   8.386   3.947   8.546  0.3416 -0.0613  0.7760
  712MOL0     C95989   8.518   3.978   8.520  0.1016  0.2684  0.5551
  712MOL0     C95990   8.578   4.104   8.538  0.0402 -0.5557 -0.3326
  712MOL0     C95991   8.710   4.133   8.510 -0.5329 -0.4204 -0.3855
  712MOL0     C95992   8.794   4.023   8.474 -0.3167 -0.5145 -0.0367
  712MOL0     O95993   8.934   4.029   8.454 -0.2479 -0.1363 -0.1860
  712MOL0     C95994   8.999   4.152   8.491 -0.7198 -0.5264 -0.7878
  712MOL0     C95995   9.144   4.154   8.472 -0.0776  0.3318  0.1500
  712MOL0     C95996   9.228   4.108   8.592 -0.2461 -0.5979  0.7501
  712MOL0     C95997   9.383   4.099   8.569  0.2065  0.5810  0.7711
  712MOL0     C95998   9.445   4.090   8.702 -0.3041 -0.3640  0.3722
  712MOL0     C95999   9.597   4.063   8.682  0.2722  0.2758 -0.1444
  712MOL0     C96000   9.679   4.042   8.813  0.3374 -0.4840  0.4627
  712MOL0     C96001   9.727   3.899   8.857  0.1202 -0.1261  0.4289
  712MOL0     N96002   9.846   3.861   8.777  0.4753 -0.1863  0.2889
  712MOL0     C96003   9.973   3.921   8.801  0.6660 -1.4172  0.3071
  712MOL0     C96004  10.054   3.872   8.710  1.0114 -0.7290 -0.0345
  712MOL0     C96005  10.196   3.899   8.690 -0.5205  0.3914 -0.1679
  712MOL0     C96006  10.262   3.775   8.760  0.1969 -0.0344  0.2875
  712MOL0     C96007  10.402   3.769   8.722 -0.2183 -0.3890 -0.1725
  712MOL0     C96008  10.464   3.650   8.790 -0.1890  0.2131 -0.2313
  712MOL0     O96009  10.519   3.683   8.922  0.2623 -0.0445 -0.1486
  712MOL0     C96010  10.639   3.624   8.958 -0.3569  0.9103  0.4502
  712MOL0     C96011  10.675   3.487   8.942  0.5813 -0.5211 -0.0206
  712MOL0     C96012  10.805   3.431   8.971  0.3102  0.0325  0.0022
  712MOL0     C96013  10.901   3.518   9.026 -0.1492 -0.4521  1.2453
  712MOL0     C96014  11.040   3.472   9.050 -0.1115 -0.2128 -0.2465
  712MOL0     O96015  11.070   3.345   9.041 -0.2043 -0.3836  0.3329
  712MOL0     C96016  11.196   3.303   9.073  0.1440 -0.1893 -0.4202
  712MOL0     C96017  11.292   3.294   8.968 -0.5235  0.3577 -0.8128
  712MOL0     C96018  11.424   3.252   8.994 -0.9515  0.0359 -0.5341
  712MOL0     C96019  11.458   3.221   9.131 -0.0161  0.1051  0.7489
  712MOL0     O96020  11.574   3.176   9.177 -0.9508 -0.4740  0.0995
  712MOL0     C96021  11.684   3.172   9.079 -0.2684 -0.1140 -0.4955
  712MOL0     C96022  11.816   3.143   9.144  0.3977  0.4334  0.3689
  712MOL0     C96023  11.932   3.154   9.038  1.1324 -0.3557 -0.1154
  712MOL0     C96024  12.069   3.149   9.112  0.3888 -0.6023 -0.0865
  712MOL0     C96025  12.168   3.065   9.028 -0.1470 -0.3630 -0.4775
  712MOL0     C96026  12.188   3.115   8.892  0.1555  0.3931 -0.2536
  712MOL0     C96027  12.296   3.040   8.817  0.2986  0.2431  0.2226
  712MOL0     C96028  12.308   3.100   8.680  0.9083  0.9539 -0.0372
  712MOL0    Cl96029  12.165   3.052   8.585 -0.2971 -0.0340 -0.1344
  712MOL0     C96030  11.358   3.225   9.236 -0.3127  0.0888  0.1307
  712MOL0     C96031  11.234   3.262   9.201  0.1700 -1.0789  0.3592
  712MOL0     O96032  11.115   3.557   9.087  0.3421 -0.1902  0.1969
  712MOL0     C96033  10.862   3.653   9.050 -0.5939  0.6307 -0.5898
  712MOL0     C96034  10.732   3.704   9.026  0.8892 -0.4045  0.0365
  712MOL0     N96035   9.970   3.797   8.622  0.0524 -0.4994  0.0147
  712MOL0     N96036   9.849   3.789   8.659  0.0332 -0.9105  0.5155
  712MOL0     C96037   8.732   3.897   8.447 -0.1614 -0.4194  0.0851
  712MOL0     C96038   8.595   3.875   8.464 -0.3601 -0.4161 -0.2330
  712MOL0     C96039   8.156   3.962   8.477 -0.0479  0.2452  0.6305
  712MOL0     C96040   8.124   3.863   8.576  0.2861 -0.1923  0.3528
  712MOL0     C96041   7.996   3.797   8.585 -0.7059  0.8484 -0.0221
  712MOL0     C96042   7.892   3.832   8.498 -0.1153 -0.4288  0.7691
  712MOL0     O96043   7.772   3.761   8.491  0.2748 -0.0298  0.0490
  712MOL0     C96044   7.735   3.681   8.604  0.2340 -0.1239  0.0206
  712MOL0     C96045   7.719   3.763   8.733 -0.5319  0.2365 -0.1136
  712MOL0     C96046   7.606   3.874   8.731 -0.7017 -0.3592  0.0452
  712MOL0     C96047   7.597   3.949   8.870  0.2049  1.0405  0.4208
  712MOL0     C96048   7.481   4.031   8.885  0.7334 -0.1038 -0.1564
  712MOL0     C96049   7.379   4.102   8.909  0.1108  0.3787  1.2106
  712MOL0     C96050   7.916   3.932   8.408 -0.3172 -0.7350 -0.0091
  712MOL0     C96051   8.044   3.991   8.387 -0.3111  0.4654 -0.1136
  712MOL0     C96052   8.069   4.089   8.269  0.4924  0.8552  0.2714
  712MOL0     H96053   8.521   4.188   8.575  0.0069 -0.5759 -0.3399
  712MOL0     H96054   8.749   4.234   8.516 -0.4497 -0.3769 -1.4977
  712MOL0     H96055   8.954   4.234   8.435 -1.6469  1.0603  2.0461
  712MOL0     H96056   8.981   4.160   8.599  1.9600 -1.8089 -0.1594
  712MOL0     H96057   9.174   4.257   8.452  2.1475 -0.1312  0.7313
  712MOL0     H96058   9.170   4.095   8.383 -1.6142 -1.2885  0.7231
  712MOL0     H96059   9.191   4.012   8.629 -2.7799 -0.4645 -1.1695
  712MOL0     H96060   9.217   4.175   8.678  1.3059 -2.9343  2.9150
  712MOL0     H96061   9.411   4.008   8.515  0.4032 -0.5741  2.7033
  712MOL0     H96062   9.414   4.185   8.510  0.2447 -0.7532 -1.2484
  712MOL0     H96063   9.420   4.179   8.760  1.6414  1.6409 -1.6420
  712MOL0     H96064   9.408   4.000   8.752 -0.9887  0.3009  1.1030
  712MOL0     H96065   9.608   3.976   8.617  0.5231 -1.0368  1.5972
  712MOL0     H96066   9.644   4.146   8.629 -2.3104  0.9221 -1.6286
  712MOL0     H96067   9.630   4.107   8.887  1.5055  3.2021 -1.7128
  712MOL0     H96068   9.775   4.094   8.800  0.5164 -1.3048 -1.8381
  712MOL0     H96069   9.756   3.898   8.963  0.6515  1.2757  0.3273
  712MOL0     H96070   9.655   3.819   8.839  0.6248 -0.8620  1.6174
  712MOL0     H96071  10.013   3.989   8.875  2.1167 -1.0643 -0.7615
  712MOL0     H96072  10.216   3.902   8.583 -0.0362  3.3480 -0.0521
  712MOL0     H96073  10.219   3.999   8.728  1.9532 -0.6217  1.2176
  712MOL0     H96074  10.245   3.781   8.868  1.9826 -2.0523  0.7534
  712MOL0     H96075  10.215   3.677   8.741  1.2477 -0.4941 -0.0371
  712MOL0     H96076  10.451   3.864   8.748  2.3000 -2.0801  1.8679
  712MOL0     H96077  10.404   3.747   8.615  1.3187 -1.6228  0.0655
  712MOL0     H96078  10.543   3.615   8.723 -0.2025  2.3696 -1.4793
  712MOL0     H96079  10.394   3.567   8.800  1.4573 -1.4052 -1.4991
  712MOL0     H96080  10.593   3.419   8.923 -0.6259 -0.0298  2.8778
  712MOL0     H96081  10.829   3.326   8.954 -1.5550  0.0267 -3.7256
  712MOL0     H96082  11.263   3.317   8.866 -1.8660 -0.6083 -0.6897
  712MOL0     H96083  11.496   3.237   8.914  0.1208 -2.4540  0.7714
  712MOL0     H96084  11.663   3.087   9.014  0.9319 -1.2554  0.5601
  712MOL0     H96085  11.702   3.267   9.027 -0.6450  1.0500  1.4121
  712MOL0     H96086  11.839   3.221   9.218  0.4192  0.2195  0.5889
  712MOL0     H96087  11.816   3.043   9.190  1.4893  0.6378  0.8617
  712MOL0     H96088  11.921   3.076   8.963 -0.3759  0.9816 -1.3516
  712MOL0     H96089  11.917   3.251   8.990  0.4104 -0.4862 -0.1658
  712MOL0     H96090  12.058   3.110   9.214  2.3480 -0.5577  0.1814
  712MOL0     H96091  12.110   3.249   9.129  0.4763 -0.7165  0.3830
  712MOL0     H96092  12.130   2.962   9.027  0.0724 -0.5413  2.1196
  712MOL0     H96093  12.261   3.069   9.085 -1.0990 -1.0873  1.2104
  712MOL0     H96094  12.091   3.103   8.842 -1.3784 -1.9395  2.9085
  712MOL0     H96095  12.216   3.220   8.906  0.0044  0.4387 -0.2897
  712MOL0     H96096  12.279   2.933   8.801  0.2627  0.5294 -1.9511
  712MOL0     H96097  12.392   3.036   8.870  0.2681 -1.2245  0.2187
  712MOL0     H96098  12.310   3.210   8.679  2.4792  0.9433 -1.6484
  712MOL0     H96099  12.405   3.077   8.637  1.3002 -0.8777  1.7042
  712MOL0     H96100  11.389   3.193   9.335 -1.2227 -3.1826 -0.5338
  712MOL0     H96101  11.163   3.260   9.283  0.4483  0.5243  0.6673
  712MOL0     H96102  10.940   3.724   9.078 -0.0647  0.2087 -0.9689
  712MOL0     H96103  10.702   3.803   9.061  0.2413 -0.9230  1.0013
  712MOL0     H96104   8.789   3.816   8.402  0.2829 -0.1447  0.1422
  712MOL0     H96105   8.550   3.786   8.424  1.9652 -1.0669 -1.5977
  712MOL0     H96106   8.193   3.827   8.651 -1.1162 -2.5086  0.6290
  712MOL0     H96107   7.988   3.716   8.657  1.9190  0.5869  0.0825
  712MOL0     H96108   7.819   3.612   8.611  0.7199  0.5914  1.5503
  712MOL0     H96109   7.640   3.635   8.575  1.0166 -2.7605  1.3360
  712MOL0     H96110   7.814   3.809   8.761  1.1851 -0.3459 -4.2398
  712MOL0     H96111   7.712   3.690   8.815 -1.3384  0.8805  0.4081
  712MOL0     H96112   7.506   3.831   8.718 -2.4270  3.6827 -1.6806
  712MOL0     H96113   7.632   3.946   8.654  0.8263  1.4480  2.1286
  712MOL0     H96114   7.615   3.870   8.944  1.3859  0.9243  0.0292
  712MOL0     H96115   7.684   4.014   8.882  1.4474 -0.9337  3.2382
  712MOL0     H96116   7.286   4.153   8.923 -1.0242 -0.9596 -0.9420
  712MOL0     H96117   7.837   3.971   8.344  0.9862  2.4699  0.1100
  712MOL0     H96118   7.982   4.095   8.203 -0.0118 -1.9367  0.5498
  712MOL0     H96119   8.072   4.194   8.298 -2.8332  0.9586  0.6314
  712MOL0     H96120   8.161   4.059   8.217 -0.0793  1.2434 -0.9736
  713MOL0     O96121   0.528  10.995   4.559 -0.5756 -0.8598  0.2179
  713MOL0     C96122   0.468  10.958   4.456 -0.3794 -0.6965 -0.5482
  713MOL0     O96123   0.528  10.880   4.365 -0.4452  0.4558 -0.6005
  713MOL0     C96124   0.656  10.820   4.382  0.3637 -0.2601 -0.0132
  713MOL0     C96125   0.678  10.711   4.293  0.3647 -0.1476  0.0412
  713MOL0     C96126   0.807  10.647   4.279 -0.0083 -0.5662  0.0694
  713MOL0     C96127   0.918  10.684   4.368  0.4740 -0.8269  0.6339
  713MOL0     O96128   1.045  10.637   4.363 -0.6316  0.0341 -0.8560
  713MOL0     C96129   1.066  10.531   4.271 -0.9885 -0.4691 -0.4167
  713MOL0     C96130   1.205  10.484   4.285 -0.1327  1.1427 -0.0001
  713MOL0     C96131   1.304  10.589   4.251 -1.7127 -0.3529  0.2028
  713MOL0     C96132   1.450  10.521   4.235 -0.3424  0.5974 -0.0191
  713MOL0     C96133   1.559  10.625   4.212  0.6355  0.0194  0.3002
  713MOL0     C96134   1.693  10.557   4.220  0.0060  0.4687  0.2302
  713MOL0     C96135   1.796  10.666   4.220  0.0319  0.4065 -0.3091
  713MOL0     C96136   1.937  10.623   4.171 -0.0309 -0.4586  0.4150
  713MOL0     N96137   1.932  10.546   4.044 -0.2678  0.2095 -0.5706
  713MOL0     C96138   2.007  10.429   4.039 -0.7302 -0.8050 -0.1323
  713MOL0     C96139   2.027  10.409   3.912  0.0896 -0.2720  0.5063
  713MOL0     C96140   2.093  10.290   3.844  0.1759 -0.2698 -0.3325
  713MOL0     C96141   2.233  10.298   3.799  0.0859 -0.7299  0.8516
  713MOL0     C96142   2.238  10.389   3.669  0.7716 -0.8328 -0.1344
  713MOL0     C96143   2.376  10.392   3.601  0.2185 -0.1891  0.3782
  713MOL0     O96144   2.385  10.261   3.543 -0.5236 -0.1224 -0.0678
  713MOL0     C96145   2.503  10.225   3.481 -1.0906 -0.4531 -0.1475
  713MOL0     C96146   2.511  10.093   3.432  0.3693 -0.2230  0.4864
  713MOL0     C96147   2.633  10.047   3.377  0.3666 -0.0847 -0.2566
  713MOL0     C96148   2.737  10.134   3.345 -0.6810  0.3014 -0.2007
  713MOL0     C96149   2.863  10.084   3.283  0.4071 -0.0056 -0.2379
  713MOL0     O96150   2.961  10.176   3.269  0.7924 -0.2027  0.4515
  713MOL0     C96151   3.079  10.125   3.217  0.4287 -0.2616 -0.0667
  713MOL0     C96152   3.105  10.130   3.083 -0.6099 -1.0897  0.6340
  713MOL0     C96153   3.226  10.090   3.027  0.3143  0.3468  0.4706
  713MOL0     C96154   3.331  10.036   3.114  0.1790 -1.6416 -0.1795
  713MOL0     O96155   3.450   9.983   3.073 -0.2046 -0.1349 -0.2715
  713MOL0     C96156   3.481   9.964   2.934  0.4905 -1.5607 -0.7244
  713MOL0     C96157   3.618   9.903   2.921 -0.1539  0.8254 -0.1196
  713MOL0     C96158   3.734   9.998   2.949 -0.7898 -0.5698  0.1978
  713MOL0     C96159   3.776  10.096   2.839  0.1761 -0.5518 -0.9431
  713MOL0     C96160   3.908  10.175   2.879 -0.1873 -0.2781 -0.1088
  713MOL0     C96161   3.936  10.282   2.763  0.4300  0.3302  0.0736
  713MOL0     C96162   4.063  10.365   2.794 -0.2806 -0.3390 -0.5505
  713MOL0     C96163   4.029  10.511   2.808 -0.8217 -0.0095 -0.5107
  713MOL0    Cl96164   4.157  10.630   2.849  0.3240  0.0087  0.3972
  713MOL0     C96165   3.297  10.031   3.248 -0.1274  0.3083 -0.4519
  713MOL0     C96166   3.179  10.077   3.305  0.2396  0.4370  0.6801
  713MOL0     O96167   2.873   9.966   3.271  0.4129 -0.3376  0.3933
  713MOL0     C96168   2.727  10.267   3.390 -0.0077 -0.4979  0.2250
  713MOL0     C96169   2.620  10.308   3.463  0.3838 -1.1995 -0.3343
  713MOL0     N96170   1.972  10.514   3.836 -1.0170  0.1307 -0.7429
  713MOL0     N96171   1.919  10.599   3.920 -0.0256  0.4220 -0.3232
  713MOL0     C96172   0.896  10.802   4.448  1.0169 -0.0110  0.2423
  713MOL0     C96173   0.772  10.870   4.456 -0.2959 -0.0041 -0.5123
  713MOL0     C96174   0.321  10.981   4.436 -0.4902 -0.4068  0.2626
  713MOL0     C96175   0.252  11.013   4.559 -0.5549 -0.6290  0.9886
  713MOL0     C96176   0.116  11.043   4.560 -0.5494 -0.6075 -0.6581
  713MOL0     C96177   0.048  11.039   4.435  0.9808  0.1397  0.4081
  713MOL0     O96178  -0.085  11.045   4.450 -0.0097 -0.6712 -0.0452
  713MOL0     C96179  -0.175  10.988   4.362  0.2487  0.3950  1.4966
  713MOL0     C96180  -0.320  10.982   4.426 -0.4724 -0.2013  0.1664
  713MOL0     C96181  -0.408  10.918   4.327 -0.1996  1.3737 -0.5895
  713MOL0     C96182  -0.548  10.879   4.374  0.5713  0.2018  0.8530
  713MOL0     C96183  -0.625  10.999   4.407 -0.2509 -0.1345  0.0329
  713MOL0     C96184  -0.684  11.092   4.448 -0.0730 -0.8819  0.4217
  713MOL0     C96185   0.115  10.997   4.317  1.2019 -0.0557 -0.0331
  713MOL0     C96186   0.245  10.965   4.315 -0.9245  0.2023  0.2833
  713MOL0     C96187   0.315  10.944   4.178 -0.1171 -0.5600  0.0947
  713MOL0     H96188   0.608  10.656   4.230 -2.1146 -0.1179  2.5917
  713MOL0     H96189   0.820  10.561   4.214 -0.7634 -2.7633  2.6182
  713MOL0     H96190   0.999  10.445   4.282 -0.8617 -0.5347 -0.1437
  713MOL0     H96191   1.052  10.567   4.169  0.7220  2.7824  0.3835
  713MOL0     H96192   1.225  10.413   4.204  0.4510  0.2913  0.8652
  713MOL0     H96193   1.222  10.438   4.383  1.6736 -0.1714 -0.8703
  713MOL0     H96194   1.302  10.659   4.336 -1.5987 -0.4720  0.3056
  713MOL0     H96195   1.269  10.634   4.158 -1.7428 -0.4969  0.1453
  713MOL0     H96196   1.476  10.469   4.327 -0.2303 -1.7360 -1.2906
  713MOL0     H96197   1.443  10.448   4.153  0.1004 -1.5928  1.8196
  713MOL0     H96198   1.540  10.681   4.120  2.5892 -0.5889 -0.5191
  713MOL0     H96199   1.555  10.696   4.295 -1.5503  2.0790 -1.4261
  713MOL0     H96200   1.701  10.490   4.306  0.0015  0.6177  0.3474
  713MOL0     H96201   1.707  10.501   4.128  1.6060  0.9483  0.1538
  713MOL0     H96202   1.787  10.711   4.319  1.1688  0.6713 -0.3096
  713MOL0     H96203   1.768  10.745   4.150  0.7944  0.8226 -0.1499
  713MOL0     H96204   1.995  10.716   4.158 -2.5330  0.8127 -3.3374
  713MOL0     H96205   1.975  10.561   4.253 -1.5317 -0.2762  1.2828
  713MOL0     H96206   2.043  10.371   4.124  1.0956  0.2187 -0.1507
  713MOL0     H96207   2.093  10.204   3.912 -1.9679  0.0358  0.1343
  713MOL0     H96208   2.024  10.260   3.764  0.1727 -0.1276 -0.3829
  713MOL0     H96209   2.298  10.343   3.874 -1.0346  2.0339  0.2983
  713MOL0     H96210   2.273  10.203   3.764 -0.0548  0.3546 -2.7709
  713MOL0     H96211   2.208  10.492   3.689 -0.6548 -1.0239 -1.1523
  713MOL0     H96212   2.159  10.352   3.603 -0.4442 -0.1615  0.9034
  713MOL0     H96213   2.447  10.408   3.682 -0.2496 -0.2639  0.8095
  713MOL0     H96214   2.385  10.472   3.526  1.1603 -0.1073  0.5645
  713MOL0     H96215   2.431  10.020   3.440  0.3291 -0.2622 -0.2036
  713MOL0     H96216   2.651   9.940   3.374 -0.5957 -0.3095  1.3353
  713MOL0     H96217   3.033  10.188   3.026  0.5003 -0.3410 -0.0580
  713MOL0     H96218   3.244  10.099   2.921 -0.9213 -0.3463  0.1837
  713MOL0     H96219   3.404   9.901   2.889 -0.6168 -1.3316  0.7647
  713MOL0     H96220   3.486  10.063   2.888  0.9265 -1.7273 -1.0311
  713MOL0     H96221   3.629   9.833   3.004 -1.8319  0.5069 -0.1302
  713MOL0     H96222   3.630   9.855   2.823  2.4660 -1.2880  1.1296
  713MOL0     H96223   3.708  10.069   3.028  2.0709  2.9569 -1.6878
  713MOL0     H96224   3.816   9.936   2.985  0.4490  0.3148 -0.9625
  713MOL0     H96225   3.692  10.166   2.836 -1.0141 -1.6885  2.0560
  713MOL0     H96226   3.801  10.058   2.740  2.4082  3.5553 -2.2007
  713MOL0     H96227   3.990  10.105   2.899 -0.5367 -0.8241 -0.5767
  713MOL0     H96228   3.895  10.229   2.974  3.0416 -1.4580  1.1467
  713MOL0     H96229   3.956  10.237   2.666  1.1837  3.0306 -1.1234
  713MOL0     H96230   3.842  10.338   2.754 -0.3690 -0.9859 -0.0269
  713MOL0     H96231   4.138  10.363   2.713  0.7473  0.8676  0.3209
  713MOL0     H96232   4.114  10.335   2.886  0.7888 -2.1011 -1.6566
  713MOL0     H96233   3.982  10.540   2.714  0.3128  0.9028 -0.8094
  713MOL0     H96234   3.951  10.510   2.885 -1.8766 -0.8605 -1.5512
  713MOL0     H96235   3.375   9.996   3.316 -0.3635 -2.3827 -1.4325
  713MOL0     H96236   3.184  10.081   3.413  0.8196  0.1202  0.6657
  713MOL0     H96237   2.807  10.339   3.385 -1.7893  1.7011  1.5830
  713MOL0     H96238   2.627  10.405   3.512  1.0510 -0.8662 -1.0566
  713MOL0     H96239   0.986  10.845   4.489  1.0027  0.0381  0.2217
  713MOL0     H96240   0.772  10.958   4.519  0.2640 -0.0944 -0.3796
  713MOL0     H96241   0.311  11.018   4.650  1.4116 -1.2968 -0.1971
  713MOL0     H96242   0.065  11.066   4.653 -0.4848  1.4115 -1.0675
  713MOL0     H96243  -0.139  10.887   4.341 -0.8746  0.4704 -1.2651
  713MOL0     H96244  -0.180  11.040   4.265 -1.1490 -0.7481  0.9080
  713MOL0     H96245  -0.356  11.084   4.443 -3.0975 -1.3415  1.9522
  713MOL0     H96246  -0.313  10.921   4.516  0.2128  1.6349  1.4194
  713MOL0     H96247  -0.361  10.826   4.292 -1.2178  0.7633 -0.3866
  713MOL0     H96248  -0.418  10.986   4.242  1.5210  1.2512 -0.9193
  713MOL0     H96249  -0.593  10.812   4.300  1.5563 -2.2566  2.3531
  713MOL0     H96250  -0.551  10.818   4.464  4.8669 -0.9541  0.4295
  713MOL0     H96251  -0.731  11.183   4.478  0.0254 -1.1559  1.4510
  713MOL0     H96252   0.068  10.982   4.221  1.9429 -2.9477 -0.0088
  713MOL0     H96253   0.391  11.020   4.159 -0.0226 -0.8587 -0.7983
  713MOL0     H96254   0.349  10.840   4.173 -3.3092 -1.7245  0.3114
  713MOL0     H96255   0.253  10.947   4.088 -0.4931 -2.1298  0.2707
  714MOL0     O96256   4.215   6.914   4.094 -0.1250 -0.2691 -0.0804
  714MOL0     C96257   4.219   6.931   4.217  0.7733  0.1047  0.1028
  714MOL0     O96258   4.324   6.923   4.295  0.7382 -0.1289 -0.3761
  714MOL0     C96259   4.442   6.900   4.233 -0.2897  0.4344  0.1959
  714MOL0     C96260   4.523   7.005   4.183  0.0147  0.3538  0.2841
  714MOL0     C96261   4.629   6.976   4.095  0.1174  0.2718  0.3972
  714MOL0     C96262   4.665   6.840   4.072 -0.4514  0.9831 -0.2342
  714MOL0     O96263   4.769   6.819   3.985 -0.6708  0.3419  0.3198
  714MOL0     C96264   4.833   6.692   3.976 -1.2146  0.0719 -0.0085
  714MOL0     C96265   4.932   6.673   4.084 -0.4431  0.0116 -0.4126
  714MOL0     C96266   5.051   6.765   4.085  0.2032  1.2579 -0.0578
  714MOL0     C96267   5.127   6.756   3.951  0.4218  1.4098 -0.8718
  714MOL0     C96268   5.271   6.810   3.965  0.7204  0.2592 -0.2001
  714MOL0     C96269   5.358   6.792   3.831  0.8420  0.3690  0.2568
  714MOL0     C96270   5.490   6.871   3.843  0.1740  0.5030 -0.5400
  714MOL0     C96271   5.577   6.849   3.715 -0.0722  0.4413  0.0517
  714MOL0     N96272   5.716   6.892   3.749  0.3370 -0.8894 -0.3689
  714MOL0     C96273   5.828   6.811   3.758 -0.2014 -0.7139 -0.8261
  714MOL0     C96274   5.916   6.877   3.831 -0.0296 -0.7613  0.2124
  714MOL0     C96275   6.054   6.826   3.869  0.0801 -0.2141  0.6152
  714MOL0     C96276   6.156   6.927   3.827  0.1298  0.6187  0.3796
  714MOL0     C96277   6.299   6.879   3.858 -0.5920 -0.0964 -0.0287
  714MOL0     C96278   6.413   6.937   3.764  0.1515  0.6193 -0.9897
  714MOL0     O96279   6.534   6.875   3.811  0.0505 -0.4410 -0.1671
  714MOL0     C96280   6.657   6.908   3.752 -0.0463  0.4013 -0.3987
  714MOL0     C96281   6.672   6.958   3.629 -0.2017  0.7033  0.4142
  714MOL0     C96282   6.797   6.975   3.574  0.9526  0.5191 -0.9518
  714MOL0     C96283   6.917   6.968   3.651 -0.1512  0.4978 -0.1172
  714MOL0     C96284   7.043   6.999   3.577 -0.4688  0.4205  0.5827
  714MOL0     O96285   7.038   7.024   3.438 -0.0059 -0.8252  0.3387
  714MOL0     C96286   7.163   7.051   3.378 -0.9874 -0.2264  0.1317
  714MOL0     C96287   7.162   7.131   3.259 -0.2063  0.4471 -0.4913
  714MOL0     C96288   7.283   7.164   3.197  0.2430 -0.7076 -0.1996
  714MOL0     C96289   7.413   7.111   3.236  0.4819 -0.0370  0.1417
  714MOL0     O96290   7.532   7.151   3.178 -0.0992  0.4013 -0.4527
  714MOL0     C96291   7.648   7.088   3.226 -0.3916 -0.8060  0.6333
  714MOL0     C96292   7.759   7.102   3.126  0.4401  0.0190  0.2138
  714MOL0     C96293   7.891   7.041   3.150 -0.1128  0.8108 -0.1913
  714MOL0     C96294   7.960   7.115   3.266  0.1330  0.5288 -0.3041
  714MOL0     C96295   8.110   7.141   3.254 -0.7182 -0.3325  1.7168
  714MOL0     C96296   8.174   7.007   3.259 -0.2330  0.5166  0.2674
  714MOL0     C96297   8.325   7.006   3.260 -0.1092  0.3115 -0.3676
  714MOL0     C96298   8.395   7.069   3.139  0.3760 -0.2847  0.8492
  714MOL0    Cl96299   8.573   7.046   3.140  0.1895 -0.3349 -0.5503
  714MOL0     C96300   7.410   7.029   3.347 -0.0531  0.3424 -0.0367
  714MOL0     C96301   7.289   7.000   3.410  0.1320  0.7230 -0.0675
  714MOL0     O96302   7.140   7.013   3.651  0.3851 -0.7538  0.3428
  714MOL0     C96303   6.898   6.932   3.789  0.7592 -0.1923  0.2858
  714MOL0     C96304   6.769   6.898   3.833  1.3845  0.4650  0.3648
  714MOL0     N96305   5.864   7.002   3.856 -0.1331  0.3313  0.2331
  714MOL0     N96306   5.751   7.017   3.797 -0.3580 -0.1589  0.2404
  714MOL0     C96307   4.589   6.733   4.129  0.2590 -0.3541  0.2690
  714MOL0     C96308   4.478   6.764   4.205  0.1344 -0.3350  0.2982
  714MOL0     C96309   4.089   6.962   4.285 -0.1830 -0.9352 -0.3011
  714MOL0     C96310   4.081   6.932   4.425 -0.2850 -0.3574  0.5016
  714MOL0     C96311   3.961   6.966   4.495 -0.4916  0.3583 -0.0158
  714MOL0     C96312   3.849   7.021   4.439 -0.3001 -0.2604  0.1679
  714MOL0     O96313   3.728   7.063   4.491 -0.2398 -0.1356  0.0789
  714MOL0     C96314   3.716   7.065   4.633 -0.5825 -0.2108 -0.9442
  714MOL0     C96315   3.598   7.147   4.681 -0.2607  0.1909  0.2577
  714MOL0     C96316   3.599   7.301   4.675  0.3384 -0.0058  0.2329
  714MOL0     C96317   3.671   7.362   4.798  0.4522 -0.4580  0.2507
  714MOL0     C96318   3.813   7.367   4.763 -0.7618  0.2859 -0.0434
  714MOL0     C96319   3.929   7.382   4.735  0.3472  0.1881 -0.8645
  714MOL0     C96320   3.859   7.046   4.307  0.5618  0.6450  0.4312
  714MOL0     C96321   3.968   7.012   4.225  0.8564 -0.8536 -0.2127
  714MOL0     C96322   3.968   7.042   4.079  0.2408 -0.0084  0.3828
  714MOL0     H96323   4.495   7.108   4.202 -1.1429  0.5475 -2.0359
  714MOL0     H96324   4.691   7.049   4.043  0.8867 -0.3589  0.4119
  714MOL0     H96325   4.761   6.610   3.980 -1.7157  0.5629  3.4157
  714MOL0     H96326   4.882   6.690   3.878 -2.6281  0.6830 -0.7628
  714MOL0     H96327   4.984   6.578   4.066  2.8058  1.8200 -1.5409
  714MOL0     H96328   4.884   6.661   4.182 -0.8889  2.3030 -0.2944
  714MOL0     H96329   5.122   6.731   4.161 -0.9860  1.3040  1.1181
  714MOL0     H96330   5.024   6.869   4.106 -2.8623  0.2771  1.4427
  714MOL0     H96331   5.132   6.652   3.916 -2.6555  0.8831 -0.0442
  714MOL0     H96332   5.080   6.817   3.873  0.4392  0.1823 -1.8804
  714MOL0     H96333   5.265   6.914   3.996 -1.8358 -0.5758  2.5647
  714MOL0     H96334   5.317   6.742   4.037 -1.1056 -0.2462  0.5356
  714MOL0     H96335   5.379   6.685   3.821  1.4001  0.1740  2.8232
  714MOL0     H96336   5.300   6.820   3.743  1.7814 -0.9365 -0.8233
  714MOL0     H96337   5.543   6.834   3.931  1.1428 -0.9092 -1.6569
  714MOL0     H96338   5.457   6.975   3.852  2.4029  1.2694 -0.5353
  714MOL0     H96339   5.579   6.743   3.691  1.1302  0.2664  0.8223
  714MOL0     H96340   5.530   6.903   3.632  2.9646 -2.2090 -3.7271
  714MOL0     H96341   5.835   6.707   3.728  1.1218 -0.5974 -0.9882
  714MOL0     H96342   6.046   6.825   3.978 -1.5451  1.5984  0.5678
  714MOL0     H96343   6.064   6.731   3.816 -1.7914 -0.7902  1.2230
  714MOL0     H96344   6.142   6.946   3.720 -0.1092 -1.2012  0.0629
  714MOL0     H96345   6.139   7.023   3.878  0.6412  0.5103  0.7587
  714MOL0     H96346   6.309   6.770   3.850  1.1995  0.0069  0.2388
  714MOL0     H96347   6.331   6.900   3.960 -1.3684 -0.3908  0.2797
  714MOL0     H96348   6.411   7.046   3.760 -1.0068  0.5775 -1.9346
  714MOL0     H96349   6.399   6.894   3.665  1.5925 -1.3257 -0.4343
  714MOL0     H96350   6.581   6.964   3.570  0.4096 -2.9525 -1.1944
  714MOL0     H96351   6.794   7.015   3.473  0.7714  0.2750 -1.0412
  714MOL0     H96352   7.066   7.178   3.240  0.3003  1.5896 -0.3443
  714MOL0     H96353   7.265   7.235   3.117 -1.1201  0.8980  1.4774
  714MOL0     H96354   7.678   7.122   3.325 -0.4858  0.4476  0.2395
  714MOL0     H96355   7.631   6.979   3.230 -1.7063 -0.7321 -1.6178
  714MOL0     H96356   7.712   7.062   3.036  2.2616 -1.4964 -0.1172
  714MOL0     H96357   7.765   7.209   3.103  2.3066 -0.0430  0.2602
  714MOL0     H96358   7.877   6.934   3.167  2.4780  0.4917  0.3685
  714MOL0     H96359   7.951   7.049   3.059  1.0390  2.3930  0.6637
  714MOL0     H96360   7.938   7.058   3.357  1.4463  1.1744  0.4520
  714MOL0     H96361   7.921   7.216   3.280  0.8725  0.5771  1.7581
  714MOL0     H96362   8.162   7.192   3.336  1.6339  0.8300 -0.3841
  714MOL0     H96363   8.128   7.193   3.160 -3.6095  0.6296  1.5969
  714MOL0     H96364   8.136   6.939   3.336  3.0689 -2.0774 -0.1665
  714MOL0     H96365   8.141   6.948   3.172  0.8228  0.0219  0.1827
  714MOL0     H96366   8.351   6.901   3.274 -1.2496  0.2739  2.1149
  714MOL0     H96367   8.358   7.061   3.349 -1.1105 -1.8800  1.4677
  714MOL0     H96368   8.360   7.026   3.044 -0.8790  2.1582  0.1425
  714MOL0     H96369   8.366   7.174   3.142  0.1178 -0.3766  2.4902
  714MOL0     H96370   7.497   6.977   3.385 -0.6441  0.6671  1.8701
  714MOL0     H96371   7.302   6.939   3.499  0.2682 -1.9409 -1.7821
  714MOL0     H96372   6.985   6.926   3.854  0.7199 -0.1047  0.3474
  714MOL0     H96373   6.767   6.871   3.938 -0.0878 -0.2716  0.1657
  714MOL0     H96374   4.616   6.628   4.126  2.1121 -0.0405  2.4012
  714MOL0     H96375   4.423   6.680   4.246  2.4637 -1.5526  1.1276
  714MOL0     H96376   4.156   6.887   4.488  1.8529 -0.0505 -1.6591
  714MOL0     H96377   3.958   6.939   4.600  0.5561 -0.5949 -0.2111
  714MOL0     H96378   3.806   7.113   4.674 -1.9593  2.1470 -0.5071
  714MOL0     H96379   3.711   6.963   4.672 -0.5959  0.4395  0.8514
  714MOL0     H96380   3.575   7.126   4.786  0.3472  1.1448  0.5982
  714MOL0     H96381   3.512   7.126   4.618  1.0670 -2.2020 -0.8808
  714MOL0     H96382   3.495   7.332   4.676  0.4222  0.3304 -0.4820
  714MOL0     H96383   3.654   7.333   4.585  1.5962 -0.1419  0.9248
  714MOL0     H96384   3.646   7.468   4.805 -0.5702 -0.6759  0.0256
  714MOL0     H96385   3.648   7.300   4.885 -1.2995 -0.5531 -0.2357
  714MOL0     H96386   4.032   7.402   4.716  0.2100  0.6907 -1.0942
  714MOL0     H96387   3.770   7.092   4.265 -0.1680 -1.2863 -0.2503
  714MOL0     H96388   4.059   7.092   4.044 -0.0280 -0.0130 -0.3422
  714MOL0     H96389   3.957   6.945   4.028  1.5148  0.2924 -0.5127
  714MOL0     H96390   3.878   7.097   4.053 -0.1576  0.4764  2.5984
  715MOL0     O96391   9.631  10.087   9.793  0.1012 -0.0853  0.2908
  715MOL0     C96392   9.725  10.093   9.876  0.3190  0.0557 -0.5229
  715MOL0     O96393   9.701  10.111  10.010 -0.0287 -0.3113  0.4556
  715MOL0     C96394   9.564  10.097  10.043  0.0993  0.2390 -0.1715
  715MOL0     C96395   9.499   9.992  10.100  0.4352 -0.3643  0.2135
  715MOL0     C96396   9.358   9.987  10.120 -0.0210 -0.5997 -0.3924
  715MOL0     C96397   9.284  10.102  10.084  0.0547  0.1375 -0.2484
  715MOL0     O96398   9.150  10.097  10.078  0.5140  0.4280  0.2415
  715MOL0     C96399   9.076   9.999  10.143 -0.5264  0.6277  0.1703
  715MOL0     C96400   8.921  10.023  10.128 -0.4125  0.3750  0.3636
  715MOL0     C96401   8.896  10.174  10.157  0.3759 -0.5953 -0.3186
  715MOL0     C96402   8.745  10.209  10.148  0.3590 -0.0962 -0.1343
  715MOL0     C96403   8.728  10.357  10.135 -0.2731 -0.2537 -0.3949
  715MOL0     C96404   8.583  10.397  10.150 -0.4151  0.0137 -0.3894
  715MOL0     C96405   8.576  10.552  10.117  0.3794 -0.4184 -0.5392
  715MOL0     C96406   8.660  10.645  10.199 -0.2699 -0.6536  0.4382
  715MOL0     N96407   8.630  10.627  10.342  0.0820  0.7960 -0.1893
  715MOL0     C96408   8.517  10.662  10.412 -0.7729  0.1663  1.0318
  715MOL0     C96409   8.536  10.617  10.543 -0.2620  0.2179  0.3282
  715MOL0     C96410   8.436  10.633  10.652 -0.2322 -0.3620  0.3292
  715MOL0     C96411   8.459  10.771  10.731  0.1928  0.6394  0.1781
  715MOL0     C96412   8.599  10.799  10.791  0.7183  0.8947  0.3123
  715MOL0     C96413   8.656  10.690  10.882 -0.6845  0.1654 -0.5266
  715MOL0     O96414   8.733  10.744  10.990  0.1690 -0.2650 -1.1080
  715MOL0     C96415   8.864  10.776  10.967  0.1909  0.2521 -0.8441
  715MOL0     C96416   8.933  10.846  11.070 -0.6695 -0.1163  0.0657
  715MOL0     C96417   9.072  10.883  11.063  0.1644  0.2247 -0.1920
  715MOL0     C96418   9.138  10.865  10.936  0.3489  1.0714  0.1841
  715MOL0     C96419   9.280  10.922  10.908  0.5700  0.2238 -0.3845
  715MOL0     O96420   9.344  10.966  11.014 -0.0393 -0.3544 -0.0893
  715MOL0     C96421   9.465  11.023  11.000 -0.0179 -0.2860 -0.4660
  715MOL0     C96422   9.500  11.124  10.902 -0.4527 -0.3275 -0.3639
  715MOL0     C96423   9.636  11.169  10.883 -0.4179 -0.2046  0.4756
  715MOL0     C96424   9.740  11.111  10.957 -0.4498 -0.4135  0.5338
  715MOL0     O96425   9.876  11.147  10.943  0.0586 -0.2630  0.1270
  715MOL0     C96426   9.910  11.256  10.858  0.5085 -0.4686 -0.1889
  715MOL0     C96427  10.059  11.272  10.864 -0.6957  0.6829  0.2819
  715MOL0     C96428  10.116  11.360  10.760 -0.2803 -0.4707  1.6437
  715MOL0     C96429  10.253  11.419  10.811 -0.0936  0.2912  1.0975
  715MOL0     C96430  10.240  11.530  10.924 -0.9449  0.3828  0.1322
  715MOL0     C96431  10.376  11.571  10.989 -0.3709  0.7819 -0.5487
  715MOL0     C96432  10.419  11.456  11.085 -0.2946 -0.0051  0.8453
  715MOL0     C96433  10.328  11.427  11.202  0.2572  0.1498 -1.0953
  715MOL0    Cl96434  10.434  11.320  11.305 -0.2710  0.6498 -0.2733
  715MOL0     C96435   9.700  11.017  11.052  0.1324  0.3422  0.0693
  715MOL0     C96436   9.567  10.980  11.081  0.0185 -0.0943 -0.0240
  715MOL0     O96437   9.318  10.937  10.792 -0.6057  0.0965  0.6104
  715MOL0     C96438   9.071  10.800  10.835 -0.6530 -0.4975 -0.6285
  715MOL0     C96439   8.943  10.754  10.852 -0.5952 -0.0417  0.3722
  715MOL0     N96440   8.660  10.554  10.546 -0.4551 -0.3266 -0.0110
  715MOL0     N96441   8.716  10.561  10.432 -0.0738  0.0878  0.4148
  715MOL0     C96442   9.349  10.214  10.037  0.2372  0.2002  1.0880
  715MOL0     C96443   9.488  10.212  10.020 -0.8269 -0.1813  0.7410
  715MOL0     C96444   9.868  10.102   9.844  0.6239  0.7620 -0.4578
  715MOL0     C96445   9.952  10.166   9.938 -0.4334 -0.0349  0.0073
  715MOL0     C96446  10.087  10.178   9.914  0.1214 -1.2038  0.5734
  715MOL0     C96447  10.150  10.131   9.797 -0.3755  0.5534 -1.5527
  715MOL0     O96448  10.280  10.129   9.772  0.0658  0.0381 -0.1401
  715MOL0     C96449  10.381  10.168   9.869 -0.4774  0.2062  0.5796
  715MOL0     C96450  10.510  10.153   9.772 -0.7430  0.3366  0.1499
  715MOL0     C96451  10.602  10.035   9.801  0.3631 -0.0708  1.0107
  715MOL0     C96452  10.710  10.069   9.911 -0.4005  0.0019  0.2395
  715MOL0     C96453  10.822   9.973   9.909  0.2084 -0.0666  0.1695
  715MOL0     C96454  10.901   9.895   9.936 -1.0692 -0.0416  0.9053
  715MOL0     C96455  10.066  10.064   9.702  0.5711  0.5247 -0.4786
  715MOL0     C96456   9.926  10.052   9.729  0.0902  0.6059  0.2394
  715MOL0     C96457   9.856   9.987   9.610 -0.7290  0.8052 -0.2298
  715MOL0     H96458   9.568   9.913  10.127  1.9245  1.1012  0.9405
  715MOL0     H96459   9.315   9.898  10.164  0.3304 -1.0526 -0.9490
  715MOL0     H96460   9.089   9.900  10.099 -0.6927  0.9494 -0.6173
  715MOL0     H96461   9.099   9.987  10.249  2.9949 -0.7549 -0.6166
  715MOL0     H96462   8.864   9.961  10.197 -2.0784  2.9948  1.5294
  715MOL0     H96463   8.896  10.000  10.024  2.3830  0.1035 -0.3258
  715MOL0     H96464   8.946  10.237  10.083  0.0020 -0.9850 -0.9117
  715MOL0     H96465   8.930  10.205  10.257 -1.1247  0.6139 -0.1532
  715MOL0     H96466   8.701  10.156  10.063  0.2210 -3.5856  1.9244
  715MOL0     H96467   8.699  10.178  10.242  0.4663  1.8417  0.6008
  715MOL0     H96468   8.794  10.407  10.206  2.4305 -3.3937 -0.4254
  715MOL0     H96469   8.772  10.396  10.042  0.4374  2.2809  0.9072
  715MOL0     H96470   8.516  10.346  10.081 -0.9749  0.4972 -0.2139
  715MOL0     H96471   8.544  10.371  10.249  0.3717 -1.0707 -0.3544
  715MOL0     H96472   8.473  10.582  10.140  0.3132 -0.8267 -0.2802
  715MOL0     H96473   8.598  10.568  10.011  2.2107 -0.4925 -0.1937
  715MOL0     H96474   8.767  10.627  10.181  0.0287  1.2094  0.1645
  715MOL0     H96475   8.647  10.749  10.167 -0.2440 -0.9440 -0.5642
  715MOL0     H96476   8.428  10.709  10.374 -0.8025 -0.3777  0.4008
  715MOL0     H96477   8.334  10.636  10.614  0.2512  0.1862 -0.9839
  715MOL0     H96478   8.437  10.546  10.719 -0.4625 -1.4237 -0.9936
  715MOL0     H96479   8.415  10.850  10.669 -4.9559  0.8079  3.4486
  715MOL0     H96480   8.385  10.770  10.811 -2.4337 -4.5392 -1.8363
  715MOL0     H96481   8.592  10.902  10.827  2.2930  1.3967 -0.7362
  715MOL0     H96482   8.674  10.800  10.712  1.1354 -3.9494  0.3403
  715MOL0     H96483   8.711  10.609  10.833  0.4503  0.5466  0.0842
  715MOL0     H96484   8.565  10.641  10.917 -0.0147 -1.1177 -0.5295
  715MOL0     H96485   8.877  10.880  11.157  2.2837  2.7449  1.0511
  715MOL0     H96486   9.123  10.940  11.140  1.5945 -1.0948 -0.1062
  715MOL0     H96487   9.417  11.152  10.837 -1.1555 -0.3672  0.5018
  715MOL0     H96488   9.657  11.237  10.800  3.5240 -1.2701  0.3609
  715MOL0     H96489   9.875  11.242  10.756  2.6787  1.3661 -1.2589
  715MOL0     H96490   9.863  11.346  10.899 -1.4488 -0.9355 -1.2423
  715MOL0     H96491  10.089  11.298  10.966 -3.4434  1.9075  0.8617
  715MOL0     H96492  10.095  11.170  10.848 -0.8518  0.9626 -2.1046
  715MOL0     H96493  10.137  11.300  10.671  2.1204  2.1131  0.3072
  715MOL0     H96494  10.040  11.437  10.743 -0.4279 -1.3096 -2.4774
  715MOL0     H96495  10.309  11.461  10.727  0.5069 -1.2343  0.6895
  715MOL0     H96496  10.308  11.336  10.857  1.4692  1.1913  0.9329
  715MOL0     H96497  10.175  11.484  10.999 -0.0837  0.3504  0.8781
  715MOL0     H96498  10.189  11.610  10.870 -0.3415 -0.1067 -1.2016
  715MOL0     H96499  10.459  11.586  10.919  2.8303  2.1961  3.2013
  715MOL0     H96500  10.361  11.669  11.035 -0.8332  0.2660  0.4323
  715MOL0     H96501  10.522  11.466  11.119  0.2807 -2.4288 -0.0066
  715MOL0     H96502  10.424  11.364  11.027 -3.2227 -0.2209  0.7521
  715MOL0     H96503  10.314  11.518  11.261  2.5705  0.3092 -0.7082
  715MOL0     H96504  10.235  11.372  11.183 -0.8301 -0.5666  4.4813
  715MOL0     H96505   9.780  10.970  11.109 -1.5679 -0.2896  2.0660
  715MOL0     H96506   9.550  10.914  11.166  1.8827  0.1160  0.5462
  715MOL0     H96507   9.125  10.781  10.743  0.2805 -0.4857 -0.0924
  715MOL0     H96508   8.887  10.715  10.767 -0.0244  0.7529 -0.3883
  715MOL0     H96509   9.299  10.300   9.993 -2.3917 -1.3100  0.9598
  715MOL0     H96510   9.539  10.294   9.972  1.6736 -2.4845 -0.8317
  715MOL0     H96511   9.908  10.208  10.029 -1.5371  1.2712 -1.0828
  715MOL0     H96512  10.148  10.234   9.984 -1.5506 -0.5880  1.5966
  715MOL0     H96513  10.385  10.096   9.951  1.5036  1.3419  1.5649
  715MOL0     H96514  10.368  10.272   9.900 -1.0850 -0.3793  2.4132
  715MOL0     H96515  10.574  10.238   9.795  1.5117 -1.2572  0.1014
  715MOL0     H96516  10.485  10.160   9.666  1.2564 -1.8748 -0.5499
  715MOL0     H96517  10.649  10.008   9.706 -1.3014 -0.1725  0.1975
  715MOL0     H96518  10.542   9.950   9.834 -0.4256 -0.7894 -2.0263
  715MOL0     H96519  10.756  10.165   9.887 -2.0868  1.2233  1.6980
  715MOL0     H96520  10.655  10.070  10.005 -2.0332  2.7485 -0.6229
  715MOL0     H96521  10.972   9.820   9.964  0.9378  0.9694 -1.0915
  715MOL0     H96522  10.114  10.034   9.610 -2.8263  0.4132 -2.3506
  715MOL0     H96523   9.914  10.012   9.521 -0.4955  2.7045  0.3930
  715MOL0     H96524   9.867   9.880   9.628  1.2612  1.1268  0.6734
  715MOL0     H96525   9.751  10.017   9.606 -1.2739 -0.7575  1.2824
  716MOL0     O96526   5.480   6.114   1.524 -0.0253 -0.4038 -0.5265
  716MOL0     C96527   5.476   6.016   1.601  1.0505  0.1185  0.2597
  716MOL0     O96528   5.591   5.951   1.645  0.1519  0.4412 -0.1823
  716MOL0     C96529   5.702   6.030   1.661 -0.5482 -0.1029 -0.0012
  716MOL0     C96530   5.707   6.106   1.774 -0.1872  0.6252  0.4679
  716MOL0     C96531   5.825   6.175   1.809  0.8443 -0.1785 -0.1330
  716MOL0     C96532   5.940   6.164   1.726 -0.2483  0.1016  0.4068
  716MOL0     O96533   6.062   6.224   1.741 -0.4753 -0.1359 -0.5978
  716MOL0     C96534   6.085   6.308   1.853  0.2646  0.2420 -0.8093
  716MOL0     C96535   6.231   6.343   1.872  0.4507 -1.3973 -0.6454
  716MOL0     C96536   6.303   6.223   1.917  0.2356  0.5622  0.3899
  716MOL0     C96537   6.453   6.237   1.905  0.6423  0.0801  0.3455
  716MOL0     C96538   6.504   6.139   2.005 -0.3367  1.2126  0.3363
  716MOL0     C96539   6.658   6.147   2.017 -0.2894  0.4921 -1.1157
  716MOL0     C96540   6.731   6.113   1.889 -0.3115 -0.0867 -0.5983
  716MOL0     C96541   6.885   6.110   1.920  0.2878 -0.2149  0.4412
  716MOL0     N96542   6.956   6.115   1.786 -0.1718 -0.0707  0.8634
  716MOL0     C96543   6.952   6.017   1.692  0.1791 -0.8858 -0.8228
  716MOL0     C96544   7.038   6.055   1.593 -0.5557  0.3110  0.2667
  716MOL0     C96545   7.075   5.974   1.461  0.8552 -0.3357 -0.3837
  716MOL0     C96546   7.219   5.938   1.437 -0.0316 -0.0890 -0.3950
  716MOL0     C96547   7.288   5.869   1.560 -0.2861 -0.2965  0.4730
  716MOL0     C96548   7.442   5.847   1.538  0.2559 -0.7713 -0.8660
  716MOL0     O96549   7.480   5.754   1.639 -0.1597  0.2692  0.2429
  716MOL0     C96550   7.610   5.698   1.617  0.2831  0.2014 -0.1352
  716MOL0     C96551   7.708   5.766   1.551  0.5251 -0.6577  0.1325
  716MOL0     C96552   7.835   5.707   1.530 -0.5057 -0.0418 -0.5948
  716MOL0     C96553   7.863   5.578   1.581  0.0569  0.1517  0.3124
  716MOL0     C96554   7.993   5.510   1.563  0.3719 -0.5529 -0.2554
  716MOL0     O96555   7.998   5.378   1.600 -0.0301 -0.6736  0.0129
  716MOL0     C96556   8.106   5.298   1.582  0.2848  0.1873  0.1975
  716MOL0     C96557   8.091   5.167   1.524  0.4647 -0.2703  0.0918
  716MOL0     C96558   8.202   5.089   1.520 -0.2798 -0.7641  0.3167
  716MOL0     C96559   8.335   5.132   1.546  0.8771 -0.2172 -0.4258
  716MOL0     O96560   8.436   5.043   1.535  0.2886 -0.1250 -0.1580
  716MOL0     C96561   8.563   5.081   1.567 -0.6014 -0.3320 -0.4219
  716MOL0     C96562   8.640   4.947   1.564  0.1995 -0.0997  0.2434
  716MOL0     C96563   8.794   4.967   1.591 -0.0879 -0.4464  0.2033
  716MOL0     C96564   8.859   4.827   1.610 -0.5803 -0.2004  0.2538
  716MOL0     C96565   9.008   4.836   1.617  0.2336 -0.2297  0.1443
  716MOL0     C96566   9.071   4.720   1.683  0.8485 -0.4408  0.2878
  716MOL0     C96567   9.223   4.717   1.664  0.8096 -1.3552 -0.4119
  716MOL0     C96568   9.291   4.587   1.706  0.0681  0.7883 -0.5820
  716MOL0    Cl96569   9.463   4.578   1.634  0.3440  0.0353  0.1473
  716MOL0     C96570   8.351   5.263   1.589 -0.0160 -0.1433  0.4407
  716MOL0     C96571   8.235   5.341   1.612 -0.3698 -0.1434 -0.2541
  716MOL0     O96572   8.086   5.572   1.510  0.1510 -0.1409 -0.6692
  716MOL0     C96573   7.759   5.519   1.648 -1.2407  0.4986  0.3845
  716MOL0     C96574   7.637   5.576   1.670  0.3914  0.2958  0.1077
  716MOL0     N96575   7.083   6.183   1.627  0.5683  0.5015 -0.4615
  716MOL0     N96576   7.030   6.219   1.738  0.0993  0.2043  1.4366
  716MOL0     C96577   5.931   6.080   1.609  0.5442 -0.2202  0.2046
  716MOL0     C96578   5.816   6.008   1.575  0.6200 -0.6418  0.4295
  716MOL0     C96579   5.348   5.949   1.627  0.2999 -0.2697  0.1899
  716MOL0     C96580   5.272   5.912   1.511  0.1226 -0.1043 -0.8316
  716MOL0     C96581   5.146   5.852   1.530 -0.7544  0.1195  0.5469
  716MOL0     C96582   5.105   5.801   1.647  0.7931  0.9786 -1.1457
  716MOL0     O96583   4.986   5.737   1.653  0.1427  0.4019  0.2243
  716MOL0     C96584   4.997   5.595   1.632  0.6965  0.1776  0.2247
  716MOL0     C96585   4.856   5.561   1.582  0.5264  0.7036  0.6663
  716MOL0     C96586   4.751   5.615   1.684  0.4292  0.4609  0.6162
  716MOL0     C96587   4.609   5.600   1.651 -0.0137  0.5634 -0.7529
  716MOL0     C96588   4.568   5.465   1.636  0.3748  0.3971 -0.1058
  716MOL0     C96589   4.544   5.348   1.610  0.1490  0.3943 -0.1749
  716MOL0     C96590   5.185   5.818   1.760 -0.7794  0.2144  0.2784
  716MOL0     C96591   5.310   5.891   1.751 -0.0547  0.0280 -0.5195
  716MOL0     C96592   5.382   5.904   1.885 -0.1339  0.1668 -0.4010
  716MOL0     H96593   5.625   6.094   1.844  1.2108 -1.3671  1.8744
  716MOL0     H96594   5.823   6.243   1.894 -0.3926  1.4092 -1.3430
  716MOL0     H96595   6.031   6.399   1.826 -0.3454  0.0423 -0.3144
  716MOL0     H96596   6.050   6.270   1.950  0.2703 -1.8253 -1.5676
  716MOL0     H96597   6.253   6.423   1.943  0.5327 -0.3970 -1.7732
  716MOL0     H96598   6.274   6.383   1.780  1.5078  1.2431  0.8732
  716MOL0     H96599   6.278   6.131   1.863 -1.8268  2.0724 -1.4503
  716MOL0     H96600   6.266   6.206   2.018  3.0623  1.1561  1.5954
  716MOL0     H96601   6.479   6.224   1.800  0.1880 -0.4560  0.2942
  716MOL0     H96602   6.480   6.340   1.930 -2.8065  0.8313  1.5147
  716MOL0     H96603   6.458   6.146   2.104  0.2879  1.2778  0.6259
  716MOL0     H96604   6.476   6.037   1.979  1.4679  1.3768 -2.7354
  716MOL0     H96605   6.694   6.244   2.053  0.2994  0.2725 -1.1098
  716MOL0     H96606   6.692   6.077   2.093  0.2419  1.5781 -0.3231
  716MOL0     H96607   6.712   6.196   1.820 -1.6331 -0.0423 -0.2025
  716MOL0     H96608   6.696   6.021   1.841 -2.6840 -0.2198  1.2149
  716MOL0     H96609   6.903   6.208   1.966  0.7690  0.2804 -0.7609
  716MOL0     H96610   6.917   6.032   1.990 -1.4762 -3.8630 -2.4487
  716MOL0     H96611   6.885   5.931   1.690 -1.3605  0.2604 -0.6973
  716MOL0     H96612   7.012   5.884   1.463  1.2034 -0.6040 -1.1296
  716MOL0     H96613   7.036   6.031   1.376 -3.3842 -0.4089  1.2953
  716MOL0     H96614   7.225   5.872   1.351 -0.7191 -0.6160 -0.0543
  716MOL0     H96615   7.265   6.032   1.406 -2.7292  0.6657 -2.5883
  716MOL0     H96616   7.249   5.767   1.569 -0.2657 -0.1240  3.1434
  716MOL0     H96617   7.273   5.931   1.649  1.8748 -0.6830  1.1505
  716MOL0     H96618   7.486   5.947   1.547 -1.3231  0.0355 -1.6265
  716MOL0     H96619   7.460   5.815   1.435 -1.5637 -0.3397 -1.3665
  716MOL0     H96620   7.684   5.860   1.502 -2.5308 -0.7674  1.2106
  716MOL0     H96621   7.912   5.771   1.488 -0.9758  0.1349 -1.2129
  716MOL0     H96622   7.989   5.133   1.511  0.3464 -0.8480  2.1867
  716MOL0     H96623   8.176   4.992   1.477 -0.8463  0.7285 -2.9712
  716MOL0     H96624   8.597   5.153   1.492 -0.4730 -0.6311 -0.6519
  716MOL0     H96625   8.566   5.133   1.663 -0.0390  0.4694 -0.8589
  716MOL0     H96626   8.595   4.885   1.643  0.0977  0.0092  0.2706
  716MOL0     H96627   8.620   4.909   1.463 -2.8462  2.8978 -0.4609
  716MOL0     H96628   8.840   5.020   1.507 -1.2777 -1.3267 -1.0472
  716MOL0     H96629   8.804   5.027   1.682 -0.5707  3.5373 -2.1347
  716MOL0     H96630   8.837   4.758   1.528  2.6490  1.7006 -2.4336
  716MOL0     H96631   8.813   4.786   1.701 -0.3087  0.3521  0.6536
  716MOL0     H96632   9.052   4.920   1.672  2.9804 -0.6785 -1.1913
  716MOL0     H96633   9.039   4.850   1.513 -0.9773  1.3936 -0.0436
  716MOL0     H96634   9.054   4.725   1.791  0.6726  1.2511  0.2106
  716MOL0     H96635   9.032   4.629   1.637 -0.7749 -0.6283  1.9230
  716MOL0     H96636   9.261   4.802   1.721 -1.2597  0.1736 -1.1974
  716MOL0     H96637   9.249   4.736   1.560 -0.1146  3.3581  0.0059
  716MOL0     H96638   9.291   4.570   1.814  2.2205  1.7302 -0.3810
  716MOL0     H96639   9.230   4.510   1.657 -1.6899  1.7686 -0.0557
  716MOL0     H96640   8.450   5.304   1.609  0.3069  0.5637 -2.2144
  716MOL0     H96641   8.239   5.440   1.657  1.1476  0.4797 -1.6457
  716MOL0     H96642   7.788   5.428   1.700  2.3083  0.6938 -0.9410
  716MOL0     H96643   7.565   5.515   1.725  2.1329  0.8443  3.2697
  716MOL0     H96644   6.022   6.076   1.551 -0.9141 -0.6153 -2.1870
  716MOL0     H96645   5.819   5.951   1.483  1.7975  1.4265 -0.9096
  716MOL0     H96646   5.300   5.953   1.415 -0.4232 -0.0804 -0.9845
  716MOL0     H96647   5.075   5.844   1.448  0.8987 -1.1630 -0.8322
  716MOL0     H96648   5.017   5.542   1.725  2.1382 -0.5860 -0.4910
  716MOL0     H96649   5.073   5.559   1.562 -1.3405  0.9652 -2.5697
  716MOL0     H96650   4.847   5.454   1.564  1.6803  0.5488  0.8749
  716MOL0     H96651   4.837   5.611   1.487  0.4961  0.4652  0.5481
  716MOL0     H96652   4.769   5.720   1.706  0.5493  0.2641  1.4748
  716MOL0     H96653   4.781   5.554   1.770  2.8573 -0.7310 -0.9676
  716MOL0     H96654   4.563   5.645   1.740  1.9749  0.1385  0.5428
  716MOL0     H96655   4.581   5.663   1.566  1.0880  0.7401 -1.0037
  716MOL0     H96656   4.521   5.244   1.596  0.0576  0.2710  0.8051
  716MOL0     H96657   5.149   5.771   1.850  0.4037 -1.5812 -0.1376
  716MOL0     H96658   5.402   6.009   1.911  0.0224 -0.2140  1.0963
  716MOL0     H96659   5.317   5.875   1.968  0.7144  2.9609  1.3855
  716MOL0     H96660   5.474   5.845   1.882 -0.0838  0.2090  0.2122
  717MOL0     O96661   8.240   6.611   3.800 -0.4112  0.1201  0.1137
  717MOL0     C96662   8.202   6.705   3.867 -0.2979 -0.4376  1.0250
  717MOL0     O96663   8.287   6.807   3.905 -0.0920  0.1449  0.3688
  717MOL0     C96664   8.397   6.828   3.828 -0.7897  0.1901 -0.1875
  717MOL0     C96665   8.530   6.821   3.880  0.3919 -0.1589  0.4978
  717MOL0     C96666   8.646   6.842   3.803  0.5331  0.7852  0.5940
  717MOL0     C96667   8.639   6.896   3.673  0.9287  0.4518 -0.3575
  717MOL0     O96668   8.737   6.940   3.592  0.5085 -0.4616 -0.4288
  717MOL0     C96669   8.864   6.953   3.656  0.5644 -0.2764  0.3787
  717MOL0     C96670   8.958   7.035   3.564  0.2907  0.2201  0.4616
  717MOL0     C96671   9.100   7.048   3.624 -0.8608 -0.7447 -0.1287
  717MOL0     C96672   9.180   7.149   3.527 -0.3870  0.1228 -0.5907
  717MOL0     C96673   9.327   7.166   3.581  0.3155 -0.4049  1.1799
  717MOL0     C96674   9.417   7.230   3.472  0.3941 -0.4697 -0.1419
  717MOL0     C96675   9.553   7.273   3.521 -0.3655  0.2492 -0.0525
  717MOL0     C96676   9.641   7.155   3.559 -0.4615  0.0945 -0.8518
  717MOL0     N96677   9.766   7.156   3.493  0.6717  0.4192  0.6470
  717MOL0     C96678   9.885   7.210   3.544  0.3757 -0.3995  0.3745
  717MOL0     C96679   9.983   7.147   3.472  0.1431  0.8313 -0.0502
  717MOL0     C96680  10.134   7.152   3.504 -0.5681  0.4104 -0.4920
  717MOL0     C96681  10.213   7.113   3.380 -0.7861 -0.7567  0.1799
  717MOL0     C96682  10.367   7.120   3.408 -0.1773 -0.5477  1.0618
  717MOL0     C96683  10.463   7.107   3.279 -0.1335  0.8620  1.1341
  717MOL0     O96684  10.414   6.990   3.204 -0.7171 -0.3316  0.1714
  717MOL0     C96685  10.501   6.922   3.122  0.7241 -0.4772 -0.3463
  717MOL0     C96686  10.602   6.972   3.044 -0.5940 -0.1504  0.6390
  717MOL0     C96687  10.687   6.896   2.955  0.0290 -0.7144 -0.9313
  717MOL0     C96688  10.667   6.765   2.952  0.2481 -0.5816 -0.6637
  717MOL0     C96689  10.743   6.682   2.850 -0.8739 -0.0813 -0.2963
  717MOL0     O96690  10.683   6.566   2.816 -0.4627 -0.3296  0.3414
  717MOL0     C96691  10.740   6.495   2.709  0.4834 -0.3395  0.0191
  717MOL0     C96692  10.767   6.362   2.718 -0.1576  0.5663 -0.5073
  717MOL0     C96693  10.825   6.284   2.623  0.6927  0.4145 -0.2812
  717MOL0     C96694  10.837   6.342   2.493  0.1585 -0.6540  0.5558
  717MOL0     O96695  10.872   6.254   2.398 -0.0047 -0.1675 -0.5387
  717MOL0     C96696  10.861   6.295   2.259 -0.2181  0.7717 -0.2095
  717MOL0     C96697  10.862   6.163   2.172 -0.0367  0.2370  0.1692
  717MOL0     C96698  11.007   6.103   2.188 -0.2300 -0.7958  0.2835
  717MOL0     C96699  11.048   6.008   2.078  0.5164 -0.3102 -0.5493
  717MOL0     C96700  11.198   5.999   2.057 -0.3124 -0.5449 -0.8951
  717MOL0     C96701  11.240   5.911   1.941  0.1840 -0.1921  0.7540
  717MOL0     C96702  11.390   5.914   1.904  0.3063 -0.7452 -0.6872
  717MOL0     C96703  11.420   5.837   1.774 -0.2912  0.2710 -0.7739
  717MOL0    Cl96704  11.593   5.801   1.757  0.3828 -0.0565 -0.1040
  717MOL0     C96705  10.801   6.471   2.470  0.7277 -0.2621 -0.4432
  717MOL0     C96706  10.749   6.549   2.579 -0.2272  0.0983  0.0949
  717MOL0     O96707  10.851   6.718   2.804 -0.3042 -0.4671 -0.5064
  717MOL0     C96708  10.564   6.709   3.038 -0.0043  0.0155  0.2036
  717MOL0     C96709  10.480   6.788   3.113 -1.0687 -0.7058 -1.0071
  717MOL0     N96710   9.928   7.057   3.385 -0.0457  0.1314 -0.2522
  717MOL0     N96711   9.798   7.071   3.393  0.0534  0.7798  0.5851
  717MOL0     C96712   8.510   6.905   3.617 -0.0186 -1.0412 -0.2788
  717MOL0     C96713   8.393   6.864   3.694  0.4340 -0.2862  0.9413
  717MOL0     C96714   8.076   6.694   3.947  0.1822 -0.3878  0.2244
  717MOL0     C96715   8.075   6.744   4.079 -0.2577  0.5254 -0.2151
  717MOL0     C96716   7.966   6.718   4.167  0.5274 -0.1185  0.3601
  717MOL0     C96717   7.859   6.641   4.127  0.4088  0.7707  0.0219
  717MOL0     O96718   7.750   6.607   4.212 -0.0772  0.0596  0.1476
  717MOL0     C96719   7.731   6.685   4.327 -0.4033  0.0689 -0.0001
  717MOL0     C96720   7.589   6.652   4.389  0.3626  0.1149 -0.4205
  717MOL0     C96721   7.577   6.726   4.524  0.4680 -0.0919  0.6172
  717MOL0     C96722   7.437   6.688   4.589  1.4473  1.3949 -0.3186
  717MOL0     C96723   7.440   6.547   4.630 -1.0041  0.0843 -0.0112
  717MOL0     C96724   7.458   6.431   4.651  0.0438 -0.3248  0.6158
  717MOL0     C96725   7.851   6.601   3.995  0.0252  0.7052  0.1054
  717MOL0     C96726   7.966   6.616   3.909 -0.7429 -0.1950 -0.0380
  717MOL0     C96727   7.956   6.545   3.771 -0.1609  1.5387 -0.0079
  717MOL0     H96728   8.556   6.774   3.975 -1.4860 -2.1798  0.0874
  717MOL0     H96729   8.733   6.827   3.867  0.1165 -0.8960  0.8135
  717MOL0     H96730   8.857   7.005   3.752  0.7548 -1.2227  0.9190
  717MOL0     H96731   8.915   6.860   3.682 -2.0536 -1.5907  1.2285
  717MOL0     H96732   8.906   7.130   3.547 -1.9266 -0.3005  3.4615
  717MOL0     H96733   8.952   6.988   3.465 -1.7420  0.8662  0.2374
  717MOL0     H96734   9.156   6.954   3.628  2.2285  0.9825  2.5665
  717MOL0     H96735   9.098   7.090   3.725 -1.0112  1.8240 -1.1229
  717MOL0     H96736   9.177   7.110   3.425 -1.2392 -0.6775 -0.2773
  717MOL0     H96737   9.116   7.237   3.519 -3.3619 -2.0904 -4.5279
  717MOL0     H96738   9.325   7.225   3.673  0.5818 -1.7409  2.0731
  717MOL0     H96739   9.376   7.070   3.598  3.3686  0.2475 -2.4137
  717MOL0     H96740   9.413   7.160   3.388  0.1537 -0.2447 -0.3194
  717MOL0     H96741   9.375   7.327   3.444  1.1192  0.0129  0.4183
  717MOL0     H96742   9.553   7.340   3.607 -0.5159 -0.7968  0.7788
  717MOL0     H96743   9.601   7.324   3.436 -1.2913  1.8401  0.3425
  717MOL0     H96744   9.662   7.162   3.666  1.1874 -1.3123 -1.0382
  717MOL0     H96745   9.588   7.064   3.528 -0.8819  0.4744 -1.2809
  717MOL0     H96746   9.900   7.271   3.632 -2.6424 -0.4185  1.0099
  717MOL0     H96747  10.163   7.254   3.533  1.6492  0.0844 -1.3690
  717MOL0     H96748  10.148   7.081   3.586 -1.0994 -0.7835 -1.4178
  717MOL0     H96749  10.184   7.011   3.353 -0.7352 -0.6162 -0.4093
  717MOL0     H96750  10.189   7.193   3.310 -1.0652 -0.3672  0.7076
  717MOL0     H96751  10.390   7.044   3.482 -0.7489 -2.2182 -0.3915
  717MOL0     H96752  10.393   7.218   3.448 -1.7146  1.1177 -1.6908
  717MOL0     H96753  10.568   7.096   3.305 -0.8217 -0.1162  3.8767
  717MOL0     H96754  10.452   7.193   3.212 -0.8388  0.0256  0.1511
  717MOL0     H96755  10.621   7.079   3.046  0.9721 -0.3537 -0.8790
  717MOL0     H96756  10.753   6.936   2.879  2.3306 -0.0839  1.2700
  717MOL0     H96757  10.763   6.321   2.818  2.3111  1.2632 -0.0727
  717MOL0     H96758  10.847   6.179   2.637  1.6091  0.8336  1.8941
  717MOL0     H96759  10.768   6.347   2.235  0.9993  3.2325  0.1949
  717MOL0     H96760  10.946   6.354   2.223  2.4095 -2.8592 -0.5691
  717MOL0     H96761  10.786   6.095   2.211 -1.7281  2.7322  1.5392
  717MOL0     H96762  10.848   6.192   2.068  2.9961 -1.4730 -0.8426
  717MOL0     H96763  11.074   6.190   2.187  1.4989 -2.0771  0.2723
  717MOL0     H96764  11.024   6.057   2.286  2.5328  0.2754  0.3788
  717MOL0     H96765  11.000   6.047   1.988  0.1030  1.2250  0.3113
  717MOL0     H96766  11.001   5.911   2.100  0.8138 -0.6228 -1.2617
  717MOL0     H96767  11.248   5.949   2.142  2.2613 -2.0125 -3.0978
  717MOL0     H96768  11.236   6.100   2.044 -1.3631  0.0696  0.5248
  717MOL0     H96769  11.226   5.804   1.953  2.2941 -0.5473  0.5036
  717MOL0     H96770  11.183   5.940   1.852 -1.1319 -1.9907  0.9729
  717MOL0     H96771  11.449   5.871   1.986 -0.1200 -1.3741 -0.7008
  717MOL0     H96772  11.435   6.014   1.901 -1.9463  0.2916 -2.4493
  717MOL0     H96773  11.366   5.742   1.763  1.9201 -1.2808  0.8440
  717MOL0     H96774  11.386   5.902   1.693 -0.3409  0.8831 -0.2682
  717MOL0     H96775  10.815   6.535   2.383 -2.0255  0.3432 -0.5171
  717MOL0     H96776  10.714   6.652   2.573 -3.7930 -0.9715  0.1543
  717MOL0     H96777  10.544   6.603   3.029 -3.4455  0.6262 -0.7821
  717MOL0     H96778  10.399   6.742   3.169 -1.3544 -1.5398 -2.0629
  717MOL0     H96779   8.491   6.952   3.521 -3.3462  0.8580  1.1379
  717MOL0     H96780   8.297   6.866   3.644  0.8050  2.2268  0.2240
  717MOL0     H96781   8.157   6.796   4.128 -2.5496  0.5751  3.9401
  717MOL0     H96782   7.977   6.760   4.266 -0.4806  1.0312  0.0144
  717MOL0     H96783   7.724   6.793   4.312 -2.1589  0.3401  2.2394
  717MOL0     H96784   7.813   6.661   4.395 -0.2224  1.1924  0.1991
  717MOL0     H96785   7.581   6.546   4.413 -1.1276 -0.1927 -2.0702
  717MOL0     H96786   7.502   6.675   4.327  0.4686 -1.1205 -1.0610
  717MOL0     H96787   7.598   6.832   4.513  0.5736 -0.0252  1.3994
  717MOL0     H96788   7.647   6.691   4.600  0.4766  0.0274  0.6639
  717MOL0     H96789   7.400   6.750   4.671  1.9475  1.9449 -0.5019
  717MOL0     H96790   7.359   6.688   4.512 -0.8918 -3.6093  1.6184
  717MOL0     H96791   7.488   6.329   4.664  0.4604 -0.2312  0.4190
  717MOL0     H96792   7.760   6.554   3.959  0.5970 -0.5310  0.2121
  717MOL0     H96793   7.849   6.535   3.749  0.0266  0.3571 -0.4909
  717MOL0     H96794   7.999   6.601   3.688  2.1082  1.2918  0.9234
  717MOL0     H96795   7.992   6.441   3.767 -1.7680  0.9797 -0.8446
  718MOL0     O96796   6.832   9.293   5.090 -0.6055 -0.6058 -0.9269
  718MOL0     C96797   6.846   9.173   5.063 -0.5639 -0.4416  1.1122
  718MOL0     O96798   6.967   9.110   5.048 -0.4484 -1.3960 -0.2689
  718MOL0     C96799   7.092   9.173   5.041 -0.0949  0.0291 -0.1397
  718MOL0     C96800   7.143   9.256   5.137 -0.3858 -0.4317  1.1398
  718MOL0     C96801   7.280   9.301   5.128  0.0872 -0.9108 -0.0824
  718MOL0     C96802   7.365   9.258   5.022  0.0945 -0.1546  0.2583
  718MOL0     O96803   7.494   9.299   5.017 -0.0826 -0.2250 -0.4078
  718MOL0     C96804   7.514   9.422   4.939 -0.7955 -0.2384 -0.6536
  718MOL0     C96805   7.580   9.371   4.806  0.3336  0.0176 -0.5082
  718MOL0     C96806   7.547   9.477   4.692 -0.5919 -0.2377 -0.4609
  718MOL0     C96807   7.670   9.518   4.608 -0.0294 -0.7669  0.3511
  718MOL0     C96808   7.712   9.665   4.616 -0.3251  0.2532  0.5425
  718MOL0     C96809   7.750   9.715   4.745 -0.9033 -0.6357  0.8067
  718MOL0     C96810   7.800   9.856   4.747  0.4571 -0.8015  0.8188
  718MOL0     C96811   7.849   9.911   4.885 -0.5239  0.0016 -0.1787
  718MOL0     N96812   7.973   9.842   4.930 -0.6350 -0.1050 -0.0915
  718MOL0     C96813   7.983   9.742   5.026  0.0562 -0.2419  1.5213
  718MOL0     C96814   8.115   9.706   5.030 -0.2346 -0.2814 -0.5298
  718MOL0     C96815   8.163   9.586   5.102 -1.0386 -0.4188 -0.1355
  718MOL0     C96816   8.183   9.469   5.007 -0.1449 -0.3149 -0.9162
  718MOL0     C96817   8.204   9.339   5.068 -0.3233 -1.1072 -0.2457
  718MOL0     C96818   8.326   9.340   5.155  0.4568  0.3859 -0.6110
  718MOL0     O96819   8.438   9.384   5.076 -0.0022  0.5268 -0.3618
  718MOL0     C96820   8.499   9.286   5.004  0.5750  0.2101 -0.1744
  718MOL0     C96821   8.562   9.174   5.057 -1.0800 -0.4822  0.0335
  718MOL0     C96822   8.621   9.080   4.970 -0.9218 -0.2784  0.3528
  718MOL0     C96823   8.605   9.090   4.830  0.9763 -0.5864 -0.1290
  718MOL0     C96824   8.639   8.982   4.738 -0.4932  0.7852 -0.5331
  718MOL0     O96825   8.589   8.984   4.611 -0.3976  0.1507 -0.5510
  718MOL0     C96826   8.620   8.879   4.527  0.9088  0.4393 -0.7144
  718MOL0     C96827   8.514   8.795   4.480  0.0822  0.1295  0.3059
  718MOL0     C96828   8.532   8.698   4.392  0.3748  0.3943 -0.1163
  718MOL0     C96829   8.664   8.656   4.361  1.1058 -0.0254 -0.0112
  718MOL0     O96830   8.674   8.544   4.281 -0.5152 -0.8699  0.1631
  718MOL0     C96831   8.791   8.465   4.304 -0.0867 -0.1307  0.5230
  718MOL0     C96832   8.881   8.498   4.181 -1.1364 -0.2884 -0.6839
  718MOL0     C96833   9.026   8.432   4.191  0.4055  0.2308  0.3791
  718MOL0     C96834   9.102   8.477   4.063 -0.3397 -0.4452  0.2628
  718MOL0     C96835   9.246   8.418   4.063  0.3739  0.0459 -0.5852
  718MOL0     C96836   9.326   8.486   3.960 -0.3085 -0.6515 -0.1657
  718MOL0     C96837   9.467   8.441   3.976 -0.7074  0.2498  0.5132
  718MOL0     C96838   9.569   8.517   3.894  0.0205  0.1352 -0.6888
  718MOL0    Cl96839   9.742   8.459   3.916 -0.0636 -0.0069 -0.0721
  718MOL0     C96840   8.764   8.722   4.421 -0.0811 -0.0742 -0.0504
  718MOL0     C96841   8.746   8.832   4.499 -0.0787 -0.0809 -0.4775
  718MOL0     O96842   8.719   8.896   4.782 -0.0685  0.3597 -0.9352
  718MOL0     C96843   8.522   9.195   4.779 -0.2895  0.3138 -0.2341
  718MOL0     C96844   8.468   9.295   4.867  0.5398  0.1443  0.5589
  718MOL0     N96845   8.185   9.793   4.948 -0.5113 -0.5243 -0.6950
  718MOL0     N96846   8.095   9.870   4.885  0.0004  0.2178  0.1269
  718MOL0     C96847   7.309   9.170   4.929  0.2013  0.0889 -0.2888
  718MOL0     C96848   7.180   9.124   4.946 -0.9642  0.4624 -0.3099
  718MOL0     C96849   6.730   9.079   5.075  0.1361 -0.5703 -0.6558
  718MOL0     C96850   6.765   8.943   5.093 -0.1937 -0.2375  0.2554
  718MOL0     C96851   6.674   8.838   5.087  0.5121 -0.2352  0.3136
  718MOL0     C96852   6.542   8.867   5.051 -1.0975 -0.3055  0.0801
  718MOL0     O96853   6.457   8.766   5.049  0.3721 -0.0827 -0.0288
  718MOL0     C96854   6.408   8.739   4.919  0.2056  0.0790 -0.5455
  718MOL0     C96855   6.273   8.663   4.935  0.6976 -0.6978 -0.5035
  718MOL0     C96856   6.286   8.536   5.025 -0.0394 -0.0804  0.6412
  718MOL0     C96857   6.149   8.502   5.093 -0.1822  0.5306 -0.0734
  718MOL0     C96858   6.033   8.468   5.007 -0.0296  0.0614  0.6151
  718MOL0     C96859   5.940   8.427   4.939  0.4266  0.2300  0.0090
  718MOL0     C96860   6.504   9.002   5.038 -0.1905  0.4499 -0.1547
  718MOL0     C96861   6.595   9.105   5.061  0.0530 -0.4926  0.7497
  718MOL0     C96862   6.548   9.250   5.064 -0.3904  0.0741 -0.5087
  718MOL0     H96863   7.076   9.276   5.221  0.4613  0.3851  1.6361
  718MOL0     H96864   7.321   9.367   5.203 -0.0213 -1.2491  0.2784
  718MOL0     H96865   7.421   9.478   4.921  0.8810  2.3831 -1.7743
  718MOL0     H96866   7.575   9.497   4.989 -3.3953  0.7897  1.2071
  718MOL0     H96867   7.539   9.273   4.783 -0.0477  0.0143  0.1640
  718MOL0     H96868   7.688   9.365   4.823  0.6491 -2.1032 -2.7106
  718MOL0     H96869   7.496   9.565   4.732  0.4004 -0.4786  1.4828
  718MOL0     H96870   7.477   9.421   4.629  1.9659 -4.6316  0.1714
  718MOL0     H96871   7.749   9.453   4.647 -1.4216 -0.8071  3.3748
  718MOL0     H96872   7.657   9.489   4.503 -4.0722  0.6593  0.3069
  718MOL0     H96873   7.799   9.675   4.552  0.2392  1.2307  1.4294
  718MOL0     H96874   7.636   9.734   4.578  0.1323  0.6691  0.3891
  718MOL0     H96875   7.662   9.721   4.810 -1.4903  2.1711 -0.0976
  718MOL0     H96876   7.820   9.649   4.798  0.3707  0.8711  1.0794
  718MOL0     H96877   7.720   9.926   4.722  0.5493 -0.4766  1.4316
  718MOL0     H96878   7.880   9.870   4.673 -1.1150 -0.8584 -0.9893
  718MOL0     H96879   7.856  10.020   4.875 -0.1931  0.3786  2.9918
  718MOL0     H96880   7.765   9.900   4.955  1.0818 -0.8181  1.7335
  718MOL0     H96881   7.901   9.688   5.072 -1.5663  2.1272  1.5691
  718MOL0     H96882   8.262   9.602   5.147  0.5260 -1.8784 -2.7424
  718MOL0     H96883   8.087   9.575   5.180 -0.7499  2.3494  0.6678
  718MOL0     H96884   8.099   9.472   4.937  0.0795 -0.5876 -1.2004
  718MOL0     H96885   8.270   9.503   4.949  0.5957  1.1755  0.9426
  718MOL0     H96886   8.200   9.265   4.988 -1.3012 -1.6446  0.2752
  718MOL0     H96887   8.126   9.311   5.140 -0.2955 -0.3984  0.0671
  718MOL0     H96888   8.347   9.245   5.204 -1.1247  0.6355  0.6374
  718MOL0     H96889   8.302   9.410   5.236  0.1251 -2.2989  1.7540
  718MOL0     H96890   8.569   9.170   5.165 -2.4846  2.0122  0.2851
  718MOL0     H96891   8.681   9.007   5.023 -0.0243 -0.5144 -0.9413
  718MOL0     H96892   8.414   8.827   4.509 -0.6132 -0.7408 -1.0295
  718MOL0     H96893   8.442   8.656   4.349 -1.2873  1.5578  2.0683
  718MOL0     H96894   8.842   8.484   4.399 -0.3358  1.0792  0.4394
  718MOL0     H96895   8.767   8.359   4.306  1.0593 -0.4011  0.6526
  718MOL0     H96896   8.826   8.470   4.091 -0.9241  1.2220 -1.3213
  718MOL0     H96897   8.888   8.607   4.181  0.2929 -0.3534 -0.1903
  718MOL0     H96898   9.074   8.470   4.281  0.5730 -1.4706  1.0434
  718MOL0     H96899   9.027   8.323   4.190 -1.0001  0.1242 -2.7018
  718MOL0     H96900   9.104   8.586   4.054 -3.0036 -0.3521  0.1162
  718MOL0     H96901   9.061   8.443   3.968  3.3134  0.3249 -1.7640
  718MOL0     H96902   9.245   8.309   4.052  0.1848 -0.1045  0.7588
  718MOL0     H96903   9.294   8.440   4.159  3.5024 -0.1646 -1.9980
  718MOL0     H96904   9.296   8.473   3.856 -0.1620  2.0705 -0.6093
  718MOL0     H96905   9.330   8.593   3.982  3.8440 -1.0496  1.9610
  718MOL0     H96906   9.473   8.336   3.946  3.3320 -0.5328  3.1878
  718MOL0     H96907   9.497   8.450   4.081 -2.2679  1.1314  0.8993
  718MOL0     H96908   9.548   8.510   3.787 -3.4407 -3.3450  0.0016
  718MOL0     H96909   9.580   8.620   3.928  2.6732 -0.2843 -0.0376
  718MOL0     H96910   8.866   8.685   4.415 -0.5106 -1.7817  2.0899
  718MOL0     H96911   8.832   8.888   4.534 -2.0136  1.7622  1.6228
  718MOL0     H96912   8.497   9.192   4.673 -0.2365  1.0730 -0.2724
  718MOL0     H96913   8.408   9.372   4.820  0.7934  0.2311  0.3738
  718MOL0     H96914   7.369   9.134   4.845  0.8784  1.1259 -0.2743
  718MOL0     H96915   7.151   9.042   4.881  0.1046  0.4072 -0.7472
  718MOL0     H96916   6.869   8.921   5.113  0.1842  1.3783  0.2275
  718MOL0     H96917   6.698   8.733   5.090 -2.1416 -1.1743 -3.8264
  718MOL0     H96918   6.490   8.684   4.870 -0.5336 -0.9946 -0.6109
  718MOL0     H96919   6.379   8.825   4.858 -0.2576  1.3682  1.4225
  718MOL0     H96920   6.235   8.637   4.836  0.8923  1.5761 -1.2268
  718MOL0     H96921   6.208   8.732   4.989  0.4662 -0.3211 -1.2547
  718MOL0     H96922   6.360   8.565   5.100  0.1238  0.2480  0.3608
  718MOL0     H96923   6.311   8.447   4.968 -2.4341 -0.6407  0.3621
  718MOL0     H96924   6.161   8.415   5.159 -0.4628  1.4112  1.1799
  718MOL0     H96925   6.117   8.591   5.148  0.4412  1.1995 -0.7774
  718MOL0     H96926   5.859   8.403   4.872  0.9941  0.1626 -0.6592
  718MOL0     H96927   6.401   9.023   5.013 -0.1881 -0.0673 -0.6376
  718MOL0     H96928   6.440   9.251   5.077 -0.5467 -2.7407 -1.0520
  718MOL0     H96929   6.590   9.303   5.149  0.0325 -1.8794  0.5547
  718MOL0     H96930   6.582   9.301   4.973 -0.8766 -0.5978 -1.0750
  719MOL0     O96931   6.444   5.647   0.806  0.0104  0.0931 -0.2188
  719MOL0     C96932   6.449   5.569   0.895 -0.4489 -0.8914 -0.3500
  719MOL0     O96933   6.559   5.556   0.975 -0.1204 -0.1873  0.5736
  719MOL0     C96934   6.661   5.648   0.959 -0.2623  0.5446 -0.0152
  719MOL0     C96935   6.796   5.599   0.950 -0.0991 -0.6338 -0.2257
  719MOL0     C96936   6.909   5.690   0.952 -0.0794 -0.2235 -0.1846
  719MOL0     C96937   6.881   5.830   0.951  0.3671 -0.2141 -0.4946
  719MOL0     O96938   6.986   5.925   0.950 -0.1123 -0.5236  0.7027
  719MOL0     C96939   6.987   5.997   1.073 -0.5759 -0.2781  0.3918
  719MOL0     C96940   7.119   6.063   1.094 -0.2347 -0.5112 -0.1869
  719MOL0     C96941   7.164   6.159   0.974  0.2501  0.1360  0.4017
  719MOL0     C96942   7.300   6.220   1.017  0.1452 -0.0298  0.6420
  719MOL0     C96943   7.369   6.304   0.901  0.0732  0.1770  0.1258
  719MOL0     C96944   7.463   6.409   0.961  0.0627 -0.2780  0.0636
  719MOL0     C96945   7.561   6.355   1.070 -0.1156  0.3343 -0.0515
  719MOL0     C96946   7.689   6.446   1.084  0.0914  0.6020  0.0649
  719MOL0     N96947   7.777   6.404   1.195 -0.2600 -0.9562 -0.3668
  719MOL0     C96948   7.881   6.309   1.191 -0.8162  1.0314 -0.2888
  719MOL0     C96949   7.947   6.329   1.313 -0.2213  0.2664  0.6095
  719MOL0     C96950   8.072   6.263   1.360  0.0160  0.2277  0.3922
  719MOL0     C96951   8.175   6.353   1.428  0.4763 -0.6833  0.3982
  719MOL0     C96952   8.311   6.296   1.424  0.4268 -1.0850 -0.5521
  719MOL0     C96953   8.407   6.396   1.488  0.6925 -0.0469 -1.0928
  719MOL0     O96954   8.541   6.372   1.442  0.8302  0.0693 -0.2442
  719MOL0     C96955   8.624   6.278   1.498 -0.3055 -0.0772 -1.0445
  719MOL0     C96956   8.752   6.276   1.454 -0.5176 -0.0771  0.0749
  719MOL0     C96957   8.852   6.208   1.527 -0.1585  0.1692  0.3600
  719MOL0     C96958   8.820   6.133   1.637 -0.9977  0.3740  0.6178
  719MOL0     C96959   8.921   6.057   1.715  0.9923 -0.0960  0.3162
  719MOL0     O96960   8.873   5.962   1.804 -0.3681  0.2605 -0.0383
  719MOL0     C96961   8.959   5.903   1.889 -0.6940 -0.2102 -0.3654
  719MOL0     C96962   8.994   5.964   2.008  0.6918  0.5282  0.8743
  719MOL0     C96963   9.100   5.907   2.081  0.3191 -0.3987  0.1535
  719MOL0     C96964   9.164   5.792   2.037  0.3898  0.3215 -0.4966
  719MOL0     O96965   9.266   5.730   2.109 -0.1767 -0.1330 -0.0328
  719MOL0     C96966   9.320   5.799   2.226  0.1259  0.6282 -0.2238
  719MOL0     C96967   9.410   5.708   2.308  0.4245  0.0888  0.3147
  719MOL0     C96968   9.551   5.712   2.259 -0.7536  0.2535 -0.1050
  719MOL0     C96969   9.645   5.629   2.358 -0.2147 -1.3250 -0.3087
  719MOL0     C96970   9.771   5.581   2.308 -1.1986  0.6301 -0.2650
  719MOL0     C96971   9.771   5.506   2.171 -0.2247  0.1651 -0.2123
  719MOL0     C96972   9.898   5.436   2.144  0.1606 -0.9326  1.1881
  719MOL0     C96973   9.891   5.342   2.025 -0.4762  0.4704  0.4491
  719MOL0    Cl96974   9.782   5.201   2.057 -0.5814 -0.2584  0.0542
  719MOL0     C96975   9.129   5.734   1.921  0.2123 -0.0899  1.0780
  719MOL0     C96976   9.022   5.785   1.851 -0.6312 -0.8116 -0.1512
  719MOL0     O96977   9.034   6.107   1.713 -0.1465  0.2730 -0.1971
  719MOL0     C96978   8.685   6.114   1.670 -0.0655 -0.1713 -0.1636
  719MOL0     C96979   8.591   6.194   1.607  1.1971 -0.1460  0.2580
  719MOL0     N96980   7.878   6.427   1.385 -0.0826  0.2368  0.5651
  719MOL0     N96981   7.787   6.472   1.309  0.2341 -0.0663  0.4459
  719MOL0     C96982   6.749   5.877   0.955 -0.8099  0.5948 -0.9050
  719MOL0     C96983   6.644   5.785   0.961  0.4487  0.1721 -0.2872
  719MOL0     C96984   6.332   5.493   0.940  0.9116  0.2410  0.5230
  719MOL0     C96985   6.205   5.559   0.936 -0.4609  0.1786  0.2874
  719MOL0     C96986   6.096   5.487   0.967 -0.7267  0.7045  0.9054
  719MOL0     C96987   6.089   5.357   1.008 -0.4003  0.0364  0.3307
  719MOL0     O96988   5.969   5.311   1.055 -0.2068  0.5609 -0.2186
  719MOL0     C96989   5.911   5.205   0.976  0.2356  0.5803 -0.8704
  719MOL0     C96990   5.829   5.110   1.063  0.1455 -0.1593 -0.8488
  719MOL0     C96991   5.715   5.197   1.119 -0.1857 -1.0478  0.1338
  719MOL0     C96992   5.603   5.128   1.205 -0.1214  0.6317 -0.4122
  719MOL0     C96993   5.501   5.067   1.124 -0.3216  0.6535  0.0750
  719MOL0     C96994   5.416   5.019   1.053 -0.8139  0.1436  0.2767
  719MOL0     C96995   6.206   5.281   0.995 -0.1394 -0.1866 -0.0412
  719MOL0     C96996   6.327   5.356   0.964  0.1208  0.5666 -0.0180
  719MOL0     C96997   6.458   5.279   0.944  0.1560  0.6384 -0.6479
  719MOL0     H96998   6.817   5.495   0.971  1.0096 -0.3864 -0.0757
  719MOL0     H96999   7.013   5.658   0.955  0.4389  1.4332  1.0169
  719MOL0     H97000   6.910   6.075   1.075  0.8921  1.2584  2.3642
  719MOL0     H97001   6.958   5.929   1.154 -0.9701 -2.9279 -1.8619
  719MOL0     H97002   7.199   5.989   1.100 -0.6903 -0.8939  2.7909
  719MOL0     H97003   7.131   6.128   1.181 -0.3314  1.0515 -1.2863
  719MOL0     H97004   7.092   6.241   0.971 -0.8624 -0.8247 -0.0381
  719MOL0     H97005   7.177   6.124   0.871 -0.0816  2.6111 -0.5379
  719MOL0     H97006   7.271   6.268   1.111 -0.9116 -1.7068  1.2061
  719MOL0     H97007   7.368   6.142   1.052  0.8263  0.1461 -0.2427
  719MOL0     H97008   7.425   6.235   0.836  1.0291 -0.7754  1.8752
  719MOL0     H97009   7.296   6.359   0.841  0.5691  0.2517 -0.4254
  719MOL0     H97010   7.520   6.464   0.886 -1.6220  1.5346  0.0382
  719MOL0     H97011   7.405   6.488   1.009  0.8532  1.2951 -1.4466
  719MOL0     H97012   7.594   6.251   1.059 -2.0333 -0.3332  0.1680
  719MOL0     H97013   7.510   6.354   1.166  1.8098  1.9961  1.0518
  719MOL0     H97014   7.738   6.434   0.987 -0.3298  0.6342 -0.1529
  719MOL0     H97015   7.659   6.551   1.090  0.2357  0.8369 -2.1773
  719MOL0     H97016   7.909   6.244   1.109  0.5495 -0.3735  1.2101
  719MOL0     H97017   8.038   6.182   1.425 -0.3857  1.0814  1.2504
  719MOL0     H97018   8.125   6.227   1.271  0.2272 -0.7630  0.9016
  719MOL0     H97019   8.181   6.452   1.381  0.6122 -0.4144  0.9711
  719MOL0     H97020   8.153   6.360   1.535  1.3122 -1.8675  0.6676
  719MOL0     H97021   8.337   6.278   1.319 -1.4785  0.6240 -1.3866
  719MOL0     H97022   8.314   6.198   1.471  5.0013 -0.1702  1.6399
  719MOL0     H97023   8.391   6.389   1.596  0.1373  0.6369 -1.1222
  719MOL0     H97024   8.379   6.498   1.459 -2.9548 -1.3727 -2.8163
  719MOL0     H97025   8.773   6.337   1.367  0.7534 -1.4909 -0.6543
  719MOL0     H97026   8.954   6.203   1.491 -0.8224 -1.0230 -1.5243
  719MOL0     H97027   8.952   6.058   2.040  0.7668  0.3892  1.3848
  719MOL0     H97028   9.118   5.949   2.179 -3.4424  2.8538 -0.2677
  719MOL0     H97029   9.387   5.882   2.201  2.5485 -1.4794 -1.2344
  719MOL0     H97030   9.239   5.829   2.293  1.4652  1.6101  1.0315
  719MOL0     H97031   9.411   5.742   2.412  1.6451  0.6044  0.1602
  719MOL0     H97032   9.374   5.605   2.301  1.2579 -0.1263 -1.3687
  719MOL0     H97033   9.550   5.679   2.155 -4.1489 -0.2644 -0.0162
  719MOL0     H97034   9.587   5.816   2.261 -1.5053  0.6767 -3.1585
  719MOL0     H97035   9.582   5.542   2.378 -0.0255 -1.1269  1.2838
  719MOL0     H97036   9.642   5.678   2.456 -3.9081 -0.0652 -0.8856
  719MOL0     H97037   9.817   5.506   2.373  2.0062 -0.1779 -3.1557
  719MOL0     H97038   9.848   5.659   2.305  0.2570 -0.7580 -0.7429
  719MOL0     H97039   9.685   5.439   2.164 -0.5021  0.7108 -2.9238
  719MOL0     H97040   9.760   5.584   2.095  0.1138 -1.6069 -2.1799
  719MOL0     H97041   9.919   5.367   2.227  0.7601 -0.4034  1.4917
  719MOL0     H97042   9.983   5.502   2.122  0.4302 -1.4806  0.5622
  719MOL0     H97043   9.860   5.396   1.935  0.3193  0.0546 -0.0858
  719MOL0     H97044   9.992   5.306   2.001  1.5174  3.1032  3.8453
  719MOL0     H97045   9.175   5.645   1.879 -1.1768  0.1090 -1.0021
  719MOL0     H97046   9.001   5.736   1.756  0.1449  0.9964 -1.3289
  719MOL0     H97047   8.671   6.041   1.749  1.5240  1.1031  1.4022
  719MOL0     H97048   8.489   6.194   1.646  0.7805 -1.2639 -0.7684
  719MOL0     H97049   6.716   5.980   0.963 -0.2935  0.6484  1.0617
  719MOL0     H97050   6.543   5.821   0.980  0.1766 -1.0429  0.7455
  719MOL0     H97051   6.186   5.663   0.909  0.8525  1.0030  2.2584
  719MOL0     H97052   6.000   5.534   0.947 -1.5658 -0.9446  0.8388
  719MOL0     H97053   5.987   5.155   0.916 -1.8065 -0.1433 -2.9790
  719MOL0     H97054   5.843   5.240   0.899 -1.6795 -1.5571 -0.2412
  719MOL0     H97055   5.888   5.066   1.144 -1.0245  0.6570  0.4939
  719MOL0     H97056   5.777   5.024   1.021  1.0258 -2.3704  2.2350
  719MOL0     H97057   5.680   5.263   1.039  1.1151  0.8577  1.0577
  719MOL0     H97058   5.760   5.278   1.178 -2.4072  0.2954  0.1275
  719MOL0     H97059   5.655   5.060   1.273 -2.7472 -0.5366  0.5793
  719MOL0     H97060   5.571   5.213   1.267 -0.1732  0.6185 -0.4208
  719MOL0     H97061   5.343   4.989   0.980  0.8841  0.8184 -1.8246
  719MOL0     H97062   6.218   5.179   1.032 -0.6727  0.4598  2.0735
  719MOL0     H97063   6.485   5.295   0.839  3.8112 -0.6130 -0.0299
  719MOL0     H97064   6.532   5.325   1.008 -2.1090  3.1912  0.3251
  719MOL0     H97065   6.437   5.176   0.976  1.1510  0.7228  0.3150
  720MOL0     O97066   7.999   1.320   5.109 -0.0953  0.7104 -0.2362
  720MOL0     C97067   7.953   1.431   5.117 -0.2032  0.0328  0.7677
  720MOL0     O97068   8.014   1.557   5.113 -1.0435 -0.3239  0.1802
  720MOL0     C97069   8.146   1.574   5.133 -0.0612 -0.5318  0.3592
  720MOL0     C97070   8.208   1.687   5.076  0.3269 -0.3144 -0.7063
  720MOL0     C97071   8.349   1.717   5.095  0.2608 -0.6938 -0.1946
  720MOL0     C97072   8.426   1.638   5.178 -0.2972 -0.7991  0.4840
  720MOL0     O97073   8.560   1.660   5.197 -0.7539 -0.4355 -0.0818
  720MOL0     C97074   8.623   1.784   5.157  0.0492  0.7207  0.0564
  720MOL0     C97075   8.760   1.809   5.225 -1.0839  0.4997 -0.0145
  720MOL0     C97076   8.842   1.681   5.231 -0.2215 -0.1586  0.8921
  720MOL0     C97077   8.995   1.708   5.269  0.4091 -0.1091 -0.2190
  720MOL0     C97078   9.018   1.642   5.411  0.4994  0.6234 -1.2443
  720MOL0     C97079   9.145   1.689   5.481 -0.0143 -0.1294  0.2843
  720MOL0     C97080   9.283   1.682   5.405  0.7662 -0.2335  1.5128
  720MOL0     C97081   9.396   1.757   5.474  0.1582 -0.9752 -0.4243
  720MOL0     N97082   9.419   1.687   5.602  1.3591  0.2375 -0.2359
  720MOL0     C97083   9.476   1.565   5.613  0.0922  0.1901  0.0041
  720MOL0     C97084   9.475   1.542   5.747  0.0383  0.4291  0.6048
  720MOL0     C97085   9.551   1.420   5.799  0.6188  1.0274  0.6600
  720MOL0     C97086   9.704   1.439   5.822  0.1507  0.8146  0.0430
  720MOL0     C97087   9.744   1.526   5.942 -0.6919  0.4942 -0.0780
  720MOL0     C97088   9.894   1.533   5.958 -0.8626  0.2896  0.3657
  720MOL0     O97089   9.948   1.583   5.844  0.8796 -0.4128 -0.5535
  720MOL0     C97090  10.073   1.546   5.809  0.4875 -0.0455 -0.5347
  720MOL0     C97091  10.182   1.562   5.900 -0.4356 -1.1265 -0.0111
  720MOL0     C97092  10.305   1.508   5.871  0.6841 -0.7315  0.2825
  720MOL0     C97093  10.327   1.433   5.752 -0.1911 -0.4097  0.0589
  720MOL0     C97094  10.467   1.404   5.713  0.3424  0.3075  0.2650
  720MOL0     O97095  10.564   1.405   5.813 -0.0356  0.2619 -0.3174
  720MOL0     C97096  10.669   1.317   5.794 -0.2761  0.5339  0.2519
  720MOL0     C97097  10.671   1.195   5.722  0.4556 -0.2123 -1.0143
  720MOL0     C97098  10.791   1.118   5.707  0.6785  0.1150 -0.2327
  720MOL0     C97099  10.909   1.156   5.776  0.1369  0.1016 -0.0734
  720MOL0     O97100  11.029   1.081   5.764  0.2578 -0.0644  1.0250
  720MOL0     C97101  11.156   1.131   5.802  0.3312 -0.3433 -0.8034
  720MOL0     C97102  11.187   1.078   5.945 -0.6301  0.8827 -0.0664
  720MOL0     C97103  11.096   1.130   6.055  0.3558 -0.2288  0.0116
  720MOL0     C97104  11.129   1.078   6.195 -0.3017 -1.2410  0.7331
  720MOL0     C97105  11.025   1.124   6.296 -0.0105  0.0255  0.1924
  720MOL0     C97106  11.062   1.060   6.438 -0.5730  0.1524  0.1413
  720MOL0     C97107  11.144   1.159   6.525 -0.1091  0.6238 -0.7151
  720MOL0     C97108  11.173   1.101   6.660 -0.2013 -0.4977  0.4078
  720MOL0    Cl97109  11.022   1.063   6.750 -0.2507 -0.3549  0.8859
  720MOL0     C97110  10.898   1.276   5.850  0.0547 -0.6163  0.2136
  720MOL0     C97111  10.788   1.357   5.861  0.1142 -0.4772 -0.1728
  720MOL0     O97112  10.491   1.384   5.591 -0.3205  0.7568  0.0716
  720MOL0     C97113  10.219   1.402   5.675  0.3206 -0.3694  0.5406
  720MOL0     C97114  10.097   1.458   5.696 -0.0661  0.3119  0.2257
  720MOL0     N97115   9.412   1.650   5.817  0.1135 -0.1300  0.3506
  720MOL0     N97116   9.379   1.737   5.721 -0.7040 -0.0890 -0.3488
  720MOL0     C97117   8.363   1.517   5.222  0.5186  0.3984 -0.0962
  720MOL0     C97118   8.230   1.489   5.202  0.1138  0.2075  1.0872
  720MOL0     C97119   7.810   1.426   5.132  0.6280  0.0348  0.7985
  720MOL0     C97120   7.758   1.341   5.233 -0.0068  0.0949  0.0893
  720MOL0     C97121   7.623   1.349   5.261  0.7542 -0.2045  0.5342
  720MOL0     C97122   7.539   1.448   5.201  0.7263  0.5544 -0.0797
  720MOL0     O97123   7.404   1.422   5.231  0.0631 -0.2854 -0.3737
  720MOL0     C97124   7.314   1.515   5.174 -0.9936 -0.0029 -0.4774
  720MOL0     C97125   7.309   1.648   5.242  0.5154 -0.8296 -0.4584
  720MOL0     C97126   7.184   1.728   5.186  0.1674  0.6266  0.5393
  720MOL0     C97127   7.193   1.768   5.030 -0.1965 -0.2348 -0.6664
  720MOL0     C97128   7.315   1.854   5.018 -0.1666 -0.4079  0.3834
  720MOL0     C97129   7.420   1.917   5.012  0.3517  0.5390 -1.0397
  720MOL0     C97130   7.592   1.534   5.106 -0.5104  0.2274 -0.7021
  720MOL0     C97131   7.728   1.537   5.077 -0.2698  0.2024 -0.4863
  720MOL0     C97132   7.782   1.640   4.985 -0.0412  0.5653  0.2319
  720MOL0     H97133   8.163   1.752   5.001  1.5346  0.8033 -0.4961
  720MOL0     H97134   8.386   1.801   5.036  3.0602 -0.3408  1.8351
  720MOL0     H97135   8.625   1.789   5.047 -3.4688  0.4679 -0.1568
  720MOL0     H97136   8.567   1.876   5.178  1.5913  1.3527  1.5711
  720MOL0     H97137   8.741   1.851   5.325  0.8689  1.6389 -0.0738
  720MOL0     H97138   8.814   1.878   5.160 -4.3438  2.0070 -1.3521
  720MOL0     H97139   8.837   1.632   5.133 -1.8743  1.0621  0.3245
  720MOL0     H97140   8.807   1.612   5.308 -0.7061 -0.6182  0.2765
  720MOL0     H97141   9.048   1.652   5.192 -0.8910  0.1430 -1.3536
  720MOL0     H97142   9.013   1.816   5.266  0.2817 -0.0977 -0.7839
  720MOL0     H97143   8.932   1.663   5.476 -0.2185  0.0586 -1.9892
  720MOL0     H97144   9.019   1.533   5.400 -1.8757  0.4315 -0.1753
  720MOL0     H97145   9.131   1.795   5.504 -0.9840  0.0834 -1.1226
  720MOL0     H97146   9.150   1.633   5.574  1.0406  1.7995  1.4540
  720MOL0     H97147   9.264   1.729   5.308  1.7851 -2.5670  0.1061
  720MOL0     H97148   9.312   1.581   5.378 -1.5135  0.3295 -4.7216
  720MOL0     H97149   9.483   1.744   5.408  0.5674 -2.0188  0.2863
  720MOL0     H97150   9.383   1.865   5.481  0.3988 -1.0079  0.6909
  720MOL0     H97151   9.529   1.512   5.535  1.2460 -1.0931  1.5752
  720MOL0     H97152   9.511   1.413   5.900 -1.3845 -0.4516 -0.1737
  720MOL0     H97153   9.544   1.320   5.755 -0.5852  1.3310  0.1061
  720MOL0     H97154   9.754   1.343   5.840 -0.5932  0.8509  2.6484
  720MOL0     H97155   9.753   1.480   5.733 -0.5686 -2.7309 -2.1811
  720MOL0     H97156   9.706   1.468   6.028  0.6347  1.0579  0.9220
  720MOL0     H97157   9.708   1.629   5.935 -3.0935 -0.2237  0.6407
  720MOL0     H97158   9.924   1.430   5.981 -1.6155  0.1207  0.6173
  720MOL0     H97159   9.923   1.588   6.048 -1.5049  1.2021  0.0333
  720MOL0     H97160  10.168   1.612   5.995 -0.7643  0.0404 -0.6641
  720MOL0     H97161  10.384   1.532   5.941  0.0510  2.0807  0.1572
  720MOL0     H97162  10.578   1.175   5.669 -1.0993  5.5918 -1.1025
  720MOL0     H97163  10.794   1.024   5.652  1.1124  0.9308 -1.6676
  720MOL0     H97164  11.226   1.085   5.732  0.3165 -1.4821 -0.0973
  720MOL0     H97165  11.166   1.240   5.794  1.3202  0.0094  2.9345
  720MOL0     H97166  11.177   0.970   5.957 -2.5537  1.1144  0.8415
  720MOL0     H97167  11.289   1.106   5.972 -0.9380  1.8121  0.1627
  720MOL0     H97168  11.097   1.239   6.056  0.5266 -0.1840 -1.7877
  720MOL0     H97169  10.994   1.095   6.035  0.9349 -2.1236  0.1715
  720MOL0     H97170  11.226   1.117   6.227 -1.4085  3.4930 -0.8427
  720MOL0     H97171  11.143   0.969   6.192 -1.3133 -1.4093 -2.8535
  720MOL0     H97172  10.932   1.075   6.266 -0.1996 -1.1933  2.5661
  720MOL0     H97173  11.015   1.233   6.297 -0.2971  0.0636 -2.1245
  720MOL0     H97174  10.967   1.032   6.484 -1.3451 -1.4146 -2.2332
  720MOL0     H97175  11.112   0.963   6.428 -0.9030 -0.1275  1.1206
  720MOL0     H97176  11.094   1.254   6.546  0.0278  0.5247  0.0786
  720MOL0     H97177  11.234   1.195   6.474  0.0949  0.1425 -0.7019
  720MOL0     H97178  11.243   1.019   6.643 -1.0694 -0.7929 -2.0868
  720MOL0     H97179  11.238   1.172   6.714 -0.5161 -1.9195  2.8142
  720MOL0     H97180  10.993   1.297   5.898 -0.4530 -0.5065  1.1842
  720MOL0     H97181  10.789   1.449   5.918  1.3979 -0.6995  0.2088
  720MOL0     H97182  10.234   1.331   5.594 -1.7649  0.3176 -0.5335
  720MOL0     H97183  10.012   1.438   5.632 -0.2621  1.2944  0.1618
  720MOL0     H97184   8.432   1.457   5.280  2.2204  2.2891 -0.0525
  720MOL0     H97185   8.200   1.398   5.253  2.6520 -2.3079 -1.5436
  720MOL0     H97186   7.819   1.267   5.284  2.1438  1.8696  0.2226
  720MOL0     H97187   7.577   1.273   5.322  1.5491 -2.3833 -1.4349
  720MOL0     H97188   7.218   1.463   5.175 -1.0459  0.0025 -2.1927
  720MOL0     H97189   7.343   1.532   5.070  0.8437  0.0191  0.0030
  720MOL0     H97190   7.399   1.710   5.242  0.6557 -0.9574 -2.6302
  720MOL0     H97191   7.288   1.632   5.348 -0.4928  2.0886 -0.0975
  720MOL0     H97192   7.168   1.815   5.250 -1.6917  1.8562 -1.4406
  720MOL0     H97193   7.091   1.670   5.189 -0.0556  0.8805 -0.7935
  720MOL0     H97194   7.213   1.681   4.967 -2.1189 -1.0648 -0.2107
  720MOL0     H97195   7.102   1.824   5.008  1.1276  2.3078 -0.0719
  720MOL0     H97196   7.501   1.984   4.993 -1.2615  2.8968 -0.0870
  720MOL0     H97197   7.530   1.612   5.064  1.5089  1.5824 -1.2961
  720MOL0     H97198   7.703   1.685   4.925  0.3978  4.1908  2.0854
  720MOL0     H97199   7.839   1.722   5.030  0.7790 -0.1232  0.4801
  720MOL0     H97200   7.847   1.595   4.910 -1.8248 -0.8452 -0.5289
  721MOL0     O97201   1.189  10.062   8.070  0.7591  0.3340  0.3024
  721MOL0     C97202   1.070  10.101   8.051 -0.1284 -1.3307 -0.4591
  721MOL0     O97203   1.032  10.237   8.052  0.4439  0.6300 -0.0382
  721MOL0     C97204   1.107  10.326   8.108  0.2036 -0.5662  0.2204
  721MOL0     C97205   1.230  10.368   8.048 -0.2870  0.2835 -0.5636
  721MOL0     C97206   1.314  10.455   8.120 -0.5458 -0.8726 -0.3720
  721MOL0     C97207   1.278  10.502   8.248  0.3359  0.9298  0.9106
  721MOL0     O97208   1.372  10.569   8.323  0.2360  0.2216 -0.1341
  721MOL0     C97209   1.344  10.595   8.462 -0.3958 -0.6625  0.4076
  721MOL0     C97210   1.444  10.711   8.509  0.1161  0.6407  0.6795
  721MOL0     C97211   1.590  10.652   8.521 -0.0815 -0.4678 -0.6505
  721MOL0     C97212   1.623  10.559   8.644  0.3766 -0.2609  0.4106
  721MOL0     C97213   1.762  10.496   8.625 -0.1902  0.1989 -0.6149
  721MOL0     C97214   1.885  10.589   8.613 -0.0463  0.5674 -0.1999
  721MOL0     C97215   2.010  10.508   8.627 -0.1620  0.1871 -0.5075
  721MOL0     C97216   2.123  10.609   8.632 -0.0776 -0.4833  0.2227
  721MOL0     N97217   2.247  10.547   8.594 -0.7138 -0.0532  0.6955
  721MOL0     C97218   2.311  10.451   8.659 -0.2154  0.2480  0.0017
  721MOL0     C97219   2.416  10.411   8.589 -0.0161 -0.2422 -0.1799
  721MOL0     C97220   2.496  10.289   8.638  0.0455  0.0380 -0.0688
  721MOL0     C97221   2.643  10.308   8.689 -0.0853 -1.3149  0.3077
  721MOL0     C97222   2.697  10.174   8.727  0.3118  0.0624  0.1194
  721MOL0     C97223   2.851  10.159   8.738  0.7534  0.2397  0.1745
  721MOL0     O97224   2.880  10.185   8.876  0.1574  0.4888  0.3564
  721MOL0     C97225   3.010  10.211   8.907 -0.7022  0.4766 -0.6018
  721MOL0     C97226   3.031  10.312   8.994 -0.4120  0.1598 -0.5289
  721MOL0     C97227   3.160  10.344   9.035 -0.2352 -0.6547 -0.3860
  721MOL0     C97228   3.271  10.284   8.984 -0.4327  0.1339 -0.8749
  721MOL0     C97229   3.407  10.321   9.019 -0.7676  0.5469 -0.5124
  721MOL0     O97230   3.427  10.448   9.074  0.0988 -0.0376 -0.1141
  721MOL0     C97231   3.554  10.464   9.122  0.6493  0.2676  0.6746
  721MOL0     C97232   3.567  10.470   9.264 -0.3514 -0.3919 -0.1387
  721MOL0     C97233   3.704  10.477   9.317  0.6045 -0.3588  0.8435
  721MOL0     C97234   3.810  10.465   9.226 -1.7123  0.0969  0.0657
  721MOL0     O97235   3.939  10.464   9.278  0.0670  0.0760 -0.3171
  721MOL0     C97236   4.037  10.550   9.222  0.6705  0.6764 -0.0928
  721MOL0     C97237   4.157  10.508   9.299  0.9618 -0.2611  0.1914
  721MOL0     C97238   4.197  10.365   9.262  0.0957  0.5110  0.6216
  721MOL0     C97239   4.328  10.330   9.321  0.7190 -0.7614 -0.1454
  721MOL0     C97240   4.336  10.173   9.288  0.8743 -0.3160  0.3831
  721MOL0     C97241   4.466  10.123   9.343  0.1205 -0.1703  0.3017
  721MOL0     C97242   4.524  10.000   9.273 -0.3144 -0.0322  0.1082
  721MOL0     C97243   4.435   9.873   9.300 -0.0836  0.2960  0.2607
  721MOL0    Cl97244   4.309   9.851   9.177  0.1640  0.1278  0.0405
  721MOL0     C97245   3.798  10.473   9.089  0.4165 -0.0414 -0.2451
  721MOL0     C97246   3.668  10.471   9.033  0.6851 -0.1253 -0.5562
  721MOL0     O97247   3.496  10.242   8.995  1.0948  0.8008 -0.3353
  721MOL0     C97248   3.253  10.178   8.888 -0.8039  0.2056 -0.0234
  721MOL0     C97249   3.123  10.148   8.845 -0.3768 -0.1438  0.8504
  721MOL0     N97250   2.419  10.485   8.471  0.2145 -1.0072 -0.4582
  721MOL0     N97251   2.313  10.565   8.483  0.3887  0.6622  0.3390
  721MOL0     C97252   1.148  10.472   8.294  1.5093  0.0166  0.3026
  721MOL0     C97253   1.054  10.393   8.223 -0.2956 -0.3686 -0.3041
  721MOL0     C97254   0.960   9.998   8.058 -0.4929 -0.2248 -0.4921
  721MOL0     C97255   0.825  10.041   8.093  0.1852  0.0543  0.4560
  721MOL0     C97256   0.716   9.947   8.102 -0.4043 -0.2420  0.5243
  721MOL0     C97257   0.732   9.816   8.060  0.0154  0.2446 -0.9349
  721MOL0     O97258   0.625   9.728   8.040 -0.2910 -0.1774 -0.0901
  721MOL0     C97259   0.530   9.772   7.937 -0.4175  0.4891  0.5328
  721MOL0     C97260   0.392   9.765   8.006 -0.3291  0.4090 -0.6890
  721MOL0     C97261   0.350   9.610   8.016 -0.2449 -0.6309  0.3339
  721MOL0     C97262   0.233   9.580   8.098  0.2577 -0.8505  0.2457
  721MOL0     C97263   0.181   9.450   8.057 -0.5522 -0.5531 -0.2998
  721MOL0     C97264   0.114   9.356   8.025 -0.0611 -0.2540  0.5035
  721MOL0     C97265   0.863   9.781   8.019  1.4220  0.0103  1.0971
  721MOL0     C97266   0.979   9.863   8.020 -0.3654 -0.1211 -0.0408
  721MOL0     C97267   1.109   9.793   7.983 -0.7742 -0.1004  0.1718
  721MOL0     H97268   1.249  10.332   7.948 -0.2639 -0.2026 -0.3868
  721MOL0     H97269   1.408  10.477   8.070 -1.8455 -0.6594 -2.9021
  721MOL0     H97270   1.244  10.637   8.475  0.4588  2.5496 -2.1811
  721MOL0     H97271   1.355  10.509   8.528 -2.4021 -0.4374  1.1171
  721MOL0     H97272   1.413  10.746   8.608 -0.2451 -0.7834  1.0895
  721MOL0     H97273   1.436  10.801   8.447 -2.5672 -0.9201 -1.4039
  721MOL0     H97274   1.649  10.740   8.548 -2.3895  0.8066  0.6350
  721MOL0     H97275   1.622  10.611   8.425  0.1727 -1.1271 -0.2898
  721MOL0     H97276   1.621  10.614   8.738  2.9535  2.2232 -0.8290
  721MOL0     H97277   1.550  10.478   8.644  1.4066 -1.2321  0.0932
  721MOL0     H97278   1.782  10.441   8.718  0.6008  0.1887 -0.7855
  721MOL0     H97279   1.758  10.415   8.552 -1.6548 -1.7897  1.4888
  721MOL0     H97280   1.878  10.634   8.513 -1.2617 -1.5682 -1.1458
  721MOL0     H97281   1.887  10.662   8.693 -0.8758 -1.0394  1.3560
  721MOL0     H97282   2.035  10.443   8.543  5.8224  0.2421  0.7219
  721MOL0     H97283   2.010  10.446   8.717 -0.5272  1.0334  0.0884
  721MOL0     H97284   2.102  10.694   8.565  1.3789  0.6304  1.1138
  721MOL0     H97285   2.131  10.650   8.733  0.1415  0.1253 -0.0382
  721MOL0     H97286   2.287  10.409   8.756 -2.2397  1.6918  0.1799
  721MOL0     H97287   2.434  10.241   8.714 -0.7630 -0.9679 -1.3293
  721MOL0     H97288   2.493  10.231   8.545 -1.2720  0.6716 -0.4370
  721MOL0     H97289   2.701  10.343   8.603  2.0194 -1.6811  1.5033
  721MOL0     H97290   2.639  10.384   8.767  0.5920 -0.4749 -0.4588
  721MOL0     H97291   2.670  10.108   8.645  2.2240  0.8401 -1.2082
  721MOL0     H97292   2.645  10.136   8.816 -0.5798 -1.0062 -0.8233
  721MOL0     H97293   2.909  10.219   8.667  1.3694 -2.4790 -1.7615
  721MOL0     H97294   2.872  10.054   8.716 -1.5319 -0.2455 -0.0271
  721MOL0     H97295   2.944  10.367   9.029  0.3260  1.1985 -0.2579
  721MOL0     H97296   3.172  10.421   9.111  1.6199 -1.7101  0.4541
  721MOL0     H97297   3.481  10.477   9.330  0.5382  0.2350  0.9850
  721MOL0     H97298   3.725  10.498   9.421  3.4826  2.1721 -0.1082
  721MOL0     H97299   4.052  10.550   9.113 -0.6752 -1.1587 -0.3257
  721MOL0     H97300   4.002  10.646   9.262 -0.2914 -0.0625  0.8986
  721MOL0     H97301   4.243  10.575   9.288  1.8519 -1.3126  0.6081
  721MOL0     H97302   4.125  10.515   9.403  0.2941  0.9063 -0.0733
  721MOL0     H97303   4.114  10.305   9.300 -1.1411  0.9823 -1.1698
  721MOL0     H97304   4.212  10.362   9.153  3.2229  0.3549  0.9734
  721MOL0     H97305   4.326  10.347   9.429  0.5495 -1.9783  0.0533
  721MOL0     H97306   4.410  10.382   9.271  2.3376 -1.2581  1.8296
  721MOL0     H97307   4.331  10.158   9.180 -1.3901  1.7405  0.1089
  721MOL0     H97308   4.253  10.121   9.336  2.7455 -3.0682  0.8754
  721MOL0     H97309   4.537  10.206   9.336 -1.4390  1.0335 -2.9437
  721MOL0     H97310   4.447  10.097   9.448  2.1059  1.6980  1.2083
  721MOL0     H97311   4.621   9.973   9.316 -0.7429  0.4558  1.4349
  721MOL0     H97312   4.539  10.021   9.167  0.6198  0.8691  0.4001
  721MOL0     H97313   4.496   9.782   9.297 -1.5622 -0.7053 -1.0519
  721MOL0     H97314   4.404   9.887   9.404  1.1809  5.2003  0.2396
  721MOL0     H97315   3.876  10.462   9.015 -0.3954 -0.6081 -1.0402
  721MOL0     H97316   3.650  10.456   8.927 -0.8358 -0.2658 -0.2994
  721MOL0     H97317   3.338  10.137   8.834  0.1752 -0.6048  2.0596
  721MOL0     H97318   3.102  10.079   8.764 -1.4420  0.0211  0.9809
  721MOL0     H97319   1.122  10.494   8.397  1.6755 -0.4638  0.4491
  721MOL0     H97320   0.953  10.375   8.259 -1.1296  2.5622 -0.8796
  721MOL0     H97321   0.799  10.145   8.112 -1.7593 -0.0566 -1.3181
  721MOL0     H97322   0.616   9.973   8.133 -0.9126 -1.9695  0.4358
  721MOL0     H97323   0.513   9.702   7.854 -1.3128 -0.5493  1.5645
  721MOL0     H97324   0.545   9.871   7.893 -1.4682  0.9323  1.1666
  721MOL0     H97325   0.318   9.826   7.952 -2.1974 -2.3863 -1.4915
  721MOL0     H97326   0.402   9.816   8.102  2.8726 -1.4715  0.1181
  721MOL0     H97327   0.433   9.544   8.044 -1.2822 -2.0813  0.0848
  721MOL0     H97328   0.323   9.584   7.913  0.4713 -2.4111  0.5559
  721MOL0     H97329   0.257   9.586   8.205 -0.7576  1.9127  0.3772
  721MOL0     H97330   0.153   9.652   8.082 -0.0938 -0.4626  3.1363
  721MOL0     H97331   0.037   9.283   8.006  0.0656 -0.1310 -0.5067
  721MOL0     H97332   0.865   9.683   7.972 -0.2299  1.1103 -1.4555
  721MOL0     H97333   1.164   9.769   8.075  2.1832 -0.5109 -1.5828
  721MOL0     H97334   1.094   9.708   7.915 -0.9254  2.5486 -3.3806
  721MOL0     H97335   1.168   9.861   7.921  0.0794 -1.4294 -0.5188
  722MOL0     O97336  11.208   2.331   4.069 -0.1223 -0.2899  0.2126
  722MOL0     C97337  11.098   2.359   4.022  0.3747  0.8378  0.3132
  722MOL0     O97338  11.076   2.429   3.911 -0.2930 -0.3152  0.0434
  722MOL0     C97339  11.189   2.489   3.858  0.0507  0.4088 -0.9413
  722MOL0     C97340  11.217   2.462   3.723  0.4976 -0.6992  0.3680
  722MOL0     C97341  11.335   2.494   3.666  0.0697  0.3188 -0.7319
  722MOL0     C97342  11.430   2.565   3.737  0.2918 -0.7174 -1.2332
  722MOL0     O97343  11.544   2.590   3.674  0.7693  0.8255  0.9570
  722MOL0     C97344  11.638   2.679   3.732 -0.4623 -0.2251  0.5018
  722MOL0     C97345  11.758   2.692   3.635  1.5364 -0.8775  0.1963
  722MOL0     C97346  11.859   2.595   3.684 -0.5441 -0.4207 -0.5770
  722MOL0     C97347  11.973   2.569   3.583 -0.3635 -0.0880  0.2598
  722MOL0     C97348  12.078   2.685   3.572 -0.8960 -0.3338  0.6319
  722MOL0     C97349  12.175   2.660   3.449  0.1425 -0.0584 -0.1176
  722MOL0     C97350  12.280   2.543   3.466 -0.0298  0.3689  0.1986
  722MOL0     C97351  12.352   2.542   3.333  0.1314 -0.4030  0.3282
  722MOL0     N97352  12.434   2.421   3.334 -0.2479  0.9204 -0.2884
  722MOL0     C97353  12.391   2.289   3.328  0.3497  0.1485 -0.6652
  722MOL0     C97354  12.500   2.215   3.299 -0.9137 -0.2016  0.1914
  722MOL0     C97355  12.519   2.069   3.277 -0.5656 -0.4434  0.8560
  722MOL0     C97356  12.448   1.970   3.379  0.5948 -0.7480  0.0146
  722MOL0     C97357  12.528   1.953   3.511 -0.6109  1.1250 -0.0783
  722MOL0     C97358  12.648   1.847   3.495 -0.2379  0.3601 -0.1342
  722MOL0     O97359  12.727   1.845   3.614  0.4228 -0.2976  0.8801
  722MOL0     C97360  12.828   1.933   3.633  1.3931 -0.0489 -0.8020
  722MOL0     C97361  12.898   1.930   3.755  0.7916 -0.4681 -0.4898
  722MOL0     C97362  13.000   2.016   3.782  1.0963 -0.2533  0.0785
  722MOL0     C97363  13.053   2.099   3.685 -0.1960 -0.4243  0.0430
  722MOL0     C97364  13.170   2.173   3.721 -0.2304 -0.4412 -0.6039
  722MOL0     O97365  13.218   2.172   3.854  0.4937 -0.0605  0.4242
  722MOL0     C97366  13.335   2.242   3.890 -0.2187 -0.5139  0.9237
  722MOL0     C97367  13.451   2.242   3.818 -0.2327 -0.4252 -0.3349
  722MOL0     C97368  13.571   2.307   3.865  0.3378  0.1780  0.6857
  722MOL0     C97369  13.574   2.363   3.989 -0.4202  0.3077 -0.0019
  722MOL0     O97370  13.684   2.435   4.033 -0.4065 -0.2937 -0.6027
  722MOL0     C97371  13.703   2.479   4.167 -0.0250  0.1012  0.6779
  722MOL0     C97372  13.849   2.501   4.183 -0.3167  0.4002  0.7776
  722MOL0     C97373  13.901   2.523   4.327  0.4599 -0.0895  0.5587
  722MOL0     C97374  13.956   2.667   4.358  0.3909 -0.9697  0.2681
  722MOL0     C97375  14.094   2.699   4.298 -0.1579 -0.6769  0.6703
  722MOL0     C97376  14.205   2.594   4.325 -0.1813 -0.0065 -1.0450
  722MOL0     C97377  14.349   2.640   4.289 -0.2208 -0.4414  0.2186
  722MOL0     C97378  14.433   2.679   4.412 -0.1557  0.4992  0.0903
  722MOL0    Cl97379  14.601   2.729   4.377  0.2966  0.0966  0.0098
  722MOL0     C97380  13.449   2.370   4.063 -0.1152 -0.1512  0.2473
  722MOL0     C97381  13.330   2.311   4.013 -0.7526 -0.8553 -0.3899
  722MOL0     O97382  13.210   2.253   3.633 -0.0756 -0.2132 -0.0933
  722MOL0     C97383  12.988   2.103   3.557 -0.5144  0.8089  0.7823
  722MOL0     C97384  12.873   2.024   3.534 -0.5168  0.8577 -0.5682
  722MOL0     N97385  12.614   2.302   3.298  0.1155  0.3287  0.1072
  722MOL0     N97386  12.572   2.421   3.316 -0.1227  0.4820 -0.8047
  722MOL0     C97387  11.399   2.608   3.865  0.8414 -0.0817 -0.1335
  722MOL0     C97388  11.269   2.581   3.925  0.0000 -0.4972  0.3941
  722MOL0     C97389  10.987   2.335   4.115 -0.0497  0.7422 -0.6903
  722MOL0     C97390  11.020   2.326   4.256  0.1794 -0.5653 -0.1047
  722MOL0     C97391  10.919   2.352   4.356  0.0390  0.2160  0.3588
  722MOL0     C97392  10.783   2.359   4.324  0.4612 -0.3522  0.4605
  722MOL0     O97393  10.684   2.375   4.420 -0.6209 -0.7500 -0.1025
  722MOL0     C97394  10.712   2.476   4.519 -0.5180  0.2394  0.5061
  722MOL0     C97395  10.661   2.613   4.469  0.4445  0.7560  0.2894
  722MOL0     C97396  10.510   2.602   4.465 -0.1765 -1.3516 -0.1639
  722MOL0     C97397  10.459   2.747   4.487  0.7531  0.1710 -0.2263
  722MOL0     C97398  10.311   2.748   4.479  0.0356  0.0295  0.0511
  722MOL0     C97399  10.191   2.748   4.478 -0.4910  0.1056  0.3501
  722MOL0     C97400  10.751   2.351   4.193 -0.8209 -0.4097  0.5427
  722MOL0     C97401  10.851   2.353   4.088  0.2287  0.8113  0.4010
  722MOL0     C97402  10.803   2.359   3.941  0.0901  0.5432  0.0463
  722MOL0     H97403  11.139   2.400   3.679  1.0559 -1.0394 -0.1471
  722MOL0     H97404  11.365   2.459   3.567  1.0451 -0.5208 -0.1546
  722MOL0     H97405  11.592   2.776   3.750 -1.3803 -0.9480  2.2593
  722MOL0     H97406  11.671   2.639   3.828  2.7698  1.4888  0.2465
  722MOL0     H97407  11.796   2.792   3.661  0.3343 -0.7601  1.6284
  722MOL0     H97408  11.749   2.682   3.526  0.6624 -0.4992  0.2292
  722MOL0     H97409  11.814   2.499   3.709  0.9847 -1.4050 -1.4085
  722MOL0     H97410  11.905   2.625   3.779 -2.4719  0.0459  0.2497
  722MOL0     H97411  12.027   2.478   3.610 -0.7541 -0.9822 -1.8280
  722MOL0     H97412  11.930   2.546   3.485 -1.9669 -1.2851  1.1876
  722MOL0     H97413  12.019   2.774   3.548  3.0090  2.3426  0.0560
  722MOL0     H97414  12.133   2.706   3.664  0.5865  2.3000 -0.7553
  722MOL0     H97415  12.107   2.644   3.366  1.9680 -1.7292 -1.3645
  722MOL0     H97416  12.226   2.756   3.430 -3.1004  1.7463 -0.3552
  722MOL0     H97417  12.232   2.447   3.489  2.3241 -0.5867  1.4927
  722MOL0     H97418  12.352   2.564   3.545  1.0727 -2.6021  0.1259
  722MOL0     H97419  12.285   2.534   3.247  0.0539 -0.9422  0.4365
  722MOL0     H97420  12.413   2.633   3.322 -0.0022 -0.0678  2.0865
  722MOL0     H97421  12.288   2.253   3.331  0.0089  1.0634 -1.1576
  722MOL0     H97422  12.478   2.052   3.176 -0.7727  0.7037  0.7364
  722MOL0     H97423  12.626   2.050   3.275 -0.5597 -0.7068 -2.2463
  722MOL0     H97424  12.348   2.007   3.402  0.3473  0.5857 -2.8657
  722MOL0     H97425  12.436   1.870   3.336  2.1814 -0.6936 -0.6077
  722MOL0     H97426  12.474   1.901   3.590  2.2769 -0.1306  1.2248
  722MOL0     H97427  12.557   2.051   3.550  0.4557  0.8873 -0.2532
  722MOL0     H97428  12.700   1.866   3.401  1.2655 -0.3247  0.5242
  722MOL0     H97429  12.607   1.748   3.474  0.6056 -0.1694  0.6174
  722MOL0     H97430  12.874   1.859   3.833  1.7808  1.1394  1.3641
  722MOL0     H97431  13.039   1.999   3.881  1.2842  2.2459  0.4980
  722MOL0     H97432  13.447   2.217   3.712  3.5444 -2.3968 -0.1833
  722MOL0     H97433  13.651   2.321   3.792 -0.5437 -2.9560 -1.0706
  722MOL0     H97434  13.648   2.568   4.197 -1.3836 -0.7029  0.6607
  722MOL0     H97435  13.675   2.397   4.233  0.4907 -1.4621 -0.9552
  722MOL0     H97436  13.897   2.409   4.150 -1.9735 -0.3878  0.4311
  722MOL0     H97437  13.893   2.574   4.116  0.9011 -2.3275 -1.5984
  722MOL0     H97438  13.816   2.531   4.395 -1.0975 -4.2235 -0.5842
  722MOL0     H97439  13.959   2.435   4.357 -0.8250 -1.4812 -0.8364
  722MOL0     H97440  13.959   2.680   4.466  0.3869  1.3264  0.0348
  722MOL0     H97441  13.881   2.735   4.317 -1.5208 -2.4324  1.1667
  722MOL0     H97442  14.122   2.790   4.353 -1.2117 -1.2028  2.1615
  722MOL0     H97443  14.078   2.708   4.190  0.0773 -0.9999  0.6096
  722MOL0     H97444  14.198   2.553   4.426 -0.3507  0.1088 -1.0091
  722MOL0     H97445  14.190   2.511   4.255  1.2351 -0.4364 -0.8586
  722MOL0     H97446  14.355   2.726   4.222  1.3139  0.0287  0.8998
  722MOL0     H97447  14.402   2.562   4.235  1.3161 -0.3810  1.5622
  722MOL0     H97448  14.388   2.768   4.458  0.1935  2.4156 -2.9753
  722MOL0     H97449  14.426   2.592   4.478  0.3628 -0.0864 -0.6065
  722MOL0     H97450  13.442   2.425   4.157  1.6420 -3.0707  2.2544
  722MOL0     H97451  13.240   2.309   4.072 -2.6920  0.7516 -3.0729
  722MOL0     H97452  13.018   2.183   3.490 -0.3298  1.0537  1.1509
  722MOL0     H97453  12.822   2.043   3.440 -0.0993 -1.0070 -1.2141
  722MOL0     H97454  11.471   2.660   3.927 -0.0358 -0.1366  0.9624
  722MOL0     H97455  11.238   2.613   4.024 -4.2589  0.6793 -1.1046
  722MOL0     H97456  11.116   2.305   4.302 -1.3955 -2.4265  2.6398
  722MOL0     H97457  10.959   2.354   4.456 -0.0894 -2.5307  0.5432
  722MOL0     H97458  10.820   2.488   4.531 -0.3942  1.0820 -1.1763
  722MOL0     H97459  10.668   2.451   4.616  1.7489 -1.9534  1.0676
  722MOL0     H97460  10.702   2.627   4.369  1.5457  1.2870  0.7939
  722MOL0     H97461  10.699   2.699   4.525  0.6720  1.3468 -0.7523
  722MOL0     H97462  10.468   2.543   4.547  0.3296 -2.2450 -0.5365
  722MOL0     H97463  10.473   2.561   4.371 -3.9539 -0.8591  0.9119
  722MOL0     H97464  10.499   2.796   4.576  1.2306  1.1711 -0.9762
  722MOL0     H97465  10.495   2.809   4.404  1.4555  1.3956  0.9622
  722MOL0     H97466  10.085   2.740   4.467 -0.9174  3.6537  0.6746
  722MOL0     H97467  10.645   2.356   4.171 -1.3808  3.1818  3.0332
  722MOL0     H97468  10.868   2.294   3.882  2.1475  3.1779 -0.7720
  722MOL0     H97469  10.695   2.339   3.936 -0.3242  2.0074  1.9047
  722MOL0     H97470  10.817   2.460   3.902  0.6491  0.3630 -0.2236
  723MOL0     O97471   5.824   9.347   6.834 -0.1142 -0.4049  0.2491
  723MOL0     C97472   5.782   9.458   6.797 -0.0984  0.1345 -0.3492
  723MOL0     O97473   5.857   9.570   6.796 -1.0669 -0.0240 -0.2726
  723MOL0     C97474   5.994   9.562   6.789 -0.7264 -0.2177 -0.2257
  723MOL0     C97475   6.062   9.628   6.686 -0.1811 -1.0264 -0.1574
  723MOL0     C97476   6.203   9.629   6.676  0.2212 -0.3430  1.1106
  723MOL0     C97477   6.279   9.561   6.774  0.0877 -0.2140  0.0872
  723MOL0     O97478   6.420   9.569   6.777  0.3478 -0.1351 -0.1944
  723MOL0     C97479   6.490   9.442   6.785 -0.8047 -0.0101  0.0544
  723MOL0     C97480   6.641   9.473   6.779  0.6327  0.5483 -0.2851
  723MOL0     C97481   6.728   9.370   6.844  0.8718 -0.3508  0.2313
  723MOL0     C97482   6.879   9.397   6.816 -0.8542  0.1288 -0.3057
  723MOL0     C97483   6.970   9.268   6.835 -0.1331  0.5814  0.1734
  723MOL0     C97484   7.114   9.299   6.822 -0.3783  0.3391 -0.2906
  723MOL0     C97485   7.205   9.170   6.843 -0.0639  0.2771  0.1286
  723MOL0     C97486   7.353   9.191   6.834 -0.1465 -0.1820 -0.8706
  723MOL0     N97487   7.385   9.230   6.695 -0.5350 -0.6468 -0.6219
  723MOL0     C97488   7.435   9.145   6.609  0.2261  0.0800 -0.1923
  723MOL0     C97489   7.490   9.218   6.508 -0.2294  0.3988 -0.2093
  723MOL0     C97490   7.571   9.161   6.397 -0.8809  0.3688  0.1984
  723MOL0     C97491   7.721   9.184   6.403 -0.7272  0.3361  0.1816
  723MOL0     C97492   7.747   9.339   6.378  0.1626 -1.0676 -0.9568
  723MOL0     C97493   7.891   9.375   6.352 -0.6444  0.0283 -0.4462
  723MOL0     O97494   7.974   9.307   6.449  0.1381 -0.2831  0.4973
  723MOL0     C97495   8.092   9.360   6.475  0.0560  0.1329  0.2688
  723MOL0     C97496   8.117   9.388   6.610  0.4308  0.4086  0.3534
  723MOL0     C97497   8.246   9.418   6.660 -0.3143 -0.3614 -0.2348
  723MOL0     C97498   8.350   9.431   6.567 -0.2297 -0.3144 -0.4061
  723MOL0     C97499   8.487   9.467   6.608 -0.2475  0.3597 -0.2402
  723MOL0     O97500   8.574   9.485   6.508 -0.0692  0.0211 -0.0667
  723MOL0     C97501   8.707   9.521   6.537 -0.6188 -0.3114  0.0357
  723MOL0     C97502   8.742   9.637   6.608  0.5807  0.3760  0.4495
  723MOL0     C97503   8.867   9.672   6.647  0.0911  0.3878 -0.0211
  723MOL0     C97504   8.981   9.604   6.590  0.1278  0.4394  0.7416
  723MOL0     O97505   9.108   9.645   6.628  0.8109 -0.8324 -0.4705
  723MOL0     C97506   9.219   9.568   6.588 -0.6415  0.0758 -0.0844
  723MOL0     C97507   9.267   9.600   6.442  1.0045 -0.6847 -0.0536
  723MOL0     C97508   9.301   9.750   6.422  0.0743  0.3613  0.4390
  723MOL0     C97509   9.402   9.816   6.508 -0.1465  0.8551  0.1971
  723MOL0     C97510   9.444   9.952   6.439 -0.3791 -0.0595  0.2535
  723MOL0     C97511   9.543  10.036   6.515  0.3314 -0.0647  0.3152
  723MOL0     C97512   9.573  10.172   6.454  0.5011  0.4083  0.7545
  723MOL0     C97513   9.651  10.164   6.318  0.1912  0.1341 -0.2691
  723MOL0    Cl97514   9.687  10.332   6.262  0.0071  0.0766 -0.1169
  723MOL0     C97515   8.948   9.486   6.509  0.2847 -0.5920  0.0942
  723MOL0     C97516   8.820   9.451   6.486 -0.4816  1.0515 -0.7332
  723MOL0     O97517   8.516   9.464   6.724 -0.1945  0.1492  0.5675
  723MOL0     C97518   8.328   9.395   6.434  0.0554 -0.7447 -0.5315
  723MOL0     C97519   8.204   9.353   6.393  0.2760  0.0422 -0.0978
  723MOL0     N97520   7.466   9.353   6.548  0.0079 -0.2131  0.0486
  723MOL0     N97521   7.398   9.362   6.661 -0.3154 -0.6740  0.7145
  723MOL0     C97522   6.211   9.499   6.883  0.0720  0.0538  0.2415
  723MOL0     C97523   6.072   9.510   6.895 -0.3819  0.4234 -0.3037
  723MOL0     C97524   5.650   9.465   6.731 -0.0588 -0.9148 -0.1786
  723MOL0     C97525   5.579   9.344   6.710  0.6602  0.1340  0.1155
  723MOL0     C97526   5.441   9.346   6.662 -0.3026 -1.1955 -0.0529
  723MOL0     C97527   5.383   9.466   6.617  0.6454  0.5864  0.7287
  723MOL0     O97528   5.266   9.458   6.545 -0.4378  0.7345  0.2423
  723MOL0     C97529   5.224   9.566   6.475 -0.3435 -0.5376  0.1813
  723MOL0     C97530   5.116   9.522   6.374  0.4892 -0.0108  0.6062
  723MOL0     C97531   4.977   9.547   6.432 -0.2975 -0.3273 -0.2304
  723MOL0     C97532   4.869   9.474   6.337 -0.6201 -0.0036 -0.4526
  723MOL0     C97533   4.854   9.560   6.217  0.9344  0.1109 -0.5248
  723MOL0     C97534   4.840   9.642   6.124  0.8903 -0.3464  0.0182
  723MOL0     C97535   5.461   9.584   6.637  0.3679  0.1632  0.3234
  723MOL0     C97536   5.590   9.591   6.688 -0.4392  0.0028 -0.2555
  723MOL0     C97537   5.642   9.731   6.708 -0.1737 -0.1891 -0.8022
  723MOL0     H97538   6.008   9.686   6.611 -2.6163 -0.9772  1.5299
  723MOL0     H97539   6.254   9.684   6.597 -2.0615 -1.0785 -1.0037
  723MOL0     H97540   6.470   9.405   6.886  1.5155 -2.0049 -0.1149
  723MOL0     H97541   6.467   9.377   6.700  2.0201 -0.4252 -0.5021
  723MOL0     H97542   6.653   9.575   6.817  0.7515  0.7488 -0.8643
  723MOL0     H97543   6.673   9.480   6.675  3.3986 -1.1342  0.3490
  723MOL0     H97544   6.708   9.270   6.805 -0.3423 -0.1104  0.2103
  723MOL0     H97545   6.721   9.371   6.953  3.7919 -0.0869  0.5191
  723MOL0     H97546   6.890   9.434   6.713  2.3489 -1.3448 -0.6142
  723MOL0     H97547   6.914   9.477   6.882 -1.3894 -0.8268  1.1759
  723MOL0     H97548   6.964   9.231   6.938  2.2964 -2.1986 -0.5533
  723MOL0     H97549   6.930   9.192   6.767 -0.5882  1.8418 -1.0184
  723MOL0     H97550   7.147   9.353   6.733  2.6282 -0.1963  0.3721
  723MOL0     H97551   7.143   9.359   6.908  0.8525 -2.7657  1.6440
  723MOL0     H97552   7.178   9.096   6.768  0.9355 -2.5506  2.4015
  723MOL0     H97553   7.181   9.118   6.936 -0.3436  1.2081  0.5895
  723MOL0     H97554   7.388   9.260   6.912 -2.1542  1.1159 -1.0366
  723MOL0     H97555   7.396   9.093   6.859  1.6636  0.6513 -0.5083
  723MOL0     H97556   7.432   9.037   6.614 -0.7277  0.1384  0.8698
  723MOL0     H97557   7.550   9.054   6.390 -2.8002  0.4514  3.1240
  723MOL0     H97558   7.549   9.213   6.303  0.5173  1.8352  0.6255
  723MOL0     H97559   7.753   9.167   6.506 -0.4873  1.2589  0.2673
  723MOL0     H97560   7.773   9.126   6.326 -0.5207  0.8918 -0.0979
  723MOL0     H97561   7.711   9.392   6.467  2.4458 -1.4995  0.3079
  723MOL0     H97562   7.685   9.381   6.299 -1.6850 -2.0976 -0.1432
  723MOL0     H97563   7.911   9.482   6.363  2.2728 -0.5394  0.5777
  723MOL0     H97564   7.925   9.335   6.256  0.1987 -1.5074  0.4361
  723MOL0     H97565   8.027   9.383   6.671  0.1168 -3.0989 -0.1627
  723MOL0     H97566   8.248   9.445   6.766 -3.2343  2.5419 -0.7177
  723MOL0     H97567   8.656   9.694   6.641  0.3520  1.4450 -1.8250
  723MOL0     H97568   8.883   9.764   6.702  1.1768 -1.2596  2.5993
  723MOL0     H97569   9.295   9.585   6.666 -0.6143 -1.4112  0.2457
  723MOL0     H97570   9.198   9.461   6.593 -3.3201  0.5345 -0.5375
  723MOL0     H97571   9.353   9.538   6.415  1.2035 -0.0205 -1.0442
  723MOL0     H97572   9.189   9.576   6.369 -0.0666 -2.3179  1.5678
  723MOL0     H97573   9.344   9.766   6.323  0.2410 -1.0923  0.2411
  723MOL0     H97574   9.210   9.810   6.422  0.1977  0.6661 -2.0281
  723MOL0     H97575   9.488   9.749   6.520 -1.1752 -0.3874  0.8139
  723MOL0     H97576   9.353   9.827   6.605 -1.7259 -1.7169 -0.2337
  723MOL0     H97577   9.357  10.013   6.415  0.5090  0.4854 -1.7575
  723MOL0     H97578   9.487   9.934   6.340 -2.7231 -1.8873 -0.5330
  723MOL0     H97579   9.496  10.043   6.613 -0.2403 -2.3247  0.2657
  723MOL0     H97580   9.637   9.979   6.522  0.2587 -0.8765 -3.2317
  723MOL0     H97581   9.632  10.232   6.523  1.5603 -0.3610  0.5449
  723MOL0     H97582   9.484  10.231   6.431 -1.5456 -2.4998  0.6100
  723MOL0     H97583   9.736  10.095   6.317 -0.6240 -0.8963 -1.0248
  723MOL0     H97584   9.579  10.123   6.247  0.1285  1.8744 -1.2485
  723MOL0     H97585   9.023   9.426   6.458  1.7022  0.2828  1.0724
  723MOL0     H97586   8.795   9.367   6.422 -2.3863  0.5871  0.5314
  723MOL0     H97587   8.402   9.408   6.356 -0.1664  2.0794 -0.3979
  723MOL0     H97588   8.193   9.327   6.288  1.2769 -2.5993  0.3561
  723MOL0     H97589   6.265   9.458   6.967  0.8067  2.9624  1.2775
  723MOL0     H97590   6.028   9.474   6.987  0.5795 -0.9536 -0.3470
  723MOL0     H97591   5.622   9.247   6.729 -0.5768 -0.5100 -0.2932
  723MOL0     H97592   5.382   9.256   6.655 -3.7358  0.6377  2.1577
  723MOL0     H97593   5.306   9.615   6.422 -0.3223  1.3911  1.8757
  723MOL0     H97594   5.185   9.643   6.543 -1.4988 -0.0723 -0.9691
  723MOL0     H97595   5.119   9.413   6.367 -2.5429 -0.4734  3.7665
  723MOL0     H97596   5.129   9.566   6.274  2.7057 -0.8256  0.4752
  723MOL0     H97597   4.965   9.656   6.429 -0.6324 -0.3723 -0.8837
  723MOL0     H97598   4.965   9.520   6.537  0.9164 -0.7732 -0.1968
  723MOL0     H97599   4.887   9.367   6.322 -3.2722 -0.5123 -0.5770
  723MOL0     H97600   4.772   9.457   6.385  0.3489 -3.1771  0.6781
  723MOL0     H97601   4.831   9.697   6.033  1.6752 -1.5843 -0.8263
  723MOL0     H97602   5.408   9.675   6.613  0.1016 -0.6417 -2.5383
  723MOL0     H97603   5.663   9.735   6.816 -0.6062 -2.1070 -0.5942
  723MOL0     H97604   5.725   9.749   6.639  0.5212  2.3725  0.6003
  723MOL0     H97605   5.558   9.801   6.706 -0.9592 -1.0708 -0.1870
  724MOL0     O97606   9.743   8.729   5.506 -0.2427  0.9059 -0.2808
  724MOL0     C97607   9.625   8.764   5.518  0.1754 -0.8012 -0.0890
  724MOL0     O97608   9.582   8.882   5.558 -1.1285  0.4042  0.3954
  724MOL0     C97609   9.664   8.989   5.592  0.5238 -0.3346  0.2500
  724MOL0     C97610   9.682   9.088   5.497  0.2420 -0.4603 -0.7595
  724MOL0     C97611   9.755   9.207   5.529 -0.5213  0.8899  0.2987
  724MOL0     C97612   9.789   9.235   5.665  0.1250  0.2050 -0.0044
  724MOL0     O97613   9.847   9.353   5.714  0.8136  0.0232 -0.3057
  724MOL0     C97614   9.896   9.442   5.609 -0.1062 -1.0851  0.3852
  724MOL0     C97615   9.956   9.557   5.676 -0.5620 -0.1244  0.0595
  724MOL0     C97616  10.078   9.529   5.764 -0.2686  1.1073 -0.3010
  724MOL0     C97617  10.197   9.475   5.690 -0.5237  0.0361  0.2464
  724MOL0     C97618  10.331   9.491   5.762  0.5730 -0.3741  0.0325
  724MOL0     C97619  10.438   9.422   5.681 -0.4317 -0.3801 -0.6401
  724MOL0     C97620  10.572   9.417   5.761 -0.6695  0.7008  0.7189
  724MOL0     C97621  10.666   9.309   5.697  0.8218  0.2000  0.2227
  724MOL0     N97622  10.799   9.327   5.746  0.1862  0.8010 -0.4750
  724MOL0     C97623  10.898   9.403   5.687 -0.0700 -0.2273 -0.4569
  724MOL0     C97624  11.013   9.376   5.751 -0.0819 -0.7592 -0.7947
  724MOL0     C97625  11.140   9.450   5.747 -0.5961 -0.1829 -0.1440
  724MOL0     C97626  11.176   9.471   5.596  0.2612  1.3662 -0.1520
  724MOL0     C97627  11.304   9.552   5.594  0.1842  0.1715 -0.0743
  724MOL0     C97628  11.435   9.476   5.625  0.4109 -0.0421  0.4988
  724MOL0     O97629  11.542   9.554   5.576 -0.3368 -0.1092 -0.1840
  724MOL0     C97630  11.666   9.491   5.574 -0.3201  0.0085  0.3560
  724MOL0     C97631  11.781   9.563   5.539 -0.3145 -0.5884  0.5208
  724MOL0     C97632  11.912   9.501   5.538  0.1643  0.6043  0.6680
  724MOL0     C97633  11.929   9.374   5.586  0.4733  0.4801 -0.4755
  724MOL0     C97634  12.064   9.313   5.588  0.3050  0.0752  0.4247
  724MOL0     O97635  12.156   9.389   5.523  0.0272  0.0612 -0.3734
  724MOL0     C97636  12.291   9.356   5.540 -0.8226 -0.3473 -0.4283
  724MOL0     C97637  12.349   9.264   5.449  0.4356 -0.8580 -0.5275
  724MOL0     C97638  12.485   9.227   5.460 -0.0602 -0.0633 -0.6096
  724MOL0     C97639  12.568   9.282   5.560 -0.2101 -0.8189 -0.0308
  724MOL0     O97640  12.703   9.245   5.570  0.3856 -0.1628 -0.6238
  724MOL0     C97641  12.777   9.186   5.469 -0.8203  0.2296  0.0974
  724MOL0     C97642  12.917   9.242   5.477  0.4599 -0.4386  0.5829
  724MOL0     C97643  12.996   9.174   5.367 -0.0087  0.2116 -1.2058
  724MOL0     C97644  13.143   9.217   5.372 -0.2558  0.6531 -0.0231
  724MOL0     C97645  13.221   9.150   5.260 -0.2160  0.7201  1.5742
  724MOL0     C97646  13.246   8.999   5.272  0.5014 -0.5186 -0.5293
  724MOL0     C97647  13.376   8.965   5.351  0.3777  0.1491  0.6971
  724MOL0     C97648  13.504   8.989   5.275  0.7089  0.1941 -0.5594
  724MOL0    Cl97649  13.641   8.944   5.381 -0.0712 -0.1553  0.1582
  724MOL0     C97650  12.520   9.386   5.643 -0.5434  0.0153 -0.0607
  724MOL0     C97651  12.384   9.425   5.630 -0.2026  0.4838  0.2650
  724MOL0     O97652  12.081   9.210   5.647 -0.2559 -0.7097  0.0576
  724MOL0     C97653  11.816   9.301   5.617  1.0107 -0.2354  0.4122
  724MOL0     C97654  11.687   9.350   5.611  0.6463 -0.8550  0.3142
  724MOL0     N97655  10.990   9.265   5.826  0.5136  0.2861  0.6197
  724MOL0     N97656  10.868   9.230   5.807  0.4814  0.2237 -0.1135
  724MOL0     C97657   9.753   9.140   5.763  0.3280 -0.5953  0.4983
  724MOL0     C97658   9.691   9.019   5.726 -0.3888 -0.3417 -0.5051
  724MOL0     C97659   9.519   8.665   5.498  0.3766 -0.6714 -0.2577
  724MOL0     C97660   9.398   8.675   5.570  0.2834 -0.6824  0.3965
  724MOL0     C97661   9.299   8.583   5.561 -0.1216 -0.5314  0.6314
  724MOL0     C97662   9.301   8.485   5.457 -0.2157  0.4484 -0.3294
  724MOL0     O97663   9.197   8.395   5.428 -0.1884 -0.0411 -0.1628
  724MOL0     C97664   9.071   8.394   5.503  0.2588  0.1830  0.7879
  724MOL0     C97665   9.090   8.328   5.640  0.4111 -0.7773  0.5960
  724MOL0     C97666   8.955   8.316   5.712  0.2351 -0.3500 -0.1299
  724MOL0     C97667   8.979   8.251   5.848  0.1977 -0.7516  0.2482
  724MOL0     C97668   9.030   8.354   5.935 -0.1788 -0.2145  0.2705
  724MOL0     C97669   9.076   8.455   5.989  0.7186 -0.5761  0.6871
  724MOL0     C97670   9.412   8.487   5.372  0.2711  0.9118 -0.1632
  724MOL0     C97671   9.520   8.569   5.390  1.2084  0.2071  0.0195
  724MOL0     C97672   9.628   8.561   5.285  0.2880 -0.6585 -0.4701
  724MOL0     H97673   9.645   9.071   5.396 -1.4452 -1.6570  0.0259
  724MOL0     H97674   9.786   9.277   5.452  2.8648 -1.8467 -1.1171
  724MOL0     H97675   9.977   9.384   5.562  2.3629  2.1159  0.3376
  724MOL0     H97676   9.819   9.478   5.540  0.3596 -0.2622  0.2775
  724MOL0     H97677   9.878   9.612   5.730  0.2660  2.0398 -0.8337
  724MOL0     H97678   9.992   9.611   5.588 -0.4142  0.2371  0.3353
  724MOL0     H97679  10.045   9.458   5.841  2.7016  1.3255  1.3327
  724MOL0     H97680  10.093   9.627   5.811 -2.0213  1.9176 -1.3192
  724MOL0     H97681  10.178   9.368   5.674  1.3053 -0.1723 -0.8715
  724MOL0     H97682  10.195   9.523   5.592 -1.6110 -1.4050 -0.4866
  724MOL0     H97683  10.344   9.599   5.774  1.9971 -0.6256  1.0651
  724MOL0     H97684  10.330   9.450   5.864  1.9864  0.3010  0.3514
  724MOL0     H97685  10.396   9.321   5.686  1.2380 -1.0675  0.9104
  724MOL0     H97686  10.454   9.450   5.577 -0.7278  0.1135 -0.5512
  724MOL0     H97687  10.564   9.397   5.869  3.8241  0.8518  1.2903
  724MOL0     H97688  10.630   9.510   5.751 -1.8594  1.2590 -1.6173
  724MOL0     H97689  10.612   9.214   5.710 -0.0072  0.8041  1.3688
  724MOL0     H97690  10.659   9.325   5.589  0.3603 -1.8785 -0.1121
  724MOL0     H97691  10.884   9.480   5.612 -1.4202  1.0400  1.0149
  724MOL0     H97692  11.125   9.541   5.805  1.5240  0.1561 -0.0630
  724MOL0     H97693  11.215   9.393   5.802  0.2990 -1.8535 -2.8678
  724MOL0     H97694  11.190   9.373   5.548 -0.3194  1.4530 -0.5045
  724MOL0     H97695  11.094   9.536   5.564 -1.9975 -0.3169  1.8091
  724MOL0     H97696  11.294   9.637   5.662  2.2577 -0.0642  0.6006
  724MOL0     H97697  11.307   9.589   5.491  0.5357 -0.0352 -0.1391
  724MOL0     H97698  11.432   9.375   5.584  1.4428  0.7101 -1.5077
  724MOL0     H97699  11.450   9.470   5.734 -3.7160 -1.5796  1.1893
  724MOL0     H97700  11.773   9.669   5.517 -0.8875 -1.1044 -2.1699
  724MOL0     H97701  11.996   9.562   5.507 -0.1539  0.5419 -0.3275
  724MOL0     H97702  12.284   9.225   5.372 -0.5451  0.6347 -0.5030
  724MOL0     H97703  12.521   9.159   5.383  1.0120 -0.4313  0.1843
  724MOL0     H97704  12.786   9.077   5.474 -0.3654  0.2292 -0.5230
  724MOL0     H97705  12.740   9.208   5.369 -0.9361 -0.0741  0.0717
  724MOL0     H97706  12.911   9.349   5.457 -2.2803 -0.1812  2.3313
  724MOL0     H97707  12.955   9.228   5.578 -2.6024  1.1830  2.1112
  724MOL0     H97708  12.994   9.065   5.372  1.2797  0.1820 -1.1063
  724MOL0     H97709  12.958   9.202   5.269  2.4871  0.2248 -2.2252
  724MOL0     H97710  13.176   9.190   5.473 -2.4902 -3.0259 -0.1150
  724MOL0     H97711  13.144   9.327   5.365 -0.4993  0.5942 -1.3295
  724MOL0     H97712  13.315   9.203   5.243 -0.2011  0.6303  1.3728
  724MOL0     H97713  13.160   9.157   5.169  0.0348 -0.1117  1.3365
  724MOL0     H97714  13.170   8.946   5.329  2.2215 -0.1457  2.3139
  724MOL0     H97715  13.253   8.955   5.172  1.1443 -0.5957 -0.4578
  724MOL0     H97716  13.387   8.858   5.368  2.4939 -0.0695 -1.4907
  724MOL0     H97717  13.374   9.032   5.437  1.1447  2.1504 -0.7733
  724MOL0     H97718  13.495   8.929   5.183 -0.0942  1.0908 -1.0774
  724MOL0     H97719  13.514   9.094   5.247 -2.7027  0.6299 -0.5927
  724MOL0     H97720  12.598   9.417   5.712 -0.8833 -2.6303  1.6753
  724MOL0     H97721  12.354   9.506   5.696  1.3474  0.1764  1.3969
  724MOL0     H97722  11.837   9.202   5.656  0.2328 -0.1763  1.0063
  724MOL0     H97723  11.613   9.279   5.646 -1.3533  0.9490 -0.0235
  724MOL0     H97724   9.773   9.170   5.865  1.4400 -1.7868  0.6634
  724MOL0     H97725   9.649   8.962   5.809 -0.5493  1.2393  0.5450
  724MOL0     H97726   9.397   8.752   5.648  0.5883 -2.1179  1.8745
  724MOL0     H97727   9.220   8.590   5.636 -1.3013 -1.2967 -0.5004
  724MOL0     H97728   8.999   8.341   5.440  0.0155  0.4949  0.8043
  724MOL0     H97729   9.024   8.492   5.496  1.5169  0.7223 -0.9973
  724MOL0     H97730   9.154   8.396   5.697  0.0649  1.1140 -1.1501
  724MOL0     H97731   9.141   8.232   5.642 -0.6984 -1.4239 -0.5861
  724MOL0     H97732   8.890   8.251   5.653 -0.5638 -1.6647  2.0657
  724MOL0     H97733   8.898   8.410   5.720 -2.3262 -1.9401  3.1908
  724MOL0     H97734   8.881   8.225   5.890 -0.8509  1.2549 -0.7957
  724MOL0     H97735   9.039   8.160   5.838 -0.6885 -2.1525  4.9729
  724MOL0     H97736   9.129   8.541   6.025  0.0088 -0.4427  1.4459
  724MOL0     H97737   9.415   8.407   5.298 -0.8725  1.1007 -0.4284
  724MOL0     H97738   9.730   8.566   5.324  0.6140  0.3584 -1.3977
  724MOL0     H97739   9.618   8.469   5.226 -1.9247 -1.0604  0.4248
  724MOL0     H97740   9.625   8.647   5.217 -1.4824 -2.2610 -2.5622
  725MOL0     O97741   3.348   4.032  10.448  0.8928 -0.3859  0.1667
  725MOL0     C97742   3.275   3.974  10.528  0.9062 -0.0514 -0.1948
  725MOL0     O97743   3.210   3.856  10.505  0.0697  0.4156 -0.0965
  725MOL0     C97744   3.224   3.805  10.381  0.1949 -0.3478  0.0181
  725MOL0     C97745   3.142   3.820  10.268  0.3300 -0.8951  0.5823
  725MOL0     C97746   3.187   3.795  10.140  0.5482  1.2907  0.6844
  725MOL0     C97747   3.315   3.734  10.125 -0.0088  0.3035 -0.4819
  725MOL0     O97748   3.354   3.697   9.999 -0.7265  0.3280  0.2790
  725MOL0     C97749   3.327   3.557   9.977 -0.4189 -0.2650  0.2348
  725MOL0     C97750   3.454   3.483   9.966 -0.1306  0.1883 -0.4347
  725MOL0     C97751   3.549   3.547   9.869 -0.6816  0.0081 -0.6493
  725MOL0     C97752   3.663   3.458   9.802 -0.5058 -0.0037  0.9710
  725MOL0     C97753   3.772   3.527   9.723  0.4973 -0.0048 -0.3888
  725MOL0     C97754   3.856   3.426   9.655 -0.0543 -0.0572 -0.5399
  725MOL0     C97755   3.986   3.493   9.605  0.0887  0.7460  0.0038
  725MOL0     C97756   4.101   3.399   9.577 -0.3677  0.2754  0.1784
  725MOL0     N97757   4.228   3.461   9.538 -0.6381  0.0849  0.2752
  725MOL0     C97758   4.335   3.382   9.503  0.1410 -0.7289 -0.7724
  725MOL0     C97759   4.438   3.459   9.531  0.5841 -0.5863  0.2700
  725MOL0     C97760   4.576   3.437   9.483 -0.3460  0.0549 -0.1820
  725MOL0     C97761   4.682   3.469   9.592  0.2457  0.0553  0.2589
  725MOL0     C97762   4.652   3.389   9.716 -0.2364 -0.2081  0.3058
  725MOL0     C97763   4.745   3.414   9.839 -0.1104  0.1294 -0.3264
  725MOL0     O97764   4.866   3.333   9.811 -0.2267  0.1644  0.6444
  725MOL0     C97765   4.973   3.336   9.901  0.3302  0.7136 -0.0228
  725MOL0     C97766   5.089   3.266   9.856  1.1045 -0.5941 -0.3872
  725MOL0     C97767   5.206   3.289   9.934  0.4663  0.5629  0.0879
  725MOL0     C97768   5.206   3.360  10.048  0.7733  0.6326 -0.2380
  725MOL0     C97769   5.339   3.387  10.120 -0.4985 -0.4260 -0.1699
  725MOL0     O97770   5.338   3.470  10.232  0.0969 -0.0572 -0.2675
  725MOL0     C97771   5.454   3.501  10.292 -0.2338  0.1951  0.3121
  725MOL0     C97772   5.510   3.626  10.266  0.6767  0.9122 -0.0347
  725MOL0     C97773   5.632   3.657  10.324  0.3141 -0.4150  0.7039
  725MOL0     C97774   5.710   3.566  10.396 -0.2491 -0.0382 -0.0986
  725MOL0     O97775   5.837   3.586  10.445  0.3251 -0.9022  0.2863
  725MOL0     C97776   5.890   3.719  10.456  1.1206 -0.2052 -0.1480
  725MOL0     C97777   6.011   3.703  10.546  0.2650 -0.8946  0.0841
  725MOL0     C97778   6.091   3.838  10.561 -0.0048 -0.9817 -0.0076
  725MOL0     C97779   6.131   3.906  10.429  0.4051 -0.4454 -0.5569
  725MOL0     C97780   6.187   4.052  10.459 -1.1646  0.2509  0.8012
  725MOL0     C97781   6.260   4.114  10.328 -0.6489 -0.3901  0.3177
  725MOL0     C97782   6.357   4.235  10.354 -1.1747 -0.1935  0.5378
  725MOL0     C97783   6.483   4.191  10.422 -0.3088 -0.5352 -0.4426
  725MOL0    Cl97784   6.551   4.340  10.470 -0.2401  0.4560  0.6348
  725MOL0     C97785   5.646   3.439  10.413 -0.4483  0.5265 -0.0748
  725MOL0     C97786   5.522   3.407  10.368 -0.0388  0.2372  1.2702
  725MOL0     O97787   5.441   3.331  10.086  0.1456  0.2423 -1.2531
  725MOL0     C97788   5.085   3.414  10.096 -0.0168  0.0213  0.3024
  725MOL0     C97789   4.973   3.406  10.022  0.7246  0.2402 -0.0326
  725MOL0     N97790   4.390   3.592   9.557 -0.3766 -0.6690  0.3573
  725MOL0     N97791   4.265   3.588   9.559 -0.6297  0.0137 -0.4473
  725MOL0     C97792   3.386   3.689  10.238 -0.8287  0.1253 -0.4523
  725MOL0     C97793   3.340   3.733  10.362  0.5924  0.3203 -0.7678
  725MOL0     C97794   3.255   4.043  10.655 -0.0637  0.8541 -0.8495
  725MOL0     C97795   3.274   4.178  10.660  0.7042 -0.7929 -0.1743
  725MOL0     C97796   3.260   4.250  10.779  0.4703  0.3121 -0.3175
  725MOL0     C97797   3.253   4.189  10.895  0.1176  0.4312 -1.1035
  725MOL0     O97798   3.267   4.266  11.010 -0.3815 -0.4530  0.3620
  725MOL0     C97799   3.193   4.220  11.121  0.5746 -0.0805 -0.1724
  725MOL0     C97800   3.048   4.258  11.097 -1.1801  0.2021 -0.0975
  725MOL0     C97801   2.980   4.268  11.233  1.1619  0.3690 -0.2075
  725MOL0     C97802   2.832   4.206  11.228 -0.0709 -0.2220 -0.3304
  725MOL0     C97803   2.741   4.257  11.124  0.5812  0.1800  0.1203
  725MOL0     C97804   2.682   4.287  11.020  0.3394  0.1747  0.1970
  725MOL0     C97805   3.231   4.051  10.900  0.0201 -0.2291 -0.1093
  725MOL0     C97806   3.221   3.974  10.779 -0.7914  0.1291 -0.8118
  725MOL0     C97807   3.199   3.821  10.789  0.3166  0.0075 -0.2968
  725MOL0     H97808   3.055   3.886  10.270  1.3565  0.6233 -1.2778
  725MOL0     H97809   3.124   3.815  10.054  0.6846  1.9586  0.7403
  725MOL0     H97810   3.277   3.519  10.067 -1.0965  3.7578  1.7762
  725MOL0     H97811   3.267   3.547   9.887  2.6252 -0.3899 -1.9361
  725MOL0     H97812   3.432   3.383   9.929  1.3191  0.7070 -2.8803
  725MOL0     H97813   3.501   3.476  10.065 -0.8259 -1.5743 -0.1994
  725MOL0     H97814   3.604   3.626   9.921 -0.4406 -1.4094  1.3576
  725MOL0     H97815   3.489   3.573   9.781 -0.6455 -3.1646 -1.7470
  725MOL0     H97816   3.701   3.406   9.891  0.4653 -1.0248 -0.0043
  725MOL0     H97817   3.625   3.389   9.727  0.9029  1.6774 -1.4566
  725MOL0     H97818   3.722   3.582   9.644  0.6351 -1.7156 -1.7358
  725MOL0     H97819   3.835   3.588   9.788 -0.0379  0.5669 -0.4036
  725MOL0     H97820   3.888   3.358   9.735  1.7322  0.8283 -0.4576
  725MOL0     H97821   3.800   3.387   9.570 -0.4073 -1.1878  0.1822
  725MOL0     H97822   4.031   3.558   9.681 -0.6887  0.7737  0.4521
  725MOL0     H97823   3.967   3.563   9.523  0.8484 -0.1447 -0.9475
  725MOL0     H97824   4.122   3.329   9.658  2.2104  0.7389  0.0031
  725MOL0     H97825   4.071   3.343   9.488 -0.5285  1.7155 -0.7180
  725MOL0     H97826   4.332   3.278   9.472  1.0636 -1.5568  1.7034
  725MOL0     H97827   4.588   3.329   9.472  1.6681  0.2007  0.0780
  725MOL0     H97828   4.602   3.492   9.392 -1.2484  0.0819 -0.4340
  725MOL0     H97829   4.774   3.430   9.548  1.3621  0.8554  1.7495
  725MOL0     H97830   4.705   3.574   9.615  1.4085 -0.0313 -0.4546
  725MOL0     H97831   4.657   3.283   9.691 -2.1587 -0.8126  2.1854
  725MOL0     H97832   4.553   3.416   9.753  0.5786  0.7384  1.9903
  725MOL0     H97833   4.717   3.383   9.940  2.6020 -1.4325  0.0307
  725MOL0     H97834   4.775   3.519   9.840  2.9237 -0.6051 -2.6020
  725MOL0     H97835   5.092   3.199   9.770 -0.8847  1.2458 -2.0265
  725MOL0     H97836   5.294   3.241   9.892  1.0559  0.1422  1.7159
  725MOL0     H97837   5.458   3.694  10.200 -0.3634 -0.1567 -0.3519
  725MOL0     H97838   5.669   3.756  10.302  2.5432 -1.8458 -2.8274
  725MOL0     H97839   5.912   3.752  10.354 -1.4524  2.0623 -0.0816
  725MOL0     H97840   5.821   3.790  10.501  1.2880 -1.7705  2.8904
  725MOL0     H97841   5.979   3.677  10.647  2.2482  1.1092  1.3239
  725MOL0     H97842   6.075   3.621  10.511 -1.1136 -1.4882 -1.1548
  725MOL0     H97843   6.033   3.907  10.623  1.0973  0.4004 -0.4548
  725MOL0     H97844   6.184   3.807  10.610  0.0030 -1.2102 -0.1650
  725MOL0     H97845   6.050   3.921  10.357  0.8865  0.1904 -0.9734
  725MOL0     H97846   6.200   3.840  10.375 -0.2389 -0.8770 -0.8697
  725MOL0     H97847   6.262   4.038  10.537 -0.8979  0.9413  0.6754
  725MOL0     H97848   6.104   4.112  10.498 -1.2449  1.1972 -0.7487
  725MOL0     H97849   6.311   4.036  10.271 -1.0003 -1.4831  1.4548
  725MOL0     H97850   6.178   4.145  10.263 -0.9672 -0.8695  0.4868
  725MOL0     H97851   6.295   4.302  10.414 -1.7154  0.6782 -0.9311
  725MOL0     H97852   6.384   4.283  10.259  1.7973 -1.6457  0.5310
  725MOL0     H97853   6.465   4.131  10.512  0.9824  1.3154  1.1541
  725MOL0     H97854   6.554   4.144  10.353  0.6249  3.0535 -2.1791
  725MOL0     H97855   5.705   3.363  10.464  3.0834  2.1502 -1.4536
  725MOL0     H97856   5.483   3.306  10.376  1.0564 -0.2200  1.0100
  725MOL0     H97857   5.091   3.477  10.184  1.7168  1.2428 -0.6222
  725MOL0     H97858   4.884   3.453  10.062  0.4297 -0.5264  0.2303
  725MOL0     H97859   3.478   3.631  10.244 -1.2154 -0.4757 -0.2616
  725MOL0     H97860   3.398   3.713  10.452  0.8950 -1.5613 -1.3304
  725MOL0     H97861   3.299   4.236  10.572  1.7695 -0.8798  0.0538
  725MOL0     H97862   3.275   4.357  10.776 -0.9336  0.5337 -0.1846
  725MOL0     H97863   3.236   4.279  11.202 -0.7189  2.9198 -1.5275
  725MOL0     H97864   3.211   4.115  11.147  2.5004  0.8582  2.7626
  725MOL0     H97865   3.010   4.185  11.024  2.7597 -1.3911 -0.8199
  725MOL0     H97866   3.044   4.348  11.035 -1.6902 -2.3358 -4.2140
  725MOL0     H97867   2.975   4.370  11.273 -2.2876 -0.5009  2.0907
  725MOL0     H97868   3.033   4.214  11.312  2.1934  0.5827 -0.7457
  725MOL0     H97869   2.835   4.096  11.228 -1.5549 -0.3028  1.2996
  725MOL0     H97870   2.781   4.243  11.316 -1.5503  1.5591 -1.8611
  725MOL0     H97871   2.653   4.298  10.918  1.9486  3.0678 -0.0789
  725MOL0     H97872   3.221   3.988  10.988 -0.4598  0.1026  0.0779
  725MOL0     H97873   3.289   3.771  10.751  1.0359  3.3171 -3.4827
  725MOL0     H97874   3.179   3.795  10.893 -1.2926  2.5913  0.1099
  725MOL0     H97875   3.118   3.779  10.728 -0.9333 -1.8767  2.4726
  726MOL0     O97876   3.546   5.553   4.380 -0.0232 -0.1154  0.3862
  726MOL0     C97877   3.472   5.530   4.288 -0.1356 -0.2241  0.2133
  726MOL0     O97878   3.511   5.466   4.175 -0.1766  0.3501  0.3379
  726MOL0     C97879   3.640   5.426   4.149  0.3672  0.4153 -0.4073
  726MOL0     C97880   3.701   5.450   4.027  0.8265 -0.1025  0.7021
  726MOL0     C97881   3.823   5.396   4.001  0.1183 -0.2060  0.2381
  726MOL0     C97882   3.892   5.324   4.104 -0.5837  0.5121  0.0036
  726MOL0     O97883   4.016   5.274   4.084 -0.5967  0.5545 -0.7201
  726MOL0     C97884   4.063   5.253   3.947 -0.1427  0.9138  0.0312
  726MOL0     C97885   4.175   5.152   3.941 -0.3538 -0.2759 -0.2964
  726MOL0     C97886   4.229   5.123   3.804 -0.4225  0.4300  0.9372
  726MOL0     C97887   4.331   5.013   3.805 -0.2037  0.5730 -0.1538
  726MOL0     C97888   4.398   4.966   3.677 -0.2221 -0.3013  0.1085
  726MOL0     C97889   4.456   5.081   3.590  0.6833 -0.4325  1.2913
  726MOL0     C97890   4.509   5.041   3.451  0.4791 -0.0845 -0.0913
  726MOL0     C97891   4.583   4.911   3.436  0.1172  0.6121 -0.1435
  726MOL0     N97892   4.709   4.908   3.522 -0.1210  0.0870 -0.2559
  726MOL0     C97893   4.805   5.003   3.536  0.1767 -0.9046 -0.2335
  726MOL0     C97894   4.901   4.948   3.616  0.0533  0.3503  0.1993
  726MOL0     C97895   5.035   5.014   3.653 -0.7489  0.2763 -0.5714
  726MOL0     C97896   5.146   4.939   3.580 -0.4845 -0.6747 -1.7195
  726MOL0     C97897   5.279   5.024   3.602  0.3958 -0.0043 -0.1621
  726MOL0     C97898   5.403   4.980   3.516 -0.2523  0.2352 -1.1348
  726MOL0     O97899   5.506   5.077   3.544 -0.5667 -0.0730 -0.2023
  726MOL0     C97900   5.620   5.069   3.473  0.0584  0.0697  0.0753
  726MOL0     C97901   5.719   5.163   3.497  0.3501  0.6336 -0.6962
  726MOL0     C97902   5.848   5.154   3.449  0.0792  0.0945 -0.2223
  726MOL0     C97903   5.878   5.054   3.358  0.3258 -0.1722 -0.8371
  726MOL0     C97904   6.016   5.031   3.306  0.2310  0.3303  0.0297
  726MOL0     O97905   6.047   4.911   3.236  0.2792  0.0813  0.4044
  726MOL0     C97906   6.182   4.894   3.207  0.6009 -1.1799  0.6857
  726MOL0     C97907   6.277   4.879   3.300 -0.4312  0.4377 -0.0176
  726MOL0     C97908   6.414   4.854   3.269  0.0371  0.4031  0.2157
  726MOL0     C97909   6.457   4.841   3.136  0.6557 -0.9716  0.6306
  726MOL0     O97910   6.587   4.827   3.084 -0.4010  0.3409  0.0701
  726MOL0     C97911   6.680   4.796   3.184 -0.7498 -0.5745  0.2393
  726MOL0     C97912   6.796   4.701   3.140 -0.5564 -0.0108 -0.2689
  726MOL0     C97913   6.891   4.759   3.034  1.1314  0.3148  0.2784
  726MOL0     C97914   7.002   4.664   2.996  0.3367  0.0647  0.3187
  726MOL0     C97915   7.101   4.733   2.897  0.6128  0.0508  0.3220
  726MOL0     C97916   7.177   4.618   2.828 -0.0832 -0.3993 -0.1481
  726MOL0     C97917   7.254   4.676   2.702  0.3931 -1.0396 -0.2728
  726MOL0     C97918   7.328   4.564   2.625 -0.3110 -0.0076  0.5951
  726MOL0    Cl97919   7.417   4.610   2.472  0.3006  0.1971  0.1158
  726MOL0     C97920   6.355   4.879   3.039  0.7469 -0.5188 -0.0899
  726MOL0     C97921   6.222   4.902   3.072  0.4606 -0.1172  0.0514
  726MOL0     O97922   6.088   5.129   3.312 -0.2343  0.1511  0.1429
  726MOL0     C97923   5.775   4.966   3.317  0.5377 -0.0843  0.2854
  726MOL0     C97924   5.649   4.972   3.373  0.1969  0.7529  0.2811
  726MOL0     N97925   4.854   4.829   3.659 -0.4905 -0.5004  0.0271
  726MOL0     N97926   4.740   4.802   3.609  0.4922  0.1659  0.5429
  726MOL0     C97927   3.830   5.295   4.224 -0.2760  0.5162 -0.0909
  726MOL0     C97928   3.701   5.342   4.249  1.0286 -0.1795  0.5877
  726MOL0     C97929   3.327   5.572   4.284 -0.0279  0.3268 -0.1888
  726MOL0     C97930   3.267   5.582   4.155  0.4523  0.1191  0.1136
  726MOL0     C97931   3.136   5.614   4.138 -0.3830  0.2263 -0.4800
  726MOL0     C97932   3.057   5.637   4.246  0.5106 -0.2334  0.0208
  726MOL0     O97933   2.923   5.667   4.214  0.3386 -0.6836  0.2915
  726MOL0     C97934   2.845   5.729   4.321 -0.9205 -0.4026 -0.4210
  726MOL0     C97935   2.722   5.814   4.270  0.3568  0.5406 -0.5291
  726MOL0     C97936   2.759   5.907   4.154  0.5288 -0.4255 -0.3526
  726MOL0     C97937   2.886   5.985   4.174  0.0564  0.2291  0.3757
  726MOL0     C97938   2.882   6.104   4.093  0.6068  0.8831  0.2567
  726MOL0     C97939   2.878   6.201   4.031 -0.1215 -0.3482  0.7415
  726MOL0     C97940   3.119   5.645   4.367 -0.7269 -0.7219  0.5733
  726MOL0     C97941   3.250   5.610   4.395  0.0978 -0.0168 -0.0834
  726MOL0     C97942   3.295   5.591   4.537  0.1872 -0.0960  0.0886
  726MOL0     H97943   3.649   5.519   3.961  1.2371  0.5545  1.0497
  726MOL0     H97944   3.881   5.423   3.914  1.3258 -1.7235  0.5242
  726MOL0     H97945   3.983   5.207   3.888 -1.2951  0.3645  1.9294
  726MOL0     H97946   4.101   5.348   3.908 -0.8991  0.6771 -1.3703
  726MOL0     H97947   4.149   5.058   3.989  0.9138 -0.6869 -0.3751
  726MOL0     H97948   4.248   5.189   4.014 -3.6482  1.0539  2.6244
  726MOL0     H97949   4.277   5.214   3.767 -0.0296  0.1092  0.6473
  726MOL0     H97950   4.153   5.098   3.730  1.8235 -1.1878 -0.9983
  726MOL0     H97951   4.408   5.060   3.868 -1.0682  1.2893  0.3941
  726MOL0     H97952   4.307   4.926   3.867  2.1691  1.0369  1.5819
  726MOL0     H97953   4.486   4.907   3.704  3.6156  4.0881 -1.5059
  726MOL0     H97954   4.325   4.915   3.613  0.3725  0.2708 -1.0645
  726MOL0     H97955   4.377   5.157   3.584 -0.2612 -1.2628  2.7375
  726MOL0     H97956   4.541   5.126   3.642  0.1356 -1.3180  3.0512
  726MOL0     H97957   4.564   5.128   3.415 -0.0270  0.9630  1.5551
  726MOL0     H97958   4.426   5.048   3.380  0.2733  3.8664  0.3247
  726MOL0     H97959   4.507   4.835   3.458 -2.8573  3.5359  0.4439
  726MOL0     H97960   4.605   4.899   3.329  0.6864 -0.7586  0.0984
  726MOL0     H97961   4.818   5.098   3.484 -0.1847 -0.0655  1.1488
  726MOL0     H97962   5.031   5.123   3.641 -0.0024  0.6566  1.9586
  726MOL0     H97963   5.042   5.005   3.762 -2.8690  1.2340 -0.2999
  726MOL0     H97964   5.151   4.831   3.602  0.8896 -0.3308 -0.1827
  726MOL0     H97965   5.119   4.950   3.474 -0.8806  3.1745 -1.3345
  726MOL0     H97966   5.302   5.035   3.709  0.4891  0.0598 -0.1878
  726MOL0     H97967   5.258   5.126   3.566 -0.1520 -0.2152 -0.4381
  726MOL0     H97968   5.373   4.973   3.411 -0.1400 -2.6910 -1.0535
  726MOL0     H97969   5.446   4.882   3.537 -0.6552  0.3540  0.3204
  726MOL0     H97970   5.692   5.228   3.579 -2.8272 -1.2881 -0.0555
  726MOL0     H97971   5.918   5.233   3.475  1.1208 -0.1254 -2.1492
  726MOL0     H97972   6.249   4.873   3.405  3.7613 -0.1779  1.2584
  726MOL0     H97973   6.478   4.834   3.354  0.8460  2.1484  0.0635
  726MOL0     H97974   6.724   4.892   3.211 -2.3210 -0.5456  3.1207
  726MOL0     H97975   6.624   4.749   3.266  0.4647  0.0522  1.4699
  726MOL0     H97976   6.845   4.676   3.235 -0.1676 -0.8930 -0.6961
  726MOL0     H97977   6.748   4.611   3.101  3.4685 -2.8746  0.7601
  726MOL0     H97978   6.827   4.775   2.947  1.7660  0.1322 -0.2263
  726MOL0     H97979   6.928   4.853   3.077  1.6782 -0.2477  1.0502
  726MOL0     H97980   6.957   4.574   2.954  1.2656 -0.9788  1.4451
  726MOL0     H97981   7.054   4.643   3.090  2.2628 -2.0031 -1.0881
  726MOL0     H97982   7.178   4.790   2.951  0.4085 -0.5683  1.2872
  726MOL0     H97983   7.041   4.801   2.837  0.7150  0.9206  1.1803
  726MOL0     H97984   7.250   4.579   2.900  1.6336  1.2635 -0.8948
  726MOL0     H97985   7.118   4.534   2.790  2.5164 -1.7148 -1.5988
  726MOL0     H97986   7.334   4.742   2.736 -0.1023 -0.1245 -0.8437
  726MOL0     H97987   7.180   4.722   2.635  0.9424 -1.8144 -1.4623
  726MOL0     H97988   7.402   4.514   2.688 -0.5176 -1.8175 -0.5346
  726MOL0     H97989   7.263   4.485   2.587 -1.3156  1.4995 -0.9594
  726MOL0     H97990   6.384   4.887   2.935  0.9742 -1.1944 -0.0799
  726MOL0     H97991   6.147   4.938   3.002 -0.3910  1.1970  1.5704
  726MOL0     H97992   5.782   4.881   3.251  0.4189 -0.5995  0.9330
  726MOL0     H97993   5.585   4.893   3.336  2.2367 -1.5176  1.3616
  726MOL0     H97994   3.878   5.228   4.294 -0.6009 -0.1851 -0.5371
  726MOL0     H97995   3.649   5.327   4.343 -2.2113  0.0376 -1.0317
  726MOL0     H97996   3.323   5.558   4.064 -0.3589 -1.1385 -0.0888
  726MOL0     H97997   3.100   5.605   4.036 -1.9967 -0.5735  0.1294
  726MOL0     H97998   2.907   5.801   4.377 -1.9979  1.5193 -1.5993
  726MOL0     H97999   2.810   5.649   4.387 -2.6968  0.3884 -0.3440
  726MOL0     H98000   2.682   5.860   4.361 -0.8504 -1.0799 -0.2102
  726MOL0     H98001   2.649   5.740   4.238  1.4000 -1.6916  1.9248
  726MOL0     H98002   2.678   5.975   4.128  1.8283  1.0117 -0.8113
  726MOL0     H98003   2.775   5.840   4.069 -1.3197 -1.3665 -0.0018
  726MOL0     H98004   2.907   6.019   4.276  0.4667  0.0016  0.3697
  726MOL0     H98005   2.970   5.918   4.154  0.3984  0.5714  0.6628
  726MOL0     H98006   2.867   6.286   3.967 -2.3841  0.6668  2.3328
  726MOL0     H98007   3.069   5.679   4.457  3.1581  2.3127  1.8941
  726MOL0     H98008   3.397   5.629   4.547  0.2646 -0.1572 -0.4324
  726MOL0     H98009   3.228   5.641   4.608  0.0867  0.2667 -0.2518
  726MOL0     H98010   3.291   5.484   4.557  2.4614 -0.2597 -0.0903
  727MOL0     O98011   6.332   5.261   6.186 -0.0898  0.0286 -0.9826
  727MOL0     C98012   6.306   5.219   6.079 -0.5383 -0.2053 -0.2785
  727MOL0     O98013   6.397   5.194   5.983  0.0898 -0.2210  0.1433
  727MOL0     C98014   6.527   5.244   6.005  0.1515  0.6719 -0.2014
  727MOL0     C98015   6.618   5.152   6.044  0.1048  0.2942 -0.8898
  727MOL0     C98016   6.754   5.186   6.081 -0.2468  0.2422  0.7050
  727MOL0     C98017   6.796   5.321   6.056  0.2761 -0.4401  0.5929
  727MOL0     O98018   6.925   5.355   6.082 -0.0656  0.0051 -0.0970
  727MOL0     C98019   6.955   5.492   6.094  0.2996 -0.1450 -0.2809
  727MOL0     C98020   7.100   5.516   6.133  0.5683 -0.0637  0.1578
  727MOL0     C98021   7.207   5.444   6.047  0.2520  0.3914  0.1291
  727MOL0     C98022   7.343   5.483   6.100  1.0677 -0.2119 -0.4571
  727MOL0     C98023   7.460   5.398   6.034  0.5125  0.2062  0.1723
  727MOL0     C98024   7.594   5.445   6.092 -0.0988 -0.5044 -0.1687
  727MOL0     C98025   7.700   5.338   6.045  0.8339 -0.8732  0.5907
  727MOL0     C98026   7.840   5.382   6.076 -0.0283  0.2166 -0.1480
  727MOL0     N98027   7.919   5.416   5.961 -0.3815  0.5195 -0.4932
  727MOL0     C98028   7.989   5.333   5.874 -0.0082 -0.4533 -0.4656
  727MOL0     C98029   8.036   5.424   5.783  0.5192  0.2164  0.3202
  727MOL0     C98030   8.128   5.376   5.686 -0.4515 -0.6210  0.1746
  727MOL0     C98031   8.279   5.353   5.733  0.5677  0.0039 -0.1690
  727MOL0     C98032   8.369   5.365   5.614  0.4215  0.3128  0.1783
  727MOL0     C98033   8.509   5.315   5.648  0.6927  0.3187 -0.5198
  727MOL0     O98034   8.590   5.423   5.697  0.0357 -0.1056 -0.0966
  727MOL0     C98035   8.719   5.415   5.735 -0.5390 -0.1101  0.5619
  727MOL0     C98036   8.776   5.529   5.791  0.7171  0.4032  0.9060
  727MOL0     C98037   8.913   5.528   5.823  0.3201 -0.0896 -1.1009
  727MOL0     C98038   8.991   5.414   5.808  0.9951 -0.2917 -0.4317
  727MOL0     C98039   9.137   5.423   5.854 -0.4776  0.3807  0.5379
  727MOL0     O98040   9.185   5.539   5.894  0.4793  0.3867  0.3220
  727MOL0     C98041   9.319   5.560   5.894  0.1372 -0.3463  0.8934
  727MOL0     C98042   9.368   5.653   5.984 -0.5710 -0.1298  0.2800
  727MOL0     C98043   9.504   5.681   5.986  1.0573 -0.7222  0.8434
  727MOL0     C98044   9.592   5.626   5.892  0.1833 -1.3461  0.4656
  727MOL0     O98045   9.727   5.664   5.897 -1.1935  0.9880  0.0408
  727MOL0     C98046   9.827   5.568   5.846 -0.2133 -0.0231 -0.3898
  727MOL0     C98047   9.965   5.630   5.877  0.6258 -0.2992 -0.2707
  727MOL0     C98048   9.993   5.767   5.822 -0.3260 -0.0722  0.0820
  727MOL0     C98049  10.089   5.851   5.906 -0.1141 -0.1313  0.4620
  727MOL0     C98050  10.156   5.969   5.828  0.6213 -0.5314  0.2407
  727MOL0     C98051  10.051   6.073   5.786  0.4081  0.2966 -0.1427
  727MOL0     C98052  10.099   6.195   5.717  0.3446  0.5794  0.1827
  727MOL0     C98053  10.123   6.177   5.563 -0.9899  0.0554 -0.1293
  727MOL0    Cl98054  10.197   6.322   5.497 -0.2477  0.0656 -0.0912
  727MOL0     C98055   9.535   5.536   5.802  0.1270  0.4002 -1.2021
  727MOL0     C98056   9.403   5.497   5.804  0.1418  0.4230  0.6444
  727MOL0     O98057   9.197   5.318   5.835 -0.0179  0.3505 -0.5693
  727MOL0     C98058   8.927   5.296   5.760 -0.5727 -0.9087 -0.6413
  727MOL0     C98059   8.794   5.297   5.735  0.6719 -0.3538  0.4741
  727MOL0     N98060   8.001   5.549   5.813  0.2914  0.0379  0.4431
  727MOL0     N98061   7.934   5.546   5.922  0.9994  0.0741  0.1194
  727MOL0     C98062   6.703   5.412   5.999 -0.8826 -0.1838  0.9456
  727MOL0     C98063   6.574   5.376   5.980  0.2544  0.0834 -0.1861
  727MOL0     C98064   6.172   5.185   6.051  0.5197  0.2512 -0.0758
  727MOL0     C98065   6.154   5.067   5.965  0.3099 -0.2360 -0.3017
  727MOL0     C98066   6.030   5.014   5.946  0.9066  0.1242  0.2348
  727MOL0     C98067   5.913   5.080   5.987 -0.1371 -0.3573 -0.0690
  727MOL0     O98068   5.788   5.040   5.954  0.3742  0.9159  0.2547
  727MOL0     C98069   5.768   5.000   5.812 -0.1749 -0.2429 -1.0294
  727MOL0     C98070   5.619   5.024   5.762 -0.6898  1.1200  0.0936
  727MOL0     C98071   5.588   5.177   5.767 -0.2554 -0.3853  0.0175
  727MOL0     C98072   5.437   5.205   5.735  0.2813  0.2283 -0.3818
  727MOL0     C98073   5.343   5.118   5.809  0.0880  0.2124 -0.1037
  727MOL0     C98074   5.285   5.025   5.857 -0.5861  0.7611 -0.5527
  727MOL0     C98075   5.932   5.200   6.065 -0.5198 -0.4220  0.0734
  727MOL0     C98076   6.060   5.244   6.109  0.0853  0.1410 -0.2356
  727MOL0     C98077   6.065   5.366   6.199 -0.5011  0.0385  0.1740
  727MOL0     H98078   6.578   5.052   6.052 -1.5576  1.0093  0.4008
  727MOL0     H98079   6.820   5.108   6.118 -1.3537 -1.1856 -0.2303
  727MOL0     H98080   6.938   5.546   6.001 -0.0924 -0.3748 -0.3466
  727MOL0     H98081   6.889   5.526   6.174 -1.5388 -0.6840 -1.5080
  727MOL0     H98082   7.115   5.499   6.241  0.9922  2.8545  0.6273
  727MOL0     H98083   7.130   5.620   6.122 -1.5805  0.5632 -0.2644
  727MOL0     H98084   7.194   5.475   5.943 -0.6244  1.2147  0.4603
  727MOL0     H98085   7.197   5.336   6.057  1.7213  0.3555  1.5858
  727MOL0     H98086   7.355   5.587   6.068 -1.2869  0.1372 -0.3689
  727MOL0     H98087   7.336   5.471   6.208 -2.8863 -2.6939 -0.7805
  727MOL0     H98088   7.444   5.293   6.058  0.7934  0.3465  1.0361
  727MOL0     H98089   7.460   5.412   5.926  0.5379  1.0899  0.2743
  727MOL0     H98090   7.602   5.541   6.040 -0.3856 -1.6101 -2.3889
  727MOL0     H98091   7.586   5.449   6.201  1.9294 -0.6896  0.0405
  727MOL0     H98092   7.687   5.330   5.936  0.7332 -0.2528  0.5534
  727MOL0     H98093   7.670   5.243   6.091  0.1114 -0.4048  1.1042
  727MOL0     H98094   7.844   5.461   6.152 -1.3697 -2.9778  3.5584
  727MOL0     H98095   7.880   5.295   6.130 -1.8462  0.3309  1.5051
  727MOL0     H98096   8.005   5.225   5.877  0.2546 -0.4008  1.4147
  727MOL0     H98097   8.086   5.280   5.653  1.0644 -1.2571  0.0318
  727MOL0     H98098   8.130   5.452   5.607  1.2583 -0.4590  0.3410
  727MOL0     H98099   8.312   5.434   5.798 -0.1687 -0.5369  0.9012
  727MOL0     H98100   8.290   5.261   5.790  3.0898  2.0697  2.9968
  727MOL0     H98101   8.375   5.469   5.582  1.2702  0.0230 -0.6278
  727MOL0     H98102   8.320   5.307   5.535 -0.9387 -2.4958  2.8316
  727MOL0     H98103   8.554   5.282   5.554 -0.6837 -0.6199 -0.8709
  727MOL0     H98104   8.506   5.226   5.711  2.8072  2.0023  2.2419
  727MOL0     H98105   8.719   5.621   5.801  0.2839  0.1147  1.1314
  727MOL0     H98106   8.958   5.622   5.852 -1.7885  1.1066 -1.4794
  727MOL0     H98107   9.296   5.684   6.059 -1.8389 -1.1716 -0.4389
  727MOL0     H98108   9.547   5.748   6.061  0.7897  0.1750  0.2059
  727MOL0     H98109   9.819   5.477   5.906  1.8519  1.2638  2.0189
  727MOL0     H98110   9.819   5.565   5.737 -0.4667  1.4922 -0.4477
  727MOL0     H98111   9.966   5.644   5.985  1.1377  0.4787 -0.3697
  727MOL0     H98112  10.041   5.555   5.851 -1.7817 -2.8638 -0.4314
  727MOL0     H98113  10.034   5.748   5.722  0.0612 -2.6644  0.6517
  727MOL0     H98114   9.902   5.825   5.804  1.4135  1.8961 -3.6425
  727MOL0     H98115  10.168   5.784   5.941  0.8556  0.8421  0.1952
  727MOL0     H98116  10.036   5.886   5.995  1.4976  1.2535  0.9233
  727MOL0     H98117  10.203   5.938   5.734  0.4397  1.1261 -0.4214
  727MOL0     H98118  10.228   6.014   5.897 -0.2000  0.6857  0.3221
  727MOL0     H98119   9.986   6.022   5.715 -0.7606  1.6851 -0.1187
  727MOL0     H98120   9.994   6.112   5.871 -1.8073 -0.0221 -1.4273
  727MOL0     H98121  10.189   6.234   5.764 -0.4364  3.6244 -0.5703
  727MOL0     H98122  10.028   6.278   5.727 -0.5804 -0.4384  2.8590
  727MOL0     H98123  10.198   6.100   5.544 -0.1613 -0.3930  4.0272
  727MOL0     H98124  10.029   6.163   5.508 -1.4017 -0.9067  0.7714
  727MOL0     H98125   9.600   5.488   5.730  0.5292 -1.9982  0.6412
  727MOL0     H98126   9.380   5.425   5.727  0.4445 -1.3104  2.1056
  727MOL0     H98127   8.988   5.209   5.738  1.6853  0.5577 -0.5600
  727MOL0     H98128   8.748   5.208   5.692  0.2892 -0.8831  1.9072
  727MOL0     H98129   6.730   5.516   5.986 -0.1930 -0.3192  1.2263
  727MOL0     H98130   6.503   5.453   5.952 -1.0346 -0.6523  0.9087
  727MOL0     H98131   6.236   5.016   5.915  0.6235  0.1628 -0.1960
  727MOL0     H98132   6.036   4.913   5.905 -0.4133 -0.6068  1.7102
  727MOL0     H98133   5.800   4.897   5.799  2.9534  0.3982  0.5734
  727MOL0     H98134   5.838   5.054   5.747  1.8566 -2.5069 -0.8475
  727MOL0     H98135   5.559   4.958   5.827 -0.0861 -0.1894 -0.6411
  727MOL0     H98136   5.614   4.996   5.656 -1.4980 -2.2598  0.8949
  727MOL0     H98137   5.659   5.227   5.700 -1.0057  0.0142 -0.4884
  727MOL0     H98138   5.600   5.204   5.872 -1.7346 -1.7333  0.5739
  727MOL0     H98139   5.414   5.309   5.757 -2.0446  0.2296 -2.3996
  727MOL0     H98140   5.419   5.195   5.628  0.6170  0.3529 -0.4525
  727MOL0     H98141   5.234   4.943   5.902  0.6332 -0.9760 -2.1740
  727MOL0     H98142   5.845   5.248   6.111  0.6321  0.2731  1.6047
  727MOL0     H98143   5.969   5.411   6.227 -1.5839 -1.8231 -0.4037
  727MOL0     H98144   6.101   5.351   6.301 -1.4482  0.3863  0.5695
  727MOL0     H98145   6.133   5.437   6.151  1.8680 -1.8578  0.5303
  728MOL0     O98146   2.166   6.311   6.634  0.6364 -0.4389 -0.1005
  728MOL0     C98147   2.052   6.366   6.655  0.1171 -0.4356  0.7110
  728MOL0     O98148   2.042   6.499   6.708  0.2921  0.1607  0.5053
  728MOL0     C98149   2.159   6.560   6.720  0.1116  0.5237 -0.1693
  728MOL0     C98150   2.236   6.546   6.832  0.3829  0.6977 -0.2014
  728MOL0     C98151   2.368   6.601   6.838  0.5705  0.1609 -0.3307
  728MOL0     C98152   2.414   6.675   6.729 -0.2029  0.2360  0.3122
  728MOL0     O98153   2.533   6.742   6.752 -0.2549 -0.3741  0.5601
  728MOL0     C98154   2.632   6.722   6.652 -0.3092  0.8634  0.1037
  728MOL0     C98155   2.775   6.762   6.698 -0.8566 -0.3603 -0.5565
  728MOL0     C98156   2.826   6.707   6.828  0.1148 -0.4577 -0.3476
  728MOL0     C98157   2.828   6.558   6.832 -0.4001 -0.0441 -0.5952
  728MOL0     C98158   2.907   6.502   6.941 -0.2244  0.3332 -0.3397
  728MOL0     C98159   3.057   6.499   6.922 -0.1878  0.2275 -0.4069
  728MOL0     C98160   3.139   6.429   7.031  0.0065  0.2243 -1.1447
  728MOL0     C98161   3.287   6.453   7.032 -0.5731  0.3348 -0.4878
  728MOL0     N98162   3.349   6.412   6.907  0.2866 -0.1411 -0.7215
  728MOL0     C98163   3.354   6.284   6.857 -0.3729  0.7417 -0.2377
  728MOL0     C98164   3.438   6.291   6.752  0.1568  0.0111 -0.1977
  728MOL0     C98165   3.466   6.186   6.651  0.9943  0.7958  0.4633
  728MOL0     C98166   3.569   6.078   6.692 -0.3286 -0.4531  0.4479
  728MOL0     C98167   3.552   6.032   6.836  0.4948  0.3654 -0.2589
  728MOL0     C98168   3.662   5.939   6.880 -0.0712 -0.1319  0.5920
  728MOL0     O98169   3.797   5.985   6.835 -0.2404 -0.3101  0.2088
  728MOL0     C98170   3.870   6.048   6.932 -0.3242 -1.3764 -0.8730
  728MOL0     C98171   3.873   6.183   6.961 -0.0355 -0.3430 -0.2009
  728MOL0     C98172   3.967   6.233   7.046 -0.2405  0.1108  0.0062
  728MOL0     C98173   4.043   6.148   7.125 -0.0009  0.6372 -0.3603
  728MOL0     C98174   4.152   6.195   7.224 -0.5014 -0.2670  0.3344
  728MOL0     O98175   4.233   6.101   7.278  0.6021 -0.2727  0.4051
  728MOL0     C98176   4.333   6.148   7.354 -0.2464  0.4385 -0.6167
  728MOL0     C98177   4.321   6.174   7.496  0.1041  0.3193  0.8626
  728MOL0     C98178   4.433   6.209   7.568  0.4087 -0.0436 -0.8915
  728MOL0     C98179   4.554   6.233   7.506 -0.1096  0.1715 -0.1981
  728MOL0     O98180   4.650   6.294   7.579  0.1122  0.4640 -0.8647
  728MOL0     C98181   4.760   6.213   7.600  0.5479  0.8850  0.0761
  728MOL0     C98182   4.732   6.114   7.715  0.3502  0.2232 -0.3742
  728MOL0     C98183   4.859   6.040   7.768  0.1125 -0.1639 -0.1869
  728MOL0     C98184   4.832   5.948   7.880  0.0480  1.4207 -0.4244
  728MOL0     C98185   4.767   5.807   7.845  0.5646  0.5904 -0.4317
  728MOL0     C98186   4.731   5.737   7.973 -0.6909 -0.5396  0.2203
  728MOL0     C98187   4.677   5.594   7.943 -0.1923 -0.0478 -0.1430
  728MOL0     C98188   4.555   5.598   7.847 -0.4087  0.2154 -0.8930
  728MOL0    Cl98189   4.408   5.692   7.910  0.0763  0.1340  0.1495
  728MOL0     C98190   4.569   6.195   7.373 -0.0420 -1.4862  0.0112
  728MOL0     C98191   4.461   6.156   7.302 -1.0516 -0.2741 -0.1300
  728MOL0     O98192   4.154   6.318   7.248 -0.0994 -0.2927 -0.1152
  728MOL0     C98193   4.031   6.018   7.104  0.1740  1.3471  0.6619
  728MOL0     C98194   3.952   5.965   7.006  0.3525 -0.0021  0.0750
  728MOL0     N98195   3.483   6.422   6.736 -0.8289 -0.2502  0.2482
  728MOL0     N98196   3.427   6.490   6.826 -0.1631 -0.3840 -0.2491
  728MOL0     C98197   2.341   6.686   6.607  0.1672  0.9069  1.0486
  728MOL0     C98198   2.211   6.629   6.609 -0.7915  0.4966 -0.7438
  728MOL0     C98199   1.919   6.290   6.623 -0.8802  0.6063 -0.4959
  728MOL0     C98200   1.929   6.157   6.576  0.3690  0.1615  0.5680
  728MOL0     C98201   1.826   6.086   6.515 -0.4977 -1.1733  1.3738
  728MOL0     C98202   1.708   6.154   6.505  0.3813  0.2986 -0.1851
  728MOL0     O98203   1.590   6.105   6.443  0.7356 -0.2450 -0.0131
  728MOL0     C98204   1.571   5.966   6.415 -0.7828 -0.0094 -0.2874
  728MOL0     C98205   1.433   5.951   6.345  0.3246 -1.4086  0.1598
  728MOL0     C98206   1.431   5.807   6.295  0.6419  0.0386 -0.0628
  728MOL0     C98207   1.352   5.807   6.161 -0.0715 -0.2078 -0.1062
  728MOL0     C98208   1.221   5.855   6.197  0.5996 -0.4693 -0.0315
  728MOL0     C98209   1.111   5.883   6.225  0.5622  0.7333  0.4133
  728MOL0     C98210   1.690   6.280   6.564 -0.1608  1.0517 -0.8292
  728MOL0     C98211   1.795   6.354   6.623  0.1262  0.0478 -0.0443
  728MOL0     C98212   1.752   6.488   6.676  0.7230 -0.7836 -0.1903
  728MOL0     H98213   2.192   6.485   6.910  0.6536  1.6734  0.7360
  728MOL0     H98214   2.426   6.588   6.928  0.0396 -1.4537 -0.1871
  728MOL0     H98215   2.636   6.617   6.622 -0.2715  1.1783 -1.0354
  728MOL0     H98216   2.618   6.786   6.564  0.7726 -0.5387 -1.1417
  728MOL0     H98217   2.780   6.871   6.708  0.2416 -0.2254 -2.2881
  728MOL0     H98218   2.847   6.728   6.623 -1.1018 -0.0009 -0.9586
  728MOL0     H98219   2.775   6.761   6.908 -1.4519  1.3747 -2.4346
  728MOL0     H98220   2.929   6.742   6.825 -0.0104 -0.1543 -2.0182
  728MOL0     H98221   2.726   6.520   6.831 -0.1781 -1.3038 -5.7010
  728MOL0     H98222   2.873   6.519   6.740 -0.6569 -1.0394 -0.3074
  728MOL0     H98223   2.873   6.563   7.026 -0.2714 -1.7994  1.2498
  728MOL0     H98224   2.875   6.399   6.958  1.0152  0.4043  3.1816
  728MOL0     H98225   3.075   6.452   6.824  0.6413 -0.6670  0.1515
  728MOL0     H98226   3.093   6.602   6.917  0.2224  0.0269 -2.4849
  728MOL0     H98227   3.105   6.325   7.035  1.9545 -0.4130 -0.3679
  728MOL0     H98228   3.112   6.472   7.128  1.9573  0.8113 -0.8274
  728MOL0     H98229   3.307   6.559   7.049  1.3760 -0.1404  0.5438
  728MOL0     H98230   3.335   6.393   7.110  1.5650  0.2405 -1.7810
  728MOL0     H98231   3.303   6.194   6.892 -1.2694  1.5685  0.6462
  728MOL0     H98232   3.370   6.141   6.627 -0.0197  2.4828  1.2222
  728MOL0     H98233   3.500   6.231   6.557  2.3577  1.0756  1.0696
  728MOL0     H98234   3.566   5.998   6.618  1.9696  0.9202 -1.2560
  728MOL0     H98235   3.670   6.119   6.685  1.3173 -4.2463 -0.0409
  728MOL0     H98236   3.456   5.980   6.846  0.0382  0.6615 -2.5235
  728MOL0     H98237   3.556   6.120   6.901 -4.4854  0.0021  0.9993
  728MOL0     H98238   3.634   5.846   6.830  0.8787 -0.2476  0.2497
  728MOL0     H98239   3.653   5.937   6.989  0.0777  1.8019  0.6733
  728MOL0     H98240   3.789   6.242   6.924 -1.0599 -1.1167  0.8055
  728MOL0     H98241   3.972   6.340   7.063 -0.8373  0.0467  0.6641
  728MOL0     H98242   4.220   6.161   7.534 -0.7102 -3.9998 -2.1410
  728MOL0     H98243   4.413   6.218   7.675  1.0040 -1.5904 -0.6223
  728MOL0     H98244   4.787   6.153   7.512  0.3224  0.2256  0.4503
  728MOL0     H98245   4.847   6.269   7.635 -0.5143  3.5161 -1.2083
  728MOL0     H98246   4.697   6.181   7.794  0.9436  1.7188 -1.3465
  728MOL0     H98247   4.657   6.046   7.673  0.0034  0.3098  0.0946
  728MOL0     H98248   4.897   5.979   7.686 -1.6226 -0.7629 -0.5948
  728MOL0     H98249   4.929   6.119   7.797 -1.5661  1.1061  0.5441
  728MOL0     H98250   4.785   6.000   7.964  2.5757 -0.6293  2.5029
  728MOL0     H98251   4.932   5.931   7.921 -0.1339  0.8821 -0.2031
  728MOL0     H98252   4.830   5.743   7.782  0.2233  0.9624 -1.1644
  728MOL0     H98253   4.675   5.826   7.789  0.9922  0.7277 -1.0986
  728MOL0     H98254   4.818   5.733   8.038  0.8703  3.7367 -1.2315
  728MOL0     H98255   4.657   5.795   8.029 -1.6910 -0.7855 -0.7946
  728MOL0     H98256   4.655   5.534   8.032  1.3715 -0.4148  0.0381
  728MOL0     H98257   4.755   5.538   7.890 -2.2806 -2.8357 -0.4662
  728MOL0     H98258   4.577   5.653   7.755 -0.3088  2.7377  0.5553
  728MOL0     H98259   4.527   5.497   7.815 -1.4074  0.8085 -1.9972
  728MOL0     H98260   4.668   6.195   7.328 -1.4522 -2.6625 -3.4661
  728MOL0     H98261   4.482   6.132   7.198  2.1997 -0.1786  0.4095
  728MOL0     H98262   4.093   5.945   7.155  1.6991  1.9719 -0.2209
  728MOL0     H98263   3.959   5.859   6.984 -0.4171 -0.0897  0.2031
  728MOL0     H98264   2.365   6.736   6.514 -4.5919 -1.1367 -1.6582
  728MOL0     H98265   2.146   6.647   6.523 -2.1676 -0.0249  0.1514
  728MOL0     H98266   2.027   6.113   6.595  0.0113 -0.9112  0.0033
  728MOL0     H98267   1.840   5.984   6.482  0.2683 -0.5766 -0.2153
  728MOL0     H98268   1.579   5.907   6.507  0.6960  0.0682 -0.3401
  728MOL0     H98269   1.653   5.942   6.347  1.3637  2.3131  1.2915
  728MOL0     H98270   1.419   6.022   6.263 -1.5394 -1.4530  0.3984
  728MOL0     H98271   1.348   5.965   6.413  1.2406 -0.6503  1.1754
  728MOL0     H98272   1.377   5.754   6.374  0.3399  2.6768  1.6675
  728MOL0     H98273   1.530   5.761   6.288 -0.2046 -1.7519 -0.7559
  728MOL0     H98274   1.396   5.873   6.085 -1.4016  2.0921  1.0184
  728MOL0     H98275   1.341   5.706   6.120 -0.2913  0.0589 -0.7160
  728MOL0     H98276   1.011   5.911   6.254 -0.0575 -2.3759  1.6447
  728MOL0     H98277   1.598   6.337   6.555  0.8448  2.8938 -0.0549
  728MOL0     H98278   1.753   6.558   6.592 -0.5648 -1.5116 -0.8364
  728MOL0     H98279   1.650   6.480   6.715  0.5313 -1.8022 -0.8751
  728MOL0     H98280   1.809   6.518   6.765 -2.3830  0.8456  1.4393
  729MOL0     O98281   1.143   8.477   5.739 -0.2448  0.4338 -0.4294
  729MOL0     C98282   1.127   8.500   5.859  0.4855 -0.7247 -0.4690
  729MOL0     O98283   1.223   8.480   5.947 -0.1989  0.3835 -0.1248
  729MOL0     C98284   1.344   8.418   5.911  0.3839  0.0080  0.7063
  729MOL0     C98285   1.383   8.306   5.994 -0.4939 -0.2097 -0.1584
  729MOL0     C98286   1.508   8.247   5.963 -0.5621  0.5799 -0.4141
  729MOL0     C98287   1.594   8.296   5.863  0.7644  0.0338  0.3895
  729MOL0     O98288   1.719   8.238   5.846 -0.2238  0.5735  0.0033
  729MOL0     C98289   1.826   8.331   5.871 -0.8708 -0.4751  0.1876
  729MOL0     C98290   1.861   8.300   6.024 -0.3189 -0.3225  0.1744
  729MOL0     C98291   1.933   8.165   6.037  0.3275  0.3397 -0.5781
  729MOL0     C98292   2.019   8.177   6.171 -0.7975  0.5836 -0.2487
  729MOL0     C98293   2.085   8.044   6.206 -0.2257 -0.5006  0.5889
  729MOL0     C98294   2.180   8.066   6.323  0.1175  0.1414 -0.3589
  729MOL0     C98295   2.243   7.937   6.356 -0.3031  0.2259  0.7738
  729MOL0     C98296   2.339   7.929   6.476 -0.3042  0.0601 -0.0199
  729MOL0     N98297   2.462   7.998   6.434 -0.1718  0.4975  1.5658
  729MOL0     C98298   2.513   8.114   6.489  0.1941  0.0089 -0.5415
  729MOL0     C98299   2.638   8.125   6.440  0.1652  0.1526  0.3909
  729MOL0     C98300   2.734   8.223   6.491 -0.4733  0.0376 -0.0511
  729MOL0     C98301   2.711   8.366   6.432  0.0462 -0.1298 -0.0248
  729MOL0     C98302   2.786   8.485   6.498  0.0041  0.0322  0.0177
  729MOL0     C98303   2.937   8.470   6.502  0.8652  0.1496  0.2312
  729MOL0     O98304   3.004   8.596   6.498 -0.8217 -0.1977 -1.0576
  729MOL0     C98305   3.142   8.597   6.522  0.4461 -0.3502 -0.3754
  729MOL0     C98306   3.224   8.486   6.558  0.0020 -0.6196 -0.0437
  729MOL0     C98307   3.366   8.502   6.566 -0.0415  0.1126  0.6141
  729MOL0     C98308   3.424   8.627   6.564 -0.7889 -0.3547  0.3414
  729MOL0     C98309   3.570   8.643   6.569 -0.6566  0.1624  0.6121
  729MOL0     O98310   3.627   8.763   6.594 -0.5648  0.2735  0.2819
  729MOL0     C98311   3.761   8.773   6.568  0.5210  0.3915  0.3669
  729MOL0     C98312   3.855   8.747   6.672 -0.0345  0.3130  0.2807
  729MOL0     C98313   3.996   8.757   6.645  0.0573 -0.1377  0.3889
  729MOL0     C98314   4.036   8.795   6.516 -0.2013  0.4016  0.2007
  729MOL0     O98315   4.170   8.802   6.492 -0.5583  0.1597 -0.1491
  729MOL0     C98316   4.241   8.830   6.371 -0.8707 -0.0263 -0.5584
  729MOL0     C98317   4.372   8.751   6.377  0.5785  0.2434 -0.1175
  729MOL0     C98318   4.355   8.602   6.340  1.0746  0.1103 -0.7244
  729MOL0     C98319   4.327   8.529   6.470 -0.0566 -0.6604 -0.3633
  729MOL0     C98320   4.296   8.385   6.445 -0.5117  0.6892 -0.7912
  729MOL0     C98321   4.282   8.300   6.582 -0.1860  0.0711  0.1970
  729MOL0     C98322   4.174   8.347   6.684  0.1841  0.2309  0.0395
  729MOL0     C98323   4.025   8.340   6.625 -0.4886  0.3114 -0.3993
  729MOL0    Cl98324   3.985   8.168   6.625  0.4046 -0.1554  0.0571
  729MOL0     C98325   3.941   8.832   6.415  0.5567 -0.4780  0.0748
  729MOL0     C98326   3.810   8.820   6.447  0.2698  0.6174 -0.5723
  729MOL0     O98327   3.629   8.546   6.526 -0.7514 -0.5852  0.0014
  729MOL0     C98328   3.342   8.741   6.556  0.7531  0.6724 -0.5671
  729MOL0     C98329   3.205   8.722   6.530 -0.3885 -0.4310 -0.2572
  729MOL0     N98330   2.666   8.019   6.349 -0.0165 -0.4775  0.2348
  729MOL0     N98331   2.556   7.938   6.351  0.7359  0.1458 -0.2466
  729MOL0     C98332   1.546   8.404   5.784  0.1242  0.8129  0.7328
  729MOL0     C98333   1.423   8.461   5.804 -0.2651 -0.4436 -0.5585
  729MOL0     C98334   0.992   8.551   5.893 -0.5968 -0.2425  0.2937
  729MOL0     C98335   0.920   8.614   5.792  0.2990 -0.5162  0.8234
  729MOL0     C98336   0.789   8.651   5.813 -1.0177  0.6755 -0.1481
  729MOL0     C98337   0.723   8.647   5.937  0.0742 -0.5734  0.8104
  729MOL0     O98338   0.596   8.693   5.958 -0.1810  0.1932  0.7831
  729MOL0     C98339   0.511   8.704   5.842  0.1267  0.5819  0.0612
  729MOL0     C98340   0.365   8.694   5.888 -0.1244  0.1897  0.8373
  729MOL0     C98341   0.316   8.553   5.918  0.4032 -0.4092  0.7954
  729MOL0     C98342   0.328   8.461   5.792 -0.1343  0.3735 -0.2213
  729MOL0     C98343   0.213   8.365   5.795 -0.1366  0.1448 -0.1069
  729MOL0     C98344   0.113   8.292   5.805  0.1157  0.4348 -0.6792
  729MOL0     C98345   0.796   8.603   6.041 -0.0473  0.2719 -1.1128
  729MOL0     C98346   0.934   8.545   6.020 -0.4685  0.9313  0.8926
  729MOL0     C98347   0.996   8.479   6.141 -0.7508 -0.3206 -0.3148
  729MOL0     H98348   1.312   8.265   6.064  1.5217 -2.2976  0.8051
  729MOL0     H98349   1.539   8.166   6.028  1.8005 -1.2954 -3.5866
  729MOL0     H98350   1.916   8.320   5.809  0.4292  1.9400  1.4922
  729MOL0     H98351   1.783   8.431   5.881 -0.8430 -0.5428  1.0392
  729MOL0     H98352   1.767   8.310   6.080  0.7319  1.6395  1.6818
  729MOL0     H98353   1.935   8.371   6.063 -1.7816 -0.1162  2.8230
  729MOL0     H98354   2.004   8.147   5.955  0.9425 -3.0394  0.5415
  729MOL0     H98355   1.865   8.080   6.047 -2.4634  2.1705 -2.4181
  729MOL0     H98356   2.096   8.254   6.160  0.1830 -0.0611  1.7555
  729MOL0     H98357   1.955   8.199   6.257 -1.4434  1.1299 -0.8562
  729MOL0     H98358   2.004   7.975   6.230 -1.2412  0.6872  0.7235
  729MOL0     H98359   2.140   8.010   6.118 -2.0725  0.9273 -1.2341
  729MOL0     H98360   2.262   8.129   6.287  0.2304  0.6926  0.8037
  729MOL0     H98361   2.130   8.114   6.408 -1.4640  1.7498 -2.1041
  729MOL0     H98362   2.291   7.903   6.264  0.3555  1.4211  0.6476
  729MOL0     H98363   2.161   7.868   6.376 -0.9367  0.0546 -2.0299
  729MOL0     H98364   2.286   7.986   6.553 -1.8966 -0.1788 -0.9105
  729MOL0     H98365   2.357   7.826   6.506  0.5675 -0.9479 -3.4812
  729MOL0     H98366   2.462   8.179   6.560 -0.2991  0.2859 -1.1377
  729MOL0     H98367   2.717   8.221   6.599 -0.5322 -0.1311 -0.0642
  729MOL0     H98368   2.832   8.184   6.463 -1.1765 -1.3976 -0.5798
  729MOL0     H98369   2.746   8.357   6.329  1.8647  0.2793  0.5248
  729MOL0     H98370   2.602   8.375   6.438  0.0679  5.8944 -1.8011
  729MOL0     H98371   2.744   8.484   6.599 -1.9635  0.4576 -0.7414
  729MOL0     H98372   2.752   8.574   6.443  0.3781  0.8456  1.0687
  729MOL0     H98373   2.959   8.408   6.414 -0.3412 -1.1062  0.7939
  729MOL0     H98374   2.958   8.407   6.589  0.5837 -0.8328 -0.3940
  729MOL0     H98375   3.187   8.385   6.550  1.6847 -1.0936 -2.7986
  729MOL0     H98376   3.429   8.414   6.567 -0.7360 -0.5185 -2.1439
  729MOL0     H98377   3.822   8.706   6.767  0.8328  3.5791  2.1241
  729MOL0     H98378   4.073   8.729   6.716  0.5020  1.4638  0.5648
  729MOL0     H98379   4.197   8.802   6.275  2.9417  1.7201 -3.0807
  729MOL0     H98380   4.263   8.937   6.366 -1.3920  0.1650  0.8671
  729MOL0     H98381   4.441   8.784   6.299  0.3774  0.0890 -0.3628
  729MOL0     H98382   4.419   8.768   6.474 -0.2877 -0.6953  0.4924
  729MOL0     H98383   4.281   8.582   6.262  2.2478 -0.6944 -1.6827
  729MOL0     H98384   4.454   8.575   6.302  1.4010  1.7303 -1.1108
  729MOL0     H98385   4.236   8.572   6.514 -0.6598  0.2675 -2.3808
  729MOL0     H98386   4.411   8.541   6.539 -0.5015  1.0701 -0.0703
  729MOL0     H98387   4.385   8.344   6.398  1.0581  2.4600  0.4834
  729MOL0     H98388   4.208   8.359   6.386  0.0059 -0.1012 -1.2163
  729MOL0     H98389   4.258   8.197   6.554 -2.1296  0.0763  1.6244
  729MOL0     H98390   4.377   8.282   6.633  1.0890  2.9046 -0.9796
  729MOL0     H98391   4.196   8.450   6.711 -1.5191 -0.1319  3.2791
  729MOL0     H98392   4.187   8.297   6.780 -0.5522  1.9037  1.0396
  729MOL0     H98393   3.960   8.403   6.686 -0.8073  2.2142 -2.5886
  729MOL0     H98394   4.027   8.383   6.525  2.2586  2.0255  0.2689
  729MOL0     H98395   3.971   8.868   6.318  1.6306 -1.9552 -0.1793
  729MOL0     H98396   3.738   8.847   6.371 -2.0984 -0.0217  1.3485
  729MOL0     H98397   3.383   8.840   6.545  2.4770 -0.0481 -0.8697
  729MOL0     H98398   3.141   8.809   6.526  0.6404  0.7194  3.7038
  729MOL0     H98399   1.604   8.433   5.697 -1.2542 -2.0144 -1.3124
  729MOL0     H98400   1.385   8.538   5.738  1.9297 -0.5876 -2.1285
  729MOL0     H98401   0.958   8.629   5.691 -0.3889  3.0162  0.9489
  729MOL0     H98402   0.730   8.691   5.731 -2.1891  3.2173  1.7762
  729MOL0     H98403   0.535   8.621   5.774 -0.4024  2.0441 -2.0016
  729MOL0     H98404   0.529   8.794   5.783  0.3821 -0.2934 -1.2335
  729MOL0     H98405   0.304   8.747   5.814  1.6048  0.3741 -0.5110
  729MOL0     H98406   0.353   8.764   5.971  0.0425  0.1558  0.8909
  729MOL0     H98407   0.211   8.547   5.947  0.1488 -4.6034 -0.2255
  729MOL0     H98408   0.380   8.510   5.996  3.0252 -2.0951 -2.0069
  729MOL0     H98409   0.325   8.515   5.697 -1.8576  2.4834  0.9448
  729MOL0     H98410   0.423   8.408   5.803 -1.1680 -1.4615  0.3797
  729MOL0     H98411   0.027   8.229   5.803 -1.4199  2.4085 -0.1218
  729MOL0     H98412   0.755   8.597   6.141 -1.1353 -2.8234 -1.6367
  729MOL0     H98413   0.919   8.429   6.201  0.9341 -0.9699  1.3942
  729MOL0     H98414   1.060   8.392   6.126 -0.2753 -0.2557  1.1742
  729MOL0     H98415   1.041   8.561   6.197 -2.3445  1.0427 -0.9218
  730MOL0     O98416   8.951   7.456  10.136  0.0016  0.1935  0.0911
  730MOL0     C98417   8.948   7.546  10.055 -0.2131 -0.9612  0.5095
  730MOL0     O98418   9.042   7.648  10.050 -0.1100  1.2533 -0.0266
  730MOL0     C98419   9.170   7.610  10.081 -0.0835  0.4958 -0.3672
  730MOL0     C98420   9.269   7.599   9.984  0.2513 -0.0822 -0.3384
  730MOL0     C98421   9.400   7.568  10.023 -0.9585 -0.3411 -0.3286
  730MOL0     C98422   9.426   7.546  10.164 -0.3818 -0.0132  1.0197
  730MOL0     O98423   9.550   7.521  10.218  0.7409 -0.4275  0.1619
  730MOL0     C98424   9.639   7.416  10.166 -0.3718 -0.1795  0.3982
  730MOL0     C98425   9.784   7.467  10.196  0.5567  0.2903  0.4243
  730MOL0     C98426   9.884   7.351  10.216  0.4219  0.2907  0.7943
  730MOL0     C98427  10.027   7.399  10.218  0.0786  0.3324  0.0524
  730MOL0     C98428  10.118   7.280  10.236  0.5084  0.1114 -0.2095
  730MOL0     C98429  10.267   7.332  10.247 -0.1575 -0.5120 -0.7022
  730MOL0     C98430  10.358   7.216  10.295  0.7077 -0.2359 -0.2172
  730MOL0     C98431  10.500   7.256  10.261  0.2561 -0.0814 -0.1647
  730MOL0     N98432  10.591   7.161  10.324 -0.3071 -0.1223  0.5680
  730MOL0     C98433  10.628   7.048  10.257 -0.8601  0.2799 -0.0240
  730MOL0     C98434  10.735   6.994  10.324  0.1241  0.1530 -0.0440
  730MOL0     C98435  10.812   6.877  10.278  0.0399  0.3095 -0.4404
  730MOL0     C98436  10.916   6.812  10.373  0.1067  0.0130  1.3729
  730MOL0     C98437  11.050   6.777  10.318 -0.0981 -0.2960  0.2251
  730MOL0     C98438  11.153   6.714  10.430 -0.0169 -0.0329  1.2682
  730MOL0     O98439  11.283   6.673  10.379 -0.3566 -0.3631  0.2623
  730MOL0     C98440  11.382   6.765  10.398  0.0007 -0.2430  0.7691
  730MOL0     C98441  11.414   6.865  10.307 -0.0785 -0.3849 -0.3046
  730MOL0     C98442  11.519   6.958  10.328 -0.3197 -0.0979  0.2586
  730MOL0     C98443  11.603   6.953  10.441  0.9778  0.1670  0.1498
  730MOL0     C98444  11.714   7.041  10.444  0.5664  0.1746 -0.4625
  730MOL0     O98445  11.749   7.126  10.339  0.1376 -0.3572  0.1666
  730MOL0     C98446  11.866   7.190  10.335  0.2992  0.1979  0.4718
  730MOL0     C98447  11.924   7.253  10.442  0.3131  0.5007  0.5641
  730MOL0     C98448  12.048   7.326  10.429  0.6862 -0.7769  0.2062
  730MOL0     C98449  12.113   7.339  10.300  0.0465  0.6653 -0.8001
  730MOL0     O98450  12.233   7.408  10.292  0.2669  0.0098 -0.0881
  730MOL0     C98451  12.239   7.520  10.194  0.5116 -0.4464  0.6925
  730MOL0     C98452  12.130   7.634  10.212  0.2211 -0.2295 -0.5846
  730MOL0     C98453  12.133   7.735  10.094 -0.0881  0.3631 -0.0140
  730MOL0     C98454  12.096   7.675   9.961  0.4694  0.9393  0.1544
  730MOL0     C98455  12.109   7.783   9.855 -0.4987  0.6115  0.2807
  730MOL0     C98456  12.063   7.738   9.708 -0.4879 -0.3318 -0.7995
  730MOL0     C98457  11.911   7.747   9.692 -0.0398 -0.7572 -0.5671
  730MOL0     C98458  11.856   7.715   9.555 -0.2945  0.8011  0.5776
  730MOL0    Cl98459  11.933   7.829   9.454 -0.0146  0.1500  0.5517
  730MOL0     C98460  12.043   7.277  10.193  0.2979 -0.3909 -0.4426
  730MOL0     C98461  11.927   7.195  10.212 -0.0397 -1.4792 -0.2173
  730MOL0     O98462  11.794   7.016  10.536  1.0381 -0.4752 -0.1941
  730MOL0     C98463  11.564   6.856  10.542 -0.9442 -0.1681  0.0031
  730MOL0     C98464  11.459   6.768  10.516  0.2189  0.1304 -0.4372
  730MOL0     N98465  10.773   7.087  10.422  0.1004 -0.1262 -0.3646
  730MOL0     N98466  10.689   7.182  10.421  0.4036 -0.1143  0.4145
  730MOL0     C98467   9.331   7.565  10.258  0.1811  0.4853  0.3037
  730MOL0     C98468   9.206   7.600  10.215  1.4427 -0.1971  0.9873
  730MOL0     C98469   8.841   7.562   9.960 -1.2392  0.1297  0.1610
  730MOL0     C98470   8.852   7.663   9.862 -0.0404  0.1825  0.4179
  730MOL0     C98471   8.752   7.683   9.765 -0.1370  0.9721  0.6327
  730MOL0     C98472   8.631   7.613   9.762  0.8326  0.2438 -0.3087
  730MOL0     O98473   8.536   7.649   9.674  0.2803  0.3565  1.1925
  730MOL0     C98474   8.399   7.602   9.695  0.0762 -0.0591 -0.4062
  730MOL0     C98475   8.297   7.684   9.615 -0.1276  0.1937  0.5137
  730MOL0     C98476   8.160   7.608   9.617 -0.3732  0.2574  0.0319
  730MOL0     C98477   8.056   7.672   9.516  0.0265  0.9818  1.0750
  730MOL0     C98478   7.926   7.610   9.507 -0.2709 -0.3903  0.4038
  730MOL0     C98479   7.808   7.563   9.501 -0.7478  0.5739 -0.7768
  730MOL0     C98480   8.622   7.502   9.861 -0.1223 -0.5568  0.8748
  730MOL0     C98481   8.725   7.486   9.954 -0.9830 -0.5125 -0.2878
  730MOL0     C98482   8.699   7.372  10.051 -1.2570  0.4778  0.6198
  730MOL0     H98483   9.249   7.617   9.879  1.4782  0.8519 -0.4329
  730MOL0     H98484   9.491   7.571   9.963  0.6169  0.3677  1.9733
  730MOL0     H98485   9.607   7.326  10.219 -0.5785  0.3773  1.2544
  730MOL0     H98486   9.630   7.405  10.057  2.7900 -0.2573  0.0480
  730MOL0     H98487   9.780   7.523  10.290  2.3852 -1.9544  1.9611
  730MOL0     H98488   9.811   7.540  10.119 -3.9059  2.7967  0.9303
  730MOL0     H98489   9.869   7.282  10.133 -0.9056  1.6216 -0.1269
  730MOL0     H98490   9.865   7.298  10.309 -2.1224  0.0120  0.2102
  730MOL0     H98491  10.059   7.436  10.120  1.4592  0.1711  0.4161
  730MOL0     H98492  10.038   7.466  10.303  1.6059 -1.2089  1.1602
  730MOL0     H98493  10.107   7.241  10.337 -1.2637  1.1081  0.0290
  730MOL0     H98494  10.106   7.203  10.159 -1.0845  0.7923 -0.6808
  730MOL0     H98495  10.292   7.367  10.147 -0.9592  3.6693  0.3859
  730MOL0     H98496  10.283   7.416  10.315  1.3473  0.5348 -2.2770
  730MOL0     H98497  10.343   7.124  10.238  1.9293  0.3833 -1.6261
  730MOL0     H98498  10.349   7.195  10.402  1.1149  1.7265  0.2491
  730MOL0     H98499  10.515   7.245  10.153  3.6134 -1.6696  0.3072
  730MOL0     H98500  10.516   7.362  10.282  0.3837 -0.1454  0.0697
  730MOL0     H98501  10.580   7.008  10.168 -1.7281 -0.9703  0.9648
  730MOL0     H98502  10.735   6.805  10.251 -1.2366  1.0807  0.9801
  730MOL0     H98503  10.874   6.902  10.192  2.5718 -2.2417  0.4464
  730MOL0     H98504  10.928   6.889  10.450  1.0428  0.9215  0.3495
  730MOL0     H98505  10.863   6.725  10.412 -0.4377 -1.5039 -2.2881
  730MOL0     H98506  11.099   6.863  10.269 -1.8912 -0.1015 -1.3238
  730MOL0     H98507  11.058   6.700  10.241  1.7496 -2.0730  2.0810
  730MOL0     H98508  11.098   6.631  10.474 -0.5966 -0.4793 -0.2372
  730MOL0     H98509  11.174   6.785  10.511  2.6027  2.2584 -1.1522
  730MOL0     H98510  11.350   6.881  10.221 -0.3838 -0.8735 -0.1690
  730MOL0     H98511  11.524   7.033  10.249 -4.0549 -0.9524 -0.9636
  730MOL0     H98512  11.875   7.254  10.539 -0.5952  0.5758  0.1155
  730MOL0     H98513  12.102   7.372  10.510  2.0907 -1.3097 -0.3827
  730MOL0     H98514  12.335   7.569  10.213 -0.4088  2.0988 -0.7186
  730MOL0     H98515  12.245   7.474  10.095  3.0633  0.5489  0.3147
  730MOL0     H98516  12.032   7.593  10.237  0.2651  0.5042  0.8981
  730MOL0     H98517  12.155   7.687  10.304 -4.8158 -0.3905  1.1841
  730MOL0     H98518  12.059   7.810  10.122  0.7296  0.4568  2.0435
  730MOL0     H98519  12.228   7.787  10.100  0.5488 -0.5640 -1.4657
  730MOL0     H98520  11.998   7.626   9.966  1.2240 -0.9715 -2.0660
  730MOL0     H98521  12.167   7.598   9.928 -1.1724  1.7432 -6.7657
  730MOL0     H98522  12.216   7.806   9.863 -0.3241  1.9371 -3.7247
  730MOL0     H98523  12.053   7.866   9.899 -1.4065 -0.1922  0.6808
  730MOL0     H98524  12.125   7.810   9.653  0.5819 -1.3130 -0.9212
  730MOL0     H98525  12.098   7.635   9.693 -0.0510 -0.2173 -0.5970
  730MOL0     H98526  11.891   7.854   9.702  2.7687  0.0017 -2.1523
  730MOL0     H98527  11.852   7.699   9.771 -2.1035  3.3398  0.6768
  730MOL0     H98528  11.872   7.612   9.521 -0.9469  0.7751  0.3237
  730MOL0     H98529  11.747   7.727   9.551 -0.5120 -0.9979  0.0757
  730MOL0     H98530  12.101   7.275  10.101  1.1452 -1.7672  0.0900
  730MOL0     H98531  11.889   7.147  10.123  1.6177 -0.6962 -1.4037
  730MOL0     H98532  11.617   6.855  10.637  1.3275 -1.4527 -1.1996
  730MOL0     H98533  11.428   6.691  10.585 -3.4978  0.3067 -1.6589
  730MOL0     H98534   9.353   7.564  10.364 -0.5760  1.5092  0.4972
  730MOL0     H98535   9.127   7.625  10.286 -0.1101 -2.0516  0.0114
  730MOL0     H98536   8.936   7.732   9.864  0.1406 -0.0479  0.9317
  730MOL0     H98537   8.771   7.766   9.697  0.7216  1.0718  0.9902
  730MOL0     H98538   8.374   7.609   9.801 -1.5305 -1.6054 -0.6464
  730MOL0     H98539   8.398   7.496   9.669  3.2940  0.2167 -2.1835
  730MOL0     H98540   8.338   7.692   9.514  1.0658  0.4665  1.0005
  730MOL0     H98541   8.290   7.780   9.666 -1.2891 -0.3700  1.4743
  730MOL0     H98542   8.128   7.607   9.721  0.0046  0.1484  0.1508
  730MOL0     H98543   8.164   7.501   9.594 -1.9261  0.3502 -0.7804
  730MOL0     H98544   8.046   7.779   9.540  1.6106  1.9033 -1.8629
  730MOL0     H98545   8.109   7.662   9.421  0.4316 -1.9033  1.5203
  730MOL0     H98546   7.710   7.521   9.501  0.1891 -1.7609 -1.9132
  730MOL0     H98547   8.537   7.435   9.863  0.9018 -1.9230  0.2251
  730MOL0     H98548   8.728   7.379  10.156  0.2154 -1.0526  0.3530
  730MOL0     H98549   8.591   7.351  10.051 -2.1178  4.1566  1.5428
  730MOL0     H98550   8.757   7.285  10.019 -1.2125  0.7624 -0.1093
  731MOL0     O98551   6.021  10.311   6.671 -0.1608 -0.0663 -0.3911
  731MOL0     C98552   5.969  10.208   6.715 -0.1319  0.6494  1.1966
  731MOL0     O98553   6.019  10.086   6.712 -0.0368  0.5556 -0.3274
  731MOL0     C98554   6.151  10.058   6.689 -0.1186  0.2948 -0.4335
  731MOL0     C98555   6.185   9.935   6.737 -0.1706 -0.5901  0.1335
  731MOL0     C98556   6.321   9.902   6.746 -0.1995 -0.0981  0.4481
  731MOL0     C98557   6.425   9.991   6.697 -0.4929  0.2881 -0.2268
  731MOL0     O98558   6.562   9.976   6.696 -0.6599 -0.1792 -0.6244
  731MOL0     C98559   6.615   9.846   6.730 -0.2599 -0.7921  0.4386
  731MOL0     C98560   6.771   9.846   6.724 -0.4978  0.4014 -0.6815
  731MOL0     C98561   6.814   9.942   6.828 -1.3262  0.7159  0.5606
  731MOL0     C98562   6.957   9.989   6.785 -0.0394  0.0526 -0.4364
  731MOL0     C98563   7.000  10.085   6.891 -0.2321 -0.8355 -1.4617
  731MOL0     C98564   7.131  10.162   6.858  0.4333  0.1490 -0.6476
  731MOL0     C98565   7.171  10.264   6.966 -0.0349 -0.4736 -1.3430
  731MOL0     C98566   7.191  10.399   6.921 -0.4928 -0.3055 -0.0833
  731MOL0     N98567   7.328  10.428   6.874 -0.7284  0.4994 -0.2415
  731MOL0     C98568   7.388  10.404   6.753 -1.0559 -0.0551 -0.1397
  731MOL0     C98569   7.514  10.457   6.757  0.4325 -0.2934 -0.5132
  731MOL0     C98570   7.611  10.460   6.643  0.5385  0.1265 -0.4643
  731MOL0     C98571   7.761  10.433   6.678 -0.2749 -0.0381  0.6213
  731MOL0     C98572   7.795  10.287   6.702 -0.1013 -0.1207 -0.4251
  731MOL0     C98573   7.947  10.291   6.739  0.4496  0.3919  0.0190
  731MOL0     O98574   8.021  10.351   6.634 -0.4189  0.3871  0.4871
  731MOL0     C98575   8.148  10.387   6.654 -0.1424 -0.3321 -0.0501
  731MOL0     C98576   8.209  10.400   6.780 -0.0146  0.1515 -0.4414
  731MOL0     C98577   8.337  10.446   6.798  0.0160 -0.3218  0.5940
  731MOL0     C98578   8.416  10.483   6.684  0.4851 -0.0877 -0.5343
  731MOL0     C98579   8.543  10.557   6.708 -0.5060  0.8832  0.4346
  731MOL0     O98580   8.613  10.591   6.593  0.3574  0.0950 -0.1750
  731MOL0     C98581   8.733  10.651   6.623  0.3968  0.9526  0.0759
  731MOL0     C98582   8.744  10.771   6.693  0.0506  0.4068  0.0429
  731MOL0     C98583   8.863  10.842   6.703  0.0375 -0.2953 -0.2595
  731MOL0     C98584   8.974  10.793   6.636  0.3766  0.3483 -0.8207
  731MOL0     O98585   9.091  10.857   6.618  0.1828 -0.0998 -0.1210
  731MOL0     C98586   9.124  10.959   6.725  0.9953  0.6913  0.1435
  731MOL0     C98587   9.260  11.007   6.711 -0.3735 -0.2153  0.5094
  731MOL0     C98588   9.354  10.900   6.754  0.5214 -0.2466  0.8135
  731MOL0     C98589   9.379  10.894   6.904  0.0198 -0.2801  0.2771
  731MOL0     C98590   9.475  10.781   6.952  1.3697 -0.0279 -0.1539
  731MOL0     C98591   9.613  10.821   6.918  0.1976 -0.0275 -0.3910
  731MOL0     C98592   9.715  10.731   6.990 -0.1290 -0.3953  0.1462
  731MOL0     C98593   9.850  10.792   6.993 -0.8663 -0.8002 -0.0020
  731MOL0    Cl98594   9.858  10.955   7.085  0.3012  0.1169  0.0173
  731MOL0     C98595   8.971  10.668   6.576  0.3168 -0.3503  0.5264
  731MOL0     C98596   8.850  10.599   6.564  0.3002  0.9124  0.1236
  731MOL0     O98597   8.573  10.587   6.824 -0.1626 -0.0246  0.2120
  731MOL0     C98598   8.364  10.455   6.553 -1.1526  0.0332 -0.7447
  731MOL0     C98599   8.231  10.404   6.540  0.0774 -0.2041 -0.3857
  731MOL0     N98600   7.528  10.506   6.881 -0.0874  0.0455 -0.4441
  731MOL0     N98601   7.420  10.487   6.952  0.6013 -0.2161  0.1512
  731MOL0     C98602   6.379  10.103   6.628 -0.2632 -0.4703 -0.6194
  731MOL0     C98603   6.244  10.137   6.630  0.5681 -0.5653 -0.4707
  731MOL0     C98604   5.821  10.222   6.737  0.9047  0.3646  0.2809
  731MOL0     C98605   5.742  10.107   6.714 -0.1053  0.6538 -0.0632
  731MOL0     C98606   5.600  10.108   6.718 -0.1084 -0.0726 -0.2491
  731MOL0     C98607   5.530  10.227   6.733  0.0454  1.3691 -0.9036
  731MOL0     O98608   5.397  10.224   6.729  0.2450  0.2005 -0.4588
  731MOL0     C98609   5.329  10.325   6.651  0.5709 -0.1706 -0.5652
  731MOL0     C98610   5.179  10.289   6.637 -0.2717 -0.0009  0.3182
  731MOL0     C98611   5.112  10.285   6.773 -0.1618 -0.0433  0.4322
  731MOL0     C98612   5.131  10.417   6.842  0.4612  0.0488  1.3413
  731MOL0     C98613   5.009  10.450   6.922 -0.3374 -0.0069 -0.7896
  731MOL0     C98614   4.915  10.489   6.992  0.0431  0.0721 -0.0944
  731MOL0     C98615   5.604  10.345   6.759  0.5445  0.7384  1.1841
  731MOL0     C98616   5.747  10.346   6.765 -1.2989  0.2091 -0.5523
  731MOL0     C98617   5.811  10.473   6.805  0.1159  0.6525  0.9269
  731MOL0     H98618   6.108   9.871   6.780 -0.6114 -0.8455 -1.0077
  731MOL0     H98619   6.345   9.811   6.800 -1.4699 -0.1068  1.0514
  731MOL0     H98620   6.580   9.816   6.829 -2.3046 -0.4333 -0.1263
  731MOL0     H98621   6.584   9.770   6.657 -0.7390  0.8568 -1.1276
  731MOL0     H98622   6.798   9.876   6.622 -3.4032 -1.8836 -2.3130
  731MOL0     H98623   6.813   9.746   6.734 -4.8351 -1.5533  0.6516
  731MOL0     H98624   6.814   9.899   6.929 -2.6532  0.0917  0.3097
  731MOL0     H98625   6.750  10.030   6.826  1.2755  2.7292 -0.7338
  731MOL0     H98626   7.034   9.911   6.782  0.0731  0.1062  0.6093
  731MOL0     H98627   6.960  10.037   6.687 -0.1276 -0.9186 -0.9243
  731MOL0     H98628   6.927  10.165   6.905 -0.1735 -0.7592 -1.5892
  731MOL0     H98629   7.013  10.031   6.985  2.8862  1.9548 -0.0976
  731MOL0     H98630   7.205  10.081   6.851  0.6548 -0.0083  2.1745
  731MOL0     H98631   7.121  10.208   6.760 -2.6394 -1.3277 -1.1331
  731MOL0     H98632   7.259  10.218   7.012 -0.6961 -0.1732  0.2795
  731MOL0     H98633   7.091  10.272   7.041  0.0062 -1.5873 -1.1540
  731MOL0     H98634   7.118  10.415   6.841 -3.0896 -3.6916  1.3940
  731MOL0     H98635   7.168  10.469   7.002 -0.1077 -0.4952  0.1906
  731MOL0     H98636   7.337  10.347   6.676 -1.2085 -0.1866  0.0607
  731MOL0     H98637   7.574  10.395   6.563 -2.2043  1.0765 -0.0680
  731MOL0     H98638   7.597  10.561   6.604  1.8494 -0.0921 -1.5847
  731MOL0     H98639   7.821  10.466   6.592 -0.0688 -0.0367  0.7636
  731MOL0     H98640   7.773  10.489   6.771 -0.6735  1.0903  0.0069
  731MOL0     H98641   7.775  10.238   6.606  1.3065 -0.2180 -0.6919
  731MOL0     H98642   7.737  10.248   6.786  1.5231 -0.7946  0.4367
  731MOL0     H98643   7.975  10.186   6.756 -1.3471 -0.0275  0.6122
  731MOL0     H98644   7.956  10.347   6.833 -1.6835 -0.1432  0.5990
  731MOL0     H98645   8.164  10.364   6.872  0.3876  2.0017  0.5310
  731MOL0     H98646   8.391  10.451   6.892  0.5209 -1.8809  0.4149
  731MOL0     H98647   8.659  10.805   6.752  0.7600  2.2073  0.0957
  731MOL0     H98648   8.860  10.944   6.741  1.6562  0.0082 -0.8740
  731MOL0     H98649   9.055  11.044   6.718 -0.5767 -0.5332  0.2651
  731MOL0     H98650   9.100  10.911   6.820  1.1614  0.4055  0.0407
  731MOL0     H98651   9.286  11.054   6.616 -0.2392  1.2365  1.2385
  731MOL0     H98652   9.272  11.091   6.780  3.8633  0.2071 -0.4425
  731MOL0     H98653   9.307  10.806   6.723 -1.6435  1.1450 -0.4149
  731MOL0     H98654   9.450  10.910   6.702  0.6772 -0.3473  1.0805
  731MOL0     H98655   9.284  10.886   6.958  0.1386  0.4154  0.5951
  731MOL0     H98656   9.414  10.991   6.939 -0.5243  0.2512 -0.5999
  731MOL0     H98657   9.462  10.680   6.912  0.0969 -0.6760  1.7314
  731MOL0     H98658   9.469  10.777   7.062  0.3669 -0.2703 -0.2106
  731MOL0     H98659   9.620  10.792   6.813  2.8695 -1.4672  0.0974
  731MOL0     H98660   9.630  10.927   6.940  0.1609  0.3943 -2.1951
  731MOL0     H98661   9.722  10.640   6.930 -0.5240 -1.7864  2.0986
  731MOL0     H98662   9.689  10.698   7.091 -4.7408  0.3300 -0.5704
  731MOL0     H98663   9.924  10.730   7.044 -0.1921 -1.0655 -1.2452
  731MOL0     H98664   9.889  10.810   6.892 -1.4624 -5.0328 -1.1521
  731MOL0     H98665   9.059  10.620   6.534  1.2493  1.5909  0.1363
  731MOL0     H98666   8.839  10.500   6.522 -0.2721  1.4782 -1.1055
  731MOL0     H98667   8.437  10.466   6.473 -0.3337  0.1982  0.0129
  731MOL0     H98668   8.198  10.384   6.439 -1.2160  3.4250 -0.8348
  731MOL0     H98669   6.439  10.182   6.584 -1.9664  2.9438  2.6167
  731MOL0     H98670   6.219  10.227   6.575  0.1752 -0.6098 -0.3722
  731MOL0     H98671   5.795  10.016   6.687 -0.4053  0.6588 -0.6786
  731MOL0     H98672   5.548  10.017   6.692  0.9856  0.1329 -3.5550
  731MOL0     H98673   5.375  10.340   6.553  0.0743  0.8752 -0.6506
  731MOL0     H98674   5.332  10.421   6.703 -3.1741 -1.2649  2.1047
  731MOL0     H98675   5.164  10.194   6.585 -1.9016  1.1276 -1.3988
  731MOL0     H98676   5.126  10.359   6.573 -0.5881 -0.5100  0.0122
  731MOL0     H98677   5.158  10.197   6.819  0.9462  0.2210 -0.1318
  731MOL0     H98678   5.004  10.267   6.768 -0.1901 -0.4114  1.8740
  731MOL0     H98679   5.221  10.418   6.904 -0.2247 -0.2426  2.3712
  731MOL0     H98680   5.132  10.493   6.763  1.0196 -1.7168 -0.4447
  731MOL0     H98681   4.834  10.547   7.031  1.3207  4.7217 -3.5205
  731MOL0     H98682   5.535  10.426   6.779 -1.5070 -1.2455  2.6184
  731MOL0     H98683   5.893  10.454   6.875  2.2429 -0.1921 -1.6074
  731MOL0     H98684   5.851  10.513   6.711  2.2729 -1.5169  0.8112
  731MOL0     H98685   5.740  10.538   6.856 -2.3925 -2.3443  1.6137
  732MOL0     O98686   7.662   1.409   2.696  0.1110  0.4068 -0.0655
  732MOL0     C98687   7.596   1.397   2.799  0.8573  0.0276 -0.2116
  732MOL0     O98688   7.643   1.423   2.923 -0.2491 -0.4215 -0.0175
  732MOL0     C98689   7.763   1.486   2.937 -0.4257  0.1048  0.1742
  732MOL0     C98690   7.782   1.621   2.923 -0.1867 -0.7214 -0.0729
  732MOL0     C98691   7.908   1.678   2.932  0.2911 -0.1886 -0.5505
  732MOL0     C98692   8.016   1.592   2.933 -0.9459  0.0562 -0.5939
  732MOL0     O98693   8.148   1.639   2.920  0.0651 -0.8399  0.0500
  732MOL0     C98694   8.182   1.755   3.002  0.0225  0.0724  0.4094
  732MOL0     C98695   8.325   1.757   3.049  0.5875 -0.5630 -0.1539
  732MOL0     C98696   8.424   1.734   2.935 -0.5021 -0.3895 -0.1844
  732MOL0     C98697   8.565   1.698   2.980 -0.0918 -0.3665  1.0088
  732MOL0     C98698   8.630   1.798   3.085 -0.2615 -0.7687  0.2704
  732MOL0     C98699   8.767   1.839   3.027 -0.3421 -0.7058 -0.0989
  732MOL0     C98700   8.825   1.959   3.110 -0.5884  0.1438 -0.2998
  732MOL0     C98701   8.982   1.974   3.102 -0.3381 -0.5620  0.3802
  732MOL0     N98702   9.064   1.867   3.157  0.0161 -0.3188 -0.1780
  732MOL0     C98703   9.067   1.852   3.289  0.3095  0.3375 -0.7564
  732MOL0     C98704   9.180   1.776   3.306 -0.5619 -0.2514  0.4236
  732MOL0     C98705   9.242   1.729   3.431 -0.0713 -0.2846  0.7972
  732MOL0     C98706   9.255   1.839   3.544 -0.3714  0.1003  0.1512
  732MOL0     C98707   9.319   1.979   3.508 -0.4220 -0.1778  0.1711
  732MOL0     C98708   9.455   1.980   3.440  0.5111 -0.1381 -0.0433
  732MOL0     O98709   9.541   1.915   3.535 -0.4858 -0.1588  0.5542
  732MOL0     C98710   9.670   1.884   3.502 -0.6284  0.7642 -0.1021
  732MOL0     C98711   9.738   1.792   3.584 -0.4427  0.7938 -0.2281
  732MOL0     C98712   9.868   1.755   3.570  0.5775  0.1354 -0.2748
  732MOL0     C98713   9.936   1.807   3.459  1.2112  0.0466  1.1812
  732MOL0     C98714  10.080   1.760   3.441  0.5272  0.1762  1.0225
  732MOL0     O98715  10.147   1.721   3.550 -0.4601  1.0593 -0.2344
  732MOL0     C98716  10.279   1.709   3.534 -0.0294 -0.1010 -0.1628
  732MOL0     C98717  10.343   1.638   3.433 -0.1367 -0.1577 -0.1254
  732MOL0     C98718  10.485   1.628   3.427  0.4826 -0.1202  0.1136
  732MOL0     C98719  10.563   1.683   3.520  0.6862 -0.3285 -0.1554
  732MOL0     O98720  10.695   1.670   3.509  0.1648  0.0946  0.6260
  732MOL0     C98721  10.780   1.688   3.625 -0.4029 -0.2029  0.5596
  732MOL0     C98722  10.916   1.634   3.593 -0.1821  0.5564  0.1311
  732MOL0     C98723  11.008   1.678   3.711 -0.3106  0.4254 -0.2274
  732MOL0     C98724  11.148   1.606   3.686  0.3935 -0.3686 -0.2037
  732MOL0     C98725  11.142   1.455   3.724 -0.3810 -0.3185  0.6500
  732MOL0     C98726  11.286   1.396   3.713  0.1143 -0.6803  0.2545
  732MOL0     C98727  11.365   1.404   3.847 -0.5241  0.5580 -0.3542
  732MOL0     C98728  11.509   1.357   3.859 -0.8432 -0.5308  0.4409
  732MOL0    Cl98729  11.524   1.188   3.828  0.3090  0.3351  0.0623
  732MOL0     C98730  10.499   1.751   3.625 -0.0930 -0.2412 -0.3367
  732MOL0     C98731  10.361   1.774   3.632  0.3287 -0.0458 -0.1517
  732MOL0     O98732  10.129   1.786   3.325  0.2792  0.2025 -0.2629
  732MOL0     C98733   9.871   1.898   3.371  0.2062 -0.2715  0.3039
  732MOL0     C98734   9.734   1.926   3.391 -0.3835  0.0178  0.3245
  732MOL0     N98735   9.238   1.750   3.185  0.3515  0.8355  0.5667
  732MOL0     N98736   9.163   1.805   3.092 -0.5772 -0.4044  0.0365
  732MOL0     C98737   7.998   1.450   2.921  0.2600 -0.1916  0.5787
  732MOL0     C98738   7.871   1.402   2.937 -1.0698 -0.1409 -0.0457
  732MOL0     C98739   7.454   1.359   2.788 -0.1590 -0.7661 -0.7360
  732MOL0     C98740   7.373   1.365   2.904 -0.6000 -0.5870 -0.6443
  732MOL0     C98741   7.244   1.331   2.917 -0.0212  0.4801  0.0262
  732MOL0     C98742   7.192   1.257   2.803 -0.1060  0.7050 -0.0859
  732MOL0     O98743   7.073   1.190   2.805  0.0606 -0.3214 -0.2848
  732MOL0     C98744   6.975   1.212   2.906  0.2092 -0.4025  0.1904
  732MOL0     C98745   6.857   1.122   2.878 -1.3780 -0.1681  1.2896
  732MOL0     C98746   6.733   1.165   2.952  0.2674  0.4834  0.5000
  732MOL0     C98747   6.610   1.080   2.927  0.5149  0.6266 -0.5881
  732MOL0     C98748   6.525   1.074   3.048 -0.4396  0.5131 -0.0684
  732MOL0     C98749   6.446   1.055   3.135  0.1462 -0.3166 -0.1293
  732MOL0     C98750   7.270   1.224   2.692 -0.3832  0.6476 -0.6892
  732MOL0     C98751   7.394   1.287   2.679  0.5937 -0.2785  0.8893
  732MOL0     C98752   7.442   1.287   2.529 -0.6785 -0.4388  0.4923
  732MOL0     H98753   7.693   1.682   2.924  1.8924  2.5650  0.7703
  732MOL0     H98754   7.908   1.786   2.943  0.9407 -0.1450 -0.9319
  732MOL0     H98755   8.172   1.845   2.941  1.8524  0.2883  0.3688
  732MOL0     H98756   8.116   1.775   3.087  2.1116 -1.0613  2.4038
  732MOL0     H98757   8.333   1.670   3.115 -1.0683 -0.2782  0.4749
  732MOL0     H98758   8.346   1.851   3.102  1.7960  1.7772 -4.3518
  732MOL0     H98759   8.430   1.822   2.870 -0.2597 -0.0335  0.3174
  732MOL0     H98760   8.388   1.655   2.868  0.2463  0.1720 -1.2848
  732MOL0     H98761   8.561   1.603   3.036  1.7561 -1.2132 -0.1893
  732MOL0     H98762   8.632   1.678   2.896 -1.2570  1.0072 -0.2905
  732MOL0     H98763   8.576   1.893   3.084 -0.1501 -0.7060 -1.1525
  732MOL0     H98764   8.638   1.761   3.188 -0.5245  0.7640  0.8656
  732MOL0     H98765   8.839   1.758   3.017  2.6011  1.6780  0.2823
  732MOL0     H98766   8.743   1.879   2.928 -1.7649 -1.6490 -0.1612
  732MOL0     H98767   8.796   1.943   3.214 -3.6089  1.2218 -0.8780
  732MOL0     H98768   8.777   2.055   3.089 -1.4791  0.2358  1.9261
  732MOL0     H98769   9.005   2.000   2.998 -1.5044 -0.7934  0.0496
  732MOL0     H98770   9.005   2.062   3.163 -1.0119 -0.3687  0.3623
  732MOL0     H98771   9.020   1.900   3.375  3.2583  0.0961  1.1187
  732MOL0     H98772   9.186   1.640   3.462 -0.3372 -0.3001  0.2804
  732MOL0     H98773   9.343   1.688   3.418  0.4465  1.6955 -2.4355
  732MOL0     H98774   9.161   1.864   3.594 -0.9129 -1.7954  0.1914
  732MOL0     H98775   9.309   1.793   3.627 -1.1378 -0.9197  0.1001
  732MOL0     H98776   9.312   2.050   3.590 -3.4544 -0.0294 -0.1029
  732MOL0     H98777   9.247   2.024   3.439 -3.1182 -2.7696  1.0581
  732MOL0     H98778   9.487   2.083   3.420 -1.8636  1.1626  2.1820
  732MOL0     H98779   9.455   1.928   3.345 -0.8959  0.0125 -0.1365
  732MOL0     H98780   9.681   1.749   3.666  2.7413 -0.0006  1.7583
  732MOL0     H98781   9.926   1.690   3.634  0.9187  1.2007  0.5276
  732MOL0     H98782  10.279   1.589   3.360 -0.3074  0.8977 -0.6987
  732MOL0     H98783  10.531   1.576   3.344 -0.6997  0.3455 -0.8635
  732MOL0     H98784  10.778   1.793   3.655 -0.9534 -0.3446  1.0239
  732MOL0     H98785  10.740   1.617   3.698  0.2669  0.7903  1.9319
  732MOL0     H98786  10.916   1.525   3.584  1.2144  0.2943  2.4399
  732MOL0     H98787  10.946   1.688   3.502  0.7748  1.1342  0.7672
  732MOL0     H98788  11.019   1.786   3.703 -0.9987  0.4472 -0.9520
  732MOL0     H98789  10.971   1.644   3.808  0.4858 -2.0403 -0.6954
  732MOL0     H98790  11.217   1.655   3.755 -1.6306  1.1138  0.9053
  732MOL0     H98791  11.191   1.615   3.586 -0.2303 -0.7641 -0.5172
  732MOL0     H98792  11.079   1.398   3.655 -1.0101  0.9704  0.1252
  732MOL0     H98793  11.090   1.440   3.819 -0.7421  0.0013  0.5033
  732MOL0     H98794  11.269   1.290   3.693 -0.5123 -0.8645  1.6813
  732MOL0     H98795  11.349   1.454   3.645  0.0008  4.6756  4.0958
  732MOL0     H98796  11.313   1.349   3.926  1.0427  0.1415  0.4279
  732MOL0     H98797  11.374   1.509   3.878  2.2929  0.4055 -0.4157
  732MOL0     H98798  11.564   1.411   3.781 -1.2922 -0.8269 -0.0840
  732MOL0     H98799  11.558   1.382   3.954  1.6912 -2.0497 -0.3555
  732MOL0     H98800  10.559   1.780   3.710 -1.1454  0.2379  0.2730
  732MOL0     H98801  10.314   1.829   3.712 -0.3895 -0.3498 -0.3630
  732MOL0     H98802   9.919   1.929   3.278  0.7799 -2.7560 -0.2992
  732MOL0     H98803   9.685   1.999   3.327  1.0027 -1.3871 -2.5022
  732MOL0     H98804   8.087   1.388   2.911  1.6036  1.9299 -1.9983
  732MOL0     H98805   7.853   1.296   2.956 -1.4172 -0.1951 -0.6616
  732MOL0     H98806   7.406   1.416   2.994 -0.2588  1.5296 -1.8936
  732MOL0     H98807   7.191   1.359   3.007  0.1065  2.8194 -0.5673
  732MOL0     H98808   6.945   1.316   2.917  1.5810  0.1419 -0.8329
  732MOL0     H98809   7.021   1.186   3.001  1.8949 -0.9616 -0.7252
  732MOL0     H98810   6.884   1.017   2.896  0.0184 -0.2157 -0.7413
  732MOL0     H98811   6.832   1.114   2.772  0.1479 -1.7531  0.9987
  732MOL0     H98812   6.713   1.268   2.923 -1.0094  0.7309  2.1117
  732MOL0     H98813   6.761   1.156   3.058  2.6115  0.4967 -0.0604
  732MOL0     H98814   6.553   1.122   2.843  0.0297  1.7875  0.3069
  732MOL0     H98815   6.631   0.975   2.905 -3.5702 -1.6445  4.3293
  732MOL0     H98816   6.377   1.052   3.217  1.7266 -0.1420  1.2512
  732MOL0     H98817   7.242   1.162   2.606 -1.0251 -0.9798  0.6330
  732MOL0     H98818   7.521   1.358   2.504 -1.2119 -0.1599 -0.4707
  732MOL0     H98819   7.471   1.182   2.517 -2.9054 -1.0335 -0.2154
  732MOL0     H98820   7.367   1.315   2.454  0.7937  1.1250 -0.4699
  733MOL0     O98821   5.977   7.718   3.910 -0.4092  0.2119 -0.4822
  733MOL0     C98822   5.971   7.592   3.924  0.0288 -0.9052  0.4593
  733MOL0     O98823   6.053   7.514   3.999  0.4986  0.5575  0.6924
  733MOL0     C98824   6.164   7.565   4.052 -0.2892  0.3830  0.7981
  733MOL0     C98825   6.283   7.504   4.033  0.0136 -0.0510  0.6676
  733MOL0     C98826   6.398   7.552   4.093  0.5962  0.7141  1.1680
  733MOL0     C98827   6.404   7.672   4.168 -0.0365  0.4148  0.0764
  733MOL0     O98828   6.515   7.723   4.224  0.0455 -0.0134 -0.4598
  733MOL0     C98829   6.645   7.692   4.170 -0.3647 -0.0836 -0.8384
  733MOL0     C98830   6.735   7.805   4.220  0.6484 -0.3061 -0.2264
  733MOL0     C98831   6.862   7.805   4.146 -0.4356  0.0147  0.4717
  733MOL0     C98832   6.990   7.879   4.212 -0.4892  0.2080 -0.1807
  733MOL0     C98833   7.124   7.838   4.150  0.1412 -0.7074 -0.2335
  733MOL0     C98834   7.233   7.912   4.226  0.3034  0.0532  0.2827
  733MOL0     C98835   7.372   7.895   4.162  0.8069  0.2195  0.5072
  733MOL0     C98836   7.481   7.955   4.251  0.6805  0.2583  0.8269
  733MOL0     N98837   7.607   7.912   4.192  0.1596  0.2442  0.1122
  733MOL0     C98838   7.669   7.972   4.085 -0.6614  0.6599  0.2953
  733MOL0     C98839   7.774   7.895   4.051 -0.2121 -0.0710 -0.4336
  733MOL0     C98840   7.873   7.931   3.945 -0.7079  0.3373 -0.1029
  733MOL0     C98841   7.951   8.059   3.987  0.3503 -0.4044 -0.0605
  733MOL0     C98842   8.066   8.105   3.885 -0.1998  0.1656 -0.1776
  733MOL0     C98843   8.130   8.235   3.939 -0.4273 -0.8471  0.4183
  733MOL0     O98844   8.246   8.210   4.020 -0.3464  0.4965 -0.3853
  733MOL0     C98845   8.372   8.193   3.978  0.2596  0.0747  0.2790
  733MOL0     C98846   8.472   8.150   4.069  0.1374 -0.4742  0.2812
  733MOL0     C98847   8.595   8.128   4.031 -0.0358  1.5523 -0.4126
  733MOL0     C98848   8.645   8.143   3.899  0.2033 -0.5444 -0.0965
  733MOL0     C98849   8.793   8.121   3.866  0.0005 -0.2351 -0.7331
  733MOL0     O98850   8.878   8.071   3.956 -0.6622 -0.2277  0.0224
  733MOL0     C98851   9.017   8.064   3.938  0.9182  0.0081 -1.0576
  733MOL0     C98852   9.097   8.159   3.878 -0.2999 -0.3332 -0.1489
  733MOL0     C98853   9.237   8.144   3.879 -0.2802 -0.7196  1.2220
  733MOL0     C98854   9.301   8.031   3.942 -0.1604  0.2011 -0.6128
  733MOL0     O98855   9.433   8.028   3.941  0.2019  0.9775  0.1325
  733MOL0     C98856   9.502   8.051   4.067 -0.4799  0.7446  0.8165
  733MOL0     C98857   9.649   8.070   4.022  1.0764  0.2658 -0.1209
  733MOL0     C98858   9.739   7.978   4.098  0.6796  0.8074  0.2632
  733MOL0     C98859   9.885   8.012   4.059  0.2738  0.1757 -0.1957
  733MOL0     C98860   9.978   7.906   4.128  0.1405  0.9691  1.3188
  733MOL0     C98861  10.107   7.900   4.043  0.0216 -0.6611 -0.2363
  733MOL0     C98862  10.229   7.816   4.100  0.4781 -0.0338 -0.0729
  733MOL0     C98863  10.286   7.723   3.998 -0.0609 -0.1511  0.7697
  733MOL0    Cl98864  10.360   7.579   4.069 -0.3694 -0.4295  0.0295
  733MOL0     C98865   9.217   7.940   4.002 -0.1487  0.5252 -0.0793
  733MOL0     C98866   9.079   7.958   3.998 -0.5024 -0.9513 -0.2727
  733MOL0     O98867   8.820   8.160   3.753 -0.1265  0.5158 -0.8574
  733MOL0     C98868   8.545   8.181   3.803 -0.8795  0.2475 -0.2498
  733MOL0     C98869   8.410   8.199   3.845  0.6036  0.1005 -0.1224
  733MOL0     N98870   7.767   7.784   4.130  0.3340 -0.2171 -0.5748
  733MOL0     N98871   7.671   7.806   4.221  0.1659  0.7378 -0.1150
  733MOL0     C98872   6.280   7.730   4.197  0.2445 -0.6713  0.3528
  733MOL0     C98873   6.159   7.678   4.135 -1.0911 -0.7813  0.3578
  733MOL0     C98874   5.854   7.515   3.867  0.6140  0.4214 -0.2775
  733MOL0     C98875   5.781   7.573   3.760 -0.6337 -0.2716 -0.1167
  733MOL0     C98876   5.659   7.506   3.721 -0.4266 -0.6798 -0.5340
  733MOL0     C98877   5.612   7.383   3.775  0.0008  0.0726  0.0308
  733MOL0     O98878   5.495   7.317   3.750  0.6442 -0.1184  0.5625
  733MOL0     C98879   5.410   7.353   3.644  0.1045  1.0080 -0.0997
  733MOL0     C98880   5.316   7.240   3.609  0.0760  0.0503  0.4084
  733MOL0     C98881   5.231   7.174   3.714  0.0978  0.9505 -0.3260
  733MOL0     C98882   5.135   7.265   3.781  0.1648 -0.5410 -0.5320
  733MOL0     C98883   5.056   7.178   3.876  0.3456  0.2829  0.3508
  733MOL0     C98884   4.988   7.102   3.939 -0.1424 -0.1948 -0.0860
  733MOL0     C98885   5.691   7.325   3.870  0.7319 -0.9823  0.4402
  733MOL0     C98886   5.805   7.393   3.921 -0.2260  0.6624 -0.1449
  733MOL0     C98887   5.860   7.310   4.032  0.4871 -0.0020 -0.2275
  733MOL0     H98888   6.286   7.414   3.972 -0.2594  0.2629  0.1819
  733MOL0     H98889   6.490   7.501   4.063  0.3601  0.3192  1.1060
  733MOL0     H98890   6.675   7.597   4.216  1.1415 -0.6513 -2.8589
  733MOL0     H98891   6.641   7.672   4.063 -2.9971  1.0963 -1.0406
  733MOL0     H98892   6.755   7.783   4.325  3.6127  1.4269 -0.3016
  733MOL0     H98893   6.687   7.902   4.211  1.0601 -0.2267 -2.1496
  733MOL0     H98894   6.848   7.843   4.044 -3.1103 -1.1736  0.2902
  733MOL0     H98895   6.887   7.701   4.120 -1.8718  0.3458 -2.7939
  733MOL0     H98896   6.962   7.985   4.205 -2.3322 -0.2926 -1.2430
  733MOL0     H98897   6.987   7.860   4.320 -2.0613  1.1966 -0.0098
  733MOL0     H98898   7.139   7.730   4.162  1.1035 -0.4476  1.0824
  733MOL0     H98899   7.114   7.855   4.043  1.8190 -3.5832 -0.9698
  733MOL0     H98900   7.212   8.019   4.237 -2.3434 -0.4614  0.8789
  733MOL0     H98901   7.240   7.873   4.327 -2.5762  0.8536  0.8824
  733MOL0     H98902   7.372   7.943   4.064  0.0069  2.2830  1.4615
  733MOL0     H98903   7.386   7.788   4.144 -2.0941  0.0280 -1.3967
  733MOL0     H98904   7.480   8.064   4.249  0.9320  0.2514 -0.0824
  733MOL0     H98905   7.468   7.909   4.349  0.9127 -0.2309  0.6319
  733MOL0     H98906   7.654   8.071   4.044 -1.8461  0.2446 -0.3128
  733MOL0     H98907   7.947   7.850   3.940 -0.4971  0.3846  1.6185
  733MOL0     H98908   7.823   7.959   3.852 -2.0787 -0.7500  0.2775
  733MOL0     H98909   7.878   8.140   3.985 -0.7899 -1.3741  0.7093
  733MOL0     H98910   7.992   8.046   4.088  1.3262 -1.8165 -0.5978
  733MOL0     H98911   8.022   8.133   3.788  1.7626  2.2915 -0.5515
  733MOL0     H98912   8.140   8.025   3.882  0.9429  1.1196  1.1980
  733MOL0     H98913   8.059   8.301   3.989 -2.7935 -2.0034 -1.1827
  733MOL0     H98914   8.162   8.293   3.852 -2.0343  0.0280  0.3664
  733MOL0     H98915   8.455   8.138   4.176 -0.4266  1.9799  0.5416
  733MOL0     H98916   8.661   8.100   4.113 -1.4207  1.1605  0.6116
  733MOL0     H98917   9.038   8.233   3.825 -2.5165 -2.1354 -0.3399
  733MOL0     H98918   9.305   8.210   3.825 -0.2928 -0.9219  0.9547
  733MOL0     H98919   9.466   8.146   4.106  1.5440  2.0712 -0.3541
  733MOL0     H98920   9.490   7.971   4.141 -1.6433 -2.7575 -2.8035
  733MOL0     H98921   9.656   8.034   3.919 -2.1344 -1.7071  0.2146
  733MOL0     H98922   9.678   8.176   4.021 -0.4373  0.7270 -2.2226
  733MOL0     H98923   9.718   7.988   4.205  1.2700  0.3318  0.4229
  733MOL0     H98924   9.711   7.878   4.063 -1.1282  0.5259  2.2439
  733MOL0     H98925   9.920   8.111   4.088 -0.3790 -0.0003  1.3280
  733MOL0     H98926   9.894   7.994   3.952  0.6808 -0.5557 -0.0450
  733MOL0     H98927   9.937   7.805   4.121  1.4436  0.4305  1.1393
  733MOL0     H98928   9.998   7.925   4.233 -0.1358  0.9918  1.3680
  733MOL0     H98929  10.075   7.858   3.947  0.3275 -0.8138 -0.2716
  733MOL0     H98930  10.154   7.998   4.034  2.2916 -1.8508 -2.3513
  733MOL0     H98931  10.195   7.756   4.184 -0.3914  1.6440  0.8226
  733MOL0     H98932  10.312   7.880   4.133  1.2681 -1.0383 -0.0941
  733MOL0     H98933  10.209   7.681   3.932  2.0556 -1.6471 -0.8781
  733MOL0     H98934  10.363   7.775   3.941 -0.3309 -0.5606  0.0107
  733MOL0     H98935   9.248   7.866   4.075 -2.8381 -0.9543 -0.3214
  733MOL0     H98936   9.018   7.881   4.043 -2.6917  0.3399 -0.8692
  733MOL0     H98937   8.576   8.197   3.700 -2.3275 -0.4262 -0.8218
  733MOL0     H98938   8.338   8.231   3.770 -3.7632  0.9091  3.9151
  733MOL0     H98939   6.286   7.823   4.253  3.2642  0.4684 -1.6417
  733MOL0     H98940   6.074   7.745   4.139  0.5620  1.7264 -2.4756
  733MOL0     H98941   5.819   7.661   3.708  0.5871 -1.9356 -2.2230
  733MOL0     H98942   5.605   7.543   3.634  0.9542  0.8004 -0.8023
  733MOL0     H98943   5.470   7.372   3.555 -0.9380 -0.5753 -1.1776
  733MOL0     H98944   5.358   7.445   3.675  2.3319  1.8826  1.3130
  733MOL0     H98945   5.368   7.155   3.564 -1.2846 -1.1986  1.1287
  733MOL0     H98946   5.248   7.268   3.528 -0.1405 -1.2687  0.1168
  733MOL0     H98947   5.288   7.128   3.795 -2.2034  1.2618  1.5869
  733MOL0     H98948   5.192   7.085   3.663  1.8031  0.4111 -0.7595
  733MOL0     H98949   5.190   7.350   3.821  2.4917  0.5218 -5.3043
  733MOL0     H98950   5.069   7.304   3.703 -0.4433  1.7546  1.0411
  733MOL0     H98951   4.930   7.023   3.982  1.9358 -2.3576 -0.9926
  733MOL0     H98952   5.638   7.240   3.911 -1.7720 -0.5272 -1.5559
  733MOL0     H98953   5.792   7.237   4.077  0.9910  0.0970  0.7098
  733MOL0     H98954   5.955   7.271   3.997  0.4977 -0.7461  0.6074
  733MOL0     H98955   5.873   7.383   4.113 -1.0836 -0.4188  0.4420
  734MOL0     O98956  10.733   6.239   1.129  0.4093 -0.4452  0.8171
  734MOL0     C98957  10.828   6.232   1.211  0.1084 -0.2967  0.2045
  734MOL0     O98958  10.813   6.173   1.329 -0.5274 -0.3644  0.6951
  734MOL0     C98959  10.685   6.139   1.371 -0.6712 -0.1977  0.2798
  734MOL0     C98960  10.632   6.234   1.451  0.6336  0.0906 -0.7123
  734MOL0     C98961  10.498   6.220   1.497 -0.4219 -0.0415 -0.8256
  734MOL0     C98962  10.429   6.103   1.465  0.4904  0.0732  0.4395
  734MOL0     O98963  10.307   6.083   1.530 -0.3150  0.3377 -0.5214
  734MOL0     C98964  10.330   5.987   1.637  0.6226 -0.4210  0.0871
  734MOL0     C98965  10.192   5.993   1.716  0.2884 -0.2761 -0.1706
  734MOL0     C98966  10.136   6.137   1.749 -0.3482 -0.9028 -1.0191
  734MOL0     C98967  10.220   6.221   1.843 -0.4954  0.1720 -0.0117
  734MOL0     C98968  10.152   6.356   1.861  0.1692 -0.2368  0.4887
  734MOL0     C98969  10.216   6.448   1.961 -0.7505 -0.3657 -0.6275
  734MOL0     C98970  10.144   6.579   1.981  0.1182  0.1304  0.2325
  734MOL0     C98971  10.170   6.680   1.863 -0.2190 -0.0770  0.3778
  734MOL0     N98972  10.312   6.705   1.844 -0.0997 -0.5936  0.1555
  734MOL0     C98973  10.381   6.680   1.732  0.7187 -0.8560  0.4820
  734MOL0     C98974  10.505   6.713   1.770 -0.3988  0.1110 -0.4517
  734MOL0     C98975  10.632   6.695   1.690 -0.3010 -0.4521  0.8437
  734MOL0     C98976  10.691   6.828   1.625 -0.1213  0.0559 -0.0692
  734MOL0     C98977  10.775   6.907   1.725  0.5966 -0.1288  0.2525
  734MOL0     C98978  10.866   7.005   1.645  0.6015 -0.3667 -0.9249
  734MOL0     O98979  10.956   7.067   1.740 -0.4304 -0.6271  0.0738
  734MOL0     C98980  11.065   7.002   1.791  0.5184  1.2550  0.0844
  734MOL0     C98981  11.117   6.877   1.753 -0.0156  0.1342 -0.7812
  734MOL0     C98982  11.228   6.819   1.821 -0.6755 -0.4935  0.2176
  734MOL0     C98983  11.298   6.899   1.919  0.6146  0.0687 -0.3302
  734MOL0     C98984  11.412   6.835   1.988  0.6884  0.3436  0.3865
  734MOL0     O98985  11.497   6.918   2.056 -0.9101  0.2500 -0.1696
  734MOL0     C98986  11.617   6.868   2.111  0.1248 -0.6470 -1.2268
  734MOL0     C98987  11.634   6.751   2.186 -0.4009 -0.0127 -0.9101
  734MOL0     C98988  11.760   6.714   2.238  0.2541 -0.2596  0.4155
  734MOL0     C98989  11.871   6.790   2.208 -0.5425 -1.1408  0.8022
  734MOL0     O98990  11.995   6.753   2.256 -0.2211 -0.1082 -0.2744
  734MOL0     C98991  12.012   6.663   2.367  0.1127 -0.5532 -0.2340
  734MOL0     C98992  12.167   6.634   2.410  0.2059  0.2437 -1.1483
  734MOL0     C98993  12.165   6.551   2.546  0.5717  0.6076  0.1400
  734MOL0     C98994  12.134   6.642   2.674 -0.1308 -0.3111  0.3277
  734MOL0     C98995  12.056   6.569   2.782 -0.1987 -1.1938 -0.3559
  734MOL0     C98996  12.034   6.654   2.917 -0.0476 -0.0002 -0.0306
  734MOL0     C98997  11.985   6.557   3.028  0.5016  0.5043 -0.2288
  734MOL0     C98998  11.999   6.604   3.173  0.9736 -0.6196  0.5319
  734MOL0    Cl98999  12.167   6.583   3.225 -0.0276 -0.2416 -0.0686
  734MOL0     C99000  11.858   6.901   2.119  0.0221  0.7753 -0.0388
  734MOL0     C99001  11.732   6.937   2.077  0.1058 -0.2786 -0.2015
  734MOL0     O99002  11.421   6.712   1.977  0.7444 -0.0450 -0.5994
  734MOL0     C99003  11.241   7.013   1.960  0.3642 -1.8996 -0.0059
  734MOL0     C99004  11.124   7.072   1.902 -0.5938 -0.1245 -0.1364
  734MOL0     N99005  10.510   6.748   1.902  0.1878 -0.1969  0.3922
  734MOL0     N99006  10.392   6.745   1.944  0.0448  0.5397 -0.4142
  734MOL0     C99007  10.484   6.001   1.380  0.7312 -0.1325  0.2413
  734MOL0     C99008  10.612   6.025   1.332 -0.5074  0.2254 -0.2343
  734MOL0     C99009  10.964   6.282   1.166  0.1455  0.1429 -0.3201
  734MOL0     C99010  11.074   6.251   1.252  0.1799 -0.4307  0.0255
  734MOL0     C99011  11.212   6.278   1.210 -0.2258 -0.4258  0.1883
  734MOL0     C99012  11.237   6.347   1.093 -0.1045  0.4201  0.3427
  734MOL0     O99013  11.374   6.358   1.066  0.1614 -0.3997 -0.3991
  734MOL0     C99014  11.411   6.351   0.930 -0.4418  0.4771  0.2071
  734MOL0     C99015  11.392   6.214   0.868  0.1039  0.1752 -0.1001
  734MOL0     C99016  11.434   6.205   0.722  0.9238  0.6908  0.1360
  734MOL0     C99017  11.385   6.079   0.661  0.0428  0.2285  0.3636
  734MOL0     C99018  11.241   6.096   0.625 -0.0157  0.2141 -0.4437
  734MOL0     C99019  11.129   6.095   0.579 -0.5270 -0.9231  0.1744
  734MOL0     C99020  11.125   6.380   1.012 -0.1594  0.0612  0.2593
  734MOL0     C99021  10.991   6.347   1.046 -0.3840  0.4169  0.2179
  734MOL0     C99022  10.892   6.389   0.942 -0.6691 -0.2636  0.6792
  734MOL0     H99023  10.701   6.316   1.467  1.8931 -1.4820  2.9583
  734MOL0     H99024  10.450   6.283   1.570 -1.4490 -0.5460 -1.0547
  734MOL0     H99025  10.352   5.886   1.602 -0.3767 -0.6197 -0.0052
  734MOL0     H99026  10.415   6.027   1.694  1.6682  1.8307 -2.7713
  734MOL0     H99027  10.199   5.940   1.812 -0.3995  0.7900  0.5026
  734MOL0     H99028  10.109   5.941   1.667 -2.9656  1.9134  2.5408
  734MOL0     H99029  10.041   6.115   1.800 -1.0692  1.1894 -1.3826
  734MOL0     H99030  10.121   6.191   1.656  0.0218  1.9527  0.4782
  734MOL0     H99031  10.232   6.177   1.942 -0.4820 -0.0682 -0.1217
  734MOL0     H99032  10.318   6.221   1.793 -0.0908 -6.3130  0.0195
  734MOL0     H99033  10.156   6.395   1.759  1.4076 -1.0143  0.2091
  734MOL0     H99034  10.051   6.330   1.894  0.1318 -0.2955  0.3281
  734MOL0     H99035  10.215   6.400   2.059  1.5141 -0.4126 -0.5919
  734MOL0     H99036  10.319   6.470   1.934 -0.3383 -0.1225  1.0549
  734MOL0     H99037  10.179   6.636   2.068  1.5234  1.9934 -1.4697
  734MOL0     H99038  10.037   6.556   1.990 -0.2192  1.4201 -0.2633
  734MOL0     H99039  10.132   6.640   1.769  0.5758 -1.3093  0.5531
  734MOL0     H99040  10.122   6.776   1.886 -1.8343 -0.7976  0.1413
  734MOL0     H99041  10.350   6.635   1.639 -0.3362 -0.6971  0.7365
  734MOL0     H99042  10.703   6.635   1.747  0.1280 -0.6632  0.0963
  734MOL0     H99043  10.613   6.637   1.600 -0.3327 -0.5376  0.9055
  734MOL0     H99044  10.755   6.793   1.543 -1.8487  0.1681 -1.5246
  734MOL0     H99045  10.611   6.887   1.580 -1.6723 -2.4509 -0.8288
  734MOL0     H99046  10.846   6.845   1.781  0.1753 -0.2834  0.6205
  734MOL0     H99047  10.705   6.967   1.785  1.5671  1.0531  0.2515
  734MOL0     H99048  10.806   7.081   1.595 -1.5370 -1.4300 -0.0686
  734MOL0     H99049  10.923   6.961   1.563 -0.3276  1.0665 -2.3852
  734MOL0     H99050  11.073   6.821   1.671  0.4393 -0.4569 -0.6243
  734MOL0     H99051  11.270   6.726   1.784  1.1497  1.1403 -2.2039
  734MOL0     H99052  11.550   6.690   2.218 -0.7553  1.6457  1.6185
  734MOL0     H99053  11.776   6.625   2.298  1.7161  0.5484  1.2763
  734MOL0     H99054  11.964   6.718   2.448 -1.1607  1.4124 -2.1900
  734MOL0     H99055  11.963   6.567   2.350 -2.8003  0.7138  0.2584
  734MOL0     H99056  12.227   6.578   2.337  3.7166  2.4744 -0.2452
  734MOL0     H99057  12.213   6.733   2.419 -1.5769  1.1934 -2.1098
  734MOL0     H99058  12.097   6.465   2.541 -3.1185  3.1650  1.6309
  734MOL0     H99059  12.260   6.501   2.567  0.2948  0.4723  1.1561
  734MOL0     H99060  12.086   6.738   2.653  1.9053  1.3157  2.6528
  734MOL0     H99061  12.234   6.654   2.716 -0.1897 -1.9950  1.0496
  734MOL0     H99062  12.117   6.480   2.802  0.9847 -0.4985 -0.7414
  734MOL0     H99063  11.955   6.536   2.759 -1.9849  2.2027  1.8342
  734MOL0     H99064  12.124   6.707   2.950  0.3736 -1.2165  0.8785
  734MOL0     H99065  11.953   6.727   2.909  0.9809  1.2676  0.6660
  734MOL0     H99066  12.046   6.466   3.022  2.7363  1.6258  2.9777
  734MOL0     H99067  11.880   6.527   3.017  1.3032 -2.2940 -1.1944
  734MOL0     H99068  11.975   6.710   3.170 -0.2042 -0.8974 -1.3790
  734MOL0     H99069  11.929   6.557   3.242  0.0245  2.6947  2.0284
  734MOL0     H99070  11.947   6.960   2.101  2.4747 -2.9176 -1.1350
  734MOL0     H99071  11.728   7.033   2.027 -1.0465  0.3782  1.0910
  734MOL0     H99072  11.288   7.068   2.040 -1.1412  2.5254 -1.8150
  734MOL0     H99073  11.088   7.168   1.938  0.5604  2.1839 -4.3795
  734MOL0     H99074  10.429   5.908   1.375  0.1318  0.0831  2.0123
  734MOL0     H99075  10.643   5.950   1.261  0.5875  1.1915 -0.8133
  734MOL0     H99076  11.058   6.217   1.354  0.1891 -1.4350 -0.2973
  734MOL0     H99077  11.290   6.233   1.270  0.2815 -1.4532 -1.1886
  734MOL0     H99078  11.518   6.372   0.923 -0.1932 -1.2063 -1.9490
  734MOL0     H99079  11.359   6.432   0.879  2.1451  2.2876  0.2214
  734MOL0     H99080  11.284   6.203   0.881  0.2071  1.0263  1.7645
  734MOL0     H99081  11.440   6.136   0.928 -3.0962 -1.8368  0.0785
  734MOL0     H99082  11.542   6.205   0.709  0.9765 -0.3995  0.4252
  734MOL0     H99083  11.397   6.298   0.678  0.4204 -0.0088 -0.9679
  734MOL0     H99084  11.444   6.064   0.570  1.5079  1.7074  1.0157
  734MOL0     H99085  11.390   5.989   0.722 -0.5597 -0.8578 -1.1230
  734MOL0     H99086  11.032   6.104   0.534  0.4933  2.4168 -1.7192
  734MOL0     H99087  11.146   6.432   0.919 -0.9577 -2.7553 -1.5995
  734MOL0     H99088  10.862   6.296   0.893  1.0745 -1.5249  1.8638
  734MOL0     H99089  10.804   6.438   0.984  0.7294  1.4469  1.7267
  734MOL0     H99090  10.927   6.457   0.863 -3.0682 -0.8662 -1.0257
  735MOL0     O99091   9.730   3.139   6.299 -0.1175 -0.3299 -0.0683
  735MOL0     C99092   9.683   3.032   6.258 -0.4718 -0.4668  0.5562
  735MOL0     O99093   9.755   2.927   6.212 -0.0057 -0.5786 -1.1280
  735MOL0     C99094   9.892   2.932   6.239 -0.5920  0.1677 -0.3866
  735MOL0     C99095   9.934   2.852   6.350 -0.0839 -0.6913 -1.0056
  735MOL0     C99096  10.072   2.831   6.376 -0.4342 -0.5227  0.1233
  735MOL0     C99097  10.166   2.900   6.301 -0.5196 -0.1906 -0.3130
  735MOL0     O99098  10.299   2.884   6.341 -0.4944 -0.0735  0.2061
  735MOL0     C99099  10.398   2.900   6.238  0.0296  0.6381 -1.2728
  735MOL0     C99100  10.538   2.891   6.305 -0.3786  0.1816  0.1695
  735MOL0     C99101  10.554   2.999   6.408 -0.9631 -0.0051  0.0975
  735MOL0     C99102  10.695   3.024   6.445  0.1850 -0.1340 -0.5985
  735MOL0     C99103  10.712   3.161   6.511 -0.2275  0.0003  0.3060
  735MOL0     C99104  10.854   3.194   6.572  0.6409 -0.7774 -0.0611
  735MOL0     C99105  10.982   3.145   6.501 -0.0562 -0.3658 -0.1018
  735MOL0     C99106  11.107   3.204   6.567  0.7088 -0.2786  0.1155
  735MOL0     N99107  11.233   3.123   6.542 -0.1921  1.1437 -0.2669
  735MOL0     C99108  11.257   2.987   6.575 -0.1478  1.3440 -0.2302
  735MOL0     C99109  11.396   2.977   6.586  0.1899  0.0281 -0.0171
  735MOL0     C99110  11.464   2.844   6.622  0.1274 -0.2168  0.1795
  735MOL0     C99111  11.535   2.839   6.760  0.6467 -1.0093 -0.0513
  735MOL0     C99112  11.648   2.939   6.792  0.0052 -0.4361 -0.3093
  735MOL0     C99113  11.759   2.933   6.687 -0.8390 -0.3804  0.3625
  735MOL0     O99114  11.858   3.033   6.708  0.5907  0.3694 -0.2299
  735MOL0     C99115  11.973   3.029   6.634 -0.2457 -0.2660 -0.2034
  735MOL0     C99116  11.997   2.973   6.503  0.1123 -0.1639  0.4563
  735MOL0     C99117  12.109   2.991   6.430 -0.3256 -0.1151  0.3175
  735MOL0     C99118  12.225   3.057   6.482 -0.8584 -0.0722  0.9717
  735MOL0     C99119  12.356   3.075   6.407  0.1213 -0.7713  0.7473
  735MOL0     O99120  12.463   3.111   6.489 -0.1422  0.3229  0.7079
  735MOL0     C99121  12.577   3.113   6.422 -0.3989 -0.0420 -0.2915
  735MOL0     C99122  12.621   3.238   6.373  0.2060 -0.7489 -0.0624
  735MOL0     C99123  12.753   3.253   6.334 -0.4801  0.2725 -0.0108
  735MOL0     C99124  12.843   3.147   6.334  0.3822 -0.1349 -0.6878
  735MOL0     O99125  12.974   3.152   6.305  0.0017  0.0246 -0.4373
  735MOL0     C99126  13.063   3.256   6.349 -0.4924 -0.7303  0.6752
  735MOL0     C99127  13.214   3.210   6.336  0.2744 -0.2149 -0.6203
  735MOL0     C99128  13.306   3.327   6.368  0.2465 -0.2675 -0.4434
  735MOL0     C99129  13.457   3.300   6.339  0.2334 -0.1076  0.6976
  735MOL0     C99130  13.560   3.382   6.409 -0.0477 -0.5991  0.0828
  735MOL0     C99131  13.702   3.343   6.357 -0.9178 -0.7447 -0.0500
  735MOL0     C99132  13.817   3.411   6.435  0.2125  0.1763  0.7212
  735MOL0     C99133  13.952   3.365   6.379  0.6573  0.9558 -0.3662
  735MOL0    Cl99134  14.067   3.480   6.449  0.3841  0.0034 -0.1171
  735MOL0     C99135  12.798   3.025   6.382 -0.0236 -0.4601 -0.2756
  735MOL0     C99136  12.667   3.008   6.423 -0.2594 -0.1849  0.0637
  735MOL0     O99137  12.358   3.048   6.285 -0.2022 -0.5968  0.0221
  735MOL0     C99138  12.212   3.099   6.618 -0.6007 -1.1723 -0.4498
  735MOL0     C99139  12.085   3.090   6.684 -0.2787 -0.4915  0.0065
  735MOL0     N99140  11.453   3.095   6.543 -0.5378 -0.5501  0.4485
  735MOL0     N99141  11.352   3.175   6.510 -0.5180 -0.0384 -0.5613
  735MOL0     C99142  10.125   2.988   6.198  0.2443  0.4482 -0.3920
  735MOL0     C99143   9.992   2.994   6.164  0.1412  0.7856 -0.3988
  735MOL0     C99144   9.532   3.024   6.254  0.0405  0.9918  0.1707
  735MOL0     C99145   9.453   3.136   6.278  0.1933  0.3482 -1.1645
  735MOL0     C99146   9.315   3.138   6.279  0.3732 -0.5434  0.0335
  735MOL0     C99147   9.246   3.015   6.275 -0.3825 -0.4504 -1.0316
  735MOL0     O99148   9.110   2.995   6.279  0.2017  0.2752 -0.3461
  735MOL0     C99149   9.029   3.114   6.262  0.0345 -0.1899 -0.1193
  735MOL0     C99150   8.982   3.123   6.113 -0.7956 -0.2811  0.7887
  735MOL0     C99151   8.947   2.985   6.058  0.0298 -0.7541  0.2882
  735MOL0     C99152   8.882   3.002   5.916 -0.8659  0.7995 -0.3455
  735MOL0     C99153   8.772   3.102   5.909  0.4803 -0.1708 -1.0095
  735MOL0     C99154   8.670   3.177   5.920  0.2231 -0.0255  0.9987
  735MOL0     C99155   9.321   2.903   6.271  0.3718  0.5752  0.5580
  735MOL0     C99156   9.461   2.904   6.252  0.1257  0.2824  0.0731
  735MOL0     C99157   9.525   2.762   6.253  0.2429 -0.1687  0.4639
  735MOL0     H99158   9.857   2.790   6.395  1.2421 -1.0758  0.8243
  735MOL0     H99159  10.103   2.754   6.445  1.3670 -0.6181 -0.7499
  735MOL0     H99160  10.394   2.825   6.158 -2.7485 -1.2605  0.4629
  735MOL0     H99161  10.390   2.997   6.188 -0.3256  0.6359 -1.2252
  735MOL0     H99162  10.615   2.893   6.228  0.6378  1.0198  1.1717
  735MOL0     H99163  10.548   2.796   6.359 -2.8185 -2.3181 -3.2978
  735MOL0     H99164  10.497   2.968   6.496 -1.2783 -0.2058 -0.1762
  735MOL0     H99165  10.505   3.088   6.368 -2.2471  1.3107  4.0900
  735MOL0     H99166  10.732   2.941   6.506  1.1262 -0.0668 -1.0505
  735MOL0     H99167  10.762   3.010   6.359  0.3808 -1.8358 -0.1962
  735MOL0     H99168  10.705   3.229   6.426 -0.5746  1.1402  1.2268
  735MOL0     H99169  10.637   3.180   6.588  1.6819 -0.2341  2.3320
  735MOL0     H99170  10.853   3.299   6.601 -4.2646 -0.2920 -1.0996
  735MOL0     H99171  10.845   3.137   6.665 -3.6552 -0.4972 -0.0799
  735MOL0     H99172  10.985   3.170   6.395  1.9468 -0.0068  0.0002
  735MOL0     H99173  10.995   3.037   6.509  1.0697 -0.2768 -0.5575
  735MOL0     H99174  11.131   3.305   6.534  0.0122 -0.1526 -0.0195
  735MOL0     H99175  11.086   3.212   6.675  0.6758  1.9414 -0.0053
  735MOL0     H99176  11.180   2.916   6.603  1.5522  0.3786  2.3365
  735MOL0     H99177  11.398   2.758   6.624  1.2009 -1.0581  2.5266
  735MOL0     H99178  11.544   2.821   6.551  1.1984 -0.3001  1.3737
  735MOL0     H99179  11.461   2.846   6.840  1.1929  2.2791  0.2893
  735MOL0     H99180  11.577   2.739   6.773  1.8736 -0.2582  2.6953
  735MOL0     H99181  11.686   2.910   6.890 -3.1959  0.1334  1.2125
  735MOL0     H99182  11.608   3.039   6.807 -0.5312 -1.0622  3.2533
  735MOL0     H99183  11.717   2.935   6.586  0.4194 -2.7458 -0.2997
  735MOL0     H99184  11.804   2.833   6.695 -1.6620 -0.9379 -1.5440
  735MOL0     H99185  11.918   2.926   6.445  2.1957 -2.5142 -0.6356
  735MOL0     H99186  12.105   2.973   6.323 -0.5202 -1.1658  0.4988
  735MOL0     H99187  12.564   3.331   6.369  0.7368 -0.4409 -2.8489
  735MOL0     H99188  12.782   3.350   6.295 -2.4049  0.9695  0.1838
  735MOL0     H99189  13.045   3.343   6.285  1.0274 -1.1736 -0.4011
  735MOL0     H99190  13.035   3.286   6.451  1.5508 -0.7199  1.2894
  735MOL0     H99191  13.234   3.122   6.397  0.0841  1.4778  2.0670
  735MOL0     H99192  13.233   3.184   6.232 -0.3678  1.7925 -1.2946
  735MOL0     H99193  13.266   3.413   6.313 -2.3894 -0.0112  1.7168
  735MOL0     H99194  13.302   3.348   6.475 -2.4687 -1.1739 -0.3092
  735MOL0     H99195  13.481   3.311   6.233 -3.3027  0.7255 -0.1213
  735MOL0     H99196  13.466   3.196   6.372 -0.5655 -0.3034  0.3247
  735MOL0     H99197  13.558   3.372   6.518  1.0623 -2.1058  0.0001
  735MOL0     H99198  13.541   3.486   6.379 -0.7596 -0.2745  1.5882
  735MOL0     H99199  13.698   3.234   6.358 -0.7234 -0.8912 -3.6117
  735MOL0     H99200  13.709   3.381   6.255 -0.4112  1.4607  0.7508
  735MOL0     H99201  13.798   3.393   6.541 -4.0382 -0.4582  0.0372
  735MOL0     H99202  13.811   3.520   6.425  0.0667  0.0215 -1.3979
  735MOL0     H99203  13.979   3.265   6.415 -0.6011  1.1082  1.0799
  735MOL0     H99204  13.946   3.379   6.271 -0.8644  2.2924 -0.1469
  735MOL0     H99205  12.866   2.941   6.394 -1.7114 -2.3708 -2.9293
  735MOL0     H99206  12.629   2.912   6.456 -0.7432  0.5292  1.6876
  735MOL0     H99207  12.291   3.148   6.674 -1.0495 -0.9258 -0.0189
  735MOL0     H99208  12.076   3.134   6.783  1.0735  0.4636 -0.2648
  735MOL0     H99209  10.195   3.038   6.132 -0.6566  1.9994 -0.2156
  735MOL0     H99210   9.964   3.053   6.078  1.1480  0.5421 -0.9142
  735MOL0     H99211   9.506   3.230   6.278 -0.9303  1.0506  1.0786
  735MOL0     H99212   9.262   3.232   6.282 -1.0868 -1.3670  1.4064
  735MOL0     H99213   9.073   3.213   6.280 -1.3241  0.4996 -0.3979
  735MOL0     H99214   8.939   3.101   6.323  0.5989  0.0233  0.7807
  735MOL0     H99215   9.057   3.164   6.045 -2.4901  0.2226 -0.8428
  735MOL0     H99216   8.897   3.191   6.118 -0.0370  0.6261  4.2989
  735MOL0     H99217   8.873   2.940   6.125  0.3774  0.2145  1.3394
  735MOL0     H99218   9.037   2.924   6.041  0.9202  0.8731 -1.2230
  735MOL0     H99219   8.943   3.040   5.834 -2.8723 -0.6558 -2.6272
  735MOL0     H99220   8.854   2.903   5.880  1.7484 -0.1179 -0.0363
  735MOL0     H99221   8.579   3.234   5.918  0.7837  0.9023  1.3136
  735MOL0     H99222   9.281   2.802   6.273  3.3018 -0.7074  2.6231
  735MOL0     H99223   9.453   2.686   6.285  0.9234 -1.7065 -1.4041
  735MOL0     H99224   9.563   2.724   6.157 -0.9190 -2.1878  0.7340
  735MOL0     H99225   9.601   2.773   6.330 -0.1050 -0.8523  0.9124
  736MOL0     O99226   1.361   4.118   1.090  0.1182 -0.1329  0.3960
  736MOL0     C99227   1.306   4.230   1.080 -0.4816  0.6359 -0.7817
  736MOL0     O99228   1.205   4.265   1.165 -0.1291 -0.4725  0.0711
  736MOL0     C99229   1.165   4.170   1.253  0.1520  0.8925 -0.3270
  736MOL0     C99230   1.196   4.188   1.393  0.7430 -0.4285  0.2547
  736MOL0     C99231   1.166   4.084   1.486  0.2913  0.5585 -0.2538
  736MOL0     C99232   1.096   3.969   1.443  0.3066  0.1765 -0.6041
  736MOL0     O99233   1.068   3.866   1.530 -0.0125  0.5105 -0.6989
  736MOL0     C99234   0.945   3.804   1.497  0.8629 -0.3800 -0.1696
  736MOL0     C99235   0.912   3.697   1.611  0.3023  0.5360  0.2519
  736MOL0     C99236   0.792   3.605   1.584  0.3262  0.3559  0.5605
  736MOL0     C99237   0.660   3.696   1.594 -0.3730  0.6122 -0.0165
  736MOL0     C99238   0.538   3.600   1.577 -0.1522 -0.6664 -0.2973
  736MOL0     C99239   0.503   3.542   1.440 -0.2154  0.4795  0.3897
  736MOL0     C99240   0.396   3.431   1.448 -0.0798  0.4775 -0.4624
  736MOL0     C99241   0.456   3.291   1.448  0.2744 -0.6355 -0.2521
  736MOL0     N99242   0.587   3.283   1.514  0.5200  0.3280  0.3432
  736MOL0     C99243   0.704   3.274   1.450 -0.3923  0.2327  0.2545
  736MOL0     C99244   0.794   3.236   1.543 -0.2737 -0.6602 -0.0561
  736MOL0     C99245   0.936   3.213   1.528  0.4672  0.5530  0.4475
  736MOL0     C99246   1.015   3.298   1.630  0.3909 -0.0257  0.0864
  736MOL0     C99247   1.136   3.355   1.553 -0.4363 -0.4270  0.4429
  736MOL0     C99248   1.253   3.413   1.637  0.0651  0.8536 -0.2983
  736MOL0     O99249   1.359   3.447   1.545 -0.1733 -0.1078 -0.4912
  736MOL0     C99250   1.489   3.479   1.593  0.1076  0.2283 -0.0330
  736MOL0     C99251   1.595   3.481   1.506  0.0712 -0.8469  0.3424
  736MOL0     C99252   1.725   3.523   1.544 -0.1832  0.5860 -0.1506
  736MOL0     C99253   1.743   3.565   1.673  0.4643  0.3560 -0.8563
  736MOL0     C99254   1.874   3.615   1.721 -0.5720  1.1046  0.6909
  736MOL0     O99255   1.973   3.559   1.639 -0.5885 -0.3393 -0.2053
  736MOL0     C99256   2.107   3.579   1.672 -0.6790  0.4766  0.3402
  736MOL0     C99257   2.199   3.486   1.613 -0.0128 -0.8159  0.0858
  736MOL0     C99258   2.333   3.481   1.637 -0.6578 -0.3902  0.1956
  736MOL0     C99259   2.395   3.585   1.710 -0.5293  0.2118 -0.7042
  736MOL0     O99260   2.533   3.578   1.720  0.4376 -0.0467 -0.6106
  736MOL0     C99261   2.597   3.672   1.802 -0.3251 -0.4083  0.8025
  736MOL0     C99262   2.743   3.649   1.780 -0.2117 -0.3648 -0.5664
  736MOL0     C99263   2.803   3.572   1.896 -0.5201  0.0115  0.3484
  736MOL0     C99264   2.952   3.590   1.898 -0.0965 -0.9179 -0.0746
  736MOL0     C99265   2.999   3.492   2.005  0.4133  0.9161 -0.1482
  736MOL0     C99266   3.148   3.464   2.012  0.5826 -0.2801  0.4006
  736MOL0     C99267   3.239   3.591   2.005  0.4673 -0.1562  0.1829
  736MOL0     C99268   3.385   3.561   1.994  0.2766  0.0669  0.0515
  736MOL0    Cl99269   3.461   3.486   2.135 -0.0752 -0.0347  0.4955
  736MOL0     C99270   2.311   3.684   1.762 -0.4951  0.1245  0.1901
  736MOL0     C99271   2.164   3.683   1.745 -0.0184  0.5864  0.1675
  736MOL0     O99272   1.888   3.697   1.807  0.1756  0.7238  0.2967
  736MOL0     C99273   1.638   3.554   1.766  0.5434  0.4804  0.3932
  736MOL0     C99274   1.512   3.506   1.721 -0.0166 -0.2811 -0.2287
  736MOL0     N99275   0.726   3.202   1.657  0.7108  0.6131 -0.0755
  736MOL0     N99276   0.602   3.232   1.637  0.7041  0.2688  0.2464
  736MOL0     C99277   1.064   3.958   1.303 -0.9924 -0.8051 -0.5954
  736MOL0     C99278   1.102   4.054   1.212 -0.5076  0.2949 -0.3229
  736MOL0     C99279   1.347   4.323   0.970  0.0416  0.4964 -0.2410
  736MOL0     C99280   1.262   4.415   0.927 -0.0149  0.7113 -0.2196
  736MOL0     C99281   1.306   4.513   0.840  0.4573  0.4444 -0.4902
  736MOL0     C99282   1.429   4.511   0.784 -0.2786  0.2933 -0.3932
  736MOL0     O99283   1.473   4.592   0.681  0.6202 -0.2053 -0.2837
  736MOL0     C99284   1.386   4.697   0.635  0.0275  0.2334  0.5899
  736MOL0     C99285   1.439   4.771   0.522  0.9921  0.2602 -0.9564
  736MOL0     C99286   1.353   4.869   0.454  0.7512  0.1030  0.4686
  736MOL0     C99287   1.328   4.985   0.544  0.4810  0.2615 -0.3624
  736MOL0     C99288   1.298   5.096   0.450 -1.2428  0.3223 -0.0495
  736MOL0     C99289   1.284   5.172   0.360 -0.1336 -0.2995 -0.0148
  736MOL0     C99290   1.518   4.413   0.827 -0.0494  0.2822  0.8118
  736MOL0     C99291   1.487   4.313   0.917  0.2502 -0.8975 -0.2237
  736MOL0     C99292   1.597   4.228   0.961 -0.8738  0.1657  0.2424
  736MOL0     H99293   1.252   4.275   1.427  0.8563 -0.5205  0.3046
  736MOL0     H99294   1.207   4.103   1.585  2.0144  0.6292 -0.9330
  736MOL0     H99295   0.859   3.871   1.498  1.1049 -0.0663  0.5790
  736MOL0     H99296   0.945   3.750   1.402  1.2843 -0.0311 -0.3700
  736MOL0     H99297   0.902   3.741   1.710  0.3842 -1.7362  1.3388
  736MOL0     H99298   0.984   3.614   1.611 -0.9964 -0.6909 -1.5742
  736MOL0     H99299   0.790   3.527   1.661  0.1628  1.0424  1.2683
  736MOL0     H99300   0.818   3.567   1.485  3.3529 -1.1211  1.7910
  736MOL0     H99301   0.648   3.743   1.692 -1.0860  0.1184  0.1385
  736MOL0     H99302   0.665   3.767   1.511 -0.6675 -0.1099 -0.6660
  736MOL0     H99303   0.550   3.515   1.644 -1.4322  0.4053  1.3807
  736MOL0     H99304   0.453   3.656   1.619 -0.0501  0.2363 -1.2491
  736MOL0     H99305   0.466   3.618   1.371 -0.7034 -1.1765 -1.2571
  736MOL0     H99306   0.596   3.502   1.400 -0.5824  0.2165 -0.2085
  736MOL0     H99307   0.319   3.431   1.370  1.1049 -0.7026 -1.6754
  736MOL0     H99308   0.356   3.458   1.546  1.6385  2.3802 -0.2269
  736MOL0     H99309   0.396   3.225   1.511  1.3573  0.8101  2.4680
  736MOL0     H99310   0.476   3.258   1.345  2.1919  0.1139 -0.1591
  736MOL0     H99311   0.729   3.303   1.349 -0.8428 -4.3692 -1.4410
  736MOL0     H99312   0.956   3.106   1.529  0.3506  0.4563 -1.8866
  736MOL0     H99313   0.963   3.231   1.423 -4.5768 -2.1689 -1.6757
  736MOL0     H99314   0.964   3.390   1.660  0.4771 -0.2793  1.0242
  736MOL0     H99315   1.045   3.241   1.718 -0.8658 -0.2741  0.3730
  736MOL0     H99316   1.107   3.433   1.482  4.1693 -0.8063 -2.2462
  736MOL0     H99317   1.176   3.285   1.479 -0.2074  1.2702 -1.1078
  736MOL0     H99318   1.281   3.325   1.697  1.5321  0.4197 -1.5347
  736MOL0     H99319   1.225   3.494   1.705 -0.1448 -0.1923  0.9083
  736MOL0     H99320   1.586   3.440   1.406  4.5575  0.2653 -0.7553
  736MOL0     H99321   1.801   3.519   1.467  1.0703 -1.6283  1.1272
  736MOL0     H99322   2.154   3.427   1.534 -1.7594 -0.5437  0.8299
  736MOL0     H99323   2.397   3.410   1.586 -0.7048 -0.5592  0.3704
  736MOL0     H99324   2.567   3.775   1.784  0.7323 -0.2950 -0.4741
  736MOL0     H99325   2.579   3.653   1.909 -4.0408 -0.5884  0.2768
  736MOL0     H99326   2.759   3.593   1.687  2.2054 -2.0359  0.7316
  736MOL0     H99327   2.789   3.748   1.775 -0.2914 -0.1947  1.4295
  736MOL0     H99328   2.759   3.601   1.992 -1.0964 -1.6313  0.6198
  736MOL0     H99329   2.780   3.467   1.876  1.0899 -0.6284  1.6856
  736MOL0     H99330   2.975   3.694   1.923  2.6211 -1.3632 -0.4779
  736MOL0     H99331   2.986   3.573   1.796 -0.6540  1.6788 -0.7613
  736MOL0     H99332   2.952   3.393   1.999 -2.9695  2.2688  1.1769
  736MOL0     H99333   2.969   3.542   2.098 -3.6082  0.2745 -0.8789
  736MOL0     H99334   3.171   3.413   2.106 -3.5961  1.7644  2.8448
  736MOL0     H99335   3.168   3.398   1.927 -1.1281  1.6313 -1.5955
  736MOL0     H99336   3.226   3.658   2.090 -2.5631  0.0560 -0.3098
  736MOL0     H99337   3.210   3.647   1.916  0.6502  0.4331  0.4880
  736MOL0     H99338   3.401   3.488   1.914 -2.3415 -0.8913  0.3036
  736MOL0     H99339   3.436   3.654   1.966 -2.2129  1.1998 -1.0224
  736MOL0     H99340   2.347   3.766   1.823 -1.0288  3.0730 -3.1509
  736MOL0     H99341   2.100   3.769   1.763  0.2052  1.1171 -1.4002
  736MOL0     H99342   1.657   3.593   1.865 -2.9243 -0.2493  1.4939
  736MOL0     H99343   1.424   3.510   1.784  0.7652  2.5695  0.8165
  736MOL0     H99344   0.998   3.876   1.274 -1.7779 -0.1796 -0.6249
  736MOL0     H99345   1.078   4.033   1.108 -1.1812 -1.2759  0.1177
  736MOL0     H99346   1.157   4.410   0.956 -0.4644  2.0333 -1.4903
  736MOL0     H99347   1.234   4.578   0.792  2.1164  3.1652  0.5342
  736MOL0     H99348   1.356   4.759   0.720  0.6362  0.1778  0.8521
  736MOL0     H99349   1.293   4.652   0.598  0.6434 -1.0998  0.6026
  736MOL0     H99350   1.466   4.703   0.441  0.6907  1.8697 -2.4592
  736MOL0     H99351   1.528   4.818   0.567 -1.1474  2.1987  1.5739
  736MOL0     H99352   1.258   4.832   0.414  0.2354  1.4289  0.4061
  736MOL0     H99353   1.412   4.906   0.370 -1.5391  0.3859 -1.1330
  736MOL0     H99354   1.243   4.964   0.611  1.4236 -1.0580  0.4482
  736MOL0     H99355   1.410   5.018   0.609 -0.4297  1.8075  0.0615
  736MOL0     H99356   1.259   5.246   0.287 -0.6496 -0.2286  0.2264
  736MOL0     H99357   1.610   4.395   0.773 -0.6760 -0.9329  0.1162
  736MOL0     H99358   1.568   4.123   0.948  1.5405 -0.3043 -2.1353
  736MOL0     H99359   1.687   4.253   0.904 -0.8823 -0.4883 -0.0665
  736MOL0     H99360   1.634   4.240   1.063  1.1169  0.0063 -0.4155
  737MOL0     O99361   0.671   6.299   7.536 -0.3228 -0.3297  0.1843
  737MOL0     C99362   0.656   6.197   7.471  0.7897 -0.2330 -0.0116
  737MOL0     O99363   0.739   6.094   7.468  0.2989  0.0870  0.7048
  737MOL0     C99364   0.849   6.094   7.546 -1.0321  1.0513  0.6955
  737MOL0     C99365   0.960   6.180   7.516  0.3379 -0.3126 -0.0045
  737MOL0     C99366   1.077   6.178   7.598  0.0794  0.1637 -0.0835
  737MOL0     C99367   1.096   6.083   7.700 -0.2304  0.3181 -0.0902
  737MOL0     O99368   1.206   6.074   7.775  0.0863 -0.1735 -0.2349
  737MOL0     C99369   1.277   6.195   7.811 -0.3243  0.2181  0.0872
  737MOL0     C99370   1.387   6.149   7.906  0.2147 -0.3202 -0.4123
  737MOL0     C99371   1.325   6.077   8.028 -0.4805 -0.4269 -0.2607
  737MOL0     C99372   1.423   6.092   8.151  0.1248  0.6555  0.0361
  737MOL0     C99373   1.406   5.971   8.236 -0.2256 -0.3654 -0.5082
  737MOL0     C99374   1.502   5.970   8.362 -0.1901  0.4703  0.7063
  737MOL0     C99375   1.654   5.997   8.327  0.3465  0.1508  0.1260
  737MOL0     C99376   1.739   5.994   8.453  0.1226 -0.0135 -0.6756
  737MOL0     N99377   1.797   5.859   8.480  0.3391 -0.1322  0.5362
  737MOL0     C99378   1.886   5.795   8.395 -0.0117 -0.7107  0.0821
  737MOL0     C99379   1.904   5.674   8.454 -0.6691 -0.4601  0.3102
  737MOL0     C99380   1.981   5.559   8.393 -0.2519 -0.4001 -0.1674
  737MOL0     C99381   2.129   5.550   8.450  0.2604 -0.2401  0.6280
  737MOL0     C99382   2.202   5.670   8.401  0.2452  0.0288  0.1725
  737MOL0     C99383   2.349   5.679   8.450  0.2062 -0.5482  0.4177
  737MOL0     O99384   2.435   5.711   8.345 -0.3552 -0.1339 -0.2254
  737MOL0     C99385   2.562   5.678   8.354  0.7462 -0.5418 -0.0659
  737MOL0     C99386   2.620   5.656   8.478  0.3169  0.4908  0.1090
  737MOL0     C99387   2.756   5.612   8.485 -0.1000  1.4829  0.4872
  737MOL0     C99388   2.836   5.618   8.374  0.2317  0.5545 -0.3277
  737MOL0     C99389   2.984   5.608   8.376 -0.2365  0.2500  0.6979
  737MOL0     O99390   3.055   5.601   8.263  0.2693  0.1314  0.0113
  737MOL0     C99391   3.193   5.592   8.270 -0.1408 -0.1760  1.1287
  737MOL0     C99392   3.279   5.640   8.375  0.0369  0.2393  0.2560
  737MOL0     C99393   3.410   5.600   8.361  0.3993 -0.7417 -1.0161
  737MOL0     C99394   3.459   5.510   8.269  0.5234  0.2845 -0.3614
  737MOL0     O99395   3.595   5.469   8.252  0.2323 -0.6260 -0.2590
  737MOL0     C99396   3.694   5.555   8.324  0.0856  0.5410  0.2877
  737MOL0     C99397   3.839   5.508   8.298  0.7608 -0.5228 -0.3094
  737MOL0     C99398   3.881   5.531   8.158  0.4167 -0.0171  0.9603
  737MOL0     C99399   4.023   5.467   8.149  0.2614 -0.8210 -0.0001
  737MOL0     C99400   4.098   5.491   8.010  0.2972  0.0501 -0.4964
  737MOL0     C99401   4.074   5.627   7.952 -0.0461  0.1319  0.2226
  737MOL0     C99402   4.112   5.738   8.053 -0.0052  0.1920 -0.4659
  737MOL0     C99403   4.056   5.870   8.009 -0.4074 -0.2265 -0.5169
  737MOL0    Cl99404   4.114   5.911   7.854 -0.2433 -0.0380  0.0921
  737MOL0     C99405   3.383   5.467   8.173  0.5250 -0.6962 -1.2542
  737MOL0     C99406   3.249   5.509   8.165 -0.5216 -0.2879  0.6500
  737MOL0     O99407   3.026   5.606   8.489  0.2112  0.4721 -0.4950
  737MOL0     C99408   2.777   5.650   8.248 -0.0314 -0.0907 -0.4956
  737MOL0     C99409   2.643   5.682   8.237 -0.3492 -0.2166 -0.1816
  737MOL0     N99410   1.843   5.672   8.576 -0.7732  0.1808 -0.5190
  737MOL0     N99411   1.769   5.772   8.583 -0.4606  0.5761 -0.3731
  737MOL0     C99412   0.986   5.994   7.721 -0.1095  0.0398 -1.3453
  737MOL0     C99413   0.873   5.994   7.646 -0.3689 -0.9764 -0.1000
  737MOL0     C99414   0.545   6.201   7.374  0.3939  0.4682 -0.1470
  737MOL0     C99415   0.512   6.325   7.309  0.3461 -0.0451 -0.7122
  737MOL0     C99416   0.405   6.329   7.215  0.1605 -0.0426  0.3933
  737MOL0     C99417   0.340   6.207   7.186  0.5568 -0.5938  0.2633
  737MOL0     O99418   0.229   6.204   7.101  0.4860 -0.5010 -0.0719
  737MOL0     C99419   0.149   6.321   7.074  0.2350  0.1447  0.7360
  737MOL0     C99420   0.007   6.270   7.028  0.0317  0.6353 -0.6350
  737MOL0     C99421   0.025   6.210   6.890  0.2508  0.1959  0.5662
  737MOL0     C99422  -0.121   6.168   6.839  0.0987 -0.1344  0.1334
  737MOL0     C99423  -0.206   6.287   6.810 -0.0396 -0.2628 -0.5722
  737MOL0     C99424  -0.274   6.386   6.766  0.2880  0.2078 -0.0950
  737MOL0     C99425   0.370   6.089   7.249  0.2110  0.6265 -0.4114
  737MOL0     C99426   0.474   6.084   7.344 -0.0908 -0.2300  0.2863
  737MOL0     C99427   0.488   5.959   7.417  0.9574  0.1629  0.1955
  737MOL0     H99428   0.956   6.252   7.435  1.0809 -1.3089 -0.9480
  737MOL0     H99429   1.149   6.254   7.571 -1.4297  1.2371 -1.3138
  737MOL0     H99430   1.315   6.247   7.722  2.0499 -0.4218  0.6482
  737MOL0     H99431   1.233   6.279   7.865  3.2556  4.0038 -2.2662
  737MOL0     H99432   1.444   6.233   7.948  0.6971 -2.2722  3.2903
  737MOL0     H99433   1.455   6.079   7.857  0.7137 -0.1064 -0.0340
  737MOL0     H99434   1.308   5.971   8.007 -2.5364 -0.5620  1.7113
  737MOL0     H99435   1.229   6.118   8.061 -1.3951 -2.4428 -0.2309
  737MOL0     H99436   1.524   6.089   8.110  0.2948  1.9593  0.3112
  737MOL0     H99437   1.410   6.188   8.203  2.0958 -0.2241  2.3229
  737MOL0     H99438   1.302   5.955   8.266  0.3254 -0.0372  1.7837
  737MOL0     H99439   1.441   5.890   8.172 -0.0941 -1.6355  1.0959
  737MOL0     H99440   1.467   6.036   8.442 -0.4444 -0.5407  1.4512
  737MOL0     H99441   1.494   5.871   8.409 -4.8378  1.3691  2.3510
  737MOL0     H99442   1.654   6.098   8.286  2.6409 -0.6926 -2.1791
  737MOL0     H99443   1.697   5.929   8.253 -1.6146  1.2572 -2.1841
  737MOL0     H99444   1.811   6.076   8.442  0.0425  0.0605 -0.6562
  737MOL0     H99445   1.670   6.015   8.536 -0.2389 -0.6649 -0.7998
  737MOL0     H99446   1.936   5.828   8.305 -1.0972  0.7854 -0.0017
  737MOL0     H99447   1.923   5.468   8.413 -1.3982  0.7612  2.3027
  737MOL0     H99448   1.993   5.567   8.285 -1.3484 -2.1090 -0.4465
  737MOL0     H99449   2.121   5.538   8.558 -1.8170 -0.1598  0.5200
  737MOL0     H99450   2.177   5.461   8.409  1.0205  0.2254  0.4716
  737MOL0     H99451   2.147   5.761   8.426  2.1099  0.8164  1.6885
  737MOL0     H99452   2.214   5.661   8.292 -1.3195  0.2299 -0.0359
  737MOL0     H99453   2.375   5.580   8.490 -0.8203 -1.5117 -1.1802
  737MOL0     H99454   2.342   5.755   8.528 -0.2503 -1.1096  0.9377
  737MOL0     H99455   2.566   5.667   8.572 -1.5962  2.9597 -1.1855
  737MOL0     H99456   2.800   5.572   8.576  3.0588 -0.6783 -1.7841
  737MOL0     H99457   3.241   5.709   8.450 -0.8533  1.2239 -1.0471
  737MOL0     H99458   3.483   5.640   8.431 -1.9223 -1.9319  2.3744
  737MOL0     H99459   3.684   5.659   8.291 -1.6523  0.0597 -0.8238
  737MOL0     H99460   3.668   5.538   8.429 -1.6594 -0.4769 -0.2777
  737MOL0     H99461   3.913   5.556   8.361  0.6588 -0.1508 -0.4672
  737MOL0     H99462   3.841   5.400   8.314 -2.1191 -0.5484  0.3777
  737MOL0     H99463   3.818   5.465   8.097 -0.6237  0.5189  1.4391
  737MOL0     H99464   3.871   5.637   8.134 -2.9875  0.0330  2.0465
  737MOL0     H99465   4.026   5.358   8.160  0.6367 -0.9647 -1.3107
  737MOL0     H99466   4.078   5.509   8.234 -1.6229 -0.0037  0.8761
  737MOL0     H99467   4.079   5.420   7.929 -0.8458  0.4171 -0.5665
  737MOL0     H99468   4.204   5.479   8.031 -0.1690 -3.2923  0.4082
  737MOL0     H99469   4.137   5.629   7.863  1.0595 -1.0333  0.9517
  737MOL0     H99470   3.969   5.637   7.924 -0.9894 -4.6631  1.2122
  737MOL0     H99471   4.221   5.745   8.059  0.1839 -0.9746 -1.9440
  737MOL0     H99472   4.077   5.711   8.153  4.5965  0.3203  1.4190
  737MOL0     H99473   3.946   5.866   8.008 -0.4132  0.0332 -0.8720
  737MOL0     H99474   4.079   5.953   8.076 -0.6390 -0.0229 -0.6878
  737MOL0     H99475   3.418   5.408   8.089  3.2189 -0.3432 -0.4603
  737MOL0     H99476   3.179   5.470   8.091 -1.0796 -1.1193  1.5925
  737MOL0     H99477   2.837   5.657   8.159  0.6464 -0.1587 -0.0518
  737MOL0     H99478   2.596   5.715   8.145 -3.1663 -3.3171 -0.0618
  737MOL0     H99479   1.001   5.922   7.801  0.5990  1.3516 -0.2539
  737MOL0     H99480   0.797   5.923   7.678 -1.2785  0.3265  0.7403
  737MOL0     H99481   0.554   6.423   7.331  0.5101 -0.5284  1.3943
  737MOL0     H99482   0.390   6.415   7.150  0.2114 -0.2912  0.0459
  737MOL0     H99483   0.196   6.383   6.997 -0.9204  0.9365  0.6353
  737MOL0     H99484   0.150   6.383   7.164  2.2210  0.4076  0.5777
  737MOL0     H99485  -0.054   6.361   7.026 -0.1627  0.5383  0.2933
  737MOL0     H99486  -0.024   6.194   7.101  2.4582  1.0085  0.8892
  737MOL0     H99487   0.088   6.121   6.890  3.4138  2.2940  1.0465
  737MOL0     H99488   0.078   6.277   6.822 -1.4928  2.3440  1.2093
  737MOL0     H99489  -0.115   6.102   6.752 -1.4461 -0.5681  0.3249
  737MOL0     H99490  -0.172   6.107   6.916  0.1043  1.2063  1.2351
  737MOL0     H99491  -0.324   6.472   6.726  0.2475  1.0439  1.6412
  737MOL0     H99492   0.320   5.994   7.238  1.0381 -0.0893  1.5656
  737MOL0     H99493   0.485   5.975   7.525 -0.2778  1.5218 -0.0005
  737MOL0     H99494   0.407   5.889   7.395 -0.0079  2.0216 -2.9344
  737MOL0     H99495   0.583   5.913   7.390 -0.0142 -1.5628 -0.4086
  738MOL0     O99496   5.801   5.477   9.830  0.4784 -0.6865  0.0946
  738MOL0     C99497   5.762   5.382   9.760 -0.4742  0.5430  0.2131
  738MOL0     O99498   5.832   5.339   9.645  0.1207  0.7051 -0.7811
  738MOL0     C99499   5.953   5.392   9.600  0.4671 -0.0585  0.3473
  738MOL0     C99500   5.977   5.397   9.458  0.9309  0.1724  0.1079
  738MOL0     C99501   6.102   5.439   9.413 -0.0746  0.0982  0.2029
  738MOL0     C99502   6.200   5.479   9.501  0.1652 -0.3421 -0.3023
  738MOL0     O99503   6.318   5.518   9.446  0.2946 -0.5618 -0.8063
  738MOL0     C99504   6.410   5.600   9.528  0.5992  0.6040  0.2934
  738MOL0     C99505   6.548   5.605   9.452  0.1320 -0.6114 -0.0959
  738MOL0     C99506   6.635   5.724   9.495 -0.3377  0.3259 -0.2675
  738MOL0     C99507   6.747   5.739   9.388  0.3306 -0.0671 -0.4332
  738MOL0     C99508   6.865   5.825   9.448 -0.4729  0.1011  0.7983
  738MOL0     C99509   6.977   5.854   9.338  0.2332  0.2343 -0.7178
  738MOL0     C99510   7.107   5.891   9.404  0.5483 -0.1787  0.6649
  738MOL0     C99511   7.094   6.017   9.489  1.1332 -0.0908 -0.2749
  738MOL0     N99512   7.225   6.079   9.505 -0.3369 -0.3656 -0.8280
  738MOL0     C99513   7.339   5.998   9.507  0.6513 -0.2039  0.5745
  738MOL0     C99514   7.442   6.085   9.495 -0.3822  0.1188 -0.1781
  738MOL0     C99515   7.583   6.047   9.488  0.3727 -0.2290 -0.1788
  738MOL0     C99516   7.628   5.996   9.625  0.0251 -0.1373 -0.0258
  738MOL0     C99517   7.764   5.921   9.633 -0.0290 -0.6710  0.4918
  738MOL0     C99518   7.888   6.004   9.602  0.3166 -0.1713 -0.4083
  738MOL0     O99519   8.004   5.944   9.653  0.2615  0.4356 -0.2132
  738MOL0     C99520   8.126   6.004   9.624  0.0009 -0.4042 -0.0612
  738MOL0     C99521   8.248   5.929   9.618  0.2247  0.0214 -0.7030
  738MOL0     C99522   8.376   5.981   9.586  0.0494  0.0238  0.4947
  738MOL0     C99523   8.387   6.118   9.566 -0.0283 -0.6650  0.0554
  738MOL0     C99524   8.523   6.181   9.540  0.7607 -0.5786  1.6549
  738MOL0     O99525   8.629   6.099   9.525  0.1129 -0.5461 -0.5417
  738MOL0     C99526   8.755   6.138   9.530 -0.1982 -0.0205 -0.0755
  738MOL0     C99527   8.843   6.094   9.437 -0.3069  0.2046  0.2522
  738MOL0     C99528   8.975   6.128   9.433 -0.2715 -0.8606 -0.1189
  738MOL0     C99529   9.031   6.207   9.535  0.8722  0.4116  0.1090
  738MOL0     O99530   9.167   6.214   9.526  0.2956 -0.4728 -0.0064
  738MOL0     C99531   9.238   6.312   9.606  0.0155  0.4438 -0.2787
  738MOL0     C99532   9.298   6.254   9.734  0.5742  0.3179  0.2444
  738MOL0     C99533   9.349   6.104   9.732 -0.1646 -0.2920  0.1930
  738MOL0     C99534   9.444   6.089   9.850 -1.4152  0.6992 -0.9229
  738MOL0     C99535   9.386   6.118   9.988 -0.5255 -0.8564  0.8525
  738MOL0     C99536   9.494   6.094  10.089 -0.6487 -1.0852  0.4411
  738MOL0     C99537   9.440   6.114  10.235  0.0652 -0.2513  0.3824
  738MOL0     C99538   9.513   6.233  10.307  0.7284 -0.7793  0.2592
  738MOL0    Cl99539   9.440   6.396  10.241  0.6910  0.1222 -0.0158
  738MOL0     C99540   8.948   6.240   9.641 -0.4720 -0.6976 -0.0742
  738MOL0     C99541   8.812   6.209   9.640  0.1525 -0.2633  0.1395
  738MOL0     O99542   8.527   6.298   9.529 -0.1837 -0.0690 -0.0464
  738MOL0     C99543   8.268   6.199   9.576 -0.6578 -0.2698 -0.4354
  738MOL0     C99544   8.144   6.143   9.596  0.5737  0.3328 -0.3651
  738MOL0     N99545   7.401   6.211   9.488 -0.6096 -0.7367 -0.0786
  738MOL0     N99546   7.268   6.207   9.478 -0.5171 -0.0866 -0.0005
  738MOL0     C99547   6.173   5.465   9.641 -0.0268 -0.1854  0.0484
  738MOL0     C99548   6.050   5.423   9.689 -0.7913 -0.6008  0.1130
  738MOL0     C99549   5.644   5.291   9.802 -0.3202  0.6174 -0.3070
  738MOL0     C99550   5.600   5.209   9.700 -0.0153  0.1598 -0.6033
  738MOL0     C99551   5.495   5.117   9.724 -0.2785  0.3522 -0.4996
  738MOL0     C99552   5.449   5.094   9.852 -0.1373 -0.0631 -0.3890
  738MOL0     O99553   5.370   4.989   9.901 -0.7717 -0.0008 -0.2096
  738MOL0     C99554   5.317   4.885   9.821  0.5983  0.2535  0.3811
  738MOL0     C99555   5.204   4.823   9.887  0.5256 -0.2182  0.0129
  738MOL0     C99556   5.251   4.719   9.997 -0.7838 -0.7494  0.5843
  738MOL0     C99557   5.149   4.651  10.084  0.4013 -0.2134 -0.8862
  738MOL0     C99558   5.050   4.747  10.139 -1.1151 -0.0209  0.5943
  738MOL0     C99559   4.970   4.826  10.178  0.4089 -0.7979 -1.3778
  738MOL0     C99560   5.502   5.174   9.956  0.7036 -0.1043 -0.1328
  738MOL0     C99561   5.598   5.273   9.930  0.5028  0.5836 -1.0242
  738MOL0     C99562   5.632   5.367  10.044 -0.4539 -0.5364 -0.0028
  738MOL0     H99563   5.902   5.381   9.381  0.8022 -2.0831  0.6344
  738MOL0     H99564   6.127   5.433   9.308  1.2068  2.3115  0.3071
  738MOL0     H99565   6.372   5.702   9.524 -0.8807  0.0188 -2.8330
  738MOL0     H99566   6.420   5.558   9.629  0.1761 -1.6523 -0.5500
  738MOL0     H99567   6.515   5.617   9.348 -1.9422  3.7807  0.8157
  738MOL0     H99568   6.599   5.511   9.474 -2.9871 -1.8136  2.9103
  738MOL0     H99569   6.677   5.711   9.595  1.1459  3.3796 -0.3694
  738MOL0     H99570   6.576   5.817   9.494  0.0209  0.5544 -0.1323
  738MOL0     H99571   6.787   5.638   9.375 -0.0111 -0.7473  2.9049
  738MOL0     H99572   6.725   5.781   9.289  0.6752 -0.2162 -0.5754
  738MOL0     H99573   6.826   5.921   9.482  2.4671  1.7316 -0.1467
  738MOL0     H99574   6.912   5.777   9.535  0.4142 -1.4174 -0.4693
  738MOL0     H99575   6.991   5.762   9.279 -1.1924 -0.6254  0.1941
  738MOL0     H99576   6.930   5.930   9.274 -0.1911 -0.0521 -0.7558
  738MOL0     H99577   7.182   5.904   9.325  0.4212 -1.3520  0.3406
  738MOL0     H99578   7.141   5.812   9.471  1.5223 -0.6019 -0.2957
  738MOL0     H99579   7.034   6.102   9.457  3.1013  2.0363  1.2770
  738MOL0     H99580   7.056   5.985   9.586 -2.4676 -0.9092 -1.8276
  738MOL0     H99581   7.334   5.892   9.531 -4.0748  0.2581  2.9042
  738MOL0     H99582   7.586   5.958   9.424  0.9064 -1.4704  1.4804
  738MOL0     H99583   7.646   6.129   9.451 -1.3157  1.4741  0.5598
  738MOL0     H99584   7.631   6.075   9.700 -0.7062 -0.3459  0.2290
  738MOL0     H99585   7.552   5.923   9.650 -1.4231  1.5089  0.5528
  738MOL0     H99586   7.758   5.821   9.588 -1.6539 -0.3605 -0.0587
  738MOL0     H99587   7.774   5.877   9.733  0.7798 -1.2728  0.1612
  738MOL0     H99588   7.888   6.103   9.647  0.2845  0.0785 -0.9471
  738MOL0     H99589   7.902   5.999   9.493 -1.9909 -2.0539 -0.6843
  738MOL0     H99590   8.237   5.822   9.632  1.5194 -0.2950 -1.8395
  738MOL0     H99591   8.466   5.921   9.579  0.3510  0.6773 -2.9568
  738MOL0     H99592   8.793   6.026   9.369  1.0263  1.3796 -2.0257
  738MOL0     H99593   9.053   6.081   9.373 -1.1423 -1.0911 -1.0902
  738MOL0     H99594   9.313   6.343   9.533 -0.0329 -2.0774 -1.5154
  738MOL0     H99595   9.176   6.398   9.634 -2.9503 -1.7695  0.4868
  738MOL0     H99596   9.378   6.325   9.754 -0.5321  1.8436 -0.4956
  738MOL0     H99597   9.216   6.271   9.804 -0.3574  3.0413 -1.3222
  738MOL0     H99598   9.260   6.043   9.754 -0.3808  0.3987  1.3012
  738MOL0     H99599   9.388   6.082   9.632 -2.0179  0.4882 -0.7581
  738MOL0     H99600   9.525   6.160   9.830 -0.9443  0.7338  0.9518
  738MOL0     H99601   9.491   5.990   9.851 -1.8382  0.4898  0.6882
  738MOL0     H99602   9.307   6.042   9.996  0.1045 -1.6125  0.0341
  738MOL0     H99603   9.348   6.220  10.000  0.4218  0.1476 -3.1415
  738MOL0     H99604   9.541   5.996  10.076  1.6076  0.3250 -3.4049
  738MOL0     H99605   9.576   6.165  10.080 -3.5786  2.3326 -3.0840
  738MOL0     H99606   9.465   6.026  10.294 -3.2172 -0.2001  2.0659
  738MOL0     H99607   9.332   6.133  10.234 -0.0734 -0.7374 -2.1829
  738MOL0     H99608   9.495   6.217  10.414  0.2452 -3.4577 -0.1521
  738MOL0     H99609   9.621   6.225  10.295  0.3059 -3.2793 -3.5215
  738MOL0     H99610   8.978   6.295   9.730 -0.2186 -1.1454  0.1211
  738MOL0     H99611   8.752   6.234   9.727 -0.8445 -0.2844 -0.5250
  738MOL0     H99612   8.277   6.307   9.580 -1.1543 -0.2365 -0.1702
  738MOL0     H99613   8.058   6.210   9.594  1.2619  1.2294 -1.2130
  738MOL0     H99614   6.245   5.484   9.720 -2.0621  3.5567  1.2627
  738MOL0     H99615   6.030   5.407   9.794  0.0810 -0.7767  0.2587
  738MOL0     H99616   5.615   5.230   9.595  0.7699  4.2660  0.1933
  738MOL0     H99617   5.449   5.055   9.648  2.0173 -1.2715 -0.6528
  738MOL0     H99618   5.403   4.818   9.811  1.5153  1.3066  1.0083
  738MOL0     H99619   5.284   4.929   9.726  1.5430 -0.0448 -0.0975
  738MOL0     H99620   5.143   4.773   9.811 -0.6540  3.6979 -1.9000
  738MOL0     H99621   5.133   4.899   9.922 -2.0962 -3.4289  2.3707
  738MOL0     H99622   5.309   4.785  10.062  0.4788  0.1160 -1.3050
  738MOL0     H99623   5.324   4.650   9.952 -0.9473 -0.0647 -0.7727
  738MOL0     H99624   5.092   4.578  10.026 -2.0226  1.8205 -1.2049
  738MOL0     H99625   5.204   4.601  10.164 -0.1185 -0.4814 -0.6921
  738MOL0     H99626   4.905   4.890  10.233  0.2565 -2.0925  0.0250
  738MOL0     H99627   5.461   5.152  10.054  0.1478 -2.3619 -0.8116
  738MOL0     H99628   5.618   5.472  10.019 -3.4482 -1.1432 -1.2341
  738MOL0     H99629   5.567   5.352  10.131 -1.5434  2.2931 -0.2362
  738MOL0     H99630   5.734   5.344  10.076 -1.1367 -3.4243  0.3450
  739MOL0     O99631   2.992   1.930   6.006 -0.9066 -0.0802  0.4117
  739MOL0     C99632   2.944   2.042   6.027 -0.7425  0.0658  0.3193
  739MOL0     O99633   3.021   2.153   6.059 -0.2849  0.2606 -0.6847
  739MOL0     C99634   3.149   2.145   6.113  0.1963 -0.2677 -0.2466
  739MOL0     C99635   3.212   2.028   6.151 -0.3219  0.2579  0.3722
  739MOL0     C99636   3.346   2.029   6.198 -0.6202 -0.3225 -0.5565
  739MOL0     C99637   3.415   2.150   6.209 -0.0252  1.3585  0.2936
  739MOL0     O99638   3.537   2.168   6.255 -0.2360 -0.3522 -0.8032
  739MOL0     C99639   3.556   2.143   6.397 -0.6799  0.9948  0.1899
  739MOL0     C99640   3.698   2.116   6.444 -1.2674  0.8695  0.9352
  739MOL0     C99641   3.741   1.973   6.397 -0.7238  0.0326  0.0788
  739MOL0     C99642   3.870   1.944   6.473  0.0300  0.5923  0.2781
  739MOL0     C99643   3.893   1.797   6.453  0.7921 -0.6506  0.3439
  739MOL0     C99644   4.031   1.753   6.511 -0.1463 -0.2635  0.0813
  739MOL0     C99645   4.078   1.614   6.493  0.1522 -0.7404 -0.1473
  739MOL0     C99646   4.140   1.588   6.354  0.1810  0.0416 -0.2247
  739MOL0     N99647   4.253   1.501   6.382 -0.0228  0.2896 -0.2124
  739MOL0     C99648   4.256   1.364   6.370 -0.0085 -0.2971  0.3557
  739MOL0     C99649   4.367   1.323   6.441  0.6638  0.1675  0.0646
  739MOL0     C99650   4.423   1.183   6.456 -0.3370 -0.2274 -0.4614
  739MOL0     C99651   4.563   1.177   6.527 -0.1749 -0.2653 -0.1340
  739MOL0     C99652   4.678   1.234   6.430 -0.0019  0.7287 -0.3922
  739MOL0     C99653   4.792   1.308   6.500 -0.2793  0.6630  0.2932
  739MOL0     O99654   4.861   1.209   6.573  0.2804 -0.2415 -0.2900
  739MOL0     C99655   4.997   1.210   6.579 -0.0288  0.1399 -0.0548
  739MOL0     C99656   5.069   1.094   6.617  0.0224  0.8211 -0.0846
  739MOL0     C99657   5.205   1.092   6.619 -0.4055  0.4115  0.7240
  739MOL0     C99658   5.283   1.205   6.583  0.4215  0.6421 -0.6938
  739MOL0     C99659   5.427   1.189   6.608 -0.0951  0.6826  0.1880
  739MOL0     O99660   5.496   1.311   6.636  0.0519 -0.1986 -0.2138
  739MOL0     C99661   5.631   1.321   6.665 -0.8471  0.6133 -0.0941
  739MOL0     C99662   5.738   1.226   6.637  0.7413 -0.2336 -0.2208
  739MOL0     C99663   5.872   1.257   6.685  0.6579  0.0115 -0.8533
  739MOL0     C99664   5.904   1.360   6.770 -0.0982 -1.0015  0.1554
  739MOL0     O99665   6.025   1.359   6.826 -0.6203 -0.5161 -0.3350
  739MOL0     C99666   6.086   1.486   6.804  0.4405  0.1667 -0.7319
  739MOL0     C99667   6.225   1.485   6.850 -0.1639 -0.5868  0.0939
  739MOL0     C99668   6.277   1.634   6.861  0.4127 -0.1153 -0.1616
  739MOL0     C99669   6.414   1.621   6.932  0.3977  0.4859  0.8580
  739MOL0     C99670   6.493   1.749   6.909  0.3855  0.0978 -1.0865
  739MOL0     C99671   6.625   1.732   6.987  0.4669 -0.3378  0.4969
  739MOL0     C99672   6.719   1.855   6.990 -0.0384  0.6786 -0.1699
  739MOL0     C99673   6.766   1.882   6.854 -0.3791  0.3532 -0.4874
  739MOL0    Cl99674   6.842   2.033   6.863  0.0617 -0.8647  0.0939
  739MOL0     C99675   5.798   1.451   6.790  0.4020  0.3116 -0.4332
  739MOL0     C99676   5.663   1.435   6.746 -0.8449 -0.2523  0.1057
  739MOL0     O99677   5.475   1.078   6.613 -0.8117 -0.3280 -0.3780
  739MOL0     C99678   5.219   1.328   6.555  0.4224 -0.3522 -0.5270
  739MOL0     C99679   5.074   1.329   6.552  0.9239  0.1708  0.4031
  739MOL0     N99680   4.432   1.436   6.487  1.0453 -0.7243  0.4177
  739MOL0     N99681   4.360   1.539   6.459 -0.8069 -0.0357 -0.0292
  739MOL0     C99682   3.344   2.263   6.171 -0.0972 -0.1962  0.2509
  739MOL0     C99683   3.215   2.270   6.122  0.2870  0.1961 -0.2953
  739MOL0     C99684   2.800   2.064   6.020 -0.0847  0.8563  0.2129
  739MOL0     C99685   2.741   2.114   6.139  0.0759  1.0607  0.1261
  739MOL0     C99686   2.603   2.138   6.154 -0.4280 -0.7968  0.3350
  739MOL0     C99687   2.523   2.098   6.045  0.3323 -1.1848  0.6235
  739MOL0     O99688   2.394   2.127   6.069 -0.6630 -0.3293  0.4097
  739MOL0     C99689   2.302   2.072   5.979 -0.3113 -0.2868 -0.2329
  739MOL0     C99690   2.162   2.048   6.049 -0.1117 -0.3137  0.1238
  739MOL0     C99691   2.046   2.050   5.953  0.1437  0.3439 -0.8190
  739MOL0     C99692   2.049   1.939   5.846 -0.0412  0.0778  0.1445
  739MOL0     C99693   2.158   1.958   5.748 -1.0876 -0.0273  0.3419
  739MOL0     C99694   2.238   1.978   5.657 -0.2986 -0.7001 -0.1840
  739MOL0     C99695   2.578   2.029   5.936 -0.0126  0.6460 -0.9883
  739MOL0     C99696   2.712   2.013   5.921 -0.8045  0.3322 -0.8618
  739MOL0     C99697   2.768   1.920   5.812  0.1177 -0.2366  0.9967
  739MOL0     H99698   3.166   1.931   6.166 -0.9506  0.7131  1.5101
  739MOL0     H99699   3.391   1.934   6.226  0.1435  0.3057  0.4059
  739MOL0     H99700   3.525   2.232   6.453 -1.4699  0.0496  1.3172
  739MOL0     H99701   3.491   2.064   6.438 -1.3436  1.2897 -0.2793
  739MOL0     H99702   3.700   2.116   6.553 -0.6336 -3.3717  1.0819
  739MOL0     H99703   3.769   2.193   6.411 -0.9360 -0.2891 -1.2236
  739MOL0     H99704   3.746   1.975   6.288 -2.4319  1.0360 -0.0161
  739MOL0     H99705   3.659   1.910   6.434 -2.9575  2.6719 -0.0755
  739MOL0     H99706   3.953   2.000   6.430 -0.8149 -0.3311 -2.7589
  739MOL0     H99707   3.863   1.964   6.581 -1.9934 -0.4549  0.3955
  739MOL0     H99708   3.813   1.760   6.519  1.2460 -0.3172  1.1008
  739MOL0     H99709   3.877   1.770   6.348 -2.6934  2.7203 -0.2094
  739MOL0     H99710   4.107   1.826   6.481 -2.5488  3.9525  3.1086
  739MOL0     H99711   4.027   1.770   6.619  0.5008  2.8049 -0.2828
  739MOL0     H99712   4.002   1.539   6.515  1.5137 -1.9192  0.7781
  739MOL0     H99713   4.152   1.590   6.570 -0.0822 -3.5496 -0.7116
  739MOL0     H99714   4.064   1.537   6.294  0.6287 -1.4593  0.4447
  739MOL0     H99715   4.160   1.676   6.292  0.7894 -1.7581 -2.7780
  739MOL0     H99716   4.187   1.304   6.311  0.8418 -3.3021  2.1635
  739MOL0     H99717   4.362   1.128   6.528  2.2555  0.2864  2.3156
  739MOL0     H99718   4.431   1.123   6.365 -1.4601 -1.6465  0.3258
  739MOL0     H99719   4.558   1.223   6.626 -0.8169 -4.3643  1.9363
  739MOL0     H99720   4.586   1.070   6.533  3.5382  0.3329 -1.2963
  739MOL0     H99721   4.631   1.300   6.356 -0.6290  1.1104  0.3281
  739MOL0     H99722   4.729   1.152   6.379 -1.2953  0.1202 -0.7569
  739MOL0     H99723   4.743   1.383   6.563  1.1655  0.8003  1.2850
  739MOL0     H99724   4.859   1.345   6.422  0.0998 -0.3048  0.1468
  739MOL0     H99725   5.004   1.008   6.631 -1.6849  1.9078 -0.9885
  739MOL0     H99726   5.253   0.996   6.632 -2.5055 -1.0092 -1.3332
  739MOL0     H99727   5.728   1.131   6.584 -1.4309  0.9766 -2.1647
  739MOL0     H99728   5.952   1.185   6.671  0.8039  0.1884 -0.9287
  739MOL0     H99729   6.088   1.523   6.701 -1.3037 -0.0335 -0.8765
  739MOL0     H99730   6.035   1.556   6.870  1.2125 -0.7172  0.8522
  739MOL0     H99731   6.226   1.442   6.951  2.4486 -0.4853  0.1950
  739MOL0     H99732   6.293   1.443   6.775 -0.0601  1.2518 -0.9142
  739MOL0     H99733   6.276   1.681   6.762  1.4884 -1.0155 -0.6215
  739MOL0     H99734   6.212   1.702   6.916 -0.3994 -1.0245  0.0248
  739MOL0     H99735   6.476   1.537   6.897 -2.0576  0.1479 -3.2980
  739MOL0     H99736   6.398   1.615   7.040 -2.5664 -3.5663  0.4497
  739MOL0     H99737   6.444   1.839   6.946  0.3737  0.0801 -1.0587
  739MOL0     H99738   6.515   1.754   6.802 -0.3979 -2.1578 -1.4184
  739MOL0     H99739   6.603   1.704   7.090  0.5290 -1.0583  0.3213
  739MOL0     H99740   6.685   1.647   6.953  0.8288  0.0896  0.0385
  739MOL0     H99741   6.811   1.837   7.045  0.5080 -2.0760 -1.7906
  739MOL0     H99742   6.662   1.937   7.036 -0.6095  1.2477 -1.8082
  739MOL0     H99743   6.832   1.802   6.819  1.9308 -0.0272  3.9893
  739MOL0     H99744   6.682   1.887   6.784 -2.8853 -0.4573  2.2523
  739MOL0     H99745   5.823   1.537   6.851  4.5199 -0.5227 -0.6502
  739MOL0     H99746   5.590   1.513   6.765 -1.6111 -1.0879  0.7242
  739MOL0     H99747   5.275   1.420   6.543  2.4418 -1.4157  0.3115
  739MOL0     H99748   5.021   1.423   6.534 -1.4056 -1.4236 -1.8487
  739MOL0     H99749   3.405   2.352   6.183  1.5098 -1.5011  2.7068
  739MOL0     H99750   3.174   2.360   6.079  0.0734 -1.0593 -2.9416
  739MOL0     H99751   2.812   2.132   6.219 -0.8213 -0.7478  1.3900
  739MOL0     H99752   2.551   2.180   6.239  0.0823  1.2669 -0.3300
  739MOL0     H99753   2.329   1.970   5.952  0.8153  0.2702 -1.2470
  739MOL0     H99754   2.288   2.134   5.890  0.1343  0.0407 -0.0780
  739MOL0     H99755   2.150   2.119   6.132 -2.2694 -0.5986  0.0952
  739MOL0     H99756   2.159   1.949   6.096  0.6788 -0.9635 -1.1608
  739MOL0     H99757   2.050   2.151   5.912 -1.2736  1.3722  1.4000
  739MOL0     H99758   1.954   2.035   6.011  1.9179  0.0501  2.1333
  739MOL0     H99759   2.059   1.847   5.905  1.2231 -1.3807 -2.2158
  739MOL0     H99760   1.947   1.945   5.806 -1.2318  0.5856  2.9489
  739MOL0     H99761   2.303   1.979   5.572 -0.3240 -1.0502 -0.2052
  739MOL0     H99762   2.521   1.989   5.852 -2.4055 -1.5045  1.4792
  739MOL0     H99763   2.709   1.952   5.725  0.0516  3.1338  2.1369
  739MOL0     H99764   2.874   1.927   5.786 -0.4945  2.0414 -1.2686
  739MOL0     H99765   2.754   1.813   5.831 -2.2785 -0.0830  0.3792
  740MOL0     O99766   3.452   4.767   8.358  0.2573 -0.3357  0.2701
  740MOL0     C99767   3.423   4.699   8.452 -0.9398  0.0468 -0.2162
  740MOL0     O99768   3.515   4.643   8.546 -0.1635  0.1432  0.7751
  740MOL0     C99769   3.645   4.675   8.537  0.2972 -0.1489 -0.7473
  740MOL0     C99770   3.697   4.807   8.564 -0.6750  0.3213 -0.3120
  740MOL0     C99771   3.840   4.836   8.558 -0.0734 -0.1471  0.8279
  740MOL0     C99772   3.918   4.730   8.511 -0.5294  0.6130  0.3032
  740MOL0     O99773   4.044   4.746   8.455  0.0225  0.2418 -0.2688
  740MOL0     C99774   4.138   4.828   8.537  0.6425  0.2803 -0.7750
  740MOL0     C99775   4.274   4.813   8.495  0.3187  0.5232 -0.7284
  740MOL0     C99776   4.314   4.846   8.356 -0.2717  0.5065  0.1482
  740MOL0     C99777   4.462   4.804   8.335 -0.7993 -0.1379 -0.1206
  740MOL0     C99778   4.524   4.874   8.214 -0.5156  0.4227  0.3730
  740MOL0     C99779   4.443   4.861   8.088  0.1572  1.0142  0.4944
  740MOL0     C99780   4.514   4.896   7.958 -0.2127 -0.9139  0.5411
  740MOL0     C99781   4.560   5.043   7.937 -0.1961  0.7797 -0.1282
  740MOL0     N99782   4.591   5.066   7.796  0.4629  0.5461  0.2939
  740MOL0     C99783   4.681   4.998   7.721 -0.0509  0.3415  0.3520
  740MOL0     C99784   4.725   5.092   7.629 -0.3806 -0.0336 -0.0290
  740MOL0     C99785   4.814   5.045   7.515  0.4826 -0.2867  0.7566
  740MOL0     C99786   4.957   4.993   7.554  0.3763 -0.2140 -0.1579
  740MOL0     C99787   5.043   5.108   7.579  0.5837 -0.6800  0.5713
  740MOL0     C99788   5.180   5.074   7.623 -1.2231  0.3030 -0.0299
  740MOL0     O99789   5.254   5.200   7.627 -0.4126  0.0850  0.1935
  740MOL0     C99790   5.393   5.175   7.636  0.0168  0.6242  0.5094
  740MOL0     C99791   5.467   5.290   7.661 -0.2794  0.0460  0.2632
  740MOL0     C99792   5.605   5.279   7.673  0.0121  0.3548  0.6617
  740MOL0     C99793   5.669   5.149   7.665  0.1346 -0.5231 -0.2077
  740MOL0     C99794   5.811   5.132   7.714  0.5982 -0.0197  0.6452
  740MOL0     O99795   5.879   5.253   7.728 -0.2955  0.5815  0.0121
  740MOL0     C99796   6.016   5.264   7.754 -0.2758 -0.6193 -0.0487
  740MOL0     C99797   6.049   5.357   7.850 -0.0759  0.5232  0.9118
  740MOL0     C99798   6.174   5.351   7.906 -0.1014 -0.3926 -0.3194
  740MOL0     C99799   6.271   5.272   7.861 -0.1729  0.3257  0.9104
  740MOL0     O99800   6.396   5.280   7.920  0.1477 -0.0533 -0.4813
  740MOL0     C99801   6.511   5.245   7.843 -0.4172  0.0581  0.9798
  740MOL0     C99802   6.642   5.313   7.911 -0.1696 -0.4805  0.7344
  740MOL0     C99803   6.765   5.264   7.831 -0.8730 -0.5226  0.0870
  740MOL0     C99804   6.891   5.345   7.863 -0.3324 -0.4787 -0.6504
  740MOL0     C99805   7.002   5.313   7.767  0.0858 -0.5871  1.1692
  740MOL0     C99806   7.124   5.398   7.789  0.0277  0.0898  0.4687
  740MOL0     C99807   7.244   5.315   7.737 -0.8168 -0.0637 -0.3720
  740MOL0     C99808   7.356   5.420   7.719 -0.4523  0.1024  0.2735
  740MOL0    Cl99809   7.498   5.349   7.641 -0.1326 -0.3509  0.1753
  740MOL0     C99810   6.242   5.180   7.756 -0.4198 -0.7783 -0.0896
  740MOL0     C99811   6.112   5.175   7.704  0.6752  0.5065  0.4924
  740MOL0     O99812   5.863   5.021   7.744 -0.2429 -0.9066  0.3467
  740MOL0     C99813   5.592   5.033   7.638 -0.1578  0.0358 -0.2112
  740MOL0     C99814   5.457   5.045   7.624  0.2098 -0.4632 -0.3574
  740MOL0     N99815   4.655   5.204   7.655  0.3945 -0.3109 -0.2426
  740MOL0     N99816   4.576   5.194   7.755  0.0096 -0.1028 -0.2836
  740MOL0     C99817   3.871   4.600   8.501 -0.1034 -0.3353  0.2948
  740MOL0     C99818   3.736   4.579   8.504  1.2681 -0.3269 -0.4546
  740MOL0     C99819   3.282   4.644   8.468  0.8921  0.0772  0.2652
  740MOL0     C99820   3.270   4.517   8.532  0.0717 -0.1094 -0.1501
  740MOL0     C99821   3.150   4.463   8.554  0.0972  0.1536 -0.6787
  740MOL0     C99822   3.039   4.527   8.522 -0.0717 -0.0747  0.4850
  740MOL0     O99823   2.922   4.458   8.558 -0.0122 -0.1612  0.4077
  740MOL0     C99824   2.794   4.476   8.494  0.2938 -0.1297 -0.4124
  740MOL0     C99825   2.708   4.578   8.565  0.1017 -0.3217  0.7123
  740MOL0     C99826   2.645   4.517   8.696 -0.5348 -0.3126  0.1171
  740MOL0     C99827   2.582   4.623   8.793 -0.8692 -0.1435  0.0568
  740MOL0     C99828   2.484   4.712   8.723 -0.9343  0.4027  0.1331
  740MOL0     C99829   2.408   4.795   8.673 -1.6999 -0.1775  0.2428
  740MOL0     C99830   3.046   4.649   8.459 -0.1713  0.1354 -0.1357
  740MOL0     C99831   3.167   4.704   8.425  0.5880 -0.1379 -0.1293
  740MOL0     C99832   3.172   4.835   8.353  0.6017  0.0972  0.1441
  740MOL0     H99833   3.639   4.897   8.581  0.0634  1.0353 -1.4795
  740MOL0     H99834   3.873   4.938   8.571 -0.4891 -0.0483  1.1386
  740MOL0     H99835   4.108   4.931   8.520 -2.0098 -0.4030 -0.7132
  740MOL0     H99836   4.122   4.798   8.641 -1.2919 -1.0933 -1.4043
  740MOL0     H99837   4.306   4.713   8.526  0.1096  0.4761 -0.6590
  740MOL0     H99838   4.329   4.879   8.562 -0.8864  0.9127 -0.0938
  740MOL0     H99839   4.301   4.954   8.342  0.2583  0.7078  1.1038
  740MOL0     H99840   4.248   4.789   8.290  0.0243 -0.2378  0.4936
  740MOL0     H99841   4.522   4.816   8.426 -2.0474 -3.8248  1.4118
  740MOL0     H99842   4.471   4.697   8.315 -1.9126 -0.1158 -0.8321
  740MOL0     H99843   4.527   4.980   8.241  0.0450  0.1768  1.3213
  740MOL0     H99844   4.625   4.835   8.200 -0.5290 -0.2877  2.0741
  740MOL0     H99845   4.419   4.757   8.067 -2.8153  1.9499 -1.3737
  740MOL0     H99846   4.344   4.907   8.092 -1.1984 -1.6777  0.1809
  740MOL0     H99847   4.455   4.875   7.868  1.6047 -0.0913 -0.9315
  740MOL0     H99848   4.601   4.831   7.946  0.3141  0.0168 -1.0798
  740MOL0     H99849   4.484   5.111   7.974 -0.6406  0.8862 -1.1999
  740MOL0     H99850   4.644   5.061   8.005 -1.1106  0.8560  0.9975
  740MOL0     H99851   4.707   4.893   7.730  0.5164  0.2434 -1.9272
  740MOL0     H99852   4.755   4.968   7.465 -0.3908  1.9144 -1.9043
  740MOL0     H99853   4.815   5.119   7.434 -2.5023  1.2768  2.0085
  740MOL0     H99854   4.946   4.932   7.644  1.3883 -2.1627 -1.2828
  740MOL0     H99855   5.003   4.932   7.475  0.0115 -2.0985  1.0244
  740MOL0     H99856   4.991   5.184   7.639  0.5748  2.1601 -2.7424
  740MOL0     H99857   5.053   5.151   7.479  1.3152 -0.9675  0.5147
  740MOL0     H99858   5.215   5.000   7.550 -3.4723 -0.4623 -0.4404
  740MOL0     H99859   5.185   5.034   7.724 -0.4238  1.6984  0.5076
  740MOL0     H99860   5.416   5.385   7.674 -2.3181 -0.9419 -0.2306
  740MOL0     H99861   5.654   5.370   7.707  1.3770 -0.7523  1.8226
  740MOL0     H99862   5.981   5.435   7.883  0.6988  2.6501 -2.0193
  740MOL0     H99863   6.205   5.419   7.984 -0.1315 -0.0498 -0.6011
  740MOL0     H99864   6.519   5.136   7.835 -2.5220 -0.1783  1.5809
  740MOL0     H99865   6.501   5.284   7.742  1.1244  0.5188  0.9741
  740MOL0     H99866   6.640   5.422   7.905 -2.2497 -0.4158  1.8237
  740MOL0     H99867   6.649   5.279   8.015  1.8683 -1.6575  0.2727
  740MOL0     H99868   6.789   5.160   7.855  0.7992  0.2789  2.1892
  740MOL0     H99869   6.743   5.284   7.726  1.6790 -0.0820 -0.4096
  740MOL0     H99870   6.922   5.325   7.966 -0.3837 -0.3248 -0.6052
  740MOL0     H99871   6.860   5.448   7.845  0.3304 -0.4698 -1.8385
  740MOL0     H99872   6.966   5.318   7.664  0.1007  0.8556  1.2204
  740MOL0     H99873   7.020   5.206   7.785 -0.1844 -0.6892  0.8421
  740MOL0     H99874   7.105   5.487   7.729  2.5875  0.7543  0.4936
  740MOL0     H99875   7.130   5.438   7.890  0.3070  3.4156 -0.7289
  740MOL0     H99876   7.215   5.266   7.644  1.6719  0.3312 -1.4287
  740MOL0     H99877   7.274   5.240   7.811 -2.4321  0.8893  1.3550
  740MOL0     H99878   7.315   5.497   7.654 -1.3954  0.6103  1.4320
  740MOL0     H99879   7.385   5.472   7.811 -1.5715 -0.2047  0.8149
  740MOL0     H99880   6.316   5.106   7.729  2.4702  1.3486  1.3780
  740MOL0     H99881   6.077   5.110   7.625  1.6816 -0.5047  0.8542
  740MOL0     H99882   5.628   4.931   7.639  1.6144  0.6323  1.0645
  740MOL0     H99883   5.406   4.951   7.607  1.2058 -1.3232  1.1082
  740MOL0     H99884   3.934   4.518   8.469 -1.5390 -0.0124 -4.0588
  740MOL0     H99885   3.706   4.476   8.487 -1.0079  0.2345 -0.2248
  740MOL0     H99886   3.355   4.461   8.570 -2.4863 -2.4914  2.6039
  740MOL0     H99887   3.130   4.363   8.590 -2.6201  0.8330 -0.0738
  740MOL0     H99888   2.743   4.380   8.485 -0.0105 -0.0465  0.3448
  740MOL0     H99889   2.811   4.517   8.394  1.9500  0.1273 -0.0574
  740MOL0     H99890   2.631   4.621   8.500  0.7884  0.9710  0.7262
  740MOL0     H99891   2.782   4.657   8.579  4.1835 -3.1397 -2.4191
  740MOL0     H99892   2.728   4.464   8.744 -0.5433 -0.4991 -0.0716
  740MOL0     H99893   2.570   4.443   8.667 -2.2129  1.1694  0.5182
  740MOL0     H99894   2.528   4.558   8.862 -2.5875  2.0967  0.9540
  740MOL0     H99895   2.655   4.685   8.845  2.1401 -2.1372 -1.5281
  740MOL0     H99896   2.339   4.860   8.623 -0.7233  0.6372 -0.0825
  740MOL0     H99897   2.949   4.694   8.439 -0.4723  0.2495  1.4289
  740MOL0     H99898   3.072   4.858   8.315  0.1138 -1.4357  0.4165
  740MOL0     H99899   3.201   4.917   8.419  0.3426 -0.2747  0.7257
  740MOL0     H99900   3.244   4.822   8.271  0.9071 -3.7427  0.8491
  741MOL0     O99901  10.462   3.721   8.361  0.3403  0.4459 -0.6277
  741MOL0     C99902  10.454   3.645   8.261 -0.4536 -0.3860  0.2168
  741MOL0     O99903  10.546   3.656   8.158  0.3300  0.0843  0.0869
  741MOL0     C99904  10.674   3.689   8.166 -0.9168 -0.5132  0.2821
  741MOL0     C99905  10.752   3.668   8.282  0.2951 -0.1252  0.0504
  741MOL0     C99906  10.891   3.682   8.277  0.0989 -0.3860  0.6466
  741MOL0     C99907  10.955   3.723   8.158  0.1414 -0.5924  0.0626
  741MOL0     O99908  11.092   3.750   8.150  0.2376 -0.3899 -0.1574
  741MOL0     C99909  11.164   3.760   8.271  0.0869  0.0822  0.5920
  741MOL0     C99910  11.312   3.748   8.242 -0.1552  0.6346 -0.7564
  741MOL0     C99911  11.355   3.844   8.127 -0.1548 -0.1516  0.3893
  741MOL0     C99912  11.492   3.919   8.149 -0.5049  0.2693 -0.0501
  741MOL0     C99913  11.617   3.822   8.168  0.2322  0.2931  0.1514
  741MOL0     C99914  11.730   3.920   8.132 -0.4126  0.1141  0.1163
  741MOL0     C99915  11.871   3.854   8.125  0.2747  0.6037  0.5290
  741MOL0     C99916  11.888   3.736   8.027 -0.5142  0.1550 -0.0708
  741MOL0     N99917  12.029   3.717   7.975  0.3700 -0.6737  0.2277
  741MOL0     C99918  12.115   3.805   7.916  0.0897  0.0472  0.3984
  741MOL0     C99919  12.233   3.741   7.906 -1.2152  0.2887 -0.1517
  741MOL0     C99920  12.360   3.798   7.845 -0.7898  0.8882 -0.3700
  741MOL0     C99921  12.424   3.704   7.732 -0.2294  0.1101 -0.1461
  741MOL0     C99922  12.575   3.744   7.691  0.6308  0.6132 -0.6515
  741MOL0     C99923  12.690   3.709   7.791 -0.0543  0.0513 -0.2316
  741MOL0     O99924  12.813   3.739   7.738 -0.5395  0.2613 -0.3913
  741MOL0     C99925  12.860   3.651   7.639 -0.3172 -0.0139 -0.4137
  741MOL0     C99926  12.803   3.528   7.595 -0.1505  0.0697 -0.2818
  741MOL0     C99927  12.878   3.444   7.512  0.4231  0.8821  0.0318
  741MOL0     C99928  12.991   3.494   7.449 -0.7659  0.7135  1.0769
  741MOL0     C99929  13.058   3.401   7.348  0.1219 -0.6551 -0.6167
  741MOL0     O99930  12.999   3.272   7.328 -0.4415 -0.2786  0.4070
  741MOL0     C99931  13.076   3.177   7.270  0.4264  1.1819  0.5360
  741MOL0     C99932  13.010   3.080   7.191  0.0751  0.2699  0.4632
  741MOL0     C99933  13.086   2.977   7.132 -0.3697  0.1215  0.8081
  741MOL0     C99934  13.229   2.983   7.131  0.3414  0.8371  0.0758
  741MOL0     O99935  13.313   2.902   7.063 -0.2254 -0.4012 -0.0647
  741MOL0     C99936  13.253   2.841   6.942 -0.2936 -0.7278  0.2763
  741MOL0     C99937  13.352   2.763   6.864  0.4848  0.0688  0.6765
  741MOL0     C99938  13.296   2.705   6.730  0.8818  0.0093 -0.2704
  741MOL0     C99939  13.313   2.800   6.609 -0.3583  0.7749  0.9619
  741MOL0     C99940  13.250   2.744   6.473 -0.1935  0.6244 -0.2772
  741MOL0     C99941  13.103   2.740   6.473  0.3516  0.1004 -0.0583
  741MOL0     C99942  13.047   2.726   6.327  0.2289 -0.6359 -0.4404
  741MOL0     C99943  12.898   2.677   6.324 -0.3300 -0.3542  0.3224
  741MOL0    Cl99944  12.881   2.503   6.273  0.6021  0.2052 -0.2441
  741MOL0     C99945  13.294   3.074   7.210 -0.1102  0.0677 -0.5418
  741MOL0     C99946  13.212   3.169   7.274 -0.3993  0.4051  0.1984
  741MOL0     O99947  13.153   3.447   7.288 -0.7361  0.0280 -0.8402
  741MOL0     C99948  13.042   3.617   7.475  0.2428  0.1766 -0.1880
  741MOL0     C99949  12.979   3.687   7.575 -0.2752 -0.7935  0.1146
  741MOL0     N99950  12.222   3.618   7.965  0.6741  0.1735 -0.6646
  741MOL0     N99951  12.096   3.600   7.992 -0.1979 -0.9596  0.6280
  741MOL0     C99952  10.877   3.739   8.042 -0.0167  0.3887  0.0431
  741MOL0     C99953  10.737   3.714   8.046  0.3521  0.0625  0.2132
  741MOL0     C99954  10.327   3.577   8.227 -0.4784 -0.7203 -0.4860
  741MOL0     C99955  10.316   3.515   8.100  0.1472  0.4247 -0.4530
  741MOL0     C99956  10.209   3.438   8.054  0.6848 -0.0925 -0.5224
  741MOL0     C99957  10.102   3.424   8.136 -0.2623  0.3795 -0.5597
  741MOL0     O99958  10.002   3.360   8.074 -0.1455 -0.6022 -1.0307
  741MOL0     C99959   9.877   3.403   8.112 -0.1280  0.1175  0.4154
  741MOL0     C99960   9.766   3.344   8.016 -0.2701  0.1799  0.2275
  741MOL0     C99961   9.634   3.426   8.010 -0.5393  0.2320  0.2040
  741MOL0     C99962   9.543   3.363   7.900 -0.3825  0.2765 -0.9150
  741MOL0     C99963   9.406   3.409   7.924 -0.8986 -1.0354  0.6857
  741MOL0     C99964   9.287   3.449   7.925  0.1694  0.8397 -0.4111
  741MOL0     C99965  10.103   3.471   8.271 -0.7888  0.5822  0.3182
  741MOL0     C99966  10.216   3.549   8.315  0.2506 -0.2425  0.2138
  741MOL0     C99967  10.211   3.609   8.458  0.8611  0.3553 -0.2710
  741MOL0     H99968  10.700   3.642   8.373 -0.5014 -0.5475 -0.5096
  741MOL0     H99969  10.944   3.673   8.372 -2.5218 -0.6712  2.1807
  741MOL0     H99970  11.146   3.860   8.309  1.9101  0.5582  0.2961
  741MOL0     H99971  11.136   3.669   8.326 -1.0556 -1.0779 -1.7514
  741MOL0     H99972  11.327   3.646   8.207  0.7985  0.5294 -0.0896
  741MOL0     H99973  11.360   3.776   8.337 -2.2420 -2.3334  1.3667
  741MOL0     H99974  11.277   3.919   8.117 -0.3187 -0.1962  1.2898
  741MOL0     H99975  11.357   3.790   8.031  1.2090 -0.2920  0.4737
  741MOL0     H99976  11.494   3.985   8.061 -2.7114  2.1186  1.1587
  741MOL0     H99977  11.490   3.988   8.234 -1.7083 -1.3824  1.3322
  741MOL0     H99978  11.631   3.778   8.267 -1.1986  1.2798  0.8367
  741MOL0     H99979  11.611   3.741   8.095 -1.1561 -2.9342  3.5363
  741MOL0     H99980  11.708   3.974   8.039 -1.0212  1.1664  0.8534
  741MOL0     H99981  11.751   3.997   8.206 -0.1903 -0.9834  1.2243
  741MOL0     H99982  11.891   3.816   8.225 -0.2084 -0.9436  0.0561
  741MOL0     H99983  11.934   3.942   8.109  1.0507  0.1137  0.8478
  741MOL0     H99984  11.848   3.643   8.068  2.2427 -1.6744 -1.1708
  741MOL0     H99985  11.828   3.754   7.937 -0.5375 -1.1237 -0.3406
  741MOL0     H99986  12.086   3.902   7.877  2.0353  0.6943  0.4641
  741MOL0     H99987  12.343   3.901   7.812  0.2915  1.0744 -0.3987
  741MOL0     H99988  12.428   3.818   7.928 -1.0637 -0.3810  0.1890
  741MOL0     H99989  12.434   3.600   7.764 -0.0094 -0.0865 -0.8477
  741MOL0     H99990  12.366   3.725   7.642 -0.1086  3.6323  0.4731
  741MOL0     H99991  12.578   3.851   7.671  2.3437  0.1305 -3.4567
  741MOL0     H99992  12.598   3.695   7.596  1.8818 -1.2729  0.5540
  741MOL0     H99993  12.679   3.604   7.819  1.2609 -0.1408 -0.3888
  741MOL0     H99994  12.668   3.767   7.880  0.4119 -1.3359  0.8240
  741MOL0     H99995  12.703   3.503   7.629 -0.2899  0.1778 -0.6008
  741MOL0     H99996  12.831   3.350   7.487 -1.0897  1.7930 -0.6491
  741MOL0     H99997  12.905   3.095   7.168  0.3343  1.7401  0.1254
  741MOL0     H99998  13.032   2.904   7.074 -2.8159 -0.7842  3.9170
  741MOL0     H99999  13.168   2.777   6.969 -1.0779  1.5980  3.9967
  741MOL0     H    0  13.221   2.923   6.877  0.2044 -2.2229 -1.9623
  741MOL0     H    1  13.438   2.824   6.835  1.0859 -0.4317  1.3746
  741MOL0     H    2  13.388   2.677   6.921 -0.0604 -0.1880  0.6393
  741MOL0     H    3  13.343   2.608   6.711  2.1034  0.5368 -0.0069
  741MOL0     H    4  13.192   2.687   6.760  0.7956  1.3587  0.3046
  741MOL0     H    5  13.421   2.792   6.594 -0.4435 -0.7203  0.9834
  741MOL0     H    6  13.290   2.906   6.627 -0.7434  1.0233 -0.7507
  741MOL0     H    7  13.281   2.643   6.443 -2.1713 -0.6263  1.6330
  741MOL0     H    8  13.287   2.808   6.393  1.2477  0.5868  0.3354
  741MOL0     H    9  13.071   2.656   6.535 -0.5093  0.3212 -0.1989
  741MOL0     H   10  13.056   2.829   6.515 -1.2626 -0.9726  0.4641
  741MOL0     H   11  13.105   2.645   6.282 -0.7839 -2.1612  0.8660
  741MOL0     H   12  13.066   2.813   6.264 -1.8827  0.2825  0.0935
  741MOL0     H   13  12.851   2.688   6.422  1.2695 -0.5781  1.1559
  741MOL0     H   14  12.837   2.741   6.260 -0.3269  0.8202  1.4424
  741MOL0     H   15  13.403   3.081   7.207 -0.0895  3.0253  1.9028
  741MOL0     H   16  13.270   3.244   7.327  0.9914 -0.9680  0.7215
  741MOL0     H   17  13.135   3.647   7.428  1.7467 -0.6408  2.0430
  741MOL0     H   18  13.018   3.785   7.598 -0.6536 -0.7794  0.7250
  741MOL0     H   19  10.934   3.763   7.953 -0.1467 -2.3814 -0.8868
  741MOL0     H   20  10.679   3.708   7.954 -0.8124 -0.9074  0.9851
  741MOL0     H   21  10.396   3.531   8.028 -2.1681 -0.2413 -3.3524
  741MOL0     H   22  10.195   3.406   7.952 -0.4279  1.7404 -0.9965
  741MOL0     H   23   9.867   3.511   8.095 -3.8327 -0.1202  0.3627
  741MOL0     H   24   9.862   3.373   8.216  1.1743 -0.0695  0.5695
  741MOL0     H   25   9.746   3.239   8.037  0.0869  0.1640  0.4823
  741MOL0     H   26   9.808   3.350   7.915 -0.9036 -1.1666 -0.1375
  741MOL0     H   27   9.651   3.534   7.999  0.3748  0.1532  0.7147
  741MOL0     H   28   9.599   3.411   8.112  1.0017  1.8207  1.0261
  741MOL0     H   29   9.579   3.389   7.801  2.9208 -0.7759 -0.1147
  741MOL0     H   30   9.536   3.255   7.918  0.2562  0.7962  3.8023
  741MOL0     H   31   9.192   3.498   7.920  0.2052  0.9492 -0.0213
  741MOL0     H   32  10.020   3.450   8.338  1.1441 -0.0782  2.6508
  741MOL0     H   33  10.303   3.586   8.512  1.1562  1.5771 -0.2284
  741MOL0     H   34  10.202   3.717   8.447 -1.9294  0.1921 -0.1668
  741MOL0     H   35  10.125   3.573   8.514 -0.3816 -1.9047 -3.3151
  742MOL0     O   36   0.287   8.010   7.929 -0.0583  0.6242  0.0916
  742MOL0     C   37   0.245   7.939   7.834 -0.2485 -0.0702  0.2085
  742MOL0     O   38   0.320   7.850   7.762 -0.3879 -0.4705  0.1851
  742MOL0     C   39   0.438   7.796   7.812  0.3533  0.2856  0.5431
  742MOL0     C   40   0.537   7.765   7.715  0.4332  0.0385  0.2474
  742MOL0     C   41   0.658   7.707   7.760  0.3269 -0.2890  0.5781
  742MOL0     C   42   0.684   7.689   7.898 -0.0011  0.8565  0.2270
  742MOL0     O   43   0.806   7.642   7.929  0.5936 -0.1082 -0.3690
  742MOL0     C   44   0.864   7.652   8.053  0.5181  0.0856 -0.4800
  742MOL0     C   45   1.008   7.608   8.049  0.4501 -0.6325 -0.0102
  742MOL0     C   46   1.083   7.659   8.173 -0.5266 -0.3652  0.4473
  742MOL0     C   47   1.235   7.631   8.169  0.2914 -0.8411 -0.3193
  742MOL0     C   48   1.307   7.665   8.303  0.8128  0.2297 -1.4280
  742MOL0     C   49   1.455   7.647   8.289  0.0276 -0.0057 -0.2947
  742MOL0     C   50   1.519   7.598   8.425  0.6809  0.3477  0.0631
  742MOL0     C   51   1.664   7.553   8.410 -1.1265 -0.9612  0.2604
  742MOL0     N   52   1.747   7.666   8.363 -0.5481 -0.2514  0.3226
  742MOL0     C   53   1.746   7.702   8.225  0.1439  0.9529  0.1900
  742MOL0     C   54   1.830   7.806   8.211  0.2955 -0.0656  0.8600
  742MOL0     C   55   1.857   7.874   8.084 -0.1971  0.2350 -0.3490
  742MOL0     C   56   2.013   7.881   8.057 -0.4426  0.1983  0.8588
  742MOL0     C   57   2.074   8.005   8.126 -0.9911 -0.9678 -0.3452
  742MOL0     C   58   2.208   8.055   8.075  0.6061 -0.3681 -0.3191
  742MOL0     O   59   2.299   7.945   8.095 -0.2859 -0.3927  0.2602
  742MOL0     C   60   2.434   7.972   8.089  0.0249  0.4070 -0.7359
  742MOL0     C   61   2.501   8.089   8.044  0.2266  0.8602  0.7261
  742MOL0     C   62   2.638   8.103   8.049 -0.1613 -0.4756 -1.0444
  742MOL0     C   63   2.720   7.997   8.089  1.0566 -0.4397 -0.1473
  742MOL0     C   64   2.872   8.018   8.085  0.3005 -0.1088  0.4451
  742MOL0     O   65   2.912   8.147   8.045 -0.0139  0.1706 -0.2818
  742MOL0     C   66   3.048   8.180   8.039  0.5966 -0.8934 -0.2642
  742MOL0     C   67   3.127   8.172   8.155  0.0472 -0.4880  0.0723
  742MOL0     C   68   3.263   8.212   8.143  0.2606  0.8720  0.1719
  742MOL0     C   69   3.324   8.253   8.018 -0.2175  0.1568 -0.8530
  742MOL0     O   70   3.459   8.282   8.025  0.3928  0.1817 -0.0935
  742MOL0     C   71   3.526   8.242   7.899 -0.8174  0.1734 -0.0311
  742MOL0     C   72   3.669   8.298   7.914 -0.4008  0.3334  0.6377
  742MOL0     C   73   3.764   8.230   7.814  0.4273  0.9513  0.5463
  742MOL0     C   74   3.912   8.256   7.852 -0.6259  0.0418 -0.4943
  742MOL0     C   75   4.006   8.194   7.742  0.3056  0.0223  0.0350
  742MOL0     C   76   4.152   8.226   7.758 -0.0841  0.5187 -0.0771
  742MOL0     C   77   4.177   8.385   7.759 -0.4715 -0.2016 -0.3866
  742MOL0     C   78   4.322   8.424   7.761  0.0953  0.2071  0.0433
  742MOL0    Cl   79   4.411   8.366   7.908 -0.1853 -0.1704 -0.1609
  742MOL0     C   80   3.245   8.263   7.907 -0.9043 -0.9135 -0.0994
  742MOL0     C   81   3.108   8.217   7.917  0.2775 -0.4191 -0.8808
  742MOL0     O   82   2.944   7.932   8.126 -0.2250  0.2219  0.0984
  742MOL0     C   83   2.659   7.883   8.139 -0.5917  1.3831  0.0781
  742MOL0     C   84   2.518   7.873   8.145 -0.3512  0.1397  0.4646
  742MOL0     N   85   1.855   7.847   8.339  0.7146  0.4752 -0.0360
  742MOL0     N   86   1.805   7.767   8.430  0.1366  0.4171  0.5896
  742MOL0     C   87   0.587   7.727   7.991  0.9836  1.1327 -0.4486
  742MOL0     C   88   0.469   7.782   7.946  0.4323  0.3626 -0.7033
  742MOL0     C   89   0.110   7.968   7.780  0.4981  0.2675 -0.2054
  742MOL0     C   90   0.081   7.933   7.650 -0.4927  0.4030 -0.2632
  742MOL0     C   91  -0.048   7.929   7.593  0.2107 -0.1918 -0.0650
  742MOL0     C   92  -0.158   7.966   7.675 -1.0581 -0.0335  0.1830
  742MOL0     O   93  -0.290   7.950   7.633 -0.1260 -0.2413  0.5938
  742MOL0     C   94  -0.321   7.878   7.510  0.5106  0.1285 -0.5499
  742MOL0     C   95  -0.471   7.870   7.490 -0.3026  0.0372 -0.0691
  742MOL0     C   96  -0.537   8.001   7.448  0.0266 -0.8018  0.3204
  742MOL0     C   97  -0.692   7.996   7.466 -0.2513  0.0007 -0.1504
  742MOL0     C   98  -0.744   8.130   7.440 -0.9725 -0.6846  0.2536
  742MOL0     C   99  -0.784   8.245   7.426  0.1266 -0.3165  0.4435
  742MOL0     C  100  -0.132   8.000   7.807 -0.1287  0.0402 -0.4755
  742MOL0     C  101  -0.003   7.997   7.862 -0.0610 -0.0319  0.1748
  742MOL0     C  102   0.015   8.030   8.005 -0.3137  0.6853  0.0727
  742MOL0     H  103   0.510   7.775   7.611  0.3586  1.1571  0.3619
  742MOL0     H  104   0.727   7.661   7.690 -0.3542  1.5903 -1.4364
  742MOL0     H  105   0.851   7.752   8.094  2.3699  0.2427 -0.1712
  742MOL0     H  106   0.807   7.592   8.124  0.0221  1.1396  0.0333
  742MOL0     H  107   1.053   7.661   7.965 -0.3004  1.8546  1.0517
  742MOL0     H  108   1.015   7.500   8.031 -1.2338 -0.7676 -0.0716
  742MOL0     H  109   1.040   7.612   8.262  0.0380 -3.0536 -0.6176
  742MOL0     H  110   1.068   7.767   8.182 -0.5193 -0.2666 -0.5617
  742MOL0     H  111   1.254   7.525   8.149  4.0700 -0.5663  1.0339
  742MOL0     H  112   1.265   7.691   8.083  0.0306 -1.1374 -0.6203
  742MOL0     H  113   1.301   7.774   8.312  0.6233  0.0045  3.1328
  742MOL0     H  114   1.265   7.607   8.386  1.9217 -2.1383 -2.4348
  742MOL0     H  115   1.483   7.573   8.214  3.2925  0.3222  0.4260
  742MOL0     H  116   1.497   7.742   8.253 -1.2512 -0.2341 -2.5793
  742MOL0     H  117   1.461   7.514   8.465  0.6225 -0.9657 -2.5497
  742MOL0     H  118   1.512   7.668   8.509  0.3481 -0.9426  1.1502
  742MOL0     H  119   1.707   7.536   8.510  0.8947  1.2085 -0.1306
  742MOL0     H  120   1.681   7.468   8.344 -1.5592 -1.5091  0.8415
  742MOL0     H  121   1.693   7.651   8.145  0.7505  0.5942  0.0037
  742MOL0     H  122   1.807   7.823   8.001 -0.3894 -1.0652  0.5490
  742MOL0     H  123   1.803   7.969   8.095 -0.8256 -0.2376  0.8489
  742MOL0     H  124   2.056   7.792   8.103 -2.3144 -1.1752  0.1015
  742MOL0     H  125   2.034   7.884   7.950  1.1323 -2.4758  1.0110
  742MOL0     H  126   2.090   7.971   8.229  1.8336  0.7635 -0.1086
  742MOL0     H  127   2.002   8.086   8.114 -0.2068 -0.2731 -0.3962
  742MOL0     H  128   2.238   8.142   8.133 -0.4912 -0.5717  0.5840
  742MOL0     H  129   2.204   8.085   7.970  1.3794  0.3626 -0.1456
  742MOL0     H  130   2.438   8.166   8.002  0.1514 -0.1118 -1.0228
  742MOL0     H  131   2.679   8.199   8.022 -0.0287 -0.4692 -0.8196
  742MOL0     H  132   3.082   8.125   8.242  0.1572 -0.6356  0.0508
  742MOL0     H  133   3.331   8.218   8.227 -0.1041 -1.1329  0.6635
  742MOL0     H  134   3.534   8.133   7.896  2.2969  0.1060  3.4107
  742MOL0     H  135   3.477   8.285   7.811 -2.4384 -0.5471  0.4670
  742MOL0     H  136   3.667   8.405   7.891 -0.1542  0.2561  0.2509
  742MOL0     H  137   3.706   8.285   8.016 -1.0926 -1.6532  0.6805
  742MOL0     H  138   3.746   8.123   7.829 -0.6811  0.9810 -0.4535
  742MOL0     H  139   3.742   8.266   7.714  0.7754  2.2533  0.9198
  742MOL0     H  140   3.946   8.220   7.950  0.2471  2.3605  0.1259
  742MOL0     H  141   3.918   8.366   7.855 -1.4899  0.1046 -0.7114
  742MOL0     H  142   3.973   8.249   7.654  0.8369  2.4688  1.2892
  742MOL0     H  143   3.979   8.091   7.718  1.5007  0.3966 -3.5040
  742MOL0     H  144   4.191   8.185   7.851 -1.5000  0.1128  0.3638
  742MOL0     H  145   4.201   8.187   7.668  0.6570  1.3321 -0.0473
  742MOL0     H  146   4.132   8.432   7.847  0.8860  0.4376 -0.0148
  742MOL0     H  147   4.131   8.432   7.672  1.4181 -0.2558 -1.4652
  742MOL0     H  148   4.375   8.380   7.676  0.3415 -3.3730  1.8332
  742MOL0     H  149   4.335   8.532   7.760 -0.3693  0.2602 -0.9977
  742MOL0     H  150   3.279   8.302   7.812 -1.3715 -2.9732 -1.1841
  742MOL0     H  151   3.040   8.227   7.833  0.5743 -1.6503 -1.2878
  742MOL0     H  152   2.738   7.814   8.170  0.0559  1.8868 -0.4149
  742MOL0     H  153   2.479   7.780   8.186 -1.3615  0.6438  0.6968
  742MOL0     H  154   0.596   7.739   8.099 -1.3058  2.2355 -0.3185
  742MOL0     H  155   0.405   7.809   8.030  0.0193 -2.5501  0.0086
  742MOL0     H  156   0.160   7.898   7.584 -1.1188 -3.8234  0.9517
  742MOL0     H  157  -0.051   7.904   7.488 -1.3179 -0.9517  0.1414
  742MOL0     H  158  -0.278   7.780   7.534  0.2709  0.8455  3.6643
  742MOL0     H  159  -0.276   7.928   7.424 -0.5861 -0.7564 -1.6544
  742MOL0     H  160  -0.512   7.816   7.576 -0.0843  1.0677  0.7095
  742MOL0     H  161  -0.483   7.808   7.401 -0.7783  1.1866 -0.8284
  742MOL0     H  162  -0.509   8.023   7.345 -0.0741 -1.3738  0.1648
  742MOL0     H  163  -0.509   8.082   7.515 -0.7855  0.2701 -0.5993
  742MOL0     H  164  -0.731   7.921   7.397  1.3509 -1.9401  0.9288
  742MOL0     H  165  -0.712   7.974   7.571  1.2627  3.7633  1.0848
  742MOL0     H  166  -0.823   8.342   7.404  2.5652  0.3538 -1.2449
  742MOL0     H  167  -0.212   8.042   7.868  2.4672  1.7795  2.0076
  742MOL0     H  168   0.060   7.942   8.053  3.3633  1.2032 -2.0715
  742MOL0     H  169   0.077   8.120   8.014 -0.5297  0.7635  0.8327
  742MOL0     H  170  -0.072   8.054   8.066 -0.9894 -0.1083 -0.5599
  743MOL0     O  171   8.304   6.882   2.589 -0.6189  0.3762 -0.2211
  743MOL0     C  172   8.262   6.964   2.673 -0.4615 -0.8583  0.7933
  743MOL0     O  173   8.340   7.025   2.765 -0.3419 -0.7676  0.1430
  743MOL0     C  174   8.476   7.010   2.770 -0.5911  0.0698  0.2448
  743MOL0     C  175   8.535   7.131   2.813 -0.4278  0.3508 -0.1069
  743MOL0     C  176   8.670   7.131   2.857 -0.0413  0.1509  0.0031
  743MOL0     C  177   8.750   7.010   2.854  0.7694 -0.4038  0.0410
  743MOL0     O  178   8.867   7.010   2.926  0.2989 -0.1504 -0.5830
  743MOL0     C  179   8.977   7.004   2.837 -0.4245  0.0789 -0.4172
  743MOL0     C  180   9.099   6.997   2.929 -0.4414 -0.0606  0.0448
  743MOL0     C  181   9.239   6.999   2.867  0.2832  0.2445 -0.1081
  743MOL0     C  182   9.355   6.987   2.961 -0.3189 -0.2617 -0.0588
  743MOL0     C  183   9.489   6.972   2.888  0.1481 -0.4257  0.3182
  743MOL0     C  184   9.592   6.911   2.984  0.6086  0.1087 -0.2491
  743MOL0     C  185   9.627   7.005   3.100 -0.1419  0.6925 -0.1354
  743MOL0     C  186   9.657   7.147   3.069  0.3725  0.0562  0.4898
  743MOL0     N  187   9.769   7.172   2.980 -0.8785 -0.1678  0.6208
  743MOL0     C  188   9.895   7.133   3.015 -0.3053  0.3460  0.9465
  743MOL0     C  189   9.974   7.191   2.920  0.2790 -0.6076  0.2272
  743MOL0     C  190  10.121   7.179   2.895  1.0306  0.0653 -1.2622
  743MOL0     C  191  10.144   7.050   2.817 -0.5121 -0.3248 -0.0142
  743MOL0     C  192  10.295   7.023   2.815 -0.3967 -0.4610  0.0396
  743MOL0     C  193  10.331   6.884   2.750 -0.3132 -0.6656 -0.5918
  743MOL0     O  194  10.288   6.882   2.616  0.3649 -0.8546 -1.2268
  743MOL0     C  195  10.332   6.779   2.541 -0.0091  0.3021 -0.0213
  743MOL0     C  196  10.382   6.659   2.605  0.3827 -0.8689  0.6660
  743MOL0     C  197  10.430   6.556   2.525  0.7715  0.6903 -0.5063
  743MOL0     C  198  10.418   6.555   2.384  0.4597  0.1521 -0.3601
  743MOL0     C  199  10.470   6.447   2.299  0.1592  1.1551  0.5914
  743MOL0     O  200  10.478   6.464   2.164 -0.5006 -0.5830 -0.1972
  743MOL0     C  201  10.510   6.363   2.081  0.1475  0.8519 -0.3425
  743MOL0     C  202  10.593   6.404   1.974 -0.4059  1.0607 -0.5322
  743MOL0     C  203  10.654   6.310   1.885 -0.6453  0.6031  0.1810
  743MOL0     C  204  10.614   6.173   1.888  0.0313  0.2786  0.1044
  743MOL0     O  205  10.665   6.087   1.795  0.1031 -0.0481 -0.7503
  743MOL0     C  206  10.683   5.947   1.823  0.3747 -0.6385  0.0170
  743MOL0     C  207  10.740   5.877   1.698  0.2268 -0.2631 -0.0391
  743MOL0     C  208  10.888   5.922   1.672  0.4846 -0.6050 -0.4890
  743MOL0     C  209  10.949   5.847   1.550 -0.0807 -0.3808  0.0939
  743MOL0     C  210  11.086   5.899   1.506 -0.6010  0.2996 -0.4226
  743MOL0     C  211  11.156   5.809   1.403  0.3387 -0.0068  0.1725
  743MOL0     C  212  11.302   5.861   1.376 -0.0635  0.1446  0.5712
  743MOL0     C  213  11.384   5.757   1.302 -0.8450 -0.0860  0.0408
  743MOL0    Cl  214  11.559   5.802   1.291 -0.3019  0.3869 -0.3525
  743MOL0     C  215  10.526   6.132   1.993 -0.1671 -0.2538  0.2859
  743MOL0     C  216  10.476   6.226   2.081 -0.6031 -0.5561  0.0389
  743MOL0     O  217  10.473   6.338   2.354  0.1144 -0.3116 -0.8149
  743MOL0     C  218  10.364   6.670   2.326  0.2466 -0.0316  0.4704
  743MOL0     C  219  10.325   6.781   2.398 -0.5313 -0.1997  0.3998
  743MOL0     N  220   9.900   7.277   2.842 -0.0995  0.7472  0.0562
  743MOL0     N  221   9.774   7.271   2.880  0.0171 -0.1343  0.4438
  743MOL0     C  222   8.686   6.897   2.814 -0.8431  0.3861  0.2320
  743MOL0     C  223   8.551   6.889   2.769  0.1560  0.5861  0.0762
  743MOL0     C  224   8.115   6.998   2.649  0.2321 -0.5269 -0.4344
  743MOL0     C  225   8.046   6.943   2.538  0.6870 -0.0319 -0.5642
  743MOL0     C  226   7.914   6.973   2.509  1.0588  0.1190  0.0807
  743MOL0     C  227   7.838   7.062   2.581  0.3067  0.2708  1.1620
  743MOL0     O  228   7.703   7.090   2.560  0.0237  0.0716 -0.3497
  743MOL0     C  229   7.637   7.028   2.449 -0.3248  0.3367 -0.0381
  743MOL0     C  230   7.488   7.068   2.459  0.4007  0.4648  0.0737
  743MOL0     C  231   7.415   7.015   2.336  0.3517 -0.1287 -0.7096
  743MOL0     C  232   7.265   7.050   2.341  0.3251  0.8399 -0.3824
  743MOL0     C  233   7.190   6.969   2.438  0.6276 -0.1009  0.2674
  743MOL0     C  234   7.119   6.905   2.514  0.4899  0.3414  0.2801
  743MOL0     C  235   7.904   7.118   2.691 -0.3932 -0.4948  0.5558
  743MOL0     C  236   8.042   7.091   2.724 -0.0639  0.2461 -0.5717
  743MOL0     C  237   8.107   7.157   2.844  0.2219 -0.8099 -0.4545
  743MOL0     H  238   8.476   7.222   2.815  1.0673  1.3490  0.4927
  743MOL0     H  239   8.707   7.221   2.904  0.5398 -2.1139  4.4201
  743MOL0     H  240   8.975   6.917   2.772 -2.6579  0.8704 -1.5236
  743MOL0     H  241   8.982   7.090   2.770  1.5804  0.7752  0.5238
  743MOL0     H  242   9.095   6.906   2.989 -0.4334 -0.3474 -0.3877
  743MOL0     H  243   9.090   7.081   2.998 -1.7741 -0.2175  0.0835
  743MOL0     H  244   9.254   7.092   2.811  3.8162  0.1824  0.5167
  743MOL0     H  245   9.256   6.920   2.793  1.4952 -1.5800  2.0129
  743MOL0     H  246   9.366   7.079   3.019  0.2543  1.7531 -3.1372
  743MOL0     H  247   9.334   6.902   3.027 -0.9805  0.8362  1.2178
  743MOL0     H  248   9.492   6.909   2.799  1.7119  0.5572 -0.3785
  743MOL0     H  249   9.526   7.071   2.859 -3.1392  0.9842  0.4734
  743MOL0     H  250   9.557   6.813   3.018  0.0104  0.0842 -0.9122
  743MOL0     H  251   9.679   6.895   2.920  2.4853  3.5584  1.1318
  743MOL0     H  252   9.705   6.955   3.158  1.0208  0.2468 -1.9766
  743MOL0     H  253   9.538   6.995   3.163 -0.3225 -5.2048 -0.7431
  743MOL0     H  254   9.571   7.196   3.022  1.3084  3.2950  1.8810
  743MOL0     H  255   9.678   7.185   3.169 -3.5118  2.3675  0.6326
  743MOL0     H  256   9.931   7.076   3.100  0.7566 -0.0313  0.2718
  743MOL0     H  257  10.152   7.273   2.847  5.6209  0.4680  1.9255
  743MOL0     H  258  10.167   7.177   2.994  0.0413  0.1018 -0.7838
  743MOL0     H  259  10.085   6.967   2.857  0.6370 -0.5151  1.3571
  743MOL0     H  260  10.114   7.061   2.712  0.4082 -1.4984 -0.4149
  743MOL0     H  261  10.326   7.015   2.919  1.3563 -2.0182 -0.5485
  743MOL0     H  262  10.349   7.108   2.774  0.7844 -0.4951  1.4326
  743MOL0     H  263  10.274   6.813   2.810  0.2079 -0.4939  0.1201
  743MOL0     H  264  10.439   6.869   2.751 -0.3699 -1.1803 -1.3593
  743MOL0     H  265  10.385   6.649   2.713 -0.7715  0.4234  0.8480
  743MOL0     H  266  10.466   6.466   2.573  0.5666  2.1078  2.5439
  743MOL0     H  267  10.625   6.508   1.974  1.7764  0.4253 -0.1461
  743MOL0     H  268  10.729   6.338   1.811  1.1478 -0.3162  1.5787
  743MOL0     H  269  10.745   5.927   1.911  1.1033 -2.3543 -0.8488
  743MOL0     H  270  10.586   5.900   1.842  0.1966  0.1242  1.1339
  743MOL0     H  271  10.744   5.768   1.709  0.8659 -0.2050  0.3894
  743MOL0     H  272  10.675   5.903   1.615  1.6117  3.4696 -0.1690
  743MOL0     H  273  10.898   6.029   1.652  1.2572  0.0207  2.7761
  743MOL0     H  274  10.953   5.899   1.757 -1.3072  1.4767  1.5937
  743MOL0     H  275  10.878   5.837   1.467  2.3678  0.6996 -2.2652
  743MOL0     H  276  10.959   5.742   1.579 -3.2489 -1.0370 -0.7220
  743MOL0     H  277  11.150   5.895   1.595  0.7888 -0.8634 -1.4190
  743MOL0     H  278  11.101   5.997   1.461  1.9714  0.2998  0.3024
  743MOL0     H  279  11.152   5.705   1.437 -1.7554 -0.1030 -0.2603
  743MOL0     H  280  11.103   5.816   1.308  1.1564 -2.2047 -0.5017
  743MOL0     H  281  11.348   5.883   1.473 -0.0871  1.0981  0.3707
  743MOL0     H  282  11.298   5.949   1.312  1.3656 -2.3462 -3.2543
  743MOL0     H  283  11.382   5.661   1.354  4.7017  1.2556  3.5410
  743MOL0     H  284  11.345   5.727   1.204 -3.2394  0.2289  0.8141
  743MOL0     H  285  10.501   6.027   2.009  2.4439 -1.4830 -2.4927
  743MOL0     H  286  10.411   6.191   2.161  1.5621 -1.1831  1.6299
  743MOL0     H  287  10.339   6.662   2.220 -1.0589 -1.9310  0.8712
  743MOL0     H  288  10.277   6.867   2.353 -4.5618 -1.7384  1.2710
  743MOL0     H  289   8.738   6.803   2.828 -0.3673  0.6761  0.4631
  743MOL0     H  290   8.490   6.800   2.757  0.7712  0.3068 -1.1638
  743MOL0     H  291   8.086   6.864   2.476 -2.1419  1.7440 -5.0876
  743MOL0     H  292   7.859   6.927   2.428 -2.6001  2.0524  1.2681
  743MOL0     H  293   7.639   6.921   2.469  2.6532  0.3365  0.0448
  743MOL0     H  294   7.679   7.046   2.350  1.6748 -2.7565  0.1142
  743MOL0     H  295   7.482   7.177   2.464 -0.4204  0.3613  1.9973
  743MOL0     H  296   7.460   7.025   2.555 -0.4111 -1.0729 -0.8214
  743MOL0     H  297   7.425   6.906   2.339 -0.8776 -0.2574 -0.9601
  743MOL0     H  298   7.471   7.055   2.251  2.0552  1.1884  0.9360
  743MOL0     H  299   7.266   7.152   2.382  1.5780 -0.0958  2.0991
  743MOL0     H  300   7.217   7.048   2.243 -2.1130 -1.3288  0.7452
  743MOL0     H  301   7.071   6.828   2.571  2.0759 -2.5548 -2.0410
  743MOL0     H  302   7.835   7.179   2.748 -4.3230 -5.0998  1.3202
  743MOL0     H  303   8.152   7.089   2.916  3.3536 -0.6514 -2.1028
  743MOL0     H  304   8.184   7.223   2.801 -1.2331  0.2832 -1.5093
  743MOL0     H  305   8.037   7.221   2.898  0.6143 -0.5460 -0.2562
  744MOL0     O  306   9.249  10.683   7.183 -0.0498 -0.3015  0.5515
  744MOL0     C  307   9.184  10.712   7.286  0.0897 -1.2025 -0.8574
  744MOL0     O  308   9.237  10.744   7.403  0.1188 -0.8567 -0.2631
  744MOL0     C  309   9.372  10.758   7.420 -0.4171 -0.1985  0.6574
  744MOL0     C  310   9.456  10.842   7.342 -0.2987 -0.4837 -0.8837
  744MOL0     C  311   9.595  10.835   7.352 -0.5091 -0.4042  1.1745
  744MOL0     C  312   9.661  10.755   7.448  0.5113 -0.1779 -0.7279
  744MOL0     O  313   9.792  10.738   7.456  0.4197 -0.5010  0.9596
  744MOL0     C  314   9.875  10.804   7.359  0.3054  0.5364  0.8431
  744MOL0     C  315  10.007  10.742   7.392 -0.1894 -0.6781  0.0718
  744MOL0     C  316  10.126  10.800   7.313  0.1029 -0.1067  0.1530
  744MOL0     C  317  10.262  10.777   7.385  0.4252  0.0366 -0.0949
  744MOL0     C  318  10.364  10.839   7.286  0.3995  0.9306 -0.4891
  744MOL0     C  319  10.501  10.862   7.354  0.0185  0.6676 -0.2412
  744MOL0     C  320  10.610  10.907   7.255  0.3925  0.0073 -0.4937
  744MOL0     C  321  10.722  10.971   7.334 -0.1649 -0.0362  0.2905
  744MOL0     N  322  10.827  11.054   7.266 -0.0927  0.5081 -0.5356
  744MOL0     C  323  10.797  11.163   7.196 -0.6918 -0.5653  0.8168
  744MOL0     C  324  10.912  11.218   7.150  0.7751 -0.4367 -0.2140
  744MOL0     C  325  10.921  11.327   7.050 -0.0468 -0.2659 -0.1248
  744MOL0     C  326  10.968  11.457   7.122 -0.6965 -0.9982  0.0460
  744MOL0     C  327  10.976  11.574   7.017  0.0716  0.5087 -0.5618
  744MOL0     C  328  11.021  11.709   7.069  0.0466 -0.2016 -0.6695
  744MOL0     O  329  11.165  11.704   7.079 -0.7019 -0.2440 -0.5961
  744MOL0     C  330  11.224  11.827   7.077  0.4912  0.2639  0.2417
  744MOL0     C  331  11.352  11.838   7.013  1.0848 -0.6546  0.0489
  744MOL0     C  332  11.404  11.969   6.991  0.8237 -0.7340  0.9350
  744MOL0     C  333  11.343  12.081   7.038  0.5268 -0.2285  0.1167
  744MOL0     C  334  11.398  12.215   6.996 -1.0518 -0.5852  0.6968
  744MOL0     O  335  11.375  12.314   7.085 -0.1985 -0.1061  0.1673
  744MOL0     C  336  11.422  12.440   7.066  0.7387 -0.3610  0.2597
  744MOL0     C  337  11.328  12.536   7.104 -0.2073  0.5604 -0.6527
  744MOL0     C  338  11.369  12.667   7.099  0.1867 -0.9847  0.5060
  744MOL0     C  339  11.489  12.710   7.037  0.1599  0.8354  0.4159
  744MOL0     O  340  11.540  12.841   7.020  0.2618 -0.1317  0.5573
  744MOL0     C  341  11.452  12.940   7.076  0.4570 -0.2709  0.6178
  744MOL0     C  342  11.510  13.080   7.043  0.3757  0.3602 -0.8346
  744MOL0     C  343  11.657  13.100   7.077 -0.4232  0.1349 -0.5361
  744MOL0     C  344  11.682  13.099   7.227  0.2518  0.9705  0.0788
  744MOL0     C  345  11.823  13.138   7.254  0.1304  0.4008 -0.4645
  744MOL0     C  346  11.873  13.113   7.402 -0.0219  0.1335  0.1640
  744MOL0     C  347  12.009  13.186   7.428  0.2632 -0.3102 -0.5620
  744MOL0     C  348  12.040  13.194   7.579  0.6246 -0.2160 -0.4812
  744MOL0    Cl  349  12.004  13.045   7.667  0.2554 -0.1460 -0.1335
  744MOL0     C  350  11.574  12.609   6.987  0.0452 -0.5756  0.0750
  744MOL0     C  351  11.545  12.476   7.001 -0.0209  0.5449 -0.1389
  744MOL0     O  352  11.455  12.223   6.887  0.3513  0.3846 -0.0862
  744MOL0     C  353  11.230  12.065   7.121  0.4349  0.6142 -0.3618
  744MOL0     C  354  11.167  11.940   7.138  0.2101  0.3090  0.0438
  744MOL0     N  355  11.012  11.138   7.197  0.5560  0.1053 -0.3842
  744MOL0     N  356  10.961  11.044   7.274  0.5048 -0.3349  0.0835
  744MOL0     C  357   9.581  10.672   7.524  0.5265 -0.7389  0.5009
  744MOL0     C  358   9.438  10.666   7.505  0.5443 -0.1048 -0.8584
  744MOL0     C  359   9.036  10.716   7.281  0.3177  0.2711  0.3562
  744MOL0     C  360   8.968  10.764   7.395  0.5481  0.4765  0.1831
  744MOL0     C  361   8.834  10.779   7.394  0.5257 -0.3383 -1.2007
  744MOL0     C  362   8.750  10.752   7.289 -0.2266 -0.1732 -0.2786
  744MOL0     O  363   8.620  10.765   7.295  0.2758  0.3223  0.2957
  744MOL0     C  364   8.538  10.658   7.337 -0.0099  1.4782  0.0082
  744MOL0     C  365   8.415  10.698   7.399 -0.6066  0.6843  0.3738
  744MOL0     C  366   8.346  10.583   7.477 -0.0736 -0.4085  0.1516
  744MOL0     C  367   8.197  10.617   7.493 -0.2027 -0.5774  0.7844
  744MOL0     C  368   8.112  10.524   7.560 -0.3623 -1.1489  0.0630
  744MOL0     C  369   8.041  10.435   7.608  0.1327 -0.4409  0.0030
  744MOL0     C  370   8.815  10.715   7.169  0.1433  0.0470 -1.1330
  744MOL0     C  371   8.953  10.686   7.170  0.1834  0.1062  0.7229
  744MOL0     C  372   9.003  10.620   7.046  0.5837 -0.2234  0.6041
  744MOL0     H  373   9.414  10.912   7.270 -0.0508  0.2806 -0.2941
  744MOL0     H  374   9.651  10.888   7.276 -1.2655  0.2152  1.0252
  744MOL0     H  375   9.845  10.777   7.257 -0.7050  1.1768  0.9496
  744MOL0     H  376   9.870  10.913   7.370 -4.1055  0.5040  1.0804
  744MOL0     H  377  10.005  10.633   7.382 -1.2366 -0.7589  0.9234
  744MOL0     H  378  10.028  10.749   7.499  0.2197 -1.4782  0.0570
  744MOL0     H  379  10.118  10.908   7.295  1.7746  0.1996  0.9868
  744MOL0     H  380  10.131  10.764   7.209  1.5220 -0.9424  0.4847
  744MOL0     H  381  10.259  10.835   7.478 -1.7028  1.2005 -0.8298
  744MOL0     H  382  10.279  10.671   7.408 -1.3619 -0.0661  0.9267
  744MOL0     H  383  10.375  10.771   7.202  0.5046  0.1869  0.1186
  744MOL0     H  384  10.336  10.939   7.252  0.7494  0.5522 -1.9382
  744MOL0     H  385  10.478  10.940   7.427  1.3430  0.6623  0.2059
  744MOL0     H  386  10.527  10.768   7.404  0.1818  0.8409 -0.0027
  744MOL0     H  387  10.561  10.981   7.191  1.8488  0.4895 -1.0866
  744MOL0     H  388  10.634  10.817   7.198 -2.8654  1.7832 -5.3581
  744MOL0     H  389  10.689  11.030   7.420 -0.3132 -0.2419  0.3766
  744MOL0     H  390  10.783  10.889   7.373  2.1066  1.6684  0.5494
  744MOL0     H  391  10.698  11.202   7.173 -1.0315 -1.9570 -0.1704
  744MOL0     H  392  10.988  11.306   6.965  1.1673  0.3320  0.6496
  744MOL0     H  393  10.822  11.348   7.008  0.3147  0.2650 -0.7463
  744MOL0     H  394  10.895  11.490   7.197  0.7023 -0.6394  1.2985
  744MOL0     H  395  11.062  11.433   7.172  0.7423  3.3129 -0.2040
  744MOL0     H  396  10.871  11.588   6.988 -0.7863 -2.1780  0.9191
  744MOL0     H  397  11.039  11.548   6.932 -0.7991  1.9627 -1.6958
  744MOL0     H  398  10.981  11.726   7.170  2.8877  0.1889  0.4635
  744MOL0     H  399  10.989  11.788   7.001 -0.4578  0.4573  0.3018
  744MOL0     H  400  11.411  11.760   6.966  3.5304  1.1605 -0.1071
  744MOL0     H  401  11.499  11.985   6.940  0.2784 -0.5283 -0.0383
  744MOL0     H  402  11.238  12.519   7.161  0.0066  1.3695 -0.0526
  744MOL0     H  403  11.294  12.741   7.124  1.2312  1.5047 -2.9657
  744MOL0     H  404  11.357  12.926   7.025  0.9638  0.4177 -0.5468
  744MOL0     H  405  11.439  12.915   7.182 -0.5343 -2.3082  0.0702
  744MOL0     H  406  11.504  13.085   6.934 -0.4549  0.7520 -0.7802
  744MOL0     H  407  11.445  13.157   7.085  1.7115  0.5729  0.9367
  744MOL0     H  408  11.720  13.036   7.015  2.2280  1.3093  0.7812
  744MOL0     H  409  11.684  13.202   7.047 -0.4752  0.3866  0.2489
  744MOL0     H  410  11.678  13.000   7.273  0.0132  0.9327 -0.0223
  744MOL0     H  411  11.617  13.169   7.280 -2.6464 -1.6771  0.3582
  744MOL0     H  412  11.832  13.245   7.231  2.8356  0.5490  0.9083
  744MOL0     H  413  11.889  13.080   7.189 -0.7455 -0.0881 -0.9289
  744MOL0     H  414  11.799  13.159   7.469 -0.1250  1.7536 -1.0102
  744MOL0     H  415  11.875  13.010   7.440 -0.1363  1.5181  4.6003
  744MOL0     H  416  12.014  13.285   7.382  0.3095  1.1689  2.4082
  744MOL0     H  417  12.087  13.124   7.382  1.8487  0.8935  0.4280
  744MOL0     H  418  12.147  13.217   7.591  1.2655 -3.2869  0.4871
  744MOL0     H  419  11.990  13.279   7.625  3.1563  1.2882 -0.3014
  744MOL0     H  420  11.668  12.646   6.945 -1.0069  2.0326 -0.1830
  744MOL0     H  421  11.612  12.409   6.947 -0.7773 -0.1064 -0.2747
  744MOL0     H  422  11.194  12.155   7.170 -1.7613 -0.3926 -0.0361
  744MOL0     H  423  11.076  11.927   7.196 -2.2444  0.5810 -3.4869
  744MOL0     H  424   9.636  10.593   7.574 -1.2286 -0.3139  3.3496
  744MOL0     H  425   9.380  10.603   7.571 -1.8106  1.9101 -0.8200
  744MOL0     H  426   9.022  10.801   7.482 -0.2252 -1.1778  1.4376
  744MOL0     H  427   8.792  10.819   7.486  1.0145 -1.1400 -0.6178
  744MOL0     H  428   8.584  10.580   7.398 -1.6891  0.8064  0.4819
  744MOL0     H  429   8.505  10.609   7.245 -2.8240  1.2061  1.0525
  744MOL0     H  430   8.350  10.761   7.338  3.1659  2.6765 -1.9439
  744MOL0     H  431   8.456  10.767   7.473  0.7454  0.4658 -0.1520
  744MOL0     H  432   8.392  10.587   7.576  2.8937 -0.1238 -1.1343
  744MOL0     H  433   8.356  10.481   7.437 -2.2052 -0.8674  0.6479
  744MOL0     H  434   8.176  10.717   7.532 -0.7026 -0.6364  0.6735
  744MOL0     H  435   8.161  10.624   7.390  0.9029  0.9914  0.4552
  744MOL0     H  436   7.972  10.375   7.663 -2.5168  2.1585 -0.2370
  744MOL0     H  437   8.753  10.702   7.081 -2.0930  0.4693  0.2996
  744MOL0     H  438   9.044  10.695   6.979 -1.0949 -0.0803 -0.2986
  744MOL0     H  439   9.076  10.547   7.083 -1.5504 -3.0886 -0.5159
  744MOL0     H  440   8.934  10.559   6.988 -0.4367  0.8126  0.7082
  745MOL0     O  441   2.807   0.991   2.173  0.1077  0.3961 -0.4408
  745MOL0     C  442   2.723   0.949   2.253 -1.2529 -0.0353  0.1874
  745MOL0     O  443   2.755   0.917   2.386 -0.6463  0.2066 -0.0693
  745MOL0     C  444   2.884   0.892   2.427  0.1854 -0.0876 -0.3266
  745MOL0     C  445   2.978   0.830   2.341 -0.9491 -0.6317  0.0587
  745MOL0     C  446   3.115   0.835   2.373  0.2972  0.1807 -0.7464
  745MOL0     C  447   3.150   0.876   2.509 -0.7341 -0.3058  0.4940
  745MOL0     O  448   3.288   0.869   2.536 -0.2004  0.7530 -0.0209
  745MOL0     C  449   3.318   0.805   2.661  0.2694  0.1380 -0.0332
  745MOL0     C  450   3.428   0.701   2.628 -0.0941 -0.0669 -0.7075
  745MOL0     C  451   3.467   0.637   2.762 -0.0934  0.0350  0.4518
  745MOL0     C  452   3.587   0.552   2.744 -0.1562 -0.6132 -0.5304
  745MOL0     C  453   3.603   0.461   2.863  0.0447 -0.0308 -0.6752
  745MOL0     C  454   3.723   0.370   2.854  0.7053 -0.1453 -1.0121
  745MOL0     C  455   3.853   0.442   2.862 -0.0262  1.5566  0.3527
  745MOL0     C  456   3.965   0.333   2.851 -0.4291 -0.6711  0.3483
  745MOL0     N  457   3.993   0.274   2.980 -0.0087  0.3845 -0.4425
  745MOL0     C  458   4.087   0.323   3.073 -0.3642 -0.7919  0.7298
  745MOL0     C  459   4.111   0.221   3.161  0.0270 -0.7181  1.9051
  745MOL0     C  460   4.211   0.211   3.279 -1.1758 -0.4617  0.6217
  745MOL0     C  461   4.353   0.264   3.251  0.2509 -0.7696 -0.3558
  745MOL0     C  462   4.439   0.269   3.380 -0.1216 -0.4604 -0.2826
  745MOL0     C  463   4.574   0.324   3.342 -0.0904 -0.6010  0.0331
  745MOL0     O  464   4.672   0.269   3.435 -0.5099 -0.6045 -0.0942
  745MOL0     C  465   4.802   0.290   3.408 -0.1414 -0.4191  0.1922
  745MOL0     C  466   4.856   0.386   3.319 -0.0109 -0.0472 -0.0984
  745MOL0     C  467   4.996   0.398   3.296  0.8558  0.2145 -0.8788
  745MOL0     C  468   5.082   0.314   3.363 -0.0436  0.3625 -1.1614
  745MOL0     C  469   5.226   0.341   3.344  0.1647  0.8291  0.2909
  745MOL0     O  470   5.309   0.297   3.440 -0.2265  0.1173 -0.4456
  745MOL0     C  471   5.438   0.343   3.433 -0.6442  0.1741  0.1476
  745MOL0     C  472   5.481   0.476   3.420  0.4830 -0.6256  0.6201
  745MOL0     C  473   5.613   0.514   3.427 -0.5949 -0.9515 -0.7702
  745MOL0     C  474   5.715   0.417   3.444  1.3642 -0.7816  0.3510
  745MOL0     O  475   5.846   0.452   3.435 -0.4275 -0.6603 -0.0193
  745MOL0     C  476   5.880   0.545   3.332 -0.8018  0.1664 -0.1932
  745MOL0     C  477   6.033   0.548   3.312  0.0171  0.0413  0.0371
  745MOL0     C  478   6.066   0.667   3.213  0.3626 -0.0190 -0.3213
  745MOL0     C  479   6.094   0.810   3.277  0.1637  0.0939  0.0877
  745MOL0     C  480   6.081   0.917   3.176  0.3741  0.2335 -0.0720
  745MOL0     C  481   6.054   1.048   3.251  0.9181  0.0467 -0.8029
  745MOL0     C  482   6.010   1.152   3.147  0.9929  0.3328 -0.0170
  745MOL0     C  483   5.982   1.285   3.209 -0.3548 -0.0825 -0.2938
  745MOL0    Cl  484   6.012   1.408   3.077  0.1598 -0.2657 -0.0992
  745MOL0     C  485   5.674   0.289   3.464  0.1143  0.2903 -0.7727
  745MOL0     C  486   5.538   0.245   3.462  0.5765 -0.4890  0.3472
  745MOL0     O  487   5.256   0.399   3.242 -0.2002 -0.4669 -0.0195
  745MOL0     C  488   5.034   0.211   3.452 -0.2841  0.0657  0.1847
  745MOL0     C  489   4.890   0.203   3.472 -1.0626  0.4202  0.1308
  745MOL0     N  490   4.032   0.110   3.120  0.6837 -0.9251 -0.0793
  745MOL0     N  491   3.959   0.147   3.025 -0.2235  0.8759  0.1323
  745MOL0     C  492   3.055   0.934   2.600  0.2646  0.2435  0.6514
  745MOL0     C  493   2.923   0.936   2.555  0.0990 -0.7898 -0.4772
  745MOL0     C  494   2.584   0.936   2.227  0.6165 -0.4211 -0.2533
  745MOL0     C  495   2.499   0.855   2.311 -0.7303 -0.0057 -0.1366
  745MOL0     C  496   2.367   0.829   2.286 -0.1535  0.9307 -0.0543
  745MOL0     C  497   2.302   0.883   2.179  0.0228 -0.1716  0.3218
  745MOL0     O  498   2.172   0.854   2.155 -0.0010 -0.0514  0.0533
  745MOL0     C  499   2.138   0.842   2.018 -0.1099 -0.6987 -0.1887
  745MOL0     C  500   2.026   0.737   2.008  0.0965  0.4266 -0.4623
  745MOL0     C  501   1.902   0.762   2.101 -0.5033  0.1147  0.3687
  745MOL0     C  502   1.801   0.874   2.048 -0.2767  0.8195  0.1308
  745MOL0     C  503   1.842   1.014   2.088 -0.2020  0.6637 -0.2779
  745MOL0     C  504   1.872   1.129   2.101  0.1351  0.3738 -0.4065
  745MOL0     C  505   2.382   0.965   2.090 -0.5580 -0.7602 -0.3856
  745MOL0     C  506   2.519   0.993   2.111  0.9401 -0.1933 -0.1038
  745MOL0     C  507   2.589   1.071   1.999  0.1044  0.8286  0.0892
  745MOL0     H  508   2.948   0.810   2.238 -2.3223 -0.4104  0.3969
  745MOL0     H  509   3.195   0.814   2.304 -1.4173 -0.6961 -2.5392
  745MOL0     H  510   3.350   0.883   2.730 -3.0098  3.0540 -1.5095
  745MOL0     H  511   3.233   0.743   2.692  1.9106 -2.1610  0.1466
  745MOL0     H  512   3.513   0.751   2.581 -1.0889  3.5510  1.0131
  745MOL0     H  513   3.394   0.622   2.560  1.8305 -0.2687 -1.5097
  745MOL0     H  514   3.379   0.589   2.805 -1.2600  1.3432 -0.4078
  745MOL0     H  515   3.488   0.721   2.829  0.2578  0.7362 -0.5228
  745MOL0     H  516   3.584   0.480   2.662  2.3952  2.8868 -4.0754
  745MOL0     H  517   3.675   0.612   2.719 -1.3846  0.2382 -3.2045
  745MOL0     H  518   3.625   0.518   2.953  3.1327 -0.5309 -1.0005
  745MOL0     H  519   3.504   0.416   2.876 -0.2550  0.4897 -1.1139
  745MOL0     H  520   3.731   0.306   2.943 -2.1196  0.1368 -0.4622
  745MOL0     H  521   3.719   0.308   2.764  0.6955 -2.4924  0.4950
  745MOL0     H  522   3.864   0.476   2.966 -0.2184 -3.0735  2.1166
  745MOL0     H  523   3.857   0.523   2.789  0.1686 -0.1008 -1.5523
  745MOL0     H  524   3.943   0.249   2.784  1.7100 -1.9512  1.1530
  745MOL0     H  525   4.059   0.371   2.809  0.2169 -2.7739 -0.2614
  745MOL0     H  526   4.128   0.423   3.083 -1.5515 -0.2857  0.7411
  745MOL0     H  527   4.166   0.265   3.363  0.5963 -1.4372  2.2723
  745MOL0     H  528   4.213   0.107   3.312  0.3415  0.2336  2.9893
  745MOL0     H  529   4.409   0.195   3.188  0.7748 -2.3441  1.7262
  745MOL0     H  530   4.354   0.363   3.204 -1.3260  0.5618  2.1328
  745MOL0     H  531   4.451   0.165   3.412 -0.6122 -0.5806 -0.4785
  745MOL0     H  532   4.396   0.320   3.467 -0.4818 -0.3803 -0.5069
  745MOL0     H  533   4.572   0.433   3.350 -0.7189 -0.6020 -0.0993
  745MOL0     H  534   4.606   0.298   3.240  0.4684 -0.0405  0.0572
  745MOL0     H  535   4.791   0.460   3.274 -0.7832 -0.8201 -0.2827
  745MOL0     H  536   5.037   0.470   3.226  1.2367  3.3778  2.3154
  745MOL0     H  537   5.402   0.550   3.407  1.5029  0.0746 -2.3409
  745MOL0     H  538   5.638   0.620   3.429  2.1235 -1.5094 -0.9280
  745MOL0     H  539   5.825   0.522   3.240 -0.7751  0.2358 -0.2273
  745MOL0     H  540   5.852   0.647   3.360  1.9835 -0.1410  4.7729
  745MOL0     H  541   6.076   0.568   3.410  2.2859  2.3762 -1.3094
  745MOL0     H  542   6.080   0.456   3.277 -0.6826 -0.3944  0.2161
  745MOL0     H  543   6.151   0.627   3.157 -1.5569 -1.8484 -2.1046
  745MOL0     H  544   5.986   0.686   3.140 -0.7941 -0.0574  0.8971
  745MOL0     H  545   6.199   0.814   3.306  0.8861  0.6211 -2.3183
  745MOL0     H  546   6.026   0.824   3.361  0.1608 -0.0835  0.1150
  745MOL0     H  547   5.987   0.894   3.123  0.6898  1.1041 -1.0577
  745MOL0     H  548   6.158   0.909   3.098  1.2140 -0.2881  0.7952
  745MOL0     H  549   5.981   1.037   3.331  0.0264  1.0548 -1.4391
  745MOL0     H  550   6.142   1.083   3.306  1.2236 -2.4002  0.3756
  745MOL0     H  551   5.921   1.118   3.094  0.8368 -2.9714  2.0639
  745MOL0     H  552   6.082   1.166   3.065 -0.5458 -1.1493 -1.6941
  745MOL0     H  553   5.875   1.298   3.225 -0.8199 -1.8850 -1.6247
  745MOL0     H  554   6.037   1.303   3.301  0.9866  1.9810 -1.4247
  745MOL0     H  555   5.753   0.219   3.486 -0.6108  0.2799  2.2066
  745MOL0     H  556   5.509   0.142   3.484  0.4623 -0.8334 -1.2860
  745MOL0     H  557   5.109   0.164   3.515  2.3896  1.2672 -1.9014
  745MOL0     H  558   4.856   0.133   3.548  1.4092 -1.5104 -0.3718
  745MOL0     H  559   3.079   0.991   2.689  0.4767 -0.8952  1.3375
  745MOL0     H  560   2.843   0.978   2.615  1.5787 -0.5876  1.4213
  745MOL0     H  561   2.539   0.794   2.391  0.7826 -0.3901 -1.1490
  745MOL0     H  562   2.304   0.758   2.340 -1.3584  1.2266 -1.0326
  745MOL0     H  563   2.216   0.810   1.949 -0.5866 -0.6537 -0.7558
  745MOL0     H  564   2.106   0.941   1.984  0.4212  0.0713  1.4531
  745MOL0     H  565   2.071   0.643   2.042 -0.7586  0.2111  0.1184
  745MOL0     H  566   1.990   0.736   1.905  2.0879  1.7234 -1.2356
  745MOL0     H  567   1.933   0.802   2.198  1.1842  0.7634 -0.4072
  745MOL0     H  568   1.849   0.667   2.116 -0.1887 -0.0021  0.7597
  745MOL0     H  569   1.799   0.868   1.939 -2.5290  1.7998  0.0532
  745MOL0     H  570   1.705   0.851   2.096  0.2199  1.2337  1.3729
  745MOL0     H  571   1.898   1.233   2.089 -0.1878  0.5126  0.0419
  745MOL0     H  572   2.336   1.009   2.002 -0.1777 -2.0216 -1.2501
  745MOL0     H  573   2.641   1.002   1.933 -1.2285 -0.7874  0.6778
  745MOL0     H  574   2.525   1.127   1.930  1.1159  1.2881 -0.4894
  745MOL0     H  575   2.659   1.143   2.043 -1.8727  1.4188  2.5595
  746MOL0     O  576   1.107   1.468   0.758 -0.3939 -0.0175 -0.3785
  746MOL0     C  577   1.096   1.459   0.636  0.5206 -0.3029 -0.3068
  746MOL0     O  578   1.180   1.385   0.557  1.0211  0.2487 -0.2036
  746MOL0     C  579   1.302   1.334   0.596 -0.0295  0.1382 -0.0379
  746MOL0     C  580   1.385   1.393   0.694 -0.8351 -0.6054 -0.1610
  746MOL0     C  581   1.506   1.333   0.725  0.1123 -0.2071  0.4594
  746MOL0     C  582   1.562   1.218   0.658 -0.0994  0.2630  0.4876
  746MOL0     O  583   1.683   1.167   0.706 -0.6976  0.6630 -0.0714
  746MOL0     C  584   1.741   1.047   0.642  0.0287 -0.3706  0.0809
  746MOL0     C  585   1.847   0.995   0.734  0.0102 -0.0087 -0.9616
  746MOL0     C  586   1.961   0.916   0.665  0.0721  0.0145 -0.1696
  746MOL0     C  587   2.060   0.870   0.766  0.6264 -0.6581 -0.2256
  746MOL0     C  588   2.188   0.805   0.709  0.3531  0.0845  0.6999
  746MOL0     C  589   2.167   0.665   0.653 -0.2117 -1.1397 -0.2189
  746MOL0     C  590   2.290   0.606   0.598  0.0718 -0.2511  0.7540
  746MOL0     C  591   2.255   0.472   0.535 -0.4678  0.4652 -0.3011
  746MOL0     N  592   2.353   0.392   0.472 -0.5146 -0.9433  0.0996
  746MOL0     C  593   2.394   0.420   0.348 -0.2487 -0.6125 -0.3878
  746MOL0     C  594   2.480   0.310   0.318  0.4920 -1.4447 -0.7961
  746MOL0     C  595   2.550   0.300   0.189 -0.6769  0.4649 -0.1226
  746MOL0     C  596   2.691   0.352   0.175  0.0918  0.1969  0.0526
  746MOL0     C  597   2.780   0.295   0.288  0.3468  0.3508 -0.1110
  746MOL0     C  598   2.795   0.135   0.285  0.4257 -0.3290  0.1611
  746MOL0     O  599   2.873   0.071   0.179  0.3550 -0.3787  0.6035
  746MOL0     C  600   3.009   0.072   0.185 -0.4385  0.5183  0.5347
  746MOL0     C  601   3.090   0.151   0.266 -0.1474  0.0315  0.1445
  746MOL0     C  602   3.227   0.141   0.254  0.4291 -0.8801  0.2837
  746MOL0     C  603   3.285   0.066   0.155  0.0892  0.2164  0.8179
  746MOL0     C  604   3.429   0.057   0.134 -0.0720 -0.0011 -0.4324
  746MOL0     O  605   3.503   0.123   0.236  0.3431  0.5390  0.6406
  746MOL0     C  606   3.639   0.112   0.240 -0.2602 -0.9266 -0.2830
  746MOL0     C  607   3.722   0.161   0.135 -0.3543  0.3617 -0.3451
  746MOL0     C  608   3.861   0.166   0.156  0.1751 -0.4138  0.3011
  746MOL0     C  609   3.917   0.117   0.268 -0.3392 -0.1241 -0.3235
  746MOL0     O  610   4.049   0.099   0.285 -0.2781  0.4442  0.3588
  746MOL0     C  611   4.126   0.217   0.284 -0.7062 -0.9393 -0.7907
  746MOL0     C  612   4.187   0.239   0.427 -1.4358  0.6182  0.0329
  746MOL0     C  613   4.277   0.363   0.409 -0.6329  0.5807 -0.2112
  746MOL0     C  614   4.397   0.375   0.505  0.5005  0.6028  0.6903
  746MOL0     C  615   4.491   0.488   0.485 -0.4781 -0.4809 -0.2138
  746MOL0     C  616   4.436   0.622   0.540  0.7181 -0.2730  0.6496
  746MOL0     C  617   4.516   0.744   0.507 -0.2971 -0.0300 -0.9815
  746MOL0     C  618   4.468   0.869   0.576 -0.4468  0.4534 -1.1650
  746MOL0    Cl  619   4.519   0.854   0.753  0.1561 -0.1854  0.2156
  746MOL0     C  620   3.830   0.065   0.368  0.0093 -0.1948  0.5762
  746MOL0     C  621   3.695   0.062   0.355  0.1029 -0.4116 -0.0835
  746MOL0     O  622   3.480  -0.031   0.063 -0.1535 -1.0827  0.3799
  746MOL0     C  623   3.207  -0.010   0.069  0.0097  0.0920 -0.2499
  746MOL0     C  624   3.066  -0.009   0.075  0.0495 -0.1250 -0.7871
  746MOL0     N  625   2.478   0.213   0.417 -0.2358 -0.5882  0.4171
  746MOL0     N  626   2.404   0.269   0.507 -0.6585 -0.1655 -0.2770
  746MOL0     C  627   1.483   1.161   0.559 -0.2774 -0.7325  0.5410
  746MOL0     C  628   1.355   1.212   0.536 -0.1021  0.5404  0.1891
  746MOL0     C  629   0.977   1.517   0.573 -0.0169 -0.6678  1.1314
  746MOL0     C  630   0.924   1.453   0.457  0.7370 -0.3798 -0.4966
  746MOL0     C  631   0.809   1.497   0.388 -1.5940 -0.2296  0.2671
  746MOL0     C  632   0.738   1.609   0.436 -0.3170 -0.0636 -0.8851
  746MOL0     O  633   0.629   1.650   0.380  0.5201  0.9614  0.3599
  746MOL0     C  634   0.509   1.585   0.421  0.4862  0.1217 -0.6297
  746MOL0     C  635   0.393   1.677   0.370 -0.3465  1.3960 -0.5186
  746MOL0     C  636   0.253   1.611   0.405 -0.2069 -0.2712 -0.0411
  746MOL0     C  637   0.223   1.476   0.343 -0.4361  0.1438  0.6475
  746MOL0     C  638   0.236   1.356   0.429 -0.1019 -0.5413 -0.0920
  746MOL0     C  639   0.248   1.268   0.509  0.4206 -0.7384  0.0144
  746MOL0     C  640   0.784   1.669   0.551 -0.8272  0.3376  0.9336
  746MOL0     C  641   0.906   1.629   0.616 -0.4990 -0.1320 -0.5582
  746MOL0     C  642   0.942   1.720   0.731  0.3803 -0.6632 -0.1789
  746MOL0     H  643   1.353   1.482   0.747 -0.6054 -0.9502  0.5674
  746MOL0     H  644   1.562   1.376   0.808  0.3741  1.4301 -0.5078
  746MOL0     H  645   1.672   0.964   0.627  0.1472 -0.2509 -1.2437
  746MOL0     H  646   1.789   1.071   0.547 -1.4669  0.1007 -0.5797
  746MOL0     H  647   1.797   0.942   0.816  0.1716  0.6309 -0.4429
  746MOL0     H  648   1.902   1.083   0.769 -0.6711  0.5606 -1.2962
  746MOL0     H  649   2.012   0.983   0.596  1.0483 -0.1989  0.3296
  746MOL0     H  650   1.919   0.826   0.619 -3.5603  0.4112  1.9411
  746MOL0     H  651   2.108   0.956   0.814  1.0042 -1.1126  0.2303
  746MOL0     H  652   2.013   0.809   0.844 -0.5265  0.9422  0.3904
  746MOL0     H  653   2.217   0.860   0.618  0.8170  0.1921  0.9087
  746MOL0     H  654   2.278   0.815   0.769 -0.4386 -0.6369  2.0388
  746MOL0     H  655   2.124   0.602   0.731 -1.8339  0.8386  0.5760
  746MOL0     H  656   2.088   0.667   0.577  0.5241  1.5601 -1.0191
  746MOL0     H  657   2.362   0.581   0.677  0.4364  0.3771  0.6267
  746MOL0     H  658   2.336   0.660   0.515  0.4465 -1.5463  0.0824
  746MOL0     H  659   2.212   0.402   0.608  0.3446  0.5793  0.3024
  746MOL0     H  660   2.180   0.492   0.458 -0.4678  0.8244 -0.2091
  746MOL0     H  661   2.349   0.496   0.286 -2.0531 -0.5977  0.8567
  746MOL0     H  662   2.546   0.195   0.160 -0.5539 -0.6041  3.2701
  746MOL0     H  663   2.492   0.350   0.111  0.6465  0.6748 -0.9951
  746MOL0     H  664   2.745   0.336   0.081 -1.2300 -0.3513 -0.6283
  746MOL0     H  665   2.688   0.461   0.181  1.4439  0.3107 -0.8725
  746MOL0     H  666   2.732   0.320   0.384  2.0086  1.0495  0.5712
  746MOL0     H  667   2.882   0.334   0.290  0.8067 -0.7965 -0.1951
  746MOL0     H  668   2.695   0.092   0.293 -0.3375  1.5599  1.6882
  746MOL0     H  669   2.838   0.099   0.379  2.1858 -0.9800 -0.8523
  746MOL0     H  670   3.041   0.211   0.342 -4.3727 -3.5537  0.6837
  746MOL0     H  671   3.285   0.187   0.334  1.8628 -0.7216 -0.8088
  746MOL0     H  672   3.676   0.201   0.045 -1.2926  1.1978  0.4785
  746MOL0     H  673   3.927   0.210   0.081 -1.3391  1.2445 -0.1325
  746MOL0     H  674   4.204   0.202   0.208 -1.3181 -2.2993 -1.1757
  746MOL0     H  675   4.068   0.306   0.257 -1.5414 -1.0615  0.5256
  746MOL0     H  676   4.116   0.264   0.506 -1.2407 -1.0645  0.7862
  746MOL0     H  677   4.250   0.155   0.458  0.2499  1.1809 -1.6343
  746MOL0     H  678   4.334   0.365   0.315  0.0558 -0.6969  0.1515
  746MOL0     H  679   4.218   0.454   0.424  1.3031  1.7298  0.8595
  746MOL0     H  680   4.444   0.276   0.505 -2.1062 -0.7474 -0.6782
  746MOL0     H  681   4.346   0.383   0.602 -1.8697 -1.1375 -0.2969
  746MOL0     H  682   4.508   0.510   0.379 -1.7245  4.2101  0.3414
  746MOL0     H  683   4.575   0.469   0.551 -0.5087  2.4069  0.8033
  746MOL0     H  684   4.336   0.641   0.500  0.5653  0.7020  1.4365
  746MOL0     H  685   4.430   0.600   0.647 -3.7928 -1.5588  0.3373
  746MOL0     H  686   4.508   0.764   0.400  0.8627 -1.9742 -1.4703
  746MOL0     H  687   4.620   0.727   0.535 -1.1961 -1.4776  1.9250
  746MOL0     H  688   4.508   0.965   0.542 -0.0521  1.0372  0.8035
  746MOL0     H  689   4.359   0.871   0.567 -0.6942 -0.2418  1.1194
  746MOL0     H  690   3.869   0.028   0.462 -0.4600  1.8577  1.6494
  746MOL0     H  691   3.646   0.013   0.438 -0.3275 -0.4751 -0.3730
  746MOL0     H  692   3.255  -0.076  -0.003  2.9762 -0.9009  2.4182
  746MOL0     H  693   3.001  -0.062   0.006 -1.7602 -0.3805  1.0381
  746MOL0     H  694   1.510   1.068   0.511  0.4513  0.0038 -0.5313
  746MOL0     H  695   1.281   1.169   0.470  1.0750  1.5339 -1.8683
  746MOL0     H  696   0.987   1.371   0.424 -1.0747 -1.7755 -0.6318
  746MOL0     H  697   0.761   1.453   0.301 -1.5757 -1.2963  0.7828
  746MOL0     H  698   0.499   1.603   0.529 -1.8285  0.1274 -0.7941
  746MOL0     H  699   0.495   1.484   0.382 -1.1393  1.0557 -2.6365
  746MOL0     H  700   0.402   1.694   0.262  0.2799  1.6840 -0.4250
  746MOL0     H  701   0.409   1.777   0.410 -0.2964 -0.2190  4.1268
  746MOL0     H  702   0.176   1.684   0.379  2.2905  3.2386  1.6146
  746MOL0     H  703   0.251   1.605   0.515 -1.0504  0.8228  0.0158
  746MOL0     H  704   0.116   1.470   0.321  0.1071 -1.0220 -2.1272
  746MOL0     H  705   0.283   1.469   0.252  1.4192  0.7907  1.7804
  746MOL0     H  706   0.254   1.196   0.588 -0.8986  0.3302  1.1122
  746MOL0     H  707   0.732   1.760   0.583 -0.3404  0.7191  0.6544
  746MOL0     H  708   1.026   1.690   0.793  0.4701 -1.1030 -0.5101
  746MOL0     H  709   0.950   1.822   0.691  2.6938  0.7741  3.4264
  746MOL0     H  710   0.857   1.719   0.801  1.8219 -1.2424  1.6281
  747MOL0     O  711   3.118   4.777   6.979  0.3205 -0.4474 -0.0158
  747MOL0     C  712   3.133   4.666   7.023  0.4075  0.4663 -0.1239
  747MOL0     O  713   3.242   4.585   6.995  0.1141  0.8523  0.1570
  747MOL0     C  714   3.363   4.628   6.946  0.4275 -1.0162  1.1276
  747MOL0     C  715   3.457   4.533   6.906 -0.2852 -0.1370 -0.1539
  747MOL0     C  716   3.570   4.563   6.829  0.4272  1.1814 -0.5748
  747MOL0     C  717   3.596   4.697   6.802  0.2099 -0.1084  0.1274
  747MOL0     O  718   3.702   4.722   6.720 -0.0650 -0.3628  0.1151
  747MOL0     C  719   3.735   4.860   6.694  0.2262 -0.2348  0.3092
  747MOL0     C  720   3.878   4.873   6.646 -0.1123  0.3694 -0.0753
  747MOL0     C  721   3.914   5.009   6.583  0.7277  0.6226  0.1836
  747MOL0     C  722   3.871   5.029   6.440  0.2710 -0.1377  0.7104
  747MOL0     C  723   3.901   5.170   6.395 -1.2880 -0.5477 -0.7685
  747MOL0     C  724   3.853   5.217   6.252 -0.2584 -0.4799  0.5973
  747MOL0     C  725   3.793   5.364   6.227  0.6466 -0.6862  0.1120
  747MOL0     C  726   3.890   5.470   6.283 -0.1858 -0.2507  0.3228
  747MOL0     N  727   4.023   5.456   6.217  0.3641  0.3782 -0.1844
  747MOL0     C  728   4.044   5.479   6.085  1.1024 -0.3466  0.0921
  747MOL0     C  729   4.170   5.430   6.064 -0.1858  0.1117 -0.2468
  747MOL0     C  730   4.248   5.412   5.932  0.0689  0.0035 -0.3103
  747MOL0     C  731   4.355   5.523   5.903 -0.4173 -0.2772 -0.4079
  747MOL0     C  732   4.467   5.529   6.014  0.6218  0.5218 -0.0375
  747MOL0     C  733   4.601   5.596   5.965  0.5697  0.6604 -0.0666
  747MOL0     O  734   4.648   5.531   5.842 -0.1084 -0.1880 -0.1264
  747MOL0     C  735   4.769   5.568   5.796  0.3362 -0.0542  0.2946
  747MOL0     C  736   4.819   5.495   5.698 -0.3095  0.4605 -0.2072
  747MOL0     C  737   4.953   5.514   5.657 -0.6083  0.0191 -0.2872
  747MOL0     C  738   5.040   5.603   5.717  0.3527  0.6583  0.0599
  747MOL0     C  739   5.192   5.601   5.681 -0.4926 -0.6078 -0.8983
  747MOL0     O  740   5.234   5.539   5.567 -0.0791 -0.2833 -0.0899
  747MOL0     C  741   5.367   5.520   5.541 -0.1307 -0.7404  0.7144
  747MOL0     C  742   5.395   5.407   5.472 -0.1164  0.1423 -0.1216
  747MOL0     C  743   5.528   5.371   5.446 -0.3243 -0.3807  0.2511
  747MOL0     C  744   5.635   5.448   5.491 -0.6126 -0.0525 -0.8788
  747MOL0     O  745   5.758   5.409   5.463 -0.1135  0.6534 -0.1273
  747MOL0     C  746   5.865   5.495   5.514  0.3248 -0.2206 -0.7998
  747MOL0     C  747   5.997   5.421   5.503  0.5565 -0.2999 -0.5404
  747MOL0     C  748   6.000   5.302   5.597 -0.1984 -0.0447  0.1743
  747MOL0     C  749   6.145   5.248   5.589  0.1346  0.3672 -0.5879
  747MOL0     C  750   6.135   5.094   5.608  0.2874  0.3227 -0.6890
  747MOL0     C  751   6.278   5.037   5.615  0.2946 -0.5023 -0.1513
  747MOL0     C  752   6.331   5.009   5.474 -0.3645 -0.6142 -0.3958
  747MOL0     C  753   6.473   4.956   5.476  0.7199  0.6316 -0.2556
  747MOL0    Cl  754   6.587   5.021   5.587 -0.2537 -0.0525  0.3436
  747MOL0     C  755   5.604   5.568   5.562  0.0091 -0.6234  0.1885
  747MOL0     C  756   5.468   5.601   5.581 -0.5852  0.6618  0.6077
  747MOL0     O  757   5.262   5.660   5.762  0.2684  0.2101  0.5600
  747MOL0     C  758   4.987   5.682   5.826  0.7338  0.1103  0.0045
  747MOL0     C  759   4.852   5.661   5.862  0.2772  0.3822  0.3638
  747MOL0     N  760   4.221   5.398   6.191  0.0589 -0.3738  0.1643
  747MOL0     N  761   4.132   5.412   6.283 -0.3885 -0.2015  0.1908
  747MOL0     C  762   3.503   4.792   6.839 -1.0712  0.0745 -0.5777
  747MOL0     C  763   3.393   4.761   6.912 -1.0166 -0.3888  0.1603
  747MOL0     C  764   3.024   4.607   7.106 -0.8430  0.6488  0.4215
  747MOL0     C  765   2.890   4.654   7.092  0.2351  0.6353  0.0982
  747MOL0     C  766   2.780   4.606   7.164 -0.4282 -1.1659  0.4972
  747MOL0     C  767   2.812   4.496   7.247  0.1793 -0.5708 -0.2035
  747MOL0     O  768   2.715   4.436   7.325 -0.2740 -0.1866 -0.9213
  747MOL0     C  769   2.587   4.497   7.314 -0.1959  0.0950  0.2954
  747MOL0     C  770   2.481   4.425   7.395  0.8256  0.0576 -0.7066
  747MOL0     C  771   2.480   4.272   7.381  0.2786 -0.5060  0.0649
  747MOL0     C  772   2.343   4.213   7.401 -0.5255  0.6273 -0.2825
  747MOL0     C  773   2.245   4.256   7.295 -0.6594  0.3228  0.1677
  747MOL0     C  774   2.171   4.280   7.195 -0.1863  0.0428  0.2647
  747MOL0     C  775   2.940   4.441   7.260  0.4248  0.2822 -0.1529
  747MOL0     C  776   3.050   4.501   7.196  0.0957  0.7117  0.4122
  747MOL0     C  777   3.189   4.448   7.238  0.4513  0.5913  0.7920
  747MOL0     H  778   3.434   4.433   6.940 -0.9670  0.1978  0.4101
  747MOL0     H  779   3.634   4.488   6.782 -0.7664 -1.8458  2.2685
  747MOL0     H  780   3.664   4.907   6.625  0.0866 -1.9119 -0.7528
  747MOL0     H  781   3.735   4.922   6.784  2.0436 -0.3005  0.3809
  747MOL0     H  782   3.909   4.790   6.583  1.8274 -0.7834  2.2570
  747MOL0     H  783   3.948   4.864   6.729  0.2776 -3.2190 -0.6593
  747MOL0     H  784   4.022   5.006   6.595  0.6677  1.3363  1.0332
  747MOL0     H  785   3.879   5.095   6.641  1.4988  0.3026  1.1572
  747MOL0     H  786   3.904   4.953   6.369 -0.0842 -0.0473  0.4444
  747MOL0     H  787   3.765   5.005   6.444  0.8967 -3.1228  2.5489
  747MOL0     H  788   3.854   5.243   6.462 -0.9900  0.5943 -1.7686
  747MOL0     H  789   4.008   5.188   6.409 -1.6678  0.4921  1.2250
  747MOL0     H  790   3.921   5.189   6.171 -2.9022 -2.5577 -1.1052
  747MOL0     H  791   3.767   5.153   6.227  0.9007 -1.7724 -0.1951
  747MOL0     H  792   3.701   5.370   6.285  1.0976 -2.3694  1.1011
  747MOL0     H  793   3.773   5.379   6.121  0.2183  0.3729  0.3341
  747MOL0     H  794   3.860   5.575   6.276  2.4148  0.5406 -0.0202
  747MOL0     H  795   3.894   5.451   6.390 -1.4284  1.4061  0.7229
  747MOL0     H  796   3.971   5.521   6.016  2.7360  2.4703 -0.0751
  747MOL0     H  797   4.298   5.315   5.925  0.8269  0.4427 -1.2380
  747MOL0     H  798   4.175   5.408   5.850  0.1980 -3.2018 -0.3738
  747MOL0     H  799   4.397   5.491   5.807 -0.2743  1.3128 -0.9134
  747MOL0     H  800   4.310   5.622   5.891  1.8069  0.7469 -0.9470
  747MOL0     H  801   4.493   5.428   6.048 -0.5613  0.3611  0.4520
  747MOL0     H  802   4.432   5.588   6.099 -1.7832  1.0359 -1.2902
  747MOL0     H  803   4.673   5.574   6.044  1.5721 -1.2587 -1.4329
  747MOL0     H  804   4.588   5.704   5.957 -4.2104  0.4205  1.3579
  747MOL0     H  805   4.748   5.429   5.650 -0.0391 -1.3006  1.7031
  747MOL0     H  806   4.996   5.445   5.585 -0.4045 -3.1086  2.5759
  747MOL0     H  807   5.309   5.343   5.452 -0.2608 -0.9089  3.2885
  747MOL0     H  808   5.550   5.274   5.402  1.0100 -1.2095  2.5742
  747MOL0     H  809   5.877   5.588   5.457  1.9801  1.3812  1.9366
  747MOL0     H  810   5.850   5.516   5.620 -0.4487 -0.5511 -0.8324
  747MOL0     H  811   6.020   5.391   5.400  2.4472  0.9547 -0.5375
  747MOL0     H  812   6.078   5.485   5.540 -0.7836 -0.3386  2.8243
  747MOL0     H  813   5.982   5.334   5.700 -1.7915 -3.2190  1.0490
  747MOL0     H  814   5.926   5.225   5.570  0.7412 -0.9887  0.2088
  747MOL0     H  815   6.214   5.301   5.655  0.7590  1.6787 -2.2305
  747MOL0     H  816   6.185   5.259   5.488 -0.5548 -1.3291 -1.0853
  747MOL0     H  817   6.082   5.036   5.532  1.9065 -0.7481 -1.0457
  747MOL0     H  818   6.081   5.078   5.701 -0.1973  2.0526 -0.6409
  747MOL0     H  819   6.331   5.104   5.683 -0.3308 -0.1694  0.0197
  747MOL0     H  820   6.277   4.944   5.674 -1.8986 -1.1917 -1.1692
  747MOL0     H  821   6.335   5.110   5.433  1.6037 -0.4736  0.0472
  747MOL0     H  822   6.260   4.953   5.413 -1.1196 -0.0681 -0.0440
  747MOL0     H  823   6.461   4.848   5.488 -4.6035  1.1369  1.8414
  747MOL0     H  824   6.510   4.968   5.374 -1.8231  1.0890 -1.2027
  747MOL0     H  825   5.672   5.647   5.595  0.0265 -0.4209 -0.3295
  747MOL0     H  826   5.451   5.698   5.627  1.2657  0.7993  1.0613
  747MOL0     H  827   5.054   5.755   5.870  1.5455 -0.8615  0.4210
  747MOL0     H  828   4.815   5.735   5.931 -0.4979  0.5449 -0.2106
  747MOL0     H  829   3.522   4.892   6.802 -0.4654  0.1160 -0.1686
  747MOL0     H  830   3.335   4.852   6.918  0.0038  0.3063 -0.3483
  747MOL0     H  831   2.856   4.727   7.019  1.1221  1.4481  0.4728
  747MOL0     H  832   2.685   4.651   7.135  1.3396  2.7966  0.1695
  747MOL0     H  833   2.557   4.492   7.210 -0.7845  1.5025  0.3862
  747MOL0     H  834   2.582   4.601   7.347 -0.9747 -0.4648  2.0775
  747MOL0     H  835   2.382   4.465   7.369  0.0489 -1.6634 -0.5409
  747MOL0     H  836   2.511   4.453   7.496  1.5587  2.2805 -1.4948
  747MOL0     H  837   2.550   4.225   7.451  0.6135  0.0909  0.1343
  747MOL0     H  838   2.518   4.241   7.283  1.4798  3.1377 -0.7705
  747MOL0     H  839   2.351   4.105   7.386 -0.4960  0.2104  2.2860
  747MOL0     H  840   2.297   4.232   7.499 -3.1435  0.5036 -1.4057
  747MOL0     H  841   2.100   4.294   7.116  0.6320 -2.1067 -0.9127
  747MOL0     H  842   2.949   4.365   7.336  3.5513  0.0217 -0.6837
  747MOL0     H  843   3.245   4.397   7.159 -2.0772  0.4274 -0.9967
  747MOL0     H  844   3.252   4.527   7.282 -0.8521  0.5850  2.7906
  747MOL0     H  845   3.179   4.369   7.313 -0.1028  0.9891  1.1460
  748MOL0     O  846   1.092   0.172   8.005  0.7267 -0.0078  0.1865
  748MOL0     C  847   1.014   0.202   8.092  1.2206 -0.8261  0.6090
  748MOL0     O  848   1.036   0.296   8.186 -0.2200  0.3369  1.0820
  748MOL0     C  849   1.163   0.346   8.184  0.8205 -0.3361 -0.2492
  748MOL0     C  850   1.184   0.471   8.141 -0.8098 -0.9643 -0.0599
  748MOL0     C  851   1.308   0.532   8.171 -0.7169 -0.3712 -0.0204
  748MOL0     C  852   1.412   0.459   8.234  0.0128  0.6792 -0.6455
  748MOL0     O  853   1.528   0.516   8.285  0.1286  0.3954  0.6523
  748MOL0     C  854   1.540   0.663   8.285 -0.0989  0.6016  0.6774
  748MOL0     C  855   1.605   0.723   8.150  0.5715  0.1459 -0.4233
  748MOL0     C  856   1.744   0.692   8.155 -0.9139 -0.1633  0.1319
  748MOL0     C  857   1.788   0.536   8.165 -0.1614 -0.6404  0.1310
  748MOL0     C  858   1.934   0.506   8.128 -0.3037 -0.5445 -0.6387
  748MOL0     C  859   1.983   0.371   8.184 -0.2398  0.4488  1.0649
  748MOL0     C  860   2.118   0.341   8.130 -0.4817 -0.3328  0.3452
  748MOL0     C  861   2.169   0.220   8.203 -0.1375 -0.2489  0.2599
  748MOL0     N  862   2.301   0.172   8.146  0.8321 -0.2921 -0.2445
  748MOL0     C  863   2.326   0.092   8.037  0.8748  0.0181 -0.4128
  748MOL0     C  864   2.459   0.070   8.032  0.3836  0.1827  0.3956
  748MOL0     C  865   2.521  -0.024   7.923 -0.0276  0.2405 -0.1790
  748MOL0     C  866   2.651  -0.095   7.961  0.4798 -0.2902  0.7140
  748MOL0     C  867   2.687  -0.208   7.857 -0.1191  0.7910  1.0329
  748MOL0     C  868   2.828  -0.256   7.885 -0.5422  0.4479 -0.4978
  748MOL0     O  869   2.883  -0.345   7.795  0.6193 -0.4792 -0.2733
  748MOL0     C  870   3.010  -0.380   7.824 -0.6569  0.7553 -0.0949
  748MOL0     C  871   3.079  -0.470   7.734 -0.4388  0.0067 -0.1860
  748MOL0     C  872   3.212  -0.509   7.756 -0.1846 -0.6258 -0.3127
  748MOL0     C  873   3.281  -0.469   7.873 -0.2304 -0.4935 -0.0544
  748MOL0     C  874   3.425  -0.513   7.886  0.7939  0.5829  0.1199
  748MOL0     O  875   3.480  -0.586   7.783  0.1946 -0.2845 -0.4140
  748MOL0     C  876   3.615  -0.595   7.784 -0.3670  0.3225  0.3054
  748MOL0     C  877   3.679  -0.708   7.829 -0.4419  0.1245 -0.3605
  748MOL0     C  878   3.821  -0.718   7.829 -0.0948  0.2237 -0.6221
  748MOL0     C  879   3.896  -0.611   7.775  0.2177  0.3648  0.2798
  748MOL0     O  880   4.033  -0.630   7.765 -0.9637 -0.5552  0.4307
  748MOL0     C  881   4.121  -0.507   7.743  0.8967 -1.1232 -0.7747
  748MOL0     C  882   4.261  -0.560   7.774 -0.7611  0.5338 -0.5120
  748MOL0     C  883   4.300  -0.562   7.921 -0.4106 -0.3690  0.3990
  748MOL0     C  884   4.442  -0.631   7.930 -0.3635  0.3406 -0.0060
  748MOL0     C  885   4.485  -0.680   8.076 -0.1658 -0.1190 -0.3939
  748MOL0     C  886   4.642  -0.708   8.097  0.3768  0.8049 -0.1444
  748MOL0     C  887   4.669  -0.753   8.235  0.1993  0.5290 -0.7389
  748MOL0     C  888   4.806  -0.814   8.266 -0.5606  0.8504 -0.4259
  748MOL0    Cl  889   4.925  -0.693   8.258  0.3966 -0.1783  0.2964
  748MOL0     C  890   3.831  -0.502   7.729  0.1486  0.7509  0.5487
  748MOL0     C  891   3.694  -0.493   7.734  0.1590 -0.6175  0.6805
  748MOL0     O  892   3.491  -0.462   7.981 -0.6583  0.8934  0.6814
  748MOL0     C  893   3.218  -0.379   7.961  0.0963  0.6120 -0.2930
  748MOL0     C  894   3.087  -0.348   7.938 -0.1358  0.2529 -0.1492
  748MOL0     N  895   2.515   0.153   8.127 -0.5826  0.3979  0.0706
  748MOL0     N  896   2.421   0.193   8.206  0.0188 -0.2831  0.0463
  748MOL0     C  897   1.391   0.326   8.254 -0.2151 -0.1077 -0.4010
  748MOL0     C  898   1.268   0.266   8.225 -0.1763 -0.2936  0.2201
  748MOL0     C  899   0.875   0.137   8.102 -0.2618 -0.5862  0.2818
  748MOL0     C  900   0.799   0.152   8.224  0.2476 -0.4108 -0.3151
  748MOL0     C  901   0.676   0.078   8.241  0.5254 -0.7454  0.4586
  748MOL0     C  902   0.622  -0.002   8.139  0.7631 -0.4515  0.4461
  748MOL0     O  903   0.503  -0.063   8.178  0.1951  0.1544  0.1394
  748MOL0     C  904   0.443  -0.139   8.073 -0.2478  0.4162 -0.1082
  748MOL0     C  905   0.314  -0.194   8.133  0.1785 -0.4216 -0.3080
  748MOL0     C  906   0.329  -0.301   8.237  0.1256  0.6104 -0.3236
  748MOL0     C  907   0.192  -0.366   8.287 -0.2675 -0.1629  0.6353
  748MOL0     C  908   0.097  -0.274   8.345 -0.3448 -0.4297  0.1995
  748MOL0     C  909   0.013  -0.193   8.395 -0.9512  0.8599 -0.5155
  748MOL0     C  910   0.688  -0.004   8.016 -0.1557 -0.4965 -0.1547
  748MOL0     C  911   0.819   0.060   7.996 -0.5018  0.0208  0.9815
  748MOL0     C  912   0.892   0.034   7.860 -0.4265 -0.2401  0.2589
  748MOL0     H  913   1.103   0.527   8.095  0.0176 -0.3071 -0.7556
  748MOL0     H  914   1.325   0.637   8.151  1.2533 -0.5353  0.6400
  748MOL0     H  915   1.447   0.715   8.313 -0.3252 -1.6011  4.8832
  748MOL0     H  916   1.613   0.687   8.362  1.3235  0.6812 -0.6550
  748MOL0     H  917   1.592   0.831   8.145  2.5959  0.6338  2.6035
  748MOL0     H  918   1.553   0.672   8.068  1.8642 -1.9379 -0.0052
  748MOL0     H  919   1.789   0.756   8.232 -0.9304  3.9985 -2.9631
  748MOL0     H  920   1.793   0.733   8.066  1.0791 -1.5377  0.5262
  748MOL0     H  921   1.789   0.507   8.271  1.1850  0.4522  0.4468
  748MOL0     H  922   1.715   0.467   8.120 -0.5616  0.7688 -1.4629
  748MOL0     H  923   1.955   0.505   8.020 -2.1924 -0.4896 -1.0386
  748MOL0     H  924   1.994   0.590   8.165 -0.3005 -0.8780  0.1210
  748MOL0     H  925   1.986   0.382   8.293  2.1263  1.2252  0.9649
  748MOL0     H  926   1.910   0.291   8.166  0.2782 -0.0185  0.9953
  748MOL0     H  927   2.192   0.420   8.142 -0.4363 -0.7513  3.6191
  748MOL0     H  928   2.106   0.313   8.025 -2.4577  1.5401 -0.0193
  748MOL0     H  929   2.191   0.239   8.309  1.0925 -2.4294  0.4696
  748MOL0     H  930   2.092   0.143   8.190 -0.9437  0.0892  2.6073
  748MOL0     H  931   2.252   0.051   7.969  0.8530  0.3913 -0.6185
  748MOL0     H  932   2.444  -0.094   7.890 -0.3305 -0.0221  1.0337
  748MOL0     H  933   2.537   0.041   7.837 -4.2871 -0.7171 -1.9677
  748MOL0     H  934   2.728  -0.020   7.978 -1.1831  1.0643  2.7755
  748MOL0     H  935   2.638  -0.141   8.060 -1.7611  1.0639  1.1369
  748MOL0     H  936   2.704  -0.164   7.758 -1.8610 -1.5179 -0.4092
  748MOL0     H  937   2.608  -0.283   7.848 -1.1978  1.9262  0.6646
  748MOL0     H  938   2.825  -0.308   7.982 -0.1605 -0.9828 -1.2203
  748MOL0     H  939   2.892  -0.168   7.894 -0.2669  0.2367 -0.3565
  748MOL0     H  940   3.036  -0.496   7.638  0.0472 -1.8616  0.0708
  748MOL0     H  941   3.259  -0.571   7.680  0.7870 -1.2555  0.7629
  748MOL0     H  942   3.622  -0.790   7.870 -1.6941  0.8222 -0.6633
  748MOL0     H  943   3.867  -0.807   7.869  0.7460  1.5278  1.4863
  748MOL0     H  944   4.123  -0.494   7.635 -0.0884  1.6813 -0.5342
  748MOL0     H  945   4.095  -0.415   7.796  1.5239 -1.0505 -0.5854
  748MOL0     H  946   4.277  -0.655   7.723  0.6762  0.9529 -0.8693
  748MOL0     H  947   4.336  -0.491   7.735  0.0312  0.5105  0.9295
  748MOL0     H  948   4.295  -0.458   7.957  0.0059 -0.1178 -0.2634
  748MOL0     H  949   4.230  -0.630   7.971 -1.2351 -0.5394 -0.9328
  748MOL0     H  950   4.523  -0.569   7.890 -1.0135  2.0019  1.1262
  748MOL0     H  951   4.438  -0.724   7.872 -1.6239 -0.2748  1.0240
  748MOL0     H  952   4.431  -0.772   8.102 -1.5799  0.6610 -0.5146
  748MOL0     H  953   4.464  -0.598   8.145  0.3223 -0.5164  0.2492
  748MOL0     H  954   4.665  -0.792   8.031  0.0751 -0.5675  1.4393
  748MOL0     H  955   4.702  -0.620   8.072  2.2861  0.1935  1.9648
  748MOL0     H  956   4.596  -0.826   8.270 -1.7390  1.7347 -2.0929
  748MOL0     H  957   4.647  -0.674   8.308 -0.0824 -1.5144  1.4838
  748MOL0     H  958   4.804  -0.866   8.362  0.2297 -0.0939 -0.8977
  748MOL0     H  959   4.822  -0.885   8.185 -0.8270 -2.3022  2.0900
  748MOL0     H  960   3.881  -0.417   7.683 -1.3177  0.9354 -0.7955
  748MOL0     H  961   3.655  -0.400   7.695  1.9478 -0.5174 -1.0299
  748MOL0     H  962   3.267  -0.351   8.054 -0.4817 -1.6079  0.7475
  748MOL0     H  963   3.040  -0.296   8.020  0.9037  0.8216  0.1045
  748MOL0     H  964   1.462   0.253   8.290 -0.8721 -1.3754 -1.6004
  748MOL0     H  965   1.237   0.164   8.245  0.4477 -0.4147  0.6200
  748MOL0     H  966   0.828   0.216   8.306 -1.2455  1.2863 -1.0174
  748MOL0     H  967   0.622   0.087   8.335 -0.8028  0.1354 -0.3526
  748MOL0     H  968   0.511  -0.222   8.050 -0.5092  0.1577  0.0568
  748MOL0     H  969   0.428  -0.076   7.985  1.2429  2.0705  0.7326
  748MOL0     H  970   0.262  -0.228   8.042 -1.7576  0.6440  0.3291
  748MOL0     H  971   0.267  -0.106   8.179  1.1046 -0.6067  1.0140
  748MOL0     H  972   0.390  -0.270   8.322  1.7922  0.4132 -1.4034
  748MOL0     H  973   0.373  -0.388   8.187 -1.1454 -0.8129  0.9663
  748MOL0     H  974   0.144  -0.410   8.200  3.1061  1.2659 -2.2021
  748MOL0     H  975   0.211  -0.444   8.361  0.7585  0.2184  0.7964
  748MOL0     H  976  -0.068  -0.129   8.424 -0.7933  1.0601 -0.5141
  748MOL0     H  977   0.650  -0.053   7.926 -0.1063 -2.0360  0.6290
  748MOL0     H  978   0.849  -0.055   7.812 -1.7467  1.7837 -2.5506
  748MOL0     H  979   0.886   0.121   7.795 -0.6988 -0.0049  0.5969
  748MOL0     H  980   0.992  -0.009   7.874  0.0406  0.6573 -0.2749
  749MOL0     O  981   9.783   5.807   6.552 -1.2433 -0.0061 -0.3710
  749MOL0     C  982   9.743   5.713   6.484 -0.3041  0.3340 -0.1967
  749MOL0     O  983   9.717   5.708   6.348 -0.4450 -0.3973  0.1112
  749MOL0     C  984   9.709   5.836   6.293  0.4955  0.5206 -0.1203
  749MOL0     C  985   9.633   5.950   6.341 -0.1581  0.6155 -0.2722
  749MOL0     C  986   9.619   6.070   6.277  0.2168 -0.0355  0.4236
  749MOL0     C  987   9.675   6.073   6.141 -0.3088  0.7313 -0.0761
  749MOL0     O  988   9.660   6.171   6.049 -0.0943  0.3376  0.1021
  749MOL0     C  989   9.617   6.309   6.081 -0.2968 -0.0088  0.5352
  749MOL0     C  990   9.742   6.392   6.108 -0.0990 -0.1963  0.2500
  749MOL0     C  991   9.846   6.404   5.991  0.2019  0.8383 -0.6925
  749MOL0     C  992   9.994   6.420   6.044 -0.0604 -0.6916  0.9761
  749MOL0     C  993  10.038   6.299   6.120 -0.0499  0.5518 -0.3756
  749MOL0     C  994  10.193   6.283   6.109 -0.7318  0.0046  0.3384
  749MOL0     C  995  10.243   6.168   6.210  0.4300  0.7608 -0.4217
  749MOL0     C  996  10.391   6.176   6.239  0.0792 -0.1076 -0.8541
  749MOL0     N  997  10.467   6.155   6.114 -0.6648  0.5261  0.5357
  749MOL0     C  998  10.499   6.247   6.017 -0.3286  0.3462  0.1834
  749MOL0     C  999  10.550   6.180   5.917 -0.0931 -0.7147  0.2325
  749MOL0     C 1000  10.591   6.228   5.789 -0.4896  0.1642  0.0792
  749MOL0     C 1001  10.746   6.215   5.763  0.9736 -0.3027  0.6711
  749MOL0     C 1002  10.814   6.292   5.651 -0.0917  0.5928 -0.8432
  749MOL0     C 1003  10.961   6.266   5.636 -0.1717 -0.2192  0.4509
  749MOL0     O 1004  11.029   6.306   5.757  0.4960 -0.3881  0.5491
  749MOL0     C 1005  11.168   6.285   5.785  0.4224  0.8933 -0.2002
  749MOL0     C 1006  11.201   6.300   5.920  0.2379  0.3071 -0.2447
  749MOL0     C 1007  11.329   6.282   5.964  0.4362  0.3048 -0.0687
  749MOL0     C 1008  11.429   6.251   5.870 -0.7187  0.1786  0.1947
  749MOL0     C 1009  11.572   6.233   5.904  0.2560  0.1973  1.7747
  749MOL0     O 1010  11.606   6.246   6.034  0.4639  0.7450  0.5057
  749MOL0     C 1011  11.736   6.236   6.074 -1.1588  0.0535  0.0702
  749MOL0     C 1012  11.841   6.172   6.004 -0.0961  0.1994 -0.0385
  749MOL0     C 1013  11.968   6.156   6.066 -0.3983 -2.0215 -0.5331
  749MOL0     C 1014  11.993   6.200   6.196  0.2361 -0.6872 -0.1916
  749MOL0     O 1015  12.121   6.176   6.247 -0.1269  0.2540  0.5362
  749MOL0     C 1016  12.148   6.229   6.380  0.2020  0.0941  0.4231
  749MOL0     C 1017  12.275   6.151   6.418 -0.1442  0.0036  0.2658
  749MOL0     C 1018  12.304   6.184   6.565  0.9969 -0.0346 -0.3787
  749MOL0     C 1019  12.441   6.136   6.600 -0.3451  1.1668 -0.8399
  749MOL0     C 1020  12.462   6.164   6.749 -0.6449  0.5902 -0.4854
  749MOL0     C 1021  12.579   6.090   6.817  0.2400 -0.4312 -0.0644
  749MOL0     C 1022  12.708   6.099   6.734  0.5531  0.5898  0.0622
  749MOL0     C 1023  12.833   6.071   6.818  0.3982 -0.1494 -0.2956
  749MOL0    Cl 1024  12.891   6.220   6.894 -0.3292 -0.2230  0.3756
  749MOL0     C 1025  11.891   6.272   6.260  0.3432  0.9196 -1.2919
  749MOL0     C 1026  11.763   6.288   6.202 -0.2738  0.2404 -0.2940
  749MOL0     O 1027  11.646   6.201   5.809 -0.5555 -0.4454  0.4776
  749MOL0     C 1028  11.401   6.250   5.731  0.2831 -0.0059  0.3662
  749MOL0     C 1029  11.267   6.259   5.688 -0.5303 -0.1090  0.0140
  749MOL0     N 1030  10.560   6.051   5.958 -0.2617 -0.2994 -1.0212
  749MOL0     N 1031  10.510   6.033   6.072  0.2009  0.0249  0.3908
  749MOL0     C 1032   9.747   5.965   6.090 -0.6647  0.8802  0.1877
  749MOL0     C 1033   9.773   5.848   6.173 -0.0993 -0.7755  0.0909
  749MOL0     C 1034   9.729   5.588   6.548 -0.8013 -0.1320  0.1719
  749MOL0     C 1035   9.830   5.550   6.640  0.7321 -0.5504 -0.1659
  749MOL0     C 1036   9.814   5.426   6.707 -0.3382  0.9461 -0.7191
  749MOL0     C 1037   9.709   5.338   6.673  0.2981 -0.6285 -1.0771
  749MOL0     O 1038   9.717   5.219   6.733  0.2563  0.2511 -0.0753
  749MOL0     C 1039   9.630   5.110   6.688  0.1790  1.1536  0.4699
  749MOL0     C 1040   9.663   4.977   6.755  0.0310 -0.7440 -1.1480
  749MOL0     C 1041   9.786   4.911   6.697 -0.9308 -0.3215  1.1007
  749MOL0     C 1042   9.814   4.777   6.768 -0.7127  0.5505  0.0373
  749MOL0     C 1043   9.946   4.727   6.723  1.3176  0.0420 -0.1229
  749MOL0     C 1044  10.050   4.671   6.700 -0.4356  0.1720  0.1096
  749MOL0     C 1045   9.608   5.377   6.584  0.0774  0.4987 -0.0776
  749MOL0     C 1046   9.620   5.497   6.518  0.2641  0.0573  0.0878
  749MOL0     C 1047   9.505   5.540   6.426 -0.5445 -0.1001 -0.4259
  749MOL0     H 1048   9.578   5.944   6.434  0.0392 -2.1751 -0.2293
  749MOL0     H 1049   9.555   6.145   6.323  3.5535  1.9522  2.1981
  749MOL0     H 1050   9.557   6.352   6.000 -1.2984 -2.3165 -0.0383
  749MOL0     H 1051   9.544   6.311   6.163 -0.2131 -2.1082  0.7113
  749MOL0     H 1052   9.796   6.348   6.193  1.6393  3.1695  1.0888
  749MOL0     H 1053   9.709   6.493   6.134 -1.7908 -0.1624 -1.7853
  749MOL0     H 1054   9.818   6.490   5.928  2.5950  1.8858 -0.4338
  749MOL0     H 1055   9.846   6.318   5.923 -0.2058  0.7700 -0.6084
  749MOL0     H 1056  10.060   6.439   5.958 -0.8802 -0.6857  0.3393
  749MOL0     H 1057   9.994   6.511   6.105  0.4336 -0.1621  0.2111
  749MOL0     H 1058  10.004   6.308   6.224  0.6811  2.7953 -0.2924
  749MOL0     H 1059   9.987   6.207   6.088 -1.5235  0.2617  2.4703
  749MOL0     H 1060  10.225   6.253   6.009  1.2173  0.8511  0.6547
  749MOL0     H 1061  10.238   6.381   6.129 -1.0557 -0.0401  1.3331
  749MOL0     H 1062  10.217   6.069   6.173  2.5339  0.2412 -0.6279
  749MOL0     H 1063  10.185   6.182   6.302 -3.7804 -2.9305 -2.1293
  749MOL0     H 1064  10.412   6.272   6.286 -2.2803 -0.1607  0.4704
  749MOL0     H 1065  10.418   6.100   6.313 -1.0357  1.3531  1.1558
  749MOL0     H 1066  10.465   6.350   6.029 -2.0228 -0.0134 -1.1964
  749MOL0     H 1067  10.534   6.175   5.712 -1.2183  1.0356  0.0090
  749MOL0     H 1068  10.553   6.330   5.784  1.7378  1.0179 -0.8521
  749MOL0     H 1069  10.798   6.238   5.856 -1.1510  1.4026  1.5125
  749MOL0     H 1070  10.765   6.111   5.736 -5.3295 -1.8108  0.3797
  749MOL0     H 1071  10.813   6.402   5.653 -1.0528  0.6229 -1.9729
  749MOL0     H 1072  10.757   6.267   5.561 -3.0790 -1.4805  1.4305
  749MOL0     H 1073  11.006   6.320   5.552  0.3915  0.2361  1.0448
  749MOL0     H 1074  10.970   6.161   5.609 -2.0270 -0.5583  1.0131
  749MOL0     H 1075  11.117   6.312   5.987  1.2514 -2.7220  1.7739
  749MOL0     H 1076  11.345   6.273   6.071 -2.5400 -4.1306  0.2445
  749MOL0     H 1077  11.841   6.121   5.908 -0.4251  1.5608 -0.7869
  749MOL0     H 1078  12.049   6.113   6.007  1.2151 -1.6718  1.3263
  749MOL0     H 1079  12.158   6.337   6.371 -1.2271  0.2085 -0.0018
  749MOL0     H 1080  12.061   6.199   6.440 -0.4589  2.8321  0.9866
  749MOL0     H 1081  12.250   6.044   6.412 -0.7475  0.1913 -0.7095
  749MOL0     H 1082  12.360   6.169   6.351  2.3827 -0.9488  2.9721
  749MOL0     H 1083  12.302   6.293   6.581  1.7168  0.3276 -2.4193
  749MOL0     H 1084  12.220   6.149   6.625  1.3093  0.6425  0.4674
  749MOL0     H 1085  12.522   6.191   6.551 -0.6359  1.5658 -0.8703
  749MOL0     H 1086  12.460   6.029   6.583  1.4679  1.4149 -0.5869
  749MOL0     H 1087  12.370   6.149   6.806 -0.4817  2.7020  0.4347
  749MOL0     H 1088  12.488   6.269   6.765 -0.4850  0.3595  0.8607
  749MOL0     H 1089  12.591   6.131   6.917 -1.4839 -1.7151  0.7172
  749MOL0     H 1090  12.552   5.986   6.833 -1.2025 -0.0965 -0.2464
  749MOL0     H 1091  12.727   6.189   6.675  2.3572 -0.1493 -0.5862
  749MOL0     H 1092  12.694   6.031   6.650  1.3474  1.0745 -0.4767
  749MOL0     H 1093  12.822   5.994   6.895  2.3355 -0.8187 -0.6170
  749MOL0     H 1094  12.914   6.024   6.761 -1.0903 -1.2075 -1.6286
  749MOL0     H 1095  11.886   6.316   6.359 -1.8333 -4.5760  1.4335
  749MOL0     H 1096  11.687   6.341   6.259 -0.0738  0.3097 -0.0900
  749MOL0     H 1097  11.473   6.235   5.652  1.5912 -0.5232  1.6214
  749MOL0     H 1098  11.250   6.256   5.581  1.0642  4.2255 -0.5504
  749MOL0     H 1099   9.804   5.976   5.999  0.5023 -0.9685  0.6268
  749MOL0     H 1100   9.835   5.768   6.133 -1.3352 -1.6993 -0.0493
  749MOL0     H 1101   9.915   5.617   6.646 -0.3841  0.7812  2.0857
  749MOL0     H 1102   9.891   5.394   6.777 -1.6597  1.5865  1.1156
  749MOL0     H 1103   9.634   5.105   6.579  1.2418  2.3124  0.4385
  749MOL0     H 1104   9.527   5.136   6.715 -0.6463 -0.7851 -0.5709
  749MOL0     H 1105   9.585   4.902   6.739 -0.3629  0.0101 -3.0975
  749MOL0     H 1106   9.667   4.990   6.864 -0.2342  1.9404 -1.3737
  749MOL0     H 1107   9.867   4.984   6.703  0.3839 -1.5867 -0.4773
  749MOL0     H 1108   9.772   4.885   6.592 -0.8659 -1.7713  1.4265
  749MOL0     H 1109   9.817   4.793   6.876 -0.0244  3.1778 -0.2885
  749MOL0     H 1110   9.740   4.708   6.728  0.3240  0.4011 -1.7525
  749MOL0     H 1111  10.135   4.618   6.662 -1.1002 -0.1161 -1.0417
  749MOL0     H 1112   9.528   5.310   6.557 -0.5593  0.7673  1.0514
  749MOL0     H 1113   9.484   5.647   6.416 -0.9100 -0.3383 -2.4923
  749MOL0     H 1114   9.541   5.514   6.326  0.7238  1.7063 -0.4958
  749MOL0     H 1115   9.413   5.490   6.456  0.0957 -0.0615  1.8255
  750MOL0     O 1116   4.158   3.503   2.489  0.1716 -0.2781 -0.1799
  750MOL0     C 1117   4.086   3.540   2.585 -0.0094  0.3539  0.9054
  750MOL0     O 1118   4.116   3.537   2.721  0.2371 -0.5735 -0.1445
  750MOL0     C 1119   4.240   3.502   2.771  1.0222  0.0099  0.1768
  750MOL0     C 1120   4.290   3.581   2.873  0.7250  0.1789  0.6819
  750MOL0     C 1121   4.408   3.553   2.927  0.1675  0.5687 -0.1984
  750MOL0     C 1122   4.478   3.441   2.894  0.1479 -0.1505  0.1800
  750MOL0     O 1123   4.582   3.421   2.978 -0.3924 -0.2078 -0.0326
  750MOL0     C 1124   4.684   3.334   2.923  0.6921 -0.2740 -0.3415
  750MOL0     C 1125   4.816   3.370   2.986  0.3060  0.3380  0.0713
  750MOL0     C 1126   4.934   3.290   2.926 -0.5860  0.4823 -0.9497
  750MOL0     C 1127   5.066   3.321   2.997 -0.2257  0.2828 -0.1524
  750MOL0     C 1128   5.171   3.285   2.898 -0.2838  0.2769  0.3885
  750MOL0     C 1129   5.305   3.335   2.941 -0.5735  0.0812 -0.6517
  750MOL0     C 1130   5.389   3.232   3.014 -0.0924 -0.0912 -0.2746
  750MOL0     C 1131   5.509   3.293   3.091 -0.1407 -0.6660  0.4510
  750MOL0     N 1132   5.612   3.353   2.993 -0.0647  0.4223 -0.6455
  750MOL0     C 1133   5.605   3.473   2.925  0.6189 -0.4859 -0.7117
  750MOL0     C 1134   5.734   3.484   2.874  1.1218 -0.4296  0.0095
  750MOL0     C 1135   5.786   3.605   2.796  0.1940 -0.4543 -0.2055
  750MOL0     C 1136   5.882   3.563   2.693 -0.0073 -0.1224  0.1002
  750MOL0     C 1137   5.911   3.675   2.596  0.1313  0.2695 -0.6391
  750MOL0     C 1138   6.048   3.656   2.522  0.2897  0.3620  0.0116
  750MOL0     O 1139   6.152   3.707   2.611  0.6426  0.2368  0.3218
  750MOL0     C 1140   6.265   3.745   2.557 -0.5471 -0.8549  0.3149
  750MOL0     C 1141   6.311   3.725   2.421 -0.1003 -0.9043 -0.9839
  750MOL0     C 1142   6.444   3.763   2.386 -0.2662  0.0603  0.1008
  750MOL0     C 1143   6.517   3.833   2.479 -0.2415  0.4763  0.5204
  750MOL0     C 1144   6.654   3.874   2.440  0.8913  0.3143 -0.7889
  750MOL0     O 1145   6.698   3.993   2.486  0.1028 -0.1504 -0.0426
  750MOL0     C 1146   6.834   4.026   2.479 -0.3139  0.3840 -1.2020
  750MOL0     C 1147   6.867   4.163   2.484 -0.1773 -0.0654 -1.1401
  750MOL0     C 1148   7.000   4.200   2.485  0.8687  0.4154 -0.2146
  750MOL0     C 1149   7.107   4.116   2.469  0.1566 -1.2092 -0.1793
  750MOL0     O 1150   7.233   4.172   2.448  0.6394 -0.0921  0.3657
  750MOL0     C 1151   7.353   4.103   2.409  0.9151  0.5192  0.6677
  750MOL0     C 1152   7.472   4.185   2.426 -0.6212  0.2836 -0.0130
  750MOL0     C 1153   7.584   4.135   2.338 -0.0451  0.4901  0.2433
  750MOL0     C 1154   7.724   4.180   2.378 -0.2135 -0.6646 -0.3982
  750MOL0     C 1155   7.818   4.060   2.374 -0.4925 -0.3644  0.0694
  750MOL0     C 1156   7.827   3.975   2.249  0.2279  0.7079  0.0318
  750MOL0     C 1157   7.898   4.027   2.128  0.2044 -0.3287 -1.2671
  750MOL0     C 1158   7.803   4.095   2.028  0.6418 -0.0202  0.4460
  750MOL0    Cl 1159   7.909   4.138   1.900 -0.2220  0.5941 -0.5254
  750MOL0     C 1160   7.080   3.978   2.466  0.6830  0.4249 -0.1420
  750MOL0     C 1161   6.947   3.937   2.472 -0.0950  0.6060 -0.2452
  750MOL0     O 1162   6.710   3.800   2.364  0.8185  0.1335  0.3911
  750MOL0     C 1163   6.471   3.860   2.601  0.8561 -0.4960 -0.1553
  750MOL0     C 1164   6.349   3.808   2.642 -0.0727  0.1404 -0.2197
  750MOL0     N 1165   5.809   3.379   2.907 -0.4154 -0.5918 -0.2164
  750MOL0     N 1166   5.731   3.296   2.972  0.1174  0.4657  0.1579
  750MOL0     C 1167   4.446   3.372   2.774  0.4754  0.4604  0.5424
  750MOL0     C 1168   4.326   3.406   2.714 -0.6651  1.5587 -0.3159
  750MOL0     C 1169   3.943   3.594   2.556  0.4499  0.0306  0.4582
  750MOL0     C 1170   3.851   3.614   2.656 -0.5957  0.2308 -0.3851
  750MOL0     C 1171   3.723   3.663   2.636  0.2479 -0.1901  0.4803
  750MOL0     C 1172   3.687   3.707   2.512 -0.6942  0.2112 -0.1213
  750MOL0     O 1173   3.569   3.772   2.484  1.1487  0.5222 -0.0354
  750MOL0     C 1174   3.477   3.802   2.592 -0.0762 -0.6731  0.5460
  750MOL0     C 1175   3.373   3.897   2.545  0.0605  0.4971  0.5909
  750MOL0     C 1176   3.268   3.820   2.463 -0.5378  0.7363 -0.4330
  750MOL0     C 1177   3.195   3.912   2.357 -0.3267  0.2037  0.3670
  750MOL0     C 1178   3.074   3.847   2.306 -0.4553 -0.1488 -1.0053
  750MOL0     C 1179   2.960   3.805   2.275 -0.1470  0.2352  0.1557
  750MOL0     C 1180   3.770   3.689   2.404 -0.6162  0.7550  0.6114
  750MOL0     C 1181   3.899   3.638   2.426 -0.2410  0.3175  0.1744
  750MOL0     C 1182   3.994   3.640   2.313  0.2378  0.5236 -0.2537
  750MOL0     H 1183   4.228   3.665   2.904 -2.9292 -2.3266  0.8491
  750MOL0     H 1184   4.448   3.611   3.010  2.6269  0.9588 -1.5457
  750MOL0     H 1185   4.649   3.236   2.956  1.2794 -0.3442  0.0709
  750MOL0     H 1186   4.699   3.328   2.814 -2.9484  0.0322 -0.9947
  750MOL0     H 1187   4.809   3.370   3.095  3.6378 -0.2666  0.3960
  750MOL0     H 1188   4.836   3.475   2.962 -0.8336  1.5255  3.7074
  750MOL0     H 1189   4.941   3.312   2.819  1.7843 -0.7593 -1.1253
  750MOL0     H 1190   4.904   3.187   2.945 -0.7008  0.5380 -0.8259
  750MOL0     H 1191   5.070   3.425   3.031  1.5960  0.0586  0.4837
  750MOL0     H 1192   5.077   3.251   3.081 -0.5560 -1.0763 -1.2150
  750MOL0     H 1193   5.187   3.179   2.878  1.9151  0.8714 -1.5333
  750MOL0     H 1194   5.154   3.327   2.798  0.4138 -2.9796 -1.2419
  750MOL0     H 1195   5.366   3.367   2.857  0.7329  2.5213  1.0930
  750MOL0     H 1196   5.294   3.427   3.000  0.4608 -0.7965  1.0029
  750MOL0     H 1197   5.416   3.150   2.946 -0.7778 -0.5879  0.0436
  750MOL0     H 1198   5.320   3.196   3.090  0.3231  1.8867  1.1226
  750MOL0     H 1199   5.474   3.369   3.162  0.6361 -1.2484  1.4907
  750MOL0     H 1200   5.557   3.219   3.155 -1.5073  0.1100  2.4943
  750MOL0     H 1201   5.523   3.543   2.930  0.5902 -0.4338 -1.7303
  750MOL0     H 1202   5.697   3.655   2.758 -1.0473 -1.7273  0.8815
  750MOL0     H 1203   5.834   3.671   2.869 -0.9379 -0.2464  0.3791
  750MOL0     H 1204   5.967   3.524   2.750 -1.0287 -1.6486  0.6436
  750MOL0     H 1205   5.845   3.476   2.639  1.9560 -1.9369  1.5392
  750MOL0     H 1206   5.919   3.773   2.643  0.5292  1.3124 -2.7658
  750MOL0     H 1207   5.827   3.671   2.527 -1.6158 -0.1380  1.3904
  750MOL0     H 1208   6.027   3.721   2.437 -0.5582  0.3554  0.2064
  750MOL0     H 1209   6.064   3.554   2.485 -0.8008 -0.7228  2.3602
  750MOL0     H 1210   6.246   3.670   2.354 -0.6390 -0.6995 -0.6319
  750MOL0     H 1211   6.489   3.720   2.297 -2.0591 -1.3631 -0.1565
  750MOL0     H 1212   6.787   4.227   2.518  0.5042  0.8137 -1.1536
  750MOL0     H 1213   7.019   4.303   2.514 -1.1990  0.4867  1.1115
  750MOL0     H 1214   7.368   4.012   2.469 -1.0054  0.6374  1.4088
  750MOL0     H 1215   7.325   4.082   2.306 -1.4540 -2.1824  1.7039
  750MOL0     H 1216   7.443   4.286   2.397 -1.6208  0.2546  0.8086
  750MOL0     H 1217   7.514   4.166   2.525  2.1228 -0.6149 -1.2479
  750MOL0     H 1218   7.569   4.027   2.333  0.9695  0.3648 -0.5359
  750MOL0     H 1219   7.575   4.172   2.236  0.6435 -1.7472 -0.6903
  750MOL0     H 1220   7.734   4.228   2.476 -1.9514  1.8877 -1.3809
  750MOL0     H 1221   7.752   4.257   2.304 -2.6158 -0.7105 -1.4313
  750MOL0     H 1222   7.798   3.997   2.461  0.3049 -0.3046  0.3074
  750MOL0     H 1223   7.917   4.106   2.385 -0.3199 -0.6138 -0.4111
  750MOL0     H 1224   7.886   3.888   2.278  1.4787 -0.4981 -5.1279
  750MOL0     H 1225   7.730   3.929   2.230  0.0443  1.3679 -0.7171
  750MOL0     H 1226   7.955   3.942   2.090  4.9243  1.4478  0.9834
  750MOL0     H 1227   7.976   4.102   2.144 -0.9376  0.5002  0.9389
  750MOL0     H 1228   7.729   4.026   1.985 -0.0694  1.5388 -0.9213
  750MOL0     H 1229   7.748   4.179   2.070 -1.1305 -1.3841  0.9820
  750MOL0     H 1230   7.160   3.904   2.464 -0.8761 -1.4257  1.2696
  750MOL0     H 1231   6.925   3.830   2.469 -0.1240  0.5657  0.9683
  750MOL0     H 1232   6.530   3.905   2.680  0.5078 -2.4528  1.3037
  750MOL0     H 1233   6.330   3.820   2.748  1.9399 -2.5508  0.5506
  750MOL0     H 1234   4.507   3.296   2.726 -1.6852 -1.6232  0.9275
  750MOL0     H 1235   4.278   3.357   2.630 -2.6075 -0.6281  1.8900
  750MOL0     H 1236   3.871   3.574   2.755  1.0460 -2.3655 -1.6664
  750MOL0     H 1237   3.664   3.670   2.727  0.7419 -4.2220  1.2960
  750MOL0     H 1238   3.528   3.846   2.678  0.6901 -1.1439  0.3412
  750MOL0     H 1239   3.425   3.709   2.619  1.2506 -1.3796  0.7400
  750MOL0     H 1240   3.433   3.966   2.486  0.9120 -1.2258 -0.6636
  750MOL0     H 1241   3.333   3.943   2.636  1.0178 -1.2268  1.9459
  750MOL0     H 1242   3.197   3.767   2.527  3.1868 -1.7359  2.0098
  750MOL0     H 1243   3.312   3.740   2.402 -2.6134 -2.2248  1.6852
  750MOL0     H 1244   3.170   4.006   2.407 -2.3525  0.9564 -1.9008
  750MOL0     H 1245   3.260   3.947   2.277 -1.0360  1.5186  0.3347
  750MOL0     H 1246   2.864   3.757   2.279  0.1487 -0.4946 -1.0821
  750MOL0     H 1247   3.729   3.720   2.309 -0.3559 -1.9357 -0.4524
  750MOL0     H 1248   3.955   3.694   2.227  0.1825  1.3205  0.2654
  750MOL0     H 1249   4.088   3.683   2.348 -0.4882  1.1947  0.9604
  750MOL0     H 1250   4.010   3.535   2.285 -1.2824 -0.2110  1.3516
  751MOL0     O 1251   9.381   7.945   5.706  0.3065  0.0417  0.5886
  751MOL0     C 1252   9.357   7.986   5.820  0.7538  0.2237  0.9412
  751MOL0     O 1253   9.288   7.922   5.921 -0.1478 -0.1997  0.3609
  751MOL0     C 1254   9.220   7.813   5.883  0.8217 -0.0307  0.2645
  751MOL0     C 1255   9.284   7.690   5.869 -0.3534 -0.4878  0.5275
  751MOL0     C 1256   9.215   7.572   5.834 -0.1267  0.3208 -0.2369
  751MOL0     C 1257   9.079   7.579   5.830 -0.1758  0.3423 -0.0954
  751MOL0     O 1258   9.006   7.467   5.798  0.5929  0.6027 -0.4779
  751MOL0     C 1259   9.049   7.386   5.686  0.2520 -0.5621  0.4342
  751MOL0     C 1260   8.938   7.294   5.628 -0.4931  0.4262 -0.7248
  751MOL0     C 1261   9.004   7.220   5.507 -0.3069  0.4787  0.1936
  751MOL0     C 1262   9.082   7.312   5.398  0.0187  0.4163  0.2119
  751MOL0     C 1263   8.991   7.427   5.342  0.5835 -0.0706 -0.3525
  751MOL0     C 1264   8.859   7.372   5.290 -0.7353 -0.1214 -0.4899
  751MOL0     C 1265   8.775   7.477   5.235  0.3524  0.5856 -0.6375
  751MOL0     C 1266   8.709   7.556   5.347 -0.1461 -0.1383 -0.2661
  751MOL0     N 1267   8.631   7.668   5.293  0.1482 -0.3463  0.3279
  751MOL0     C 1268   8.682   7.776   5.227 -0.4733 -0.8728  0.1348
  751MOL0     C 1269   8.578   7.859   5.218 -1.0503  0.2337  0.5470
  751MOL0     C 1270   8.578   7.981   5.139  0.4985  0.1161  0.5598
  751MOL0     C 1271   8.501   8.101   5.201 -0.5850 -0.2863 -0.1097
  751MOL0     C 1272   8.568   8.149   5.331  0.3386 -0.0914  1.0232
  751MOL0     C 1273   8.691   8.236   5.297  0.9483 -0.2901 -0.1337
  751MOL0     O 1274   8.721   8.302   5.415 -0.7304  0.4008  0.0196
  751MOL0     C 1275   8.730   8.438   5.410 -0.6594 -0.7707  0.1936
  751MOL0     C 1276   8.810   8.501   5.310  0.0735 -0.7759  0.3681
  751MOL0     C 1277   8.846   8.635   5.314  0.0614 -0.5241  1.0858
  751MOL0     C 1278   8.810   8.721   5.418 -0.0194 -0.2581  0.2378
  751MOL0     C 1279   8.852   8.861   5.422  0.1325 -0.7487 -0.7404
  751MOL0     O 1280   8.902   8.914   5.309 -0.6574 -0.4557 -0.4715
  751MOL0     C 1281   8.889   9.056   5.296 -0.1249  0.1506  0.4161
  751MOL0     C 1282   8.787   9.133   5.351  0.0951  0.2633 -0.0624
  751MOL0     C 1283   8.772   9.271   5.322 -0.1364 -0.5699  0.3032
  751MOL0     C 1284   8.866   9.328   5.235 -0.6224  0.7958  0.2480
  751MOL0     O 1285   8.851   9.455   5.184  0.0918  0.2919  0.5057
  751MOL0     C 1286   8.739   9.527   5.219 -0.4883 -0.5830  0.3133
  751MOL0     C 1287   8.757   9.679   5.191  0.2409  0.7265 -0.1556
  751MOL0     C 1288   8.640   9.751   5.252  0.2654 -0.7498  0.3227
  751MOL0     C 1289   8.646   9.902   5.231 -0.1702 -0.1496  0.1460
  751MOL0     C 1290   8.515   9.974   5.228  1.0440 -0.9249 -0.0561
  751MOL0     C 1291   8.414   9.940   5.341  0.1490  0.7955 -0.1813
  751MOL0     C 1292   8.297  10.033   5.327 -0.2298  0.2177  0.5061
  751MOL0     C 1293   8.182   9.999   5.422 -0.5353  0.6442  0.5486
  751MOL0    Cl 1294   8.130   9.827   5.396  0.0184  0.2782  0.1883
  751MOL0     C 1295   8.976   9.249   5.189 -0.2249  0.6027  0.2629
  751MOL0     C 1296   8.980   9.112   5.213 -1.0243  0.1768  0.3549
  751MOL0     O 1297   8.853   8.913   5.535  0.3421  0.0014 -0.0906
  751MOL0     C 1298   8.727   8.661   5.516 -0.0154 -0.0278  0.3573
  751MOL0     C 1299   8.693   8.523   5.514 -0.2337 -0.0072  0.1146
  751MOL0     N 1300   8.467   7.811   5.284  0.3042 -0.4251  0.2414
  751MOL0     N 1301   8.502   7.698   5.331  0.1916 -0.4778  0.0563
  751MOL0     C 1302   9.006   7.695   5.854  0.5587  0.1448 -0.0500
  751MOL0     C 1303   9.077   7.809   5.875 -0.2025 -0.8445  0.3488
  751MOL0     C 1304   9.400   8.126   5.841  0.2092 -0.6588  0.9712
  751MOL0     C 1305   9.492   8.183   5.741 -0.2322 -0.8296 -0.8501
  751MOL0     C 1306   9.548   8.314   5.755  0.1625  0.2709  0.3469
  751MOL0     C 1307   9.521   8.390   5.868  0.3968 -0.6831  0.2534
  751MOL0     O 1308   9.574   8.517   5.866 -0.1635  0.0930 -0.0001
  751MOL0     C 1309   9.532   8.615   5.966  0.2711  0.0107 -0.1422
  751MOL0     C 1310   9.615   8.601   6.095 -0.5740 -0.3667  0.6040
  751MOL0     C 1311   9.578   8.708   6.197 -0.4168 -0.3333  0.2349
  751MOL0     C 1312   9.610   8.851   6.145 -0.1046 -0.2754 -0.0093
  751MOL0     C 1313   9.747   8.869   6.102  0.3218 -0.2110  0.0937
  751MOL0     C 1314   9.861   8.882   6.061 -0.3655 -0.0970  0.0330
  751MOL0     C 1315   9.436   8.334   5.974 -0.3293  0.0565  0.6501
  751MOL0     C 1316   9.383   8.209   5.956 -0.4416 -0.0218 -0.0964
  751MOL0     C 1317   9.299   8.162   6.074  0.2326  0.2927  0.2209
  751MOL0     H 1318   9.393   7.688   5.870 -0.3025 -0.4405 -1.3576
  751MOL0     H 1319   9.260   7.474   5.822 -1.5726 -0.3153 -0.5939
  751MOL0     H 1320   9.092   7.451   5.609 -0.7160 -0.8593 -0.3713
  751MOL0     H 1321   9.133   7.321   5.713  2.1651  1.0075 -1.3801
  751MOL0     H 1322   8.852   7.355   5.599 -1.0808  0.7928  1.6344
  751MOL0     H 1323   8.903   7.221   5.701  1.4546 -0.9651 -1.1014
  751MOL0     H 1324   8.926   7.170   5.450 -3.7973  3.1944  2.1884
  751MOL0     H 1325   9.078   7.150   5.548  0.5739  0.8631 -0.7000
  751MOL0     H 1326   9.170   7.361   5.441  1.0872  0.4167 -1.8366
  751MOL0     H 1327   9.105   7.250   5.310  0.2888  0.6709  0.0992
  751MOL0     H 1328   8.972   7.508   5.412 -0.2600  0.8267 -1.5741
  751MOL0     H 1329   9.043   7.470   5.256  0.6030 -1.3785 -1.0297
  751MOL0     H 1330   8.884   7.284   5.229 -0.1505 -0.2352 -0.0876
  751MOL0     H 1331   8.802   7.325   5.372  1.2740 -0.7485  0.6205
  751MOL0     H 1332   8.694   7.426   5.182 -0.3674  0.0610  0.9226
  751MOL0     H 1333   8.832   7.544   5.169  0.0309  1.6418  0.1364
  751MOL0     H 1334   8.638   7.491   5.399 -0.8822  0.4262 -0.5498
  751MOL0     H 1335   8.784   7.597   5.415  0.8529  1.3985 -2.1722
  751MOL0     H 1336   8.775   7.790   5.172 -1.2807 -0.6504 -1.2300
  751MOL0     H 1337   8.674   8.021   5.106  1.0593 -1.3830  0.2922
  751MOL0     H 1338   8.528   7.949   5.047  0.2393 -1.5977  1.2543
  751MOL0     H 1339   8.500   8.178   5.123 -2.1542 -0.2292 -0.0602
  751MOL0     H 1340   8.396   8.072   5.215  0.0621 -2.4612  0.5670
  751MOL0     H 1341   8.599   8.065   5.394  1.8469  0.3761  0.9342
  751MOL0     H 1342   8.494   8.210   5.383 -0.2573 -0.3886  0.5291
  751MOL0     H 1343   8.675   8.311   5.219  0.3662  1.2477  1.4049
  751MOL0     H 1344   8.772   8.167   5.270  2.1755 -0.5275  3.5976
  751MOL0     H 1345   8.843   8.455   5.218 -2.2292  0.2461 -1.0516
  751MOL0     H 1346   8.913   8.673   5.237 -0.3331  0.7467  1.3495
  751MOL0     H 1347   8.712   9.076   5.405  1.9033 -3.1766 -0.9655
  751MOL0     H 1348   8.702   9.329   5.382 -1.0180 -1.5061  0.2187
  751MOL0     H 1349   8.649   9.511   5.159  0.3158 -1.3540 -0.7176
  751MOL0     H 1350   8.723   9.511   5.326  2.3182  1.1367  1.0799
  751MOL0     H 1351   8.849   9.712   5.242 -0.2085 -1.5845  2.3582
  751MOL0     H 1352   8.761   9.707   5.086  2.0600  3.2983  0.4763
  751MOL0     H 1353   8.547   9.703   5.221  0.5063 -1.1153  0.1541
  751MOL0     H 1354   8.646   9.728   5.359  1.1205  1.7219  0.8581
  751MOL0     H 1355   8.691   9.922   5.133  2.0430 -0.1638  1.0970
  751MOL0     H 1356   8.705   9.938   5.316  1.5162 -1.6611 -0.3233
  751MOL0     H 1357   8.462   9.938   5.139  0.7627  1.0055 -0.7293
  751MOL0     H 1358   8.525  10.082   5.215 -1.7328 -0.5996 -0.1852
  751MOL0     H 1359   8.386   9.834   5.343  1.1110  0.5191 -0.6428
  751MOL0     H 1360   8.469   9.969   5.431  2.4360 -4.3336  0.4288
  751MOL0     H 1361   8.254  10.026   5.226 -0.0058  1.6298  0.2878
  751MOL0     H 1362   8.334  10.134   5.347  2.5902 -1.0278  2.2162
  751MOL0     H 1363   8.202  10.005   5.529 -0.8564 -1.6413  0.7827
  751MOL0     H 1364   8.105  10.074   5.400 -2.0312 -1.6292 -2.9065
  751MOL0     H 1365   9.056   9.301   5.137 -1.3524  1.3767 -0.7705
  751MOL0     H 1366   9.059   9.051   5.172 -0.3840  1.4838 -0.4306
  751MOL0     H 1367   8.683   8.722   5.595 -0.8214  0.1359 -0.2047
  751MOL0     H 1368   8.633   8.484   5.596  1.0749 -0.3401  0.9318
  751MOL0     H 1369   8.898   7.692   5.852  0.5734 -1.4970  0.0500
  751MOL0     H 1370   9.026   7.904   5.882  1.1338 -0.0707 -0.1452
  751MOL0     H 1371   9.516   8.119   5.657 -2.0546 -3.1800  0.3154
  751MOL0     H 1372   9.603   8.364   5.676 -0.9484 -0.6012 -1.0455
  751MOL0     H 1373   9.425   8.618   5.989  0.3484  1.5607  0.1214
  751MOL0     H 1374   9.549   8.713   5.919  0.4468 -0.1669 -0.4495
  751MOL0     H 1375   9.718   8.620   6.062 -0.6450 -0.5474  0.2745
  751MOL0     H 1376   9.619   8.494   6.118 -0.0724 -0.5839 -0.4229
  751MOL0     H 1377   9.643   8.701   6.284 -0.7392  3.3697  0.9553
  751MOL0     H 1378   9.470   8.696   6.214 -0.7833 -0.7618 -2.0710
  751MOL0     H 1379   9.538   8.871   6.065 -0.4859 -1.4421  0.0160
  751MOL0     H 1380   9.598   8.923   6.226  0.1830 -0.9118  0.6119
  751MOL0     H 1381   9.955   8.894   6.010  1.2757 -0.6503  2.7262
  751MOL0     H 1382   9.419   8.392   6.065  0.3904  0.9615  0.2165
  751MOL0     H 1383   9.337   8.066   6.112 -0.1521  0.2149  0.4062
  751MOL0     H 1384   9.293   8.226   6.163  4.2178 -1.1965  1.7996
  751MOL0     H 1385   9.198   8.145   6.037  1.0017 -3.2446 -0.6384
  752MOL0     O 1386   6.022  10.120   4.259 -0.1158 -0.0800  0.2733
  752MOL0     C 1387   6.062  10.014   4.222 -0.0776 -0.1273  0.1160
  752MOL0     O 1388   6.191   9.968   4.250  0.3099 -0.9508  0.5644
  752MOL0     C 1389   6.283  10.065   4.271  0.3388  0.8257  0.0874
  752MOL0     C 1390   6.343  10.091   4.398 -0.2913  0.6263  1.0259
  752MOL0     C 1391   6.418  10.207   4.415  0.0849  0.2540  0.0459
  752MOL0     C 1392   6.456  10.297   4.307  0.0630  0.6596 -0.2740
  752MOL0     O 1393   6.537  10.414   4.318 -0.2152 -0.2529  0.1020
  752MOL0     C 1394   6.612  10.434   4.441 -0.0687 -0.5169 -0.1166
  752MOL0     C 1395   6.676  10.568   4.441 -0.0399  0.2387 -0.2079
  752MOL0     C 1396   6.784  10.570   4.326 -0.4643 -0.0065  0.3669
  752MOL0     C 1397   6.840  10.712   4.303  0.6436 -0.0213 -0.3468
  752MOL0     C 1398   6.922  10.766   4.414 -0.2579 -0.2388 -0.0908
  752MOL0     C 1399   6.976  10.901   4.378  0.1224  0.3412  0.1846
  752MOL0     C 1400   6.869  11.011   4.389  0.3122  0.1191  0.2489
  752MOL0     C 1401   6.780  10.994   4.509  0.6213  0.0239  0.1523
  752MOL0     N 1402   6.702  11.120   4.539  0.7110  0.2156  0.0783
  752MOL0     C 1403   6.611  11.176   4.458 -0.0265 -0.1357  0.1496
  752MOL0     C 1404   6.605  11.302   4.495  0.6640  0.3995 -0.3671
  752MOL0     C 1405   6.518  11.418   4.465 -0.7581 -0.0201  0.3180
  752MOL0     C 1406   6.579  11.553   4.413 -0.0265  0.5581 -0.6947
  752MOL0     C 1407   6.470  11.650   4.379 -0.1678  0.5624  0.4251
  752MOL0     C 1408   6.522  11.790   4.343 -0.4377  0.3392  0.3628
  752MOL0     O 1409   6.611  11.847   4.438 -0.7860  0.2078 -0.3167
  752MOL0     C 1410   6.696  11.946   4.382  0.2818 -0.0512  0.6625
  752MOL0     C 1411   6.808  11.968   4.457  0.7751 -0.0447 -0.3471
  752MOL0     C 1412   6.913  12.055   4.419 -0.4269 -0.7017 -0.5681
  752MOL0     C 1413   6.892  12.119   4.293  0.1791  0.3193 -1.0206
  752MOL0     C 1414   7.002  12.203   4.237 -0.4727 -0.1894  0.4975
  752MOL0     O 1415   7.111  12.221   4.321 -0.4966 -1.1536 -0.0516
  752MOL0     C 1416   7.213  12.291   4.260  0.3659 -0.1005 -0.5893
  752MOL0     C 1417   7.215  12.424   4.294 -0.8080  0.2230 -0.5447
  752MOL0     C 1418   7.312  12.515   4.250 -0.1690 -0.3322 -0.3150
  752MOL0     C 1419   7.412  12.475   4.161  0.7101 -0.0780 -0.3398
  752MOL0     O 1420   7.504  12.566   4.115 -0.2489 -0.0469 -0.2297
  752MOL0     C 1421   7.636  12.517   4.143 -0.0455 -0.7336  0.4974
  752MOL0     C 1422   7.732  12.630   4.098  0.7201  0.5686 -0.1209
  752MOL0     C 1423   7.871  12.605   4.127  0.2733  0.0400  0.1773
  752MOL0     C 1424   7.967  12.709   4.064 -0.0636 -0.0607  0.8283
  752MOL0     C 1425   8.111  12.662   4.079  0.0636  0.1871  0.7532
  752MOL0     C 1426   8.151  12.548   3.985  0.7082  0.0128  0.1855
  752MOL0     C 1427   8.302  12.528   3.982 -0.0191 -0.3555  0.6139
  752MOL0     C 1428   8.337  12.439   3.862  0.8852  0.3745 -0.0064
  752MOL0    Cl 1429   8.229  12.292   3.859 -0.3179  0.0842  0.1386
  752MOL0     C 1430   7.409  12.335   4.122 -0.1434 -0.7888  0.0749
  752MOL0     C 1431   7.312  12.248   4.170 -0.1870  0.6528  0.0285
  752MOL0     O 1432   6.987  12.253   4.127  0.2677  0.4414  0.3559
  752MOL0     C 1433   6.779  12.102   4.220  1.2528  0.2789 -0.1726
  752MOL0     C 1434   6.672  12.029   4.269  0.8055  0.0290 -0.0784
  752MOL0     N 1435   6.694  11.319   4.605  0.0442 -0.3719  0.4527
  752MOL0     N 1436   6.750  11.207   4.626 -0.5863 -0.1540 -0.2783
  752MOL0     C 1437   6.398  10.253   4.185  0.5083 -1.1266  0.8629
  752MOL0     C 1438   6.314  10.141   4.171 -0.1079 -0.1995 -0.0842
  752MOL0     C 1439   5.952   9.929   4.157  0.2020 -0.2662 -0.1298
  752MOL0     C 1440   5.976   9.794   4.153  0.5868 -0.6498 -0.1830
  752MOL0     C 1441   5.876   9.704   4.121 -0.3900  0.4742 -0.4704
  752MOL0     C 1442   5.752   9.747   4.075  0.3941  0.2086  0.1483
  752MOL0     O 1443   5.644   9.664   4.041  0.3053  0.0892  0.0649
  752MOL0     C 1444   5.664   9.525   4.043  0.0013  0.8043 -0.8227
  752MOL0     C 1445   5.572   9.426   3.968  0.5706 -0.1218 -0.3931
  752MOL0     C 1446   5.424   9.439   4.008  0.4798  0.5879 -0.1634
  752MOL0     C 1447   5.341   9.314   3.955  0.2959 -0.6647  0.2286
  752MOL0     C 1448   5.204   9.308   4.005 -0.1885 -0.0763  0.7336
  752MOL0     C 1449   5.083   9.286   4.017  0.5327  0.1015  0.9842
  752MOL0     C 1450   5.734   9.888   4.054  0.4340 -0.5057 -0.0416
  752MOL0     C 1451   5.825   9.974   4.103 -0.8863 -1.1441  0.6387
  752MOL0     C 1452   5.797  10.121   4.076  0.1502  0.0913 -1.0798
  752MOL0     H 1453   6.327  10.029   4.485 -0.9358 -0.2636  0.2963
  752MOL0     H 1454   6.456  10.221   4.515 -1.4370 -0.5765  0.7710
  752MOL0     H 1455   6.549  10.420   4.530  1.7268  2.1947  1.7533
  752MOL0     H 1456   6.693  10.360   4.443 -0.6299 -1.1414  0.0181
  752MOL0     H 1457   6.723  10.589   4.537  2.3320 -1.2248 -0.9827
  752MOL0     H 1458   6.592  10.636   4.419  0.4514  0.6893 -0.7150
  752MOL0     H 1459   6.732  10.540   4.235 -0.7787 -0.5532  0.7235
  752MOL0     H 1460   6.864  10.498   4.340 -1.1004 -0.2973  2.8527
  752MOL0     H 1461   6.884  10.725   4.203  1.7696  0.6592  0.2201
  752MOL0     H 1462   6.756  10.780   4.284  1.6246  0.7408 -2.2921
  752MOL0     H 1463   6.867  10.761   4.509 -1.5526  0.0405 -0.7997
  752MOL0     H 1464   7.008  10.700   4.424  0.3750  0.3589 -1.3711
  752MOL0     H 1465   7.058  10.934   4.441  1.2726  2.3806 -2.2037
  752MOL0     H 1466   7.018  10.900   4.277 -2.2114 -1.2903 -0.8696
  752MOL0     H 1467   6.796  11.004   4.308  0.3423 -0.9438  0.3051
  752MOL0     H 1468   6.903  11.115   4.383 -0.5230  0.3802 -0.2852
  752MOL0     H 1469   6.725  10.900   4.499  1.8219 -0.9693  2.3155
  752MOL0     H 1470   6.830  10.968   4.602 -1.4599  0.9944  1.6270
  752MOL0     H 1471   6.554  11.140   4.373  0.8651  0.5518 -0.7662
  752MOL0     H 1472   6.437  11.392   4.397 -0.2402 -1.5225  0.2347
  752MOL0     H 1473   6.467  11.449   4.556 -1.1031  0.3659 -0.0033
  752MOL0     H 1474   6.654  11.595   4.481  1.7916 -2.8162 -0.3746
  752MOL0     H 1475   6.633  11.531   4.320  0.0983 -1.2666 -0.2362
  752MOL0     H 1476   6.406  11.664   4.466  0.5183 -0.2650  1.0752
  752MOL0     H 1477   6.416  11.614   4.291  4.8381 -0.0313 -2.8300
  752MOL0     H 1478   6.431  11.848   4.328 -0.5386 -0.2557 -1.5868
  752MOL0     H 1479   6.575  11.765   4.250 -1.5204 -2.1637  0.3361
  752MOL0     H 1480   6.810  11.915   4.552 -0.0509  0.6847  0.0870
  752MOL0     H 1481   7.004  12.070   4.477  0.1795 -1.3677 -1.3073
  752MOL0     H 1482   7.145  12.464   4.367 -2.1362 -0.8292 -1.2100
  752MOL0     H 1483   7.311  12.617   4.287 -2.2543 -0.8193  1.1320
  752MOL0     H 1484   7.646  12.504   4.252 -1.5411  1.4758  0.9566
  752MOL0     H 1485   7.665  12.427   4.087  1.8209 -0.3768  0.8058
  752MOL0     H 1486   7.726  12.631   3.988  0.1043 -2.9610 -0.2522
  752MOL0     H 1487   7.701  12.725   4.142  0.7369  0.2435  0.6016
  752MOL0     H 1488   7.893  12.606   4.234  0.9997 -1.3918  0.0643
  752MOL0     H 1489   7.898  12.507   4.088  0.7169 -0.7093  2.2637
  752MOL0     H 1490   7.962  12.803   4.119  1.2863  1.0611 -0.8570
  752MOL0     H 1491   7.933  12.734   3.963 -0.7944 -0.3116  1.0064
  752MOL0     H 1492   8.125  12.643   4.186 -0.8578  1.0352  1.0390
  752MOL0     H 1493   8.176  12.746   4.054  0.0652 -0.3088 -1.0573
  752MOL0     H 1494   8.098  12.457   4.017 -1.8137  1.5471  0.6179
  752MOL0     H 1495   8.102  12.580   3.892 -1.1174  1.5305  1.5923
  752MOL0     H 1496   8.334  12.485   4.078  1.5175 -0.4917  0.0606
  752MOL0     H 1497   8.344  12.629   3.975 -0.8782 -0.0242  0.0167
  752MOL0     H 1498   8.330  12.499   3.771  1.0145  1.2695  0.5579
  752MOL0     H 1499   8.440  12.406   3.875  0.3554 -1.4844 -0.2514
  752MOL0     H 1500   7.487  12.293   4.060  0.0874  0.3890 -0.4519
  752MOL0     H 1501   7.322  12.141   4.155 -2.5651  0.3016  0.4193
  752MOL0     H 1502   6.779  12.158   4.127  1.7392  0.4752 -0.0599
  752MOL0     H 1503   6.591  12.005   4.200 -0.2376  1.6974  0.5094
  752MOL0     H 1504   6.413  10.301   4.088  0.9599 -0.9066  1.0432
  752MOL0     H 1505   6.263  10.113   4.080  0.7807 -0.0680 -0.6452
  752MOL0     H 1506   6.069   9.763   4.200  0.2486  1.0941  1.8177
  752MOL0     H 1507   5.905   9.600   4.120  0.8547  0.8009 -0.0639
  752MOL0     H 1508   5.681   9.483   4.142  1.8375 -1.5132 -2.0241
  752MOL0     H 1509   5.758   9.505   3.989  0.4555  1.2320 -0.1978
  752MOL0     H 1510   5.599   9.323   3.990  1.9971  0.3019 -0.0467
  752MOL0     H 1511   5.591   9.432   3.861 -0.6206  1.6505 -0.5538
  752MOL0     H 1512   5.384   9.528   3.958  0.8456  0.8428 -0.0106
  752MOL0     H 1513   5.416   9.452   4.116 -1.1482  0.9799 -0.2950
  752MOL0     H 1514   5.335   9.308   3.846  3.1705 -3.0131  0.0828
  752MOL0     H 1515   5.394   9.225   3.991  1.1413  0.0661  0.8549
  752MOL0     H 1516   4.978   9.284   4.039  0.2905  2.1224  0.1993
  752MOL0     H 1517   5.650   9.936   4.007  1.1734  1.3913  0.4682
  752MOL0     H 1518   5.699  10.140   4.032  0.1627  1.8493 -0.4171
  752MOL0     H 1519   5.790  10.152   4.180  3.5016 -0.9337 -0.4284
  752MOL0     H 1520   5.858  10.183   4.010 -0.0175  1.3951 -0.0304
  753MOL0     O 1521   2.504   1.662   2.596 -0.2180  0.1799 -0.0590
  753MOL0     C 1522   2.486   1.779   2.618  0.1070  0.4964  0.2794
  753MOL0     O 1523   2.583   1.873   2.639  0.5475  0.2790  0.3186
  753MOL0     C 1524   2.717   1.856   2.629 -0.2506  0.1488  0.0465
  753MOL0     C 1525   2.778   1.764   2.543  0.0155 -0.4618 -0.2209
  753MOL0     C 1526   2.917   1.762   2.521  0.4140 -0.2557 -0.1745
  753MOL0     C 1527   3.002   1.840   2.608  0.3454  0.2738  1.4393
  753MOL0     O 1528   3.139   1.823   2.610  0.2509 -0.4122 -0.1360
  753MOL0     C 1529   3.207   1.710   2.543 -0.2109  0.7901  0.4113
  753MOL0     C 1530   3.349   1.699   2.584  0.3704 -0.0325 -0.0009
  753MOL0     C 1531   3.409   1.574   2.528  0.3188 -0.5152  0.2507
  753MOL0     C 1532   3.555   1.554   2.581  0.2762  0.7144  0.7766
  753MOL0     C 1533   3.558   1.505   2.726 -0.3976 -0.1625  0.7000
  753MOL0     C 1534   3.697   1.453   2.762  0.3378 -0.7794  0.2820
  753MOL0     C 1535   3.809   1.565   2.788  0.6878 -0.0744  0.7264
  753MOL0     C 1536   3.950   1.509   2.785  0.3192  0.4928 -0.6019
  753MOL0     N 1537   3.987   1.437   2.662 -0.3995  0.1581 -0.0562
  753MOL0     C 1538   3.994   1.499   2.539 -0.0566 -0.6418  0.2221
  753MOL0     C 1539   4.048   1.406   2.460 -0.3668  0.0934 -0.5753
  753MOL0     C 1540   4.066   1.422   2.312  1.0180 -0.1111 -0.4044
  753MOL0     C 1541   3.932   1.383   2.241  0.4230  1.0442  0.1212
  753MOL0     C 1542   3.901   1.230   2.240 -0.1564 -0.4011 -0.2391
  753MOL0     C 1543   3.796   1.188   2.141 -0.5146 -0.8000  0.1515
  753MOL0     O 1544   3.822   1.229   2.002 -0.1705  0.0028  0.4262
  753MOL0     C 1545   3.721   1.208   1.912 -0.0431  0.2287 -0.3247
  753MOL0     C 1546   3.749   1.254   1.782 -0.4263  1.0841 -0.5781
  753MOL0     C 1547   3.658   1.224   1.679  0.0116 -0.2581 -0.1318
  753MOL0     C 1548   3.525   1.177   1.709  0.1774 -0.1075  1.3236
  753MOL0     C 1549   3.424   1.168   1.598  0.6964 -0.2251  0.1271
  753MOL0     O 1550   3.293   1.164   1.631 -0.1559  0.3883 -0.1601
  753MOL0     C 1551   3.202   1.151   1.519  0.0547  0.0885 -0.8294
  753MOL0     C 1552   3.180   1.258   1.435 -0.1272 -0.3140 -0.7866
  753MOL0     C 1553   3.098   1.241   1.328  0.2614 -0.4900 -0.4766
  753MOL0     C 1554   3.032   1.121   1.293 -0.6335 -0.4959  0.0458
  753MOL0     O 1555   2.941   1.108   1.197 -0.7677  0.4625 -0.5350
  753MOL0     C 1556   2.916   0.974   1.150  0.2753 -0.0305 -0.2691
  753MOL0     C 1557   2.793   0.933   1.236  0.5669  0.0233 -0.1939
  753MOL0     C 1558   2.657   0.978   1.179 -0.3697  0.6557  1.1430
  753MOL0     C 1559   2.538   0.934   1.264 -0.4047  0.0411  0.3406
  753MOL0     C 1560   2.410   0.971   1.191  1.0330 -0.0856  0.6761
  753MOL0     C 1561   2.283   0.924   1.252  0.2530 -0.4930 -1.0415
  753MOL0     C 1562   2.158   0.968   1.169  0.2790 -0.7140 -0.4790
  753MOL0     C 1563   2.048   0.859   1.178  0.1465  0.0885 -0.4689
  753MOL0    Cl 1564   1.917   0.922   1.074 -0.1150 -0.5577 -0.0258
  753MOL0     C 1565   3.055   1.013   1.385  0.1599  0.4455 -0.6385
  753MOL0     C 1566   3.128   1.034   1.501 -0.2954 -0.2148  0.3101
  753MOL0     O 1567   3.469   1.186   1.489 -0.0909 -0.1985  0.5029
  753MOL0     C 1568   3.494   1.136   1.842 -0.2528 -0.2248 -0.2875
  753MOL0     C 1569   3.593   1.144   1.938 -0.5855  0.1813 -0.2156
  753MOL0     N 1570   4.073   1.284   2.527 -0.2811 -0.0761 -0.5836
  753MOL0     N 1571   4.033   1.311   2.648  0.1669  0.0776 -0.6824
  753MOL0     C 1572   2.942   1.933   2.692 -0.2354 -0.2104 -0.2682
  753MOL0     C 1573   2.800   1.942   2.711  0.2678  0.7899  0.5329
  753MOL0     C 1574   2.350   1.830   2.635  0.1367 -0.2459 -0.1005
  753MOL0     C 1575   2.340   1.953   2.712 -0.1257  0.0892 -0.3336
  753MOL0     C 1576   2.218   2.017   2.727  0.7816  0.3513 -0.7109
  753MOL0     C 1577   2.104   1.954   2.680 -0.3030  0.3113  1.0490
  753MOL0     O 1578   1.990   2.023   2.712 -0.2179  0.3371  0.7693
  753MOL0     C 1579   1.860   1.972   2.665 -0.2021 -0.7760  0.2548
  753MOL0     C 1580   1.764   2.080   2.703  0.0555  1.2115  0.5191
  753MOL0     C 1581   1.630   2.040   2.634  0.5097 -0.6656  0.4426
  753MOL0     C 1582   1.514   2.131   2.656  0.2392 -0.9469 -0.2169
  753MOL0     C 1583   1.489   2.151   2.799 -0.0814 -0.2947 -0.0942
  753MOL0     C 1584   1.455   2.182   2.910  0.2273 -0.0736  0.3252
  753MOL0     C 1585   2.111   1.828   2.611  0.7182  0.1550 -0.1660
  753MOL0     C 1586   2.231   1.770   2.579  0.1333 -0.1070  0.3346
  753MOL0     C 1587   2.234   1.647   2.494 -0.8881  0.3967  0.6936
  753MOL0     H 1588   2.715   1.715   2.471  0.8044 -0.0280 -1.2320
  753MOL0     H 1589   2.966   1.701   2.446 -1.6922 -2.0966 -0.1401
  753MOL0     H 1590   3.165   1.614   2.575  1.4858  0.2406  1.1346
  753MOL0     H 1591   3.203   1.724   2.434  1.2643 -0.2206  0.2005
  753MOL0     H 1592   3.352   1.689   2.693  0.1841 -0.2403 -0.0152
  753MOL0     H 1593   3.406   1.789   2.559  2.3628 -1.9513 -3.0372
  753MOL0     H 1594   3.411   1.582   2.418  3.1333  1.2602  0.3104
  753MOL0     H 1595   3.347   1.487   2.551  1.1939 -0.7054  2.0591
  753MOL0     H 1596   3.615   1.490   2.516  0.9506  1.0653  1.0359
  753MOL0     H 1597   3.610   1.649   2.578  0.9299  0.3416  0.6676
  753MOL0     H 1598   3.533   1.587   2.794  0.9491  0.4073  0.5382
  753MOL0     H 1599   3.478   1.431   2.733  0.2630 -0.7903  1.7637
  753MOL0     H 1600   3.686   1.400   2.857 -1.3885 -1.5253 -0.2944
  753MOL0     H 1601   3.733   1.388   2.683 -0.0977 -0.3492 -0.2782
  753MOL0     H 1602   3.801   1.626   2.879 -3.0525 -1.5239  1.5527
  753MOL0     H 1603   3.812   1.643   2.712  2.3997  1.6012  2.4048
  753MOL0     H 1604   4.027   1.585   2.804  1.1825 -0.2724 -0.9507
  753MOL0     H 1605   3.960   1.436   2.866 -2.7613  0.8673  0.2232
  753MOL0     H 1606   3.963   1.595   2.498  3.3808  0.5211  0.0179
  753MOL0     H 1607   4.073   1.526   2.277 -2.8082 -0.1238 -1.6470
  753MOL0     H 1608   4.154   1.363   2.285  1.6010 -0.6043  2.2959
  753MOL0     H 1609   3.848   1.425   2.297  0.3071 -1.7396  2.2423
  753MOL0     H 1610   3.946   1.414   2.137  2.3907 -1.5895 -0.5407
  753MOL0     H 1611   3.872   1.185   2.335 -2.6337 -1.0871 -1.2455
  753MOL0     H 1612   3.993   1.175   2.217  0.2019 -0.2069  0.6854
  753MOL0     H 1613   3.702   1.227   2.182 -1.0664 -0.0228 -1.7458
  753MOL0     H 1614   3.801   1.079   2.147  0.0467 -0.7212  1.4479
  753MOL0     H 1615   3.849   1.294   1.769  0.3784 -0.1866  1.2489
  753MOL0     H 1616   3.683   1.252   1.578  0.3818  0.4661  0.1500
  753MOL0     H 1617   3.235   1.350   1.454  1.1497 -1.3409  0.8291
  753MOL0     H 1618   3.082   1.326   1.263  1.7537 -1.3533 -2.0589
  753MOL0     H 1619   2.885   0.965   1.045 -0.0443 -1.4727 -0.0687
  753MOL0     H 1620   2.994   0.899   1.167 -0.6913 -0.6968  1.3558
  753MOL0     H 1621   2.800   0.823   1.239 -0.0938 -0.0162  0.1409
  753MOL0     H 1622   2.813   0.974   1.335  0.3088 -1.6372  0.5935
  753MOL0     H 1623   2.664   1.085   1.157 -2.7978  0.3060 -1.9406
  753MOL0     H 1624   2.646   0.938   1.078  0.3616  1.7846  0.5967
  753MOL0     H 1625   2.534   0.978   1.364 -1.0668 -1.7065  1.1262
  753MOL0     H 1626   2.536   0.825   1.268  0.1236  0.0161  0.0299
  753MOL0     H 1627   2.416   0.919   1.095 -0.3593  0.8807  0.0268
  753MOL0     H 1628   2.408   1.077   1.163  0.6225 -0.7641 -2.1815
  753MOL0     H 1629   2.282   0.815   1.261 -2.2450 -0.3981  0.9579
  753MOL0     H 1630   2.274   0.968   1.352  0.1729 -0.9356 -0.8523
  753MOL0     H 1631   2.190   0.990   1.066  1.5824  0.4402  0.1393
  753MOL0     H 1632   2.114   1.058   1.211 -0.9958 -0.7651 -1.6296
  753MOL0     H 1633   2.093   0.774   1.126  0.3270 -0.8101  1.0846
  753MOL0     H 1634   2.019   0.839   1.282  1.3203 -0.4616 -0.2362
  753MOL0     H 1635   3.005   0.918   1.371  0.9670 -0.1038  0.0673
  753MOL0     H 1636   3.148   0.955   1.572  0.9971 -0.0760  0.1221
  753MOL0     H 1637   3.400   1.088   1.866  0.0605 -0.2022  1.0579
  753MOL0     H 1638   3.584   1.105   2.039  2.0639  0.8346  0.3483
  753MOL0     H 1639   3.010   1.991   2.755  1.3957 -1.1377 -1.1180
  753MOL0     H 1640   2.754   2.005   2.787  0.8116 -0.5737  2.0695
  753MOL0     H 1641   2.423   1.992   2.769  0.8223  1.2132 -2.3725
  753MOL0     H 1642   2.211   2.108   2.784  1.0507  0.5645 -1.0136
  753MOL0     H 1643   1.839   1.875   2.712 -0.4157 -0.1635  1.4696
  753MOL0     H 1644   1.866   1.975   2.556  0.2287  0.8308  0.3017
  753MOL0     H 1645   1.782   2.184   2.674 -0.0529  1.3354  0.8827
  753MOL0     H 1646   1.743   2.082   2.811 -0.4601  1.4418  0.4185
  753MOL0     H 1647   1.595   1.939   2.656 -0.9969 -0.7443 -2.0360
  753MOL0     H 1648   1.652   2.036   2.527  0.3868  2.4892  0.2193
  753MOL0     H 1649   1.537   2.225   2.607 -1.4088 -1.1753 -1.5184
  753MOL0     H 1650   1.427   2.093   2.602 -0.4045  0.5377 -0.2653
  753MOL0     H 1651   1.428   2.223   3.005  0.6599  1.4724 -0.1846
  753MOL0     H 1652   2.021   1.769   2.594  0.2941  0.4777  0.9083
  753MOL0     H 1653   2.284   1.561   2.539  0.1841 -1.3825 -3.4237
  753MOL0     H 1654   2.135   1.618   2.458 -1.1856  3.2512 -1.1459
  753MOL0     H 1655   2.292   1.665   2.403 -0.7163  0.7069  0.8607
  754MOL0     O 1656   7.051   2.537   2.166  0.0304  0.4013 -0.2020
  754MOL0     C 1657   7.062   2.631   2.242  0.8729 -0.5510  0.6408
  754MOL0     O 1658   7.190   2.686   2.271 -0.6886  0.7709 -0.2396
  754MOL0     C 1659   7.305   2.633   2.210  0.0647  0.5768 -0.3553
  754MOL0     C 1660   7.387   2.725   2.143 -0.8445  0.0187  0.6477
  754MOL0     C 1661   7.512   2.687   2.100 -0.5718 -0.3167 -0.4490
  754MOL0     C 1662   7.561   2.559   2.120 -0.3134 -0.2014  0.5182
  754MOL0     O 1663   7.692   2.527   2.089  0.9347 -0.2405 -0.7401
  754MOL0     C 1664   7.750   2.403   2.135  0.0254 -0.2480 -0.1384
  754MOL0     C 1665   7.900   2.403   2.105 -0.3004 -0.5471 -0.1403
  754MOL0     C 1666   7.984   2.507   2.178  0.9130 -0.2169 -0.0759
  754MOL0     C 1667   8.131   2.475   2.128  0.0030 -0.8873  0.1732
  754MOL0     C 1668   8.230   2.570   2.199  0.1203 -0.4966  1.2262
  754MOL0     C 1669   8.362   2.499   2.195 -0.0464  0.6151 -1.0100
  754MOL0     C 1670   8.461   2.582   2.275  0.5299  0.2333  0.2512
  754MOL0     C 1671   8.490   2.720   2.207  0.9507 -0.5958  0.4190
  754MOL0     N 1672   8.629   2.765   2.213 -0.2177  0.6005  0.6855
  754MOL0     C 1673   8.734   2.714   2.140 -0.8072 -0.6474 -0.4859
  754MOL0     C 1674   8.826   2.812   2.143 -0.0973  0.1050  0.3346
  754MOL0     C 1675   8.951   2.831   2.070 -0.1335 -0.6590 -0.0713
  754MOL0     C 1676   9.076   2.847   2.151  0.0299  0.3985 -0.2441
  754MOL0     C 1677   9.120   2.700   2.195  0.2637 -0.5034  0.1295
  754MOL0     C 1678   9.258   2.713   2.261  0.2200  0.5392 -0.1621
  754MOL0     O 1679   9.292   2.585   2.334 -0.2827  0.2993  0.4740
  754MOL0     C 1680   9.383   2.582   2.438 -0.4570 -0.0730 -0.2276
  754MOL0     C 1681   9.405   2.458   2.492 -0.6160 -0.0378 -0.0353
  754MOL0     C 1682   9.499   2.435   2.590 -0.5828 -0.7351  0.5543
  754MOL0     C 1683   9.573   2.542   2.641 -0.3691  0.0569 -0.0380
  754MOL0     C 1684   9.675   2.516   2.744  0.0246 -0.2072 -0.8978
  754MOL0     O 1685   9.691   2.618   2.829  0.0512  0.3433  0.0330
  754MOL0     C 1686   9.823   2.626   2.880 -0.0289  0.8550 -0.3073
  754MOL0     C 1687   9.926   2.680   2.800 -0.3704 -0.2026  0.3061
  754MOL0     C 1688  10.048   2.706   2.869  0.0401  0.8240  0.4305
  754MOL0     C 1689  10.067   2.675   3.002  0.1072 -0.0804 -0.1127
  754MOL0     O 1690  10.172   2.714   3.072  0.0526 -0.8510 -0.1580
  754MOL0     C 1691  10.277   2.797   3.019  0.0566  0.3097  0.7586
  754MOL0     C 1692  10.376   2.809   3.130  0.2767  0.1126  0.1511
  754MOL0     C 1693  10.505   2.896   3.094  0.2057 -0.0935  0.2815
  754MOL0     C 1694  10.628   2.840   3.163 -0.3315  0.6016 -0.8013
  754MOL0     C 1695  10.746   2.933   3.144  0.0801 -0.1126  0.8387
  754MOL0     C 1696  10.872   2.905   3.221  0.4723  0.3466 -0.0402
  754MOL0     C 1697  10.994   2.963   3.152 -0.1981  0.0605  0.2914
  754MOL0     C 1698  11.119   2.973   3.241 -1.0629 -1.1812  0.0449
  754MOL0    Cl 1699  11.249   3.036   3.143 -0.0486 -0.4541 -0.1120
  754MOL0     C 1700   9.958   2.627   3.076 -0.1800  0.5178  0.1396
  754MOL0     C 1701   9.834   2.598   3.020  0.0040  0.3356  0.3078
  754MOL0     O 1702   9.746   2.415   2.748  0.0254 -0.4112  0.3504
  754MOL0     C 1703   9.542   2.673   2.599 -0.4481  0.7914 -0.0718
  754MOL0     C 1704   9.450   2.690   2.490 -1.1118 -0.3155 -0.6305
  754MOL0     N 1705   8.773   2.913   2.221 -0.0948 -0.0441  0.0797
  754MOL0     N 1706   8.660   2.887   2.263 -0.2257  0.4983  0.4726
  754MOL0     C 1707   7.476   2.468   2.183  0.8678 -0.2183  0.5713
  754MOL0     C 1708   7.353   2.505   2.229 -0.0409 -0.1200  0.8328
  754MOL0     C 1709   6.938   2.674   2.311  0.2204  1.0322  0.1953
  754MOL0     C 1710   6.922   2.801   2.339 -0.6596  0.0463 -0.4669
  754MOL0     C 1711   6.810   2.847   2.412  0.1432 -0.2908  0.3559
  754MOL0     C 1712   6.701   2.761   2.432 -0.0360 -0.0230 -0.0726
  754MOL0     O 1713   6.586   2.811   2.491 -0.4983 -0.2622 -0.5005
  754MOL0     C 1714   6.519   2.729   2.579 -0.1798 -0.4293 -0.4776
  754MOL0     C 1715   6.587   2.698   2.710  0.2178  0.0666 -1.0023
  754MOL0     C 1716   6.619   2.827   2.787 -0.6262 -0.3474 -0.0073
  754MOL0     C 1717   6.677   2.803   2.930  0.0850 -0.0770  0.4898
  754MOL0     C 1718   6.585   2.726   3.011 -0.2347  1.1076 -1.0257
  754MOL0     C 1719   6.516   2.656   3.089 -0.1404 -0.1158  0.5164
  754MOL0     C 1720   6.715   2.626   2.396  0.1316 -0.1542 -0.0438
  754MOL0     C 1721   6.831   2.581   2.336 -0.1176  0.1483  0.2314
  754MOL0     C 1722   6.829   2.433   2.310  0.5745 -0.0904  0.4042
  754MOL0     H 1723   7.342   2.824   2.136 -1.0220 -0.0968  0.1409
  754MOL0     H 1724   7.560   2.769   2.048 -1.8284 -0.0231 -1.1783
  754MOL0     H 1725   7.738   2.386   2.242  0.0754  1.8351  0.2211
  754MOL0     H 1726   7.714   2.315   2.079  1.5808 -1.7023  1.0516
  754MOL0     H 1727   7.927   2.404   1.999  2.3074  0.4350  0.4745
  754MOL0     H 1728   7.925   2.304   2.144  0.7721  0.5624  2.1388
  754MOL0     H 1729   7.979   2.500   2.287  3.7355 -3.3284  0.0136
  754MOL0     H 1730   7.960   2.608   2.145 -0.8227 -0.1314  1.2945
  754MOL0     H 1731   8.160   2.373   2.154 -0.4267 -1.7624 -2.5215
  754MOL0     H 1732   8.136   2.495   2.021  0.4001  0.4125  0.4125
  754MOL0     H 1733   8.236   2.663   2.142  0.3277 -0.0106  2.0284
  754MOL0     H 1734   8.201   2.612   2.295  0.2770 -1.4697  1.7153
  754MOL0     H 1735   8.343   2.409   2.254  0.2405  1.4379  0.3795
  754MOL0     H 1736   8.398   2.473   2.095  2.0909  0.2320 -0.2090
  754MOL0     H 1737   8.550   2.521   2.289 -0.5319 -1.6461 -0.8045
  754MOL0     H 1738   8.411   2.604   2.370 -1.5228  1.1465 -0.9654
  754MOL0     H 1739   8.449   2.727   2.106  1.5036  1.4720  0.2925
  754MOL0     H 1740   8.428   2.795   2.257  1.4459 -1.3200  2.1704
  754MOL0     H 1741   8.738   2.621   2.085  2.1501 -1.6903  1.2767
  754MOL0     H 1742   8.976   2.758   1.993  2.4261 -2.9020  2.6559
  754MOL0     H 1743   8.937   2.926   2.017  0.2151 -1.0712 -0.9338
  754MOL0     H 1744   9.152   2.900   2.093 -0.1180  1.6530  0.6673
  754MOL0     H 1745   9.053   2.912   2.236 -0.2335  1.9757 -1.4866
  754MOL0     H 1746   9.133   2.628   2.114  0.8906  0.0948 -0.3162
  754MOL0     H 1747   9.042   2.661   2.261 -1.7103 -0.1776 -1.8877
  754MOL0     H 1748   9.256   2.792   2.337  0.3442 -0.3963  0.8329
  754MOL0     H 1749   9.328   2.722   2.178  1.2133 -1.4286  0.4124
  754MOL0     H 1750   9.356   2.373   2.445 -1.1630  0.0064  0.4436
  754MOL0     H 1751   9.516   2.333   2.621  1.3413 -0.3868  0.7557
  754MOL0     H 1752   9.906   2.711   2.698 -0.6823  2.6000  1.1231
  754MOL0     H 1753  10.136   2.745   2.818  1.3308 -2.6508 -0.3261
  754MOL0     H 1754  10.332   2.753   2.935  1.9122  0.5573  1.7758
  754MOL0     H 1755  10.237   2.892   2.983  4.0042  1.7973 -0.2919
  754MOL0     H 1756  10.323   2.855   3.214  0.5354 -1.1150  1.0056
  754MOL0     H 1757  10.410   2.710   3.161  2.5823  1.5550  2.7005
  754MOL0     H 1758  10.530   2.897   2.987  0.7199 -0.8291  0.3889
  754MOL0     H 1759  10.486   2.999   3.125  0.5423 -0.1559  0.6951
  754MOL0     H 1760  10.657   2.744   3.118  3.3174  2.1081 -2.0303
  754MOL0     H 1761  10.601   2.811   3.265 -0.3889 -1.3177 -1.3077
  754MOL0     H 1762  10.719   3.038   3.160  1.6803  0.7125 -1.3392
  754MOL0     H 1763  10.762   2.928   3.036 -1.8014 -2.0513  0.5829
  754MOL0     H 1764  10.851   2.956   3.316 -2.3129  0.0264 -0.3893
  754MOL0     H 1765  10.896   2.799   3.231 -0.2536  0.2633  1.0636
  754MOL0     H 1766  10.964   3.062   3.117 -1.7941 -0.2776  0.6528
  754MOL0     H 1767  11.014   2.906   3.060 -2.8583  0.0889 -0.3884
  754MOL0     H 1768  11.107   3.043   3.325  2.2188 -2.3381  1.6443
  754MOL0     H 1769  11.129   2.868   3.268 -0.8091 -1.1419  0.1030
  754MOL0     H 1770   9.971   2.599   3.180 -1.6037 -0.1823  0.1630
  754MOL0     H 1771   9.755   2.550   3.076  0.1396  0.0899  0.2902
  754MOL0     H 1772   9.586   2.769   2.623 -0.6888  1.3280 -1.6639
  754MOL0     H 1773   9.452   2.795   2.463 -2.5606 -0.0845  0.0718
  754MOL0     H 1774   7.522   2.372   2.200  3.1844  0.7560  0.1596
  754MOL0     H 1775   7.284   2.445   2.288 -0.6533 -1.1488 -0.8702
  754MOL0     H 1776   6.999   2.876   2.320  0.8132 -0.7038  2.0561
  754MOL0     H 1777   6.785   2.950   2.436 -0.7596 -0.2693 -0.6221
  754MOL0     H 1778   6.494   2.633   2.531 -0.9316 -0.6047  0.2393
  754MOL0     H 1779   6.429   2.786   2.605  0.2922 -0.9218  2.6449
  754MOL0     H 1780   6.681   2.647   2.688 -0.5362 -1.2475 -1.3079
  754MOL0     H 1781   6.527   2.632   2.774  1.8135 -0.3163  0.1690
  754MOL0     H 1782   6.522   2.876   2.797  0.5130  1.9563  0.3119
  754MOL0     H 1783   6.683   2.890   2.725 -0.1476 -0.0433  0.7852
  754MOL0     H 1784   6.768   2.743   2.923 -0.5402 -0.8922 -1.1943
  754MOL0     H 1785   6.701   2.903   2.967  0.6419 -0.2013  0.4671
  754MOL0     H 1786   6.452   2.603   3.156 -0.2807  1.4326  1.6552
  754MOL0     H 1787   6.627   2.563   2.402  0.6772 -1.8711 -4.9580
  754MOL0     H 1788   6.920   2.387   2.349  1.8472  2.1966  0.3216
  754MOL0     H 1789   6.741   2.393   2.361  0.0386  0.7723  0.1634
  754MOL0     H 1790   6.812   2.405   2.206 -1.8945 -1.2222  1.0325
  755MOL0     O 1791   5.917   4.468   6.061 -0.6716  0.3117  0.7004
  755MOL0     C 1792   5.885   4.581   6.091 -0.0689  0.1258  0.5932
  755MOL0     O 1793   5.964   4.681   6.097  0.3288 -0.1637 -0.1361
  755MOL0     C 1794   6.083   4.675   6.027  0.0327 -0.4859 -0.2483
  755MOL0     C 1795   6.184   4.735   6.094  0.1946  0.2338 -0.4577
  755MOL0     C 1796   6.311   4.733   6.040 -0.2378 -0.0679  0.0394
  755MOL0     C 1797   6.341   4.663   5.919 -0.1543  0.3323 -0.3320
  755MOL0     O 1798   6.469   4.643   5.874  0.5183 -0.1113  0.5280
  755MOL0     C 1799   6.585   4.709   5.930  0.3955  0.7289  0.1134
  755MOL0     C 1800   6.720   4.658   5.874  0.7212 -0.0526 -0.6587
  755MOL0     C 1801   6.835   4.756   5.900  0.7954 -0.5874  0.0011
  755MOL0     C 1802   6.834   4.885   5.811  0.1418  0.4579 -0.8515
  755MOL0     C 1803   6.964   4.963   5.827  0.2255  0.0681  0.9010
  755MOL0     C 1804   6.989   5.071   5.721 -0.5705  0.6679  1.0699
  755MOL0     C 1805   7.136   5.109   5.725 -0.6083 -0.2251  0.1986
  755MOL0     C 1806   7.219   4.998   5.653  0.5589 -0.0516  0.2481
  755MOL0     N 1807   7.363   5.050   5.652  0.9210 -0.0464 -0.5777
  755MOL0     C 1808   7.427   5.173   5.659 -0.3831 -0.5157  0.4357
  755MOL0     C 1809   7.557   5.149   5.667  0.1807 -0.6508  0.2161
  755MOL0     C 1810   7.665   5.255   5.645  0.0265  0.2573  0.7740
  755MOL0     C 1811   7.682   5.272   5.490 -0.4806  0.2933  0.4768
  755MOL0     C 1812   7.747   5.405   5.482 -0.0773 -0.9322  0.4868
  755MOL0     C 1813   7.759   5.451   5.338 -0.4330  0.4331  1.1780
  755MOL0     O 1814   7.857   5.371   5.265 -0.0417  0.5104 -0.0391
  755MOL0     C 1815   7.986   5.393   5.267  0.4038  0.7833  0.2620
  755MOL0     C 1816   8.045   5.499   5.329  0.0485  0.4171  0.0921
  755MOL0     C 1817   8.184   5.511   5.308 -0.2866 -0.4243  0.5470
  755MOL0     C 1818   8.267   5.430   5.224  0.6412 -0.8596 -0.0456
  755MOL0     C 1819   8.408   5.453   5.192  0.0683  0.2589  0.2220
  755MOL0     O 1820   8.471   5.532   5.279 -0.2900  0.0635  0.0512
  755MOL0     C 1821   8.585   5.596   5.237  0.0114  0.6002  0.0375
  755MOL0     C 1822   8.633   5.640   5.113  0.1981  0.3794 -0.2565
  755MOL0     C 1823   8.762   5.701   5.100 -0.2193 -0.1724  0.3738
  755MOL0     C 1824   8.836   5.729   5.212  0.3435 -0.2367  0.7233
  755MOL0     O 1825   8.955   5.797   5.214 -0.1104  0.6968  0.7192
  755MOL0     C 1826   8.943   5.924   5.141  0.1949 -0.2844 -0.2862
  755MOL0     C 1827   9.075   5.994   5.143  0.2148  0.2159  0.0137
  755MOL0     C 1828   9.127   6.025   5.284  0.5181 -0.2317  0.4142
  755MOL0     C 1829   9.231   6.133   5.262 -0.4621 -0.2941  0.0800
  755MOL0     C 1830   9.342   6.144   5.362  0.7719 -0.1637 -0.0827
  755MOL0     C 1831   9.439   6.259   5.321 -0.0183 -0.9209 -0.2414
  755MOL0     C 1832   9.368   6.392   5.331 -0.8517  0.8178 -0.6901
  755MOL0     C 1833   9.460   6.516   5.329  0.6934  0.4327 -0.5156
  755MOL0    Cl 1834   9.571   6.523   5.181  0.7182 -0.3696 -0.1511
  755MOL0     C 1835   8.790   5.683   5.338  0.3669  0.5141 -0.2949
  755MOL0     C 1836   8.659   5.623   5.351  0.5769  0.0476 -0.2621
  755MOL0     O 1837   8.464   5.401   5.097  0.8261 -0.0793 -0.0972
  755MOL0     C 1838   8.199   5.315   5.173 -0.6057  0.2395 -0.3407
  755MOL0     C 1839   8.060   5.304   5.185  0.4212  0.0204  0.1946
  755MOL0     N 1840   7.579   5.016   5.672  0.9375  0.0789 -0.2389
  755MOL0     N 1841   7.467   4.961   5.660 -0.2647  0.3813  1.2703
  755MOL0     C 1842   6.238   4.601   5.849 -0.3016 -0.3378  0.4731
  755MOL0     C 1843   6.104   4.597   5.908  0.0287 -0.7354 -0.9600
  755MOL0     C 1844   5.736   4.604   6.112 -0.0334 -0.5232 -0.4703
  755MOL0     C 1845   5.694   4.736   6.101  0.3401  0.0539  0.6468
  755MOL0     C 1846   5.555   4.757   6.098  0.7511 -0.4338 -0.8931
  755MOL0     C 1847   5.459   4.656   6.127 -0.1011 -0.4395  0.4308
  755MOL0     O 1848   5.324   4.708   6.136 -0.3064  0.0233  0.2058
  755MOL0     C 1849   5.228   4.609   6.169  1.0434  0.4600  0.2606
  755MOL0     C 1850   5.090   4.663   6.201 -0.2213 -0.2379 -0.6598
  755MOL0     C 1851   5.029   4.737   6.082  0.1065 -0.4412 -0.0146
  755MOL0     C 1852   4.908   4.819   6.125 -0.0842 -0.8053 -0.2237
  755MOL0     C 1853   4.788   4.736   6.138 -0.5542  0.2321 -0.2593
  755MOL0     C 1854   4.692   4.666   6.136  0.6002  0.9974  0.2206
  755MOL0     C 1855   5.501   4.521   6.143  0.1113  0.1297  0.4850
  755MOL0     C 1856   5.640   4.498   6.135 -0.8312 -0.1733  0.6774
  755MOL0     C 1857   5.677   4.348   6.146 -0.6993 -0.1049  0.5084
  755MOL0     H 1858   6.160   4.782   6.188 -2.4492 -1.2352 -0.3198
  755MOL0     H 1859   6.384   4.778   6.106  0.7968 -2.1810  0.4467
  755MOL0     H 1860   6.560   4.813   5.906 -1.1685  0.2863 -0.3206
  755MOL0     H 1861   6.572   4.691   6.037 -0.7578 -1.3595 -0.3244
  755MOL0     H 1862   6.711   4.646   5.766 -0.2078 -0.3264 -0.5638
  755MOL0     H 1863   6.747   4.567   5.929 -2.0635  0.1866  1.3622
  755MOL0     H 1864   6.935   4.712   5.891  0.5217 -1.1773 -0.2203
  755MOL0     H 1865   6.833   4.780   6.007 -1.9183 -1.2672  0.1846
  755MOL0     H 1866   6.824   4.850   5.708  0.6924 -2.6656  0.0442
  755MOL0     H 1867   6.746   4.945   5.836 -0.3105  0.4002 -2.2287
  755MOL0     H 1868   6.975   5.007   5.927  2.1137  1.0215  0.3184
  755MOL0     H 1869   7.038   4.883   5.812  0.3364  0.1815  0.8379
  755MOL0     H 1870   6.959   5.028   5.625  0.7767 -1.8431  1.6771
  755MOL0     H 1871   6.928   5.161   5.733 -2.5268 -0.2787 -1.1507
  755MOL0     H 1872   7.178   5.110   5.826  3.1514 -1.5803 -1.1709
  755MOL0     H 1873   7.152   5.202   5.669  0.2071  0.4981  1.5649
  755MOL0     H 1874   7.211   4.896   5.692  2.4160 -1.0624 -1.8034
  755MOL0     H 1875   7.175   4.999   5.553  1.7813  0.0675 -0.2935
  755MOL0     H 1876   7.381   5.271   5.653 -0.4912 -0.4879  1.4395
  755MOL0     H 1877   7.629   5.344   5.699  0.5750  0.3000  1.0760
  755MOL0     H 1878   7.762   5.231   5.689  0.1687 -0.9676 -0.1803
  755MOL0     H 1879   7.747   5.193   5.451  1.6295  1.6657  1.0607
  755MOL0     H 1880   7.594   5.252   5.428 -0.6484  2.7759 -0.1923
  755MOL0     H 1881   7.849   5.394   5.518 -0.0934  0.4074  0.9829
  755MOL0     H 1882   7.693   5.490   5.525  0.9768  1.0325 -1.8265
  755MOL0     H 1883   7.772   5.559   5.322 -3.4956  0.6901 -0.1969
  755MOL0     H 1884   7.661   5.422   5.300  0.2364 -1.6422  0.9388
  755MOL0     H 1885   7.986   5.564   5.392 -1.2956 -0.3202 -0.3863
  755MOL0     H 1886   8.235   5.603   5.333 -0.7746 -0.0687  0.2361
  755MOL0     H 1887   8.575   5.620   5.024  2.2154 -1.9635 -1.1766
  755MOL0     H 1888   8.803   5.720   5.001 -2.9599 -0.6054 -0.9136
  755MOL0     H 1889   8.919   5.897   5.037 -3.5867 -2.2511  0.9349
  755MOL0     H 1890   8.870   6.000   5.169  1.0975  1.9371 -3.3461
  755MOL0     H 1891   9.154   5.926   5.110  1.3058  0.3614  2.1371
  755MOL0     H 1892   9.068   6.082   5.079 -0.6265  0.0370 -0.1549
  755MOL0     H 1893   9.046   6.068   5.343  0.9361  0.8864  0.1907
  755MOL0     H 1894   9.182   5.941   5.327  0.7342 -0.5204 -0.4045
  755MOL0     H 1895   9.170   6.224   5.264 -0.0603 -0.0198 -0.0867
  755MOL0     H 1896   9.270   6.117   5.161 -0.2166 -0.9362  0.2723
  755MOL0     H 1897   9.389   6.045   5.362 -1.4285 -1.2526 -0.1400
  755MOL0     H 1898   9.302   6.158   5.463 -1.6549 -3.3830 -0.4346
  755MOL0     H 1899   9.528   6.260   5.385  0.6334  0.1408 -1.1232
  755MOL0     H 1900   9.473   6.247   5.218 -0.2507  0.0245 -0.4357
  755MOL0     H 1901   9.316   6.392   5.428  0.1799 -1.5348 -0.0703
  755MOL0     H 1902   9.297   6.395   5.248 -1.7171 -0.8189 -0.0500
  755MOL0     H 1903   9.399   6.606   5.330  0.2182  0.1112  0.0704
  755MOL0     H 1904   9.520   6.518   5.419 -0.5593 -0.8349  0.4033
  755MOL0     H 1905   8.856   5.692   5.424 -1.3014  1.3886  0.9531
  755MOL0     H 1906   8.621   5.582   5.444 -0.0559  0.2254 -0.4397
  755MOL0     H 1907   8.249   5.245   5.108  0.0599  0.3157  0.0829
  755MOL0     H 1908   8.014   5.215   5.143  1.0062 -0.7798  1.1886
  755MOL0     H 1909   6.270   4.551   5.758  0.9666 -0.1431  0.7897
  755MOL0     H 1910   6.023   4.542   5.863 -1.7733  0.5845  0.4982
  755MOL0     H 1911   5.757   4.818   6.067 -1.5660  1.1310 -0.4610
  755MOL0     H 1912   5.517   4.858   6.089  1.9244  0.5306  3.1937
  755MOL0     H 1913   5.270   4.547   6.250  0.5748 -1.3682 -0.8381
  755MOL0     H 1914   5.222   4.539   6.085 -1.0352  0.7904  0.0753
  755MOL0     H 1915   5.096   4.733   6.285 -2.1138 -1.1633  0.3205
  755MOL0     H 1916   5.032   4.581   6.245  1.6989 -0.6939  1.1143
  755MOL0     H 1917   5.006   4.665   6.002 -1.8835  0.4694 -0.3167
  755MOL0     H 1918   5.100   4.813   6.048 -3.0857  3.0897  0.6597
  755MOL0     H 1919   4.931   4.873   6.218  0.4437 -1.1448 -0.1543
  755MOL0     H 1920   4.887   4.902   6.056 -1.8626 -0.3173  0.8328
  755MOL0     H 1921   4.604   4.605   6.134 -0.0146  1.6673  2.8345
  755MOL0     H 1922   5.432   4.437   6.141  0.8791 -0.5304 -2.0073
  755MOL0     H 1923   5.770   4.342   6.203 -0.4458  0.8853  0.2176
  755MOL0     H 1924   5.604   4.285   6.196 -2.3178  0.9476 -0.4479
  755MOL0     H 1925   5.679   4.305   6.045 -0.7123  0.7628  0.1267
  756MOL0     O 1926   7.881   7.274  10.306 -0.7155  0.9307 -0.4133
  756MOL0     C 1927   7.783   7.322  10.253  0.3582  0.2266 -0.0709
  756MOL0     O 1928   7.787   7.417  10.163  0.4024 -0.6425 -0.6768
  756MOL0     C 1929   7.903   7.489  10.137  0.5708  1.3124  0.3680
  756MOL0     C 1930   7.930   7.616  10.193 -0.5867 -0.4020  0.3818
  756MOL0     C 1931   8.046   7.686  10.162 -0.5303 -0.8511 -0.2335
  756MOL0     C 1932   8.139   7.631  10.069  0.0133 -0.3353  0.2726
  756MOL0     O 1933   8.253   7.687  10.024 -0.1517 -0.6961  0.1737
  756MOL0     C 1934   8.326   7.752  10.120 -0.8541  0.6468 -0.3212
  756MOL0     C 1935   8.471   7.768  10.087 -0.5247  0.8625 -0.6601
  756MOL0     C 1936   8.555   7.878  10.157  0.4074 -0.3097 -0.1716
  756MOL0     C 1937   8.700   7.874  10.099  0.2366  0.6743 -0.1903
  756MOL0     C 1938   8.796   7.975  10.163  0.3806  0.7099  0.9379
  756MOL0     C 1939   8.928   7.981  10.084  0.4636 -0.3202 -0.2143
  756MOL0     C 1940   9.037   8.058  10.169  1.4121  0.9770 -0.0925
  756MOL0     C 1941   9.160   8.055  10.087  0.0028 -0.7909  0.1654
  756MOL0     N 1942   9.274   8.137  10.133  0.0695 -0.5721 -0.3642
  756MOL0     C 1943   9.363   8.095  10.223  0.1766 -0.1057  0.1038
  756MOL0     C 1944   9.443   8.205  10.241  0.1774 -0.0636 -1.0507
  756MOL0     C 1945   9.558   8.221  10.336 -0.2318  0.0066  0.4838
  756MOL0     C 1946   9.690   8.174  10.265  1.1141  0.0530 -0.7628
  756MOL0     C 1947   9.740   8.303  10.191  0.6314  0.3039 -0.5284
  756MOL0     C 1948   9.883   8.278  10.144  0.1955  0.1398  0.4315
  756MOL0     O 1949   9.974   8.261  10.255  0.1594 -0.2281  0.1745
  756MOL0     C 1950  10.101   8.223  10.248 -1.1751  0.3147 -0.3907
  756MOL0     C 1951  10.178   8.243  10.361  0.4140  0.0823 -0.3572
  756MOL0     C 1952  10.313   8.208  10.360 -0.1261 -0.7175 -0.7341
  756MOL0     C 1953  10.365   8.136  10.257  0.3306  0.3940  0.4017
  756MOL0     C 1954  10.485   8.062  10.270 -0.2170  0.5821 -0.3316
  756MOL0     O 1955  10.534   8.016  10.152 -0.2169  0.4497  0.8388
  756MOL0     C 1956  10.660   7.959  10.134  0.2670 -0.4070  0.1944
  756MOL0     C 1957  10.684   7.855  10.045  0.5034 -0.1969 -0.4419
  756MOL0     C 1958  10.814   7.807  10.015  0.5122 -0.5654  0.1112
  756MOL0     C 1959  10.931   7.869  10.067  0.3184  0.1801  0.1898
  756MOL0     O 1960  11.051   7.812  10.033  0.1432 -0.0675  0.2858
  756MOL0     C 1961  11.171   7.846  10.104  0.0775 -0.6950  0.8841
  756MOL0     C 1962  11.287   7.749  10.081 -0.2928  0.2927 -0.9876
  756MOL0     C 1963  11.339   7.752   9.942  0.1474  0.0282 -0.3652
  756MOL0     C 1964  11.485   7.713   9.944  0.9507 -0.5573 -0.1780
  756MOL0     C 1965  11.499   7.575   9.984  0.2110  0.5556 -0.5835
  756MOL0     C 1966  11.648   7.538   9.956 -0.1512 -0.1161  0.6666
  756MOL0     C 1967  11.681   7.399  10.031  0.5413 -0.7450 -0.2435
  756MOL0     C 1968  11.620   7.268   9.969 -0.3542 -0.4732 -0.3657
  756MOL0    Cl 1969  11.454   7.256   9.997  0.0698 -0.1698  0.2445
  756MOL0     C 1970  10.904   7.976  10.154 -0.2772 -0.0708  0.2059
  756MOL0     C 1971  10.776   8.021  10.187 -0.3366  0.3659  0.4316
  756MOL0     O 1972  10.546   8.062  10.378 -0.1252  0.1595  0.4324
  756MOL0     C 1973  10.287   8.123  10.138 -0.5780 -0.2940 -0.1927
  756MOL0     C 1974  10.162   8.166  10.136 -0.0281 -0.6325 -0.5157
  756MOL0     N 1975   9.401   8.313  10.157 -0.4750  0.1806 -0.1800
  756MOL0     N 1976   9.302   8.263  10.090  0.7636 -0.3042  0.3805
  756MOL0     C 1977   8.106   7.510  10.003 -0.0929  0.0301  0.1837
  756MOL0     C 1978   7.990   7.439  10.042  0.3910 -0.4492  0.5968
  756MOL0     C 1979   7.651   7.272  10.292  0.2620 -0.1839 -0.2456
  756MOL0     C 1980   7.631   7.131  10.317  0.3989 -0.0818  0.2304
  756MOL0     C 1981   7.501   7.095  10.352 -0.2818 -0.3316  0.5273
  756MOL0     C 1982   7.389   7.183  10.364 -0.7708  0.0101 -0.2051
  756MOL0     O 1983   7.274   7.118  10.394  0.0611  0.0841 -0.1711
  756MOL0     C 1984   7.142   7.175  10.364 -0.0985 -0.2169 -0.8666
  756MOL0     C 1985   7.104   7.154  10.223  0.9882  0.4364  0.2076
  756MOL0     C 1986   6.952   7.187  10.204 -0.4433  0.1924 -0.0970
  756MOL0     C 1987   6.872   7.055  10.201 -0.0963  0.1283 -0.4072
  756MOL0     C 1988   6.731   7.064  10.171  0.8437 -1.2444  1.3761
  756MOL0     C 1989   6.610   7.069  10.167 -0.3617 -0.3077  0.6525
  756MOL0     C 1990   7.415   7.313  10.341  0.3349 -0.7764  1.2723
  756MOL0     C 1991   7.541   7.365  10.310  0.2794  0.5106 -0.2514
  756MOL0     C 1992   7.560   7.518  10.304  0.0703 -0.2429  0.0176
  756MOL0     H 1993   7.861   7.661  10.264  1.2242 -0.3935  2.2461
  756MOL0     H 1994   8.075   7.779  10.210 -0.8239 -1.4860  1.2190
  756MOL0     H 1995   8.287   7.853  10.137  1.0480  1.7568 -2.0681
  756MOL0     H 1996   8.324   7.703  10.218 -0.1868  0.1061 -0.5708
  756MOL0     H 1997   8.479   7.774   9.978 -2.2589 -0.8332 -0.9278
  756MOL0     H 1998   8.519   7.673  10.111 -2.9962 -0.4837 -0.7594
  756MOL0     H 1999   8.556   7.872  10.266  0.9554  0.5485 -0.1240
  756MOL0     H 2000   8.504   7.974  10.146  0.5291  0.6020  4.8078
  756MOL0     H 2001   8.751   7.777  10.102  1.1440  1.0946 -1.1777
  756MOL0     H 2002   8.693   7.894   9.991  3.3337  0.9292 -0.4471
  756MOL0     H 2003   8.748   8.073  10.169 -1.9770 -0.2902 -0.0338
  756MOL0     H 2004   8.805   7.943  10.267  3.2768  0.1657  0.5846
  756MOL0     H 2005   8.954   7.876  10.072  2.4678 -0.1388  1.9160
  756MOL0     H 2006   8.912   8.023   9.984  0.8538 -0.9205 -0.5320
  756MOL0     H 2007   9.055   8.009  10.265 -0.7542  0.6563  0.2189
  756MOL0     H 2008   9.002   8.161  10.181  1.9188  1.3277 -1.4911
  756MOL0     H 2009   9.196   7.951  10.085  1.7042 -0.3898  2.8963
  756MOL0     H 2010   9.130   8.086   9.987 -2.6837 -1.3731  0.7200
  756MOL0     H 2011   9.366   7.993  10.262 -0.9286  0.0180  0.5609
  756MOL0     H 2012   9.561   8.323  10.373  1.8305 -0.9313  3.2338
  756MOL0     H 2013   9.545   8.159  10.425 -0.4152 -0.8960 -0.1553
  756MOL0     H 2014   9.763   8.141  10.338 -0.9520 -0.6441  1.1084
  756MOL0     H 2015   9.667   8.094  10.193  1.0529 -0.1857 -0.4793
  756MOL0     H 2016   9.738   8.391  10.256 -0.9706 -0.2071  0.1690
  756MOL0     H 2017   9.673   8.320  10.106  0.0414  3.4427  0.4299
  756MOL0     H 2018   9.912   8.365  10.083 -0.9954  0.4693  0.3127
  756MOL0     H 2019   9.878   8.192  10.076  0.0944 -0.7007  1.4709
  756MOL0     H 2020  10.130   8.280  10.451 -0.7842 -0.2656 -0.8444
  756MOL0     H 2021  10.368   8.226  10.452  0.5039  1.3418 -1.4551
  756MOL0     H 2022  10.597   7.808  10.000 -1.6785  1.9002  1.3309
  756MOL0     H 2023  10.823   7.727   9.943 -2.6674  0.7540 -2.0044
  756MOL0     H 2024  11.199   7.947  10.074 -0.5933 -1.4901 -2.7937
  756MOL0     H 2025  11.147   7.849  10.211  1.5747  0.2757  1.2230
  756MOL0     H 2026  11.359   7.781  10.158 -0.2345 -1.6351 -0.1967
  756MOL0     H 2027  11.256   7.648  10.108  0.5788 -0.2095 -1.8040
  756MOL0     H 2028  11.289   7.677   9.881  2.5454 -1.1461 -1.0183
  756MOL0     H 2029  11.334   7.846   9.885 -0.6915 -0.2261 -0.7250
  756MOL0     H 2030  11.538   7.777  10.015  1.4621 -1.3979  0.2213
  756MOL0     H 2031  11.523   7.738   9.844 -1.2176  0.5876 -0.7760
  756MOL0     H 2032  11.419   7.513   9.941  0.1591 -0.9263  1.5108
  756MOL0     H 2033  11.491   7.558  10.092  1.7827 -2.5904 -0.8472
  756MOL0     H 2034  11.653   7.521   9.848  0.9595  0.6451  0.5766
  756MOL0     H 2035  11.708   7.626   9.979 -0.8201  1.0886 -1.9115
  756MOL0     H 2036  11.634   7.403  10.130  0.5244  0.8167 -0.2925
  756MOL0     H 2037  11.790   7.390  10.041  0.4140 -1.5415  0.5416
  756MOL0     H 2038  11.643   7.261   9.862  0.0506  0.4903 -0.3456
  756MOL0     H 2039  11.670   7.179  10.008 -2.2000 -1.1144  0.6766
  756MOL0     H 2040  10.984   8.036  10.198 -0.0126 -1.8411  2.3494
  756MOL0     H 2041  10.758   8.111  10.245 -1.3854  0.9394 -0.7406
  756MOL0     H 2042  10.311   8.060  10.053 -1.7820  0.5757 -1.2122
  756MOL0     H 2043  10.097   8.154  10.050 -1.1304 -0.9739  0.3354
  756MOL0     H 2044   8.167   7.475   9.920 -0.2172  0.4892 -0.1065
  756MOL0     H 2045   7.960   7.353   9.984  1.6252 -0.2394 -0.3990
  756MOL0     H 2046   7.714   7.064  10.301  0.3651 -0.2053  0.5650
  756MOL0     H 2047   7.486   6.994  10.389 -0.2355 -0.5933 -0.1564
  756MOL0     H 2048   7.139   7.284  10.375 -2.9511 -0.4358  1.7313
  756MOL0     H 2049   7.079   7.133  10.442  0.3941 -0.4675 -0.5957
  756MOL0     H 2050   7.132   7.051  10.200  1.8341 -0.1589  3.5204
  756MOL0     H 2051   7.169   7.220  10.164  1.2923 -1.1446 -1.3055
  756MOL0     H 2052   6.946   7.241  10.109  3.0151 -1.5704 -1.5195
  756MOL0     H 2053   6.911   7.251  10.282 -0.2776 -0.3347  0.4372
  756MOL0     H 2054   6.917   6.982  10.133 -0.9080  0.4647 -1.3235
  756MOL0     H 2055   6.895   7.020  10.303  0.4586 -3.1522 -1.5391
  756MOL0     H 2056   6.504   7.054  10.162 -0.7698  2.4216 -1.1263
  756MOL0     H 2057   7.332   7.383  10.339  0.2928 -0.8251 -0.3933
  756MOL0     H 2058   7.554   7.559  10.203 -1.2155 -0.5159 -0.0244
  756MOL0     H 2059   7.481   7.561  10.366  0.7592 -1.0966  1.5394
  756MOL0     H 2060   7.657   7.545  10.348 -0.7642  1.1749  1.0646
  757MOL0     O 2061   5.803  11.024   1.999  0.0539  0.0982 -0.1744
  757MOL0     C 2062   5.726  11.011   1.902  1.0999 -0.0415 -0.4582
  757MOL0     O 2063   5.745  11.069   1.782  0.4993 -0.8323  0.1167
  757MOL0     C 2064   5.866  11.111   1.740 -0.7037 -0.4455 -0.5506
  757MOL0     C 2065   5.932  11.036   1.643  0.1576 -0.9485 -0.0992
  757MOL0     C 2066   6.060  11.077   1.596 -0.6250  0.4945  0.0252
  757MOL0     C 2067   6.129  11.178   1.660  0.0833 -0.4191  0.6238
  757MOL0     O 2068   6.262  11.205   1.615  1.1476 -0.2083 -0.1030
  757MOL0     C 2069   6.349  11.093   1.625  0.5563  0.4694  0.0380
  757MOL0     C 2070   6.450  11.084   1.511 -0.2039 -0.3684  0.4053
  757MOL0     C 2071   6.518  11.222   1.479 -0.8825 -0.5317 -0.0645
  757MOL0     C 2072   6.641  11.205   1.380 -0.3437 -0.9466 -0.0529
  757MOL0     C 2073   6.713  11.333   1.339 -0.0942 -0.9400  0.2443
  757MOL0     C 2074   6.835  11.307   1.250  0.6081 -1.6013 -0.0445
  757MOL0     C 2075   6.888  11.444   1.198 -0.1470  0.6556  0.5705
  757MOL0     C 2076   6.994  11.423   1.097 -0.5168 -0.3995 -0.4089
  757MOL0     N 2077   7.033  11.554   1.037 -0.0998 -0.6421 -0.2296
  757MOL0     C 2078   7.095  11.651   1.105  0.4414 -0.6287 -0.0633
  757MOL0     C 2079   7.146  11.731   1.007  0.7919  0.0848 -0.5728
  757MOL0     C 2080   7.230  11.853   1.014 -0.1974 -1.0999 -0.1643
  757MOL0     C 2081   7.335  11.849   1.127  0.3580  0.1303  0.5201
  757MOL0     C 2082   7.448  11.931   1.087 -0.1774 -0.1865 -0.2190
  757MOL0     C 2083   7.421  12.080   1.064 -0.8078 -0.3185 -0.0116
  757MOL0     O 2084   7.521  12.170   1.120  0.0245 -0.2843  0.0819
  757MOL0     C 2085   7.654  12.137   1.117 -0.3844  0.2747 -0.2530
  757MOL0     C 2086   7.713  12.091   1.003  0.0673 -0.2678  0.2183
  757MOL0     C 2087   7.847  12.052   1.009 -0.5015 -0.9635  1.1968
  757MOL0     C 2088   7.927  12.079   1.121  0.2135 -0.4783  0.6572
  757MOL0     C 2089   8.073  12.078   1.116 -1.2753  0.3700  0.2332
  757MOL0     O 2090   8.141  12.112   1.230  0.0930 -0.8734  0.4186
  757MOL0     C 2091   8.275  12.126   1.239  0.4443 -0.6732  0.0977
  757MOL0     C 2092   8.314  12.201   1.342 -0.2517 -0.4572 -0.3248
  757MOL0     C 2093   8.446  12.231   1.373  0.3939 -0.9974  0.3146
  757MOL0     C 2094   8.540  12.174   1.289 -0.9568  0.1993 -0.0319
  757MOL0     O 2095   8.669  12.206   1.327 -0.2432  0.0169  0.2909
  757MOL0     C 2096   8.776  12.163   1.239  0.0107  0.4391  0.4530
  757MOL0     C 2097   8.892  12.233   1.305  0.4839  0.0377 -0.9059
  757MOL0     C 2098   9.034  12.195   1.255  0.0247 -0.0286 -0.1352
  757MOL0     C 2099   9.148  12.226   1.359 -0.5077  0.0589  0.3017
  757MOL0     C 2100   9.288  12.163   1.319  0.8628  0.0626  0.3339
  757MOL0     C 2101   9.355  12.237   1.210  0.2763 -0.3980  0.0877
  757MOL0     C 2102   9.495  12.187   1.178 -0.1381  0.6584 -0.4096
  757MOL0     C 2103   9.539  12.256   1.048 -0.4992  0.1378  0.5431
  757MOL0    Cl 2104   9.450  12.210   0.905  0.0250  0.0833  0.3664
  757MOL0     C 2105   8.508  12.090   1.180  0.4739  0.1940 -0.3796
  757MOL0     C 2106   8.373  12.071   1.145  0.3734 -0.9601 -0.0147
  757MOL0     O 2107   8.127  12.053   1.004  0.1024 -0.1232  0.0407
  757MOL0     C 2108   7.863  12.134   1.236 -1.1901  0.4782 -0.1559
  757MOL0     C 2109   7.726  12.159   1.232  0.6225  0.3329 -0.0531
  757MOL0     N 2110   7.122  11.673   0.881  0.1248  0.4439 -0.2706
  757MOL0     N 2111   7.051  11.568   0.904 -0.2140  0.3573  0.2231
  757MOL0     C 2112   6.064  11.256   1.757  0.9810  0.5269  0.2226
  757MOL0     C 2113   5.932  11.220   1.798 -0.7734  0.3343 -0.0595
  757MOL0     C 2114   5.594  10.954   1.923 -0.0456  0.1007  0.9570
  757MOL0     C 2115   5.556  10.948   2.058  0.0713  0.6494  0.1129
  757MOL0     C 2116   5.423  10.923   2.090  0.3257 -0.1076  0.0387
  757MOL0     C 2117   5.323  10.889   1.991  0.2104 -0.0640 -0.2471
  757MOL0     O 2118   5.191  10.883   2.034  0.0494 -0.7488 -0.7603
  757MOL0     C 2119   5.094  10.889   1.926 -0.1029  0.5623  0.2004
  757MOL0     C 2120   4.958  10.833   1.975 -0.9243  0.0416 -0.1238
  757MOL0     C 2121   4.979  10.709   2.063 -0.7680  0.9880  0.0263
  757MOL0     C 2122   4.852  10.652   2.128  0.3954 -0.0828 -0.3105
  757MOL0     C 2123   4.768  10.574   2.036 -0.2861  0.5490  0.6920
  757MOL0     C 2124   4.685  10.502   1.979 -0.2948 -0.5819 -0.2356
  757MOL0     C 2125   5.366  10.881   1.860 -1.0880 -0.4662  0.2771
  757MOL0     C 2126   5.500  10.911   1.827  0.8330 -0.6751 -0.2195
  757MOL0     C 2127   5.529  10.894   1.685 -0.5745  0.2452  0.4855
  757MOL0     H 2128   5.884  10.950   1.597 -2.7537  1.5008 -2.1491
  757MOL0     H 2129   6.109  11.018   1.519  0.3914  0.1574  0.9001
  757MOL0     H 2130   6.405  11.114   1.717 -0.2716  0.7882  0.4797
  757MOL0     H 2131   6.296  10.998   1.635 -0.0183  0.6012 -1.5971
  757MOL0     H 2132   6.396  11.044   1.425 -0.5955 -1.8094  1.2864
  757MOL0     H 2133   6.522  11.005   1.534 -0.3666 -1.2705 -1.9614
  757MOL0     H 2134   6.555  11.264   1.574 -1.5197 -0.2339  0.0567
  757MOL0     H 2135   6.443  11.291   1.440 -0.6324 -1.1303 -1.6851
  757MOL0     H 2136   6.711  11.132   1.422  0.9534  0.5522  0.4944
  757MOL0     H 2137   6.604  11.153   1.291 -0.7974 -1.1258  0.2371
  757MOL0     H 2138   6.638  11.375   1.271  0.7256 -0.9300 -0.6559
  757MOL0     H 2139   6.743  11.408   1.414  1.4106 -0.4381 -0.8230
  757MOL0     H 2140   6.912  11.257   1.311  1.4495  0.1103  0.3510
  757MOL0     H 2141   6.809  11.232   1.175  1.6130 -1.2928 -0.7225
  757MOL0     H 2142   6.921  11.513   1.276  1.7899 -0.4998  0.8453
  757MOL0     H 2143   6.807  11.494   1.144  1.0139  0.4169 -1.4920
  757MOL0     H 2144   7.078  11.368   1.141 -0.9320 -0.4147  0.3856
  757MOL0     H 2145   6.953  11.363   1.015  2.2403  2.5411 -4.3427
  757MOL0     H 2146   7.108  11.675   1.210 -0.0967  2.4145 -0.5805
  757MOL0     H 2147   7.286  11.845   0.920  1.1892 -3.5516  0.7792
  757MOL0     H 2148   7.166  11.942   1.020  1.2766  0.0446 -0.7213
  757MOL0     H 2149   7.284  11.867   1.222 -0.1038  1.2603  0.0814
  757MOL0     H 2150   7.366  11.745   1.133 -1.4291 -0.4510  0.4099
  757MOL0     H 2151   7.496  11.886   1.000 -0.1444 -1.1737  0.3024
  757MOL0     H 2152   7.519  11.922   1.170  0.7100 -1.3836 -1.0704
  757MOL0     H 2153   7.327  12.115   1.108  0.2582  2.9876 -0.0361
  757MOL0     H 2154   7.403  12.112   0.961 -0.6889  1.4261  0.4709
  757MOL0     H 2155   7.639  12.061   0.930 -1.9150 -2.4642  2.9130
  757MOL0     H 2156   7.902  12.017   0.922 -0.0008 -0.0982  1.1586
  757MOL0     H 2157   8.238  12.241   1.408 -0.6344 -1.1581 -0.3285
  757MOL0     H 2158   8.471  12.288   1.462  0.1369  1.4069 -1.0546
  757MOL0     H 2159   8.779  12.053   1.236  1.7350  0.4631 -0.2787
  757MOL0     H 2160   8.771  12.208   1.140  2.2094  2.5523  1.1943
  757MOL0     H 2161   8.888  12.341   1.289  0.3919  0.0542 -0.7802
  757MOL0     H 2162   8.889  12.212   1.413  0.8152  1.2094 -0.6548
  757MOL0     H 2163   9.037  12.087   1.242 -0.8068 -0.5373  3.0791
  757MOL0     H 2164   9.057  12.249   1.162 -4.3204 -0.3741 -1.6704
  757MOL0     H 2165   9.121  12.185   1.456 -4.4118 -0.0795 -0.6840
  757MOL0     H 2166   9.154  12.335   1.374  0.6393  0.0674 -0.1392
  757MOL0     H 2167   9.278  12.058   1.289  2.5067 -0.1727  0.5043
  757MOL0     H 2168   9.343  12.178   1.413 -1.3996  3.9463  1.2354
  757MOL0     H 2169   9.298  12.227   1.117 -2.4810 -0.0793  1.6669
  757MOL0     H 2170   9.365  12.339   1.245  2.2959 -0.3591 -0.4634
  757MOL0     H 2171   9.509  12.080   1.158  2.0821  0.7176  0.4621
  757MOL0     H 2172   9.558  12.214   1.264 -1.5137 -3.5294  2.2011
  757MOL0     H 2173   9.535  12.365   1.058  2.3840  0.2509  1.3162
  757MOL0     H 2174   9.643  12.225   1.037 -0.9486 -0.9494 -0.9279
  757MOL0     H 2175   8.582  12.037   1.121  0.8222  1.5427 -1.2101
  757MOL0     H 2176   8.344  12.005   1.064 -0.3285  0.5008 -1.0064
  757MOL0     H 2177   7.920  12.163   1.324 -1.8624  0.8107  0.1786
  757MOL0     H 2178   7.670  12.199   1.316 -0.5214  0.9148 -1.0616
  757MOL0     H 2179   6.121  11.324   1.821 -2.3653  3.0003  0.8717
  757MOL0     H 2180   5.877  11.263   1.882 -1.6706 -2.5695  0.9594
  757MOL0     H 2181   5.622  10.990   2.133  1.7568 -1.7519  0.0878
  757MOL0     H 2182   5.390  10.940   2.192  0.9618 -0.4798  0.3076
  757MOL0     H 2183   5.121  10.831   1.838  2.0691  1.2650  0.3468
  757MOL0     H 2184   5.087  10.988   1.880  0.8525  0.1035 -0.9637
  757MOL0     H 2185   4.905  10.800   1.886  0.2030  1.9370 -1.5662
  757MOL0     H 2186   4.890  10.907   2.020 -2.5864 -1.5187  0.0518
  757MOL0     H 2187   5.048  10.730   2.146 -0.0567  1.4158 -0.6633
  757MOL0     H 2188   5.030  10.629   2.009 -1.4147 -0.0136  0.8482
  757MOL0     H 2189   4.892  10.593   2.210  2.1782  0.6585 -0.5968
  757MOL0     H 2190   4.788  10.729   2.172 -1.2584 -1.7717  0.3681
  757MOL0     H 2191   4.612  10.445   1.925 -0.0482 -1.1984  0.0641
  757MOL0     H 2192   5.303  10.862   1.774 -0.9883  2.9264 -0.6834
  757MOL0     H 2193   5.547  10.995   1.646  1.7417  0.1840  1.1801
  757MOL0     H 2194   5.621  10.839   1.661 -1.9001 -1.1822 -1.5968
  757MOL0     H 2195   5.447  10.858   1.624 -1.2157 -1.6421  2.3392
  758MOL0     O 2196  10.365   8.204   4.756 -0.0555  0.6214  0.4964
  758MOL0     C 2197  10.375   8.257   4.642 -0.1311  0.1265  0.6336
  758MOL0     O 2198  10.441   8.204   4.530  0.3290 -0.5088 -0.2971
  758MOL0     C 2199  10.466   8.067   4.535 -0.7388 -0.2851 -0.1379
  758MOL0     C 2200  10.562   8.020   4.616  0.2960  0.0797 -0.6571
  758MOL0     C 2201  10.596   7.882   4.631  0.9876  0.2440 -0.0994
  758MOL0     C 2202  10.532   7.789   4.549 -0.2354 -0.7628 -0.3925
  758MOL0     O 2203  10.568   7.662   4.552 -0.0590  0.1501  0.4897
  758MOL0     C 2204  10.708   7.631   4.571 -0.3657  0.7606  1.2974
  758MOL0     C 2205  10.713   7.481   4.566 -0.2735  0.4448  0.0037
  758MOL0     C 2206  10.864   7.430   4.569  0.1684 -0.2396 -0.6614
  758MOL0     C 2207  10.867   7.281   4.592 -0.0586  0.2111 -0.7551
  758MOL0     C 2208  11.014   7.232   4.607 -0.5365 -0.1139  0.1874
  758MOL0     C 2209  11.019   7.082   4.627 -0.7172 -0.0692 -0.8927
  758MOL0     C 2210  11.154   7.013   4.626  0.2023 -0.5480 -0.3518
  758MOL0     C 2211  11.135   6.859   4.657 -0.0057 -0.3163 -0.4538
  758MOL0     N 2212  11.264   6.792   4.647 -0.2671 -0.5346  0.3992
  758MOL0     C 2213  11.361   6.805   4.544 -0.5788 -0.5698  0.5113
  758MOL0     C 2214  11.464   6.729   4.582 -0.7684  0.5298  0.2643
  758MOL0     C 2215  11.593   6.736   4.509  0.1857 -0.5342  0.3602
  758MOL0     C 2216  11.644   6.600   4.464  0.6724 -0.1976 -0.4733
  758MOL0     C 2217  11.702   6.515   4.578 -0.0697 -0.3826  0.1095
  758MOL0     C 2218  11.787   6.399   4.527 -0.1937  0.0041  0.1950
  758MOL0     O 2219  11.914   6.447   4.479  0.6450 -0.3183 -0.3710
  758MOL0     C 2220  12.022   6.447   4.556 -0.0185  0.1072 -0.0578
  758MOL0     C 2221  12.018   6.444   4.699  0.4028  0.4697  0.5970
  758MOL0     C 2222  12.129   6.463   4.778 -0.5327 -0.3921 -0.9224
  758MOL0     C 2223  12.254   6.488   4.719  0.6206 -0.0860  0.1355
  758MOL0     C 2224  12.369   6.512   4.805  0.4088  0.0783 -0.7788
  758MOL0     O 2225  12.482   6.505   4.737  1.1992  0.2242  0.0966
  758MOL0     C 2226  12.603   6.532   4.789  0.8726  0.0874 -1.0830
  758MOL0     C 2227  12.714   6.467   4.727  0.0559  0.2795  0.2256
  758MOL0     C 2228  12.848   6.467   4.776 -0.3245  0.4187 -0.0880
  758MOL0     C 2229  12.874   6.544   4.897 -0.2900 -0.0377 -0.0018
  758MOL0     O 2230  12.994   6.551   4.968 -0.5127 -0.0896  0.1859
  758MOL0     C 2231  13.110   6.514   4.892 -0.0285  0.2502 -0.2434
  758MOL0     C 2232  13.246   6.538   4.964  0.8795 -0.4262 -0.4765
  758MOL0     C 2233  13.367   6.547   4.878 -0.7233 -0.8092  0.2390
  758MOL0     C 2234  13.396   6.419   4.795  0.4337  0.4503 -0.2048
  758MOL0     C 2235  13.425   6.294   4.884  0.4908 -0.4180 -0.1054
  758MOL0     C 2236  13.521   6.321   5.003 -0.7468 -0.3919  0.7374
  758MOL0     C 2237  13.658   6.367   4.948  0.2725 -0.4449 -0.0403
  758MOL0     C 2238  13.746   6.410   5.064  1.2097  0.0441 -0.3565
  758MOL0    Cl 2239  13.768   6.284   5.196  0.3059 -0.3228 -0.0526
  758MOL0     C 2240  12.765   6.620   4.945  0.4932  0.4960 -0.0793
  758MOL0     C 2241  12.632   6.616   4.896 -0.8491 -0.6680  0.1828
  758MOL0     O 2242  12.360   6.531   4.925 -0.8451 -0.4213  0.2565
  758MOL0     C 2243  12.269   6.470   4.576 -0.1937 -0.3624 -0.0780
  758MOL0     C 2244  12.148   6.452   4.499 -0.8777  0.2527 -0.8249
  758MOL0     N 2245  11.425   6.655   4.693 -0.1050  0.3846  1.0833
  758MOL0     N 2246  11.313   6.700   4.740 -0.6069 -0.0715 -0.0006
  758MOL0     C 2247  10.440   7.837   4.458  0.1493  0.5648  0.5754
  758MOL0     C 2248  10.406   7.974   4.457  0.5240  0.8296 -0.4741
  758MOL0     C 2249  10.313   8.393   4.616  0.5152 -0.0342  0.4559
  758MOL0     C 2250  10.350   8.465   4.500  0.2279 -0.3589  0.2069
  758MOL0     C 2251  10.296   8.586   4.460  0.0749  0.2784 -0.8623
  758MOL0     C 2252  10.203   8.645   4.545  0.6012  0.6179  0.1228
  758MOL0     O 2253  10.143   8.763   4.511 -0.7218  0.3327 -0.0425
  758MOL0     C 2254  10.129   8.861   4.617  0.1389 -0.4671 -0.4264
  758MOL0     C 2255  10.263   8.893   4.704  0.5918  0.2519  0.8723
  758MOL0     C 2256  10.260   9.000   4.814 -0.2253  0.6444 -0.7913
  758MOL0     C 2257  10.370   8.974   4.915  0.2787 -0.3297 -0.0501
  758MOL0     C 2258  10.349   8.854   4.993 -0.5046 -0.8418 -0.0614
  758MOL0     C 2259  10.351   8.747   5.048 -0.6759  0.6532 -0.3564
  758MOL0     C 2260  10.177   8.577   4.664 -0.3001 -1.1171 -0.4552
  758MOL0     C 2261  10.227   8.455   4.706 -0.5526 -0.3205  0.6670
  758MOL0     C 2262  10.186   8.407   4.845  0.7865  0.0013 -0.7086
  758MOL0     H 2263  10.608   8.090   4.685 -0.9458  0.4045 -0.1346
  758MOL0     H 2264  10.666   7.842   4.704  0.3908 -1.3160 -0.3457
  758MOL0     H 2265  10.770   7.663   4.486 -1.0294 -2.3943 -0.5291
  758MOL0     H 2266  10.752   7.676   4.661  0.6115 -1.2058  1.8499
  758MOL0     H 2267  10.659   7.433   4.484  1.5040 -1.0449 -0.3793
  758MOL0     H 2268  10.662   7.450   4.658  2.3492  0.1748  1.4819
  758MOL0     H 2269  10.933   7.473   4.642  3.4034 -0.4627 -3.3176
  758MOL0     H 2270  10.910   7.442   4.470 -0.0753  0.6474 -0.6765
  758MOL0     H 2271  10.804   7.257   4.679  1.2558  0.1572  0.2074
  758MOL0     H 2272  10.824   7.229   4.506  1.0609 -0.8055 -0.7288
  758MOL0     H 2273  11.066   7.252   4.512 -0.0006 -1.2924  0.2213
  758MOL0     H 2274  11.059   7.292   4.686  0.3385  1.3131 -1.3103
  758MOL0     H 2275  10.969   7.053   4.719 -0.6132  0.6253 -0.6168
  758MOL0     H 2276  10.957   7.032   4.552 -0.9072 -0.3112 -0.5774
  758MOL0     H 2277  11.216   7.062   4.701 -0.8385 -1.0761  0.8906
  758MOL0     H 2278  11.202   7.024   4.528  1.0267  0.2675  0.1300
  758MOL0     H 2279  11.101   6.847   4.760 -3.0347 -0.8547 -1.4331
  758MOL0     H 2280  11.061   6.817   4.589 -1.6664 -1.3027  1.8514
  758MOL0     H 2281  11.359   6.877   4.462  0.4866 -2.0985 -0.9081
  758MOL0     H 2282  11.585   6.799   4.419  3.6168  0.5577  0.6836
  758MOL0     H 2283  11.665   6.783   4.576 -1.1363 -2.0710  2.9947
  758MOL0     H 2284  11.564   6.542   4.417  0.4144 -3.3288  3.3183
  758MOL0     H 2285  11.722   6.635   4.396  2.2700 -0.8026  0.9811
  758MOL0     H 2286  11.626   6.474   4.644  0.5149 -1.4850  0.1271
  758MOL0     H 2287  11.759   6.582   4.642  0.1717  1.0704 -1.5362
  758MOL0     H 2288  11.729   6.344   4.452 -2.2265  0.1930  1.5525
  758MOL0     H 2289  11.801   6.328   4.609  0.8426  0.3894  0.3646
  758MOL0     H 2290  11.925   6.430   4.752  1.1110 -0.2350  1.6795
  758MOL0     H 2291  12.114   6.459   4.885  2.4486 -0.9078 -0.4351
  758MOL0     H 2292  12.683   6.399   4.647 -0.6239  1.4368 -0.5305
  758MOL0     H 2293  12.925   6.405   4.731  1.8021  0.9262  2.5808
  758MOL0     H 2294  13.113   6.411   4.856  1.2899 -0.0404  0.6163
  758MOL0     H 2295  13.110   6.587   4.811  1.3109  1.8990  1.1664
  758MOL0     H 2296  13.214   6.637   4.999 -1.8934 -1.3003 -0.3415
  758MOL0     H 2297  13.272   6.474   5.049  2.3270 -1.3808 -1.5820
  758MOL0     H 2298  13.361   6.621   4.798  2.4765  2.3347  2.6307
  758MOL0     H 2299  13.454   6.564   4.942 -0.8930 -1.3673  0.6228
  758MOL0     H 2300  13.485   6.436   4.734  0.3445 -1.2387 -0.8808
  758MOL0     H 2301  13.316   6.410   4.722  0.0616  2.1754 -0.0409
  758MOL0     H 2302  13.454   6.201   4.833  0.2531 -1.5010  1.6356
  758MOL0     H 2303  13.330   6.262   4.928  0.4182  0.9068  0.7426
  758MOL0     H 2304  13.475   6.390   5.074  2.0810  1.0417  1.2959
  758MOL0     H 2305  13.544   6.228   5.055  0.7671 -1.1830 -1.1811
  758MOL0     H 2306  13.649   6.451   4.878 -3.2695 -0.6541 -0.0388
  758MOL0     H 2307  13.711   6.288   4.894 -0.3734 -0.6494 -0.3943
  758MOL0     H 2308  13.845   6.446   5.033  0.8389  0.3370 -1.2371
  758MOL0     H 2309  13.693   6.498   5.100 -2.7454 -3.4146  3.3188
  758MOL0     H 2310  12.784   6.691   5.025 -1.3388 -1.2392  2.0338
  758MOL0     H 2311  12.567   6.690   4.941 -0.9319 -0.4020 -0.3665
  758MOL0     H 2312  12.361   6.486   4.521 -1.0479  3.8384 -0.6404
  758MOL0     H 2313  12.166   6.438   4.393 -0.0756 -3.0488 -0.3597
  758MOL0     H 2314  10.386   7.766   4.398  0.0861 -1.3551  2.7578
  758MOL0     H 2315  10.331   8.010   4.387  0.0949 -0.1841 -0.5514
  758MOL0     H 2316  10.431   8.432   4.435 -0.0903 -0.5414 -0.1011
  758MOL0     H 2317  10.335   8.633   4.370  1.7092  2.4038  0.8330
  758MOL0     H 2318  10.056   8.824   4.690  1.2339 -2.6510 -0.3639
  758MOL0     H 2319  10.099   8.959   4.578  3.5450  0.4476 -1.0970
  758MOL0     H 2320  10.342   8.929   4.638  0.4347  1.3621  1.2633
  758MOL0     H 2321  10.294   8.797   4.747 -0.3692 -0.8860 -0.8699
  758MOL0     H 2322  10.172   8.986   4.877  3.3055 -0.5288  4.5197
  758MOL0     H 2323  10.272   9.101   4.772  2.0818  0.0992 -1.6033
  758MOL0     H 2324  10.469   8.974   4.868  0.2365  1.2299 -0.1667
  758MOL0     H 2325  10.363   9.043   5.000 -1.9176 -0.7742  0.1845
  758MOL0     H 2326  10.360   8.663   5.113  1.3145 -0.7197 -2.2702
  758MOL0     H 2327  10.117   8.634   4.735  1.4765 -0.2313  0.4115
  758MOL0     H 2328  10.149   8.305   4.831  0.1599  0.1194  0.0137
  758MOL0     H 2329  10.275   8.406   4.908  0.8051 -0.9540 -0.7409
  758MOL0     H 2330  10.113   8.470   4.896  1.0453  0.2370 -0.6263
  759MOL0     O 2331   3.499   7.077  11.010  0.4775 -0.0222  0.5850
  759MOL0     C 2332   3.429   7.009  11.085 -0.0536  0.3962  0.7416
  759MOL0     O 2333   3.469   6.892  11.130  0.0305  0.3175 -0.3717
  759MOL0     C 2334   3.580   6.829  11.072 -0.2869 -0.9332 -0.0585
  759MOL0     C 2335   3.689   6.817  11.155 -0.6796  0.1248  0.1240
  759MOL0     C 2336   3.798   6.733  11.121  0.0870 -0.0330 -0.3521
  759MOL0     C 2337   3.788   6.659  11.002  1.0509  0.2349 -0.6815
  759MOL0     O 2338   3.882   6.576  10.951 -0.1668 -0.4443  0.4760
  759MOL0     C 2339   4.011   6.609  10.997  0.2540  0.5200 -0.2799
  759MOL0     C 2340   4.131   6.580  10.906  0.4694 -0.0770  0.4655
  759MOL0     C 2341   4.271   6.582  10.989  0.4150  0.4899  0.7021
  759MOL0     C 2342   4.389   6.561  10.897  0.8866 -0.1472 -0.3948
  759MOL0     C 2343   4.526   6.577  10.963 -0.3410  0.0066  0.8816
  759MOL0     C 2344   4.536   6.702  11.036  0.2576 -0.4917 -0.4649
  759MOL0     C 2345   4.670   6.717  11.099  0.2025 -0.0753  0.0191
  759MOL0     C 2346   4.670   6.853  11.177 -0.8305  0.4767 -0.5617
  759MOL0     N 2347   4.805   6.904  11.207 -0.7320 -0.3621 -0.7072
  759MOL0     C 2348   4.891   6.851  11.292 -0.3933  0.6363  0.3488
  759MOL0     C 2349   5.002   6.938  11.296  0.8469  0.1357  0.3802
  759MOL0     C 2350   5.109   6.910  11.386 -0.4513  0.0311 -0.8963
  759MOL0     C 2351   5.217   7.026  11.386  0.0251 -0.5524  0.7328
  759MOL0     C 2352   5.352   6.964  11.421  0.9252 -0.3580  0.6605
  759MOL0     C 2353   5.451   7.082  11.422 -0.3364  0.1801  1.0929
  759MOL0     O 2354   5.481   7.137  11.291  0.2263 -0.0903  0.0218
  759MOL0     C 2355   5.610   7.149  11.255 -0.0005 -0.3505 -0.4291
  759MOL0     C 2356   5.650   7.082  11.143  0.0198 -0.3700  0.0619
  759MOL0     C 2357   5.784   7.091  11.103  0.3055 -0.2729 -0.3795
  759MOL0     C 2358   5.883   7.160  11.172 -0.4752 -0.3771 -0.5013
  759MOL0     C 2359   6.016   7.196  11.119 -0.1159 -1.2348 -0.1067
  759MOL0     O 2360   6.094   7.283  11.184  0.1345  0.1510 -0.1908
  759MOL0     C 2361   6.222   7.292  11.144  0.0788 -0.4359  0.8284
  759MOL0     C 2362   6.321   7.192  11.171  0.9488  0.5293 -0.9724
  759MOL0     C 2363   6.449   7.204  11.122  0.4009 -0.7006 -0.6091
  759MOL0     C 2364   6.483   7.314  11.047 -0.9603  0.1921  0.2792
  759MOL0     O 2365   6.611   7.341  10.987 -0.4295 -0.1459 -0.3733
  759MOL0     C 2366   6.730   7.281  11.044 -0.5281  0.4396 -0.0719
  759MOL0     C 2367   6.846   7.327  10.952  0.3331  0.4534  0.4197
  759MOL0     C 2368   6.976   7.339  11.016 -0.3043  0.3364  0.1027
  759MOL0     C 2369   7.029   7.199  11.061 -0.2812 -0.5023  0.5558
  759MOL0     C 2370   7.127   7.217  11.176 -0.2608 -0.7730  0.5658
  759MOL0     C 2371   7.264   7.275  11.134  0.9197  0.3383  0.0444
  759MOL0     C 2372   7.348   7.171  11.060  0.3518 -0.3979  0.3203
  759MOL0     C 2373   7.474   7.241  11.003 -0.3977 -0.7969  0.6976
  759MOL0    Cl 2374   7.584   7.141  10.911 -0.2927  0.0010 -0.1311
  759MOL0     C 2375   6.387   7.413  11.030 -0.0914 -0.1491 -0.5229
  759MOL0     C 2376   6.259   7.404  11.080  0.0631  0.1057  0.0749
  759MOL0     O 2377   6.057   7.126  11.031 -0.1709  0.3640 -0.1350
  759MOL0     C 2378   5.840   7.224  11.291  0.6513 -0.1371  0.2613
  759MOL0     C 2379   5.705   7.220  11.333  0.0190  0.8063 -0.7126
  759MOL0     N 2380   4.964   7.042  11.220 -0.9313 -0.8073 -0.0530
  759MOL0     N 2381   4.856   7.025  11.158 -0.4218  0.0430  0.0078
  759MOL0     C 2382   3.676   6.664  10.925  0.0432  0.4357  0.1814
  759MOL0     C 2383   3.572   6.752  10.956  0.3117  0.0719 -0.0484
  759MOL0     C 2384   3.312   7.070  11.145 -0.0116  0.0402  0.3464
  759MOL0     C 2385   3.270   7.006  11.261  0.3322 -0.0055 -0.0338
  759MOL0     C 2386   3.154   7.056  11.330 -0.1482  0.5279 -0.3538
  759MOL0     C 2387   3.098   7.176  11.291 -0.2221  0.4484 -0.0164
  759MOL0     O 2388   2.999   7.242  11.354  0.7829 -0.9715 -0.1454
  759MOL0     C 2389   2.909   7.189  11.451 -0.0985  0.4726 -0.2193
  759MOL0     C 2390   2.768   7.254  11.442  0.2359 -0.4068 -0.0048
  759MOL0     C 2391   2.648   7.180  11.511 -0.6526 -0.2191  0.2540
  759MOL0     C 2392   2.601   7.239  11.647  0.6418  0.6041 -0.0455
  759MOL0     C 2393   2.707   7.244  11.741 -0.4283 -0.1433 -0.0596
  759MOL0     C 2394   2.801   7.259  11.819  0.6366 -0.3568 -0.5005
  759MOL0     C 2395   3.144   7.237  11.183 -0.2245 -0.4116 -0.5135
  759MOL0     C 2396   3.250   7.193  11.108 -0.9325  0.0756 -0.9780
  759MOL0     C 2397   3.293   7.285  10.994  0.5516  0.0439 -0.7783
  759MOL0     H 2398   3.679   6.876  11.245 -2.2948 -0.9853  0.7249
  759MOL0     H 2399   3.886   6.719  11.183  0.6921  0.7919 -1.0048
  759MOL0     H 2400   4.024   6.716  11.012 -1.8043  1.0510 -2.0018
  759MOL0     H 2401   4.020   6.551  11.090  3.5109 -1.6354 -1.7231
  759MOL0     H 2402   4.127   6.667  10.840  0.2479 -0.9734 -0.7418
  759MOL0     H 2403   4.116   6.489  10.846 -0.0385  0.2022  0.1618
  759MOL0     H 2404   4.272   6.500  11.061 -0.9391  1.1154  1.4930
  759MOL0     H 2405   4.279   6.675  11.046 -1.8172  2.3214 -1.6969
  759MOL0     H 2406   4.402   6.462  10.854  2.6748 -0.7018  1.2434
  759MOL0     H 2407   4.355   6.625  10.816 -1.0234  2.0984  1.9855
  759MOL0     H 2408   4.552   6.494  11.030 -1.4880 -0.9499  0.1814
  759MOL0     H 2409   4.605   6.570  10.888  0.2383 -1.0339  1.5584
  759MOL0     H 2410   4.500   6.785  10.975  0.3819  0.7844  1.1375
  759MOL0     H 2411   4.474   6.689  11.125 -0.3376 -3.5707 -1.2014
  759MOL0     H 2412   4.740   6.730  11.017  1.3194 -1.3301  0.7373
  759MOL0     H 2413   4.711   6.637  11.161  2.7509  1.5705  0.6331
  759MOL0     H 2414   4.624   6.932  11.117  2.0577  1.2260 -1.9565
  759MOL0     H 2415   4.613   6.846  11.270 -1.1953  0.9160 -0.7508
  759MOL0     H 2416   4.871   6.762  11.352 -0.9155  0.9895  0.7015
  759MOL0     H 2417   5.073   6.890  11.487  1.0312 -1.9744 -0.7154
  759MOL0     H 2418   5.153   6.817  11.349  0.1623 -0.2897  0.5760
  759MOL0     H 2419   5.216   7.067  11.284  1.0515  0.2409  1.0330
  759MOL0     H 2420   5.195   7.108  11.454 -1.3730 -0.8585  0.6806
  759MOL0     H 2421   5.379   6.887  11.348 -1.2592 -1.0584  0.5165
  759MOL0     H 2422   5.345   6.910  11.516  0.6811  1.4572  1.7239
  759MOL0     H 2423   5.546   7.046  11.464 -0.2312 -1.0290 -0.0944
  759MOL0     H 2424   5.413   7.160  11.488 -1.2092  1.4890 -0.8715
  759MOL0     H 2425   5.576   7.028  11.084  0.4767  1.1558 -2.0035
  759MOL0     H 2426   5.795   7.039  11.008  1.3390  1.9211 -1.5356
  759MOL0     H 2427   6.298   7.095  11.213 -1.6455  0.6144 -2.0308
  759MOL0     H 2428   6.526   7.129  11.143  1.1396  0.0715 -0.5075
  759MOL0     H 2429   6.743   7.308  11.149 -3.7328  1.7395  0.1101
  759MOL0     H 2430   6.728   7.173  11.032 -0.6170  0.5617 -1.3326
  759MOL0     H 2431   6.852   7.272  10.858  0.3348  1.9437 -0.4999
  759MOL0     H 2432   6.830   7.426  10.907 -0.0496 -0.3275 -1.2221
  759MOL0     H 2433   7.043   7.381  10.941  2.2320 -5.5410 -1.5462
  759MOL0     H 2434   6.965   7.400  11.106  0.3880  0.5458  0.0529
  759MOL0     H 2435   7.070   7.150  10.972  3.7533  1.4359  1.1074
  759MOL0     H 2436   6.953   7.130  11.101  1.6397 -2.0533  1.7373
  759MOL0     H 2437   7.147   7.126  11.233 -0.9837 -0.1057  1.9304
  759MOL0     H 2438   7.077   7.284  11.246 -0.3450  1.2104 -1.3020
  759MOL0     H 2439   7.252   7.364  11.071 -2.3585  0.8869  1.2597
  759MOL0     H 2440   7.314   7.312  11.224 -1.4172 -0.7166  1.8902
  759MOL0     H 2441   7.300   7.113  10.982  1.1301  1.0585 -1.3105
  759MOL0     H 2442   7.382   7.090  11.125 -0.1201 -1.5429 -0.8179
  759MOL0     H 2443   7.435   7.321  10.940 -4.0663 -2.2085  0.9203
  759MOL0     H 2444   7.533   7.273  11.089 -1.2239 -3.4008  2.3488
  759MOL0     H 2445   6.420   7.498  10.971  1.4122  1.3188  2.2520
  759MOL0     H 2446   6.187   7.483  11.060 -2.0674 -2.4482 -3.5901
  759MOL0     H 2447   5.903   7.288  11.351  0.2748 -0.4471  0.9961
  759MOL0     H 2448   5.676   7.261  11.429 -0.9492 -1.4044  0.0214
  759MOL0     H 2449   3.673   6.607  10.833 -0.5862  0.7452  0.0003
  759MOL0     H 2450   3.481   6.755  10.897 -0.5599  1.4148  1.2899
  759MOL0     H 2451   3.308   6.910  11.296 -0.0839 -0.0514  0.3064
  759MOL0     H 2452   3.115   7.005  11.417 -3.9150  1.9539 -1.0188
  759MOL0     H 2453   2.951   7.193  11.552 -0.3729 -0.0516 -0.0796
  759MOL0     H 2454   2.890   7.088  11.414 -1.7540  1.1085 -1.2167
  759MOL0     H 2455   2.749   7.274  11.336 -0.5674  0.1739  0.2414
  759MOL0     H 2456   2.783   7.353  11.485  1.3462 -0.3993 -0.3731
  759MOL0     H 2457   2.675   7.075  11.526  1.3445  0.1757 -0.2928
  759MOL0     H 2458   2.567   7.184  11.438  0.4994  0.0402 -1.0585
  759MOL0     H 2459   2.555   7.337  11.629 -2.4843 -0.8970 -1.0219
  759MOL0     H 2460   2.520   7.174  11.682  2.9129 -1.2223  2.1462
  759MOL0     H 2461   2.875   7.280  11.894 -0.8556 -0.8082  1.1687
  759MOL0     H 2462   3.103   7.328  11.138  1.4481 -0.6517 -2.6980
  759MOL0     H 2463   3.395   7.323  11.006 -0.3899  2.6506 -0.5424
  759MOL0     H 2464   3.278   7.227  10.902 -1.8034 -0.6116 -0.0511
  759MOL0     H 2465   3.234   7.376  10.984 -0.1802 -0.5531 -2.1409
  760MOL0     O 2466   1.463   7.923   4.231 -0.0235  0.1738  0.6627
  760MOL0     C 2467   1.477   8.039   4.259 -0.3122 -0.5469 -0.0758
  760MOL0     O 2468   1.591   8.106   4.289 -0.2438 -0.1292  0.0653
  760MOL0     C 2469   1.703   8.040   4.336 -0.4924  0.5598  0.1600
  760MOL0     C 2470   1.826   8.103   4.309 -0.0687  0.2569  0.1058
  760MOL0     C 2471   1.942   8.046   4.353 -0.4349  0.0209 -0.4782
  760MOL0     C 2472   1.951   7.916   4.407  0.2002  0.7715  0.0876
  760MOL0     O 2473   2.072   7.855   4.438 -0.3101 -0.1202 -0.6083
  760MOL0     C 2474   2.081   7.758   4.534 -0.0729  0.5659  0.3598
  760MOL0     C 2475   2.218   7.750   4.586 -0.1803 -0.0684  0.0545
  760MOL0     C 2476   2.314   7.690   4.479  0.4093 -0.7010  0.5605
  760MOL0     C 2477   2.459   7.691   4.528 -0.2311 -0.1716 -0.1614
  760MOL0     C 2478   2.549   7.627   4.430 -0.0289 -0.4798 -0.4603
  760MOL0     C 2479   2.685   7.623   4.487 -0.1393 -0.3433 -0.8861
  760MOL0     C 2480   2.712   7.531   4.608  0.1472  0.5518 -0.3020
  760MOL0     C 2481   2.869   7.518   4.642 -0.4162  0.4990 -0.2073
  760MOL0     N 2482   2.936   7.427   4.551 -0.3931  0.5829  0.5158
  760MOL0     C 2483   2.992   7.459   4.430 -0.6102 -0.5317  0.1451
  760MOL0     C 2484   3.054   7.350   4.379  1.0047  1.2904  1.2278
  760MOL0     C 2485   3.128   7.338   4.253  0.2985 -0.1667  0.5240
  760MOL0     C 2486   3.273   7.361   4.291  0.3322  0.0161  0.4254
  760MOL0     C 2487   3.317   7.510   4.291  0.3426  1.2041  0.3595
  760MOL0     C 2488   3.461   7.518   4.344  0.1422  0.5387 -0.1991
  760MOL0     O 2489   3.555   7.457   4.259  0.5610  0.3917  0.5558
  760MOL0     C 2490   3.690   7.463   4.285  0.5707  0.1589 -0.5452
  760MOL0     C 2491   3.736   7.522   4.407  0.0896 -0.0730  0.4862
  760MOL0     C 2492   3.873   7.517   4.432  0.5434  0.0543 -0.0909
  760MOL0     C 2493   3.973   7.473   4.343 -0.1814 -0.6987  0.1609
  760MOL0     C 2494   4.119   7.474   4.375  0.1993 -0.5164  0.0876
  760MOL0     O 2495   4.196   7.395   4.304 -0.3672  0.2970 -0.1673
  760MOL0     C 2496   4.336   7.382   4.332  0.4761  0.3590 -0.0391
  760MOL0     C 2497   4.418   7.361   4.222 -0.0705 -0.0761 -0.2566
  760MOL0     C 2498   4.553   7.347   4.241 -0.2287  0.2342 -0.4606
  760MOL0     C 2499   4.609   7.352   4.370  0.3134 -0.0288  0.0842
  760MOL0     O 2500   4.736   7.336   4.397 -0.5141  0.4237  0.6975
  760MOL0     C 2501   4.831   7.313   4.296  0.1766  1.5071 -0.5051
  760MOL0     C 2502   4.962   7.276   4.361 -0.2528 -1.3620 -0.0846
  760MOL0     C 2503   5.079   7.254   4.264 -0.3754  0.8245 -0.9657
  760MOL0     C 2504   5.207   7.242   4.340  0.1280  0.0493 -0.3008
  760MOL0     C 2505   5.318   7.202   4.241 -0.3654 -0.0965 -0.3836
  760MOL0     C 2506   5.453   7.217   4.304  0.5177 -0.2135  0.2162
  760MOL0     C 2507   5.567   7.177   4.204  0.2904 -1.1571  0.1682
  760MOL0     C 2508   5.553   7.050   4.127 -0.4785  0.0286 -0.2276
  760MOL0    Cl 2509   5.569   6.916   4.252 -0.3831 -0.2919 -0.3082
  760MOL0     C 2510   4.528   7.377   4.479 -0.2477 -1.0482  0.0611
  760MOL0     C 2511   4.393   7.396   4.461  0.6128 -0.7128 -0.4754
  760MOL0     O 2512   4.153   7.563   4.455  0.7439 -0.2850 -0.0636
  760MOL0     C 2513   3.921   7.415   4.225 -0.8936  0.1615  0.2979
  760MOL0     C 2514   3.784   7.407   4.201  0.1533 -0.2989 -0.4902
  760MOL0     N 2515   3.030   7.249   4.470  0.0343 -0.5495  0.2258
  760MOL0     N 2516   2.969   7.295   4.571 -0.0185 -0.4004  0.7576
  760MOL0     C 2517   1.832   7.854   4.436 -0.3211  0.6667 -0.0714
  760MOL0     C 2518   1.707   7.916   4.401 -0.1142 -0.1687 -0.1504
  760MOL0     C 2519   1.366   8.128   4.234 -0.3026  0.1250 -0.0017
  760MOL0     C 2520   1.394   8.265   4.217 -0.1674  0.6221 -0.5743
  760MOL0     C 2521   1.294   8.361   4.211  0.1187  0.4083  0.5952
  760MOL0     C 2522   1.154   8.330   4.225 -0.0662  0.5892  0.3548
  760MOL0     O 2523   1.068   8.436   4.240  0.0399  0.5218  0.0467
  760MOL0     C 2524   0.935   8.410   4.256  0.0610  0.0301 -0.1707
  760MOL0     C 2525   0.850   8.538   4.292 -0.4575 -0.0086  0.4900
  760MOL0     C 2526   0.710   8.504   4.336  0.3049 -0.1262 -0.9536
  760MOL0     C 2527   0.630   8.633   4.369 -0.0039 -0.7719  0.6089
  760MOL0     C 2528   0.691   8.718   4.471  0.0198 -0.4255 -0.0396
  760MOL0     C 2529   0.756   8.774   4.559  0.6003 -0.4831  0.1729
  760MOL0     C 2530   1.127   8.193   4.242  0.3901  0.0918 -0.5745
  760MOL0     C 2531   1.230   8.093   4.253  0.0412 -0.1254  0.3224
  760MOL0     C 2532   1.179   7.953   4.272  0.3167 -0.0475 -0.1238
  760MOL0     H 2533   1.832   8.195   4.252  2.2603  0.4316  0.5455
  760MOL0     H 2534   2.031   8.101   4.325 -0.1320  0.0328  0.4787
  760MOL0     H 2535   2.032   7.778   4.630  1.1976  0.8879  0.9708
  760MOL0     H 2536   2.038   7.670   4.485 -2.0809 -0.0521  2.9719
  760MOL0     H 2537   2.222   7.675   4.666 -0.2922  3.3340  3.5472
  760MOL0     H 2538   2.257   7.842   4.631  1.2745 -0.6651  0.0668
  760MOL0     H 2539   2.298   7.743   4.384  0.8363 -0.4075  0.6501
  760MOL0     H 2540   2.278   7.590   4.455 -0.8095  0.1545 -1.5596
  760MOL0     H 2541   2.496   7.793   4.547  3.5045 -1.2519 -0.7438
  760MOL0     H 2542   2.460   7.645   4.627 -0.2583  0.9970  0.3946
  760MOL0     H 2543   2.522   7.522   4.415  0.8904 -1.4613  3.5781
  760MOL0     H 2544   2.559   7.692   4.343  1.6515  1.1458  0.8493
  760MOL0     H 2545   2.749   7.601   4.402 -2.1232  0.1817 -2.5805
  760MOL0     H 2546   2.719   7.722   4.521 -1.6044  0.8476 -2.6980
  760MOL0     H 2547   2.665   7.434   4.590 -1.8459  1.0503  1.7571
  760MOL0     H 2548   2.660   7.574   4.694 -1.7590  0.9306 -1.5675
  760MOL0     H 2549   2.914   7.618   4.649  2.5160 -0.8355  2.2376
  760MOL0     H 2550   2.877   7.477   4.743  1.9317 -0.2192 -0.6156
  760MOL0     H 2551   2.996   7.561   4.393  1.7721 -0.0353  1.5592
  760MOL0     H 2552   3.109   7.240   4.209 -3.1031  0.5844  0.0153
  760MOL0     H 2553   3.092   7.410   4.177  0.4604 -1.0528 -0.4120
  760MOL0     H 2554   3.297   7.313   4.387  0.4849 -0.9760 -0.0952
  760MOL0     H 2555   3.331   7.303   4.219  2.7604 -1.0963  3.0933
  760MOL0     H 2556   3.244   7.564   4.353 -1.9380 -0.0211 -1.1225
  760MOL0     H 2557   3.316   7.544   4.188 -0.4906  1.1084  0.3302
  760MOL0     H 2558   3.456   7.473   4.443 -3.9414 -0.7998 -0.8080
  760MOL0     H 2559   3.485   7.624   4.355 -0.8465  0.7212  0.3252
  760MOL0     H 2560   3.670   7.574   4.475 -1.1879 -1.9683  0.7746
  760MOL0     H 2561   3.914   7.542   4.529  0.0580 -1.2729  0.4750
  760MOL0     H 2562   4.366   7.355   4.127 -0.1409 -1.2096 -0.1630
  760MOL0     H 2563   4.607   7.337   4.148 -0.2877  0.9226 -0.5747
  760MOL0     H 2564   4.803   7.233   4.227  1.0626  2.2043 -1.7253
  760MOL0     H 2565   4.847   7.412   4.251 -1.5217  2.8250  1.5544
  760MOL0     H 2566   4.995   7.344   4.440  0.1504 -0.8709 -0.6673
  760MOL0     H 2567   4.958   7.179   4.412  0.5699 -1.6420 -0.5342
  760MOL0     H 2568   5.060   7.168   4.199  0.6792  0.3175 -0.6196
  760MOL0     H 2569   5.097   7.344   4.204 -1.2080  2.4809  1.1297
  760MOL0     H 2570   5.204   7.165   4.418  0.0780  1.8573  1.5972
  760MOL0     H 2571   5.222   7.338   4.391 -0.7094  0.6490 -1.1571
  760MOL0     H 2572   5.303   7.261   4.150  2.2555  0.4782 -0.5346
  760MOL0     H 2573   5.295   7.098   4.217  3.0240 -0.5315 -2.4141
  760MOL0     H 2574   5.468   7.324   4.322  0.1101 -0.1216 -0.0026
  760MOL0     H 2575   5.453   7.170   4.403 -1.7492  2.2019  1.4857
  760MOL0     H 2576   5.660   7.178   4.261  0.5298  0.4494 -0.2066
  760MOL0     H 2577   5.567   7.252   4.125  1.5046 -3.1170 -1.7864
  760MOL0     H 2578   5.466   7.043   4.062  0.1153 -2.3329 -0.8660
  760MOL0     H 2579   5.642   7.040   4.064  2.1333  2.5861  2.7093
  760MOL0     H 2580   4.564   7.363   4.580  0.2442  2.0638  0.4036
  760MOL0     H 2581   4.325   7.412   4.544  0.9293 -1.8055  0.0112
  760MOL0     H 2582   3.990   7.359   4.162 -1.9665 -2.7010  1.4865
  760MOL0     H 2583   3.739   7.346   4.123 -2.6691 -1.6571  1.9912
  760MOL0     H 2584   1.831   7.769   4.504  0.9642 -1.8247 -2.9184
  760MOL0     H 2585   1.628   7.854   4.442 -0.0387  0.6391  1.3135
  760MOL0     H 2586   1.499   8.293   4.216  0.0107  0.1991  1.6339
  760MOL0     H 2587   1.321   8.465   4.199  0.7944  0.2553  0.7115
  760MOL0     H 2588   0.924   8.341   4.341  0.1750  1.0007  0.6606
  760MOL0     H 2589   0.898   8.367   4.163 -0.8153  1.4347 -0.4924
  760MOL0     H 2590   0.839   8.597   4.201 -2.4704 -3.1164 -1.4838
  760MOL0     H 2591   0.894   8.594   4.375  1.6283  1.9437 -1.7616
  760MOL0     H 2592   0.730   8.445   4.425 -1.5469  1.6520  0.7183
  760MOL0     H 2593   0.658   8.441   4.263  0.8769  1.4275 -2.8003
  760MOL0     H 2594   0.607   8.687   4.277 -1.4522 -3.1385 -0.5238
  760MOL0     H 2595   0.537   8.590   4.408 -1.8677  0.3621 -2.2383
  760MOL0     H 2596   0.806   8.826   4.638  1.5683 -2.1881  0.7383
  760MOL0     H 2597   1.024   8.159   4.249  1.2690 -2.6620  0.5687
  760MOL0     H 2598   1.086   7.947   4.328  0.9785  0.2753  1.0430
  760MOL0     H 2599   1.160   7.916   4.171  0.1798 -1.1546  0.2881
  760MOL0     H 2600   1.251   7.881   4.312 -1.1468 -0.9262  1.0498
  761MOL0     O 2601   4.923   9.211   9.738  0.3076  0.8697 -0.3897
  761MOL0     C 2602   4.856   9.307   9.715  0.7279 -0.4033  0.0255
  761MOL0     O 2603   4.880   9.430   9.762 -0.1351  0.5048 -0.8700
  761MOL0     C 2604   4.992   9.456   9.838  0.8017 -0.7586  0.5899
  761MOL0     C 2605   5.122   9.403   9.822  0.7034  0.6183 -0.0058
  761MOL0     C 2606   5.223   9.443   9.908  0.6948 -0.4768  0.0350
  761MOL0     C 2607   5.199   9.533  10.022  0.2885 -0.1992  0.9548
  761MOL0     O 2608   5.294   9.571  10.111 -0.5548  0.0551  0.1028
  761MOL0     C 2609   5.415   9.496  10.118 -0.0462 -1.1170  0.0691
  761MOL0     C 2610   5.475   9.549  10.246  0.1286 -0.1312  0.3996
  761MOL0     C 2611   5.633   9.539  10.252  0.3480 -0.1985 -1.1704
  761MOL0     C 2612   5.685   9.576  10.395 -0.0339 -0.2935  0.0358
  761MOL0     C 2613   5.835   9.583  10.408 -0.4171  0.2378 -0.2758
  761MOL0     C 2614   5.878   9.609  10.555  0.1944 -0.4861 -0.5634
  761MOL0     C 2615   6.032   9.627  10.574 -0.2330 -0.3061  0.2983
  761MOL0     C 2616   6.080   9.763  10.513 -0.8459 -0.1830 -0.3763
  761MOL0     N 2617   6.231   9.776  10.523  0.0881  0.6814  0.7053
  761MOL0     C 2618   6.325   9.739  10.433 -0.6510  0.2501  0.2300
  761MOL0     C 2619   6.447   9.780  10.481  0.2598 -0.4829  0.6200
  761MOL0     C 2620   6.585   9.756  10.439  0.2256  0.5990  0.1598
  761MOL0     C 2621   6.611   9.813  10.296  1.3005  0.8357  0.1352
  761MOL0     C 2622   6.757   9.842  10.268  0.5430 -0.2376 -0.3599
  761MOL0     C 2623   6.840   9.725  10.256 -0.2501  0.0078 -0.4195
  761MOL0     O 2624   6.962   9.775  10.199 -0.4646 -0.2801 -0.1017
  761MOL0     C 2625   7.068   9.801  10.272 -1.3199 -0.5209  0.5300
  761MOL0     C 2626   7.119   9.707  10.372 -0.4879 -0.2984 -0.4657
  761MOL0     C 2627   7.227   9.748  10.448 -0.4250  0.0022 -1.1400
  761MOL0     C 2628   7.279   9.877  10.441 -0.4244 -1.1999  0.3946
  761MOL0     C 2629   7.395   9.917  10.525 -0.2039  0.3123 -0.4133
  761MOL0     O 2630   7.445  10.044  10.517 -0.2987 -0.4050  0.0982
  761MOL0     C 2631   7.571  10.077  10.567  1.0227 -0.9262 -0.9776
  761MOL0     C 2632   7.640  10.185  10.502  0.1263 -0.0362 -0.8004
  761MOL0     C 2633   7.763  10.222  10.552  0.0206  0.0897 -0.3110
  761MOL0     C 2634   7.815  10.170  10.672 -0.2946 -0.2057  0.5511
  761MOL0     O 2635   7.928  10.214  10.734  0.8549  0.1037 -0.0043
  761MOL0     C 2636   8.044  10.264  10.665 -0.3405 -0.5034  0.2197
  761MOL0     C 2637   8.157  10.287  10.764  0.9242 -0.5485 -0.1482
  761MOL0     C 2638   8.200  10.150  10.825  0.2309 -0.5159  0.3162
  761MOL0     C 2639   8.328  10.167  10.901  0.4314  0.2269 -0.5157
  761MOL0     C 2640   8.366  10.036  10.967 -0.4641  0.3729  1.0886
  761MOL0     C 2641   8.494  10.031  11.038  0.0138 -0.1525  0.1369
  761MOL0     C 2642   8.516   9.900  11.112  0.5666 -0.4647 -0.5350
  761MOL0     C 2643   8.658   9.880  11.152  0.4563  0.5161  0.0619
  761MOL0    Cl 2644   8.701   9.978  11.292  0.4016  0.3550  0.1435
  761MOL0     C 2645   7.739  10.075  10.740  0.0315  0.0659 -0.5946
  761MOL0     C 2646   7.621  10.024  10.685  0.2727  0.2453 -0.6746
  761MOL0     O 2647   7.443   9.819  10.581 -0.2342  0.2350 -0.2219
  761MOL0     C 2648   7.220   9.972  10.355  0.2341 -0.5405 -0.5117
  761MOL0     C 2649   7.121   9.933  10.273  0.3434  0.5833  0.0317
  761MOL0     N 2650   6.419   9.855  10.593 -0.0759 -0.6405  0.3741
  761MOL0     N 2651   6.293   9.844  10.617 -0.1784 -0.7733  0.1754
  761MOL0     C 2652   5.065   9.580  10.040  0.7846 -0.5062  0.5481
  761MOL0     C 2653   4.960   9.543   9.950 -0.6376  0.4089 -0.2878
  761MOL0     C 2654   4.727   9.277   9.637 -0.2569  0.5033 -0.0972
  761MOL0     C 2655   4.696   9.145   9.603 -0.1625 -0.1038 -0.7483
  761MOL0     C 2656   4.584   9.108   9.533 -0.8190 -0.0783  0.0100
  761MOL0     C 2657   4.493   9.207   9.490  0.5664 -0.0617 -0.2700
  761MOL0     O 2658   4.400   9.187   9.398 -0.1908 -0.2022 -0.1528
  761MOL0     C 2659   4.373   9.059   9.354  0.5710  0.6233  0.3071
  761MOL0     C 2660   4.249   9.073   9.265 -0.6058 -0.2668 -0.4796
  761MOL0     C 2661   4.167   8.948   9.233 -0.1163  0.1301  0.0322
  761MOL0     C 2662   4.084   8.893   9.343 -0.6452  0.9586 -0.7867
  761MOL0     C 2663   4.013   8.993   9.423  0.1910 -0.0168 -0.4120
  761MOL0     C 2664   3.965   9.085   9.479  0.7142  0.0161 -0.2783
  761MOL0     C 2665   4.516   9.339   9.533  0.1267  0.7523  0.5610
  761MOL0     C 2666   4.626   9.371   9.602 -0.4290 -0.6662  0.1219
  761MOL0     C 2667   4.647   9.512   9.638  0.3910 -0.0691  0.2187
  761MOL0     H 2668   5.132   9.349   9.728 -2.6168  0.3535 -0.3111
  761MOL0     H 2669   5.319   9.402   9.880  0.3179 -0.5656 -1.1816
  761MOL0     H 2670   5.400   9.388  10.132  2.8985 -1.4547  1.2174
  761MOL0     H 2671   5.478   9.512  10.030  0.4233  0.2622  0.6399
  761MOL0     H 2672   5.433   9.491  10.329 -0.0874 -1.7594 -0.8042
  761MOL0     H 2673   5.451   9.654  10.264  0.9785  0.2089 -0.3561
  761MOL0     H 2674   5.685   9.613  10.190  0.8440 -0.8830 -1.5907
  761MOL0     H 2675   5.661   9.436  10.225 -3.5954 -1.9158  0.5659
  761MOL0     H 2676   5.645   9.675  10.422 -3.3452 -0.6056 -2.9488
  761MOL0     H 2677   5.650   9.502  10.467  0.6083 -0.1576  0.4953
  761MOL0     H 2678   5.863   9.481  10.379 -0.6179  0.1281 -0.0861
  761MOL0     H 2679   5.882   9.652  10.338 -2.2538 -0.8577 -2.7144
  761MOL0     H 2680   5.835   9.703  10.588  0.0151 -0.9285  0.5020
  761MOL0     H 2681   5.830   9.527  10.608  0.1093 -2.9636 -4.0815
  761MOL0     H 2682   6.081   9.546  10.518 -0.4203  0.9400 -1.7792
  761MOL0     H 2683   6.053   9.620  10.681 -0.6893 -0.6769  0.3658
  761MOL0     H 2684   6.054   9.773  10.407 -0.1013  0.4196 -0.5055
  761MOL0     H 2685   6.035   9.837  10.581 -1.5125 -0.0271 -0.9698
  761MOL0     H 2686   6.319   9.690  10.336 -0.6383  1.1868 -0.2569
  761MOL0     H 2687   6.652   9.801  10.513  0.0678  1.3722 -0.1560
  761MOL0     H 2688   6.586   9.646  10.437 -0.7727  0.5873 -1.2790
  761MOL0     H 2689   6.577   9.738  10.224 -2.2255  1.4893  0.9424
  761MOL0     H 2690   6.548   9.902  10.294 -1.8297 -1.1873  0.6553
  761MOL0     H 2691   6.796   9.907  10.347 -0.6728  0.1936 -0.0910
  761MOL0     H 2692   6.760   9.895  10.173  0.4337 -1.1443 -0.8727
  761MOL0     H 2693   6.790   9.658  10.186 -0.8843 -0.1267  0.1493
  761MOL0     H 2694   6.848   9.673  10.352 -4.0833  1.7686  1.0557
  761MOL0     H 2695   7.069   9.614  10.394 -0.6697 -0.4222 -1.3714
  761MOL0     H 2696   7.264   9.680  10.524 -1.2684  0.1128 -0.6168
  761MOL0     H 2697   7.597  10.233  10.414  1.7407  1.7322 -0.6910
  761MOL0     H 2698   7.813  10.301  10.496  2.0860 -0.6534  0.3706
  761MOL0     H 2699   8.069  10.189  10.590  1.0161  0.2556 -0.1376
  761MOL0     H 2700   8.021  10.357  10.612 -1.6629 -1.3510 -0.7332
  761MOL0     H 2701   8.239  10.335  10.710 -1.7853  0.9593 -3.2606
  761MOL0     H 2702   8.135  10.365  10.838 -2.1915  1.5762 -3.0139
  761MOL0     H 2703   8.124  10.107  10.891  0.8699 -2.4807 -0.1420
  761MOL0     H 2704   8.219  10.077  10.745 -0.1808  0.0931 -0.3454
  761MOL0     H 2705   8.305  10.242  10.977  0.3052  1.1622 -1.4412
  761MOL0     H 2706   8.406  10.211  10.838  1.0354  0.9715  0.7171
  761MOL0     H 2707   8.375   9.951  10.899 -0.3712 -1.3803  3.1832
  761MOL0     H 2708   8.286  10.020  11.040  0.9419 -1.1091  2.3917
  761MOL0     H 2709   8.580  10.031  10.970  0.6976 -1.8125  0.9208
  761MOL0     H 2710   8.504  10.104  11.119 -2.0350  1.2846 -0.8239
  761MOL0     H 2711   8.480   9.814  11.054  0.1004 -0.6029 -0.0557
  761MOL0     H 2712   8.454   9.895  11.202  0.8282 -0.5788 -0.3580
  761MOL0     H 2713   8.680   9.779  11.189  2.3874  1.1047  0.6343
  761MOL0     H 2714   8.726   9.906  11.071 -0.2839 -0.1879 -0.8175
  761MOL0     H 2715   7.789  10.039  10.829 -0.9719  0.8728  0.3174
  761MOL0     H 2716   7.558   9.950  10.733 -0.2726  0.3104 -1.2841
  761MOL0     H 2717   7.250  10.074  10.332  0.5829 -1.0650 -2.5678
  761MOL0     H 2718   7.077  10.005  10.205  1.8686 -0.2911 -1.9676
  761MOL0     H 2719   5.035   9.647  10.119  0.8506 -0.5313  0.5939
  761MOL0     H 2720   4.857   9.575   9.947 -0.0088  2.8929  1.4835
  761MOL0     H 2721   4.756   9.062   9.641 -1.2160 -2.2480 -3.4283
  761MOL0     H 2722   4.578   9.005   9.499 -1.0706 -0.4411  1.1367
  761MOL0     H 2723   4.358   8.986   9.434 -0.3298 -1.1301 -1.3671
  761MOL0     H 2724   4.444   9.005   9.290 -3.8907 -5.1051 -0.6041
  761MOL0     H 2725   4.286   9.104   9.166  2.0283  2.0957  1.0700
  761MOL0     H 2726   4.183   9.154   9.297 -1.5583 -0.8194 -1.0006
  761MOL0     H 2727   4.221   8.859   9.199 -0.9877  0.2886 -1.9051
  761MOL0     H 2728   4.099   8.976   9.152  0.5073  1.2653 -0.1182
  761MOL0     H 2729   4.013   8.819   9.304 -1.9811  1.8521 -0.1395
  761MOL0     H 2730   4.164   8.852   9.405 -1.6507 -1.5084 -1.0056
  761MOL0     H 2731   3.914   9.160   9.537 -0.3712 -1.2634  0.5116
  761MOL0     H 2732   4.444   9.414   9.505 -0.8203  0.0624  1.0716
  761MOL0     H 2733   4.582   9.582   9.585  1.2013  0.0560 -0.6491
  761MOL0     H 2734   4.633   9.529   9.745  0.9287  0.2235  0.2479
  761MOL0     H 2735   4.747   9.535   9.599  0.7476 -1.4293  0.3071
  762MOL0     O 2736   5.961   2.214   1.835  0.3273 -0.1041 -0.5362
  762MOL0     C 2737   5.914   2.149   1.740  0.1818  0.2964  0.6165
  762MOL0     O 2738   5.985   2.130   1.627  0.2405 -0.1082  0.3337
  762MOL0     C 2739   6.116   2.171   1.627 -0.6172  0.0016  0.7608
  762MOL0     C 2740   6.210   2.119   1.712 -0.0535 -0.0351 -0.4074
  762MOL0     C 2741   6.351   2.142   1.702  0.4359  0.1185  0.6234
  762MOL0     C 2742   6.394   2.224   1.596  0.1623  0.8311  0.1689
  762MOL0     O 2743   6.530   2.246   1.584  0.1161  0.0293  0.3670
  762MOL0     C 2744   6.567   2.386   1.601 -0.2542 -0.0873 -0.2624
  762MOL0     C 2745   6.622   2.460   1.477  0.2618 -0.0837 -0.4789
  762MOL0     C 2746   6.724   2.379   1.399 -0.7991 -0.7596  0.4042
  762MOL0     C 2747   6.850   2.342   1.472 -0.2469 -0.0711 -0.6675
  762MOL0     C 2748   6.932   2.465   1.513  0.6284 -0.2624  0.3372
  762MOL0     C 2749   6.983   2.551   1.400  0.3052 -0.5777 -0.4099
  762MOL0     C 2750   7.088   2.653   1.438  0.2566 -0.7749 -0.8214
  762MOL0     C 2751   7.173   2.710   1.320  0.4179  0.3699 -0.4515
  762MOL0     N 2752   7.306   2.763   1.355 -0.5601 -0.3254 -0.2350
  762MOL0     C 2753   7.355   2.882   1.300  0.0167 -0.1221  0.0363
  762MOL0     C 2754   7.484   2.892   1.345 -0.0335 -0.3534 -0.5364
  762MOL0     C 2755   7.570   3.010   1.313 -0.0501  0.6175  0.2065
  762MOL0     C 2756   7.721   2.957   1.318 -0.3491  0.7229  0.3545
  762MOL0     C 2757   7.824   3.067   1.255  0.4277  0.3385  0.5003
  762MOL0     C 2758   7.970   3.015   1.247  0.0383 -0.0544  0.0327
  762MOL0     O 2759   8.009   2.955   1.375  0.7562  0.3133  0.3451
  762MOL0     C 2760   8.126   2.886   1.355 -0.2988  0.2132  0.5555
  762MOL0     C 2761   8.246   2.936   1.308 -0.4405 -0.1835 -0.3758
  762MOL0     C 2762   8.359   2.869   1.302  0.0655  0.7393  0.2156
  762MOL0     C 2763   8.355   2.732   1.331 -0.2669 -0.1329  0.3154
  762MOL0     C 2764   8.470   2.650   1.303 -0.5298 -0.4189 -0.5350
  762MOL0     O 2765   8.593   2.717   1.288  0.6389  0.5347  0.4063
  762MOL0     C 2766   8.709   2.648   1.235  0.5980  0.3935  0.1117
  762MOL0     C 2767   8.810   2.735   1.192 -0.4882 -0.0998 -1.2774
  762MOL0     C 2768   8.931   2.684   1.146 -0.6093 -0.3302  0.4763
  762MOL0     C 2769   8.962   2.546   1.143  0.8425 -0.3536 -0.6174
  762MOL0     O 2770   9.084   2.503   1.104 -0.8768 -0.3466  0.0021
  762MOL0     C 2771   9.102   2.370   1.052  0.1004 -0.3054 -0.7312
  762MOL0     C 2772   9.247   2.347   1.021  0.7294 -0.3257  0.2116
  762MOL0     C 2773   9.276   2.206   0.965  0.1061 -0.0509  1.0900
  762MOL0     C 2774   9.429   2.175   0.954  0.6942 -0.4567 -0.0438
  762MOL0     C 2775   9.449   2.020   0.930  0.6445 -0.2821  0.0577
  762MOL0     C 2776   9.550   1.988   0.814  1.1694 -0.5178 -0.2501
  762MOL0     C 2777   9.596   1.845   0.832 -0.2232  0.0143 -0.3170
  762MOL0     C 2778   9.488   1.741   0.811 -0.5432  0.2743  0.0622
  762MOL0    Cl 2779   9.550   1.584   0.763 -0.1755 -0.2773  0.2033
  762MOL0     C 2780   8.858   2.460   1.186  0.1572 -0.3481 -0.4132
  762MOL0     C 2781   8.735   2.509   1.230  0.3160  0.6262 -0.4711
  762MOL0     O 2782   8.450   2.533   1.274  1.1682 -0.0553 -0.2056
  762MOL0     C 2783   8.245   2.676   1.384 -0.5711 -0.4085 -0.2055
  762MOL0     C 2784   8.125   2.751   1.393 -0.0849 -0.3203 -1.2269
  762MOL0     N 2785   7.505   2.786   1.430 -0.7817 -0.3973 -0.4929
  762MOL0     N 2786   7.402   2.711   1.429 -0.2028  0.7839  0.0459
  762MOL0     C 2787   6.300   2.278   1.507  0.1318 -0.3970 -0.2097
  762MOL0     C 2788   6.162   2.255   1.527  0.6753  0.8968 -0.6894
  762MOL0     C 2789   5.771   2.109   1.732  0.7383  0.1420  0.4317
  762MOL0     C 2790   5.722   2.068   1.603 -0.1402  0.4116 -0.0605
  762MOL0     C 2791   5.588   2.031   1.580  0.1315  0.1012 -0.6218
  762MOL0     C 2792   5.490   2.058   1.673 -0.1303 -0.2808  0.2273
  762MOL0     O 2793   5.361   2.032   1.647  0.0012 -0.2605  0.5992
  762MOL0     C 2794   5.259   2.061   1.746 -0.9845  1.0899  0.0190
  762MOL0     C 2795   5.120   2.042   1.695 -0.0378 -1.0701  0.6309
  762MOL0     C 2796   5.096   1.894   1.697 -0.1347 -0.0972 -0.0417
  762MOL0     C 2797   4.950   1.853   1.650  0.2157  0.6607 -0.3283
  762MOL0     C 2798   4.959   1.711   1.611  0.2921  0.3329 -1.0076
  762MOL0     C 2799   4.980   1.596   1.581 -0.2728 -0.1931  0.2729
  762MOL0     C 2800   5.529   2.097   1.801 -0.0427 -0.0611 -0.0705
  762MOL0     C 2801   5.669   2.120   1.834 -0.4515  0.7826 -0.2038
  762MOL0     C 2802   5.712   2.154   1.977 -1.1452  0.1888 -0.6421
  762MOL0     H 2803   6.172   2.059   1.794 -0.5966  1.9480  0.8585
  762MOL0     H 2804   6.423   2.092   1.766 -0.5676 -2.3020 -0.0044
  762MOL0     H 2805   6.492   2.440   1.658  2.1462  2.3533  0.8173
  762MOL0     H 2806   6.655   2.386   1.666 -0.9028  0.3996  0.6355
  762MOL0     H 2807   6.641   2.567   1.491 -1.1942  0.3831 -1.7748
  762MOL0     H 2808   6.538   2.466   1.407 -0.4495 -1.9176  0.1583
  762MOL0     H 2809   6.754   2.419   1.301 -1.8325  0.8048  0.6834
  762MOL0     H 2810   6.683   2.281   1.373  2.0211 -1.6860 -0.9637
  762MOL0     H 2811   6.829   2.288   1.565  3.9599 -1.9194 -0.5772
  762MOL0     H 2812   6.911   2.270   1.417  0.6480 -1.2287  1.6807
  762MOL0     H 2813   6.872   2.525   1.583  1.9063  1.6599 -0.1232
  762MOL0     H 2814   7.022   2.428   1.563  1.6762 -0.9579 -1.9304
  762MOL0     H 2815   7.035   2.482   1.334 -0.7405 -1.8988  0.0841
  762MOL0     H 2816   6.898   2.598   1.349  1.3589 -0.1459 -1.8231
  762MOL0     H 2817   7.159   2.611   1.510  0.9356  1.7351  0.0887
  762MOL0     H 2818   7.039   2.732   1.496  1.3274  0.1604 -1.1451
  762MOL0     H 2819   7.193   2.629   1.250  2.3933  0.9669 -0.6467
  762MOL0     H 2820   7.122   2.788   1.262 -0.1021 -0.5217 -1.2084
  762MOL0     H 2821   7.306   2.949   1.230  2.2706 -0.2299 -1.7923
  762MOL0     H 2822   7.542   3.060   1.220  0.2120  2.0541  0.8738
  762MOL0     H 2823   7.567   3.091   1.387 -0.0921  0.7394  0.0708
  762MOL0     H 2824   7.736   2.929   1.422 -2.1210  2.3728  1.1224
  762MOL0     H 2825   7.730   2.871   1.251 -0.8213  0.8677  0.0983
  762MOL0     H 2826   7.821   3.165   1.303  3.0367  0.5278  0.4145
  762MOL0     H 2827   7.787   3.073   1.153 -1.0355 -5.1417  0.3932
  762MOL0     H 2828   8.035   3.101   1.227  0.1011 -0.0581  0.2190
  762MOL0     H 2829   7.978   2.955   1.156 -1.1521  0.7210 -0.6290
  762MOL0     H 2830   8.252   3.038   1.272  2.1916 -0.7232 -1.6855
  762MOL0     H 2831   8.460   2.903   1.281  0.8298 -1.6150 -0.2708
  762MOL0     H 2832   8.795   2.841   1.209  1.1121 -0.1897  1.1490
  762MOL0     H 2833   9.014   2.748   1.120 -3.1543  3.8714  1.7171
  762MOL0     H 2834   9.060   2.298   1.123 -0.3366  3.3740  3.1768
  762MOL0     H 2835   9.034   2.359   0.968  0.0514  0.9886 -0.8899
  762MOL0     H 2836   9.288   2.418   0.948 -0.6324  1.5558  1.1756
  762MOL0     H 2837   9.298   2.375   1.114  0.4941  1.8532 -0.2469
  762MOL0     H 2838   9.227   2.123   1.016  1.5543 -1.8278 -0.2612
  762MOL0     H 2839   9.230   2.204   0.866  0.5257 -2.2907  0.8742
  762MOL0     H 2840   9.481   2.195   1.048 -0.2671 -0.9235  0.5994
  762MOL0     H 2841   9.466   2.241   0.875 -0.5405 -0.1840 -0.4184
  762MOL0     H 2842   9.356   1.970   0.901  0.8162 -0.0463 -0.9129
  762MOL0     H 2843   9.488   1.975   1.022  0.6256 -1.5072 -0.5053
  762MOL0     H 2844   9.505   1.999   0.715 -0.9350 -1.4436  0.5410
  762MOL0     H 2845   9.640   2.048   0.828  1.1013  0.0805 -2.1328
  762MOL0     H 2846   9.642   1.836   0.931  0.9949 -3.5914 -1.0711
  762MOL0     H 2847   9.681   1.824   0.766  0.2655  3.5099 -1.0074
  762MOL0     H 2848   9.427   1.741   0.901 -1.9748 -0.5433 -0.8694
  762MOL0     H 2849   9.427   1.765   0.723  0.8840 -0.4468 -1.1872
  762MOL0     H 2850   8.871   2.352   1.188 -0.4183 -0.4683 -1.6959
  762MOL0     H 2851   8.659   2.437   1.260 -0.2103  1.4387  0.2135
  762MOL0     H 2852   8.249   2.571   1.413  0.1076 -0.7164 -1.3491
  762MOL0     H 2853   8.038   2.704   1.438  0.3346 -1.2984 -1.4151
  762MOL0     H 2854   6.326   2.345   1.425 -1.5181 -0.3128 -0.7153
  762MOL0     H 2855   6.093   2.296   1.453  1.7415 -1.9441 -3.4992
  762MOL0     H 2856   5.799   2.055   1.528  0.9725 -0.4667  1.1905
  762MOL0     H 2857   5.571   1.976   1.489  1.9629 -4.1585  1.3284
  762MOL0     H 2858   5.267   2.164   1.782 -1.0224  1.3682 -0.7441
  762MOL0     H 2859   5.276   2.009   1.841  0.6616  1.3303 -0.1164
  762MOL0     H 2860   5.117   2.077   1.591 -1.9347 -0.8020  0.7492
  762MOL0     H 2861   5.051   2.104   1.752 -0.1389 -0.8790  0.3049
  762MOL0     H 2862   5.122   1.850   1.794 -0.1625  2.2603  1.1105
  762MOL0     H 2863   5.176   1.844   1.642 -0.1208 -0.6905  0.5068
  762MOL0     H 2864   4.877   1.858   1.732  1.0308 -0.3326  0.4923
  762MOL0     H 2865   4.920   1.917   1.566  0.0647 -0.0044 -0.7882
  762MOL0     H 2866   5.009   1.495   1.561 -1.4432 -0.5439  0.2801
  762MOL0     H 2867   5.467   2.110   1.889  1.2917 -2.3462  1.2948
  762MOL0     H 2868   5.627   2.151   2.047  0.9370  5.1265  2.6763
  762MOL0     H 2869   5.786   2.080   2.010  0.6286  1.5205 -1.4593
  762MOL0     H 2870   5.772   2.245   1.984  1.4385 -1.5318  1.6380
  763MOL0     O 2871   3.972   7.747   7.683  0.5397 -0.4104  1.0676
  763MOL0     C 2872   3.933   7.648   7.633 -0.2779 -0.0857 -0.1833
  763MOL0     O 2873   4.008   7.544   7.593  0.5066  0.2481  0.4726
  763MOL0     C 2874   4.139   7.558   7.604 -0.7447 -0.0062 -0.8930
  763MOL0     C 2875   4.199   7.523   7.487 -0.4773  0.6118 -0.0979
  763MOL0     C 2876   4.338   7.528   7.478 -0.0856  0.1495  1.2067
  763MOL0     C 2877   4.417   7.562   7.585 -0.8352  0.1787  0.0172
  763MOL0     O 2878   4.552   7.563   7.576 -0.1538 -0.2067 -0.0625
  763MOL0     C 2879   4.603   7.631   7.460  0.4069 -1.1009  0.4214
  763MOL0     C 2880   4.748   7.658   7.471 -0.4074 -0.0395  0.2259
  763MOL0     C 2881   4.775   7.767   7.577  0.3802 -0.1938 -0.1713
  763MOL0     C 2882   4.927   7.788   7.599 -0.1491  0.5779 -0.2439
  763MOL0     C 2883   4.966   7.921   7.671 -1.1205  0.8214 -0.1942
  763MOL0     C 2884   5.099   7.902   7.743 -0.5697  1.0283  0.0478
  763MOL0     C 2885   5.172   8.034   7.759 -0.4974 -0.6419  0.3091
  763MOL0     C 2886   5.127   8.111   7.882 -0.1919  0.7993 -0.9079
  763MOL0     N 2887   5.219   8.229   7.892  0.6881 -0.4175 -0.3375
  763MOL0     C 2888   5.307   8.250   7.994 -0.7494  0.1364 -0.1184
  763MOL0     C 2889   5.354   8.368   7.975 -0.3812  0.1153  1.3342
  763MOL0     C 2890   5.460   8.437   8.044 -0.1732 -0.3875 -0.4756
  763MOL0     C 2891   5.445   8.583   8.085  0.6207 -0.2845 -0.1484
  763MOL0     C 2892   5.562   8.631   8.175 -0.2667  0.0901  0.7185
  763MOL0     C 2893   5.660   8.721   8.096 -0.0228  0.3252  0.3732
  763MOL0     O 2894   5.730   8.640   8.005 -0.0861  0.1562 -0.8891
  763MOL0     C 2895   5.872   8.655   8.006  0.7272 -0.1476 -0.7109
  763MOL0     C 2896   5.936   8.780   8.019 -1.2246  0.1639 -0.2438
  763MOL0     C 2897   6.078   8.786   8.014  0.3251 -0.0497 -0.0251
  763MOL0     C 2898   6.154   8.674   7.983  0.2014 -0.0206 -0.0170
  763MOL0     C 2899   6.297   8.676   7.968 -0.7091  0.4377  0.6618
  763MOL0     O 2900   6.358   8.785   8.021  0.1268 -0.3200  0.1014
  763MOL0     C 2901   6.480   8.822   7.985 -0.3968  0.5440  0.1594
  763MOL0     C 2902   6.592   8.751   8.041 -0.2660 -0.0950  0.2389
  763MOL0     C 2903   6.720   8.780   8.000  0.3174  1.0480 -0.1498
  763MOL0     C 2904   6.749   8.893   7.918  0.1773  0.8772 -0.4715
  763MOL0     O 2905   6.869   8.948   7.886 -0.3251 -0.1621  0.1246
  763MOL0     C 2906   6.978   8.888   7.950 -0.4650 -0.1743 -0.9503
  763MOL0     C 2907   7.086   8.994   7.953 -0.2056 -0.3525  0.3833
  763MOL0     C 2908   7.217   8.943   8.031 -0.0290 -0.2679  0.4254
  763MOL0     C 2909   7.323   9.056   8.041  0.2506  0.3216  0.1770
  763MOL0     C 2910   7.454   9.007   8.113  0.2352 -0.5378  0.3592
  763MOL0     C 2911   7.584   9.074   8.047 -0.1556 -0.7933  0.7656
  763MOL0     C 2912   7.697   9.058   8.145 -0.1198 -0.2855 -0.0654
  763MOL0     C 2913   7.829   9.047   8.065  0.3672  0.3939 -0.8994
  763MOL0    Cl 2914   7.972   9.068   8.165 -0.1178 -0.1563 -0.2249
  763MOL0     C 2915   6.642   8.969   7.871 -0.1361  0.6606 -0.1925
  763MOL0     C 2916   6.512   8.931   7.905 -0.5151 -0.1941  0.3517
  763MOL0     O 2917   6.358   8.587   7.907 -0.2235 -0.0891  1.0870
  763MOL0     C 2918   6.090   8.556   7.968  0.3815  0.3905 -0.0024
  763MOL0     C 2919   5.952   8.541   7.986 -0.6177  0.1727  0.1711
  763MOL0     N 2920   5.291   8.429   7.867 -0.1029  0.2160 -0.3100
  763MOL0     N 2921   5.200   8.348   7.822 -0.2903  0.2024 -0.3802
  763MOL0     C 2922   4.353   7.580   7.712 -0.1370 -0.2077 -0.0895
  763MOL0     C 2923   4.214   7.578   7.722 -0.3635 -0.0386  0.4636
  763MOL0     C 2924   3.786   7.624   7.604  0.0263  0.3577 -0.4435
  763MOL0     C 2925   3.749   7.522   7.512  0.6711 -0.5363  0.1891
  763MOL0     C 2926   3.614   7.508   7.466  0.6093 -0.3309  0.4241
  763MOL0     C 2927   3.507   7.589   7.516  0.1072  0.9900 -0.1228
  763MOL0     O 2928   3.381   7.569   7.476  0.4786 -0.5219  0.3089
  763MOL0     C 2929   3.359   7.603   7.336 -0.0566  0.2433 -0.1950
  763MOL0     C 2930   3.215   7.642   7.308 -0.7117  0.0311 -0.6746
  763MOL0     C 2931   3.122   7.524   7.333 -0.0150  0.0483  0.5978
  763MOL0     C 2932   2.974   7.561   7.302 -0.4136 -0.5330 -0.1009
  763MOL0     C 2933   2.885   7.448   7.304 -0.1826 -0.6348 -0.7668
  763MOL0     C 2934   2.811   7.354   7.285 -0.0108  0.9309  0.2705
  763MOL0     C 2935   3.543   7.688   7.599  0.0518 -0.3492 -0.8007
  763MOL0     C 2936   3.677   7.709   7.642  0.0039  0.1982 -0.5271
  763MOL0     C 2937   3.704   7.838   7.723 -0.0638  0.7678  0.9206
  763MOL0     H 2938   4.140   7.499   7.400  0.1317  1.2834 -0.7211
  763MOL0     H 2939   4.380   7.481   7.390  2.7800 -0.1062  2.5914
  763MOL0     H 2940   4.600   7.565   7.372  0.2648 -1.6254  0.8181
  763MOL0     H 2941   4.550   7.725   7.440  3.5140  0.5762 -0.7187
  763MOL0     H 2942   4.796   7.692   7.379  1.7206 -0.1551  1.2361
  763MOL0     H 2943   4.807   7.574   7.508 -0.5281  0.6542  2.1284
  763MOL0     H 2944   4.732   7.747   7.675 -0.1111  0.2258 -0.2914
  763MOL0     H 2945   4.727   7.860   7.544 -3.0697 -2.0545 -0.9554
  763MOL0     H 2946   4.969   7.696   7.642  2.2534  1.8767  0.3650
  763MOL0     H 2947   4.993   7.797   7.512  1.5072 -0.1385  0.8989
  763MOL0     H 2948   4.973   8.001   7.598  1.2555  1.5409  0.7371
  763MOL0     H 2949   4.891   7.947   7.746 -0.1659 -1.0689  1.5471
  763MOL0     H 2950   5.065   7.868   7.841  1.5458 -2.9617 -0.4158
  763MOL0     H 2951   5.167   7.832   7.694 -1.0720  0.2568  0.4371
  763MOL0     H 2952   5.149   8.091   7.668  2.3203  2.2402  1.2273
  763MOL0     H 2953   5.278   8.012   7.770 -0.3181 -0.2315 -0.5167
  763MOL0     H 2954   5.025   8.147   7.864 -0.1705  0.3395 -2.0136
  763MOL0     H 2955   5.133   8.045   7.968 -2.5583 -3.1501 -3.4491
  763MOL0     H 2956   5.340   8.182   8.071 -2.4352  0.6390  1.1064
  763MOL0     H 2957   5.483   8.390   8.141  0.6263  1.8492  0.4846
  763MOL0     H 2958   5.554   8.426   7.991  0.8478 -1.3868  1.4460
  763MOL0     H 2959   5.428   8.637   7.992  1.6892 -0.5440 -0.5047
  763MOL0     H 2960   5.354   8.592   8.145  0.2526  1.5974 -0.9368
  763MOL0     H 2961   5.620   8.553   8.226  3.6901  1.4396 -1.3643
  763MOL0     H 2962   5.508   8.693   8.248  1.6397  3.2536 -0.3837
  763MOL0     H 2963   5.724   8.766   8.173  0.6914 -2.7699  1.7704
  763MOL0     H 2964   5.612   8.792   8.030 -2.3347 -1.9072 -0.5088
  763MOL0     H 2965   5.867   8.864   8.025 -1.8826 -0.4250  0.6368
  763MOL0     H 2966   6.122   8.885   8.020 -0.7847  0.4257  0.5538
  763MOL0     H 2967   6.570   8.672   8.112 -2.2188  0.2399  0.0619
  763MOL0     H 2968   6.798   8.708   8.022 -2.8259 -2.4663  0.4054
  763MOL0     H 2969   6.963   8.870   8.057  0.9299  0.0790 -0.7006
  763MOL0     H 2970   7.009   8.796   7.901  2.1442 -1.2193  2.2629
  763MOL0     H 2971   7.122   9.031   7.857 -2.8843  1.6412  0.0223
  763MOL0     H 2972   7.041   9.080   8.004 -1.0008 -1.4850  1.6563
  763MOL0     H 2973   7.186   8.921   8.133  0.5158  0.7919  0.8458
  763MOL0     H 2974   7.263   8.860   7.977 -0.2972 -0.2852  0.2226
  763MOL0     H 2975   7.298   9.149   8.094  0.9951  0.0760  0.9569
  763MOL0     H 2976   7.348   9.086   7.939  1.1247 -1.8592 -0.3020
  763MOL0     H 2977   7.463   8.898   8.121 -1.5689 -0.6353  1.4729
  763MOL0     H 2978   7.446   9.045   8.215 -1.1399  0.8587 -0.2312
  763MOL0     H 2979   7.611   9.022   7.955  2.2454  1.2233  0.2383
  763MOL0     H 2980   7.563   9.178   8.021  2.2271 -0.2248  0.9554
  763MOL0     H 2981   7.671   8.974   8.209 -2.7372  0.8708  0.5480
  763MOL0     H 2982   7.699   9.144   8.213  2.1880 -1.5566  1.5682
  763MOL0     H 2983   7.834   8.951   8.011  1.7221 -0.1413  0.1374
  763MOL0     H 2984   7.844   9.124   7.989  1.7082  1.0162 -0.0330
  763MOL0     H 2985   6.657   9.070   7.834  3.4675  0.7394  1.0391
  763MOL0     H 2986   6.424   8.987   7.875 -1.0027  0.3183  2.6069
  763MOL0     H 2987   6.143   8.462   7.950 -0.4263 -0.3590  1.3840
  763MOL0     H 2988   5.900   8.445   7.987 -2.5571  1.1161 -1.7118
  763MOL0     H 2989   4.418   7.588   7.799 -0.8535 -0.9073  0.5294
  763MOL0     H 2990   4.162   7.584   7.817 -0.0157  0.9950  0.5940
  763MOL0     H 2991   3.821   7.461   7.459  0.5007 -0.5379 -0.0435
  763MOL0     H 2992   3.590   7.423   7.402  1.3529 -0.7090  0.6376
  763MOL0     H 2993   3.392   7.522   7.270  0.2226 -0.4372  0.7556
  763MOL0     H 2994   3.415   7.696   7.320 -0.3130  0.6188  0.9642
  763MOL0     H 2995   3.209   7.690   7.210 -0.2017 -0.9016 -1.1773
  763MOL0     H 2996   3.198   7.718   7.385  0.1422 -0.5595  0.1136
  763MOL0     H 2997   3.135   7.494   7.437 -3.4163 -2.9438  0.3543
  763MOL0     H 2998   3.144   7.436   7.272 -0.4094 -0.0071  0.5327
  763MOL0     H 2999   2.946   7.633   7.379  3.9477  1.1219  0.1972
  763MOL0     H 3000   2.959   7.605   7.202  1.0274 -0.4495 -0.2949
  763MOL0     H 3001   2.737   7.279   7.266  0.9909  0.1684 -0.6988
  763MOL0     H 3002   3.467   7.756   7.635 -1.7312 -3.1009  0.9612
  763MOL0     H 3003   3.754   7.908   7.656 -0.0771  0.7905  0.9347
  763MOL0     H 3004   3.615   7.889   7.761 -1.0274  0.1781 -0.4422
  763MOL0     H 3005   3.773   7.813   7.804  1.2814  0.6361 -0.2250
  764MOL0     O 3006   2.258   5.833   1.107  0.0682 -0.5044  0.8031
  764MOL0     C 3007   2.253   5.757   1.197 -0.3977 -0.6262  1.2010
  764MOL0     O 3008   2.347   5.742   1.292 -0.0728  0.0317  0.0940
  764MOL0     C 3009   2.454   5.830   1.285 -0.5195 -0.0807 -0.7325
  764MOL0     C 3010   2.434   5.954   1.348 -0.5547  0.5863 -0.2260
  764MOL0     C 3011   2.538   6.048   1.344  0.8931  0.4687  0.6724
  764MOL0     C 3012   2.661   6.014   1.284  0.4362 -0.3353 -0.1068
  764MOL0     O 3013   2.746   6.120   1.284  0.1545  0.1527  0.0957
  764MOL0     C 3014   2.886   6.086   1.297 -0.4118 -0.9438 -0.7798
  764MOL0     C 3015   2.968   6.217   1.320  0.6280 -0.3815  0.4313
  764MOL0     C 3016   3.127   6.186   1.328  0.6120  0.0591 -0.7745
  764MOL0     C 3017   3.207   6.321   1.367 -0.1536 -0.4464  0.7431
  764MOL0     C 3018   3.356   6.296   1.366 -0.6419  0.2957 -1.0084
  764MOL0     C 3019   3.433   6.410   1.435  0.4554 -0.3623 -0.7383
  764MOL0     C 3020   3.443   6.532   1.352 -0.3691 -0.4929  0.5831
  764MOL0     C 3021   3.543   6.637   1.408  0.1374 -0.5698 -0.5933
  764MOL0     N 3022   3.682   6.607   1.361  0.2576 -0.3158 -0.0545
  764MOL0     C 3023   3.772   6.516   1.415 -0.2557 -0.7533  0.3305
  764MOL0     C 3024   3.867   6.513   1.314  1.0988 -0.1068  0.2357
  764MOL0     C 3025   3.994   6.439   1.336  0.1263 -0.2455 -0.1176
  764MOL0     C 3026   4.116   6.534   1.317  0.1973 -0.2427 -0.5900
  764MOL0     C 3027   4.229   6.440   1.298  0.0004 -0.0118  0.0701
  764MOL0     C 3028   4.353   6.509   1.243 -0.0779  0.1065 -0.0051
  764MOL0     O 3029   4.404   6.606   1.339  0.8962 -0.4424  0.5506
  764MOL0     C 3030   4.537   6.626   1.340 -0.0033  0.1489 -0.2946
  764MOL0     C 3031   4.633   6.589   1.242  0.0273 -1.0206  0.1495
  764MOL0     C 3032   4.755   6.644   1.234 -0.5204 -0.4961 -0.1315
  764MOL0     C 3033   4.805   6.722   1.340 -0.9904 -0.0492 -0.1192
  764MOL0     C 3034   4.939   6.779   1.342 -0.5690 -0.3128 -0.7705
  764MOL0     O 3035   4.980   6.875   1.441  0.1796  0.2429 -0.4491
  764MOL0     C 3036   5.110   6.916   1.441 -0.1662 -0.1900 -0.0003
  764MOL0     C 3037   5.210   6.852   1.523  0.0252 -0.9086 -0.2615
  764MOL0     C 3038   5.348   6.893   1.504 -0.6724 -0.5028 -0.3125
  764MOL0     C 3039   5.380   7.004   1.429 -0.7695 -0.7882  0.9132
  764MOL0     O 3040   5.505   7.063   1.423 -0.0124  0.9348  0.6692
  764MOL0     C 3041   5.618   6.977   1.440  0.3099  0.1748  0.4780
  764MOL0     C 3042   5.741   7.077   1.447  0.2196 -0.3872  0.6593
  764MOL0     C 3043   5.888   7.040   1.437  1.2605  0.2970  0.6010
  764MOL0     C 3044   5.970   7.113   1.536 -0.0514  0.5241  0.0111
  764MOL0     C 3045   6.107   7.043   1.555  0.4625 -0.1965 -0.4452
  764MOL0     C 3046   6.188   7.041   1.430  0.0100  0.2254 -0.2087
  764MOL0     C 3047   6.324   6.958   1.435  0.9290 -0.5468  0.2913
  764MOL0     C 3048   6.426   7.029   1.528  0.0541  0.3029  0.6330
  764MOL0    Cl 3049   6.588   6.956   1.518 -0.1462 -0.3779  0.4373
  764MOL0     C 3050   5.282   7.060   1.352 -0.3473 -0.4947 -0.6762
  764MOL0     C 3051   5.152   7.012   1.347 -0.5796  0.6151 -0.1813
  764MOL0     O 3052   5.009   6.732   1.251 -0.4563 -0.7778 -0.0641
  764MOL0     C 3053   4.719   6.753   1.443  0.3366 -0.8173 -0.2650
  764MOL0     C 3054   4.586   6.712   1.438  0.0670  0.2170 -0.0593
  764MOL0     N 3055   3.826   6.592   1.209  0.3332 -0.0320  0.1333
  764MOL0     N 3056   3.717   6.654   1.236 -0.0439  0.3227  0.1294
  764MOL0     C 3057   2.682   5.895   1.221  0.6797  0.7696  0.4458
  764MOL0     C 3058   2.573   5.803   1.225 -0.0775  0.5879  0.5147
  764MOL0     C 3059   2.134   5.667   1.203 -0.2405 -0.5929  0.7122
  764MOL0     C 3060   2.132   5.546   1.278  0.4528 -0.1313  0.1738
  764MOL0     C 3061   2.022   5.461   1.278 -0.1292  0.2903 -0.5887
  764MOL0     C 3062   1.905   5.493   1.218 -0.5012  0.4557  0.2026
  764MOL0     O 3063   1.800   5.405   1.221 -0.5855  0.3901 -0.0020
  764MOL0     C 3064   1.701   5.411   1.128  0.2306  0.6493  0.0312
  764MOL0     C 3065   1.588   5.316   1.160 -0.9570  1.2319  0.0302
  764MOL0     C 3066   1.570   5.303   1.310 -0.6442 -0.1608 -0.2698
  764MOL0     C 3067   1.439   5.211   1.326  0.2507 -0.1176  0.4909
  764MOL0     C 3068   1.477   5.070   1.344  0.2115 -0.0649  0.0357
  764MOL0     C 3069   1.497   4.954   1.352 -0.3721  0.4618 -0.2096
  764MOL0     C 3070   1.899   5.613   1.146  1.2069  0.8156  0.0103
  764MOL0     C 3071   2.009   5.691   1.129 -0.3788 -0.5972 -0.4146
  764MOL0     C 3072   1.994   5.805   1.034 -0.4924  0.8391 -0.7161
  764MOL0     H 3073   2.338   5.977   1.391  1.0329  3.6223  2.0865
  764MOL0     H 3074   2.523   6.151   1.377  1.0737  0.6347  0.2505
  764MOL0     H 3075   2.897   6.022   1.386 -0.2163 -1.4134 -1.1358
  764MOL0     H 3076   2.921   6.034   1.207  2.8115  3.7845 -2.6545
  764MOL0     H 3077   2.930   6.261   1.413 -0.8892 -1.6190  0.4442
  764MOL0     H 3078   2.948   6.283   1.235  0.9848  0.5066  1.0237
  764MOL0     H 3079   3.161   6.134   1.238 -0.1706 -0.3230 -0.8533
  764MOL0     H 3080   3.150   6.108   1.401  1.4099  0.4014 -0.6435
  764MOL0     H 3081   3.192   6.387   1.281  0.6695 -0.8244  0.2943
  764MOL0     H 3082   3.167   6.366   1.458 -1.6821 -0.3587  0.0603
  764MOL0     H 3083   3.371   6.205   1.425 -0.9047  1.0890  0.3172
  764MOL0     H 3084   3.399   6.280   1.266 -0.2760 -1.1101 -0.6529
  764MOL0     H 3085   3.376   6.438   1.524  0.9472 -2.4115  0.2721
  764MOL0     H 3086   3.531   6.372   1.466  0.2313  0.8496  1.7182
  764MOL0     H 3087   3.343   6.578   1.355 -0.0392  0.1560  2.1429
  764MOL0     H 3088   3.469   6.519   1.246  2.0088  0.8031  0.9536
  764MOL0     H 3089   3.516   6.735   1.367 -2.3817 -1.0099 -0.1106
  764MOL0     H 3090   3.544   6.656   1.515  0.6948  2.3317 -1.0330
  764MOL0     H 3091   3.771   6.472   1.514  2.5823  0.4636  1.0143
  764MOL0     H 3092   3.998   6.394   1.435 -0.5877  1.0213  0.5108
  764MOL0     H 3093   4.004   6.368   1.253 -0.0366  1.3430 -1.5433
  764MOL0     H 3094   4.106   6.589   1.223  3.3645 -0.7605 -1.3272
  764MOL0     H 3095   4.125   6.600   1.404 -2.5169  1.0192 -1.1572
  764MOL0     H 3096   4.211   6.369   1.217  1.4197 -0.4043  0.0649
  764MOL0     H 3097   4.263   6.391   1.390 -0.3222 -0.9894 -0.3266
  764MOL0     H 3098   4.339   6.568   1.152  3.0792  2.2567  0.7318
  764MOL0     H 3099   4.425   6.430   1.218 -0.6477 -0.8402  1.2188
  764MOL0     H 3100   4.602   6.537   1.152  0.0451  1.1085 -1.1482
  764MOL0     H 3101   4.812   6.620   1.145 -3.7917 -2.4289 -1.9129
  764MOL0     H 3102   5.178   6.782   1.599 -1.5133  1.4226  1.3610
  764MOL0     H 3103   5.429   6.843   1.558 -0.8306 -1.0082 -0.5378
  764MOL0     H 3104   5.621   6.917   1.531  1.0519 -3.9183 -1.9703
  764MOL0     H 3105   5.642   6.918   1.351  0.0808  1.6962 -0.6404
  764MOL0     H 3106   5.726   7.144   1.361  0.9144 -1.2497 -0.1659
  764MOL0     H 3107   5.726   7.138   1.536 -0.2196  1.5302 -0.6724
  764MOL0     H 3108   5.901   6.932   1.448  1.5799  0.2739 -0.0047
  764MOL0     H 3109   5.920   7.064   1.335 -1.9628 -1.8245 -1.0982
  764MOL0     H 3110   5.912   7.122   1.628 -2.0205  1.2299 -1.2340
  764MOL0     H 3111   5.991   7.215   1.502  2.7735  0.0550  0.0868
  764MOL0     H 3112   6.098   6.943   1.599  1.5078  1.3954  3.9854
  764MOL0     H 3113   6.156   7.107   1.629 -1.7786  0.5780  0.4571
  764MOL0     H 3114   6.124   6.988   1.358 -4.4451 -1.1956  4.2595
  764MOL0     H 3115   6.218   7.143   1.403  0.5636  0.0159 -0.3977
  764MOL0     H 3116   6.361   6.947   1.333  0.9732 -1.8981  0.4398
  764MOL0     H 3117   6.306   6.855   1.466 -1.2729 -0.0396  0.9525
  764MOL0     H 3118   6.438   7.130   1.485 -0.7571  1.5060  3.0639
  764MOL0     H 3119   6.387   7.040   1.629 -0.0996 -0.8689  0.7105
  764MOL0     H 3120   5.303   7.149   1.295  0.4558 -0.2107  0.0311
  764MOL0     H 3121   5.087   7.065   1.278 -0.8700  1.7211  0.9044
  764MOL0     H 3122   4.749   6.821   1.523 -0.7245 -2.6335  1.7820
  764MOL0     H 3123   4.532   6.747   1.525 -1.9865 -2.6296 -0.0368
  764MOL0     H 3124   2.778   5.866   1.179  0.8876 -0.2248  1.5666
  764MOL0     H 3125   2.577   5.707   1.175  0.6438  0.2862  1.1319
  764MOL0     H 3126   2.217   5.511   1.336 -0.1569 -0.8194  0.6702
  764MOL0     H 3127   2.018   5.375   1.344 -1.6103  0.1056 -0.8885
  764MOL0     H 3128   1.745   5.372   1.036 -0.5172  1.7189 -0.8000
  764MOL0     H 3129   1.659   5.508   1.101 -0.0603  0.2339 -1.0507
  764MOL0     H 3130   1.610   5.217   1.119 -4.1120 -0.9113  2.9206
  764MOL0     H 3131   1.500   5.351   1.105 -0.3240 -0.4352 -2.2053
  764MOL0     H 3132   1.545   5.395   1.364 -0.5279  0.0401 -0.5591
  764MOL0     H 3133   1.655   5.257   1.362 -0.3458  1.5370  0.8253
  764MOL0     H 3134   1.388   5.241   1.418  2.7340  3.1393  1.0019
  764MOL0     H 3135   1.364   5.219   1.248 -0.5501  0.0952  1.2659
  764MOL0     H 3136   1.502   4.848   1.367  0.6139  0.1749 -2.2730
  764MOL0     H 3137   1.804   5.654   1.111  1.4149 -0.0010 -1.5909
  764MOL0     H 3138   2.056   5.781   0.947 -0.4191  0.3138 -0.5257
  764MOL0     H 3139   1.887   5.813   1.009 -0.8730  0.8277  0.7991
  764MOL0     H 3140   2.033   5.891   1.088  1.8746 -0.7292  0.2468
  765MOL0     O 3141  10.948   2.288   5.190  0.5803  0.0429 -0.7302
  765MOL0     C 3142  10.911   2.182   5.151 -0.3122  0.0111 -0.7763
  765MOL0     O 3143  10.999   2.081   5.116  0.0639  0.2976  0.1227
  765MOL0     C 3144  11.127   2.101   5.076  0.1463  0.0102 -0.4720
  765MOL0     C 3145  11.165   2.041   4.957 -0.6306  0.0511  0.3939
  765MOL0     C 3146  11.295   2.058   4.902 -0.2866 -0.2998  0.5597
  765MOL0     C 3147  11.392   2.127   4.980 -0.3924 -0.0886 -1.1619
  765MOL0     O 3148  11.519   2.149   4.939  0.3072 -0.0019  0.4759
  765MOL0     C 3149  11.604   2.034   4.955 -0.7781  0.3460  0.1146
  765MOL0     C 3150  11.746   2.070   4.935  0.0867 -0.2217 -0.1677
  765MOL0     C 3151  11.843   1.957   4.981  0.6631 -0.2521 -0.0776
  765MOL0     C 3152  11.979   1.997   4.941  0.6027  0.5514  0.2921
  765MOL0     C 3153  12.091   1.920   5.017 -0.6986  0.1626  0.2078
  765MOL0     C 3154  12.146   2.004   5.137  0.3793 -0.3021  0.1400
  765MOL0     C 3155  12.293   1.985   5.182 -0.7834  0.1464  0.2368
  765MOL0     C 3156  12.392   2.063   5.094 -0.7327  0.6336 -0.3510
  765MOL0     N 3157  12.531   2.025   5.143 -0.1096 -0.3577 -0.6025
  765MOL0     C 3158  12.611   1.918   5.111 -0.2178  0.0072 -1.0480
  765MOL0     C 3159  12.718   1.915   5.188  0.3579 -0.5837 -0.0949
  765MOL0     C 3160  12.826   1.815   5.173  0.7270  0.2481  0.3144
  765MOL0     C 3161  12.883   1.805   5.039  1.2913 -0.1685 -0.0044
  765MOL0     C 3162  12.944   1.938   4.983  0.2059  0.4829 -0.0279
  765MOL0     C 3163  13.077   1.971   5.050  1.0384 -0.0131  0.1075
  765MOL0     O 3164  13.176   1.875   5.016 -0.4155  0.2186 -0.4134
  765MOL0     C 3165  13.283   1.857   5.099  0.5598  0.3022 -0.0764
  765MOL0     C 3166  13.365   1.952   5.151 -0.7160 -0.1492 -0.5586
  765MOL0     C 3167  13.478   1.915   5.232  0.1660  0.0164  0.1993
  765MOL0     C 3168  13.501   1.780   5.259  0.1590  0.0296 -0.6232
  765MOL0     C 3169  13.614   1.738   5.332  0.0496  0.4814  0.2247
  765MOL0     O 3170  13.634   1.600   5.356 -0.5541 -0.2204  0.0456
  765MOL0     C 3171  13.748   1.547   5.414  0.0031 -0.1166 -0.4947
  765MOL0     C 3172  13.759   1.413   5.402 -0.2589  0.6361  0.2229
  765MOL0     C 3173  13.870   1.346   5.457 -0.9766 -0.5874  0.1804
  765MOL0     C 3174  13.972   1.415   5.522 -1.0703  0.0967  0.0982
  765MOL0     O 3175  14.090   1.363   5.574 -0.0188 -0.3569  0.1567
  765MOL0     C 3176  14.095   1.220   5.587 -0.0775 -0.1363  1.2518
  765MOL0     C 3177  14.211   1.175   5.668  0.0677  0.7593  0.2162
  765MOL0     C 3178  14.342   1.197   5.585 -1.0037 -0.0734 -0.6626
  765MOL0     C 3179  14.462   1.113   5.634  0.3455 -0.5601  1.1088
  765MOL0     C 3180  14.594   1.159   5.561  0.2236  0.1334 -0.1191
  765MOL0     C 3181  14.716   1.080   5.604  0.4654 -0.3782 -0.1334
  765MOL0     C 3182  14.837   1.111   5.518 -0.4916 -0.3278 -0.0943
  765MOL0     C 3183  14.964   1.021   5.542 -0.0080 -0.6230  0.0589
  765MOL0    Cl 3184  14.941   0.861   5.461  0.2288 -0.0599  0.1335
  765MOL0     C 3185  13.962   1.555   5.527 -0.6302  0.9080  0.7449
  765MOL0     C 3186  13.849   1.615   5.484  0.3227  0.0262  0.5406
  765MOL0     O 3187  13.700   1.824   5.353 -0.6520 -0.6885 -0.4544
  765MOL0     C 3188  13.421   1.687   5.200 -0.3958 -0.9997 -0.2368
  765MOL0     C 3189  13.312   1.725   5.124  0.0188 -0.4333 -0.5050
  765MOL0     N 3190  12.704   2.020   5.282 -0.5113  0.0800 -0.1810
  765MOL0     N 3191  12.595   2.079   5.258 -0.2324 -0.4403 -0.3040
  765MOL0     C 3192  11.357   2.179   5.101  0.6627 -0.2984 -0.2080
  765MOL0     C 3193  11.222   2.169   5.151 -0.7419  0.5528  0.5286
  765MOL0     C 3194  10.771   2.158   5.155 -0.6459 -0.3584 -0.1805
  765MOL0     C 3195  10.674   2.242   5.209  0.1902  0.4109 -0.3127
  765MOL0     C 3196  10.538   2.205   5.232 -0.0040  0.1474  0.2249
  765MOL0     C 3197  10.489   2.089   5.178 -0.5590  0.3130 -0.1430
  765MOL0     O 3198  10.351   2.062   5.176 -0.7535 -0.5612  0.2674
  765MOL0     C 3199  10.262   2.147   5.248  0.1149 -0.0285  0.2026
  765MOL0     C 3200  10.116   2.103   5.232  0.0938  0.4095  0.7337
  765MOL0     C 3201  10.062   2.155   5.097 -0.0350  0.0105  0.1875
  765MOL0     C 3202   9.914   2.099   5.066 -0.4593  0.4753  0.0466
  765MOL0     C 3203   9.830   2.093   5.187 -0.8239  0.2226 -0.7195
  765MOL0     C 3204   9.771   2.112   5.290 -0.8285  0.3888 -0.6489
  765MOL0     C 3205  10.581   2.008   5.112  0.6760 -0.8367 -0.1298
  765MOL0     C 3206  10.724   2.037   5.096  0.5395  0.0522  0.6440
  765MOL0     C 3207  10.798   1.939   5.002  0.1436  0.5050  0.1599
  765MOL0     H 3208  11.091   1.986   4.901  0.2818 -0.8251  0.0120
  765MOL0     H 3209  11.311   2.008   4.807 -0.6606  0.4476  0.0924
  765MOL0     H 3210  11.592   1.991   5.055  3.4851  2.4532  1.8150
  765MOL0     H 3211  11.576   1.953   4.887 -0.4716  0.1742  0.1915
  765MOL0     H 3212  11.777   2.167   4.975  0.4056  1.5106 -4.1414
  765MOL0     H 3213  11.749   2.087   4.827 -0.0276  3.5295  0.3005
  765MOL0     H 3214  11.806   1.861   4.943 -0.0302 -1.8175  3.9855
  765MOL0     H 3215  11.846   1.951   5.090  0.6233  0.4079 -0.0348
  765MOL0     H 3216  11.980   1.973   4.834  0.2298 -1.4000  0.6831
  765MOL0     H 3217  11.999   2.104   4.952 -0.4017  1.3350 -3.7209
  765MOL0     H 3218  12.063   1.818   5.042  1.4517 -0.3798  0.6294
  765MOL0     H 3219  12.169   1.903   4.942 -0.7673 -1.2076  0.4219
  765MOL0     H 3220  12.139   2.111   5.117 -1.4343 -0.4817 -0.3732
  765MOL0     H 3221  12.075   1.988   5.219  1.1633  0.3529  0.9687
  765MOL0     H 3222  12.325   1.880   5.179 -0.7009  0.1376  1.0621
  765MOL0     H 3223  12.300   2.015   5.287 -2.0496 -0.5680  0.5461
  765MOL0     H 3224  12.374   2.036   4.990 -1.3163  2.5445 -0.7896
  765MOL0     H 3225  12.368   2.169   5.109 -1.0474  0.8161 -2.0190
  765MOL0     H 3226  12.588   1.844   5.035 -0.0424  0.2599 -1.3485
  765MOL0     H 3227  12.909   1.829   5.243 -0.9584 -0.9926  2.7107
  765MOL0     H 3228  12.784   1.717   5.197  1.1869 -0.0506 -0.0934
  765MOL0     H 3229  12.957   1.725   5.048  1.9418  0.3381 -0.6879
  765MOL0     H 3230  12.805   1.773   4.969  1.0105 -0.2840  0.3598
  765MOL0     H 3231  12.881   2.027   4.994 -1.3035 -0.5959  0.2452
  765MOL0     H 3232  12.971   1.924   4.878 -2.0767  1.8830 -0.8833
  765MOL0     H 3233  13.061   1.972   5.158  1.0299 -1.7962  0.1606
  765MOL0     H 3234  13.103   2.070   5.012 -1.9551  0.5550 -0.7717
  765MOL0     H 3235  13.348   2.057   5.131 -1.0447  0.2999  1.8758
  765MOL0     H 3236  13.546   1.990   5.272  1.3766  0.0303 -1.7624
  765MOL0     H 3237  13.679   1.354   5.357  0.1672 -1.0263  1.5191
  765MOL0     H 3238  13.874   1.237   5.456 -4.8663 -0.9810  2.9998
  765MOL0     H 3239  14.004   1.192   5.641 -1.0701  1.0560  0.2539
  765MOL0     H 3240  14.095   1.178   5.486 -0.9707 -0.7617  1.5057
  765MOL0     H 3241  14.219   1.231   5.761 -0.1772 -1.0497  1.3546
  765MOL0     H 3242  14.187   1.071   5.690 -5.1537  1.6019 -0.2702
  765MOL0     H 3243  14.318   1.171   5.481  1.4807  0.3597 -1.4106
  765MOL0     H 3244  14.381   1.299   5.590 -1.0496 -0.1157  3.6891
  765MOL0     H 3245  14.453   1.006   5.616  3.5600 -0.3989 -2.8291
  765MOL0     H 3246  14.483   1.126   5.741  3.0836 -1.8359  0.8186
  765MOL0     H 3247  14.611   1.265   5.585 -0.4787 -0.7757  6.0882
  765MOL0     H 3248  14.573   1.147   5.454  0.4770 -1.4640 -0.0068
  765MOL0     H 3249  14.738   1.116   5.705 -1.4523  4.8119 -1.2765
  765MOL0     H 3250  14.694   0.973   5.596  1.1044 -0.4025 -1.9740
  765MOL0     H 3251  14.871   1.215   5.525 -0.0970 -0.4273 -0.4732
  765MOL0     H 3252  14.805   1.101   5.414 -0.8337  2.9876 -0.4147
  765MOL0     H 3253  15.050   1.072   5.498  1.3092 -0.4440  2.6341
  765MOL0     H 3254  14.993   1.011   5.647 -0.9063  0.8635  0.4845
  765MOL0     H 3255  14.048   1.610   5.566  0.6095  0.2900 -0.9646
  765MOL0     H 3256  13.837   1.722   5.499  2.8037  0.3995  0.3489
  765MOL0     H 3257  13.449   1.583   5.214  0.1715 -0.8194  0.0235
  765MOL0     H 3258  13.250   1.652   5.072 -1.4881  0.8539 -0.5868
  765MOL0     H 3259  11.430   2.230   5.162  0.0284  0.6509 -0.2259
  765MOL0     H 3260  11.195   2.196   5.253  1.1001  0.9548  0.9492
  765MOL0     H 3261  10.703   2.341   5.241 -1.8212  0.3269  2.0484
  765MOL0     H 3262  10.475   2.285   5.271  0.6677  2.7840 -3.5561
  765MOL0     H 3263  10.267   2.250   5.210 -1.0954  0.1823  0.5702
  765MOL0     H 3264  10.299   2.137   5.351  2.0896 -0.3313 -0.5001
  765MOL0     H 3265  10.049   2.140   5.310 -1.0276  1.5992 -0.7194
  765MOL0     H 3266  10.106   1.994   5.233 -0.2557  0.4405  0.8098
  765MOL0     H 3267  10.128   2.126   5.015 -1.2649  1.9604 -1.5826
  765MOL0     H 3268  10.065   2.263   5.107 -0.0228  0.4278 -3.2662
  765MOL0     H 3269   9.856   2.149   4.988 -0.5430  0.3434  0.0230
  765MOL0     H 3270   9.939   1.997   5.036 -0.5040  0.1151  1.1740
  765MOL0     H 3271   9.740   2.142   5.388 -1.1100 -0.7751 -0.3690
  765MOL0     H 3272  10.535   1.919   5.070 -1.8416 -0.7429  2.1374
  765MOL0     H 3273  10.860   1.861   5.046 -1.2434  1.1355  3.5664
  765MOL0     H 3274  10.725   1.895   4.933 -0.2063 -0.6290  1.2259
  765MOL0     H 3275  10.855   1.999   4.929  0.9526 -2.7653 -2.1217
  766MOL0     O 3276   0.864   3.117   9.624  0.0145  0.8887  0.3648
  766MOL0     C 3277   0.777   3.050   9.571  0.6767 -0.7525 -0.7290
  766MOL0     O 3278   0.793   2.967   9.463 -0.0661  0.4053 -0.3266
  766MOL0     C 3279   0.922   2.919   9.433 -0.2566 -0.1827  0.4908
  766MOL0     C 3280   0.953   2.778   9.442  0.4763  0.4256 -0.0005
  766MOL0     C 3281   1.089   2.736   9.429  0.0976 -0.5195 -0.0437
  766MOL0     C 3282   1.194   2.825   9.396 -1.4183  0.6084  0.7224
  766MOL0     O 3283   1.328   2.779   9.405 -0.4283  0.3577  0.3979
  766MOL0     C 3284   1.435   2.872   9.391 -0.1500 -0.6534 -0.2948
  766MOL0     C 3285   1.571   2.815   9.418 -0.4980 -0.0410 -0.3942
  766MOL0     C 3286   1.613   2.716   9.317 -0.3337 -0.4512  0.3784
  766MOL0     C 3287   1.750   2.667   9.360  0.0007 -0.9302 -0.2957
  766MOL0     C 3288   1.790   2.550   9.279  0.3629  0.7207 -0.2515
  766MOL0     C 3289   1.850   2.579   9.138  0.1299  0.0651  1.2072
  766MOL0     C 3290   1.937   2.469   9.082  0.3837  0.0856 -0.3594
  766MOL0     C 3291   2.006   2.510   8.954  0.0726  0.6209  0.3259
  766MOL0     N 3292   2.063   2.402   8.888  0.6796  0.3023 -1.2293
  766MOL0     C 3293   2.093   2.386   8.753  0.2766  0.3770  0.0512
  766MOL0     C 3294   2.154   2.267   8.733  0.3061 -0.9822  0.0459
  766MOL0     C 3295   2.223   2.194   8.617  0.2571  0.0846 -0.1079
  766MOL0     C 3296   2.371   2.221   8.607 -0.5567  0.7860  1.2865
  766MOL0     C 3297   2.446   2.158   8.484 -0.5227 -0.1469 -0.3727
  766MOL0     C 3298   2.590   2.202   8.496  0.3349 -0.6028 -0.0474
  766MOL0     O 3299   2.683   2.136   8.409 -0.2192 -0.7150  0.5495
  766MOL0     C 3300   2.816   2.174   8.429  0.5252 -0.4314 -0.1427
  766MOL0     C 3301   2.864   2.267   8.523 -0.2746 -0.3170  0.0340
  766MOL0     C 3302   3.005   2.297   8.540  0.1474 -0.9418  0.0848
  766MOL0     C 3303   3.097   2.239   8.454  0.4965  1.0103 -0.2625
  766MOL0     C 3304   3.239   2.257   8.469  0.5837  0.2888  0.1015
  766MOL0     O 3305   3.282   2.317   8.577 -0.0356 -0.1781 -0.4749
  766MOL0     C 3306   3.419   2.357   8.592 -0.1118 -0.2714  0.0921
  766MOL0     C 3307   3.453   2.493   8.617 -0.1486 -0.8343 -0.8375
  766MOL0     C 3308   3.586   2.518   8.645  0.0111  0.7580 -0.0191
  766MOL0     C 3309   3.673   2.411   8.643  0.1958 -0.6942 -0.1375
  766MOL0     O 3310   3.810   2.444   8.675 -0.2793  0.1267  0.7115
  766MOL0     C 3311   3.915   2.360   8.644 -0.3142 -0.0780  0.5473
  766MOL0     C 3312   4.044   2.435   8.644 -0.1279  0.4606  0.7246
  766MOL0     C 3313   4.059   2.535   8.531 -0.4528 -0.2472  0.1769
  766MOL0     C 3314   4.176   2.626   8.560 -0.8032 -0.8939 -0.8534
  766MOL0     C 3315   4.230   2.681   8.426 -1.1025 -0.3270  0.0995
  766MOL0     C 3316   4.123   2.770   8.359 -0.1230  0.0167  0.5481
  766MOL0     C 3317   4.173   2.839   8.224 -0.4723  0.3113 -0.4123
  766MOL0     C 3318   4.248   2.745   8.133 -0.0083 -0.8399 -0.4588
  766MOL0    Cl 3319   4.255   2.830   7.974  0.1897 -0.8197 -0.2366
  766MOL0     C 3320   3.646   2.286   8.604  0.8775 -0.4911 -0.0676
  766MOL0     C 3321   3.511   2.257   8.579 -1.0185  0.1086 -0.2193
  766MOL0     O 3322   3.308   2.220   8.371 -0.2628  0.1094  0.3897
  766MOL0     C 3323   3.051   2.141   8.355  0.3709  1.3642 -1.1222
  766MOL0     C 3324   2.911   2.114   8.346  0.9291  0.3264 -0.4980
  766MOL0     N 3325   2.136   2.204   8.852  0.9419  0.1170 -0.7885
  766MOL0     N 3326   2.092   2.284   8.943 -0.3225 -0.1499  0.4486
  766MOL0     C 3327   1.158   2.959   9.377  0.1844 -0.4466  0.8736
  766MOL0     C 3328   1.023   3.002   9.395  0.3187  0.0986  0.3990
  766MOL0     C 3329   0.642   3.085   9.615 -0.4945  0.3961  0.1309
  766MOL0     C 3330   0.546   3.073   9.516  0.5332  0.4091 -0.2685
  766MOL0     C 3331   0.408   3.109   9.542 -0.1917 -0.6469  0.3124
  766MOL0     C 3332   0.368   3.130   9.676 -0.3256 -0.4499  0.2419
  766MOL0     O 3333   0.237   3.143   9.701  0.3730 -0.2934 -0.9446
  766MOL0     C 3334   0.199   3.269   9.759  0.4146  0.3758 -0.5383
  766MOL0     C 3335   0.166   3.369   9.653 -0.2993  0.5149 -0.2822
  766MOL0     C 3336   0.152   3.502   9.712  0.2792 -0.3447 -0.8344
  766MOL0     C 3337   0.129   3.621   9.620  0.7782  0.0642 -0.7999
  766MOL0     C 3338   0.025   3.592   9.510 -1.1247 -0.1952  0.0934
  766MOL0     C 3339  -0.059   3.565   9.422  0.3007  0.8423  0.1295
  766MOL0     C 3340   0.467   3.138   9.772  0.0471 -0.7180  0.0061
  766MOL0     C 3341   0.605   3.128   9.741  0.0295 -0.1213 -0.5667
  766MOL0     C 3342   0.713   3.166   9.847  0.6048 -0.1809  0.1171
  766MOL0     H 3343   0.873   2.711   9.473  1.1866 -0.7423 -0.6517
  766MOL0     H 3344   1.112   2.634   9.456 -1.8734 -0.4472  2.1911
  766MOL0     H 3345   1.450   2.923   9.295  3.0597  0.6957  0.7714
  766MOL0     H 3346   1.421   2.953   9.463  2.2385  1.2235 -1.7880
  766MOL0     H 3347   1.568   2.768   9.517 -0.5214 -2.4759 -1.4735
  766MOL0     H 3348   1.642   2.898   9.423 -0.9299  0.4196 -1.6369
  766MOL0     H 3349   1.616   2.775   9.225  0.7285 -0.1666  0.5844
  766MOL0     H 3350   1.543   2.635   9.296  0.8696 -1.0445 -1.6313
  766MOL0     H 3351   1.827   2.743   9.350  0.1618 -1.2158 -1.3747
  766MOL0     H 3352   1.745   2.639   9.466  0.1037  0.5850  0.1237
  766MOL0     H 3353   1.864   2.493   9.337  0.4502  1.6017  0.5242
  766MOL0     H 3354   1.706   2.482   9.267  0.3366  0.4297  1.3570
  766MOL0     H 3355   1.766   2.595   9.070  1.0119  0.9550  0.2841
  766MOL0     H 3356   1.915   2.666   9.148 -0.4170  0.7895 -0.9917
  766MOL0     H 3357   1.873   2.380   9.076  0.0935  0.2515  0.1648
  766MOL0     H 3358   2.012   2.444   9.158  1.0918  1.4615 -0.5693
  766MOL0     H 3359   1.928   2.529   8.880 -2.7021 -3.3966  1.8269
  766MOL0     H 3360   2.077   2.590   8.973 -0.2092  0.5304  1.9008
  766MOL0     H 3361   2.064   2.458   8.678 -0.9904  0.9297  1.0407
  766MOL0     H 3362   2.206   2.088   8.641  0.7414 -0.1204 -0.6497
  766MOL0     H 3363   2.170   2.204   8.523  1.9460 -0.1904 -1.1344
  766MOL0     H 3364   2.389   2.329   8.601 -1.3486  0.8663  0.2307
  766MOL0     H 3365   2.415   2.176   8.696 -1.0218  1.5806  1.9319
  766MOL0     H 3366   2.407   2.193   8.387 -1.0784 -1.1444 -0.5196
  766MOL0     H 3367   2.434   2.050   8.494 -0.0715 -0.0085  2.4814
  766MOL0     H 3368   2.617   2.199   8.602 -1.2459  0.7016  0.4343
  766MOL0     H 3369   2.600   2.306   8.464 -0.9731 -0.6455 -0.6548
  766MOL0     H 3370   2.794   2.309   8.595  0.7302 -1.0697  1.5110
  766MOL0     H 3371   3.034   2.354   8.628  0.7726  0.1527 -0.8037
  766MOL0     H 3372   3.381   2.573   8.626  2.1476  1.3578 -0.8519
  766MOL0     H 3373   3.619   2.621   8.656  1.0216  0.6112 -1.4510
  766MOL0     H 3374   3.918   2.273   8.711 -0.6635 -1.8120 -1.5490
  766MOL0     H 3375   3.909   2.323   8.541  1.4576  1.1281 -0.0209
  766MOL0     H 3376   4.062   2.486   8.739  1.4809 -1.7832  1.7356
  766MOL0     H 3377   4.128   2.364   8.641 -1.7565 -1.5325  0.0217
  766MOL0     H 3378   4.057   2.477   8.438 -0.4079  2.0552 -1.3394
  766MOL0     H 3379   3.971   2.600   8.527 -0.4398 -0.1691  0.9335
  766MOL0     H 3380   4.257   2.580   8.618 -1.7341  0.1713  1.4082
  766MOL0     H 3381   4.134   2.710   8.617 -0.1646 -0.2889 -1.2520
  766MOL0     H 3382   4.269   2.597   8.367  0.7530 -0.2914  1.1936
  766MOL0     H 3383   4.315   2.748   8.444 -3.2976  2.1339  2.1343
  766MOL0     H 3384   4.031   2.719   8.328 -0.5525  0.7405  0.6074
  766MOL0     H 3385   4.088   2.842   8.433  0.5113 -0.3113  1.1788
  766MOL0     H 3386   4.234   2.927   8.243  0.3706 -0.3738  0.1432
  766MOL0     H 3387   4.094   2.878   8.159 -0.7394  0.5786  0.0708
  766MOL0     H 3388   4.348   2.728   8.173 -0.7598  1.5151  2.7996
  766MOL0     H 3389   4.184   2.657   8.123 -2.0416  0.6368 -1.1754
  766MOL0     H 3390   3.727   2.214   8.598  1.1092 -0.1194 -1.8943
  766MOL0     H 3391   3.476   2.157   8.552 -0.9151  0.4333 -1.6327
  766MOL0     H 3392   3.116   2.077   8.295 -0.3575  1.0212 -1.5678
  766MOL0     H 3393   2.892   2.039   8.269 -2.6705  1.3010 -0.6985
  766MOL0     H 3394   1.233   3.037   9.366 -0.1706 -0.2416 -0.2232
  766MOL0     H 3395   1.021   3.111   9.394  2.3771  0.1965  1.1157
  766MOL0     H 3396   0.568   3.043   9.414 -1.5445  1.4213 -1.0895
  766MOL0     H 3397   0.333   3.105   9.464  0.9587 -0.5031 -0.8408
  766MOL0     H 3398   0.273   3.305   9.830 -0.9711  0.8618  0.7247
  766MOL0     H 3399   0.105   3.253   9.813  2.0761 -1.9854  1.8582
  766MOL0     H 3400   0.075   3.341   9.599  0.2685 -1.3269 -0.3545
  766MOL0     H 3401   0.247   3.373   9.580 -0.1139  3.6072 -0.0420
  766MOL0     H 3402   0.246   3.530   9.761  0.7004 -0.3313 -1.6346
  766MOL0     H 3403   0.077   3.496   9.792  0.5795 -0.2420 -0.5416
  766MOL0     H 3404   0.091   3.696   9.690 -1.4687  0.4336 -2.3082
  766MOL0     H 3405   0.221   3.638   9.565  1.1863 -3.0685 -1.2996
  766MOL0     H 3406  -0.125   3.521   9.350  0.8176  0.7803 -0.3076
  766MOL0     H 3407   0.448   3.151   9.878  2.8023 -1.1281  0.6365
  766MOL0     H 3408   0.758   3.072   9.879  1.5879  0.1764 -0.1848
  766MOL0     H 3409   0.787   3.238   9.811 -0.4009 -0.7314 -3.3824
  766MOL0     H 3410   0.667   3.208   9.937 -0.4732 -1.9173  0.4202
  767MOL0     O 3411   2.196   5.155   1.294  0.0747 -0.8524  0.1405
  767MOL0     C 3412   2.196   5.158   1.167 -0.0750 -0.8823 -0.2308
  767MOL0     O 3413   2.108   5.097   1.090  0.4235  0.7486  0.2742
  767MOL0     C 3414   2.019   5.011   1.150 -0.5181  1.2855  0.3557
  767MOL0     C 3415   2.069   4.894   1.210 -0.0689 -0.0180  0.6696
  767MOL0     C 3416   1.978   4.793   1.238 -0.6790  1.0689 -0.8490
  767MOL0     C 3417   1.841   4.812   1.230 -0.1791  0.1261  1.1411
  767MOL0     O 3418   1.758   4.711   1.279 -0.6842  0.3972  0.2123
  767MOL0     C 3419   1.787   4.586   1.210  0.6330  0.7639 -0.8471
  767MOL0     C 3420   1.697   4.465   1.262 -0.2621 -0.1620  0.3161
  767MOL0     C 3421   1.556   4.484   1.247 -0.1115  0.5541  1.3644
  767MOL0     C 3422   1.487   4.585   1.333 -0.2812 -0.2035  0.1054
  767MOL0     C 3423   1.429   4.546   1.465 -0.1945 -0.2663 -0.7288
  767MOL0     C 3424   1.529   4.498   1.575  0.4857 -0.9105  0.7113
  767MOL0     C 3425   1.463   4.476   1.711  0.2666  0.1074  0.5845
  767MOL0     C 3426   1.330   4.398   1.714 -0.7654 -0.1462 -1.0090
  767MOL0     N 3427   1.279   4.406   1.850  0.0618  0.2664  0.2270
  767MOL0     C 3428   1.346   4.383   1.973  0.1049  0.2088 -0.5968
  767MOL0     C 3429   1.251   4.378   2.068  0.0021  0.0621  0.5547
  767MOL0     C 3430   1.265   4.352   2.220 -0.1304 -0.7103  0.3451
  767MOL0     C 3431   1.402   4.295   2.250  0.5744  0.4488 -0.2234
  767MOL0     C 3432   1.407   4.261   2.402  0.7514  0.9040 -0.2396
  767MOL0     C 3433   1.536   4.175   2.433  0.3912 -0.0832 -0.3915
  767MOL0     O 3434   1.646   4.240   2.375 -0.3280 -0.0276  0.1211
  767MOL0     C 3435   1.772   4.228   2.435 -0.5553 -0.4976 -0.2628
  767MOL0     C 3436   1.817   4.111   2.497 -0.6274 -0.4584  0.6784
  767MOL0     C 3437   1.955   4.098   2.535  0.1608  0.3698  0.0076
  767MOL0     C 3438   2.042   4.208   2.506  1.0622 -0.0348 -1.0376
  767MOL0     C 3439   2.187   4.203   2.534 -0.7306  0.7832  0.3231
  767MOL0     O 3440   2.267   4.298   2.466 -0.0869 -0.5874 -0.5195
  767MOL0     C 3441   2.407   4.273   2.475 -0.3756 -0.2696 -0.0427
  767MOL0     C 3442   2.489   4.366   2.554 -0.2714  0.4050 -0.5446
  767MOL0     C 3443   2.629   4.351   2.560 -0.6805  0.5901 -0.3528
  767MOL0     C 3444   2.696   4.249   2.501  0.1741  0.0368 -0.0218
  767MOL0     O 3445   2.830   4.220   2.521 -0.6251 -0.9338  0.3829
  767MOL0     C 3446   2.918   4.327   2.566  0.7173  0.2888  0.1875
  767MOL0     C 3447   3.060   4.261   2.556  0.5605  0.1568 -0.6930
  767MOL0     C 3448   3.177   4.360   2.565  0.1956  0.7170 -0.2535
  767MOL0     C 3449   3.299   4.279   2.531 -0.0751  1.1348  0.2965
  767MOL0     C 3450   3.430   4.344   2.548 -0.3047 -1.2563 -0.2858
  767MOL0     C 3451   3.441   4.478   2.483 -0.4509  0.5550  0.4963
  767MOL0     C 3452   3.585   4.536   2.495 -0.4167 -0.2726  0.3782
  767MOL0     C 3453   3.614   4.665   2.423 -0.8181 -0.8098 -0.8718
  767MOL0    Cl 3454   3.607   4.644   2.247  0.0350  0.2795  0.3722
  767MOL0     C 3455   2.613   4.163   2.424 -0.1856  0.1280  0.4760
  767MOL0     C 3456   2.475   4.179   2.406 -0.0324  0.0798 -0.4839
  767MOL0     O 3457   2.229   4.115   2.616  0.1591 -0.4558  0.0868
  767MOL0     C 3458   1.988   4.326   2.454 -0.3203 -0.5794  0.3878
  767MOL0     C 3459   1.860   4.332   2.410 -0.3051  0.9553  0.4427
  767MOL0     N 3460   1.128   4.409   2.010 -0.0576 -0.7707 -0.5452
  767MOL0     N 3461   1.150   4.426   1.881  0.2920 -0.9164  0.0774
  767MOL0     C 3462   1.792   4.934   1.184 -0.4590  0.0706 -0.5660
  767MOL0     C 3463   1.882   5.029   1.136  0.5195  0.4294  0.1719
  767MOL0     C 3464   2.294   5.250   1.107  0.0125  0.5001 -0.5039
  767MOL0     C 3465   2.236   5.348   1.022 -0.7687 -0.9479  0.3304
  767MOL0     C 3466   2.308   5.454   0.971  0.3674 -0.0347  0.0180
  767MOL0     C 3467   2.444   5.462   0.996 -0.5738 -0.8353 -0.6642
  767MOL0     O 3468   2.536   5.552   0.945  0.0631 -0.6091 -0.6338
  767MOL0     C 3469   2.493   5.663   0.868  0.3597 -0.1666  0.1956
  767MOL0     C 3470   2.611   5.739   0.813  1.0281  0.2239  0.1351
  767MOL0     C 3471   2.714   5.650   0.759  0.0203  0.0697  0.3593
  767MOL0     C 3472   2.840   5.715   0.685  1.3497 -1.0589 -0.2112
  767MOL0     C 3473   2.944   5.766   0.773 -0.0854  0.2074 -0.5699
  767MOL0     C 3474   3.039   5.801   0.834  0.3959  0.4329  0.0655
  767MOL0     C 3475   2.494   5.374   1.090 -0.4369  0.0926 -0.6586
  767MOL0     C 3476   2.428   5.263   1.140  0.4353  0.3331  1.1263
  767MOL0     C 3477   2.490   5.164   1.231  0.6238 -0.8878 -0.7159
  767MOL0     H 3478   2.176   4.875   1.206  0.0468  0.8356 -1.7506
  767MOL0     H 3479   2.008   4.696   1.277 -0.6742  1.4705  0.1854
  767MOL0     H 3480   1.778   4.611   1.104  1.3813  0.1179 -1.0724
  767MOL0     H 3481   1.891   4.555   1.224  0.3481  0.1732  0.0304
  767MOL0     H 3482   1.723   4.453   1.368 -0.8566  1.1185  0.6298
  767MOL0     H 3483   1.725   4.371   1.214 -2.0440 -1.1586  1.1203
  767MOL0     H 3484   1.497   4.392   1.254 -0.3136  0.4488 -0.9749
  767MOL0     H 3485   1.542   4.501   1.140 -3.1887 -0.0967  1.5516
  767MOL0     H 3486   1.554   4.671   1.346 -0.5020  0.4277 -2.2917
  767MOL0     H 3487   1.404   4.609   1.265  0.1620 -1.2654 -0.8516
  767MOL0     H 3488   1.374   4.631   1.507  2.7958  1.0531  0.8183
  767MOL0     H 3489   1.364   4.459   1.454  2.0621 -2.1923  0.5752
  767MOL0     H 3490   1.579   4.407   1.540  1.6433  0.5275 -1.6185
  767MOL0     H 3491   1.617   4.562   1.583  0.2888 -0.5044 -0.2039
  767MOL0     H 3492   1.448   4.576   1.751  0.4641 -0.1253  1.2439
  767MOL0     H 3493   1.540   4.435   1.778  0.8635  0.9281  0.4158
  767MOL0     H 3494   1.264   4.455   1.647 -1.5387  0.8488  0.5378
  767MOL0     H 3495   1.341   4.302   1.664 -2.3050 -0.8454 -0.0752
  767MOL0     H 3496   1.448   4.352   1.993 -0.3444 -1.3579 -0.5687
  767MOL0     H 3497   1.258   4.445   2.277 -2.1830  0.2369 -1.3284
  767MOL0     H 3498   1.183   4.287   2.250 -0.8478 -0.2226 -0.4974
  767MOL0     H 3499   1.419   4.204   2.192 -1.0498  0.4109 -0.6969
  767MOL0     H 3500   1.478   4.366   2.216  1.1466 -0.6040 -1.2279
  767MOL0     H 3501   1.326   4.193   2.428  1.4768 -0.8882 -2.4064
  767MOL0     H 3502   1.401   4.355   2.458 -0.9253  0.9941 -0.5146
  767MOL0     H 3503   1.532   4.072   2.395  1.6996  0.2992 -1.6078
  767MOL0     H 3504   1.549   4.167   2.542  0.7658  0.7456 -0.3676
  767MOL0     H 3505   1.752   4.026   2.513 -1.6061 -0.3108 -2.0705
  767MOL0     H 3506   1.989   4.007   2.583  2.8016  2.2428  1.9747
  767MOL0     H 3507   2.435   4.434   2.618 -1.6958 -0.1244 -1.1396
  767MOL0     H 3508   2.694   4.412   2.623 -1.1832 -1.4095  2.2610
  767MOL0     H 3509   2.913   4.420   2.508 -0.9336 -1.2372 -2.2310
  767MOL0     H 3510   2.906   4.341   2.674  0.9193  0.2181  0.2192
  767MOL0     H 3511   3.083   4.180   2.625 -1.6145 -2.7305 -3.0483
  767MOL0     H 3512   3.054   4.209   2.460 -1.3972 -0.7757 -0.1192
  767MOL0     H 3513   3.163   4.438   2.488  2.3048  1.5824  0.1627
  767MOL0     H 3514   3.179   4.408   2.663  0.0332 -0.8449  0.5267
  767MOL0     H 3515   3.283   4.239   2.430 -1.2507 -0.2959  0.9973
  767MOL0     H 3516   3.307   4.190   2.595  1.4778  0.1293 -1.2002
  767MOL0     H 3517   3.510   4.281   2.508  0.5783 -0.8461  0.7719
  767MOL0     H 3518   3.465   4.352   2.652 -1.3814  1.0980 -0.0297
  767MOL0     H 3519   3.430   4.444   2.380 -1.2283 -0.1411  0.7957
  767MOL0     H 3520   3.370   4.556   2.511 -0.8705  0.1657  0.5308
  767MOL0     H 3521   3.665   4.473   2.455  0.6226  0.1771  1.6589
  767MOL0     H 3522   3.603   4.563   2.600 -0.5744 -1.2835  0.6818
  767MOL0     H 3523   3.546   4.748   2.444 -0.3836 -0.7152  0.2034
  767MOL0     H 3524   3.715   4.702   2.444 -0.2308 -1.8944 -1.6926
  767MOL0     H 3525   2.657   4.086   2.361  0.7457  0.8533  0.2010
  767MOL0     H 3526   2.420   4.115   2.338 -1.0473  2.8206 -2.3914
  767MOL0     H 3527   2.042   4.417   2.433 -1.0196 -0.1190  0.5577
  767MOL0     H 3528   1.833   4.406   2.335  0.3440  0.0071 -0.7622
  767MOL0     H 3529   1.688   4.938   1.151  0.3470 -2.4795 -4.0152
  767MOL0     H 3530   1.866   5.122   1.084  0.8365 -0.5171 -1.7169
  767MOL0     H 3531   2.132   5.348   0.990 -0.2713 -0.5267 -1.4240
  767MOL0     H 3532   2.257   5.521   0.902 -0.2304 -1.2643 -0.7599
  767MOL0     H 3533   2.428   5.729   0.927  0.1203  0.9773 -1.2923
  767MOL0     H 3534   2.429   5.620   0.791  0.6232 -0.3255  0.0663
  767MOL0     H 3535   2.664   5.793   0.892  2.0871  2.0103 -1.6702
  767MOL0     H 3536   2.578   5.819   0.745 -0.7244 -0.7879 -0.2487
  767MOL0     H 3537   2.659   5.593   0.684 -0.0967 -0.6332  0.9702
  767MOL0     H 3538   2.755   5.589   0.840  1.7913  0.1689 -0.4284
  767MOL0     H 3539   2.896   5.661   0.609  2.1552 -0.1364 -0.2946
  767MOL0     H 3540   2.803   5.803   0.632  2.1445  1.4752  3.1461
  767MOL0     H 3541   3.128   5.841   0.878  1.4923  3.1423 -4.0561
  767MOL0     H 3542   2.593   5.385   1.133 -1.5511  0.8032  1.9210
  767MOL0     H 3543   2.472   5.191   1.335 -2.1933  1.6778 -1.7189
  767MOL0     H 3544   2.448   5.068   1.199 -0.2009  0.4549 -4.0936
  767MOL0     H 3545   2.599   5.160   1.223  0.5605 -0.8587 -1.7967
  768MOL0     O 3546   4.687   7.121   5.853 -0.6644 -0.1265 -0.1916
  768MOL0     C 3547   4.708   7.210   5.773  0.5885  0.0478  0.5868
  768MOL0     O 3548   4.803   7.199   5.673  0.5248 -0.7947  0.3835
  768MOL0     C 3549   4.900   7.098   5.681 -0.0034 -0.1545 -0.6930
  768MOL0     C 3550   4.919   7.014   5.571 -1.0767 -0.0413 -0.2639
  768MOL0     C 3551   5.033   6.929   5.573 -0.6200 -0.3602  0.6883
  768MOL0     C 3552   5.124   6.926   5.677  0.6910  0.1953 -0.9572
  768MOL0     O 3553   5.242   6.859   5.659  0.4171  0.8149 -0.2252
  768MOL0     C 3554   5.306   6.854   5.533  0.3570 -0.9251  0.0195
  768MOL0     C 3555   5.460   6.859   5.549  0.9811  0.5190  0.6770
  768MOL0     C 3556   5.516   6.977   5.631 -0.5995 -0.1691  0.1828
  768MOL0     C 3557   5.671   6.946   5.644 -0.1784 -0.1119 -1.0839
  768MOL0     C 3558   5.731   7.054   5.739  0.5416 -0.1759  0.4042
  768MOL0     C 3559   5.890   7.056   5.743  0.3216 -0.0364 -0.3723
  768MOL0     C 3560   5.940   7.187   5.803  0.6261 -0.6873  0.1715
  768MOL0     C 3561   6.101   7.199   5.812  0.5351  0.2207 -0.3507
  768MOL0     N 3562   6.165   7.241   5.686 -0.2552 -0.4182  0.2262
  768MOL0     C 3563   6.126   7.346   5.612 -0.2185 -0.2437  0.0056
  768MOL0     C 3564   6.192   7.331   5.491 -0.0235  0.2722 -0.1913
  768MOL0     C 3565   6.177   7.428   5.373 -0.5841 -0.5644  0.2821
  768MOL0     C 3566   6.141   7.364   5.242  0.1466 -0.7468 -0.1398
  768MOL0     C 3567   6.255   7.274   5.170 -0.1527  0.0727 -0.5466
  768MOL0     C 3568   6.397   7.338   5.185  0.3380  0.6730  0.0090
  768MOL0     O 3569   6.395   7.467   5.121  0.7067  0.3632 -0.1859
  768MOL0     C 3570   6.513   7.539   5.126 -0.1073  0.4954  0.6046
  768MOL0     C 3571   6.627   7.485   5.187  0.4475  0.3464 -0.3892
  768MOL0     C 3572   6.748   7.554   5.178  0.2930 -0.5668  0.1608
  768MOL0     C 3573   6.751   7.685   5.118 -0.4226 -0.1007  0.0020
  768MOL0     C 3574   6.878   7.767   5.115 -1.2524 -0.0028 -1.0543
  768MOL0     O 3575   6.988   7.695   5.163  0.4199 -0.3247  0.3663
  768MOL0     C 3576   7.115   7.748   5.130 -0.1809  0.6602 -1.2647
  768MOL0     C 3577   7.215   7.738   5.230 -0.3450 -0.6173 -0.1820
  768MOL0     C 3578   7.346   7.794   5.213  0.3057  0.0867  0.0141
  768MOL0     C 3579   7.379   7.850   5.087 -0.4533 -0.4381  0.5297
  768MOL0     O 3580   7.492   7.909   5.054  0.0122 -0.6296  0.1819
  768MOL0     C 3581   7.566   7.977   5.159  0.4004 -0.9121 -0.3880
  768MOL0     C 3582   7.674   8.061   5.089  0.2310  0.5174 -0.1951
  768MOL0     C 3583   7.753   8.161   5.167 -0.2381  0.4796 -0.4174
  768MOL0     C 3584   7.855   8.080   5.254 -0.2438  0.1065  0.7257
  768MOL0     C 3585   7.951   8.171   5.333  0.0312  0.8320 -0.3161
  768MOL0     C 3586   8.048   8.253   5.250 -0.3867 -0.5167 -0.7030
  768MOL0     C 3587   8.158   8.319   5.339 -0.1086 -0.0634  0.0922
  768MOL0     C 3588   8.254   8.412   5.261  0.6216 -0.0104 -0.0243
  768MOL0    Cl 3589   8.343   8.506   5.377 -0.0978 -0.5558 -0.6560
  768MOL0     C 3590   7.280   7.841   4.985  0.4004 -0.4094  0.0994
  768MOL0     C 3591   7.155   7.791   5.001  0.3071  0.6121 -0.8065
  768MOL0     O 3592   6.888   7.880   5.070  0.1979 -0.2078 -0.8646
  768MOL0     C 3593   6.641   7.738   5.065  0.6418  0.1068 -0.3039
  768MOL0     C 3594   6.517   7.667   5.062 -0.5700  0.4466  0.4179
  768MOL0     N 3595   6.285   7.234   5.511  0.2214 -0.5366  0.4044
  768MOL0     N 3596   6.267   7.177   5.621  0.0602  0.4175  1.0325
  768MOL0     C 3597   5.087   6.993   5.796 -0.1387 -0.1070  0.1048
  768MOL0     C 3598   4.976   7.082   5.799  0.4536  0.2850  0.0122
  768MOL0     C 3599   4.625   7.343   5.780  0.8297  0.9075 -0.3831
  768MOL0     C 3600   4.663   7.446   5.688 -0.0527 -0.0735  0.4700
  768MOL0     C 3601   4.595   7.565   5.680  0.7323 -0.6590  0.4866
  768MOL0     C 3602   4.481   7.589   5.751  0.4463 -0.3109  0.0859
  768MOL0     O 3603   4.411   7.700   5.715  0.2586  0.0757 -0.0007
  768MOL0     C 3604   4.307   7.747   5.795 -0.2774 -0.3539  0.3455
  768MOL0     C 3605   4.362   7.827   5.920  1.1135  0.5719  0.2409
  768MOL0     C 3606   4.432   7.958   5.890  0.0442  0.2419  0.0689
  768MOL0     C 3607   4.462   8.040   6.020  0.1195  0.2808  0.6516
  768MOL0     C 3608   4.333   8.107   6.064  0.0168 -0.6431  0.1717
  768MOL0     C 3609   4.225   8.156   6.086 -0.0397 -0.0085 -0.2401
  768MOL0     C 3610   4.439   7.494   5.848 -0.8272  0.9198 -1.0451
  768MOL0     C 3611   4.517   7.373   5.870  0.2046 -0.6407 -0.5713
  768MOL0     C 3612   4.481   7.298   5.990  1.1093  0.2969  0.0980
  768MOL0     H 3613   4.861   7.048   5.486 -1.8950  2.6413  1.2232
  768MOL0     H 3614   5.061   6.877   5.481  1.1694  0.0551  0.9560
  768MOL0     H 3615   5.265   6.765   5.484  2.0849 -0.9546 -1.4836
  768MOL0     H 3616   5.281   6.942   5.473  3.2352  0.9592  1.3673
  768MOL0     H 3617   5.510   6.851   5.452  2.6556 -0.2933  1.5570
  768MOL0     H 3618   5.486   6.765   5.599  2.5613  0.1359 -0.7515
  768MOL0     H 3619   5.465   6.990   5.726 -1.1890 -0.3463 -0.1040
  768MOL0     H 3620   5.505   7.069   5.573 -0.2552 -0.1487  0.1462
  768MOL0     H 3621   5.676   6.846   5.687  1.1194 -0.2939 -1.6393
  768MOL0     H 3622   5.718   6.947   5.545 -0.9816 -2.0543 -1.5395
  768MOL0     H 3623   5.698   7.151   5.702  2.6769  0.4430 -0.0577
  768MOL0     H 3624   5.701   7.043   5.843  1.2457  2.0996  0.8984
  768MOL0     H 3625   5.913   6.970   5.806  1.4822  0.7023  0.2483
  768MOL0     H 3626   5.925   7.053   5.639 -0.7954  2.1029 -0.8800
  768MOL0     H 3627   5.902   7.201   5.904 -0.0371  0.8105 -0.2645
  768MOL0     H 3628   5.903   7.278   5.755 -1.9134 -0.3758  2.4820
  768MOL0     H 3629   6.114   7.288   5.875 -1.4794  1.6327 -1.8146
  768MOL0     H 3630   6.141   7.108   5.860 -1.4893 -1.3684 -1.4989
  768MOL0     H 3631   6.046   7.413   5.641  1.2723  0.8260  1.8186
  768MOL0     H 3632   6.093   7.493   5.398  0.7963  2.0738 -1.4138
  768MOL0     H 3633   6.257   7.501   5.357  0.3152 -1.7613 -0.8986
  768MOL0     H 3634   6.046   7.314   5.262 -0.1479  0.7030  2.6745
  768MOL0     H 3635   6.115   7.449   5.179  0.3241  0.3170  1.1825
  768MOL0     H 3636   6.237   7.270   5.063  2.1595 -0.6910 -0.9560
  768MOL0     H 3637   6.252   7.169   5.201  1.0935  0.4415  0.9494
  768MOL0     H 3638   6.477   7.277   5.142  1.5365  2.3607 -0.2569
  768MOL0     H 3639   6.411   7.353   5.293  0.8086  0.5576 -0.0348
  768MOL0     H 3640   6.631   7.389   5.238  1.0022 -2.4280 -5.0517
  768MOL0     H 3641   6.836   7.512   5.225 -0.5617 -0.0555  2.3629
  768MOL0     H 3642   7.206   7.692   5.328 -1.3620 -1.8046 -0.8063
  768MOL0     H 3643   7.419   7.791   5.294 -1.4037 -1.4731  1.6166
  768MOL0     H 3644   7.509   8.043   5.225  0.5967 -0.6331 -0.4956
  768MOL0     H 3645   7.610   7.893   5.213 -3.0345 -3.0874 -0.6660
  768MOL0     H 3646   7.735   7.984   5.041 -0.8784  0.5951 -1.7955
  768MOL0     H 3647   7.625   8.127   5.017  0.0209 -0.1023 -0.6269
  768MOL0     H 3648   7.805   8.226   5.096 -1.5963  1.9028 -0.1532
  768MOL0     H 3649   7.704   8.231   5.235  2.9870  1.0228  1.5633
  768MOL0     H 3650   7.913   8.023   5.181 -0.7370 -0.0069  0.4180
  768MOL0     H 3651   7.810   8.001   5.316  2.6961 -1.8434  0.5819
  768MOL0     H 3652   8.010   8.109   5.401  1.6489  2.1581 -0.4488
  768MOL0     H 3653   7.895   8.236   5.400 -1.5280 -1.5255  0.8192
  768MOL0     H 3654   8.104   8.188   5.183  2.7076 -0.5668  1.6775
  768MOL0     H 3655   8.011   8.337   5.191 -1.6825  0.3594  1.2273
  768MOL0     H 3656   8.218   8.241   5.386 -1.2437 -1.1671 -0.2433
  768MOL0     H 3657   8.106   8.376   5.417  0.7417  1.1557 -0.1937
  768MOL0     H 3658   8.307   8.352   5.186 -1.6277 -1.3329 -0.6725
  768MOL0     H 3659   8.187   8.481   5.209 -1.4247 -2.2694 -0.5725
  768MOL0     H 3660   7.299   7.874   4.883  0.0789 -0.6563 -0.0415
  768MOL0     H 3661   7.082   7.791   4.920 -2.9885 -1.1600  1.8600
  768MOL0     H 3662   6.646   7.834   5.014 -1.6963  0.5049  0.1112
  768MOL0     H 3663   6.442   7.712   4.997 -1.6835  3.3472  3.4396
  768MOL0     H 3664   5.151   6.977   5.882  1.2004  1.0904 -0.6340
  768MOL0     H 3665   4.959   7.142   5.888 -3.3214  1.3389 -1.2655
  768MOL0     H 3666   4.742   7.437   5.614  2.1447  1.2835  2.4943
  768MOL0     H 3667   4.612   7.636   5.600 -3.0421  1.5623  1.4103
  768MOL0     H 3668   4.243   7.668   5.836 -1.0998  0.6573  1.0574
  768MOL0     H 3669   4.254   7.820   5.733  0.9451  1.5112  1.3812
  768MOL0     H 3670   4.430   7.760   5.973 -0.2827  0.2319  1.6928
  768MOL0     H 3671   4.281   7.841   5.992  0.1689  0.8550 -0.8418
  768MOL0     H 3672   4.373   8.019   5.822  1.1589  0.9941 -0.2597
  768MOL0     H 3673   4.526   7.937   5.838  1.1157 -3.0038  2.8647
  768MOL0     H 3674   4.493   7.972   6.099  2.1407 -1.3310 -1.4011
  768MOL0     H 3675   4.535   8.120   6.008  1.3759 -0.7771  1.0679
  768MOL0     H 3676   4.127   8.189   6.114 -0.6594 -2.7619  1.1467
  768MOL0     H 3677   4.343   7.495   5.897 -0.3951  1.1751 -0.1795
  768MOL0     H 3678   4.571   7.278   6.049  1.7830 -4.0272 -1.9870
  768MOL0     H 3679   4.408   7.356   6.048 -2.1513 -1.5002 -1.8871
  768MOL0     H 3680   4.428   7.206   5.965 -2.3474  2.1175  0.0991
  769MOL0     O 3681   6.701   6.432   2.968 -0.2027 -0.5074 -0.0510
  769MOL0     C 3682   6.639   6.326   2.971  0.1968  0.1970 -0.6801
  769MOL0     O 3683   6.678   6.209   2.915  0.2650  0.1877  1.2084
  769MOL0     C 3684   6.797   6.202   2.843  0.7131 -0.0822 -0.5497
  769MOL0     C 3685   6.805   6.232   2.712 -1.0146 -0.3109  0.0277
  769MOL0     C 3686   6.926   6.200   2.647  0.2514 -0.0889 -0.1102
  769MOL0     C 3687   7.039   6.142   2.711  0.5025  0.2801 -0.0073
  769MOL0     O 3688   7.160   6.098   2.653 -0.1911 -0.0793 -0.5847
  769MOL0     C 3689   7.182   6.088   2.510 -0.0539  0.3090 -0.4166
  769MOL0     C 3690   7.289   5.982   2.495  0.1128 -0.9714 -0.4562
  769MOL0     C 3691   7.418   6.038   2.557  0.4042  0.1546  0.9455
  769MOL0     C 3692   7.535   5.950   2.516  0.4636 -0.4593 -0.9915
  769MOL0     C 3693   7.671   5.984   2.591 -0.0408  0.0593 -0.2909
  769MOL0     C 3694   7.771   5.883   2.536  0.4540 -0.6578 -0.4443
  769MOL0     C 3695   7.912   5.912   2.578 -0.4345  0.0442  0.5066
  769MOL0     C 3696   7.998   5.802   2.529 -0.8574 -0.1638  0.5271
  769MOL0     N 3697   8.052   5.820   2.392  0.0148 -0.2447  0.1683
  769MOL0     C 3698   8.176   5.875   2.363 -0.3791  0.7689  0.1680
  769MOL0     C 3699   8.175   5.888   2.225  0.6908  0.4967  0.3429
  769MOL0     C 3700   8.299   5.940   2.156 -0.2840  0.8255  0.0337
  769MOL0     C 3701   8.415   5.845   2.181 -1.0497 -0.9351  0.0908
  769MOL0     C 3702   8.534   5.885   2.095 -0.1005 -0.2394  0.0965
  769MOL0     C 3703   8.655   5.798   2.134  0.1439 -0.6340  0.1705
  769MOL0     O 3704   8.704   5.798   2.270  0.2556  0.6816  0.2972
  769MOL0     C 3705   8.805   5.703   2.301  0.0010  0.1406 -0.6302
  769MOL0     C 3706   8.903   5.669   2.209  0.0624 -0.0332  0.1375
  769MOL0     C 3707   9.007   5.577   2.254 -0.2646 -1.0196  0.0438
  769MOL0     C 3708   9.007   5.544   2.386  0.0183  0.2275 -0.7478
  769MOL0     C 3709   9.118   5.446   2.429  0.6911 -0.1650  0.1217
  769MOL0     O 3710   9.207   5.422   2.331  0.3782 -0.6875 -0.2874
  769MOL0     C 3711   9.260   5.292   2.321  0.0017 -0.2785  0.0810
  769MOL0     C 3712   9.392   5.286   2.275  0.5852 -0.1175  0.2775
  769MOL0     C 3713   9.446   5.166   2.232  0.0713 -1.3686  0.0500
  769MOL0     C 3714   9.377   5.045   2.262 -0.4062  0.1712 -0.1323
  769MOL0     O 3715   9.454   4.931   2.250 -0.4360  0.2654 -0.0060
  769MOL0     C 3716   9.415   4.803   2.310 -0.0259 -0.2270  0.6486
  769MOL0     C 3717   9.496   4.679   2.257 -0.1152 -0.6730 -0.5158
  769MOL0     C 3718   9.650   4.679   2.284  0.6241 -0.1056  0.1693
  769MOL0     C 3719   9.729   4.794   2.224  0.9790 -0.3656 -0.2254
  769MOL0     C 3720   9.881   4.768   2.216  0.5327 -0.5419  0.3357
  769MOL0     C 3721   9.962   4.896   2.180 -0.2780 -0.5598 -0.2881
  769MOL0     C 3722  10.111   4.861   2.161 -0.2284  1.0326 -0.3510
  769MOL0     C 3723  10.157   4.831   2.018  0.6838 -0.0218 -0.7381
  769MOL0    Cl 3724  10.150   4.985   1.922  0.4000 -0.2592 -0.1172
  769MOL0     C 3725   9.249   5.052   2.319 -0.0372  0.1861 -0.9453
  769MOL0     C 3726   9.186   5.176   2.336  0.1597  0.0805 -0.3251
  769MOL0     O 3727   9.104   5.390   2.535  0.2945  0.1012  0.7703
  769MOL0     C 3728   8.902   5.571   2.474 -0.3933 -0.0152  0.1820
  769MOL0     C 3729   8.801   5.652   2.432  0.2787 -0.3896  0.0537
  769MOL0     N 3730   8.056   5.846   2.178 -0.0208 -0.4700 -0.1762
  769MOL0     N 3731   7.979   5.808   2.277  0.0492 -0.2771  0.1041
  769MOL0     C 3732   7.028   6.124   2.848 -0.1366  0.3182  0.6627
  769MOL0     C 3733   6.905   6.158   2.913 -0.6500  0.2179 -0.0540
  769MOL0     C 3734   6.510   6.331   3.033 -0.1825  0.3930  0.1113
  769MOL0     C 3735   6.437   6.448   3.020 -0.6978  0.3710  0.6444
  769MOL0     C 3736   6.314   6.459   3.074  0.5737  0.4945  0.1689
  769MOL0     C 3737   6.246   6.355   3.144 -0.2130 -0.4658  0.0559
  769MOL0     O 3738   6.123   6.373   3.203 -0.1107  0.1536 -0.7210
  769MOL0     C 3739   6.035   6.255   3.207 -0.0513 -0.5562  0.4236
  769MOL0     C 3740   5.897   6.307   3.159 -0.3500  0.1122  0.1391
  769MOL0     C 3741   5.908   6.373   3.015  0.0464  0.1603 -0.3483
  769MOL0     C 3742   5.902   6.271   2.899 -0.0390 -0.1167 -0.1521
  769MOL0     C 3743   6.034   6.264   2.826  0.3470  0.5206  0.6939
  769MOL0     C 3744   6.147   6.280   2.774  0.5288 -0.4028  0.6077
  769MOL0     C 3745   6.316   6.234   3.155 -0.8765 -0.8990 -0.1734
  769MOL0     C 3746   6.445   6.220   3.101  1.2502 -0.8409  0.2564
  769MOL0     C 3747   6.504   6.083   3.110 -0.1791 -0.6397 -0.3191
  769MOL0     H 3748   6.722   6.274   2.656 -1.0032 -1.7278 -1.1153
  769MOL0     H 3749   6.949   6.216   2.542  2.3709 -2.0642 -0.0291
  769MOL0     H 3750   7.088   6.052   2.466 -0.8516  1.5605  0.2297
  769MOL0     H 3751   7.219   6.166   2.443 -1.2499  1.7134  0.5193
  769MOL0     H 3752   7.312   5.967   2.389  0.7243 -0.9597 -0.3310
  769MOL0     H 3753   7.253   5.888   2.538 -0.2614 -0.7731 -0.3323
  769MOL0     H 3754   7.413   6.044   2.666 -2.1911  1.3366  0.8422
  769MOL0     H 3755   7.426   6.137   2.512 -0.8839 -0.2977 -0.3606
  769MOL0     H 3756   7.510   5.845   2.532 -1.2254  0.0102 -0.3756
  769MOL0     H 3757   7.561   5.970   2.411  2.4093  0.5448 -0.3693
  769MOL0     H 3758   7.696   6.089   2.575 -0.6929  0.5035  1.4671
  769MOL0     H 3759   7.666   5.971   2.699  0.4671  2.5751  0.1046
  769MOL0     H 3760   7.740   5.782   2.565 -0.8654 -0.1237  0.0966
  769MOL0     H 3761   7.776   5.885   2.427  1.0178 -0.8557 -0.4245
  769MOL0     H 3762   7.931   5.945   2.681  3.0596  0.2845 -0.0747
  769MOL0     H 3763   7.940   5.997   2.515  0.8139 -0.1393  0.7777
  769MOL0     H 3764   8.088   5.788   2.588 -0.7780 -4.5202 -0.2927
  769MOL0     H 3765   7.958   5.701   2.540 -2.4136  0.6580  3.7956
  769MOL0     H 3766   8.265   5.891   2.423  1.1571  0.6662 -1.9711
  769MOL0     H 3767   8.281   5.952   2.049 -2.1381 -1.1965  0.0375
  769MOL0     H 3768   8.322   6.035   2.204 -3.5219 -0.6017  5.3220
  769MOL0     H 3769   8.438   5.863   2.287 -2.0565 -0.2484  0.2080
  769MOL0     H 3770   8.393   5.739   2.166 -0.5393 -1.1851  0.9806
  769MOL0     H 3771   8.567   5.988   2.113 -1.0970 -0.1785  1.8210
  769MOL0     H 3772   8.511   5.875   1.989 -1.6063 -2.6660  0.5864
  769MOL0     H 3773   8.727   5.846   2.067 -0.6817  0.1620 -0.1687
  769MOL0     H 3774   8.646   5.697   2.093 -1.2226 -0.4094 -0.1340
  769MOL0     H 3775   8.895   5.712   2.109 -0.4466  1.8535  0.9458
  769MOL0     H 3776   9.084   5.555   2.181 -0.6260 -0.3836 -0.5449
  769MOL0     H 3777   9.451   5.376   2.265  0.2228 -0.1227 -2.4921
  769MOL0     H 3778   9.543   5.168   2.184  1.0061 -1.8048  1.8170
  769MOL0     H 3779   9.431   4.810   2.418 -0.0209  2.8810  0.5536
  769MOL0     H 3780   9.312   4.775   2.288  0.1238  0.3283 -0.8227
  769MOL0     H 3781   9.455   4.584   2.292  3.0769 -2.1021 -0.3914
  769MOL0     H 3782   9.470   4.676   2.151 -1.1420  1.4987 -0.4014
  769MOL0     H 3783   9.679   4.672   2.389  0.8282 -0.5081  0.0883
  769MOL0     H 3784   9.694   4.592   2.234  0.2272 -0.4059  0.3386
  769MOL0     H 3785   9.725   4.882   2.288  2.6828  0.7825 -1.6104
  769MOL0     H 3786   9.689   4.820   2.125 -0.4651 -0.8784  0.1908
  769MOL0     H 3787   9.896   4.687   2.144  3.1611 -0.6326  0.8967
  769MOL0     H 3788   9.915   4.729   2.312 -0.4906  0.7499  1.2633
  769MOL0     H 3789   9.923   4.953   2.094 -0.8604  2.3031  1.7181
  769MOL0     H 3790   9.961   4.960   2.269  0.2366 -0.9237 -0.0182
  769MOL0     H 3791  10.137   4.790   2.240  0.0140 -0.5431 -1.7662
  769MOL0     H 3792  10.164   4.953   2.185  2.1770 -0.2852 -0.2442
  769MOL0     H 3793  10.262   4.801   2.031 -0.2036 -2.3303  2.4351
  769MOL0     H 3794  10.102   4.749   1.971  0.9783 -1.0272  0.6044
  769MOL0     H 3795   9.188   4.964   2.335 -0.4157  0.8063  1.3857
  769MOL0     H 3796   9.084   5.186   2.371 -0.5818  2.7603 -2.8360
  769MOL0     H 3797   8.906   5.548   2.580  0.3634  2.3290  0.7248
  769MOL0     H 3798   8.724   5.686   2.501  0.1817 -3.0304  1.3746
  769MOL0     H 3799   7.111   6.075   2.898 -0.2836 -0.2847  0.3257
  769MOL0     H 3800   6.904   6.137   3.020  1.0457 -1.2400 -0.2837
  769MOL0     H 3801   6.474   6.540   2.976  1.3837 -0.6372  0.1709
  769MOL0     H 3802   6.264   6.555   3.061  0.3903  0.5230  1.0728
  769MOL0     H 3803   6.027   6.213   3.308  1.6467  1.4363  1.4598
  769MOL0     H 3804   6.080   6.185   3.137  0.7312  0.9437 -0.6312
  769MOL0     H 3805   5.860   6.370   3.240 -1.8689 -1.3914  0.6693
  769MOL0     H 3806   5.827   6.224   3.147 -0.1624 -0.0442  0.1292
  769MOL0     H 3807   5.995   6.439   3.003 -0.2456  0.3684 -1.5293
  769MOL0     H 3808   5.818   6.435   3.006 -0.1778 -0.2293 -0.8593
  769MOL0     H 3809   5.873   6.172   2.936 -1.3837 -0.1495 -1.2195
  769MOL0     H 3810   5.822   6.301   2.830 -0.4678  0.6217  0.6458
  769MOL0     H 3811   6.242   6.285   2.726 -0.8175  1.9193 -2.1120
  769MOL0     H 3812   6.268   6.158   3.216 -3.3555  0.4453 -0.3016
  769MOL0     H 3813   6.444   6.023   3.178 -0.2966  0.0582  0.2049
  769MOL0     H 3814   6.511   6.018   3.022 -1.3749 -3.4275  1.5217
  769MOL0     H 3815   6.605   6.101   3.147 -0.0147 -1.9439 -0.0931
  770MOL0     O 3816   7.481   4.245   6.022  0.4576 -0.0046 -0.5860
  770MOL0     C 3817   7.435   4.359   6.029  0.0726  0.0249 -0.8143
  770MOL0     O 3818   7.470   4.472   5.951  0.1222 -0.3490  0.4619
  770MOL0     C 3819   7.582   4.479   5.874  0.6162 -0.7535 -0.0225
  770MOL0     C 3820   7.693   4.392   5.884 -0.9169 -0.2795  0.1598
  770MOL0     C 3821   7.799   4.417   5.801  0.2932  0.1793 -1.2656
  770MOL0     C 3822   7.809   4.531   5.723  0.1695  0.2119  0.3553
  770MOL0     O 3823   7.924   4.568   5.654  0.8175 -0.0191  0.0830
  770MOL0     C 3824   8.046   4.493   5.684 -0.8793  1.3458 -0.5871
  770MOL0     C 3825   8.167   4.529   5.593 -0.0004  0.1019 -0.4049
  770MOL0     C 3826   8.279   4.425   5.597 -0.0465  0.1656  0.3881
  770MOL0     C 3827   8.410   4.466   5.519  1.0845  0.0114  0.7230
  770MOL0     C 3828   8.509   4.355   5.512 -0.2871 -0.6940 -1.2785
  770MOL0     C 3829   8.638   4.404   5.441 -0.6104  0.4597 -0.1411
  770MOL0     C 3830   8.747   4.294   5.428 -0.0379  0.1532 -0.1874
  770MOL0     C 3831   8.891   4.344   5.447  0.5360  0.0665 -0.0658
  770MOL0     N 3832   8.996   4.249   5.423 -0.4935 -0.6071 -0.0755
  770MOL0     C 3833   9.103   4.234   5.512 -0.3347  0.5404 -0.4178
  770MOL0     C 3834   9.172   4.134   5.460  0.3706  0.3406  0.1413
  770MOL0     C 3835   9.299   4.087   5.500  0.5272 -0.0715 -0.0136
  770MOL0     C 3836   9.422   4.161   5.448  0.2963 -0.6870 -0.4879
  770MOL0     C 3837   9.551   4.078   5.471  0.2567 -0.0631 -1.0861
  770MOL0     C 3838   9.679   4.145   5.431 -0.4837 -0.3382  0.5172
  770MOL0     O 3839   9.781   4.060   5.487 -0.2906  0.1973  0.9535
  770MOL0     C 3840   9.908   4.110   5.491 -0.7516  0.0017 -0.6517
  770MOL0     C 3841  10.010   4.029   5.556 -0.3299  1.5455  0.7061
  770MOL0     C 3842  10.145   4.062   5.535  0.1395  0.8104  0.6067
  770MOL0     C 3843  10.193   4.187   5.485 -0.5251  0.1679  1.0602
  770MOL0     C 3844  10.342   4.213   5.465  0.6476  0.8445  0.9070
  770MOL0     O 3845  10.422   4.152   5.543 -0.3531  0.0415 -0.4912
  770MOL0     C 3846  10.560   4.156   5.525  0.5672 -0.9303  0.0804
  770MOL0     C 3847  10.628   4.276   5.527 -0.5405  0.3975 -0.5495
  770MOL0     C 3848  10.771   4.266   5.502 -0.6433  0.5023  0.0257
  770MOL0     C 3849  10.833   4.141   5.482 -0.2066 -0.4347  0.1225
  770MOL0     O 3850  10.969   4.140   5.449  0.2164  0.5178 -0.9564
  770MOL0     C 3851  11.059   4.232   5.508 -0.2576 -0.8504 -0.4875
  770MOL0     C 3852  11.189   4.166   5.529 -0.6568 -0.3405 -0.1226
  770MOL0     C 3853  11.288   4.248   5.615  0.6122 -1.1130 -0.3171
  770MOL0     C 3854  11.439   4.206   5.580 -0.1114 -0.1682 -0.2405
  770MOL0     C 3855  11.532   4.328   5.587  0.5909  1.2237 -0.3815
  770MOL0     C 3856  11.528   4.409   5.454 -0.2766  0.0710 -0.5460
  770MOL0     C 3857  11.403   4.486   5.425  0.3727 -0.2147  0.1984
  770MOL0     C 3858  11.417   4.600   5.322  0.0159  0.4166 -0.2516
  770MOL0    Cl 3859  11.540   4.562   5.188  0.1490 -0.2305 -0.1879
  770MOL0     C 3860  10.758   4.024   5.485  0.5785 -1.0295  0.1417
  770MOL0     C 3861  10.619   4.034   5.508 -1.2325  0.3391  0.1225
  770MOL0     O 3862  10.363   4.306   5.395 -0.0834  0.1415  1.0536
  770MOL0     C 3863  10.087   4.269   5.430  0.0912 -0.0780 -0.0835
  770MOL0     C 3864   9.955   4.230   5.432 -0.2800  1.0656 -0.5185
  770MOL0     N 3865   9.107   4.089   5.346 -0.3803  0.3100  0.3903
  770MOL0     N 3866   9.009   4.170   5.321 -0.0071 -0.3808  0.6408
  770MOL0     C 3867   7.708   4.625   5.726  0.0295  0.0138 -0.1031
  770MOL0     C 3868   7.593   4.599   5.799  0.3004 -0.1208  0.3836
  770MOL0     C 3869   7.337   4.380   6.131 -0.0790  0.7362 -0.1364
  770MOL0     C 3870   7.344   4.305   6.245 -0.0334 -0.5370  0.2018
  770MOL0     C 3871   7.250   4.325   6.353 -0.4570  0.5829 -0.8394
  770MOL0     C 3872   7.142   4.415   6.341  0.0405  0.3379 -0.1009
  770MOL0     O 3873   7.051   4.416   6.441  0.8384  0.3809 -0.4320
  770MOL0     C 3874   7.105   4.464   6.559 -0.4791 -0.3996 -1.0623
  770MOL0     C 3875   7.006   4.566   6.626 -0.0759 -0.0975 -0.7276
  770MOL0     C 3876   6.987   4.697   6.539 -0.2840  0.0517  0.1444
  770MOL0     C 3877   6.881   4.793   6.600 -0.6814 -0.2792 -0.8940
  770MOL0     C 3878   6.885   4.919   6.520 -1.3272  0.0756  0.9265
  770MOL0     C 3879   6.907   5.017   6.449 -0.2355  0.0042  0.2533
  770MOL0     C 3880   7.129   4.486   6.225  0.6563  0.5917  0.2107
  770MOL0     C 3881   7.220   4.469   6.117  0.6365  0.4850 -0.2795
  770MOL0     C 3882   7.189   4.550   5.997  0.1783 -0.2982 -0.2722
  770MOL0     H 3883   7.684   4.308   5.952 -1.2433  1.0358  1.8033
  770MOL0     H 3884   7.891   4.361   5.813 -0.0363 -0.1785 -0.3358
  770MOL0     H 3885   8.073   4.506   5.790 -1.2403 -1.8521 -0.0108
  770MOL0     H 3886   8.029   4.388   5.661  1.6926  1.4209 -3.3919
  770MOL0     H 3887   8.222   4.621   5.612  1.6245 -0.3989 -2.3620
  770MOL0     H 3888   8.134   4.531   5.489  1.7100 -2.7867 -1.1303
  770MOL0     H 3889   8.224   4.336   5.565 -3.7758  2.4537 -0.1326
  770MOL0     H 3890   8.308   4.417   5.702 -2.5619  0.1028  1.1421
  770MOL0     H 3891   8.376   4.489   5.417  0.2049 -0.8332  0.8103
  770MOL0     H 3892   8.456   4.550   5.572  0.9708 -0.8234  2.1976
  770MOL0     H 3893   8.525   4.331   5.617  0.2768 -3.2265 -1.8953
  770MOL0     H 3894   8.453   4.277   5.460 -0.3542  0.2571 -2.7040
  770MOL0     H 3895   8.615   4.446   5.343  0.1618 -2.8301 -1.9112
  770MOL0     H 3896   8.685   4.482   5.501  0.5943 -0.8747  0.7041
  770MOL0     H 3897   8.745   4.241   5.333  1.3812 -1.2043  0.4883
  770MOL0     H 3898   8.730   4.212   5.498 -2.1098 -1.0227 -1.9527
  770MOL0     H 3899   8.904   4.426   5.375  2.2244 -1.4506 -1.6006
  770MOL0     H 3900   8.893   4.371   5.553 -3.3944 -2.2059  0.7551
  770MOL0     H 3901   9.119   4.280   5.609  1.0579 -0.0264 -0.3539
  770MOL0     H 3902   9.296   4.091   5.609  0.8212 -0.3095  0.0039
  770MOL0     H 3903   9.304   3.983   5.467 -0.2523  0.1085 -0.7495
  770MOL0     H 3904   9.418   4.176   5.340  1.3181  0.4986 -0.3826
  770MOL0     H 3905   9.431   4.259   5.496 -0.1656 -1.5051  1.3695
  770MOL0     H 3906   9.543   3.977   5.430 -0.2642 -0.3196 -0.3677
  770MOL0     H 3907   9.558   4.072   5.580  2.3541  1.5051 -1.0425
  770MOL0     H 3908   9.682   4.248   5.468 -0.7515 -0.8595  2.0631
  770MOL0     H 3909   9.683   4.157   5.323 -2.8496  1.0591  0.5245
  770MOL0     H 3910   9.980   3.936   5.603 -0.4753  0.6643 -1.0482
  770MOL0     H 3911  10.217   3.984   5.559  1.4326  2.5284  2.6736
  770MOL0     H 3912  10.589   4.376   5.541  0.1041  0.5084  0.6187
  770MOL0     H 3913  10.823   4.361   5.509 -0.5675  0.4012  0.9842
  770MOL0     H 3914  11.074   4.324   5.451 -1.7710 -0.0930  0.2640
  770MOL0     H 3915  11.013   4.271   5.600 -0.7842  1.3154 -1.5841
  770MOL0     H 3916  11.175   4.073   5.587  1.0173  0.4469  1.7022
  770MOL0     H 3917  11.237   4.148   5.432 -2.7316  1.1366 -1.4869
  770MOL0     H 3918  11.263   4.353   5.598 -0.8638 -1.0813  1.6436
  770MOL0     H 3919  11.273   4.226   5.721 -2.1743 -1.2439 -0.6541
  770MOL0     H 3920  11.451   4.155   5.484 -0.6065 -0.4498 -0.1551
  770MOL0     H 3921  11.469   4.138   5.660  2.8218 -1.9510 -2.6548
  770MOL0     H 3922  11.634   4.291   5.589 -0.2633 -1.3223  1.8038
  770MOL0     H 3923  11.518   4.388   5.677  2.6860  0.1676  0.7032
  770MOL0     H 3924  11.614   4.478   5.451 -0.2401  0.0528  0.0092
  770MOL0     H 3925  11.539   4.327   5.382  1.4725 -1.2556  1.1336
  770MOL0     H 3926  11.361   4.516   5.522 -1.5718 -2.3289  0.0752
  770MOL0     H 3927  11.331   4.419   5.377  0.3204 -0.6037  0.8086
  770MOL0     H 3928  11.316   4.611   5.282 -0.6889  1.3234  1.6557
  770MOL0     H 3929  11.441   4.691   5.379  0.8707  0.2437 -0.3160
  770MOL0     H 3930  10.800   3.924   5.475  0.5324 -0.8899 -1.9575
  770MOL0     H 3931  10.576   3.935   5.521  2.4975 -1.4097  0.6320
  770MOL0     H 3932  10.118   4.363   5.384 -0.8302  0.2115 -0.1393
  770MOL0     H 3933   9.894   4.297   5.371 -0.5690  2.4068  1.1736
  770MOL0     H 3934   7.731   4.712   5.665  1.1600 -0.2608 -0.0892
  770MOL0     H 3935   7.511   4.670   5.796  0.9976  0.6545 -1.1082
  770MOL0     H 3936   7.421   4.229   6.254  0.8020  0.0193 -1.7447
  770MOL0     H 3937   7.251   4.268   6.446 -1.1823  0.1081 -1.1153
  770MOL0     H 3938   7.203   4.509   6.541 -0.1447 -0.6887 -0.0513
  770MOL0     H 3939   7.117   4.385   6.634  1.4951  1.6133  0.9046
  770MOL0     H 3940   7.048   4.594   6.723  0.1093  1.7747 -1.3182
  770MOL0     H 3941   6.914   4.508   6.637  0.5401 -0.8825  0.5460
  770MOL0     H 3942   6.961   4.666   6.438  0.6979 -1.9606  0.4708
  770MOL0     H 3943   7.085   4.746   6.535  0.4830 -1.4297  0.1318
  770MOL0     H 3944   6.784   4.741   6.596 -0.2736 -0.9960 -1.8349
  770MOL0     H 3945   6.898   4.821   6.704  1.7529  0.3913 -1.4185
  770MOL0     H 3946   6.932   5.108   6.398  3.9585  0.8057  3.1164
  770MOL0     H 3947   7.050   4.561   6.217  1.9473  1.9083 -0.5256
  770MOL0     H 3948   7.211   4.653   6.026 -2.2185  0.5321 -1.1550
  770MOL0     H 3949   7.246   4.516   5.910  3.0466  0.0790  1.3519
  770MOL0     H 3950   7.084   4.529   5.976  0.5204 -0.9749 -1.3625
  771MOL0     O 3951   5.536   7.947   0.159  0.3704  0.7173  0.3346
  771MOL0     C 3952   5.483   8.041   0.217 -0.4919  0.8193 -0.6206
  771MOL0     O 3953   5.535   8.093   0.339  0.7625  0.2616 -0.3576
  771MOL0     C 3954   5.649   8.036   0.382  0.2674  0.1949 -0.1903
  771MOL0     C 3955   5.643   7.916   0.457 -0.3287  0.4877  0.0997
  771MOL0     C 3956   5.763   7.849   0.500 -0.3362 -0.1477  0.5395
  771MOL0     C 3957   5.887   7.923   0.491 -0.4956  0.1043  0.4154
  771MOL0     O 3958   5.998   7.872   0.562 -0.4558  0.3500 -0.1173
  771MOL0     C 3959   6.129   7.923   0.514 -0.1092  0.9119  0.0333
  771MOL0     C 3960   6.239   7.858   0.598 -0.0148 -0.6992  0.1341
  771MOL0     C 3961   6.375   7.897   0.550 -0.8188 -0.6953  0.1782
  771MOL0     C 3962   6.479   7.852   0.656  0.1751 -0.5452  0.2413
  771MOL0     C 3963   6.620   7.915   0.636 -1.0026  0.7111 -0.0164
  771MOL0     C 3964   6.718   7.856   0.746  0.1345 -0.2868 -0.0444
  771MOL0     C 3965   6.863   7.905   0.746 -0.4381 -0.1203  0.2256
  771MOL0     C 3966   6.940   7.880   0.615 -0.2207 -0.1276  0.1654
  771MOL0     N 3967   7.076   7.931   0.622 -0.6114  0.3659  0.6628
  771MOL0     C 3968   7.126   8.022   0.536 -0.6920  1.1969 -0.0012
  771MOL0     C 3969   7.262   8.027   0.563 -0.2146  0.0039  0.0987
  771MOL0     C 3970   7.349   8.112   0.482 -0.4187 -0.2774 -0.2975
  771MOL0     C 3971   7.457   8.186   0.573 -0.3811 -0.1418  0.0270
  771MOL0     C 3972   7.403   8.313   0.635  0.4716 -0.5795  1.2058
  771MOL0     C 3973   7.496   8.396   0.723 -0.7377 -0.3669  0.1905
  771MOL0     O 3974   7.437   8.512   0.782 -0.4562 -0.4718  0.7873
  771MOL0     C 3975   7.526   8.619   0.808  0.4611  0.3551 -0.2326
  771MOL0     C 3976   7.473   8.743   0.842 -0.3541 -0.0564  0.6704
  771MOL0     C 3977   7.549   8.845   0.896 -0.3865  0.2979  0.8622
  771MOL0     C 3978   7.689   8.831   0.912 -0.6410  0.8497 -0.5752
  771MOL0     C 3979   7.777   8.937   0.961  0.2407 -0.7005  0.3361
  771MOL0     O 3980   7.712   9.034   1.030 -0.0953  0.7094  0.0821
  771MOL0     C 3981   7.768   9.152   1.066 -0.0965 -0.2864 -0.1980
  771MOL0     C 3982   7.843   9.167   1.183  0.4806 -0.5115 -0.4107
  771MOL0     C 3983   7.916   9.287   1.209  0.1976  0.5383 -0.0491
  771MOL0     C 3984   7.898   9.394   1.116  0.3695 -0.1839 -1.3773
  771MOL0     O 3985   7.967   9.513   1.157  0.2966 -0.1676 -0.5201
  771MOL0     C 3986   7.994   9.603   1.052  0.0069 -1.2781  0.3605
  771MOL0     C 3987   8.100   9.706   1.080  0.0308  0.9658  0.0686
  771MOL0     C 3988   8.111   9.798   0.955 -0.2162 -0.2773 -0.4553
  771MOL0     C 3989   8.220   9.907   0.988 -0.6147  0.6880  0.6200
  771MOL0     C 3990   8.270   9.978   0.859 -0.2337 -0.8759 -0.0836
  771MOL0     C 3991   8.194  10.096   0.820  0.1815  0.3776  0.5568
  771MOL0     C 3992   8.254  10.175   0.705  0.6835 -0.6102  0.6188
  771MOL0     C 3993   8.144  10.265   0.649  0.4549  0.0500 -0.0407
  771MOL0    Cl 3994   8.200  10.347   0.501 -0.0475 -0.2776  0.1128
  771MOL0     C 3995   7.819   9.380   1.003  0.0915  0.1934 -0.2418
  771MOL0     C 3996   7.754   9.256   0.979 -0.3643 -0.4789 -0.3204
  771MOL0     O 3997   7.899   8.934   0.940 -0.0449  1.1015 -0.0195
  771MOL0     C 3998   7.742   8.707   0.878 -0.8975  0.8340 -0.3863
  771MOL0     C 3999   7.668   8.608   0.825 -0.0713  0.5591 -0.2095
  771MOL0     N 4000   7.299   7.942   0.670 -0.4643 -0.1420  0.4895
  771MOL0     N 4001   7.181   7.881   0.695 -0.0510  0.0563 -0.0566
  771MOL0     C 4002   5.890   8.039   0.414 -0.3150 -0.1402  0.6085
  771MOL0     C 4003   5.769   8.097   0.368 -0.5856 -0.0556  0.9758
  771MOL0     C 4004   5.370   8.117   0.156  0.3245  0.1064 -1.0274
  771MOL0     C 4005   5.295   8.199   0.235  0.1284  0.5430 -0.3501
  771MOL0     C 4006   5.190   8.269   0.181 -0.8644 -0.5618  0.0055
  771MOL0     C 4007   5.144   8.256   0.054  0.3612  0.6325 -0.5164
  771MOL0     O 4008   5.035   8.319   0.006 -0.1489 -0.2558 -0.2777
  771MOL0     C 4009   4.933   8.372   0.087  0.0021 -0.8912  0.3083
  771MOL0     C 4010   4.821   8.392  -0.013  0.3481  0.1780 -0.6156
  771MOL0     C 4011   4.684   8.415   0.051 -0.9880  0.7500  1.0427
  771MOL0     C 4012   4.653   8.562   0.058  0.1334 -0.8102 -0.1243
  771MOL0     C 4013   4.501   8.580   0.052 -0.4468 -0.1156 -0.0294
  771MOL0     C 4014   4.379   8.581   0.043  0.5786 -0.3071 -0.4486
  771MOL0     C 4015   5.220   8.180  -0.029 -0.1579 -0.2762  0.3847
  771MOL0     C 4016   5.337   8.113   0.018 -0.3288  0.2586 -0.3083
  771MOL0     C 4017   5.425   8.045  -0.081 -0.0781  0.1159 -0.0866
  771MOL0     H 4018   5.544   7.873   0.472  0.3868 -0.7343  1.6657
  771MOL0     H 4019   5.758   7.752   0.549  0.1321  0.2033  1.3074
  771MOL0     H 4020   6.151   7.914   0.407  0.0783  1.0599  0.0589
  771MOL0     H 4021   6.145   8.028   0.539  2.1779  0.3851  1.0111
  771MOL0     H 4022   6.238   7.749   0.591 -0.7868 -0.7341  0.6366
  771MOL0     H 4023   6.219   7.889   0.701  1.5731  0.1913  0.2065
  771MOL0     H 4024   6.395   8.005   0.546 -0.1073 -0.8435 -0.6989
  771MOL0     H 4025   6.387   7.852   0.451  1.5676 -0.3972  0.2669
  771MOL0     H 4026   6.450   7.878   0.759  1.2774 -2.5644  1.1172
  771MOL0     H 4027   6.480   7.742   0.659  1.2562 -0.5214  2.1194
  771MOL0     H 4028   6.649   7.880   0.537 -1.1020 -0.2533  0.2853
  771MOL0     H 4029   6.613   8.024   0.643 -0.5604  0.6501  1.9434
  771MOL0     H 4030   6.680   7.872   0.848 -1.8126 -1.0530 -0.5995
  771MOL0     H 4031   6.719   7.747   0.740 -0.6343 -0.2870 -0.2127
  771MOL0     H 4032   6.924   7.855   0.823  0.7914 -0.4678 -0.9371
  771MOL0     H 4033   6.866   8.013   0.764 -0.2356 -0.3394  1.6414
  771MOL0     H 4034   6.948   7.771   0.601 -0.7855 -0.1155 -0.3032
  771MOL0     H 4035   6.886   7.920   0.529  0.4088  1.2214  0.3824
  771MOL0     H 4036   7.076   8.075   0.456  3.1233  3.2757 -1.2766
  771MOL0     H 4037   7.397   8.054   0.403 -0.3921  0.3075 -0.7160
  771MOL0     H 4038   7.285   8.186   0.432 -1.2316 -0.9218 -0.2198
  771MOL0     H 4039   7.507   8.125   0.649  0.4892  2.8659  2.0243
  771MOL0     H 4040   7.537   8.213   0.503  1.5288 -3.9431  0.4453
  771MOL0     H 4041   7.311   8.284   0.686  0.5405  0.1695  1.7652
  771MOL0     H 4042   7.374   8.379   0.553 -0.6686  0.4026  2.3580
  771MOL0     H 4043   7.583   8.427   0.666  0.1565  2.7075  2.8976
  771MOL0     H 4044   7.529   8.343   0.813 -0.1908  1.9519  1.4294
  771MOL0     H 4045   7.370   8.757   0.810  0.1842  2.3203 -0.1937
  771MOL0     H 4046   7.505   8.938   0.929 -0.9839  0.8561 -1.3570
  771MOL0     H 4047   7.855   9.084   1.251  0.2784 -1.9874 -2.0970
  771MOL0     H 4048   7.980   9.300   1.295  0.3075  2.0769 -0.3372
  771MOL0     H 4049   8.019   9.549   0.960 -0.0910 -0.4969 -0.1412
  771MOL0     H 4050   7.902   9.655   1.024  0.5725 -0.4076  0.0390
  771MOL0     H 4051   8.085   9.769   1.168  1.8594  0.0632  1.1039
  771MOL0     H 4052   8.190   9.647   1.104  0.6922  1.5286 -0.9363
  771MOL0     H 4053   8.141   9.739   0.868  1.2232 -0.3568  0.0661
  771MOL0     H 4054   8.019   9.857   0.946  0.5639  0.9518 -0.6628
  771MOL0     H 4055   8.297   9.856   1.047 -0.4421 -1.3781 -1.2811
  771MOL0     H 4056   8.188   9.983   1.060 -3.2529  0.0188  0.2367
  771MOL0     H 4057   8.278   9.901   0.782  0.9040  0.2142 -1.1132
  771MOL0     H 4058   8.374  10.011   0.873  0.2609 -2.0814 -0.8335
  771MOL0     H 4059   8.096  10.060   0.788 -0.3162 -1.4901  3.7712
  771MOL0     H 4060   8.178  10.161   0.906  2.6260  0.9641  0.6357
  771MOL0     H 4061   8.286  10.104   0.628 -0.0177 -1.1339  0.7986
  771MOL0     H 4062   8.348  10.226   0.727  0.7810  0.2151 -1.4275
  771MOL0     H 4063   8.055  10.204   0.630 -0.7698  1.4136  1.1249
  771MOL0     H 4064   8.125  10.329   0.735  0.2994  0.2011 -0.1867
  771MOL0     H 4065   7.804   9.458   0.930  1.6301  0.0273 -0.7663
  771MOL0     H 4066   7.698   9.240   0.888  0.1836 -0.7716 -0.6119
  771MOL0     H 4067   7.843   8.682   0.912 -0.2371  1.4520 -1.8274
  771MOL0     H 4068   7.716   8.511   0.812  0.8274  1.1595 -1.6198
  771MOL0     H 4069   5.983   8.092   0.394 -2.2173  3.1688 -0.1035
  771MOL0     H 4070   5.779   8.186   0.306  0.3876 -0.2284  0.8693
  771MOL0     H 4071   5.317   8.204   0.341  2.0253 -3.6330 -0.3563
  771MOL0     H 4072   5.130   8.327   0.251  0.9154 -1.1038  2.0835
  771MOL0     H 4073   4.962   8.468   0.130  0.2480 -1.2579  0.9751
  771MOL0     H 4074   4.899   8.304   0.166 -4.6501 -1.8978 -2.2121
  771MOL0     H 4075   4.808   8.299  -0.069 -1.7014 -0.1266  0.2591
  771MOL0     H 4076   4.841   8.463  -0.094  2.8347 -0.5229 -0.6812
  771MOL0     H 4077   4.673   8.351   0.139 -0.2575 -1.6687 -0.5178
  771MOL0     H 4078   4.614   8.367  -0.018  0.3583  1.4690 -0.9094
  771MOL0     H 4079   4.705   8.601   0.146  1.0664 -0.0831 -0.9797
  771MOL0     H 4080   4.690   8.617  -0.029 -0.2077 -1.4688 -0.7032
  771MOL0     H 4081   4.272   8.583   0.041  0.5689 -0.1784  0.0621
  771MOL0     H 4082   5.190   8.180  -0.134 -0.0979 -0.4700  0.3658
  771MOL0     H 4083   5.390   7.941  -0.087 -3.5233  0.8714  2.8967
  771MOL0     H 4084   5.413   8.082  -0.184 -0.4059  1.7517  0.5116
  771MOL0     H 4085   5.529   8.048  -0.049 -0.6500  1.0573  1.8077
  772MOL0     O 4086   9.161   3.525   9.361 -0.3160 -0.5055 -0.1130
  772MOL0     C 4087   9.166   3.632   9.427 -0.0456 -0.5479  0.2242
  772MOL0     O 4088   9.272   3.682   9.488  0.2869 -0.6013 -0.4711
  772MOL0     C 4089   9.382   3.610   9.502 -0.0839 -0.4149  1.5103
  772MOL0     C 4090   9.509   3.680   9.494 -0.0663 -0.1109  0.2071
  772MOL0     C 4091   9.625   3.619   9.542 -0.0221 -0.5127  0.0565
  772MOL0     C 4092   9.623   3.489   9.596 -0.2339  0.0502  0.3548
  772MOL0     O 4093   9.740   3.452   9.654  0.1761  0.5115  0.5372
  772MOL0     C 4094   9.745   3.331   9.730  0.0082 -0.2646 -0.1581
  772MOL0     C 4095   9.893   3.332   9.774 -0.0200  0.2274 -0.9046
  772MOL0     C 4096   9.984   3.261   9.671  0.3127 -0.3102  0.3518
  772MOL0     C 4097  10.128   3.304   9.702 -0.3190 -0.8267  0.1523
  772MOL0     C 4098  10.229   3.238   9.598 -0.7531 -0.0095 -0.0034
  772MOL0     C 4099  10.258   3.092   9.636 -0.6449 -0.4616  0.1314
  772MOL0     C 4100  10.389   3.038   9.586 -0.1096  0.3153  0.3463
  772MOL0     C 4101  10.398   2.889   9.620  0.2134  0.3484  0.1746
  772MOL0     N 4102  10.524   2.831   9.580  0.1210  0.5651  0.0335
  772MOL0     C 4103  10.535   2.769   9.457 -0.7072  0.1432  0.0908
  772MOL0     C 4104  10.642   2.689   9.471  0.5570 -0.9369  0.4231
  772MOL0     C 4105  10.716   2.609   9.369  0.0853 -0.1816  0.4538
  772MOL0     C 4106  10.864   2.610   9.397 -0.5875 -0.2591 -0.4653
  772MOL0     C 4107  10.949   2.512   9.312  0.5258  0.1774 -0.0081
  772MOL0     C 4108  11.095   2.529   9.320  0.2776 -0.3729  0.3877
  772MOL0     O 4109  11.122   2.491   9.454  0.0942  0.1410 -0.6788
  772MOL0     C 4110  11.245   2.467   9.500  0.0490  0.1428  0.3821
  772MOL0     C 4111  11.256   2.436   9.633 -0.7409 -1.0334 -0.1431
  772MOL0     C 4112  11.382   2.405   9.686  0.2169  0.6117 -0.3315
  772MOL0     C 4113  11.499   2.409   9.609 -0.2650  0.1279  0.2712
  772MOL0     C 4114  11.628   2.382   9.660 -0.5158  0.4702 -0.2475
  772MOL0     O 4115  11.641   2.322   9.790 -0.0131  0.3736 -0.3910
  772MOL0     C 4116  11.755   2.342   9.865 -0.9565  0.0426 -0.3443
  772MOL0     C 4117  11.771   2.467   9.921 -0.2083 -0.2030  0.2116
  772MOL0     C 4118  11.879   2.494  10.004 -0.6797  0.0052  0.2025
  772MOL0     C 4119  11.980   2.398  10.029  0.2023  0.1482 -0.3409
  772MOL0     O 4120  12.088   2.439  10.101 -0.5179  0.3089 -0.0660
  772MOL0     C 4121  12.174   2.345  10.163  0.0987  0.4823 -0.2307
  772MOL0     C 4122  12.286   2.422  10.233  1.2515  0.9029 -0.3053
  772MOL0     C 4123  12.408   2.328  10.255  0.3997 -0.9359  0.7205
  772MOL0     C 4124  12.536   2.404  10.264 -0.0812  0.0674 -0.1780
  772MOL0     C 4125  12.657   2.314  10.272 -0.2737  0.0528  1.0779
  772MOL0     C 4126  12.770   2.411  10.298 -1.1589  0.1101  0.1322
  772MOL0     C 4127  12.909   2.334  10.292  0.0064  0.9332 -0.3297
  772MOL0     C 4128  12.919   2.245  10.420  0.2385  0.9041  0.5912
  772MOL0    Cl 4129  12.939   2.358  10.561 -0.4754  0.1702 -0.0326
  772MOL0     C 4130  11.968   2.271   9.965  0.0133 -0.4425 -0.3106
  772MOL0     C 4131  11.852   2.245   9.885 -0.5503  0.4828 -0.5939
  772MOL0     O 4132  11.726   2.425   9.599 -0.9094  0.0240  0.0802
  772MOL0     C 4133  11.483   2.447   9.474  0.3285  0.8806 -0.4261
  772MOL0     C 4134  11.355   2.478   9.426  0.3462  0.8443  0.0685
  772MOL0     N 4135  10.688   2.720   9.596 -0.1055  0.1964 -0.5866
  772MOL0     N 4136  10.621   2.801   9.659  0.0007 -0.2698  0.2037
  772MOL0     C 4137   9.506   3.419   9.590 -0.4318  0.2612  0.1066
  772MOL0     C 4138   9.389   3.479   9.538 -0.3346  0.6727 -0.2597
  772MOL0     C 4139   9.047   3.725   9.416 -0.9810 -0.0082  0.9189
  772MOL0     C 4140   9.047   3.844   9.489  0.4123 -0.3774  0.3721
  772MOL0     C 4141   8.955   3.944   9.464  0.7564 -0.1363 -0.3725
  772MOL0     C 4142   8.850   3.927   9.372 -0.3463 -0.3239 -0.4100
  772MOL0     O 4143   8.750   4.017   9.345 -0.0002 -0.1328  0.1514
  772MOL0     C 4144   8.769   4.154   9.388  0.6083  0.1947  0.0563
  772MOL0     C 4145   8.647   4.227   9.341 -0.0658  0.7518  0.0484
  772MOL0     C 4146   8.670   4.375   9.336 -0.2409 -0.2627  0.4663
  772MOL0     C 4147   8.548   4.466   9.344  0.9323  0.6615  0.2933
  772MOL0     C 4148   8.484   4.465   9.215  0.1085 -1.0589 -0.0343
  772MOL0     C 4149   8.413   4.450   9.117  0.1325  0.4200 -0.5117
  772MOL0     C 4150   8.860   3.816   9.294 -0.1781  0.1462  0.6332
  772MOL0     C 4151   8.945   3.706   9.314  0.1975 -0.5536  1.0052
  772MOL0     C 4152   8.913   3.568   9.243 -0.0809  0.0102 -0.2672
  772MOL0     H 4153   9.499   3.782   9.457  0.6207  0.4368  1.4459
  772MOL0     H 4154   9.715   3.680   9.550 -0.1621 -0.3993  0.8373
  772MOL0     H 4155   9.670   3.339   9.810  0.3894  1.0687  0.0892
  772MOL0     H 4156   9.728   3.245   9.665 -0.4816 -0.8506  0.7124
  772MOL0     H 4157   9.906   3.266   9.861 -1.0717  0.0915 -0.8334
  772MOL0     H 4158   9.932   3.432   9.791  0.3564 -0.0900  0.2186
  772MOL0     H 4159   9.950   3.295   9.572  1.7792 -1.0230 -0.4277
  772MOL0     H 4160   9.973   3.153   9.686 -0.6905 -0.1876  0.6020
  772MOL0     H 4161  10.142   3.411   9.684  1.6469 -0.8157  1.5042
  772MOL0     H 4162  10.150   3.291   9.808 -1.0063  0.5158  0.4874
  772MOL0     H 4163  10.181   3.231   9.500  1.3728 -1.6944 -0.9897
  772MOL0     H 4164  10.323   3.294   9.595 -0.4803 -0.2383  2.2840
  772MOL0     H 4165  10.257   3.087   9.746 -2.4072  0.7680  0.2084
  772MOL0     H 4166  10.174   3.030   9.604 -2.0804  0.6670  1.5281
  772MOL0     H 4167  10.473   3.089   9.634  1.0858 -1.0990 -0.1843
  772MOL0     H 4168  10.397   3.051   9.478  1.3506  0.1373  0.4062
  772MOL0     H 4169  10.394   2.870   9.728  0.1052  1.4237  0.3612
  772MOL0     H 4170  10.325   2.829   9.566  0.9583 -0.1038 -0.3564
  772MOL0     H 4171  10.468   2.776   9.372  1.4362  0.7118 -1.6601
  772MOL0     H 4172  10.673   2.509   9.372 -1.5519  0.3767 -1.3674
  772MOL0     H 4173  10.695   2.648   9.269  0.6870 -0.6591  0.1349
  772MOL0     H 4174  10.907   2.710   9.388  0.4646 -0.4843  1.4788
  772MOL0     H 4175  10.888   2.588   9.501 -0.2633  0.7470 -0.3165
  772MOL0     H 4176  10.928   2.531   9.207  0.4923 -2.0166 -0.4466
  772MOL0     H 4177  10.915   2.411   9.338  2.9296 -0.4716  0.8540
  772MOL0     H 4178  11.121   2.635   9.307 -1.4473  0.0582  0.1622
  772MOL0     H 4179  11.144   2.472   9.241 -1.0384 -0.3389 -0.4895
  772MOL0     H 4180  11.161   2.437   9.687 -1.8377 -0.8362 -2.0086
  772MOL0     H 4181  11.375   2.384   9.793 -1.9815  1.2989 -0.2813
  772MOL0     H 4182  11.693   2.542   9.910 -2.2031 -2.2296 -0.3597
  772MOL0     H 4183  11.891   2.592  10.051  0.1955  0.0120 -0.0166
  772MOL0     H 4184  12.117   2.277  10.227 -2.2867  0.5302 -2.1588
  772MOL0     H 4185  12.215   2.279  10.086 -2.8204 -1.9772  0.1205
  772MOL0     H 4186  12.321   2.506  10.172 -1.7128  0.4299 -2.8412
  772MOL0     H 4187  12.245   2.459  10.328 -0.0136 -2.0503  0.3925
  772MOL0     H 4188  12.383   2.266  10.342 -2.6106  2.4763  2.5393
  772MOL0     H 4189  12.419   2.256  10.172  0.1111  1.0682 -1.1511
  772MOL0     H 4190  12.536   2.476  10.346 -1.5887  1.7263 -1.5447
  772MOL0     H 4191  12.556   2.464  10.174  1.1580 -1.3150 -0.8712
  772MOL0     H 4192  12.673   2.266  10.176  0.2040 -0.9434  1.6358
  772MOL0     H 4193  12.639   2.232  10.343  1.2379 -2.7803 -1.5973
  772MOL0     H 4194  12.766   2.487  10.220 -1.3896 -2.4094 -2.4638
  772MOL0     H 4195  12.758   2.459  10.395 -0.4793  2.9285 -1.0912
  772MOL0     H 4196  12.995   2.401  10.284 -0.3679  1.6533  1.2740
  772MOL0     H 4197  12.908   2.277  10.198 -1.8373  1.4721 -0.6807
  772MOL0     H 4198  12.827   2.187  10.437  0.2740  1.0065  1.1327
  772MOL0     H 4199  13.001   2.173  10.408  3.4567  4.4723 -0.9336
  772MOL0     H 4200  12.046   2.197   9.974  0.6928 -0.1425 -2.9569
  772MOL0     H 4201  11.837   2.148   9.839 -1.1569  1.1657 -1.8924
  772MOL0     H 4202  11.572   2.439   9.412  0.4326 -2.0573 -0.0377
  772MOL0     H 4203  11.346   2.489   9.318 -1.9309 -0.7695  0.0240
  772MOL0     H 4204   9.502   3.320   9.634 -1.2440  1.0082  1.8092
  772MOL0     H 4205   9.300   3.417   9.546  0.9131 -1.5916 -2.4978
  772MOL0     H 4206   9.120   3.865   9.565  0.4997  0.7663 -0.0033
  772MOL0     H 4207   8.948   4.027   9.534 -0.5184 -2.4215  2.4095
  772MOL0     H 4208   8.855   4.197   9.335  1.2566  0.3473  1.2081
  772MOL0     H 4209   8.765   4.160   9.497 -0.1137  1.3506 -0.0285
  772MOL0     H 4210   8.564   4.197   9.406 -0.2012  0.9040 -0.0519
  772MOL0     H 4211   8.628   4.185   9.242 -1.9668  0.3380  0.5416
  772MOL0     H 4212   8.733   4.396   9.249  0.2667  0.2543  0.9475
  772MOL0     H 4213   8.724   4.406   9.426  3.1096 -0.8207 -1.2258
  772MOL0     H 4214   8.475   4.441   9.422 -0.0422  2.6385  0.0819
  772MOL0     H 4215   8.585   4.565   9.372  1.2939 -0.0941  2.6903
  772MOL0     H 4216   8.357   4.430   9.028 -2.2085  0.0034  0.9569
  772MOL0     H 4217   8.788   3.809   9.213  0.6219 -0.1832 -0.0681
  772MOL0     H 4218   8.980   3.538   9.162  0.3845  1.6661 -0.5320
  772MOL0     H 4219   8.920   3.493   9.323  1.2899 -0.9771 -1.2719
  772MOL0     H 4220   8.809   3.568   9.209  0.0606 -0.0512 -0.7009
  773MOL0     O 4221   0.094   8.632  10.141  0.7148 -0.1540  0.3230
  773MOL0     C 4222   0.040   8.614  10.250 -0.5154 -0.3226  0.7169
  773MOL0     O 4223   0.108   8.575  10.363 -0.0694  0.2728  0.5677
  773MOL0     C 4224   0.250   8.559  10.368 -0.2757  0.0964  0.0637
  773MOL0     C 4225   0.307   8.442  10.419  0.3398 -0.5000 -0.3761
  773MOL0     C 4226   0.445   8.422  10.430  0.0988  0.2741  0.5844
  773MOL0     C 4227   0.532   8.521  10.388 -1.1666  0.0532  0.0422
  773MOL0     O 4228   0.671   8.510  10.374 -0.0280 -0.2203  0.3751
  773MOL0     C 4229   0.733   8.438  10.476  0.1870 -0.0906 -0.2499
  773MOL0     C 4230   0.871   8.504  10.506 -0.0239 -0.3392  0.5038
  773MOL0     C 4231   0.952   8.497  10.373  0.6075 -0.3907 -0.5679
  773MOL0     C 4232   1.092   8.524  10.399 -1.1142 -0.9632 -0.1480
  773MOL0     C 4233   1.156   8.556  10.266 -0.2787 -0.4282 -0.0663
  773MOL0     C 4234   1.161   8.706  10.227 -0.1916  0.5204  0.3097
  773MOL0     C 4235   1.261   8.788  10.309  0.2019  0.1479  0.4011
  773MOL0     C 4236   1.242   8.939  10.286 -0.3426  0.3121 -0.7769
  773MOL0     N 4237   1.334   9.015  10.374 -0.0001 -0.5355  0.2639
  773MOL0     C 4238   1.474   9.023  10.381 -0.0358 -0.9250  0.0766
  773MOL0     C 4239   1.497   9.096  10.495 -0.0778  0.1507 -0.9629
  773MOL0     C 4240   1.641   9.143  10.531 -0.1729 -0.7529  0.3614
  773MOL0     C 4241   1.717   9.036  10.603  0.8849 -0.1666 -0.2280
  773MOL0     C 4242   1.859   9.077  10.640 -0.6485  0.3928  1.0937
  773MOL0     C 4243   1.939   8.946  10.687  0.2422 -0.1680 -0.4080
  773MOL0     O 4244   2.041   8.979  10.783  0.1311 -0.4890  0.5084
  773MOL0     C 4245   2.019   8.988  10.915  0.5833 -0.0902 -0.3440
  773MOL0     C 4246   1.893   8.963  10.976 -0.8161 -0.4575 -0.2203
  773MOL0     C 4247   1.883   8.979  11.118 -0.1048  0.4291 -0.1181
  773MOL0     C 4248   2.003   9.024  11.190  0.6987  0.1600  0.3198
  773MOL0     C 4249   1.993   9.028  11.337  0.6685 -0.1286  0.2927
  773MOL0     O 4250   1.888   8.977  11.398 -0.1199 -0.2918  0.1812
  773MOL0     C 4251   1.882   9.002  11.529  0.0878 -0.5355 -0.3471
  773MOL0     C 4252   1.800   9.101  11.583 -0.0633 -0.5237  0.1995
  773MOL0     C 4253   1.781   9.105  11.723 -0.3542  0.3480 -0.6236
  773MOL0     C 4254   1.849   9.020  11.810  0.5218  0.2409  0.0768
  773MOL0     O 4255   1.831   9.024  11.947 -0.5862  0.2573  0.1340
  773MOL0     C 4256   1.738   9.115  12.010 -0.5789  0.0686  0.7704
  773MOL0     C 4257   1.599   9.054  12.030  1.0767  0.5053 -0.1217
  773MOL0     C 4258   1.524   9.041  11.900  0.1388 -0.1586  0.2044
  773MOL0     C 4259   1.380   8.987  11.920  0.2529  0.8670 -0.1292
  773MOL0     C 4260   1.311   8.969  11.784  0.0166 -0.1175 -0.0416
  773MOL0     C 4261   1.161   8.931  11.800  0.0891 -0.7506 -0.4316
  773MOL0     C 4262   1.090   8.912  11.667 -0.8335 -0.0420 -0.3745
  773MOL0     C 4263   0.946   8.878  11.693  0.7169 -0.2885  0.6286
  773MOL0    Cl 4264   0.862   8.856  11.535 -0.1367 -0.0317  0.0880
  773MOL0     C 4265   1.932   8.920  11.752  0.1117 -0.2871  0.1271
  773MOL0     C 4266   1.948   8.910  11.612  0.4632  0.3389 -0.4447
  773MOL0     O 4267   2.082   9.091  11.386  0.1496 -0.0012  0.0513
  773MOL0     C 4268   2.126   9.046  11.124  0.7972  0.3189  0.3068
  773MOL0     C 4269   2.131   9.017  10.986 -0.8536  0.2491 -0.3383
  773MOL0     N 4270   1.370   9.136  10.553  0.2513 -0.8198  0.6499
  773MOL0     N 4271   1.279   9.092  10.476 -1.2715 -0.2219  0.0993
  773MOL0     C 4272   0.475   8.637  10.348  0.5774  0.2858  0.0116
  773MOL0     C 4273   0.338   8.666  10.343 -0.3440  0.2634 -0.6199
  773MOL0     C 4274  -0.111   8.631  10.253 -0.7338 -1.1098 -0.5227
  773MOL0     C 4275  -0.171   8.574  10.373 -1.0013  0.4119  0.6314
  773MOL0     C 4276  -0.307   8.553  10.379  0.5553  0.2369  0.0765
  773MOL0     C 4277  -0.394   8.590  10.277 -0.8980  0.1016 -0.2907
  773MOL0     O 4278  -0.524   8.574  10.298  0.5883 -0.4224 -0.2156
  773MOL0     C 4279  -0.619   8.614  10.192  0.4914  0.6848  0.1998
  773MOL0     C 4280  -0.760   8.563  10.242 -0.4274  0.2073  0.9167
  773MOL0     C 4281  -0.879   8.630  10.172 -0.2072  0.6907  0.3423
  773MOL0     C 4282  -1.006   8.611  10.256  1.0548  0.3881  0.7561
  773MOL0     C 4283  -1.118   8.699  10.206  1.2609  0.2833  0.3235
  773MOL0     C 4284  -1.224   8.744  10.158 -0.3209  0.3683 -1.0788
  773MOL0     C 4285  -0.341   8.677  10.180  0.5346 -0.2867  0.9212
  773MOL0     C 4286  -0.205   8.682  10.155 -1.1873  0.8956 -0.3128
  773MOL0     C 4287  -0.153   8.742  10.018  0.3850 -0.3926 -0.6200
  773MOL0     H 4288   0.236   8.368  10.453 -0.1946 -1.0783 -2.6113
  773MOL0     H 4289   0.474   8.323  10.461  0.3202  0.1125 -0.1198
  773MOL0     H 4290   0.667   8.443  10.563  0.8603 -1.3412  0.3611
  773MOL0     H 4291   0.747   8.333  10.447  1.2558 -1.1673  3.5692
  773MOL0     H 4292   0.925   8.443  10.579  2.4422  0.2517 -0.7035
  773MOL0     H 4293   0.852   8.605  10.543 -3.5871 -0.7392  0.1143
  773MOL0     H 4294   0.902   8.555  10.294 -0.0424  1.2669  0.9781
  773MOL0     H 4295   0.937   8.397  10.332  0.8591 -1.8518  2.6633
  773MOL0     H 4296   1.099   8.608  10.469 -0.5940 -0.1255 -1.1750
  773MOL0     H 4297   1.145   8.439  10.443 -1.9294 -0.4101  2.0219
  773MOL0     H 4298   1.257   8.517  10.275 -0.1832  0.3189  3.7679
  773MOL0     H 4299   1.105   8.496  10.189 -1.3984  1.2808 -0.7138
  773MOL0     H 4300   1.169   8.715  10.119 -4.0551 -4.5111 -0.8137
  773MOL0     H 4301   1.057   8.737  10.243 -0.4122 -1.2953  3.1906
  773MOL0     H 4302   1.361   8.751  10.284 -0.4515  0.0104 -2.2820
  773MOL0     H 4303   1.242   8.770  10.415 -3.1467 -1.1802 -0.3040
  773MOL0     H 4304   1.274   8.960  10.184  0.5342  1.5276 -0.2852
  773MOL0     H 4305   1.138   8.969  10.301 -0.3632 -0.4783  0.9543
  773MOL0     H 4306   1.554   8.981  10.322 -0.0262 -1.9877  0.8181
  773MOL0     H 4307   1.687   9.175  10.437  1.8600 -3.4907  0.3091
  773MOL0     H 4308   1.641   9.235  10.592  1.3701 -2.2522  2.7715
  773MOL0     H 4309   1.652   9.002  10.684 -1.3230  2.8536 -0.5687
  773MOL0     H 4310   1.712   8.946  10.541 -6.9212  1.5229 -3.1530
  773MOL0     H 4311   1.866   9.156  10.716 -0.8491 -0.5438  2.1025
  773MOL0     H 4312   1.916   9.112  10.554 -1.3778  1.5534  1.0642
  773MOL0     H 4313   1.978   8.903  10.595  1.5077 -0.7951  0.3959
  773MOL0     H 4314   1.867   8.873  10.725 -1.3245  0.8531 -1.3182
  773MOL0     H 4315   1.798   8.939  10.930 -1.6298  0.8985  0.7100
  773MOL0     H 4316   1.790   8.963  11.172  0.6008  0.2889  1.0738
  773MOL0     H 4317   1.738   9.165  11.521  0.8779  0.4099  0.1972
  773MOL0     H 4318   1.723   9.190  11.755  2.1721  1.3158  1.7947
  773MOL0     H 4319   1.776   9.146  12.108  0.3530  2.9630 -0.3919
  773MOL0     H 4320   1.736   9.209  11.954  2.2232 -0.9304 -1.2403
  773MOL0     H 4321   1.625   8.958  12.076  2.7952  1.6037  1.3372
  773MOL0     H 4322   1.537   9.104  12.105  0.2411 -0.1196 -0.3871
  773MOL0     H 4323   1.519   9.138  11.850  3.0068  0.1234  0.3466
  773MOL0     H 4324   1.584   8.972  11.841  1.4041  0.4820  0.7188
  773MOL0     H 4325   1.320   9.064  11.968 -1.3837 -0.7063  0.4711
  773MOL0     H 4326   1.375   8.897  11.983 -1.5531  0.9292 -0.1454
  773MOL0     H 4327   1.360   8.889  11.729  0.6790 -0.6133  1.2206
  773MOL0     H 4328   1.319   9.067  11.737  0.0872 -0.1972 -0.1948
  773MOL0     H 4329   1.144   8.839  11.859 -0.7578  0.4296  1.2563
  773MOL0     H 4330   1.107   9.008  11.856 -1.3748 -1.4078 -0.8691
  773MOL0     H 4331   1.135   8.830  11.609 -0.9423 -0.0461 -0.4549
  773MOL0     H 4332   1.103   9.006  11.612  0.0280  0.9644  1.4785
  773MOL0     H 4333   0.939   8.780  11.742 -1.6025 -0.7314 -0.4531
  773MOL0     H 4334   0.886   8.952  11.747 -0.2560 -1.9765  1.9750
  773MOL0     H 4335   1.988   8.853  11.817  2.8386 -0.5681 -2.3147
  773MOL0     H 4336   2.010   8.829  11.573 -0.2131 -0.4729  0.1336
  773MOL0     H 4337   2.218   9.084  11.166  0.0034  0.8080  1.6492
  773MOL0     H 4338   2.229   9.016  10.941 -0.7511 -0.7053 -0.1048
  773MOL0     H 4339   0.548   8.708  10.311 -0.2850  1.0278 -0.3259
  773MOL0     H 4340   0.309   8.763  10.302  0.0145 -0.4385 -2.6276
  773MOL0     H 4341  -0.107   8.556  10.459  0.8614  0.6113 -0.6636
  773MOL0     H 4342  -0.359   8.488  10.449 -1.0297 -1.3519 -2.4172
  773MOL0     H 4343  -0.594   8.562  10.099  1.2250 -1.6974  1.6528
  773MOL0     H 4344  -0.610   8.723  10.189  0.4791  0.7297  1.4111
  773MOL0     H 4345  -0.767   8.552  10.351 -0.2678  1.1215  1.0278
  773MOL0     H 4346  -0.760   8.460  10.206 -1.4688  0.8183 -0.9387
  773MOL0     H 4347  -0.901   8.591  10.072 -3.2670 -1.1376  1.5852
  773MOL0     H 4348  -0.848   8.735  10.164  0.3042  0.5542  0.4699
  773MOL0     H 4349  -1.040   8.509  10.237  2.9236  0.1150 -1.6697
  773MOL0     H 4350  -0.992   8.639  10.361 -0.4170 -0.1639  1.1173
  773MOL0     H 4351  -1.304   8.796  10.110 -0.8797  0.0217 -0.5307
  773MOL0     H 4352  -0.412   8.732  10.119  2.8466  1.7313 -0.1482
  773MOL0     H 4353  -0.112   8.661   9.956  1.1942 -0.7374  0.3504
  773MOL0     H 4354  -0.233   8.793   9.964 -0.4497  0.6328  1.4696
  773MOL0     H 4355  -0.074   8.813  10.043 -0.5172  0.5623 -0.4217
  774MOL0     O 4356   7.985   7.791   3.346 -0.5372  0.3850 -1.1313
  774MOL0     C 4357   8.014   7.678   3.380  0.2444 -0.2874  0.1180
  774MOL0     O 4358   8.138   7.630   3.408  0.0053  0.2963  0.2156
  774MOL0     C 4359   8.238   7.723   3.407 -0.2488 -0.2878  0.0253
  774MOL0     C 4360   8.235   7.845   3.477 -0.1018 -0.5458 -0.7637
  774MOL0     C 4361   8.355   7.909   3.485 -0.3976  0.8967  0.3192
  774MOL0     C 4362   8.476   7.868   3.426  0.2516 -0.4390 -0.4748
  774MOL0     O 4363   8.596   7.930   3.463  0.6547  0.2614  0.5359
  774MOL0     C 4364   8.726   7.872   3.422  0.4486 -0.4285 -0.5469
  774MOL0     C 4365   8.841   7.960   3.481  0.1239 -0.1590 -0.3728
  774MOL0     C 4366   8.984   7.934   3.430 -0.8291  0.7553  0.1489
  774MOL0     C 4367   9.089   8.011   3.515  0.2795 -0.1317  0.6371
  774MOL0     C 4368   9.231   7.968   3.472 -1.0132 -0.1883 -0.0974
  774MOL0     C 4369   9.346   8.054   3.505  0.3412 -0.3578 -0.4303
  774MOL0     C 4370   9.476   7.995   3.461  0.1063  0.0970  0.4571
  774MOL0     C 4371   9.600   8.044   3.535 -0.0336  0.4408 -0.9470
  774MOL0     N 4372   9.615   8.186   3.517  0.0121  0.1569  0.7647
  774MOL0     C 4373   9.673   8.238   3.412 -0.3562 -0.2757 -0.8640
  774MOL0     C 4374   9.697   8.365   3.443  0.2556 -0.2789  0.0267
  774MOL0     C 4375   9.766   8.468   3.356 -0.9502  0.3542  0.0903
  774MOL0     C 4376   9.909   8.436   3.333  0.0736  0.3450 -1.3560
  774MOL0     C 4377   9.976   8.529   3.239 -0.0077 -0.8074 -0.6900
  774MOL0     C 4378   9.963   8.486   3.089 -0.4292  0.1721 -0.3129
  774MOL0     O 4379  10.013   8.356   3.069 -0.1928 -0.6009  0.3007
  774MOL0     C 4380  10.147   8.357   3.036 -0.4291 -0.7382 -0.1985
  774MOL0     C 4381  10.251   8.369   3.131 -0.4090  0.7392 -0.0511
  774MOL0     C 4382  10.380   8.354   3.087  0.0136 -0.1330 -0.1946
  774MOL0     C 4383  10.415   8.344   2.944 -0.7021  0.8169  0.1303
  774MOL0     C 4384  10.564   8.353   2.902 -1.3024 -0.0102 -1.4685
  774MOL0     O 4385  10.599   8.357   2.773 -0.0752 -0.3016 -0.3337
  774MOL0     C 4386  10.732   8.353   2.745 -0.1835 -0.2065  0.3499
  774MOL0     C 4387  10.793   8.238   2.691  0.4375  0.1751 -0.7951
  774MOL0     C 4388  10.926   8.238   2.656 -1.1374 -0.1036  0.4711
  774MOL0     C 4389  11.007   8.348   2.669  0.9034 -0.2117  0.0997
  774MOL0     O 4390  11.134   8.347   2.615  0.2503  0.3895  0.8669
  774MOL0     C 4391  11.241   8.404   2.686  0.9459  0.3227  0.3347
  774MOL0     C 4392  11.367   8.409   2.607 -0.0101 -0.1527 -0.4574
  774MOL0     C 4393  11.425   8.268   2.608  0.0134  0.1243 -0.4052
  774MOL0     C 4394  11.568   8.275   2.550  0.0469  0.3856 -0.1801
  774MOL0     C 4395  11.635   8.133   2.535 -0.2167  0.4358 -0.9390
  774MOL0     C 4396  11.644   8.062   2.674 -0.8893 -0.2601  0.3360
  774MOL0     C 4397  11.728   7.934   2.653 -0.4085 -0.0549 -0.1914
  774MOL0     C 4398  11.846   7.939   2.751  0.2297 -0.5311 -0.3730
  774MOL0    Cl 4399  11.947   8.080   2.703 -0.1232 -0.0639  0.7330
  774MOL0     C 4400  10.947   8.460   2.723 -0.3739 -0.6957 -0.4395
  774MOL0     C 4401  10.814   8.465   2.757 -0.6041 -0.5623  0.2733
  774MOL0     O 4402  10.644   8.364   2.998 -0.5783 -0.0566 -0.1074
  774MOL0     C 4403  10.309   8.335   2.856 -0.4759 -0.4264 -0.9325
  774MOL0     C 4404  10.177   8.347   2.905 -0.4966  0.7497  0.3860
  774MOL0     N 4405   9.649   8.388   3.573 -0.4148 -1.2418  0.1396
  774MOL0     N 4406   9.604   8.276   3.614  0.0688  0.6691 -0.2826
  774MOL0     C 4407   8.469   7.758   3.342  0.2634 -0.1562 -0.8046
  774MOL0     C 4408   8.352   7.685   3.332 -0.5264 -0.3663 -0.2834
  774MOL0     C 4409   7.896   7.588   3.396 -0.7577  0.5197 -0.0951
  774MOL0     C 4410   7.773   7.621   3.341 -0.1504  1.1035  0.3683
  774MOL0     C 4411   7.653   7.544   3.353  0.1483 -0.7021  0.0504
  774MOL0     C 4412   7.650   7.428   3.431 -0.8725  0.0189  0.0325
  774MOL0     O 4413   7.537   7.352   3.451  0.1763 -0.8783 -0.4082
  774MOL0     C 4414   7.500   7.346   3.591 -1.2734 -0.2390  0.2943
  774MOL0     C 4415   7.386   7.448   3.605  1.3094 -0.1807  0.5872
  774MOL0     C 4416   7.252   7.376   3.578 -0.0759 -1.0867  0.5199
  774MOL0     C 4417   7.137   7.477   3.563  0.5216  0.2015  0.6057
  774MOL0     C 4418   7.007   7.411   3.566  0.5570  0.6694 -0.5803
  774MOL0     C 4419   6.901   7.365   3.586  0.2115  0.3370 -0.5389
  774MOL0     C 4420   7.781   7.389   3.484 -0.0918  0.0582 -0.7754
  774MOL0     C 4421   7.898   7.467   3.477  0.0522  0.4422 -0.1638
  774MOL0     C 4422   8.020   7.428   3.561 -0.0478  0.4759  0.1633
  774MOL0     H 4423   8.147   7.883   3.526 -0.2963  0.1738 -1.6431
  774MOL0     H 4424   8.357   7.992   3.555  2.9438  3.1527 -2.1501
  774MOL0     H 4425   8.738   7.776   3.473  2.2349  0.7134  1.3203
  774MOL0     H 4426   8.734   7.864   3.313 -0.7883 -0.1288 -0.6772
  774MOL0     H 4427   8.846   7.949   3.589  2.7124 -0.4575 -0.4487
  774MOL0     H 4428   8.833   8.067   3.460  2.1842 -0.3519 -2.7098
  774MOL0     H 4429   8.988   7.953   3.323 -1.2113  2.0900  0.3488
  774MOL0     H 4430   9.006   7.827   3.433 -2.7973  0.3199  0.1950
  774MOL0     H 4431   9.073   8.119   3.506 -2.8023 -0.5981 -0.9171
  774MOL0     H 4432   9.075   7.979   3.618  0.3436  1.2058  1.0728
  774MOL0     H 4433   9.252   7.872   3.519  1.9849  1.2237  1.7137
  774MOL0     H 4434   9.237   7.960   3.363  0.4070  2.0440 -0.2486
  774MOL0     H 4435   9.329   8.144   3.445  0.9529 -0.1129 -0.2536
  774MOL0     H 4436   9.347   8.078   3.612 -0.6165 -1.7448 -0.0898
  774MOL0     H 4437   9.497   8.003   3.354  2.9442 -3.0378  0.6236
  774MOL0     H 4438   9.479   7.886   3.469 -0.7834 -0.0394 -0.7995
  774MOL0     H 4439   9.602   8.013   3.640  0.9137  2.0169 -0.4625
  774MOL0     H 4440   9.681   7.985   3.492  1.4630  1.1076  0.8207
  774MOL0     H 4441   9.698   8.189   3.318  2.6871  0.1680 -0.3982
  774MOL0     H 4442   9.706   8.471   3.264 -2.1321  3.6130  0.8411
  774MOL0     H 4443   9.749   8.566   3.400 -2.8397 -0.5818  1.5995
  774MOL0     H 4444   9.953   8.449   3.432 -0.1354 -2.2370 -0.8363
  774MOL0     H 4445   9.927   8.331   3.308  1.4352  0.5300 -1.1886
  774MOL0     H 4446  10.080   8.540   3.271 -0.4145 -1.5335  0.9494
  774MOL0     H 4447   9.938   8.629   3.258 -0.4510 -0.4002 -3.2828
  774MOL0     H 4448  10.022   8.556   3.029  0.8269 -1.1295 -0.6529
  774MOL0     H 4449   9.858   8.489   3.060 -1.0182  2.7356  1.6403
  774MOL0     H 4450  10.224   8.364   3.236 -3.2660  0.9470 -0.6769
  774MOL0     H 4451  10.454   8.359   3.166 -1.0971  1.9716  0.8056
  774MOL0     H 4452  10.737   8.146   2.690 -0.4481  0.6461  1.1532
  774MOL0     H 4453  10.975   8.146   2.627  0.8266 -0.1087  3.3693
  774MOL0     H 4454  11.223   8.511   2.702  2.3284  0.8714 -1.4509
  774MOL0     H 4455  11.258   8.361   2.785 -0.1078 -0.7437  0.0677
  774MOL0     H 4456  11.353   8.437   2.503 -0.6037 -0.9735 -0.6007
  774MOL0     H 4457  11.430   8.484   2.657 -0.6059  0.2682 -0.3332
  774MOL0     H 4458  11.425   8.221   2.707 -2.3933 -0.6867 -0.7318
  774MOL0     H 4459  11.364   8.202   2.546 -1.3659  0.3897  0.6071
  774MOL0     H 4460  11.633   8.337   2.612  1.7850 -0.7237 -0.8198
  774MOL0     H 4461  11.570   8.310   2.446 -2.1356 -0.8830 -0.7205
  774MOL0     H 4462  11.737   8.152   2.500 -0.5593  0.7339 -1.8090
  774MOL0     H 4463  11.582   8.072   2.461 -0.2569 -1.7081  0.7652
  774MOL0     H 4464  11.688   8.133   2.745 -0.8609 -0.9646  1.0371
  774MOL0     H 4465  11.546   8.026   2.707 -0.5436 -1.3631  0.2089
  774MOL0     H 4466  11.777   7.925   2.556  2.0744  1.6469  0.8135
  774MOL0     H 4467  11.666   7.845   2.671  0.4308 -0.6544 -0.2311
  774MOL0     H 4468  11.813   7.955   2.854 -2.6288 -2.6616 -0.8457
  774MOL0     H 4469  11.896   7.842   2.739 -2.6026 -2.2428  0.6597
  774MOL0     H 4470  11.008   8.546   2.751  1.0669 -2.3603  1.8560
  774MOL0     H 4471  10.774   8.555   2.801 -1.0406 -1.4250  1.7228
  774MOL0     H 4472  10.326   8.328   2.749  0.3644  1.9439 -1.0171
  774MOL0     H 4473  10.099   8.344   2.830  1.1493 -0.8841 -1.3855
  774MOL0     H 4474   8.557   7.729   3.286 -2.6927  0.3015 -6.2812
  774MOL0     H 4475   8.354   7.587   3.285 -0.2453 -0.4585 -0.0812
  774MOL0     H 4476   7.770   7.718   3.294  1.0227  1.8925  1.8280
  774MOL0     H 4477   7.564   7.586   3.307 -0.2231 -1.0062  0.4789
  774MOL0     H 4478   7.580   7.379   3.658 -0.6256 -0.5070 -0.3337
  774MOL0     H 4479   7.464   7.248   3.623 -2.6837  0.5193  1.1523
  774MOL0     H 4480   7.391   7.531   3.534 -3.6843  0.9986  1.2259
  774MOL0     H 4481   7.380   7.493   3.704 -1.5970  0.2663  0.3182
  774MOL0     H 4482   7.236   7.303   3.658  0.0041  0.0067  1.5576
  774MOL0     H 4483   7.254   7.329   3.479 -0.8931  2.1313 -1.1629
  774MOL0     H 4484   7.147   7.538   3.653 -1.8554 -0.3700  1.3228
  774MOL0     H 4485   7.139   7.544   3.476 -0.7370 -2.1713 -1.3663
  774MOL0     H 4486   6.799   7.336   3.604  0.0689  2.0927  1.8941
  774MOL0     H 4487   7.781   7.287   3.520 -0.2434 -0.2807 -1.7040
  774MOL0     H 4488   7.998   7.345   3.628 -1.3727  2.3387  2.1749
  774MOL0     H 4489   8.107   7.402   3.500 -0.5821  0.5091 -0.6346
  774MOL0     H 4490   8.040   7.520   3.617  1.2949 -0.3669  1.1292
  775MOL0     O 4491   5.024   0.009   4.672 -0.5890  0.2903  0.2259
  775MOL0     C 4492   4.963  -0.081   4.724 -0.2693 -0.2711  0.6103
  775MOL0     O 4493   5.029  -0.178   4.803 -0.2464  0.4462 -0.0457
  775MOL0     C 4494   5.172  -0.179   4.812  0.5417 -0.6896 -0.5720
  775MOL0     C 4495   5.225  -0.165   4.941  0.2346  0.3639 -0.0224
  775MOL0     C 4496   5.365  -0.148   4.966 -0.1634  0.6404 -0.0809
  775MOL0     C 4497   5.453  -0.137   4.856 -1.0174 -0.3993  0.0681
  775MOL0     O 4498   5.598  -0.139   4.872  0.3636 -0.0561  0.5652
  775MOL0     C 4499   5.661  -0.110   4.994 -0.3642  0.7148  0.2824
  775MOL0     C 4500   5.817  -0.132   4.984 -0.4919 -0.7106  0.3191
  775MOL0     C 4501   5.876  -0.173   5.118 -0.4156  0.8026  1.2235
  775MOL0     C 4502   6.011  -0.249   5.095  0.1995  0.0839 -0.9898
  775MOL0     C 4503   6.104  -0.252   5.221 -0.3463  0.0508  0.8853
  775MOL0     C 4504   6.230  -0.344   5.191  0.2743 -0.0147  0.6992
  775MOL0     C 4505   6.317  -0.342   5.319  0.4447  0.1718  0.4051
  775MOL0     C 4506   6.458  -0.389   5.296  0.0059  0.3112 -0.2629
  775MOL0     N 4507   6.534  -0.410   5.413 -0.0940  0.2358  0.1197
  775MOL0     C 4508   6.622  -0.325   5.473 -0.1390 -0.0761 -0.2889
  775MOL0     C 4509   6.655  -0.383   5.587  0.2085 -0.9566 -0.3276
  775MOL0     C 4510   6.740  -0.342   5.706 -0.5017  0.9887  0.4012
  775MOL0     C 4511   6.894  -0.311   5.668 -0.6093  0.2892  0.3440
  775MOL0     C 4512   6.957  -0.431   5.586  0.2284 -0.7099  0.1437
  775MOL0     C 4513   7.098  -0.386   5.542  0.2357 -0.2247 -0.1224
  775MOL0     O 4514   7.179  -0.358   5.655 -0.6694 -0.5251  0.0401
  775MOL0     C 4515   7.317  -0.361   5.657 -0.3153  0.5548  0.7865
  775MOL0     C 4516   7.378  -0.329   5.774 -0.2746 -0.9024  0.0989
  775MOL0     C 4517   7.515  -0.316   5.784 -0.8998  0.1609  0.0982
  775MOL0     C 4518   7.600  -0.350   5.673  0.6230 -0.7366  0.2686
  775MOL0     C 4519   7.748  -0.317   5.675  0.3041  0.6047 -1.1970
  775MOL0     O 4520   7.783  -0.220   5.769 -0.3758  0.0927  0.3648
  775MOL0     C 4521   7.912  -0.203   5.786 -0.1028  0.2518  0.3294
  775MOL0     C 4522   7.968  -0.263   5.904  1.0247 -0.6975  0.3875
  775MOL0     C 4523   8.095  -0.236   5.934 -0.6684  0.2424  0.1793
  775MOL0     C 4524   8.173  -0.164   5.848 -0.2328  0.4876 -0.2236
  775MOL0     O 4525   8.306  -0.154   5.883  0.7221  0.4246  0.0532
  775MOL0     C 4526   8.398  -0.084   5.798 -0.6301  0.0931 -0.0590
  775MOL0     C 4527   8.539  -0.067   5.849 -0.7907 -0.1152  0.1317
  775MOL0     C 4528   8.613   0.019   5.746  0.2200 -0.0712 -0.8771
  775MOL0     C 4529   8.756   0.048   5.799 -0.2059 -0.0251 -0.3546
  775MOL0     C 4530   8.826   0.151   5.716 -0.3959  0.4567  0.2628
  775MOL0     C 4531   8.976   0.170   5.758  0.3733 -0.5540 -0.2504
  775MOL0     C 4532   9.063   0.066   5.703  0.3775 -0.6990  0.5744
  775MOL0     C 4533   9.209   0.071   5.734  0.4083  0.3393 -0.2772
  775MOL0    Cl 4534   9.292   0.223   5.743 -0.2990  0.9094  0.1412
  775MOL0     C 4535   8.123  -0.109   5.730  0.0536  0.2083  0.4443
  775MOL0     C 4536   7.990  -0.127   5.706  0.0913  0.5111  0.9124
  775MOL0     O 4537   7.821  -0.384   5.605  0.5201 -1.0801  0.2137
  775MOL0     C 4538   7.532  -0.388   5.550 -0.3317 -0.5562  0.3166
  775MOL0     C 4539   7.390  -0.389   5.544  0.0452 -0.1329 -0.3237
  775MOL0     N 4540   6.588  -0.508   5.599 -0.5744 -0.4343 -0.4409
  775MOL0     N 4541   6.525  -0.527   5.490 -1.3576 -0.0130 -0.8253
  775MOL0     C 4542   5.398  -0.154   4.727  0.4759  0.5739 -0.1456
  775MOL0     C 4543   5.259  -0.175   4.708 -0.1700  0.3597  0.1036
  775MOL0     C 4544   4.811  -0.088   4.719  0.7501  0.1608  0.2472
  775MOL0     C 4545   4.749  -0.141   4.835  0.0535  0.8974  0.0760
  775MOL0     C 4546   4.613  -0.144   4.835 -1.3075  0.1475  0.0654
  775MOL0     C 4547   4.531  -0.097   4.740  1.3075  0.9041 -0.2332
  775MOL0     O 4548   4.393  -0.110   4.773  0.3201  0.0594  0.2439
  775MOL0     C 4549   4.302  -0.091   4.667  0.3538 -0.2598 -0.3540
  775MOL0     C 4550   4.154  -0.109   4.708  0.0346  0.3814  0.1031
  775MOL0     C 4551   4.056  -0.065   4.591  1.2078  0.1712 -0.2491
  775MOL0     C 4552   3.898  -0.102   4.583  0.0264 -0.6665  0.6410
  775MOL0     C 4553   3.864  -0.239   4.597  0.5266  0.6571 -0.3254
  775MOL0     C 4554   3.828  -0.349   4.624 -0.1678 -0.1829 -0.3805
  775MOL0     C 4555   4.594  -0.029   4.634  0.2752  0.6726 -0.1985
  775MOL0     C 4556   4.729  -0.022   4.615 -0.5392  0.4674 -0.4965
  775MOL0     C 4557   4.789   0.049   4.496  0.1513  0.0189 -0.3330
  775MOL0     H 4558   5.158  -0.167   5.026 -0.8130 -1.0086 -0.8206
  775MOL0     H 4559   5.404  -0.157   5.067  3.2712 -0.8167 -1.3676
  775MOL0     H 4560   5.636  -0.008   5.022  2.1978  1.2446  0.8909
  775MOL0     H 4561   5.616  -0.181   5.065 -2.1477  0.0058 -1.4477
  775MOL0     H 4562   5.877  -0.049   4.946 -2.4037  1.3215  1.5183
  775MOL0     H 4563   5.837  -0.204   4.905 -1.9914  0.8701 -1.5811
  775MOL0     H 4564   5.800  -0.217   5.183 -1.7987  2.2380  0.6397
  775MOL0     H 4565   5.903  -0.075   5.159  5.1356  0.3346 -0.4191
  775MOL0     H 4566   5.996  -0.352   5.063 -1.1286 -0.4246  1.0583
  775MOL0     H 4567   6.077  -0.198   5.024  1.2015  0.0727 -0.0895
  775MOL0     H 4568   6.140  -0.153   5.249 -2.1625  1.3782 -1.1921
  775MOL0     H 4569   6.053  -0.301   5.305 -1.0358 -2.0339 -0.6742
  775MOL0     H 4570   6.204  -0.448   5.171 -0.2584 -0.1028  1.7426
  775MOL0     H 4571   6.282  -0.307   5.102  0.8741 -2.4411 -0.0238
  775MOL0     H 4572   6.270  -0.416   5.386  1.7997 -3.5445 -2.3767
  775MOL0     H 4573   6.315  -0.241   5.361 -0.6974 -0.0140  0.8302
  775MOL0     H 4574   6.457  -0.482   5.239 -1.1022 -0.6181  1.2054
  775MOL0     H 4575   6.504  -0.306   5.241 -1.2492  1.5884  0.5442
  775MOL0     H 4576   6.660  -0.232   5.433  0.3358  1.6032  3.6239
  775MOL0     H 4577   6.701  -0.251   5.753  0.2671 -0.2321  3.6650
  775MOL0     H 4578   6.740  -0.429   5.772 -3.9670  0.0985 -0.5494
  775MOL0     H 4579   6.900  -0.224   5.602 -0.4524 -1.2100 -1.7043
  775MOL0     H 4580   6.953  -0.296   5.759 -1.9635 -0.4261  1.3918
  775MOL0     H 4581   6.899  -0.459   5.497 -0.0470 -1.8141  0.6412
  775MOL0     H 4582   6.965  -0.518   5.653  0.0844 -2.1780 -1.6658
  775MOL0     H 4583   7.097  -0.299   5.476  0.4845  0.6685  1.0294
  775MOL0     H 4584   7.129  -0.467   5.475 -0.3100 -0.8559  0.3798
  775MOL0     H 4585   7.318  -0.293   5.857 -0.4579  1.3918 -0.9426
  775MOL0     H 4586   7.576  -0.295   5.871  2.5133  1.2904 -2.3631
  775MOL0     H 4587   7.913  -0.321   5.977 -0.3100  0.9098  0.7216
  775MOL0     H 4588   8.147  -0.280   6.019 -0.4900  2.8698  1.5318
  775MOL0     H 4589   8.405  -0.146   5.708 -1.4485  0.5745 -0.4711
  775MOL0     H 4590   8.364   0.015   5.764  0.5863  0.8041  0.7115
  775MOL0     H 4591   8.552  -0.037   5.953  2.7329 -2.0817  0.4278
  775MOL0     H 4592   8.596  -0.160   5.834  0.4288  0.8938 -1.9854
  775MOL0     H 4593   8.628  -0.040   5.655  2.0922 -0.9192 -0.0792
  775MOL0     H 4594   8.556   0.111   5.729 -2.5996 -1.5251  0.0936
  775MOL0     H 4595   8.809  -0.047   5.795 -1.3963 -0.6831 -0.9446
  775MOL0     H 4596   8.751   0.081   5.904 -1.3304  0.4045 -0.5238
  775MOL0     H 4597   8.776   0.244   5.743  0.0712 -0.2827  4.4687
  775MOL0     H 4598   8.814   0.110   5.616 -1.5249 -2.9546  1.6310
  775MOL0     H 4599   9.000   0.265   5.708 -1.5310  0.1487  0.1101
  775MOL0     H 4600   8.986   0.172   5.867 -2.9524 -2.2685  0.1957
  775MOL0     H 4601   9.063   0.077   5.595  0.4575  3.1001  0.8020
  775MOL0     H 4602   9.010  -0.024   5.733 -0.9971 -0.2350 -0.3624
  775MOL0     H 4603   9.217   0.015   5.828 -0.7787  1.3514  0.4572
  775MOL0     H 4604   9.263  -0.003   5.674 -1.6775 -0.9811 -0.6308
  775MOL0     H 4605   8.177  -0.043   5.662 -1.1931  1.0905  0.2832
  775MOL0     H 4606   7.943  -0.096   5.613  0.5603 -2.4092 -0.4243
  775MOL0     H 4607   7.591  -0.417   5.464  2.2744 -1.9479  2.4354
  775MOL0     H 4608   7.339  -0.422   5.454  0.0801 -2.3443  0.3887
  775MOL0     H 4609   5.469  -0.159   4.644  1.0546  5.5727 -0.2934
  775MOL0     H 4610   5.214  -0.192   4.610  1.9825 -1.2682 -0.6758
  775MOL0     H 4611   4.802  -0.180   4.921  2.2488 -0.8342 -1.9260
  775MOL0     H 4612   4.560  -0.195   4.915 -0.4951  0.8141  1.0589
  775MOL0     H 4613   4.337  -0.141   4.576  2.0065 -0.8892  0.5841
  775MOL0     H 4614   4.314   0.014   4.641  1.1370 -0.4515 -0.7777
  775MOL0     H 4615   4.132  -0.048   4.796  0.5681  1.2947 -0.3821
  775MOL0     H 4616   4.144  -0.214   4.734 -0.4257  0.3550 -0.1658
  775MOL0     H 4617   4.108  -0.108   4.505  2.4772  1.3250 -0.0924
  775MOL0     H 4618   4.059   0.044   4.584  4.5215  0.2002 -0.1155
  775MOL0     H 4619   3.847  -0.034   4.651 -1.2000 -0.5457 -0.3539
  775MOL0     H 4620   3.859  -0.079   4.484 -0.2100 -2.8968  0.1477
  775MOL0     H 4621   3.797  -0.446   4.655 -2.2601  0.5272 -0.1378
  775MOL0     H 4622   4.528   0.023   4.565 -0.8561  0.4112  0.6722
  775MOL0     H 4623   4.848   0.135   4.527 -2.3506  1.2103  1.4303
  775MOL0     H 4624   4.849  -0.017   4.432 -0.9594  0.2067 -1.6313
  775MOL0     H 4625   4.719   0.104   4.432  0.1616  1.4882  0.8732
  776MOL0     O 4626   6.046   6.596   8.406  0.3399 -0.5280 -0.6656
  776MOL0     C 4627   6.044   6.560   8.288  0.5855 -0.1581 -0.2856
  776MOL0     O 4628   6.132   6.605   8.196 -0.6812 -0.0905 -0.1848
  776MOL0     C 4629   6.247   6.678   8.234  0.2496  0.4165 -0.0952
  776MOL0     C 4630   6.304   6.713   8.360  0.4878  0.0467 -0.2567
  776MOL0     C 4631   6.430   6.774   8.375 -0.7053 -0.3472  0.0254
  776MOL0     C 4632   6.497   6.807   8.262  0.0104  0.0573  0.6300
  776MOL0     O 4633   6.618   6.870   8.262 -0.2028  0.3142 -0.2152
  776MOL0     C 4634   6.697   6.887   8.386 -0.5961 -0.0257  0.0978
  776MOL0     C 4635   6.835   6.934   8.343 -0.1096 -0.1153 -0.1068
  776MOL0     C 4636   6.930   6.973   8.457  0.7201 -0.5060  0.5390
  776MOL0     C 4637   7.056   7.038   8.400  0.9099 -0.8141  0.6619
  776MOL0     C 4638   7.152   7.084   8.516  0.0139  0.0137 -0.1707
  776MOL0     C 4639   7.082   7.180   8.617  0.5355 -0.6291 -0.3576
  776MOL0     C 4640   7.177   7.253   8.715  0.3979 -0.1525  0.1198
  776MOL0     C 4641   7.113   7.260   8.852  0.4700 -0.6502 -0.1446
  776MOL0     N 4642   7.211   7.288   8.964  1.1167  0.1421 -0.0110
  776MOL0     C 4643   7.243   7.410   9.009  0.3308  0.6296 -0.0649
  776MOL0     C 4644   7.309   7.391   9.123 -0.3066 -0.8351 -0.7410
  776MOL0     C 4645   7.373   7.502   9.204 -0.7145  0.8147 -0.4810
  776MOL0     C 4646   7.518   7.474   9.249  0.2629  0.8290  0.0628
  776MOL0     C 4647   7.615   7.449   9.126 -0.1611  0.4692 -0.4431
  776MOL0     C 4648   7.623   7.562   9.026  0.4411  0.7623  0.3651
  776MOL0     O 4649   7.737   7.555   8.939 -0.3326 -0.1627  0.4326
  776MOL0     C 4650   7.861   7.604   8.989  0.4096 -0.0653 -0.1519
  776MOL0     C 4651   7.887   7.670   9.112 -0.4245 -0.1732  0.6283
  776MOL0     C 4652   8.026   7.706   9.137  0.3781 -0.1855  0.2686
  776MOL0     C 4653   8.131   7.677   9.046  0.1636  1.0184  0.1845
  776MOL0     C 4654   8.274   7.707   9.075  0.9685 -0.8476  0.1997
  776MOL0     O 4655   8.370   7.679   8.985 -0.5575 -0.3184  0.2110
  776MOL0     C 4656   8.491   7.747   8.994  0.7073 -0.0245 -0.2007
  776MOL0     C 4657   8.496   7.887   8.983 -0.7203  0.0080  0.0307
  776MOL0     C 4658   8.619   7.953   8.966  0.7496  0.7197 -0.6454
  776MOL0     C 4659   8.743   7.880   8.963  0.5551  0.0284  0.8688
  776MOL0     O 4660   8.864   7.931   8.916  0.3345 -0.0908  0.1683
  776MOL0     C 4661   8.893   8.071   8.944  0.8606  0.2118 -0.1506
  776MOL0     C 4662   9.041   8.091   8.947 -0.2714  0.0871 -0.0741
  776MOL0     C 4663   9.109   8.000   9.056  0.0363 -0.6296  1.2585
  776MOL0     C 4664   9.262   8.011   9.024  0.2352 -0.0462 -0.5310
  776MOL0     C 4665   9.334   7.905   9.104 -1.0987  0.0552 -0.4070
  776MOL0     C 4666   9.485   7.924   9.095  0.3196  0.4787 -0.4963
  776MOL0     C 4667   9.552   7.829   9.195  0.5706 -0.1621  0.4896
  776MOL0     C 4668   9.693   7.868   9.229  0.1346  0.0958  0.2919
  776MOL0    Cl 4669   9.778   7.721   9.284  0.1483  0.0892  0.1983
  776MOL0     C 4670   8.738   7.739   8.980  0.0583  0.0539 -0.7172
  776MOL0     C 4671   8.611   7.678   8.999  0.1024 -0.0729 -0.6164
  776MOL0     O 4672   8.291   7.751   9.187 -1.0175 -0.5210 -0.5297
  776MOL0     C 4673   8.098   7.616   8.928 -0.3094  0.0821  0.3267
  776MOL0     C 4674   7.962   7.581   8.902 -0.3579  0.6016  1.1491
  776MOL0     N 4675   7.325   7.257   9.151 -0.3221 -0.2865  0.1112
  776MOL0     N 4676   7.255   7.197   9.057 -0.2592 -0.1108 -0.9613
  776MOL0     C 4677   6.441   6.778   8.133 -0.7120 -0.5388 -0.1038
  776MOL0     C 4678   6.321   6.712   8.117 -0.5287 -0.5824 -0.4347
  776MOL0     C 4679   5.946   6.454   8.260  0.8853  0.2030  0.2740
  776MOL0     C 4680   6.002   6.355   8.174 -0.4459  0.5305  0.7520
  776MOL0     C 4681   5.924   6.249   8.129  0.2670  0.0512  0.3987
  776MOL0     C 4682   5.790   6.243   8.155  0.4209 -0.5139  0.9081
  776MOL0     O 4683   5.725   6.136   8.093  0.0839  0.4487  0.2944
  776MOL0     C 4684   5.586   6.115   8.112  0.1779 -0.3928 -0.1065
  776MOL0     C 4685   5.519   6.023   8.001  0.1243  0.9332 -0.2125
  776MOL0     C 4686   5.376   5.967   8.034  0.2746  0.8184 -0.7282
  776MOL0     C 4687   5.376   5.838   8.128  0.2348  0.4376  0.1779
  776MOL0     C 4688   5.390   5.877   8.271 -0.0520  0.2218  0.3566
  776MOL0     C 4689   5.402   5.899   8.391  0.2910  0.2311  0.3067
  776MOL0     C 4690   5.727   6.342   8.234  0.6401 -0.2466 -0.1850
  776MOL0     C 4691   5.804   6.456   8.276  0.0890  0.1437 -0.3847
  776MOL0     C 4692   5.733   6.563   8.357  0.3647  0.0480  0.0833
  776MOL0     H 4693   6.250   6.702   8.454 -3.1051  2.7864 -1.7419
  776MOL0     H 4694   6.464   6.805   8.473  0.0504  2.7431 -1.1013
  776MOL0     H 4695   6.656   6.950   8.465  0.3857  0.4733  0.2285
  776MOL0     H 4696   6.724   6.787   8.422 -0.5275  0.9485  2.9494
  776MOL0     H 4697   6.821   7.011   8.267 -0.6725 -1.3673 -1.3383
  776MOL0     H 4698   6.868   6.849   8.282  0.1446  0.1045 -0.2766
  776MOL0     H 4699   6.961   6.896   8.528  1.6913  2.0558  3.0879
  776MOL0     H 4700   6.867   7.050   8.502 -0.7360  0.1457 -2.3402
  776MOL0     H 4701   7.118   6.971   8.341  0.0224  0.0917 -1.3928
  776MOL0     H 4702   7.029   7.122   8.335  1.4884 -2.7590 -2.3012
  776MOL0     H 4703   7.183   6.998   8.577 -1.7716  0.4741  1.4612
  776MOL0     H 4704   7.237   7.140   8.475 -1.5490  2.9988  0.4143
  776MOL0     H 4705   7.039   7.260   8.557  0.3472  0.3169  0.9866
  776MOL0     H 4706   7.005   7.126   8.674 -0.2897  0.5794 -0.3034
  776MOL0     H 4707   7.198   7.354   8.680  1.9706 -0.9439 -1.4039
  776MOL0     H 4708   7.269   7.194   8.706 -0.6117 -1.8967  0.7557
  776MOL0     H 4709   7.028   7.330   8.853  0.3233 -0.6897  3.5342
  776MOL0     H 4710   7.070   7.162   8.875 -0.2889 -0.5902 -1.2535
  776MOL0     H 4711   7.215   7.503   8.961 -1.9273  0.2587  0.4143
  776MOL0     H 4712   7.372   7.594   9.144  0.0965  1.8819  1.0842
  776MOL0     H 4713   7.316   7.519   9.296  0.5334  1.1866  0.2349
  776MOL0     H 4714   7.547   7.563   9.306 -3.0371  0.7191  2.1708
  776MOL0     H 4715   7.532   7.387   9.314  0.4933  0.0249 -1.0424
  776MOL0     H 4716   7.586   7.358   9.072 -1.6907  0.5610  0.1651
  776MOL0     H 4717   7.716   7.437   9.167 -0.5217  0.5933  0.5016
  776MOL0     H 4718   7.606   7.661   9.071 -0.3240 -0.2572  2.4729
  776MOL0     H 4719   7.537   7.540   8.963  0.1181 -0.3122  1.1514
  776MOL0     H 4720   7.807   7.707   9.175 -1.6286 -2.1200  0.3247
  776MOL0     H 4721   8.034   7.770   9.225  2.7517 -2.7863  2.0932
  776MOL0     H 4722   8.409   7.948   8.963 -0.5437  0.3815  0.3693
  776MOL0     H 4723   8.626   8.059   8.943 -0.5961  1.0596  0.3817
  776MOL0     H 4724   8.854   8.132   8.862  1.5235 -0.2085 -0.7832
  776MOL0     H 4725   8.849   8.096   9.041 -0.6345  0.3213 -0.8285
  776MOL0     H 4726   9.082   8.069   8.848 -0.8195 -1.5159  0.0279
  776MOL0     H 4727   9.071   8.195   8.967 -0.0295  0.2603 -1.2892
  776MOL0     H 4728   9.081   8.043   9.153 -0.3760  0.9484  0.4797
  776MOL0     H 4729   9.089   7.894   9.039  1.9510 -0.9116  0.5285
  776MOL0     H 4730   9.301   8.109   9.053 -0.3542  0.0386  0.0163
  776MOL0     H 4731   9.294   8.001   8.920  1.7616 -0.4268 -0.0495
  776MOL0     H 4732   9.299   7.807   9.070 -1.5928  0.4411 -1.0423
  776MOL0     H 4733   9.304   7.907   9.209 -0.0445  0.0530 -0.0924
  776MOL0     H 4734   9.517   7.899   8.994 -0.2524 -1.9232 -0.1647
  776MOL0     H 4735   9.520   8.023   9.123  0.6580 -0.2260  1.8329
  776MOL0     H 4736   9.542   7.730   9.150 -0.3796  0.1522 -0.0344
  776MOL0     H 4737   9.491   7.828   9.285 -0.6363 -1.4715 -0.2997
  776MOL0     H 4738   9.746   7.905   9.140 -0.3632 -0.9207 -0.4545
  776MOL0     H 4739   9.698   7.929   9.319  1.5206  1.0359 -0.3923
  776MOL0     H 4740   8.835   7.691   8.976  0.1058 -0.0662  1.0686
  776MOL0     H 4741   8.605   7.571   9.017 -3.8145  0.3426  1.5768
  776MOL0     H 4742   8.167   7.581   8.851  0.8001  2.8118 -0.0156
  776MOL0     H 4743   7.943   7.534   8.806 -1.5992  0.2315  1.5564
  776MOL0     H 4744   6.496   6.798   8.040 -1.3337  1.0263 -0.1671
  776MOL0     H 4745   6.288   6.678   8.020  0.3663 -1.2091 -0.5370
  776MOL0     H 4746   6.107   6.356   8.149 -1.0045  0.1347 -1.9955
  776MOL0     H 4747   5.971   6.172   8.069  1.5911  0.0195  1.4366
  776MOL0     H 4748   5.535   6.212   8.114 -0.5790 -0.7396 -1.2714
  776MOL0     H 4749   5.558   6.073   8.209 -3.1830  2.8401  0.5389
  776MOL0     H 4750   5.593   5.945   7.981 -0.0819 -0.0407  2.3684
  776MOL0     H 4751   5.504   6.085   7.912 -1.6692  0.8708  0.0025
  776MOL0     H 4752   5.325   5.938   7.942 -3.0438  2.0160  0.5986
  776MOL0     H 4753   5.310   6.043   8.077 -0.6028 -0.0610 -0.4898
  776MOL0     H 4754   5.285   5.778   8.117  0.4641 -0.1898  1.5445
  776MOL0     H 4755   5.466   5.779   8.109  0.5189  0.3136  1.8221
  776MOL0     H 4756   5.421   5.917   8.495  0.9919 -0.6701  0.3511
  776MOL0     H 4757   5.623   6.335   8.265  1.0462  1.2256  1.7123
  776MOL0     H 4758   5.791   6.656   8.357 -1.8942  1.5479  0.4069
  776MOL0     H 4759   5.645   6.592   8.299 -0.4279 -2.3239  0.0076
  776MOL0     H 4760   5.701   6.533   8.457 -1.6583 -1.6873 -0.9948
  777MOL0     O 4761   2.928   4.358   0.578  0.3583  0.3258  0.5536
  777MOL0     C 4762   2.911   4.306   0.688 -0.2335 -0.4355  0.0940
  777MOL0     O 4763   3.006   4.247   0.759  0.6340  0.4692 -0.3572
  777MOL0     C 4764   3.139   4.251   0.740 -0.8321  0.4225 -1.3066
  777MOL0     C 4765   3.211   4.349   0.687 -0.6191 -0.5189 -0.2861
  777MOL0     C 4766   3.348   4.341   0.674  0.2376  1.2372 -0.3644
  777MOL0     C 4767   3.420   4.222   0.719  0.4362  0.4928 -0.4170
  777MOL0     O 4768   3.554   4.205   0.687  0.0906  0.3552 -0.2184
  777MOL0     C 4769   3.636   4.144   0.787 -0.0406 -0.2991 -1.0409
  777MOL0     C 4770   3.784   4.132   0.769  0.3729  0.2728  0.0895
  777MOL0     C 4771   3.871   4.256   0.752  0.2279  0.0353 -0.3777
  777MOL0     C 4772   3.968   4.271   0.868 -0.3630  0.9700  0.0921
  777MOL0     C 4773   4.052   4.401   0.877  0.1506  0.4987  0.0188
  777MOL0     C 4774   4.157   4.420   0.759  0.2709  0.6720 -0.7086
  777MOL0     C 4775   4.294   4.458   0.824 -0.1628 -0.0680 -0.3371
  777MOL0     C 4776   4.298   4.604   0.884 -0.4254  0.5418  0.3877
  777MOL0     N 4777   4.418   4.623   0.957 -0.3371 -0.0007  0.1436
  777MOL0     C 4778   4.516   4.705   0.911  0.7130  0.1884 -0.5543
  777MOL0     C 4779   4.617   4.694   1.008  0.2870  0.2782  0.0902
  777MOL0     C 4780   4.755   4.754   0.988  0.6376 -0.7229 -0.5957
  777MOL0     C 4781   4.809   4.807   1.121  0.4470 -0.3485 -0.4132
  777MOL0     C 4782   4.708   4.897   1.202  0.5476  0.1406 -0.1440
  777MOL0     C 4783   4.775   4.990   1.304 -0.3172  0.1882  0.2877
  777MOL0     O 4784   4.858   5.080   1.240  0.2800  0.3257  0.2599
  777MOL0     C 4785   4.958   5.136   1.315  0.1697 -0.7531 -0.4274
  777MOL0     C 4786   5.084   5.171   1.256 -0.0468 -0.4984 -0.1535
  777MOL0     C 4787   5.191   5.224   1.335  0.5623  0.7914  0.0624
  777MOL0     C 4788   5.166   5.269   1.466 -0.8852 -0.6244  0.8355
  777MOL0     C 4789   5.285   5.336   1.543  0.1760  0.5841 -0.8667
  777MOL0     O 4790   5.254   5.376   1.676 -0.2200  0.0109 -0.0669
  777MOL0     C 4791   5.358   5.414   1.751 -0.0745 -0.1113  0.2924
  777MOL0     C 4792   5.446   5.520   1.724 -0.2036  0.2044  0.5767
  777MOL0     C 4793   5.559   5.543   1.802  0.0071 -0.7844  0.4633
  777MOL0     C 4794   5.589   5.461   1.909 -0.2475  0.8728 -0.1705
  777MOL0     O 4795   5.710   5.481   1.972  0.0900  0.3509  0.0002
  777MOL0     C 4796   5.809   5.382   1.952 -0.5269 -0.4316 -0.2616
  777MOL0     C 4797   5.939   5.447   2.004 -0.0639  0.0246  0.3298
  777MOL0     C 4798   5.984   5.534   1.891 -0.1313  0.4573 -0.5872
  777MOL0     C 4799   6.088   5.635   1.933  0.6233 -0.1017 -0.3735
  777MOL0     C 4800   6.222   5.566   1.969  1.4398  0.6108 -0.5289
  777MOL0     C 4801   6.332   5.674   1.990 -0.9578 -0.2164  0.7415
  777MOL0     C 4802   6.469   5.614   2.036 -0.3287  1.1444 -0.1909
  777MOL0     C 4803   6.583   5.706   2.026  0.0903 -0.3014 -1.0687
  777MOL0    Cl 4804   6.601   5.750   1.851  0.0564 -0.1036 -0.1923
  777MOL0     C 4805   5.505   5.355   1.941 -0.3836  0.7321 -0.4974
  777MOL0     C 4806   5.386   5.335   1.866 -0.0970 -0.0615  0.4766
  777MOL0     O 4807   5.399   5.321   1.498 -0.1200  0.4994 -0.5262
  777MOL0     C 4808   5.040   5.247   1.525  0.6891  0.8285  0.0254
  777MOL0     C 4809   4.941   5.180   1.454  0.5811 -0.0497 -0.5779
  777MOL0     N 4810   4.573   4.598   1.097 -0.3115 -0.2241  0.8394
  777MOL0     N 4811   4.460   4.558   1.063  0.2107  0.4635 -0.0486
  777MOL0     C 4812   3.347   4.121   0.787  0.7721  0.5614  0.9951
  777MOL0     C 4813   3.207   4.137   0.798 -1.1024 -0.5478  0.1714
  777MOL0     C 4814   2.771   4.314   0.738 -0.7189  0.5488  0.0258
  777MOL0     C 4815   2.736   4.209   0.828 -0.1842  0.7341 -0.1087
  777MOL0     C 4816   2.612   4.212   0.902 -0.3392  0.0010  0.4670
  777MOL0     C 4817   2.524   4.316   0.871  0.7518 -0.1468 -0.9768
  777MOL0     O 4818   2.413   4.324   0.950 -0.4898 -0.0832  0.4266
  777MOL0     C 4819   2.392   4.452   1.014 -0.0411  0.5685  0.1586
  777MOL0     C 4820   2.244   4.462   1.054  0.5116 -0.0425  0.1265
  777MOL0     C 4821   2.161   4.441   0.927  0.8627 -0.1382  0.2129
  777MOL0     C 4822   2.004   4.450   0.953  0.4406  0.2290  0.1450
  777MOL0     C 4823   1.961   4.363   1.061  0.3724  0.2544 -0.8206
  777MOL0     C 4824   1.948   4.269   1.146  0.7384 -0.2747  0.0955
  777MOL0     C 4825   2.547   4.401   0.762 -0.4218 -0.5716 -0.8188
  777MOL0     C 4826   2.673   4.410   0.704  0.2060 -0.1894 -0.5259
  777MOL0     C 4827   2.692   4.517   0.602 -0.9732  0.0744 -0.5776
  777MOL0     H 4828   3.158   4.436   0.650 -2.3334 -0.7843  1.3934
  777MOL0     H 4829   3.395   4.429   0.631  1.9805 -0.0520 -1.2232
  777MOL0     H 4830   3.610   4.200   0.877 -0.5124  0.8569 -1.8606
  777MOL0     H 4831   3.603   4.043   0.811  1.0313 -0.0064  2.1828
  777MOL0     H 4832   3.800   4.072   0.679 -1.1606 -1.3774  0.8580
  777MOL0     H 4833   3.821   4.068   0.850  0.4543  1.3314  0.9118
  777MOL0     H 4834   3.815   4.351   0.754 -0.1887 -0.2138  0.5254
  777MOL0     H 4835   3.919   4.243   0.655 -0.4293  0.0237 -0.7103
  777MOL0     H 4836   3.921   4.261   0.966 -1.0342  5.0093  0.3430
  777MOL0     H 4837   4.036   4.188   0.848  0.2555  0.8731  2.3428
  777MOL0     H 4838   3.988   4.489   0.888 -0.1413  0.6582 -2.3979
  777MOL0     H 4839   4.105   4.390   0.972  2.9839 -3.9239 -1.7444
  777MOL0     H 4840   4.161   4.332   0.695 -0.1035  0.3761 -0.3314
  777MOL0     H 4841   4.128   4.507   0.699 -2.3627 -0.5610 -1.3766
  777MOL0     H 4842   4.364   4.440   0.742 -0.8886 -1.2463 -0.7222
  777MOL0     H 4843   4.327   4.382   0.896  0.5041  0.2167 -0.3293
  777MOL0     H 4844   4.278   4.685   0.813 -1.2845  2.6393  2.8788
  777MOL0     H 4845   4.219   4.611   0.959 -0.0484  0.0569  0.8381
  777MOL0     H 4846   4.514   4.761   0.819 -0.5564 -1.2685 -1.4752
  777MOL0     H 4847   4.823   4.682   0.941  1.2487  0.0501 -0.9042
  777MOL0     H 4848   4.741   4.844   0.928 -2.6741  0.8836  2.2126
  777MOL0     H 4849   4.838   4.718   1.177 -0.5263  1.0481  2.5254
  777MOL0     H 4850   4.903   4.863   1.110 -0.6359  1.7367  0.4022
  777MOL0     H 4851   4.638   4.832   1.256  0.1008  0.5845 -0.1810
  777MOL0     H 4852   4.647   4.957   1.135  0.6787  0.0544 -0.3409
  777MOL0     H 4853   4.847   4.925   1.356 -0.0837 -0.9432 -1.3851
  777MOL0     H 4854   4.703   5.047   1.363 -2.6230 -0.6609 -1.5545
  777MOL0     H 4855   5.093   5.149   1.150 -1.4912 -1.0654 -0.1712
  777MOL0     H 4856   5.293   5.237   1.301  0.0436  2.4296 -0.9994
  777MOL0     H 4857   5.422   5.583   1.640 -1.3172  2.7042  2.6392
  777MOL0     H 4858   5.624   5.624   1.773 -1.5260 -0.1073 -1.2770
  777MOL0     H 4859   5.788   5.291   2.009 -0.2605 -0.2515  0.1307
  777MOL0     H 4860   5.810   5.355   1.846 -0.0827  0.9004 -0.6237
  777MOL0     H 4861   5.922   5.496   2.101  0.4624  1.9465 -0.4998
  777MOL0     H 4862   6.011   5.364   2.013  3.0243  2.5345  0.5516
  777MOL0     H 4863   6.028   5.476   1.809 -0.6154  0.5848 -0.9458
  777MOL0     H 4864   5.893   5.581   1.852 -1.4228 -1.5517 -0.1269
  777MOL0     H 4865   6.050   5.689   2.019  1.8055  1.1303 -0.5951
  777MOL0     H 4866   6.108   5.697   1.845 -1.9739  0.7933 -0.4123
  777MOL0     H 4867   6.261   5.504   1.888 -0.0231 -0.7533 -0.2250
  777MOL0     H 4868   6.204   5.501   2.055 -0.4073 -1.6150 -2.4675
  777MOL0     H 4869   6.342   5.731   1.897 -1.7203 -0.4600  0.5048
  777MOL0     H 4870   6.298   5.739   2.071 -2.4963 -2.8279  2.3217
  777MOL0     H 4871   6.487   5.526   1.974  0.8099  2.3539 -1.6676
  777MOL0     H 4872   6.450   5.584   2.139  1.4949  0.7045  0.0436
  777MOL0     H 4873   6.564   5.801   2.077  0.0004 -1.5978  1.4958
  777MOL0     H 4874   6.675   5.656   2.056 -0.6393 -1.6055 -0.9150
  777MOL0     H 4875   5.532   5.285   2.019  1.0488  1.0906 -0.6356
  777MOL0     H 4876   5.323   5.249   1.883 -0.5864  0.5259  1.7543
  777MOL0     H 4877   5.027   5.277   1.628  1.4926 -1.8764  1.0043
  777MOL0     H 4878   4.844   5.168   1.501 -0.2271  1.6772 -1.6926
  777MOL0     H 4879   3.390   4.027   0.821  0.2240 -0.0229  0.1391
  777MOL0     H 4880   3.147   4.056   0.839 -1.1123 -0.6529 -0.0524
  777MOL0     H 4881   2.804   4.125   0.842 -0.8718 -0.0748 -1.3430
  777MOL0     H 4882   2.582   4.131   0.969  0.1520 -0.4041  0.1973
  777MOL0     H 4883   2.424   4.532   0.947 -0.3492  1.3272  0.8961
  777MOL0     H 4884   2.459   4.448   1.101  2.8396 -1.2637 -1.9546
  777MOL0     H 4885   2.211   4.560   1.089  0.9614  0.2681 -0.3161
  777MOL0     H 4886   2.216   4.385   1.127 -2.1540 -0.4689 -1.1969
  777MOL0     H 4887   2.173   4.340   0.886 -1.5224 -0.4730  0.1946
  777MOL0     H 4888   2.181   4.517   0.851  0.4232 -2.3236 -2.2357
  777MOL0     H 4889   1.978   4.554   0.974  1.8338  0.7988 -0.7963
  777MOL0     H 4890   1.953   4.425   0.860 -1.4109  0.9163  0.9371
  777MOL0     H 4891   1.927   4.187   1.212 -1.5760 -1.2474 -1.6981
  777MOL0     H 4892   2.460   4.457   0.729 -0.6234 -0.9791 -0.9825
  777MOL0     H 4893   2.787   4.570   0.613 -2.0715  1.7501  1.6241
  777MOL0     H 4894   2.681   4.462   0.508  0.1404 -2.8391  0.8766
  777MOL0     H 4895   2.620   4.599   0.600 -0.6938  0.4989  2.4269
  778MOL0     O 4896   6.189   4.966   5.114 -0.6416  0.5342  0.2920
  778MOL0     C 4897   6.134   5.070   5.142 -0.7207  0.4954  0.0766
  778MOL0     O 4898   6.202   5.182   5.185 -0.9946  0.4523  0.1624
  778MOL0     C 4899   6.340   5.193   5.181  0.4021 -0.3265  0.1352
  778MOL0     C 4900   6.419   5.115   5.102 -0.4160  0.5793 -0.5668
  778MOL0     C 4901   6.556   5.136   5.094  0.2405  0.0478 -0.0834
  778MOL0     C 4902   6.619   5.237   5.162  0.0766 -0.8354  1.0850
  778MOL0     O 4903   6.752   5.264   5.126 -0.0042 -0.1477 -0.2767
  778MOL0     C 4904   6.841   5.192   5.213 -0.2259  0.0989 -0.3545
  778MOL0     C 4905   6.982   5.236   5.175  0.1983 -0.1701  0.1993
  778MOL0     C 4906   7.079   5.162   5.264  0.7020  0.2206 -0.1622
  778MOL0     C 4907   7.217   5.168   5.217 -0.0276 -0.5600  0.4411
  778MOL0     C 4908   7.314   5.093   5.306  0.0477 -0.9032  0.2143
  778MOL0     C 4909   7.439   5.071   5.226  0.1610  0.3688 -0.0007
  778MOL0     C 4910   7.493   5.185   5.141 -0.1489  0.2752 -0.2518
  778MOL0     C 4911   7.648   5.148   5.101  0.4163  0.4302 -0.7139
  778MOL0     N 4912   7.677   5.207   4.970 -0.3880  0.0403 -0.1050
  778MOL0     C 4913   7.736   5.331   4.941 -0.7813 -0.3101  0.4601
  778MOL0     C 4914   7.752   5.339   4.808 -0.3516  0.5372 -0.3605
  778MOL0     C 4915   7.803   5.449   4.722 -0.5715 -0.4088  0.3699
  778MOL0     C 4916   7.957   5.442   4.708  0.6580  0.0646  0.5895
  778MOL0     C 4917   8.022   5.481   4.841  0.5565  0.5285 -0.3780
  778MOL0     C 4918   8.164   5.526   4.831  0.2734  0.3846  0.4107
  778MOL0     O 4919   8.172   5.642   4.751  0.7843 -0.7885 -0.0069
  778MOL0     C 4920   8.284   5.722   4.781 -0.4714  0.4960  0.0011
  778MOL0     C 4921   8.414   5.680   4.781  0.5814  0.0340  0.1820
  778MOL0     C 4922   8.525   5.764   4.805 -0.1894 -1.2648  0.5495
  778MOL0     C 4923   8.502   5.895   4.830 -0.3230  0.7102  0.0512
  778MOL0     C 4924   8.616   5.982   4.868 -0.1162  0.4709  0.7670
  778MOL0     O 4925   8.591   6.118   4.880 -0.4478 -0.2140  0.8447
  778MOL0     C 4926   8.703   6.197   4.902 -0.6508  0.1216  1.1019
  778MOL0     C 4927   8.743   6.295   4.811  0.1542  0.2039  0.9300
  778MOL0     C 4928   8.851   6.382   4.847 -0.3418  0.2600 -0.6743
  778MOL0     C 4929   8.912   6.389   4.977  0.6251 -0.2113 -0.3375
  778MOL0     O 4930   9.004   6.489   4.990 -0.4939 -0.4440  0.7408
  778MOL0     C 4931   9.051   6.534   5.114  0.4164  0.4403 -1.4262
  778MOL0     C 4932   8.948   6.615   5.190 -1.0366  0.1482 -0.7887
  778MOL0     C 4933   8.903   6.736   5.105 -0.4306  0.2747  0.2775
  778MOL0     C 4934   8.836   6.834   5.186 -1.0490 -0.3929 -0.3934
  778MOL0     C 4935   8.777   6.943   5.101  0.9815 -0.8123  1.1543
  778MOL0     C 4936   8.871   7.031   5.012  0.6338 -0.4458  0.8746
  778MOL0     C 4937   8.789   7.154   4.958  0.6012 -0.2177  0.8618
  778MOL0     C 4938   8.857   7.257   4.877 -0.9410  0.0539 -0.0225
  778MOL0    Cl 4939   8.991   7.333   4.966 -0.0391 -0.3083 -0.4910
  778MOL0     C 4940   8.859   6.296   5.068 -0.1372  0.6062 -0.7502
  778MOL0     C 4941   8.758   6.198   5.026 -0.2299  0.3637  0.2403
  778MOL0     O 4942   8.723   5.927   4.881  0.5191  0.0527  0.2238
  778MOL0     C 4943   8.373   5.944   4.825  1.0297 -0.8186  0.0617
  778MOL0     C 4944   8.267   5.861   4.785 -0.2553  0.4579  0.0962
  778MOL0     N 4945   7.700   5.222   4.757 -0.3814  1.4023  0.5905
  778MOL0     N 4946   7.648   5.144   4.855 -0.7461 -0.9905  0.2489
  778MOL0     C 4947   6.544   5.321   5.244 -0.1054 -0.2737 -0.1641
  778MOL0     C 4948   6.403   5.301   5.252  0.0137 -0.1603  0.9764
  778MOL0     C 4949   5.986   5.089   5.125 -0.4567  0.0913 -0.3248
  778MOL0     C 4950   5.930   5.200   5.189  0.4048 -0.2071  0.1154
  778MOL0     C 4951   5.792   5.218   5.183  0.0799  0.2364 -0.4392
  778MOL0     C 4952   5.702   5.126   5.138  0.3606  0.7561  1.1519
  778MOL0     O 4953   5.574   5.153   5.161  0.3041 -0.2322  0.4184
  778MOL0     C 4954   5.472   5.057   5.121 -0.4034 -0.7387  0.3312
  778MOL0     C 4955   5.335   5.126   5.122 -0.2532 -0.1238 -0.7074
  778MOL0     C 4956   5.317   5.235   5.005  0.5387  0.0547  0.0685
  778MOL0     C 4957   5.214   5.341   5.039  0.5379 -0.1649  0.4502
  778MOL0     C 4958   5.075   5.285   5.039  0.0905  0.5265  0.5111
  778MOL0     C 4959   4.965   5.237   5.046  0.6720 -0.0588  0.6019
  778MOL0     C 4960   5.758   5.017   5.077 -1.5013  0.2391  0.1061
  778MOL0     C 4961   5.896   4.993   5.071 -0.4120  0.3903  0.0802
  778MOL0     C 4962   5.949   4.868   5.007  0.2617  0.8230 -0.6436
  778MOL0     H 4963   6.373   5.050   5.028 -1.8693 -0.4304  1.1457
  778MOL0     H 4964   6.614   5.075   5.025 -0.5914 -0.7035 -0.1352
  778MOL0     H 4965   6.829   5.216   5.319 -1.5114  1.1714 -0.7140
  778MOL0     H 4966   6.830   5.084   5.199 -0.6946  0.1908 -0.7600
  778MOL0     H 4967   6.993   5.343   5.193 -1.1614  0.4064 -1.9402
  778MOL0     H 4968   7.007   5.229   5.069 -2.6168  2.2890 -0.7520
  778MOL0     H 4969   7.041   5.060   5.269 -1.2816  0.8189 -1.5329
  778MOL0     H 4970   7.075   5.203   5.365 -0.2041 -0.7967  0.2380
  778MOL0     H 4971   7.220   5.129   5.115  3.9224  1.4589 -0.4341
  778MOL0     H 4972   7.245   5.274   5.212  0.4998 -0.6514  1.2905
  778MOL0     H 4973   7.339   5.157   5.391 -1.3992  0.3036 -0.2183
  778MOL0     H 4974   7.283   4.997   5.347  0.6789 -0.9779  0.5237
  778MOL0     H 4975   7.518   5.048   5.299 -0.5353  0.5253  0.8158
  778MOL0     H 4976   7.428   4.984   5.161  2.7847 -0.1251  0.1137
  778MOL0     H 4977   7.495   5.285   5.185 -2.0161  0.9863 -1.6744
  778MOL0     H 4978   7.424   5.196   5.057 -2.3243  2.2234  1.6528
  778MOL0     H 4979   7.718   5.180   5.180  2.5505  0.7287 -2.6193
  778MOL0     H 4980   7.662   5.041   5.082  1.1811  0.3180  0.3288
  778MOL0     H 4981   7.771   5.413   5.003  1.5651  0.7577 -2.0670
  778MOL0     H 4982   7.758   5.428   4.624 -3.0290 -0.5054  1.4259
  778MOL0     H 4983   7.764   5.547   4.751  0.8300  0.2281  0.1719
  778MOL0     H 4984   7.985   5.343   4.672 -1.1770  0.0930 -1.0708
  778MOL0     H 4985   7.990   5.512   4.631 -0.5887 -0.5087 -0.5043
  778MOL0     H 4986   8.019   5.400   4.915 -1.9261  1.4165  0.6124
  778MOL0     H 4987   7.965   5.557   4.896  0.3648 -0.8149  1.4053
  778MOL0     H 4988   8.231   5.447   4.794  1.4925  1.1355  0.9843
  778MOL0     H 4989   8.198   5.561   4.929 -0.0358 -0.6828  0.9143
  778MOL0     H 4990   8.434   5.573   4.779 -0.5165 -0.1972  0.9486
  778MOL0     H 4991   8.625   5.721   4.803  1.1641  1.5832  1.5092
  778MOL0     H 4992   8.703   6.297   4.710  0.3053 -2.3910  0.7541
  778MOL0     H 4993   8.879   6.451   4.768  1.3436 -1.7134 -1.8860
  778MOL0     H 4994   9.085   6.449   5.175  0.4718  1.2730 -0.2601
  778MOL0     H 4995   9.139   6.595   5.097  1.6541 -1.0865 -0.7288
  778MOL0     H 4996   8.857   6.562   5.216 -0.2303  0.2655  2.7237
  778MOL0     H 4997   8.992   6.647   5.285 -1.6410  0.1817 -0.5188
  778MOL0     H 4998   8.981   6.788   5.048  0.5628 -0.2313  1.1308
  778MOL0     H 4999   8.842   6.689   5.027  2.1981 -0.3305 -1.5887
  778MOL0     H 5000   8.897   6.883   5.261 -1.0870 -0.4676 -0.3135
  778MOL0     H 5001   8.754   6.780   5.235  0.0822 -3.1732 -1.3446
  778MOL0     H 5002   8.720   7.008   5.167  1.7952  0.3628  0.7206
  778MOL0     H 5003   8.700   6.901   5.034 -0.4637 -0.0810  2.3015
  778MOL0     H 5004   8.963   7.062   5.062  1.1859  0.3172 -0.5658
  778MOL0     H 5005   8.905   6.979   4.923  2.5747  1.1447  0.6214
  778MOL0     H 5006   8.754   7.211   5.044  1.2052  0.8418  0.4267
  778MOL0     H 5007   8.700   7.117   4.905  0.5881  1.0494 -0.0477
  778MOL0     H 5008   8.890   7.215   4.781 -1.6298 -2.2419  0.6842
  778MOL0     H 5009   8.778   7.329   4.856  1.4053  2.5575 -0.8064
  778MOL0     H 5010   8.906   6.290   5.166  0.9034  0.9183 -1.2216
  778MOL0     H 5011   8.729   6.118   5.093 -3.6136  1.7698  0.6314
  778MOL0     H 5012   8.349   6.049   4.834  1.5737 -0.4226 -2.4105
  778MOL0     H 5013   8.170   5.905   4.765 -0.4162 -1.7135 -6.1663
  778MOL0     H 5014   6.593   5.410   5.283  1.3286 -0.1405 -2.1030
  778MOL0     H 5015   6.341   5.374   5.303 -0.9423  0.5319 -1.0950
  778MOL0     H 5016   5.994   5.277   5.231 -2.4751  2.6822 -0.3656
  778MOL0     H 5017   5.758   5.313   5.223 -1.3973 -0.1985 -0.5721
  778MOL0     H 5018   5.468   4.979   5.197 -0.1082  0.1924  1.3382
  778MOL0     H 5019   5.497   5.025   5.020 -0.9721 -2.2696  0.6497
  778MOL0     H 5020   5.316   5.178   5.216 -3.5179  3.0593 -2.8063
  778MOL0     H 5021   5.260   5.047   5.109 -0.2169  0.0553 -2.1608
  778MOL0     H 5022   5.288   5.183   4.913  0.6980  3.2039 -1.9012
  778MOL0     H 5023   5.413   5.284   4.989  0.1317  0.5046 -1.0715
  778MOL0     H 5024   5.230   5.387   5.136  0.5474  0.1601  0.2954
  778MOL0     H 5025   5.216   5.415   4.958 -2.8769 -0.1805  0.2077
  778MOL0     H 5026   4.865   5.199   5.044  1.1563 -1.3368 -0.4362
  778MOL0     H 5027   5.685   4.951   5.030 -0.8244 -1.2488  1.0787
  778MOL0     H 5028   6.016   4.887   4.923  0.0022 -1.4438 -1.4376
  778MOL0     H 5029   6.006   4.820   5.087  3.2839  2.7275 -1.4793
  778MOL0     H 5030   5.870   4.802   4.970  1.8889 -0.3626 -2.1982
  779MOL0     O 5031   3.638   7.630   5.741  0.6061  0.3874  0.1186
  779MOL0     C 5032   3.584   7.547   5.813  0.0351 -1.0726  0.8700
  779MOL0     O 5033   3.641   7.498   5.933 -0.0920  0.1410 -0.0114
  779MOL0     C 5034   3.714   7.595   5.999 -0.1868  0.1281  0.1243
  779MOL0     C 5035   3.843   7.622   5.962  0.5365  0.0536  0.2501
  779MOL0     C 5036   3.925   7.709   6.041 -0.8966 -0.1941  0.8050
  779MOL0     C 5037   3.867   7.780   6.143  0.5830  0.4127 -0.4723
  779MOL0     O 5038   3.948   7.872   6.205  0.7627  0.5932 -0.0332
  779MOL0     C 5039   3.959   7.866   6.349  0.8261  0.1529  0.2428
  779MOL0     C 5040   4.091   7.922   6.387  0.1006  0.4597  0.0956
  779MOL0     C 5041   4.204   7.847   6.320  0.7032  0.0804  0.0402
  779MOL0     C 5042   4.339   7.893   6.375 -0.3273 -0.1178  0.0347
  779MOL0     C 5043   4.387   7.805   6.486  0.2057  0.2375  0.4944
  779MOL0     C 5044   4.483   7.884   6.575  0.5136  0.2194  0.2246
  779MOL0     C 5045   4.518   7.802   6.694  0.1418  0.6013 -0.7303
  779MOL0     C 5046   4.599   7.679   6.655 -1.6598  0.1695  0.0930
  779MOL0     N 5047   4.744   7.705   6.646 -0.2260 -0.6369 -0.2751
  779MOL0     C 5048   4.829   7.713   6.752  1.2124  0.0195 -0.1860
  779MOL0     C 5049   4.940   7.759   6.694 -0.2132 -0.2462 -0.5136
  779MOL0     C 5050   5.058   7.819   6.773  0.4595  0.5425 -0.1340
  779MOL0     C 5051   5.182   7.743   6.737 -0.1212  0.0213  0.6430
  779MOL0     C 5052   5.250   7.686   6.856  0.6506 -0.4258  0.2537
  779MOL0     C 5053   5.389   7.637   6.820  0.8989  0.0860  0.4373
  779MOL0     O 5054   5.449   7.606   6.948 -0.2976  0.4153 -0.3063
  779MOL0     C 5055   5.576   7.567   6.942 -1.0582  0.2705 -0.8728
  779MOL0     C 5056   5.649   7.528   6.832  0.2104 -0.6870  0.2162
  779MOL0     C 5057   5.785   7.498   6.836 -0.8279  0.0537  0.5503
  779MOL0     C 5058   5.856   7.489   6.953  0.0281 -0.3312 -0.2123
  779MOL0     C 5059   6.007   7.452   6.956  0.0888  0.2687  0.6183
  779MOL0     O 5060   6.047   7.436   7.084  0.1758  0.3516 -0.0210
  779MOL0     C 5061   6.181   7.419   7.123  0.1453  0.6207  1.0039
  779MOL0     C 5062   6.291   7.447   7.049  0.1036 -0.5779 -0.5493
  779MOL0     C 5063   6.415   7.421   7.098 -0.7071 -0.4908 -0.6565
  779MOL0     C 5064   6.435   7.377   7.233 -0.7676  0.5249 -0.3319
  779MOL0     O 5065   6.567   7.359   7.272 -0.1936 -0.4730 -0.2887
  779MOL0     C 5066   6.587   7.339   7.412 -0.9483 -0.7551  1.0223
  779MOL0     C 5067   6.738   7.336   7.440  0.3601  0.5207  0.7101
  779MOL0     C 5068   6.826   7.275   7.319  0.3798  0.2246  0.4358
  779MOL0     C 5069   6.973   7.291   7.342 -0.3451  0.5889 -0.5732
  779MOL0     C 5070   7.014   7.443   7.349  0.2710  0.0186  0.0000
  779MOL0     C 5071   7.168   7.475   7.308  0.5119  0.2264 -0.5707
  779MOL0     C 5072   7.174   7.484   7.151 -1.2356 -0.3575 -0.8084
  779MOL0     C 5073   7.317   7.469   7.110 -0.2673  0.1847 -0.5862
  779MOL0    Cl 5074   7.413   7.602   7.191 -0.2635 -0.1735  0.2462
  779MOL0     C 5075   6.322   7.360   7.318  0.6847 -0.7946 -1.4917
  779MOL0     C 5076   6.200   7.380   7.257  1.2014 -0.1578 -0.5070
  779MOL0     O 5077   6.067   7.420   6.855 -0.4704 -0.4440 -0.0267
  779MOL0     C 5078   5.782   7.511   7.071  1.1307 -0.5394  0.3009
  779MOL0     C 5079   5.644   7.554   7.067 -0.0573  0.6729  0.3929
  779MOL0     N 5080   4.931   7.767   6.560 -0.4109  0.4531  0.5798
  779MOL0     N 5081   4.810   7.730   6.531 -0.3097  0.1312 -0.4329
  779MOL0     C 5082   3.729   7.752   6.181  0.2483 -0.4558 -0.4132
  779MOL0     C 5083   3.657   7.657   6.108  0.0049  0.0082 -0.3013
  779MOL0     C 5084   3.460   7.484   5.766  0.6153  0.4173  0.8021
  779MOL0     C 5085   3.434   7.348   5.794  1.0938  0.0756  0.5599
  779MOL0     C 5086   3.319   7.293   5.747  0.2578  0.2874 -0.5029
  779MOL0     C 5087   3.225   7.363   5.679  0.1322  0.8346 -0.3644
  779MOL0     O 5088   3.106   7.294   5.653 -0.1089  0.1081  0.4388
  779MOL0     C 5089   2.987   7.375   5.616 -0.0977  0.4576  0.7725
  779MOL0     C 5090   2.996   7.397   5.462 -0.3894 -0.1319  0.4422
  779MOL0     C 5091   3.011   7.258   5.389  0.6759 -0.0760 -0.2960
  779MOL0     C 5092   2.958   7.272   5.247  0.6120 -0.0962 -1.0067
  779MOL0     C 5093   3.016   7.383   5.170  0.3911 -0.0116  0.0281
  779MOL0     C 5094   3.049   7.491   5.128 -0.3761  0.0156  0.0709
  779MOL0     C 5095   3.250   7.497   5.651 -0.5406 -0.0479  0.7610
  779MOL0     C 5096   3.366   7.565   5.690  0.3444 -0.0818 -0.7528
  779MOL0     C 5097   3.379   7.713   5.658  0.1255 -0.3473  0.4246
  779MOL0     H 5098   3.875   7.578   5.868 -0.4935 -1.1024  0.4189
  779MOL0     H 5099   4.020   7.743   6.002 -2.0084  1.4215 -0.6432
  779MOL0     H 5100   3.883   7.923   6.404 -0.2158 -0.3696 -0.6213
  779MOL0     H 5101   3.941   7.766   6.390 -3.2857  1.0131  0.9900
  779MOL0     H 5102   4.108   7.912   6.494  4.1738 -1.5056 -0.5439
  779MOL0     H 5103   4.091   8.031   6.374 -2.1748  0.6449  1.1216
  779MOL0     H 5104   4.190   7.865   6.213  0.4571  1.8969  0.3473
  779MOL0     H 5105   4.195   7.739   6.333  0.4625  0.1867  0.8164
  779MOL0     H 5106   4.417   7.888   6.298  0.0171 -2.3774  0.4585
  779MOL0     H 5107   4.335   7.998   6.406  1.7292  0.6452 -1.9872
  779MOL0     H 5108   4.297   7.766   6.534 -0.6646 -1.0798 -1.9915
  779MOL0     H 5109   4.433   7.721   6.431 -2.0909  0.2964 -1.7078
  779MOL0     H 5110   4.572   7.921   6.523  0.4211 -0.1231 -0.1777
  779MOL0     H 5111   4.415   7.960   6.613  0.4179  0.3343 -0.1731
  779MOL0     H 5112   4.423   7.768   6.736 -1.8662  2.3175 -3.5560
  779MOL0     H 5113   4.569   7.863   6.770  1.4597  0.3358 -1.3595
  779MOL0     H 5114   4.591   7.608   6.738  3.1215 -1.8882 -0.8255
  779MOL0     H 5115   4.565   7.635   6.560 -1.7864 -3.1930  1.5592
  779MOL0     H 5116   4.801   7.723   6.857  1.5113  0.6117 -0.1610
  779MOL0     H 5117   5.084   7.923   6.748  0.0839  0.2994 -1.5974
  779MOL0     H 5118   5.025   7.821   6.877 -1.5057  0.0242 -0.7187
  779MOL0     H 5119   5.167   7.669   6.659 -1.7485 -0.8289  1.7017
  779MOL0     H 5120   5.250   7.812   6.685  0.4082 -0.8661  0.1331
  779MOL0     H 5121   5.188   7.604   6.893  0.8514 -0.7202 -0.0529
  779MOL0     H 5122   5.248   7.761   6.935 -2.8880 -0.3206  0.1965
  779MOL0     H 5123   5.445   7.718   6.771  0.2410 -0.7596 -1.8054
  779MOL0     H 5124   5.382   7.552   6.752 -1.6570  1.8245 -1.7137
  779MOL0     H 5125   5.594   7.525   6.739  0.0860 -1.1863  0.3016
  779MOL0     H 5126   5.838   7.467   6.746 -1.5410 -0.0205  0.1495
  779MOL0     H 5127   6.289   7.475   6.944  0.4580 -0.2370 -0.4652
  779MOL0     H 5128   6.506   7.425   7.040 -0.1019 -0.3732  0.2733
  779MOL0     H 5129   6.534   7.415   7.471 -0.4168  0.4522  0.0055
  779MOL0     H 5130   6.537   7.247   7.443 -0.6456 -2.0412 -1.9823
  779MOL0     H 5131   6.763   7.441   7.458  1.4402  0.8225 -2.0757
  779MOL0     H 5132   6.754   7.276   7.530  0.4690  0.4254  0.6271
  779MOL0     H 5133   6.804   7.168   7.314 -0.2060  0.3470  0.3838
  779MOL0     H 5134   6.794   7.321   7.225  1.9164  0.7777  0.1493
  779MOL0     H 5135   7.020   7.245   7.254 -0.3864 -0.0493 -0.2718
  779MOL0     H 5136   7.005   7.239   7.433  2.2465  1.6811 -0.7638
  779MOL0     H 5137   6.990   7.478   7.450  2.4577 -4.0092  2.1852
  779MOL0     H 5138   6.951   7.503   7.284 -0.9863 -1.1883  0.0737
  779MOL0     H 5139   7.204   7.567   7.356  2.2084  0.1735 -1.6839
  779MOL0     H 5140   7.224   7.393   7.354  1.5493  1.1828 -0.0651
  779MOL0     H 5141   7.146   7.587   7.126 -0.7346 -0.5423 -2.1910
  779MOL0     H 5142   7.112   7.407   7.105 -0.3492 -0.7630 -1.3243
  779MOL0     H 5143   7.354   7.371   7.143  0.6392  1.0130  1.0352
  779MOL0     H 5144   7.317   7.471   7.001  1.3782 -0.7858 -0.6497
  779MOL0     H 5145   6.325   7.332   7.423  0.2005  1.5935 -0.7658
  779MOL0     H 5146   6.112   7.365   7.319 -0.5319 -0.3000 -2.8770
  779MOL0     H 5147   5.824   7.513   7.172 -2.2696 -2.9445  1.9555
  779MOL0     H 5148   5.584   7.570   7.156  0.1358 -1.5195  0.9749
  779MOL0     H 5149   3.695   7.796   6.274  0.5566  0.5693 -0.7724
  779MOL0     H 5150   3.559   7.625   6.141 -0.3807 -0.7842 -2.1095
  779MOL0     H 5151   3.500   7.283   5.850 -1.4625 -2.8102  0.4766
  779MOL0     H 5152   3.291   7.197   5.789 -0.6144  1.1293  0.8978
  779MOL0     H 5153   2.973   7.471   5.667 -3.6361  0.5677 -0.1469
  779MOL0     H 5154   2.896   7.318   5.636 -0.6437  0.3997 -1.5955
  779MOL0     H 5155   3.085   7.455   5.435  2.3454 -4.3207 -0.3467
  779MOL0     H 5156   2.910   7.457   5.432 -1.2525 -1.0263  1.0670
  779MOL0     H 5157   2.949   7.182   5.436  2.0582 -0.9902  0.1044
  779MOL0     H 5158   3.116   7.227   5.393  0.4815 -0.6129  0.9654
  779MOL0     H 5159   2.962   7.187   5.178 -1.4358  0.3253 -1.7426
  779MOL0     H 5160   2.851   7.297   5.251  0.4556 -0.0855 -3.4614
  779MOL0     H 5161   3.099   7.578   5.092 -1.2681  0.4969 -0.0316
  779MOL0     H 5162   3.189   7.550   5.579 -0.5367  0.1015  0.8663
  779MOL0     H 5163   3.287   7.772   5.648  0.6637  0.4171 -0.1954
  779MOL0     H 5164   3.422   7.771   5.739  1.3455  1.3099 -1.3199
  779MOL0     H 5165   3.443   7.728   5.571  1.7248 -2.5828  1.1384
  780MOL0     O 5166   1.961   4.982  10.543  0.2412  0.0994 -0.2719
  780MOL0     C 5167   1.928   5.051  10.641 -0.7864 -0.2061 -0.6531
  780MOL0     O 5168   2.008   5.073  10.747 -0.5893 -0.2531  0.5129
  780MOL0     C 5169   2.137   5.048  10.722 -0.1091 -0.1643  0.1824
  780MOL0     C 5170   2.188   4.917  10.765  0.1445 -0.5381  0.5125
  780MOL0     C 5171   2.321   4.883  10.740  0.6813 -0.0797  0.4341
  780MOL0     C 5172   2.400   4.977  10.677 -0.3040 -0.8002  0.6386
  780MOL0     O 5173   2.531   4.978  10.643 -0.2391 -0.3686 -0.1936
  780MOL0     C 5174   2.606   4.873  10.691 -0.1366  1.0481 -0.3057
  780MOL0     C 5175   2.751   4.883  10.650 -0.0855 -0.3468 -1.0442
  780MOL0     C 5176   2.819   5.007  10.708  0.0959 -0.5643  0.0428
  780MOL0     C 5177   2.968   5.013  10.694  0.0239 -0.1772  0.2964
  780MOL0     C 5178   3.043   5.114  10.790  0.6799 -0.2651  0.0155
  780MOL0     C 5179   3.199   5.099  10.800  0.5418  1.0783  0.2136
  780MOL0     C 5180   3.269   5.123  10.665 -0.1182  0.0542 -0.5776
  780MOL0     C 5181   3.256   5.270  10.624 -0.1600 -0.1664  0.3962
  780MOL0     N 5182   3.352   5.322  10.524  0.1191 -0.6237 -0.5057
  780MOL0     C 5183   3.327   5.342  10.394  0.2065 -0.0763  0.2226
  780MOL0     C 5184   3.435   5.420  10.350  0.0165 -0.5440 -0.2128
  780MOL0     C 5185   3.450   5.484  10.218  0.2846 -0.3722  0.4017
  780MOL0     C 5186   3.591   5.482  10.158 -1.0500  0.5340 -0.4838
  780MOL0     C 5187   3.602   5.548  10.014  0.0014  0.6065 -1.2368
  780MOL0     C 5188   3.748   5.566   9.981  0.0846 -0.5269  0.2209
  780MOL0     O 5189   3.758   5.625   9.852  0.3488  0.9821  0.5852
  780MOL0     C 5190   3.879   5.656   9.817 -0.6718  0.2917  0.8143
  780MOL0     C 5191   3.949   5.760   9.868 -0.9751  0.7650 -0.4403
  780MOL0     C 5192   4.072   5.789   9.809  0.6254 -0.0481  0.0193
  780MOL0     C 5193   4.132   5.712   9.713 -0.5038  0.5944 -0.2260
  780MOL0     C 5194   4.257   5.764   9.646  0.8979  0.1272  0.4158
  780MOL0     O 5195   4.302   5.694   9.541 -1.1030  0.6777 -0.8327
  780MOL0     C 5196   4.410   5.729   9.471 -0.3045  0.0610  0.1322
  780MOL0     C 5197   4.529   5.815   9.501  0.0329  0.5196 -1.1731
  780MOL0     C 5198   4.638   5.822   9.417  0.3883  0.1118 -0.2066
  780MOL0     C 5199   4.643   5.743   9.301 -0.1624  0.2815 -0.1231
  780MOL0     O 5200   4.748   5.744   9.209  0.3232  0.1591  0.0766
  780MOL0     C 5201   4.851   5.845   9.214 -0.3380  0.3610  0.0005
  780MOL0     C 5202   4.949   5.806   9.106  1.4334 -0.6822  0.4454
  780MOL0     C 5203   5.052   5.916   9.092 -0.1691 -0.0073  0.3032
  780MOL0     C 5204   5.190   5.853   9.099  0.3563  0.1337 -0.3342
  780MOL0     C 5205   5.301   5.943   9.073  0.6353  0.4396  0.3134
  780MOL0     C 5206   5.440   5.894   9.125  0.2723 -0.1406 -0.1926
  780MOL0     C 5207   5.551   5.985   9.072  0.6585  0.0891 -0.0308
  780MOL0     C 5208   5.690   5.950   9.135 -0.1687 -0.5463 -0.0769
  780MOL0    Cl 5209   5.817   6.018   9.037 -0.1800 -0.4761  0.3097
  780MOL0     C 5210   4.526   5.671   9.259 -0.4414 -0.5279 -0.4631
  780MOL0     C 5211   4.416   5.653   9.348 -0.3295  0.1588  0.4132
  780MOL0     O 5212   4.312   5.864   9.693  0.3180  0.8856  0.0843
  780MOL0     C 5213   4.062   5.600   9.671  0.4743  0.1462 -0.0898
  780MOL0     C 5214   3.932   5.575   9.714  0.3279  0.7282 -0.8388
  780MOL0     N 5215   3.519   5.443  10.460  0.3125  0.4420  0.7223
  780MOL0     N 5216   3.472   5.376  10.565  0.1453 -0.5624 -0.2497
  780MOL0     C 5217   2.348   5.103  10.640 -0.2994  1.0836  0.6920
  780MOL0     C 5218   2.216   5.137  10.651  1.2509  0.5805  0.0005
  780MOL0     C 5219   1.809   5.132  10.633 -0.2353  0.6255 -0.6446
  780MOL0     C 5220   1.793   5.253  10.703 -0.8948  0.3347 -0.4901
  780MOL0     C 5221   1.679   5.331  10.702 -0.3816  0.8854 -0.2023
  780MOL0     C 5222   1.574   5.285  10.623 -0.3859  0.7123  0.2511
  780MOL0     O 5223   1.456   5.358  10.627  0.9054 -0.0789 -0.1516
  780MOL0     C 5224   1.430   5.444  10.521  0.0739 -0.6289 -0.1778
  780MOL0     C 5225   1.285   5.459  10.492  0.2044  0.2785  0.0889
  780MOL0     C 5226   1.226   5.318  10.468  0.3949 -0.2811  0.0161
  780MOL0     C 5227   1.091   5.330  10.391 -0.5892  0.0594  0.1055
  780MOL0     C 5228   1.118   5.353  10.244  0.7416 -0.2159 -0.7682
  780MOL0     C 5229   1.140   5.347  10.129  0.0939  0.5411 -0.8145
  780MOL0     C 5230   1.584   5.166  10.552 -0.6558  0.4563 -0.2714
  780MOL0     C 5231   1.695   5.082  10.564 -0.0107  0.5386  0.4956
  780MOL0     C 5232   1.677   4.944  10.492  0.6911 -0.5183 -0.0394
  780MOL0     H 5233   2.120   4.847  10.812 -1.7481 -1.4788 -3.2831
  780MOL0     H 5234   2.360   4.791  10.781  0.0378  0.9776  3.6603
  780MOL0     H 5235   2.601   4.860  10.800  0.1126 -0.4121 -0.4459
  780MOL0     H 5236   2.559   4.782  10.652 -3.2278  2.1555  0.5654
  780MOL0     H 5237   2.762   4.895  10.542  0.7051 -0.1376 -0.9454
  780MOL0     H 5238   2.805   4.790  10.666 -1.1687 -0.8687 -0.3038
  780MOL0     H 5239   2.798   5.014  10.815  0.1894 -2.4201  0.2116
  780MOL0     H 5240   2.766   5.092  10.666 -0.1969 -0.6266  0.2785
  780MOL0     H 5241   2.990   4.914  10.735  1.5658  1.0553  2.6790
  780MOL0     H 5242   2.996   5.031  10.590  1.0737  1.8463  0.8883
  780MOL0     H 5243   3.005   5.210  10.754 -0.7476 -1.7006 -2.5899
  780MOL0     H 5244   3.008   5.100  10.893  1.2715  0.7929  0.3843
  780MOL0     H 5245   3.238   5.170  10.874 -0.3670  2.7837 -0.8821
  780MOL0     H 5246   3.234   5.000  10.832 -2.7148 -0.9944 -2.0550
  780MOL0     H 5247   3.222   5.057  10.592 -1.1121  0.7101 -0.5491
  780MOL0     H 5248   3.375   5.095  10.668 -0.1701 -0.3227 -1.7418
  780MOL0     H 5249   3.160   5.275  10.571  0.5699  0.5824 -0.9190
  780MOL0     H 5250   3.269   5.335  10.711  1.0559  0.9012 -0.5392
  780MOL0     H 5251   3.242   5.295  10.345  1.0968 -2.5191  0.8643
  780MOL0     H 5252   3.390   5.431  10.144  1.3294  2.3719 -2.6473
  780MOL0     H 5253   3.418   5.588  10.217 -0.2975 -0.5527  0.2518
  780MOL0     H 5254   3.653   5.527  10.236 -1.2875 -1.6044  1.0332
  780MOL0     H 5255   3.623   5.380  10.137 -2.8466 -0.2858  0.4919
  780MOL0     H 5256   3.547   5.642  10.003  1.5323  1.5884 -0.7535
  780MOL0     H 5257   3.559   5.479   9.939  2.5817  0.3846 -2.6308
  780MOL0     H 5258   3.806   5.473   9.979 -0.4166 -0.8424 -2.0588
  780MOL0     H 5259   3.788   5.639  10.053 -0.2121 -0.0402 -0.1021
  780MOL0     H 5260   3.905   5.827   9.942 -1.0851  0.6701 -0.4205
  780MOL0     H 5261   4.110   5.883   9.846 -2.2719  1.2322  0.0345
  780MOL0     H 5262   4.540   5.872   9.593  2.6331 -0.8167 -0.5463
  780MOL0     H 5263   4.720   5.890   9.439  0.3424  0.6460 -1.5827
  780MOL0     H 5264   4.809   5.942   9.186 -1.8856  0.0604  1.0955
  780MOL0     H 5265   4.908   5.844   9.307  0.0815 -0.3950 -0.2599
  780MOL0     H 5266   4.992   5.710   9.137  3.4436  0.5920  1.8259
  780MOL0     H 5267   4.898   5.791   9.010 -0.0113  0.1469  1.0579
  780MOL0     H 5268   5.049   5.952   8.989  1.5077  0.1542  0.2776
  780MOL0     H 5269   5.045   5.992   9.170  2.3257 -0.0601  0.6586
  780MOL0     H 5270   5.184   5.773   9.025 -0.6224  1.4198 -1.7024
  780MOL0     H 5271   5.204   5.808   9.197  4.8458  1.4880 -0.1053
  780MOL0     H 5272   5.268   6.038   9.118 -2.9551 -0.2666 -0.4881
  780MOL0     H 5273   5.315   5.956   8.966  0.6765 -1.6499  0.0288
  780MOL0     H 5274   5.430   5.907   9.233  1.4692 -2.4984  0.2642
  780MOL0     H 5275   5.456   5.789   9.101 -0.2474  0.0022 -1.1946
  780MOL0     H 5276   5.529   6.089   9.099 -0.9034 -0.7226  2.1612
  780MOL0     H 5277   5.562   5.971   8.964  0.4042 -0.8241  0.0493
  780MOL0     H 5278   5.697   5.995   9.234 -0.3163 -1.4712  0.3564
  780MOL0     H 5279   5.694   5.841   9.133 -0.2509 -0.6306 -4.0059
  780MOL0     H 5280   4.527   5.613   9.167 -2.2256  1.0082 -1.5171
  780MOL0     H 5281   4.336   5.594   9.305 -0.5929  0.2228  0.8206
  780MOL0     H 5282   4.092   5.541   9.585  1.2309 -0.0589  0.2996
  780MOL0     H 5283   3.872   5.498   9.667 -1.8414  0.8580  1.4532
  780MOL0     H 5284   2.409   5.174  10.585  0.5808  0.4254  0.7868
  780MOL0     H 5285   2.187   5.237  10.620  1.8262 -0.0769 -2.9124
  780MOL0     H 5286   1.873   5.278  10.771 -1.5866  0.1101  0.4292
  780MOL0     H 5287   1.666   5.414  10.771  0.5886 -1.5563  3.1978
  780MOL0     H 5288   1.483   5.408  10.432 -1.0157 -1.4828 -0.5058
  780MOL0     H 5289   1.470   5.541  10.550  1.4034 -1.1511 -0.1609
  780MOL0     H 5290   1.266   5.528  10.410  0.8808  0.6957  0.2748
  780MOL0     H 5291   1.244   5.502  10.584 -0.8453  1.2090 -0.7939
  780MOL0     H 5292   1.210   5.278  10.568 -1.0657 -1.0976 -0.5190
  780MOL0     H 5293   1.292   5.247  10.417  1.4195 -0.0002  0.9226
  780MOL0     H 5294   1.049   5.229  10.389  2.4068 -1.3419  1.4208
  780MOL0     H 5295   1.016   5.401  10.427  2.2922  2.0566  2.6460
  780MOL0     H 5296   1.178   5.323  10.032 -0.1468  0.6327 -0.9304
  780MOL0     H 5297   1.499   5.136  10.491 -1.0347 -1.9296  1.2887
  780MOL0     H 5298   1.700   4.858  10.556  0.5850 -0.4072  0.1520
  780MOL0     H 5299   1.578   4.926  10.449 -0.0135  0.9346  0.9095
  780MOL0     H 5300   1.746   4.935  10.408 -0.0649 -0.7782 -0.6525
  781MOL0     O 5301  10.033   4.655  10.569 -0.2317  0.1349  0.1790
  781MOL0     C 5302   9.975   4.679  10.463  0.6198  0.9922 -0.3002
  781MOL0     O 5303  10.026   4.650  10.341  0.1781 -0.2268  0.0687
  781MOL0     C 5304  10.151   4.603  10.330 -0.8658  0.2020 -0.4931
  781MOL0     C 5305  10.261   4.689  10.337 -0.3708  0.9922 -0.9926
  781MOL0     C 5306  10.392   4.642  10.314  0.1237  0.1444 -0.3498
  781MOL0     C 5307  10.419   4.502  10.278 -0.2680  0.1325  0.6721
  781MOL0     O 5308  10.550   4.476  10.229  0.2596 -0.0922 -0.1743
  781MOL0     C 5309  10.603   4.337  10.233  0.1340 -0.8815 -0.9527
  781MOL0     C 5310  10.734   4.337  10.152 -0.0799 -0.3544 -0.8678
  781MOL0     C 5311  10.855   4.391  10.229 -0.0836  0.3756 -0.5109
  781MOL0     C 5312  10.986   4.338  10.159  0.1474 -0.6647  0.1037
  781MOL0     C 5313  11.106   4.359  10.253  0.8506 -0.0704  0.0109
  781MOL0     C 5314  11.238   4.351  10.176  0.0542  0.3012  0.1802
  781MOL0     C 5315  11.355   4.352  10.274  0.3597 -0.1769  0.2920
  781MOL0     C 5316  11.484   4.331  10.206 -1.2877  0.1928 -0.3402
  781MOL0     N 5317  11.600   4.398  10.274  0.4379 -0.3914  1.0380
  781MOL0     C 5318  11.639   4.529  10.282 -0.3424  0.0958  0.0581
  781MOL0     C 5319  11.763   4.536  10.333  0.4812  0.0964 -0.6956
  781MOL0     C 5320  11.838   4.662  10.359  0.1045 -0.6245 -0.3320
  781MOL0     C 5321  11.985   4.661  10.299 -0.7561 -0.5280 -0.6671
  781MOL0     C 5322  12.054   4.800  10.337 -0.0553 -0.0409  0.2328
  781MOL0     C 5323  12.201   4.808  10.289  0.1145 -0.2327 -0.3071
  781MOL0     O 5324  12.259   4.934  10.328 -0.1480  0.7234  0.6793
  781MOL0     C 5325  12.346   4.933  10.429 -0.4795  0.1623 -0.1835
  781MOL0     C 5326  12.471   4.867  10.416  0.1314 -0.6895  0.6877
  781MOL0     C 5327  12.569   4.876  10.516 -1.3314 -0.1685 -0.7992
  781MOL0     C 5328  12.539   4.930  10.643  0.8617  0.7420  0.4759
  781MOL0     C 5329  12.627   4.924  10.759  0.1492  0.1682 -0.2579
  781MOL0     O 5330  12.747   4.867  10.738  0.0296 -0.0891 -0.7204
  781MOL0     C 5331  12.850   4.882  10.830 -0.3635  0.5300  0.0552
  781MOL0     C 5332  12.931   4.776  10.852 -0.7461  0.3572 -0.5874
  781MOL0     C 5333  13.027   4.780  10.954 -0.0394 -0.0961  0.1748
  781MOL0     C 5334  13.058   4.899  11.011  0.4160 -0.5236 -0.5990
  781MOL0     O 5335  13.147   4.894  11.118  0.1724 -0.0253  0.2030
  781MOL0     C 5336  13.178   5.013  11.183  0.1489  1.1235 -0.2210
  781MOL0     C 5337  13.292   5.099  11.113  0.0729  0.3028 -0.0272
  781MOL0     C 5338  13.421   5.024  11.131 -0.0046  0.3471 -0.2628
  781MOL0     C 5339  13.533   5.124  11.077 -0.2157 -0.2294  0.4346
  781MOL0     C 5340  13.668   5.062  11.082  0.5344 -0.7710  0.1749
  781MOL0     C 5341  13.772   5.156  11.020  0.3168  0.2723 -0.1677
  781MOL0     C 5342  13.823   5.268  11.118 -0.5171  0.5383  0.2090
  781MOL0     C 5343  13.956   5.317  11.079  0.8133  0.0562  0.4376
  781MOL0    Cl 5344  14.077   5.185  11.079  0.3570 -0.1440  0.0627
  781MOL0     C 5345  12.993   5.015  10.966 -0.5956 -0.6981 -0.7150
  781MOL0     C 5346  12.891   5.002  10.881  0.4521 -0.6751  0.4865
  781MOL0     O 5347  12.581   4.962  10.865 -0.0603 -0.0611  0.1747
  781MOL0     C 5348  12.412   4.989  10.652  0.3636  0.5662 -0.8508
  781MOL0     C 5349  12.331   5.007  10.541  0.5559  0.5226  0.0626
  781MOL0     N 5350  11.796   4.400  10.365  0.2188 -0.0209 -0.0277
  781MOL0     N 5351  11.700   4.320  10.317  1.0705  0.0289  0.4519
  781MOL0     C 5352  10.307   4.416  10.277 -0.6347  0.0365  0.6904
  781MOL0     C 5353  10.174   4.464  10.308  0.1069  0.4073 -0.6908
  781MOL0     C 5354   9.836   4.730  10.465 -1.0082 -0.1500 -0.6337
  781MOL0     C 5355   9.788   4.806  10.357 -0.1229  0.7447  0.0770
  781MOL0     C 5356   9.656   4.860  10.358  0.4888 -0.0342  0.5594
  781MOL0     C 5357   9.578   4.852  10.471  0.0682 -0.8705 -0.3546
  781MOL0     O 5358   9.447   4.899  10.475  0.3299  0.2676  0.7131
  781MOL0     C 5359   9.400   4.955  10.604  0.1861  0.6407 -0.0453
  781MOL0     C 5360   9.289   4.870  10.662 -0.4257  0.3052 -0.5046
  781MOL0     C 5361   9.180   4.852  10.552 -0.3028  0.1142 -0.0691
  781MOL0     C 5362   9.062   4.781  10.620  0.5228 -0.1398  0.9048
  781MOL0     C 5363   8.993   4.872  10.722  0.3045  0.2411 -0.1850
  781MOL0     C 5364   8.941   4.941  10.803 -0.7954 -0.3934 -0.7510
  781MOL0     C 5365   9.635   4.785  10.584  0.2065 -0.2294  0.0208
  781MOL0     C 5366   9.753   4.718  10.580 -0.2676  0.0034  0.5587
  781MOL0     C 5367   9.778   4.639  10.699 -0.4720 -0.2799 -0.3169
  781MOL0     H 5368  10.236   4.794  10.348 -1.3738  0.6658  0.0395
  781MOL0     H 5369  10.476   4.710  10.313  0.8742 -0.7519 -2.0699
  781MOL0     H 5370  10.634   4.319  10.336 -0.2951  3.7694  0.2022
  781MOL0     H 5371  10.532   4.266  10.189  0.0202  0.0955 -2.4391
  781MOL0     H 5372  10.717   4.384  10.055  1.0066  0.3107 -0.7541
  781MOL0     H 5373  10.750   4.232  10.130  0.6310 -0.0691 -1.7680
  781MOL0     H 5374  10.854   4.341  10.327  1.4274 -1.5317 -1.3892
  781MOL0     H 5375  10.858   4.500  10.231 -0.2115  0.3704  0.6553
  781MOL0     H 5376  10.971   4.237  10.118 -1.2120 -0.9019  1.1071
  781MOL0     H 5377  11.011   4.408  10.079 -1.4626 -0.7577 -0.5214
  781MOL0     H 5378  11.090   4.449  10.312 -0.7400 -1.0163  1.0911
  781MOL0     H 5379  11.111   4.277  10.326 -1.1322 -1.2241 -1.0723
  781MOL0     H 5380  11.251   4.263  10.112 -1.0523 -0.2443  0.6841
  781MOL0     H 5381  11.252   4.429  10.100  2.7688 -0.5484 -0.2767
  781MOL0     H 5382  11.332   4.278  10.352 -3.0608 -2.2126 -2.3354
  781MOL0     H 5383  11.352   4.448  10.327 -0.1007 -1.7783  3.4020
  781MOL0     H 5384  11.514   4.227  10.193  0.1398  0.4109  0.9984
  781MOL0     H 5385  11.473   4.364  10.102 -1.0202 -1.1502 -0.8117
  781MOL0     H 5386  11.581   4.617  10.257 -1.6091 -0.3514  1.3143
  781MOL0     H 5387  11.781   4.743  10.311  0.3230 -0.3542 -0.1407
  781MOL0     H 5388  11.831   4.682  10.466 -2.6217  1.2806 -0.7522
  781MOL0     H 5389  12.046   4.575  10.326 -1.2756 -0.8061 -0.3641
  781MOL0     H 5390  11.968   4.661  10.191  1.2482  1.4074 -1.0560
  781MOL0     H 5391  12.059   4.808  10.446  2.9765 -1.3988  0.3121
  781MOL0     H 5392  12.012   4.892  10.295  0.6557 -0.4026 -1.3463
  781MOL0     H 5393  12.203   4.806  10.179  0.1721  1.0897 -0.3485
  781MOL0     H 5394  12.260   4.718  10.311  1.0956  0.0839 -1.5050
  781MOL0     H 5395  12.494   4.811  10.327  1.2666  0.6434  0.1044
  781MOL0     H 5396  12.663   4.830  10.489 -0.6871  0.7242 -0.1785
  781MOL0     H 5397  12.913   4.688  10.792  1.9289  0.3032 -1.4496
  781MOL0     H 5398  13.069   4.682  10.972 -1.5003 -1.0442 -1.2451
  781MOL0     H 5399  13.090   5.075  11.203  0.6797  2.1710 -1.0131
  781MOL0     H 5400  13.212   4.977  11.281  0.5136  0.4852 -0.5737
  781MOL0     H 5401  13.267   5.117  11.008 -1.1479 -0.9891  0.0073
  781MOL0     H 5402  13.292   5.197  11.163 -2.1807  1.3543 -1.8905
  781MOL0     H 5403  13.438   4.989  11.234  0.3276 -0.5537 -0.6161
  781MOL0     H 5404  13.415   4.926  11.083 -0.8045  0.1307  0.2451
  781MOL0     H 5405  13.547   5.219  11.129 -2.5851  1.6566 -2.0609
  781MOL0     H 5406  13.504   5.157  10.977 -1.8468  0.1355  0.9963
  781MOL0     H 5407  13.676   4.974  11.017  5.7692  0.4945 -1.3229
  781MOL0     H 5408  13.681   5.035  11.187 -1.3696  3.6027  1.7437
  781MOL0     H 5409  13.858   5.095  10.991  0.6540  1.0892 -0.9085
  781MOL0     H 5410  13.736   5.206  10.929 -0.9803  0.5449  0.4629
  781MOL0     H 5411  13.845   5.218  11.213 -0.0118 -2.2864 -1.2660
  781MOL0     H 5412  13.753   5.350  11.135 -1.5339  0.0933 -1.5254
  781MOL0     H 5413  13.935   5.355  10.979 -1.1270 -0.0253  0.7696
  781MOL0     H 5414  13.982   5.406  11.137  0.2374 -0.0091  0.8175
  781MOL0     H 5415  13.015   5.116  10.997  1.6662 -1.6553  1.1653
  781MOL0     H 5416  12.837   5.083  10.833 -1.8808 -3.0119 -1.0673
  781MOL0     H 5417  12.382   5.037  10.744  0.4560 -0.6776 -0.1377
  781MOL0     H 5418  12.230   5.046  10.552  0.3234  0.7960 -2.4269
  781MOL0     H 5419  10.330   4.310  10.267  3.4457  0.5808  2.3739
  781MOL0     H 5420  10.086   4.401  10.298 -0.4616  1.2668 -1.2564
  781MOL0     H 5421   9.841   4.824  10.264  0.9211 -2.5827 -0.1220
  781MOL0     H 5422   9.632   4.905  10.262 -0.1119  0.1636  0.7960
  781MOL0     H 5423   9.359   5.055  10.586 -0.0743  0.4214 -0.6966
  781MOL0     H 5424   9.481   4.963  10.678  1.9041  0.4612 -1.8295
  781MOL0     H 5425   9.255   4.926  10.750  0.8146  1.4741 -0.7322
  781MOL0     H 5426   9.332   4.772  10.685 -0.8395  0.1958 -0.1760
  781MOL0     H 5427   9.226   4.800  10.467  2.2675  0.7613  0.8212
  781MOL0     H 5428   9.155   4.954  10.520  1.3495  0.0610 -1.6590
  781MOL0     H 5429   8.993   4.753  10.540  2.2707 -0.5512 -0.5031
  781MOL0     H 5430   9.082   4.679  10.655  2.0224 -0.3391 -0.4186
  781MOL0     H 5431   8.878   4.995  10.871 -0.6039 -0.0606 -0.8401
  781MOL0     H 5432   9.582   4.785  10.679  0.8185 -1.8553  0.3858
  781MOL0     H 5433   9.849   4.560  10.672 -0.3028  0.0046 -0.7258
  781MOL0     H 5434   9.805   4.706  10.781 -1.0346  0.7810 -0.9810
  781MOL0     H 5435   9.693   4.582  10.736 -0.5847  1.4232  2.2730
  782MOL0     O 5436   8.921   3.613   3.796 -0.6472 -0.1932 -0.1451
  782MOL0     C 5437   8.903   3.715   3.865  0.0999 -0.0819  0.4636
  782MOL0     O 5438   8.971   3.829   3.854 -0.5438 -0.0678 -0.1724
  782MOL0     C 5439   9.097   3.839   3.803 -0.3305  0.4191  0.5565
  782MOL0     C 5440   9.186   3.734   3.764 -0.7719  0.1598  0.2618
  782MOL0     C 5441   9.321   3.770   3.740 -0.8317 -0.5259 -0.2028
  782MOL0     C 5442   9.367   3.908   3.739  0.2978  0.0455  0.5721
  782MOL0     O 5443   9.494   3.950   3.713  0.4001 -0.0539  0.2611
  782MOL0     C 5444   9.598   3.852   3.722 -0.0509 -0.8482  0.2376
  782MOL0     C 5445   9.732   3.921   3.687 -0.3959  0.0684 -0.3219
  782MOL0     C 5446   9.829   3.806   3.660  0.4088  0.1093 -0.0041
  782MOL0     C 5447   9.966   3.853   3.607 -0.6112 -0.0521  0.1275
  782MOL0     C 5448  10.057   3.723   3.593  1.3668  0.3169  0.3558
  782MOL0     C 5449  10.204   3.749   3.575  0.2962  0.1652 -0.3895
  782MOL0     C 5450  10.273   3.631   3.507  0.3528 -0.2074  0.6204
  782MOL0     C 5451  10.268   3.497   3.573  0.3058  0.6056 -1.2096
  782MOL0     N 5452  10.342   3.509   3.699 -0.2367 -0.1251  0.7968
  782MOL0     C 5453  10.484   3.509   3.700  1.1871 -0.4751 -0.2375
  782MOL0     C 5454  10.518   3.534   3.829  0.4756 -1.1717 -0.0806
  782MOL0     C 5455  10.648   3.558   3.885 -0.5689  0.3978 -0.0212
  782MOL0     C 5456  10.742   3.625   3.779  0.1630  0.4938  0.5970
  782MOL0     C 5457  10.703   3.761   3.736 -0.7061  0.7074  0.5673
  782MOL0     C 5458  10.820   3.815   3.654  0.2172  0.9768 -0.4865
  782MOL0     O 5459  10.944   3.826   3.737 -0.4520  0.4403  0.5771
  782MOL0     C 5460  11.055   3.812   3.653 -0.6379  0.5183 -0.9414
  782MOL0     C 5461  11.069   3.870   3.530 -0.5463  0.0789  0.2483
  782MOL0     C 5462  11.196   3.859   3.454  0.3313 -0.7340 -0.2766
  782MOL0     C 5463  11.309   3.812   3.515 -0.6840  0.2449  0.4377
  782MOL0     C 5464  11.445   3.793   3.445  0.8806 -0.2604  0.1211
  782MOL0     O 5465  11.551   3.758   3.525 -0.6721  0.0229 -0.2806
  782MOL0     C 5466  11.665   3.708   3.476  0.5159 -0.1085  0.0408
  782MOL0     C 5467  11.665   3.595   3.387 -0.2541  0.4662  0.3745
  782MOL0     C 5468  11.792   3.544   3.343  1.3796  1.0557  0.0776
  782MOL0     C 5469  11.915   3.594   3.395  0.7901 -1.1253  0.4128
  782MOL0     O 5470  12.015   3.519   3.350 -0.0629 -0.5120  0.2967
  782MOL0     C 5471  12.141   3.538   3.411  0.1275  0.0568 -0.0088
  782MOL0     C 5472  12.223   3.410   3.384 -0.2667 -0.0402  0.3475
  782MOL0     C 5473  12.299   3.414   3.240 -0.2064  0.8884  0.3088
  782MOL0     C 5474  12.369   3.283   3.214 -0.5847 -0.3981 -0.2969
  782MOL0     C 5475  12.490   3.288   3.118  0.5713 -0.7747  0.0966
  782MOL0     C 5476  12.617   3.350   3.186  0.0569 -0.7870 -0.5929
  782MOL0     C 5477  12.730   3.369   3.089 -1.0027 -0.1788 -0.7082
  782MOL0     C 5478  12.862   3.425   3.155  0.1587  0.0088  0.3784
  782MOL0    Cl 5479  12.828   3.590   3.198  0.3696 -0.0616  0.4641
  782MOL0     C 5480  11.902   3.692   3.494 -0.6393  0.0414  0.5528
  782MOL0     C 5481  11.779   3.746   3.535 -0.6458 -0.2404 -0.3411
  782MOL0     O 5482  11.448   3.800   3.325 -0.2771  0.1047 -0.8851
  782MOL0     C 5483  11.290   3.758   3.648 -0.1094  0.2506 -0.3062
  782MOL0     C 5484  11.170   3.762   3.715  0.4863  0.2495  0.1628
  782MOL0     N 5485  10.399   3.539   3.907  0.1341  0.3626  0.2499
  782MOL0     N 5486  10.298   3.521   3.826  0.1457 -0.5553 -0.2626
  782MOL0     C 5487   9.282   3.995   3.783 -0.1100 -0.2451  0.3406
  782MOL0     C 5488   9.151   3.964   3.817  0.0229  0.4420 -0.0117
  782MOL0     C 5489   8.796   3.714   3.967  0.5549 -0.0346  0.6408
  782MOL0     C 5490   8.744   3.832   4.011  0.1238  0.3129  0.4755
  782MOL0     C 5491   8.651   3.837   4.112 -0.0149  0.0932  0.3588
  782MOL0     C 5492   8.593   3.723   4.163 -0.0544  0.1287  0.4600
  782MOL0     O 5493   8.505   3.732   4.264 -1.1418  0.1048  0.0299
  782MOL0     C 5494   8.399   3.823   4.257  0.8222 -0.6168 -0.0914
  782MOL0     C 5495   8.321   3.808   4.132  0.4657 -0.7501  0.0857
  782MOL0     C 5496   8.187   3.897   4.131 -0.3270  0.3438 -0.7671
  782MOL0     C 5497   8.211   4.049   4.135 -0.1011 -0.5060 -0.2874
  782MOL0     C 5498   8.297   4.087   4.019  0.0634 -0.5322 -0.1702
  782MOL0     C 5499   8.371   4.132   3.935  0.1413  0.1183  0.5530
  782MOL0     C 5500   8.663   3.604   4.128  0.4048 -0.3256  0.4615
  782MOL0     C 5501   8.759   3.594   4.030 -0.5138  0.5534  0.0642
  782MOL0     C 5502   8.817   3.466   3.990  0.1498  0.3056  0.0248
  782MOL0     H 5503   9.161   3.628   3.767  0.3747 -0.1791 -1.3740
  782MOL0     H 5504   9.391   3.689   3.723  0.1533  0.1896  0.3527
  782MOL0     H 5505   9.606   3.803   3.820 -0.2568 -2.1967 -0.3960
  782MOL0     H 5506   9.582   3.767   3.655 -0.8064 -0.1934 -0.4269
  782MOL0     H 5507   9.770   3.980   3.771  1.5030 -2.4521  0.7123
  782MOL0     H 5508   9.724   3.989   3.601 -1.9355 -0.3992 -0.5853
  782MOL0     H 5509   9.796   3.733   3.586 -0.5594  0.3711  0.1549
  782MOL0     H 5510   9.833   3.749   3.754  1.8365  0.9639  0.4799
  782MOL0     H 5511   9.959   3.892   3.505 -2.2457 -0.6293 -0.0137
  782MOL0     H 5512  10.017   3.916   3.681 -1.2963 -1.6395  2.0336
  782MOL0     H 5513  10.042   3.663   3.683 -1.1086  2.2709  1.3670
  782MOL0     H 5514  10.015   3.664   3.510 -0.4162 -0.7151  1.9206
  782MOL0     H 5515  10.214   3.832   3.504  0.6692 -0.8058 -1.5065
  782MOL0     H 5516  10.259   3.776   3.666  1.7503  1.8770 -1.6843
  782MOL0     H 5517  10.379   3.657   3.494  0.2249  0.0272  0.0225
  782MOL0     H 5518  10.234   3.627   3.405  0.5850  1.4094  0.4308
  782MOL0     H 5519  10.166   3.461   3.591  1.1448 -1.3220 -0.0854
  782MOL0     H 5520  10.311   3.429   3.499 -1.4885 -1.3459 -0.5612
  782MOL0     H 5521  10.554   3.489   3.620  0.5905  0.0577 -0.9092
  782MOL0     H 5522  10.637   3.620   3.974 -0.3267 -0.9757  1.0091
  782MOL0     H 5523  10.699   3.470   3.925 -3.9837 -2.0807 -0.6515
  782MOL0     H 5524  10.841   3.633   3.825 -0.1585  0.8293  1.2400
  782MOL0     H 5525  10.751   3.557   3.694  0.1739 -1.0759  1.8148
  782MOL0     H 5526  10.689   3.820   3.827 -0.1499  1.9108 -0.1085
  782MOL0     H 5527  10.607   3.764   3.683 -0.0614  3.1733 -0.5855
  782MOL0     H 5528  10.800   3.915   3.615  0.5420  1.5634  0.8028
  782MOL0     H 5529  10.827   3.736   3.580 -1.1850  0.4881 -0.1163
  782MOL0     H 5530  10.977   3.916   3.496 -0.7875  1.5730  2.7068
  782MOL0     H 5531  11.201   3.893   3.351  0.9824 -0.7861 -0.2656
  782MOL0     H 5532  11.570   3.564   3.344  0.1315  2.2570 -1.9870
  782MOL0     H 5533  11.799   3.467   3.267  1.9877 -0.6540  1.7777
  782MOL0     H 5534  12.192   3.631   3.385  1.4016 -1.0526 -1.6592
  782MOL0     H 5535  12.133   3.551   3.519  0.4495 -0.0688  0.0309
  782MOL0     H 5536  12.294   3.406   3.467  2.0063 -0.2176 -1.5212
  782MOL0     H 5537  12.147   3.331   3.384  0.7087 -1.0089 -0.7130
  782MOL0     H 5538  12.226   3.439   3.162 -1.1809  0.3736  1.0530
  782MOL0     H 5539  12.373   3.495   3.241 -0.0810  0.7718  0.4209
  782MOL0     H 5540  12.296   3.213   3.173 -2.7635  0.6000  1.6329
  782MOL0     H 5541  12.401   3.255   3.315 -1.4110  1.7772  0.6371
  782MOL0     H 5542  12.470   3.356   3.035 -1.5185 -1.7649 -0.2769
  782MOL0     H 5543  12.516   3.187   3.082  2.6573 -0.0933 -0.4604
  782MOL0     H 5544  12.600   3.447   3.233  1.2310 -0.9030  0.1033
  782MOL0     H 5545  12.647   3.274   3.259  1.2907 -1.4045 -1.6907
  782MOL0     H 5546  12.705   3.450   3.020 -0.5966  0.0337 -0.6092
  782MOL0     H 5547  12.750   3.273   3.040 -1.2578 -0.7223  0.2294
  782MOL0     H 5548  12.886   3.371   3.247  0.1157  0.9056  0.9253
  782MOL0     H 5549  12.944   3.420   3.083  0.8772 -0.1415  1.1923
  782MOL0     H 5550  11.993   3.717   3.546  0.2376 -1.9965  0.1245
  782MOL0     H 5551  11.779   3.820   3.616  1.5032 -0.8067  0.2380
  782MOL0     H 5552  11.374   3.720   3.704 -0.0203  1.0757  0.1276
  782MOL0     H 5553  11.174   3.733   3.820  1.4310  1.8880  0.6254
  782MOL0     H 5554   9.308   4.101   3.781 -2.6328  0.4392 -2.0950
  782MOL0     H 5555   9.092   4.049   3.852 -1.7440 -1.7220  2.6870
  782MOL0     H 5556   8.795   3.920   3.973  2.2343 -0.5690  1.1058
  782MOL0     H 5557   8.618   3.936   4.144  0.9001  0.1773  1.0958
  782MOL0     H 5558   8.424   3.929   4.272  1.2468 -0.6917 -0.2476
  782MOL0     H 5559   8.337   3.797   4.344 -1.2454  1.6449 -0.7702
  782MOL0     H 5560   8.297   3.702   4.119 -1.9589 -0.1173 -1.1433
  782MOL0     H 5561   8.383   3.829   4.045  2.8281 -0.6635  1.6744
  782MOL0     H 5562   8.127   3.866   4.217  1.7214 -1.7865  0.0292
  782MOL0     H 5563   8.138   3.863   4.039 -0.2870 -1.2684 -0.2246
  782MOL0     H 5564   8.112   4.097   4.130 -1.1773 -2.4951  0.9016
  782MOL0     H 5565   8.265   4.076   4.226  1.5618 -0.9635 -1.0978
  782MOL0     H 5566   8.446   4.148   3.860  0.4896 -2.7973  0.1600
  782MOL0     H 5567   8.657   3.518   4.194 -3.1335 -1.7190 -1.4238
  782MOL0     H 5568   8.925   3.460   3.998 -0.0494 -1.3806  2.5740
  782MOL0     H 5569   8.788   3.391   4.065  1.8149 -0.5365 -0.1174
  782MOL0     H 5570   8.781   3.432   3.892  0.3210  1.3264 -0.3967
  783MOL0     O 5571   2.034   2.825   2.271 -0.1847 -0.1286  0.4500
  783MOL0     C 5572   2.048   2.708   2.265  0.9694  0.7925 -0.1236
  783MOL0     O 5573   2.163   2.645   2.294  0.2639 -0.4235  0.0555
  783MOL0     C 5574   2.286   2.712   2.285 -0.4290  0.1194 -0.4379
  783MOL0     C 5575   2.393   2.633   2.326  0.3474 -0.6400  0.2579
  783MOL0     C 5576   2.527   2.668   2.302 -1.1714 -0.2871  0.5235
  783MOL0     C 5577   2.547   2.793   2.246 -0.1773  0.5818  0.7078
  783MOL0     O 5578   2.673   2.856   2.222  1.1683  0.1839  0.1398
  783MOL0     C 5579   2.790   2.797   2.264 -1.2669 -0.3956 -0.1449
  783MOL0     C 5580   2.905   2.900   2.236 -0.2910 -0.0141 -0.3486
  783MOL0     C 5581   3.035   2.829   2.276 -0.6338  0.1045  0.7788
  783MOL0     C 5582   3.159   2.927   2.279  0.0954  0.3511  0.1375
  783MOL0     C 5583   3.197   3.009   2.149  0.7491  0.5208 -0.5028
  783MOL0     C 5584   3.315   3.104   2.177 -0.1361 -0.4237 -0.5266
  783MOL0     C 5585   3.456   3.038   2.211  0.9202  0.7728 -0.7688
  783MOL0     C 5586   3.565   3.128   2.162 -0.9305 -0.1056 -0.5004
  783MOL0     N 5587   3.696   3.067   2.191 -0.2394 -0.1653  0.2174
  783MOL0     C 5588   3.743   2.938   2.164 -0.2125 -0.6038  0.3605
  783MOL0     C 5589   3.853   2.921   2.238 -0.9061  0.1179 -0.3605
  783MOL0     C 5590   3.933   2.792   2.235  0.5559  0.1215  0.9311
  783MOL0     C 5591   4.079   2.823   2.289  0.6560  0.1996  0.1338
  783MOL0     C 5592   4.175   2.707   2.279 -0.9695 -0.1347  0.5842
  783MOL0     C 5593   4.325   2.736   2.324  0.5146  0.3494  0.8081
  783MOL0     O 5594   4.324   2.733   2.463  0.6426 -0.1170 -0.1145
  783MOL0     C 5595   4.450   2.730   2.512  1.3470 -1.0512  1.0041
  783MOL0     C 5596   4.571   2.774   2.453 -0.3170 -0.5529  0.5923
  783MOL0     C 5597   4.682   2.767   2.525  0.0282  0.0200 -0.0991
  783MOL0     C 5598   4.684   2.725   2.660  0.7490  0.8362  0.0782
  783MOL0     C 5599   4.807   2.723   2.740  0.3424  0.1738 -0.1335
  783MOL0     O 5600   4.902   2.812   2.708 -0.4356 -0.1888  0.4756
  783MOL0     C 5601   5.030   2.786   2.743  0.0952  0.3926  0.2958
  783MOL0     C 5602   5.101   2.668   2.719  0.0662  0.0462  0.7902
  783MOL0     C 5603   5.235   2.656   2.774  0.0658 -0.0714  0.3996
  783MOL0     C 5604   5.293   2.761   2.849 -0.3013 -0.0145 -0.1062
  783MOL0     O 5605   5.415   2.756   2.906 -0.1979 -0.8618 -0.5959
  783MOL0     C 5606   5.509   2.828   2.839 -0.8605 -0.5617  0.4250
  783MOL0     C 5607   5.655   2.789   2.881  0.1062 -0.4134 -0.4482
  783MOL0     C 5608   5.679   2.639   2.849 -0.4695  0.5910  0.6340
  783MOL0     C 5609   5.824   2.604   2.838  0.2538 -0.6970 -0.3903
  783MOL0     C 5610   5.864   2.462   2.787  0.1248 -0.0164 -0.2592
  783MOL0     C 5611   5.759   2.345   2.815  0.4255 -0.0692 -0.2034
  783MOL0     C 5612   5.748   2.315   2.962  0.6535 -0.1321 -0.4856
  783MOL0     C 5613   5.786   2.165   2.995  0.3180  0.0876  0.1518
  783MOL0    Cl 5614   5.964   2.136   2.981 -0.3247  0.4386 -0.1869
  783MOL0     C 5615   5.210   2.874   2.881  0.2851  0.0377  1.0231
  783MOL0     C 5616   5.085   2.888   2.821  0.1678 -0.0171  0.2333
  783MOL0     O 5617   4.822   2.637   2.826 -0.3766  0.5140  0.3169
  783MOL0     C 5618   4.564   2.677   2.717  0.2770 -0.2806 -0.0581
  783MOL0     C 5619   4.452   2.671   2.636 -0.3844  0.1286  0.2981
  783MOL0     N 5620   3.871   3.030   2.314 -0.2612  0.3079 -0.0863
  783MOL0     N 5621   3.787   3.119   2.281 -0.0372 -0.0483 -0.0493
  783MOL0     C 5622   2.443   2.879   2.219 -0.2275  1.1818 -0.0923
  783MOL0     C 5623   2.310   2.836   2.228  0.1227 -0.7341 -1.1957
  783MOL0     C 5624   1.931   2.627   2.226  0.1703 -0.0702  0.1101
  783MOL0     C 5625   1.952   2.489   2.203  0.0229 -0.0365  0.3255
  783MOL0     C 5626   1.847   2.409   2.173 -0.3817  0.2583  0.1532
  783MOL0     C 5627   1.724   2.460   2.154  0.3554 -0.7064  0.0194
  783MOL0     O 5628   1.629   2.371   2.114  0.4445 -0.1129 -0.5330
  783MOL0     C 5629   1.494   2.410   2.113 -0.7763 -0.1305  0.5138
  783MOL0     C 5630   1.404   2.283   2.124 -0.3742 -0.4163 -0.0420
  783MOL0     C 5631   1.419   2.237   2.269  0.7540 -0.8481 -0.2392
  783MOL0     C 5632   1.346   2.101   2.275  0.5935 -0.9689 -0.0817
  783MOL0     C 5633   1.205   2.099   2.236  0.4864  0.0046  0.2642
  783MOL0     C 5634   1.091   2.106   2.206  0.7872  0.2515 -0.4100
  783MOL0     C 5635   1.702   2.598   2.168 -0.4918 -0.7813 -0.2728
  783MOL0     C 5636   1.803   2.686   2.195  0.9676 -0.1307  0.5763
  783MOL0     C 5637   1.764   2.831   2.203 -0.7108  0.7165  0.6075
  783MOL0     H 5638   2.362   2.534   2.358 -0.7683 -0.1323  0.7658
  783MOL0     H 5639   2.608   2.597   2.318 -0.7830  0.4270  1.8177
  783MOL0     H 5640   2.783   2.799   2.373 -2.4158 -1.7441 -0.1647
  783MOL0     H 5641   2.816   2.697   2.228 -0.9079 -0.1093 -0.7062
  783MOL0     H 5642   2.895   2.990   2.298 -1.7453 -0.3746 -0.0475
  783MOL0     H 5643   2.901   2.926   2.130 -0.5311  0.7251 -0.1656
  783MOL0     H 5644   3.066   2.749   2.209 -0.7714  1.0238 -0.4183
  783MOL0     H 5645   3.031   2.785   2.376  1.5676 -3.1166 -0.3968
  783MOL0     H 5646   3.138   2.997   2.360  1.0171  0.3994  0.3456
  783MOL0     H 5647   3.236   2.861   2.321 -2.1117 -3.2278 -1.0139
  783MOL0     H 5648   3.217   2.944   2.063  0.4806 -1.3717  0.8088
  783MOL0     H 5649   3.115   3.069   2.110  0.4130 -0.0888 -0.7492
  783MOL0     H 5650   3.328   3.163   2.086  0.7845  0.2841  0.0436
  783MOL0     H 5651   3.292   3.179   2.253  1.1971 -0.4518 -0.0644
  783MOL0     H 5652   3.480   2.946   2.157  2.0899  0.3051  0.4838
  783MOL0     H 5653   3.472   3.013   2.316  3.5823  0.5669 -1.1572
  783MOL0     H 5654   3.551   3.134   2.054  0.5354 -0.6961 -0.7467
  783MOL0     H 5655   3.555   3.231   2.199  1.2927  0.8864 -2.3807
  783MOL0     H 5656   3.711   2.889   2.073 -1.8910  0.2037  0.4707
  783MOL0     H 5657   3.880   2.724   2.303  0.6213  0.3027  1.1660
  783MOL0     H 5658   3.933   2.749   2.135  1.7417 -1.2383  1.4693
  783MOL0     H 5659   4.129   2.903   2.234 -0.2760  1.2355  0.7441
  783MOL0     H 5660   4.082   2.855   2.394 -0.4867  0.3040  0.1457
  783MOL0     H 5661   4.176   2.672   2.175  0.7593  0.5644  0.3413
  783MOL0     H 5662   4.143   2.621   2.340  0.0018 -0.9815 -0.0518
  783MOL0     H 5663   4.355   2.830   2.277 -0.0106  0.0979 -0.0689
  783MOL0     H 5664   4.393   2.659   2.285 -1.9115 -1.2266 -0.6054
  783MOL0     H 5665   4.574   2.823   2.356  4.5903 -1.1738  0.1945
  783MOL0     H 5666   4.778   2.801   2.489 -0.7268 -0.7137 -3.0670
  783MOL0     H 5667   5.056   2.587   2.663  0.5279  0.5438 -0.3346
  783MOL0     H 5668   5.292   2.564   2.766 -4.1517 -3.2586  2.6290
  783MOL0     H 5669   5.506   2.813   2.730 -0.2539 -1.6732  0.5516
  783MOL0     H 5670   5.498   2.935   2.862 -0.2414 -0.9712  2.8286
  783MOL0     H 5671   5.727   2.852   2.828  1.5034 -0.3063  1.4631
  783MOL0     H 5672   5.678   2.806   2.986  0.2341  3.8015 -0.9843
  783MOL0     H 5673   5.634   2.570   2.920 -0.9197 -2.5156 -2.3766
  783MOL0     H 5674   5.634   2.605   2.755  0.4738  0.7345  0.1168
  783MOL0     H 5675   5.863   2.618   2.939 -4.3346  0.5194  1.4232
  783MOL0     H 5676   5.883   2.669   2.772  1.6376  0.1081  1.5632
  783MOL0     H 5677   5.962   2.437   2.830 -0.1547  1.0537  1.0491
  783MOL0     H 5678   5.876   2.456   2.678  2.9387 -0.2734 -0.0027
  783MOL0     H 5679   5.662   2.345   2.765  0.3222 -1.5391 -0.0343
  783MOL0     H 5680   5.800   2.256   2.768  1.0861  0.2261 -0.2064
  783MOL0     H 5681   5.649   2.332   3.005  0.4446 -0.6647 -0.7564
  783MOL0     H 5682   5.816   2.382   3.016  1.4460 -0.5864 -0.9076
  783MOL0     H 5683   5.758   2.139   3.097  0.3528 -0.9793 -0.0966
  783MOL0     H 5684   5.725   2.096   2.935 -0.2660  0.4210  0.3547
  783MOL0     H 5685   5.245   2.952   2.947  0.0262  0.2872  0.8646
  783MOL0     H 5686   5.015   2.970   2.830 -0.1310 -0.3438  0.9844
  783MOL0     H 5687   4.563   2.645   2.821 -1.5674 -3.5808 -0.9761
  783MOL0     H 5688   4.359   2.636   2.680 -0.8825  0.9126 -0.0934
  783MOL0     H 5689   2.454   2.977   2.173 -1.5854  0.0615 -3.1338
  783MOL0     H 5690   2.228   2.897   2.193 -0.6894  1.0029  3.0306
  783MOL0     H 5691   2.048   2.441   2.218 -0.0061  0.0683  0.8407
  783MOL0     H 5692   1.847   2.300   2.170 -2.2846  0.1604  1.7283
  783MOL0     H 5693   1.482   2.453   2.013  2.0982  2.1764  1.0301
  783MOL0     H 5694   1.476   2.481   2.193 -0.1838 -2.0616  2.4534
  783MOL0     H 5695   1.445   2.198   2.068 -0.4538 -2.6330  3.0522
  783MOL0     H 5696   1.299   2.306   2.102 -0.6112 -0.8337  0.6539
  783MOL0     H 5697   1.385   2.304   2.349 -0.6664 -1.1767 -0.5546
  783MOL0     H 5698   1.522   2.218   2.301  0.6508 -0.7534  0.1505
  783MOL0     H 5699   1.404   2.032   2.213  3.3125  1.3077 -0.2882
  783MOL0     H 5700   1.355   2.062   2.376 -0.9713 -1.6281 -0.1692
  783MOL0     H 5701   0.991   2.098   2.167  0.7181  0.1965 -0.2200
  783MOL0     H 5702   1.606   2.639   2.140 -0.3564  1.0261  1.6203
  783MOL0     H 5703   1.826   2.891   2.135  1.2363 -1.4124  0.3918
  783MOL0     H 5704   1.658   2.843   2.177 -0.5211  1.0472 -0.0288
  783MOL0     H 5705   1.775   2.871   2.305 -2.4708 -2.4512  2.1917
  784MOL0     O 5706   2.936   0.719   0.315 -0.4760  0.1366 -0.2222
  784MOL0     C 5707   2.912   0.629   0.401 -0.7472 -0.0500  0.3644
  784MOL0     O 5708   2.793   0.604   0.458  0.6513 -0.3048  0.2490
  784MOL0     C 5709   2.697   0.697   0.464 -0.8116 -0.3074  0.5441
  784MOL0     C 5710   2.637   0.743   0.343 -0.9107  0.8921 -0.5308
  784MOL0     C 5711   2.536   0.847   0.337  0.4669  0.1739 -0.4737
  784MOL0     C 5712   2.496   0.894   0.460 -0.2854  0.2065  0.1974
  784MOL0     O 5713   2.394   0.988   0.482 -0.6339  0.0768 -0.1303
  784MOL0     C 5714   2.331   1.050   0.364  0.8042 -0.3620  0.2290
  784MOL0     C 5715   2.207   1.138   0.410 -0.0312 -0.5686 -0.5423
  784MOL0     C 5716   2.101   1.141   0.301  0.5749 -0.0094  0.4150
  784MOL0     C 5717   1.984   1.233   0.342  0.7871 -0.2891  0.6046
  784MOL0     C 5718   1.886   1.232   0.236 -0.2328 -0.1209 -0.2732
  784MOL0     C 5719   1.768   1.313   0.286  0.1982 -0.2386 -0.5842
  784MOL0     C 5720   1.677   1.363   0.167 -0.3286 -0.1192  0.2946
  784MOL0     C 5721   1.532   1.379   0.204 -0.6431  0.6768 -0.0865
  784MOL0     N 5722   1.513   1.501   0.279  0.2511  0.4909 -0.1235
  784MOL0     C 5723   1.563   1.522   0.407 -0.5079  0.0185 -0.3906
  784MOL0     C 5724   1.582   1.656   0.420 -0.4609  0.0419  0.0250
  784MOL0     C 5725   1.640   1.740   0.533 -0.8065  0.0954 -0.1027
  784MOL0     C 5726   1.751   1.682   0.618 -1.4744 -0.2995  0.6203
  784MOL0     C 5727   1.880   1.677   0.526  0.3207 -0.0276 -0.1189
  784MOL0     C 5728   2.014   1.630   0.587 -0.3027  0.3219 -0.9295
  784MOL0     O 5729   2.120   1.643   0.496  0.8945  0.2895 -0.6237
  784MOL0     C 5730   2.243   1.589   0.513 -0.1593  0.6100 -0.0300
  784MOL0     C 5731   2.309   1.590   0.637 -0.5257 -0.0611  0.8306
  784MOL0     C 5732   2.430   1.517   0.650  0.0506 -0.0947 -0.5666
  784MOL0     C 5733   2.483   1.446   0.534 -0.0248  0.2388  0.3485
  784MOL0     C 5734   2.615   1.394   0.544  0.3672  0.5417  0.5693
  784MOL0     O 5735   2.676   1.341   0.429  0.2256 -0.0671 -0.2341
  784MOL0     C 5736   2.783   1.252   0.447  1.5880  0.2322 -0.2645
  784MOL0     C 5737   2.913   1.303   0.459 -0.4124  0.8452  0.1430
  784MOL0     C 5738   3.024   1.215   0.472 -0.8908 -0.0218 -0.3974
  784MOL0     C 5739   2.999   1.076   0.471 -0.0877  0.5988  0.1724
  784MOL0     O 5740   3.093   0.979   0.478 -0.0486  0.5596 -0.0415
  784MOL0     C 5741   3.223   1.021   0.521 -0.8895 -0.0452 -0.0594
  784MOL0     C 5742   3.321   0.911   0.548 -0.3888  0.3846  0.1426
  784MOL0     C 5743   3.349   0.815   0.425 -0.4066 -0.6507  0.3268
  784MOL0     C 5744   3.432   0.880   0.312 -0.3936 -0.2672  0.7161
  784MOL0     C 5745   3.526   0.778   0.239 -0.2825  0.3620  0.1724
  784MOL0     C 5746   3.449   0.665   0.168 -0.0822  0.7237  0.6180
  784MOL0     C 5747   3.549   0.583   0.089 -0.0079  0.1766 -0.1926
  784MOL0     C 5748   3.479   0.466   0.019  0.7686  0.6778 -0.3571
  784MOL0    Cl 5749   3.605   0.399  -0.088  0.1065 -0.4590  0.5637
  784MOL0     C 5750   2.869   1.031   0.448  0.7202  0.3169 -0.0379
  784MOL0     C 5751   2.758   1.117   0.444 -0.6732  0.4570 -0.5594
  784MOL0     O 5752   2.680   1.416   0.644 -0.4109 -0.7627  0.3652
  784MOL0     C 5753   2.419   1.459   0.409 -0.6846  0.4727 -1.0511
  784MOL0     C 5754   2.302   1.536   0.401 -0.7470  0.0763 -0.1287
  784MOL0     N 5755   1.550   1.707   0.298 -0.0103  0.0566 -0.4618
  784MOL0     N 5756   1.490   1.621   0.225 -0.5162  0.2325 -0.7973
  784MOL0     C 5757   2.549   0.845   0.576  0.6495 -0.3288  0.2401
  784MOL0     C 5758   2.652   0.753   0.584 -0.2627 -0.0610  1.0195
  784MOL0     C 5759   3.022   0.543   0.450 -0.3959  0.3177  0.4471
  784MOL0     C 5760   3.028   0.509   0.588  0.6326 -0.5145  0.0321
  784MOL0     C 5761   3.134   0.445   0.643 -0.1413  0.1517  0.4038
  784MOL0     C 5762   3.246   0.404   0.571  0.5748 -0.0600  0.3771
  784MOL0     O 5763   3.336   0.335   0.643  0.1774 -0.4421 -0.0976
  784MOL0     C 5764   3.462   0.304   0.578 -0.3731 -0.2685 -0.8050
  784MOL0     C 5765   3.558   0.417   0.543 -0.0911 -0.3711  0.0624
  784MOL0     C 5766   3.609   0.470   0.677  0.5327  0.5484 -0.4181
  784MOL0     C 5767   3.742   0.551   0.653 -0.1032 -0.0866  0.3180
  784MOL0     C 5768   3.715   0.680   0.600 -0.3665 -1.0701 -0.2925
  784MOL0     C 5769   3.679   0.791   0.564 -0.0288  0.2287  0.1724
  784MOL0     C 5770   3.246   0.437   0.429  0.1172  0.0828 -0.1065
  784MOL0     C 5771   3.134   0.499   0.373 -0.3501  0.2630 -0.2612
  784MOL0     C 5772   3.132   0.523   0.222 -0.1506  0.2227 -0.4183
  784MOL0     H 5773   2.669   0.699   0.250 -1.7154 -1.2820  0.1634
  784MOL0     H 5774   2.498   0.892   0.246 -1.4406  1.8093  1.0372
  784MOL0     H 5775   2.406   1.110   0.311  1.4715 -1.9918 -0.7333
  784MOL0     H 5776   2.286   0.975   0.298 -0.8302 -0.7708  1.7192
  784MOL0     H 5777   2.253   1.235   0.430 -1.1134 -0.1261 -0.1383
  784MOL0     H 5778   2.176   1.107   0.510  2.6459  0.0598  0.5960
  784MOL0     H 5779   2.061   1.039   0.295  0.6398 -0.1197  1.5964
  784MOL0     H 5780   2.147   1.172   0.207  0.4441  0.9915  0.6626
  784MOL0     H 5781   1.943   1.197   0.436 -2.0982 -0.8185 -0.7305
  784MOL0     H 5782   2.021   1.336   0.351 -4.7238  2.0547  0.5109
  784MOL0     H 5783   1.936   1.265   0.144 -0.9609  1.1378 -0.2450
  784MOL0     H 5784   1.854   1.131   0.209  0.2251 -0.4189  0.2809
  784MOL0     H 5785   1.705   1.246   0.346 -0.9514  0.7704 -0.6227
  784MOL0     H 5786   1.804   1.401   0.339 -1.6713  0.0136  0.3461
  784MOL0     H 5787   1.682   1.283   0.092  0.4856 -0.6072  0.8552
  784MOL0     H 5788   1.712   1.448   0.108 -0.8807 -0.3959 -0.4433
  784MOL0     H 5789   1.472   1.378   0.113 -0.4390 -0.0768 -0.2264
  784MOL0     H 5790   1.504   1.287   0.258 -0.2533  0.8263  0.3826
  784MOL0     H 5791   1.590   1.446   0.480  1.5441 -0.6181 -1.7109
  784MOL0     H 5792   1.682   1.830   0.485  1.0493 -0.3739  0.5338
  784MOL0     H 5793   1.560   1.772   0.600 -2.0540  1.7881 -2.2714
  784MOL0     H 5794   1.775   1.743   0.705 -0.2523 -1.1949  0.9356
  784MOL0     H 5795   1.725   1.580   0.649 -1.4155 -0.8276 -0.9724
  784MOL0     H 5796   1.913   1.775   0.489  0.7963 -1.5120 -4.1108
  784MOL0     H 5797   1.859   1.622   0.434 -1.6209  0.8769 -0.2699
  784MOL0     H 5798   2.011   1.527   0.621 -0.6679  1.0519  1.3925
  784MOL0     H 5799   2.039   1.672   0.685  1.2969 -2.3523 -0.0760
  784MOL0     H 5800   2.258   1.645   0.715 -0.0453  3.4450 -1.0805
  784MOL0     H 5801   2.486   1.508   0.743 -1.6899 -0.8156  0.4580
  784MOL0     H 5802   2.935   1.408   0.445  0.4950  0.5483 -0.7531
  784MOL0     H 5803   3.121   1.259   0.491 -0.7881 -0.4401  0.1021
  784MOL0     H 5804   3.266   1.086   0.444 -0.9135  3.5426  2.7298
  784MOL0     H 5805   3.227   1.082   0.611  0.2975 -0.8861  0.4856
  784MOL0     H 5806   3.417   0.962   0.565  0.4172 -0.9107 -0.4381
  784MOL0     H 5807   3.282   0.869   0.641 -0.6023  1.9561  0.8017
  784MOL0     H 5808   3.397   0.728   0.471 -1.3714 -1.3912 -0.0427
  784MOL0     H 5809   3.259   0.778   0.374  0.3373  2.7349 -4.0209
  784MOL0     H 5810   3.489   0.957   0.365 -1.1971 -0.4064  1.8158
  784MOL0     H 5811   3.364   0.937   0.248  1.7085  0.1582 -1.2899
  784MOL0     H 5812   3.603   0.731   0.301  1.0062  0.5732 -1.2311
  784MOL0     H 5813   3.579   0.826   0.156  0.8803 -2.0743 -0.5917
  784MOL0     H 5814   3.399   0.605   0.244  1.3482 -2.3867 -0.6999
  784MOL0     H 5815   3.373   0.709   0.102  0.5195 -0.6862 -1.1074
  784MOL0     H 5816   3.624   0.535   0.152 -0.1350 -1.3685 -1.1661
  784MOL0     H 5817   3.586   0.651   0.011 -0.1504 -2.2349 -2.4930
  784MOL0     H 5818   3.441   0.396   0.093 -1.3922  0.2670 -1.7670
  784MOL0     H 5819   3.396   0.505  -0.042  2.3903 -0.8073 -3.8143
  784MOL0     H 5820   2.854   0.923   0.438  3.0075 -0.0058 -0.5588
  784MOL0     H 5821   2.653   1.094   0.435 -1.1403  1.2978  1.8616
  784MOL0     H 5822   2.477   1.432   0.322  2.3192  0.2215  0.8878
  784MOL0     H 5823   2.252   1.570   0.311 -0.7022 -0.6488 -0.4290
  784MOL0     H 5824   2.513   0.894   0.666  0.7287  0.0263  0.0782
  784MOL0     H 5825   2.693   0.708   0.674  1.0796 -1.3826 -0.2076
  784MOL0     H 5826   2.950   0.540   0.657 -0.2082  0.0662 -1.1533
  784MOL0     H 5827   3.128   0.431   0.750 -1.9006 -1.4614  0.1257
  784MOL0     H 5828   3.445   0.252   0.484  1.8730 -1.3402 -0.6862
  784MOL0     H 5829   3.513   0.230   0.641 -0.3068 -0.4758 -1.1007
  784MOL0     H 5830   3.521   0.497   0.479  1.3021  0.2077 -0.0530
  784MOL0     H 5831   3.647   0.369   0.499 -0.2833 -1.8553  1.2129
  784MOL0     H 5832   3.639   0.391   0.746  1.6685  3.3683  2.5381
  784MOL0     H 5833   3.540   0.529   0.737  1.0665  1.4286 -0.6561
  784MOL0     H 5834   3.790   0.565   0.750 -1.3551  0.2794  0.9127
  784MOL0     H 5835   3.812   0.491   0.594 -2.2913 -0.6852 -1.8134
  784MOL0     H 5836   3.649   0.890   0.537 -1.6492  0.0548  1.1926
  784MOL0     H 5837   3.334   0.428   0.367  1.5071 -2.5898  1.9944
  784MOL0     H 5838   3.195   0.451   0.169 -0.7965 -1.2777  0.7345
  784MOL0     H 5839   3.032   0.509   0.180 -0.1398  0.0843 -0.3990
  784MOL0     H 5840   3.161   0.628   0.218  0.4810  0.4330  4.0099
  785MOL0     O 5841   4.828   1.129   1.063 -0.4111 -0.4087 -0.4807
  785MOL0     C 5842   4.799   1.242   1.034 -0.2392 -0.6616 -0.4924
  785MOL0     O 5843   4.864   1.358   1.072 -0.0902 -0.1451 -0.6469
  785MOL0     C 5844   4.981   1.346   1.146  0.1023 -0.9536 -0.0856
  785MOL0     C 5845   5.016   1.439   1.238 -0.4775 -0.3675 -0.0482
  785MOL0     C 5846   5.134   1.439   1.319  0.4701  0.2093 -0.6872
  785MOL0     C 5847   5.219   1.325   1.309 -0.2785  0.2388  0.0464
  785MOL0     O 5848   5.317   1.302   1.400 -0.5774 -0.1846 -0.8836
  785MOL0     C 5849   5.359   1.412   1.486 -0.1260 -0.7174  0.1483
  785MOL0     C 5850   5.483   1.382   1.563 -0.2009  0.0089 -0.0763
  785MOL0     C 5851   5.582   1.308   1.478  0.0880  0.1582 -0.3553
  785MOL0     C 5852   5.714   1.286   1.550 -0.1741 -0.3446  0.4812
  785MOL0     C 5853   5.824   1.210   1.476 -0.5540  0.2792 -0.1338
  785MOL0     C 5854   5.962   1.207   1.547  0.9624  0.6979  0.1454
  785MOL0     C 5855   6.070   1.137   1.458 -0.3537  0.3816  0.0493
  785MOL0     C 5856   6.155   1.235   1.380 -0.3265  0.0969 -0.1310
  785MOL0     N 5857   6.274   1.268   1.455 -0.0814 -1.2301  0.4378
  785MOL0     C 5858   6.373   1.188   1.502 -0.7801 -0.1104  0.4439
  785MOL0     C 5859   6.454   1.271   1.575 -0.2924 -0.5660 -0.2772
  785MOL0     C 5860   6.573   1.233   1.662  0.0376 -0.1923 -0.5506
  785MOL0     C 5861   6.689   1.183   1.565  0.8627 -0.0761  0.6495
  785MOL0     C 5862   6.811   1.116   1.637 -0.4784 -0.2033  0.1886
  785MOL0     C 5863   6.921   1.084   1.536 -0.5589  1.1258  0.3351
  785MOL0     O 5864   7.020   0.995   1.592  0.1470  1.0456 -0.0928
  785MOL0     C 5865   7.127   1.047   1.643 -1.1869  0.2512 -0.1403
  785MOL0     C 5866   7.180   1.177   1.648 -0.5679  0.2778 -0.0074
  785MOL0     C 5867   7.305   1.209   1.702  0.3763 -0.4273 -0.0647
  785MOL0     C 5868   7.386   1.110   1.759 -0.1845 -1.2522  0.2842
  785MOL0     C 5869   7.529   1.139   1.807 -1.9061  0.4533 -0.0303
  785MOL0     O 5870   7.612   1.030   1.810  0.0959 -0.0634 -0.2727
  785MOL0     C 5871   7.744   1.031   1.860  1.0537 -0.5852 -0.2891
  785MOL0     C 5872   7.829   1.141   1.901  1.1896 -0.2348 -0.2959
  785MOL0     C 5873   7.955   1.118   1.956 -0.6361 -0.0867 -0.5172
  785MOL0     C 5874   8.018   0.994   1.952 -0.2152 -0.0570 -0.0618
  785MOL0     O 5875   8.146   0.992   1.995  0.5580  0.6706  1.0226
  785MOL0     C 5876   8.235   0.879   1.986  0.2309 -0.7162  0.9361
  785MOL0     C 5877   8.367   0.924   2.037  0.2063 -0.5995  0.2758
  785MOL0     C 5878   8.475   0.821   2.008 -0.1154  0.1676  0.4949
  785MOL0     C 5879   8.607   0.845   2.085 -0.1236 -0.8817 -0.3650
  785MOL0     C 5880   8.695   0.968   2.034  0.3039  0.2882 -0.0125
  785MOL0     C 5881   8.848   0.929   2.045 -0.5052  0.0280 -0.5042
  785MOL0     C 5882   8.937   1.044   1.989  0.9181 -0.6719 -1.1975
  785MOL0     C 5883   9.074   1.009   1.959 -0.4579  0.3259  0.2226
  785MOL0    Cl 5884   9.183   0.961   2.095  0.0418 -0.0523 -0.3400
  785MOL0     C 5885   7.940   0.887   1.908  0.2525 -0.2234  0.3296
  785MOL0     C 5886   7.808   0.906   1.861 -0.3650  0.7228  0.7733
  785MOL0     O 5887   7.568   1.252   1.818 -0.4404 -0.1865 -0.3072
  785MOL0     C 5888   7.329   0.979   1.752 -1.1113  0.2669 -0.0472
  785MOL0     C 5889   7.207   0.944   1.691  0.4786 -0.4218 -0.5850
  785MOL0     N 5890   6.406   1.405   1.568  0.1557 -0.7057 -0.5568
  785MOL0     N 5891   6.301   1.401   1.498  0.1326  0.1240  0.0181
  785MOL0     C 5892   5.195   1.228   1.211 -0.5138 -0.6019  0.1273
  785MOL0     C 5893   5.083   1.245   1.135  0.1789 -0.6070  0.5334
  785MOL0     C 5894   4.681   1.264   0.948  0.2973 -0.2221  0.4101
  785MOL0     C 5895   4.677   1.384   0.878  0.4178  0.5369  0.3322
  785MOL0     C 5896   4.568   1.428   0.812  0.0187  0.1304 -0.0429
  785MOL0     C 5897   4.460   1.342   0.812  1.2334  0.3324  0.5699
  785MOL0     O 5898   4.346   1.370   0.737 -0.3988  0.6007 -0.1722
  785MOL0     C 5899   4.343   1.366   0.599 -0.8396 -0.2398  0.2187
  785MOL0     C 5900   4.346   1.222   0.542 -0.6279 -0.1752 -0.3062
  785MOL0     C 5901   4.310   1.203   0.396  0.4652  0.1806  0.4408
  785MOL0     C 5902   4.402   1.273   0.292  0.8223 -0.6122 -0.1100
  785MOL0     C 5903   4.377   1.255   0.151  0.8163  0.5105 -0.1099
  785MOL0     C 5904   4.355   1.215   0.033  0.1869 -0.2143  0.1668
  785MOL0     C 5905   4.455   1.221   0.885 -0.0757 -0.5087  0.1499
  785MOL0     C 5906   4.565   1.182   0.958 -0.0872 -0.1052 -0.2264
  785MOL0     C 5907   4.561   1.042   1.022  0.5482  1.0017  0.2150
  785MOL0     H 5908   4.957   1.530   1.245  2.8904  1.9044  2.3641
  785MOL0     H 5909   5.141   1.524   1.387  0.5657  1.3588 -2.0820
  785MOL0     H 5910   5.375   1.494   1.416 -0.1670 -1.2010 -0.4360
  785MOL0     H 5911   5.275   1.435   1.552 -0.9396 -0.5478 -0.9077
  785MOL0     H 5912   5.456   1.305   1.635  0.9336  2.0243  2.6552
  785MOL0     H 5913   5.533   1.466   1.611  2.3132 -2.0222  1.0451
  785MOL0     H 5914   5.593   1.369   1.387 -2.6820  0.3516 -0.6261
  785MOL0     H 5915   5.546   1.208   1.450  0.4917  0.1485 -0.8643
  785MOL0     H 5916   5.761   1.382   1.571  0.2789 -0.4858  0.1251
  785MOL0     H 5917   5.688   1.229   1.640  0.6403 -2.0407 -0.3137
  785MOL0     H 5918   5.781   1.111   1.455  1.6097 -1.4682  2.9516
  785MOL0     H 5919   5.855   1.248   1.378  1.6491 -3.0522 -0.9224
  785MOL0     H 5920   5.990   1.311   1.569 -3.7022  1.9884  0.9671
  785MOL0     H 5921   5.955   1.156   1.644 -2.5420  0.2255 -0.2470
  785MOL0     H 5922   6.027   1.064   1.388 -2.3738  0.4607  1.1363
  785MOL0     H 5923   6.124   1.068   1.523 -0.7162 -0.8810 -0.9431
  785MOL0     H 5924   6.204   1.184   1.297  1.9969 -0.9773  1.7934
  785MOL0     H 5925   6.099   1.320   1.339  0.8424  0.7106 -0.4750
  785MOL0     H 5926   6.392   1.081   1.495  0.3099  0.1849 -1.9554
  785MOL0     H 5927   6.614   1.321   1.712  1.8320 -1.2931  0.0298
  785MOL0     H 5928   6.549   1.157   1.737  0.9837  3.2151  3.5646
  785MOL0     H 5929   6.641   1.120   1.490  0.8801 -0.5244  1.0101
  785MOL0     H 5930   6.721   1.269   1.505  1.0425 -1.2550 -1.0110
  785MOL0     H 5931   6.777   1.024   1.687 -0.2960 -0.3036  0.1296
  785MOL0     H 5932   6.850   1.190   1.706 -1.3178  0.2207  0.2245
  785MOL0     H 5933   6.953   1.178   1.489 -1.8932  1.0269 -0.8243
  785MOL0     H 5934   6.881   1.023   1.454 -3.9705 -0.4367  2.9235
  785MOL0     H 5935   7.123   1.249   1.591  2.0250  2.1465 -0.3895
  785MOL0     H 5936   7.345   1.309   1.700 -3.5551  1.3206 -1.3013
  785MOL0     H 5937   7.793   1.243   1.912 -1.8345 -1.0779 -1.3035
  785MOL0     H 5938   8.006   1.208   1.989 -0.6564 -0.0632 -0.5501
  785MOL0     H 5939   8.193   0.793   2.039  1.2085 -1.0861  1.1277
  785MOL0     H 5940   8.233   0.855   1.879  1.6177  4.2874 -0.4721
  785MOL0     H 5941   8.386   1.015   1.980 -3.6361 -0.2365 -0.7216
  785MOL0     H 5942   8.362   0.948   2.144  0.6102  1.3756 -0.1061
  785MOL0     H 5943   8.440   0.721   2.036 -0.0582 -0.3964 -1.2886
  785MOL0     H 5944   8.507   0.824   1.903  5.9181 -2.2064  1.8691
  785MOL0     H 5945   8.667   0.754   2.097 -2.8977 -2.5861  1.7817
  785MOL0     H 5946   8.577   0.866   2.188  1.1970  1.1528 -0.3240
  785MOL0     H 5947   8.670   1.064   2.081  1.7635  1.4353 -1.4570
  785MOL0     H 5948   8.675   0.987   1.928 -0.2376  2.2933  0.3971
  785MOL0     H 5949   8.872   0.903   2.149 -2.5573  0.9837  0.2469
  785MOL0     H 5950   8.856   0.840   1.982 -1.8307 -1.8964  1.8615
  785MOL0     H 5951   8.946   1.129   2.058  0.0662 -0.7820 -0.9451
  785MOL0     H 5952   8.895   1.086   1.897  1.6011  2.9935 -0.0111
  785MOL0     H 5953   9.067   0.934   1.879  1.7468  2.4691 -2.1647
  785MOL0     H 5954   9.136   1.085   1.911  0.5220 -1.3432 -1.3086
  785MOL0     H 5955   7.985   0.788   1.907  3.1021  0.9429 -1.5268
  785MOL0     H 5956   7.764   0.810   1.837  3.2848 -1.6339  2.6609
  785MOL0     H 5957   7.388   0.900   1.796 -3.0628 -0.5036  1.3417
  785MOL0     H 5958   7.157   0.847   1.690 -1.4708  0.4787  1.1232
  785MOL0     H 5959   5.274   1.154   1.202  0.7212  0.4149  1.9329
  785MOL0     H 5960   5.074   1.176   1.051  1.3503  1.1105 -1.0838
  785MOL0     H 5961   4.761   1.450   0.857  0.9735 -0.5574 -1.1038
  785MOL0     H 5962   4.579   1.518   0.753  0.0875 -0.0038 -0.2348
  785MOL0     H 5963   4.428   1.422   0.558 -1.9674  3.4241  2.4401
  785MOL0     H 5964   4.254   1.426   0.575 -0.7789  0.0779  0.7882
  785MOL0     H 5965   4.273   1.168   0.603  0.0990 -0.3665  0.4253
  785MOL0     H 5966   4.446   1.186   0.568 -0.0680  2.6222  2.0571
  785MOL0     H 5967   4.204   1.226   0.386 -0.3679 -0.9631  4.7635
  785MOL0     H 5968   4.322   1.096   0.377  1.7202  0.2451  0.7767
  785MOL0     H 5969   4.395   1.380   0.313  1.9685 -0.6549  0.5436
  785MOL0     H 5970   4.502   1.242   0.321  0.4051  0.0840  2.2551
  785MOL0     H 5971   4.325   1.188  -0.066 -0.5671  0.3153  0.2460
  785MOL0     H 5972   4.366   1.159   0.882  0.8302 -1.8679  0.0274
  785MOL0     H 5973   4.466   0.989   1.015  1.9142 -1.6805  0.6763
  785MOL0     H 5974   4.642   0.981   0.980 -1.8747 -0.8887 -2.0553
  785MOL0     H 5975   4.586   1.047   1.128  2.1611  0.3535 -0.0948
  786MOL0     O 5976   8.950   5.640   8.401  0.1110  0.8940  0.0073
  786MOL0     C 5977   8.944   5.579   8.294 -0.1743 -0.3525  0.7739
  786MOL0     O 5978   8.834   5.545   8.222 -0.1230  0.2917  0.5731
  786MOL0     C 5979   8.718   5.614   8.258 -0.0327  0.1054  0.2934
  786MOL0     C 5980   8.611   5.540   8.310  0.3568  0.1743 -0.1738
  786MOL0     C 5981   8.492   5.607   8.330  0.8723  0.0971 -1.0044
  786MOL0     C 5982   8.482   5.745   8.304 -0.1036  0.4032 -0.3283
  786MOL0     O 5983   8.374   5.826   8.325 -0.3114  0.5240  0.2690
  786MOL0     C 5984   8.250   5.756   8.322  0.3650 -0.2056 -0.4369
  786MOL0     C 5985   8.148   5.864   8.322  0.1275  0.7521 -0.4252
  786MOL0     C 5986   8.009   5.823   8.289 -0.8579 -1.3215  0.8071
  786MOL0     C 5987   7.948   5.738   8.393  0.2005 -0.5350 -0.3666
  786MOL0     C 5988   7.819   5.677   8.336 -0.6340  0.8702 -1.0271
  786MOL0     C 5989   7.852   5.529   8.289  0.7129 -0.0260 -1.4515
  786MOL0     C 5990   7.723   5.468   8.236 -0.6088 -0.7590 -1.1784
  786MOL0     C 5991   7.699   5.520   8.100  0.2254 -0.4666  0.4568
  786MOL0     N 5992   7.771   5.436   8.003 -0.2192  0.4674  0.3267
  786MOL0     C 5993   7.718   5.333   7.924 -0.5076  0.4207  0.6661
  786MOL0     C 5994   7.825   5.254   7.898  0.7199 -0.5901  0.2179
  786MOL0     C 5995   7.812   5.123   7.824  0.4510  0.3098 -0.5202
  786MOL0     C 5996   7.821   5.139   7.670  0.3196 -0.2770  0.0854
  786MOL0     C 5997   7.836   5.004   7.605  0.3503 -0.3019  0.0748
  786MOL0     C 5998   7.821   5.028   7.453  0.0745  0.1056 -0.6737
  786MOL0     O 5999   7.946   5.099   7.418  0.4332 -0.1060  0.3804
  786MOL0     C 6000   7.967   5.122   7.285  0.2657 -0.4706 -0.2783
  786MOL0     C 6001   7.866   5.119   7.184 -0.2179 -0.0456  0.7046
  786MOL0     C 6002   7.893   5.149   7.047  0.0569 -0.2369 -0.7946
  786MOL0     C 6003   8.021   5.195   7.018 -0.7638  0.2486 -0.3968
  786MOL0     C 6004   8.066   5.233   6.878 -0.8706  0.3695 -0.2894
  786MOL0     O 6005   8.199   5.241   6.854 -0.5621  0.4820 -0.0428
  786MOL0     C 6006   8.233   5.284   6.725  0.5418 -0.5389 -1.3914
  786MOL0     C 6007   8.295   5.194   6.633 -0.2681 -0.2618  0.5224
  786MOL0     C 6008   8.316   5.237   6.503 -0.6548 -0.4644  0.3675
  786MOL0     C 6009   8.305   5.363   6.462 -0.8209 -0.7210 -0.3497
  786MOL0     O 6010   8.343   5.390   6.339 -0.4073  0.1623  0.3530
  786MOL0     C 6011   8.236   5.386   6.242 -0.2075 -0.6248 -0.1757
  786MOL0     C 6012   8.255   5.283   6.143  0.0607  0.1408 -0.3002
  786MOL0     C 6013   8.397   5.297   6.076  0.0707 -0.3931 -0.1250
  786MOL0     C 6014   8.487   5.199   6.144 -0.0143 -0.3830 -0.6222
  786MOL0     C 6015   8.634   5.225   6.109  0.3956  0.7049  0.0659
  786MOL0     C 6016   8.715   5.107   6.166 -1.0386 -0.7582  0.0878
  786MOL0     C 6017   8.855   5.124   6.110  0.8112 -0.1598  0.3821
  786MOL0     C 6018   8.958   5.023   6.147  0.8408 -0.6271  0.3370
  786MOL0    Cl 6019   8.937   4.865   6.069 -0.0044  0.3355 -0.5228
  786MOL0     C 6020   8.258   5.463   6.555  0.0170 -0.4200  0.3843
  786MOL0     C 6021   8.215   5.418   6.684 -0.0421  0.1500  0.2144
  786MOL0     O 6022   7.973   5.245   6.799 -0.0629 -0.2153  0.9162
  786MOL0     C 6023   8.126   5.188   7.112  0.6646  0.9045 -0.1364
  786MOL0     C 6024   8.097   5.154   7.247 -0.7245  1.0773  0.6933
  786MOL0     N 6025   7.940   5.319   7.936 -0.6419  0.3275  0.4850
  786MOL0     N 6026   7.908   5.433   7.996  0.0876 -0.6271 -0.2072
  786MOL0     C 6027   8.590   5.812   8.252 -1.1272 -0.2892 -0.5111
  786MOL0     C 6028   8.709   5.753   8.226 -0.0116  0.7843  0.3104
  786MOL0     C 6029   9.071   5.536   8.229 -0.2694 -0.3864  0.7018
  786MOL0     C 6030   9.151   5.448   8.303  0.2407  0.4409 -0.0281
  786MOL0     C 6031   9.277   5.402   8.250  0.2268  0.5238 -0.0777
  786MOL0     C 6032   9.324   5.448   8.120 -0.3281 -0.1674  0.5355
  786MOL0     O 6033   9.453   5.403   8.082  0.1243 -0.6044 -0.5462
  786MOL0     C 6034   9.498   5.432   7.946 -0.5122  0.4187 -0.6302
  786MOL0     C 6035   9.633   5.366   7.920  0.0557 -0.0896  0.3128
  786MOL0     C 6036   9.728   5.388   8.037 -0.5079 -0.1287  0.5501
  786MOL0     C 6037   9.866   5.371   7.980 -0.1504  0.0621 -0.4017
  786MOL0     C 6038   9.902   5.241   7.915  0.0532 -0.2748  0.3851
  786MOL0     C 6039   9.941   5.145   7.852  0.8053 -0.5744  0.8695
  786MOL0     C 6040   9.240   5.550   8.051 -0.5049  0.0545 -0.4980
  786MOL0     C 6041   9.119   5.596   8.107 -0.0106  0.1691  0.2577
  786MOL0     C 6042   9.034   5.681   8.016  0.7378 -0.8585 -0.0349
  786MOL0     H 6043   8.626   5.435   8.332 -0.4185  0.2706  0.8934
  786MOL0     H 6044   8.410   5.562   8.386  0.7659  1.4558 -0.0345
  786MOL0     H 6045   8.237   5.684   8.241  0.6258 -0.8014  0.0353
  786MOL0     H 6046   8.236   5.692   8.410 -0.5155  1.9808  1.1056
  786MOL0     H 6047   8.172   5.934   8.243  0.0431  1.4722  0.1789
  786MOL0     H 6048   8.147   5.916   8.418  1.9669  3.1033 -1.5963
  786MOL0     H 6049   8.006   5.774   8.191  2.3053 -0.4077  0.1322
  786MOL0     H 6050   7.950   5.914   8.277  1.9773  0.4343 -1.0017
  786MOL0     H 6051   8.016   5.658   8.423  1.4437  0.2702 -0.9069
  786MOL0     H 6052   7.910   5.799   8.475  1.1259  0.5177 -0.6868
  786MOL0     H 6053   7.753   5.669   8.423  1.0358 -0.8391  0.1758
  786MOL0     H 6054   7.764   5.736   8.263 -0.0286 -0.2015 -2.3975
  786MOL0     H 6055   7.939   5.530   8.223  0.9067  0.5508 -1.1959
  786MOL0     H 6056   7.895   5.465   8.367 -2.3301  0.7651  1.0656
  786MOL0     H 6057   7.630   5.487   8.290  0.7272 -1.3810  1.5310
  786MOL0     H 6058   7.712   5.359   8.235 -0.7537 -0.8074  0.9469
  786MOL0     H 6059   7.590   5.517   8.091  0.2523 -1.8477  0.4275
  786MOL0     H 6060   7.733   5.624   8.089  2.9201 -0.8428  3.4928
  786MOL0     H 6061   7.616   5.304   7.901 -0.2015  1.4957 -2.5041
  786MOL0     H 6062   7.885   5.048   7.855  1.1064  0.1479 -2.3285
  786MOL0     H 6063   7.714   5.085   7.855  1.5305 -2.5184 -0.2578
  786MOL0     H 6064   7.737   5.190   7.622  1.3225  1.5456  0.1802
  786MOL0     H 6065   7.909   5.202   7.656 -0.0314  0.8110  2.3355
  786MOL0     H 6066   7.755   4.939   7.640  1.6381 -0.8897  2.1614
  786MOL0     H 6067   7.933   4.958   7.626  2.2453  2.6069 -1.6124
  786MOL0     H 6068   7.723   5.072   7.434 -0.4046 -0.2753  0.7956
  786MOL0     H 6069   7.817   4.929   7.406  0.3555 -1.0559  1.6130
  786MOL0     H 6070   7.761   5.099   7.207  0.5154 -2.2493  2.6133
  786MOL0     H 6071   7.816   5.145   6.971  1.7563  0.2429 -2.6360
  786MOL0     H 6072   8.311   5.088   6.644  0.2809 -0.4795 -1.9075
  786MOL0     H 6073   8.346   5.159   6.434 -0.4993 -2.3076  2.3979
  786MOL0     H 6074   8.144   5.368   6.298 -0.6440  3.1624  0.6021
  786MOL0     H 6075   8.226   5.483   6.192  4.3384  0.9240  1.3586
  786MOL0     H 6076   8.241   5.186   6.190  2.6450 -0.3366 -0.3431
  786MOL0     H 6077   8.184   5.290   6.060  1.9573  1.1705 -1.9318
  786MOL0     H 6078   8.400   5.273   5.969 -1.4748  0.1502 -0.3060
  786MOL0     H 6079   8.428   5.401   6.093  2.7394 -1.2241  0.5545
  786MOL0     H 6080   8.449   5.100   6.114 -0.8407 -0.8919  1.8410
  786MOL0     H 6081   8.482   5.207   6.253 -1.1061 -1.1159 -0.6014
  786MOL0     H 6082   8.662   5.322   6.150 -1.3533  1.1161  0.3486
  786MOL0     H 6083   8.647   5.230   6.000 -1.0228  1.6729 -0.0770
  786MOL0     H 6084   8.720   5.115   6.275 -0.5013 -1.4932  0.1273
  786MOL0     H 6085   8.677   5.007   6.142  0.6595 -1.8139  1.5599
  786MOL0     H 6086   8.892   5.225   6.132  0.9464  0.0791 -0.8674
  786MOL0     H 6087   8.856   5.110   6.001  1.4920 -0.9207  0.4855
  786MOL0     H 6088   9.058   5.063   6.128  0.3496 -0.5542 -2.5058
  786MOL0     H 6089   8.954   4.999   6.254  0.7763 -3.0344 -0.1523
  786MOL0     H 6090   8.234   5.558   6.509  1.7986 -1.2031 -2.4279
  786MOL0     H 6091   8.168   5.477   6.762 -0.0646 -0.9043  1.0218
  786MOL0     H 6092   8.225   5.225   7.089  1.3195  0.0229  1.1417
  786MOL0     H 6093   8.181   5.161   7.314  1.0541 -1.7165 -1.0420
  786MOL0     H 6094   8.571   5.913   8.219 -1.1259 -0.0592  0.1853
  786MOL0     H 6095   8.791   5.802   8.173 -1.5505  2.9837 -0.1950
  786MOL0     H 6096   9.131   5.415   8.404 -2.2558 -0.3320 -0.7099
  786MOL0     H 6097   9.343   5.345   8.315  0.0878  1.8088  1.2402
  786MOL0     H 6098   9.516   5.538   7.926 -1.8871  0.1313 -4.1587
  786MOL0     H 6099   9.421   5.415   7.870 -1.0484  2.3948 -0.5897
  786MOL0     H 6100   9.671   5.405   7.825  2.5159  2.5337  2.1725
  786MOL0     H 6101   9.627   5.259   7.900 -1.7082  0.3651 -2.1117
  786MOL0     H 6102   9.701   5.318   8.117 -1.6652  0.8907  1.0810
  786MOL0     H 6103   9.719   5.493   8.068  3.6617  0.6457 -0.1924
  786MOL0     H 6104   9.898   5.463   7.931 -1.8353  1.7007  1.3872
  786MOL0     H 6105   9.933   5.371   8.067  0.3489 -0.9854 -0.7546
  786MOL0     H 6106   9.975   5.050   7.817  0.1463 -0.1807 -0.9952
  786MOL0     H 6107   9.263   5.593   7.954 -0.6582  0.7345 -0.2375
  786MOL0     H 6108   9.080   5.714   7.923  0.9999 -2.0272 -0.3362
  786MOL0     H 6109   8.940   5.632   7.988  0.8785 -1.0052 -0.2517
  786MOL0     H 6110   9.006   5.768   8.076  0.3698 -2.1111  1.7171
  787MOL0     O 6111   6.808   2.039   2.798  0.0702 -0.6006 -0.5999
  787MOL0     C 6112   6.726   2.114   2.739 -0.8951  0.0424 -0.4879
  787MOL0     O 6113   6.767   2.215   2.661 -0.5229 -0.3686  0.6451
  787MOL0     C 6114   6.897   2.238   2.623  0.1356 -0.1493 -0.4742
  787MOL0     C 6115   6.990   2.135   2.595  0.2949 -0.2016 -0.1762
  787MOL0     C 6116   7.123   2.161   2.575  0.1151 -0.7478  0.8406
  787MOL0     C 6117   7.170   2.293   2.552 -0.0180  0.1836  0.0351
  787MOL0     O 6118   7.293   2.338   2.520 -0.2645 -0.2956 -0.0938
  787MOL0     C 6119   7.406   2.280   2.587 -0.3343  0.5434 -0.2832
  787MOL0     C 6120   7.535   2.348   2.561  0.3865 -0.9473  0.0429
  787MOL0     C 6121   7.666   2.273   2.604  0.1545  0.2290 -0.3062
  787MOL0     C 6122   7.788   2.372   2.596 -0.0412 -0.2435  0.0892
  787MOL0     C 6123   7.913   2.321   2.647 -0.3099  0.4550 -0.9385
  787MOL0     C 6124   8.025   2.408   2.594 -0.3282 -0.3409  0.3229
  787MOL0     C 6125   8.155   2.355   2.650 -0.3255  0.1208 -0.5707
  787MOL0     C 6126   8.276   2.419   2.572 -0.4699  0.1677 -0.3985
  787MOL0     N 6127   8.403   2.369   2.624  0.1113 -0.0963 -0.3307
  787MOL0     C 6128   8.452   2.412   2.742 -0.2472 -0.0688  1.2568
  787MOL0     C 6129   8.571   2.349   2.764  0.0342  0.5980  0.2348
  787MOL0     C 6130   8.645   2.345   2.888 -0.1884 -0.2899 -0.6952
  787MOL0     C 6131   8.794   2.328   2.868 -0.5319  0.4903  0.4995
  787MOL0     C 6132   8.886   2.328   2.995 -0.1735 -0.1300 -0.5373
  787MOL0     C 6133   8.885   2.468   3.073 -0.5351  0.4179  0.2923
  787MOL0     O 6134   8.950   2.439   3.197  0.3032  0.5286 -0.1713
  787MOL0     C 6135   9.084   2.433   3.206  0.2690 -0.0041  0.6196
  787MOL0     C 6136   9.139   2.375   3.320  0.6182 -0.3759  0.1460
  787MOL0     C 6137   9.279   2.372   3.334 -0.6149  0.7096 -0.0865
  787MOL0     C 6138   9.365   2.419   3.239  0.8696 -0.1419  0.7640
  787MOL0     C 6139   9.508   2.431   3.274  0.7587 -0.7480  0.2185
  787MOL0     O 6140   9.561   2.341   3.365  0.0042  0.0914 -0.1479
  787MOL0     C 6141   9.700   2.352   3.362 -0.6907  0.1021 -0.2359
  787MOL0     C 6142   9.753   2.433   3.458 -0.4661 -0.4976 -0.0983
  787MOL0     C 6143   9.894   2.447   3.480  0.7813 -0.0542 -1.0485
  787MOL0     C 6144   9.980   2.381   3.392 -0.9390  0.0989 -0.7421
  787MOL0     O 6145  10.113   2.412   3.420  0.2518  0.1913 -0.2363
  787MOL0     C 6146  10.212   2.366   3.333 -0.6391 -0.0778  0.4589
  787MOL0     C 6147  10.351   2.416   3.372 -0.1254 -0.1424 -0.4214
  787MOL0     C 6148  10.468   2.348   3.294 -0.0765  0.4825 -0.0636
  787MOL0     C 6149  10.586   2.443   3.308  0.2650 -0.7535  1.0442
  787MOL0     C 6150  10.721   2.375   3.277  0.5141 -0.4502  0.4211
  787MOL0     C 6151  10.838   2.460   3.315 -0.3300  0.1327  0.7269
  787MOL0     C 6152  10.968   2.406   3.269  0.3132 -0.3266 -1.1589
  787MOL0     C 6153  11.075   2.489   3.345 -0.0471 -0.2394  0.1778
  787MOL0    Cl 6154  11.237   2.408   3.325  0.1710 -0.2781  0.1015
  787MOL0     C 6155   9.931   2.306   3.283  0.4153  0.3192  0.5097
  787MOL0     C 6156   9.791   2.285   3.277  0.2746  0.5560 -0.1578
  787MOL0     O 6157   9.561   2.533   3.223  0.2132 -0.1308  0.1866
  787MOL0     C 6158   9.307   2.461   3.118 -0.6317  0.5631  0.3714
  787MOL0     C 6159   9.167   2.465   3.100  0.7213  0.4797  0.2912
  787MOL0     N 6160   8.581   2.260   2.659 -0.3126  0.3595 -0.5922
  787MOL0     N 6161   8.481   2.268   2.578  0.0902  0.4446 -0.1604
  787MOL0     C 6162   7.076   2.397   2.565 -0.0068  0.7886  0.3155
  787MOL0     C 6163   6.947   2.366   2.610  0.1162  0.0026  0.0212
  787MOL0     C 6164   6.586   2.079   2.745 -0.7355 -0.1698  0.0050
  787MOL0     C 6165   6.551   1.943   2.763 -1.2715 -0.4705  0.3821
  787MOL0     C 6166   6.415   1.904   2.774 -0.3957 -0.5132  0.5837
  787MOL0     C 6167   6.310   1.992   2.751 -0.3445 -1.0213  0.0118
  787MOL0     O 6168   6.180   1.955   2.733  0.0135  0.0460 -0.7279
  787MOL0     C 6169   6.137   1.825   2.765 -0.5667  0.2529 -0.4060
  787MOL0     C 6170   6.132   1.804   2.924  0.8052 -0.5295  0.8872
  787MOL0     C 6171   5.985   1.815   2.976 -0.3425 -1.0682 -0.1192
  787MOL0     C 6172   5.985   1.832   3.123  0.1447 -0.3484 -0.4736
  787MOL0     C 6173   5.844   1.870   3.149  0.4910  0.1046 -0.0805
  787MOL0     C 6174   5.727   1.885   3.190 -0.5656  0.6590  0.1663
  787MOL0     C 6175   6.345   2.123   2.720 -0.3894  0.0017 -0.3243
  787MOL0     C 6176   6.474   2.170   2.723  0.0070  0.6211 -0.5679
  787MOL0     C 6177   6.498   2.319   2.731  0.3989  0.6509 -0.2155
  787MOL0     H 6178   6.955   2.035   2.614  0.1143 -0.4040 -1.4852
  787MOL0     H 6179   7.183   2.071   2.571 -0.2343 -0.9696  0.2853
  787MOL0     H 6180   7.385   2.305   2.691 -1.0480  1.2656 -0.5906
  787MOL0     H 6181   7.422   2.173   2.569  2.5563  0.7412  0.7051
  787MOL0     H 6182   7.531   2.446   2.610 -2.9666 -0.9593  0.0337
  787MOL0     H 6183   7.539   2.354   2.452 -1.9407 -0.5740 -0.0770
  787MOL0     H 6184   7.694   2.180   2.554  1.2474 -1.1623  2.6170
  787MOL0     H 6185   7.665   2.242   2.709  1.4140 -0.2119 -0.4040
  787MOL0     H 6186   7.802   2.395   2.490  0.6237  5.3485  1.0659
  787MOL0     H 6187   7.765   2.473   2.633  1.8134  0.7760 -1.3481
  787MOL0     H 6188   7.902   2.328   2.756 -1.0041 -1.1556 -0.8765
  787MOL0     H 6189   7.931   2.217   2.619  0.6500 -0.4266  2.4406
  787MOL0     H 6190   8.028   2.410   2.484  1.5976 -1.8444  0.2705
  787MOL0     H 6191   8.002   2.509   2.627  3.1218  0.9918 -0.8355
  787MOL0     H 6192   8.170   2.247   2.642  2.5228  0.0178  3.2727
  787MOL0     H 6193   8.152   2.372   2.758  1.0821 -3.6918  0.2190
  787MOL0     H 6194   8.263   2.394   2.467  0.9666  2.1043 -1.0965
  787MOL0     H 6195   8.264   2.525   2.597 -2.3958 -0.7806  3.4935
  787MOL0     H 6196   8.407   2.491   2.802 -1.9805  1.2026 -1.5304
  787MOL0     H 6197   8.630   2.439   2.942  0.1719 -0.7555  0.2374
  787MOL0     H 6198   8.593   2.269   2.947 -2.1161  0.5570 -1.2205
  787MOL0     H 6199   8.805   2.239   2.805  0.5346  1.1260 -0.2455
  787MOL0     H 6200   8.831   2.417   2.816  1.3569  1.3908  3.1988
  787MOL0     H 6201   8.991   2.308   2.972  0.0180  1.0878 -0.8196
  787MOL0     H 6202   8.837   2.259   3.064 -0.5267  1.9106  1.3953
  787MOL0     H 6203   8.779   2.487   3.090 -1.1984 -2.6468  0.1633
  787MOL0     H 6204   8.916   2.557   3.017 -2.6438  1.2336  0.3542
  787MOL0     H 6205   9.071   2.343   3.398  1.1727 -2.2926 -0.1178
  787MOL0     H 6206   9.313   2.313   3.419  2.2986 -0.2213 -1.7467
  787MOL0     H 6207   9.681   2.481   3.524  0.4000  0.1005  0.4360
  787MOL0     H 6208   9.942   2.518   3.548 -0.4210  1.2337 -1.4944
  787MOL0     H 6209  10.209   2.257   3.328  0.3874 -0.0685 -0.8279
  787MOL0     H 6210  10.191   2.403   3.232  4.2483  1.7732 -0.1622
  787MOL0     H 6211  10.353   2.523   3.351 -2.1165  0.4325  1.7917
  787MOL0     H 6212  10.366   2.395   3.479  0.8120 -1.5797 -0.8061
  787MOL0     H 6213  10.493   2.249   3.334 -1.5176 -1.0149 -2.6301
  787MOL0     H 6214  10.447   2.323   3.190  1.0377  2.0455 -0.6979
  787MOL0     H 6215  10.591   2.483   3.410 -0.0605  1.9402  0.0691
  787MOL0     H 6216  10.566   2.528   3.242 -0.6836  0.3564  2.6751
  787MOL0     H 6217  10.720   2.339   3.173 -0.0927  0.2428  0.1821
  787MOL0     H 6218  10.725   2.279   3.331 -1.6628 -1.2239 -0.6882
  787MOL0     H 6219  10.834   2.564   3.279 -1.0932  0.9111  2.8696
  787MOL0     H 6220  10.841   2.460   3.425  1.8665 -1.2263  0.7430
  787MOL0     H 6221  10.988   2.420   3.162  2.1482 -0.5685 -0.8770
  787MOL0     H 6222  10.969   2.302   3.305 -0.0149 -0.1902 -0.7478
  787MOL0     H 6223  11.057   2.595   3.323  0.5282  0.1390  1.4369
  787MOL0     H 6224  11.054   2.486   3.452  0.4775  2.0221  0.3906
  787MOL0     H 6225  10.004   2.250   3.227  1.1409  0.3584  1.3900
  787MOL0     H 6226   9.750   2.216   3.204  0.0883  1.2095 -0.6720
  787MOL0     H 6227   9.368   2.488   3.032 -1.2871  0.4248 -0.1452
  787MOL0     H 6228   9.120   2.490   3.006  0.1264  1.4424  0.8417
  787MOL0     H 6229   7.113   2.497   2.542 -0.3466  0.9007  0.2478
  787MOL0     H 6230   6.887   2.454   2.628  2.0204  1.2553  0.4966
  787MOL0     H 6231   6.636   1.877   2.778 -0.3912  0.9294  1.8866
  787MOL0     H 6232   6.394   1.800   2.797 -1.5122 -0.4158  0.0453
  787MOL0     H 6233   6.202   1.748   2.723  0.6675  0.5559  0.8565
  787MOL0     H 6234   6.039   1.822   2.716  0.1124 -1.5826 -1.7585
  787MOL0     H 6235   6.190   1.880   2.978 -0.7301  0.4638  1.1959
  787MOL0     H 6236   6.171   1.703   2.940  1.0462 -0.2262  2.3436
  787MOL0     H 6237   5.925   1.727   2.950  0.3680 -1.9289  1.0012
  787MOL0     H 6238   5.942   1.900   2.923  2.0462 -0.1826 -0.7559
  787MOL0     H 6239   6.012   1.743   3.181  1.0303  0.7442  0.8546
  787MOL0     H 6240   6.046   1.921   3.142  0.6924 -0.8860  0.3227
  787MOL0     H 6241   5.626   1.885   3.228  0.5257  3.0293  3.5138
  787MOL0     H 6242   6.272   2.202   2.708  1.1155  1.4406 -0.2689
  787MOL0     H 6243   6.579   2.333   2.804 -0.1509 -0.9856  0.7432
  787MOL0     H 6244   6.518   2.349   2.628 -3.0704  0.0720 -1.1713
  787MOL0     H 6245   6.412   2.379   2.763 -2.6997 -2.8856 -1.2645
  788MOL0     O 6246   4.330   6.792   5.164 -0.0142 -0.2821  0.4174
  788MOL0     C 6247   4.274   6.693   5.212  0.4375  0.2256  0.0467
  788MOL0     O 6248   4.302   6.571   5.173 -0.3620  0.4648  0.7286
  788MOL0     C 6249   4.428   6.526   5.157 -0.4124 -0.2859  0.0063
  788MOL0     C 6250   4.543   6.586   5.199 -1.2041  0.0354 -0.6346
  788MOL0     C 6251   4.665   6.522   5.188 -0.3431 -0.3234  0.2918
  788MOL0     C 6252   4.679   6.395   5.125  0.0827  0.4512 -0.5266
  788MOL0     O 6253   4.792   6.317   5.124  0.1950 -0.2890 -0.4045
  788MOL0     C 6254   4.921   6.388   5.116  0.2839  0.1181  1.7135
  788MOL0     C 6255   5.025   6.306   5.034 -0.8735  0.1672  0.0891
  788MOL0     C 6256   4.967   6.248   4.905 -1.1399  0.7886 -1.0813
  788MOL0     C 6257   5.064   6.140   4.862  0.1040  0.0806 -0.2356
  788MOL0     C 6258   5.041   6.083   4.723  0.0964  0.2550 -0.1282
  788MOL0     C 6259   5.152   5.981   4.674 -0.1688 -0.9458 -0.9657
  788MOL0     C 6260   5.178   5.874   4.768 -0.0715  0.3737 -0.3830
  788MOL0     C 6261   5.291   5.773   4.735 -0.7034  0.3532  0.4990
  788MOL0     N 6262   5.412   5.855   4.719  0.7276  0.9215  0.2774
  788MOL0     C 6263   5.472   5.937   4.807  0.0320  0.5484 -0.3408
  788MOL0     C 6264   5.593   5.971   4.754  0.3505  0.8699  0.1723
  788MOL0     C 6265   5.690   6.073   4.800 -0.8374 -0.2068  0.2938
  788MOL0     C 6266   5.773   6.031   4.918  0.0227  0.9931  1.0463
  788MOL0     C 6267   5.849   5.898   4.904  0.1584  0.9459 -0.1204
  788MOL0     C 6268   5.978   5.915   4.820 -0.6666  0.3788  0.2684
  788MOL0     O 6269   6.066   6.016   4.874 -1.0271  0.1220  0.1458
  788MOL0     C 6270   6.209   6.010   4.854  0.5466 -0.3557 -0.0535
  788MOL0     C 6271   6.276   6.100   4.932  0.0952 -0.0976  0.0232
  788MOL0     C 6272   6.409   6.098   4.949 -1.3830  0.3792 -0.4663
  788MOL0     C 6273   6.490   5.999   4.883 -0.3482 -0.4338 -0.3716
  788MOL0     C 6274   6.639   6.005   4.893 -0.1529 -0.1838  0.7522
  788MOL0     O 6275   6.707   6.109   4.958  0.1947 -0.5173  0.2468
  788MOL0     C 6276   6.843   6.105   4.956  0.6295 -0.5686  0.0339
  788MOL0     C 6277   6.909   6.099   5.079  0.3342  0.5571 -0.6876
  788MOL0     C 6278   7.052   6.112   5.085 -0.3078 -0.4172 -0.5685
  788MOL0     C 6279   7.129   6.118   4.971  0.1795  0.1282  0.2172
  788MOL0     O 6280   7.262   6.131   4.986 -0.5339  0.1952 -0.3773
  788MOL0     C 6281   7.301   6.245   5.062 -0.3567 -0.1447 -0.9013
  788MOL0     C 6282   7.437   6.291   5.031  0.4023  0.5579 -0.4515
  788MOL0     C 6283   7.540   6.188   5.068  0.1192  0.0360 -0.1532
  788MOL0     C 6284   7.685   6.243   5.078  0.5614 -0.3131  0.2983
  788MOL0     C 6285   7.733   6.294   4.939 -0.0559  0.6672  0.6262
  788MOL0     C 6286   7.881   6.325   4.936 -0.0622  0.0759 -0.7623
  788MOL0     C 6287   7.960   6.192   4.932 -0.1734 -0.4639  0.6892
  788MOL0     C 6288   8.045   6.195   4.811 -0.3912  0.1871 -0.0650
  788MOL0    Cl 6289   8.183   6.307   4.820 -0.0041  0.3589 -0.0804
  788MOL0     C 6290   7.060   6.105   4.850  0.7134  0.3328 -0.3391
  788MOL0     C 6291   6.919   6.102   4.838 -0.0516  0.2917  0.5440
  788MOL0     O 6292   6.686   5.901   4.854 -0.5658 -0.3060  0.2264
  788MOL0     C 6293   6.424   5.904   4.802 -0.7686 -0.6900  0.2505
  788MOL0     C 6294   6.279   5.909   4.786 -0.1228 -0.5131 -0.6758
  788MOL0     N 6295   5.596   5.911   4.631 -0.5644  0.6799 -0.2081
  788MOL0     N 6296   5.482   5.849   4.602  0.7731  1.7961 -0.2747
  788MOL0     C 6297   4.560   6.338   5.080  0.2390 -0.7689  0.0538
  788MOL0     C 6298   4.439   6.402   5.090  0.0927 -0.2414  0.0060
  788MOL0     C 6299   4.187   6.711   5.331  0.1432  0.8828 -0.3257
  788MOL0     C 6300   4.178   6.605   5.423 -0.7423  0.6011  0.1782
  788MOL0     C 6301   4.112   6.620   5.545  0.3846 -0.3344  0.4083
  788MOL0     C 6302   4.029   6.729   5.567  0.6910 -0.3350 -0.1331
  788MOL0     O 6303   3.947   6.748   5.674  0.1441 -0.1336 -0.0744
  788MOL0     C 6304   3.896   6.637   5.754 -0.4046 -0.2667  0.1812
  788MOL0     C 6305   3.739   6.643   5.777  0.9848  0.2926 -0.2100
  788MOL0     C 6306   3.682   6.751   5.877  1.0199  0.2316 -0.1421
  788MOL0     C 6307   3.753   6.759   6.018  0.9222 -0.5746 -0.0874
  788MOL0     C 6308   3.705   6.658   6.110  0.2436 -0.7234 -0.0119
  788MOL0     C 6309   3.679   6.581   6.199 -0.3744 -0.1629  0.1504
  788MOL0     C 6310   4.041   6.836   5.480 -0.2509  0.0572  0.0510
  788MOL0     C 6311   4.109   6.831   5.356  0.4688 -0.1380  0.9646
  788MOL0     C 6312   4.104   6.945   5.259 -0.6961 -0.5242  0.6017
  788MOL0     H 6313   4.532   6.682   5.249  1.4091  1.5106 -2.6080
  788MOL0     H 6314   4.753   6.568   5.232  0.6357 -2.7055  1.0217
  788MOL0     H 6315   4.915   6.477   5.052  2.2066 -0.2909  0.9112
  788MOL0     H 6316   4.966   6.418   5.211 -1.8157  1.3837  2.3810
  788MOL0     H 6317   5.078   6.232   5.095  0.7718  1.1576 -0.0745
  788MOL0     H 6318   5.105   6.379   5.017 -3.0338  2.2206 -1.8200
  788MOL0     H 6319   4.961   6.328   4.831 -0.6900  0.1376 -1.8412
  788MOL0     H 6320   4.868   6.204   4.918 -0.7678  0.5838  1.5626
  788MOL0     H 6321   5.165   6.183   4.866 -1.1133  3.4615 -1.5829
  788MOL0     H 6322   5.061   6.056   4.932  1.7086  2.3970  2.8553
  788MOL0     H 6323   4.946   6.030   4.729  0.0721  0.4872  3.4216
  788MOL0     H 6324   5.020   6.161   4.649  1.3974 -0.5936 -1.4376
  788MOL0     H 6325   5.132   5.929   4.580  0.9945 -1.0442 -1.1712
  788MOL0     H 6326   5.246   6.036   4.663  0.0114 -0.8614  0.7732
  788MOL0     H 6327   5.092   5.807   4.767  2.2152 -2.9894  2.2830
  788MOL0     H 6328   5.198   5.921   4.865  0.4316 -0.6534  0.0268
  788MOL0     H 6329   5.306   5.700   4.814  3.1094  1.3915  0.9462
  788MOL0     H 6330   5.279   5.718   4.641 -0.8687 -1.7092  1.6671
  788MOL0     H 6331   5.439   5.968   4.905 -1.4136 -0.8062 -0.3529
  788MOL0     H 6332   5.757   6.101   4.718  0.1872  0.7351  1.4125
  788MOL0     H 6333   5.643   6.168   4.829  0.2812  0.3397  0.3648
  788MOL0     H 6334   5.838   6.115   4.943  2.8685 -1.7760  3.9894
  788MOL0     H 6335   5.705   6.027   5.004 -0.7364  0.1008  0.4352
  788MOL0     H 6336   5.781   5.818   4.874  1.7343 -1.1659  1.6129
  788MOL0     H 6337   5.871   5.880   5.010  0.8321  4.0974  0.3534
  788MOL0     H 6338   5.969   5.942   4.714  0.3527 -1.5345 -0.3592
  788MOL0     H 6339   6.031   5.820   4.809 -1.3777  0.2104 -2.7853
  788MOL0     H 6340   6.230   6.167   5.003  0.7711 -1.0173  1.3955
  788MOL0     H 6341   6.459   6.169   5.014 -0.6625 -1.0333  0.5903
  788MOL0     H 6342   6.847   6.097   5.168 -1.5278 -0.6768 -1.9427
  788MOL0     H 6343   7.099   6.114   5.183  0.1404  2.0868 -0.7816
  788MOL0     H 6344   7.229   6.325   5.044 -1.2371 -1.2513 -2.5510
  788MOL0     H 6345   7.296   6.224   5.169 -2.2781 -0.8311 -1.0928
  788MOL0     H 6346   7.450   6.321   4.927 -1.5969  1.9448 -0.3685
  788MOL0     H 6347   7.446   6.383   5.089 -3.5357  0.7442  0.1980
  788MOL0     H 6348   7.509   6.138   5.160 -0.4945  1.0179  0.1904
  788MOL0     H 6349   7.529   6.105   4.998  1.5186 -2.0021  1.9046
  788MOL0     H 6350   7.739   6.157   5.117  1.7618  1.5623  3.0980
  788MOL0     H 6351   7.677   6.320   5.156 -3.1143 -0.6791  0.4688
  788MOL0     H 6352   7.682   6.388   4.920 -2.0050 -0.2724  0.9694
  788MOL0     H 6353   7.702   6.224   4.860 -0.6350  2.7541 -1.0734
  788MOL0     H 6354   7.910   6.386   4.850 -0.5946  0.7492 -0.4769
  788MOL0     H 6355   7.918   6.376   5.025 -0.5342  1.0570 -1.1111
  788MOL0     H 6356   7.892   6.106   4.923 -0.5561 -0.0384 -0.5607
  788MOL0     H 6357   8.026   6.175   5.017  0.6474 -0.2778  0.0978
  788MOL0     H 6358   8.091   6.095   4.806 -2.1399 -0.7392  1.1283
  788MOL0     H 6359   7.971   6.197   4.732 -2.3726 -1.5362  1.6125
  788MOL0     H 6360   7.111   6.105   4.754  0.0010  0.0556 -0.7327
  788MOL0     H 6361   6.881   6.082   4.738  1.0016  0.3045  0.1264
  788MOL0     H 6362   6.479   5.821   4.758 -0.1351  0.3708 -1.0552
  788MOL0     H 6363   6.232   5.829   4.731  2.2670 -0.2398 -3.3413
  788MOL0     H 6364   4.554   6.240   5.033 -0.5374  0.0175 -1.6009
  788MOL0     H 6365   4.349   6.364   5.043  0.5325 -0.6087 -0.5608
  788MOL0     H 6366   4.226   6.508   5.415 -3.3165 -0.9879  2.1286
  788MOL0     H 6367   4.114   6.540   5.618  1.7392  0.2766  1.0613
  788MOL0     H 6368   3.934   6.630   5.856 -0.4280  2.2198  0.4160
  788MOL0     H 6369   3.915   6.546   5.696 -0.6345  0.4355 -1.0478
  788MOL0     H 6370   3.702   6.546   5.810 -1.6398  1.7495  1.5806
  788MOL0     H 6371   3.702   6.659   5.675 -0.3398 -2.5742 -0.2747
  788MOL0     H 6372   3.576   6.735   5.902  1.2253 -2.1155 -0.5974
  788MOL0     H 6373   3.684   6.847   5.823 -0.6395 -0.2287 -1.1142
  788MOL0     H 6374   3.862   6.757   6.004  0.8470  0.1747 -0.8724
  788MOL0     H 6375   3.736   6.856   6.064 -2.1809 -0.6491 -0.8493
  788MOL0     H 6376   3.663   6.508   6.275 -0.2000  2.3076  2.7390
  788MOL0     H 6377   3.981   6.924   5.499  2.4631  1.8824  0.5770
  788MOL0     H 6378   4.063   6.916   5.161  0.4296 -1.3598  0.3596
  788MOL0     H 6379   4.049   7.032   5.296  0.7378  2.1183 -2.8759
  788MOL0     H 6380   4.208   6.977   5.245 -0.8559  0.2323  1.1238
  789MOL0     O 6381   2.481   2.915  10.892 -0.7776 -0.1340  0.3232
  789MOL0     C 6382   2.476   3.001  10.983  0.2912  0.2799  1.2047
  789MOL0     O 6383   2.530   2.988  11.099  0.0179  0.4177  0.3048
  789MOL0     C 6384   2.589   2.868  11.130  0.4127  0.5197 -0.0078
  789MOL0     C 6385   2.714   2.869  11.189  1.2378  0.4646 -0.2464
  789MOL0     C 6386   2.769   2.747  11.238 -0.9139  0.6768  0.4029
  789MOL0     C 6387   2.695   2.631  11.231  0.2306  0.3718  1.6000
  789MOL0     O 6388   2.739   2.510  11.290  0.0205  0.2165  0.9148
  789MOL0     C 6389   2.876   2.471  11.301  0.0333 -0.4347 -0.3539
  789MOL0     C 6390   2.959   2.445  11.174  0.2695  0.1141  0.1134
  789MOL0     C 6391   2.904   2.327  11.087  0.1876 -0.4367  0.1617
  789MOL0     C 6392   2.885   2.196  11.158 -0.0830  0.5260 -0.2768
  789MOL0     C 6393   2.839   2.089  11.054  0.1298  0.1637 -0.1147
  789MOL0     C 6394   2.954   2.050  10.954 -0.6262 -0.1603  0.8194
  789MOL0     C 6395   2.938   1.913  10.883 -0.6450  0.4726 -0.7578
  789MOL0     C 6396   2.820   1.908  10.796 -0.4056 -0.3401 -0.0538
  789MOL0     N 6397   2.816   1.788  10.717  0.1990  0.1760 -0.9167
  789MOL0     C 6398   2.738   1.681  10.746 -0.3539 -0.5768  0.0510
  789MOL0     C 6399   2.723   1.622  10.628  0.2682  0.4130  0.4043
  789MOL0     C 6400   2.637   1.500  10.604 -0.3131 -0.0427 -0.2882
  789MOL0     C 6401   2.525   1.523  10.499  0.3090 -0.3096 -0.1760
  789MOL0     C 6402   2.553   1.455  10.356  0.0921 -0.3947 -0.4172
  789MOL0     C 6403   2.618   1.557  10.272 -0.0544 -0.4347 -0.5789
  789MOL0     O 6404   2.667   1.497  10.152 -0.8141 -0.1315 -0.3975
  789MOL0     C 6405   2.789   1.436  10.136  0.1075 -0.3195  0.6963
  789MOL0     C 6406   2.837   1.421  10.008 -0.0486  0.9531  0.2465
  789MOL0     C 6407   2.952   1.344   9.977 -0.2151 -0.2699 -0.5446
  789MOL0     C 6408   3.011   1.270  10.086  0.0813 -0.3519  0.8052
  789MOL0     C 6409   3.137   1.190  10.055  0.0522  0.2217  0.3310
  789MOL0     O 6410   3.195   1.138  10.161 -0.6064 -0.1562 -0.6397
  789MOL0     C 6411   3.322   1.083  10.140  0.1722 -0.1184 -0.1363
  789MOL0     C 6412   3.351   0.970  10.069 -0.0586  0.3477  0.7307
  789MOL0     C 6413   3.483   0.929  10.046 -0.1945 -0.2291  0.0251
  789MOL0     C 6414   3.590   0.991  10.113  0.2659  0.0417  0.1683
  789MOL0     O 6415   3.720   0.946  10.108  0.6850  0.2166 -0.3648
  789MOL0     C 6416   3.766   0.850  10.006 -0.0661 -0.1196 -0.1171
  789MOL0     C 6417   3.918   0.837   9.980  0.0409  0.0998  1.0224
  789MOL0     C 6418   3.987   0.959  10.018 -0.3921 -0.2933  0.3132
  789MOL0     C 6419   4.127   0.950   9.975 -0.2503 -0.0757  1.0667
  789MOL0     C 6420   4.174   1.092   9.966 -0.6243  0.6742  0.5699
  789MOL0     C 6421   4.322   1.095   9.928  0.2005 -0.4215 -0.1432
  789MOL0     C 6422   4.408   1.040  10.037  0.3197  0.8553  0.5117
  789MOL0     C 6423   4.553   1.070  10.013 -0.6802 -0.1717 -0.4587
  789MOL0    Cl 6424   4.658   0.949  10.097 -0.1985 -0.4898 -0.0225
  789MOL0     C 6425   3.560   1.107  10.188 -0.0606 -0.8283  0.5668
  789MOL0     C 6426   3.422   1.153  10.198  0.4662  0.8549 -0.3159
  789MOL0     O 6427   3.177   1.183   9.937 -0.2302 -0.5922  0.1565
  789MOL0     C 6428   2.963   1.283  10.215  0.2486 -0.5404  0.1377
  789MOL0     C 6429   2.858   1.373  10.235 -0.3672  0.7060  0.0083
  789MOL0     N 6430   2.809   1.681  10.536 -0.4211 -0.9068  0.1974
  789MOL0     N 6431   2.861   1.787  10.589  0.6321 -0.3503 -0.4872
  789MOL0     C 6432   2.579   2.621  11.152  0.4177 -0.3919 -0.4766
  789MOL0     C 6433   2.526   2.741  11.104  0.3164  0.0515  0.3394
  789MOL0     C 6434   2.395   3.121  10.966 -0.2980  0.1614 -0.5270
  789MOL0     C 6435   2.411   3.225  11.055 -0.1990 -0.1639  0.5856
  789MOL0     C 6436   2.346   3.344  11.037  0.0965 -0.6855  0.1494
  789MOL0     C 6437   2.255   3.370  10.939  0.4375  0.1884  0.5487
  789MOL0     O 6438   2.203   3.493  10.929  0.3424 -0.8637 -0.8736
  789MOL0     C 6439   2.106   3.540  10.830  0.0203 -0.5054 -0.1775
  789MOL0     C 6440   1.963   3.556  10.892  0.4807  0.4190 -0.5339
  789MOL0     C 6441   1.890   3.433  10.941  0.3462  1.1330  0.3527
  789MOL0     C 6442   1.794   3.360  10.835 -1.1157  0.7399 -0.7649
  789MOL0     C 6443   1.870   3.323  10.717 -0.7547 -0.2001 -0.1421
  789MOL0     C 6444   1.940   3.300  10.615 -0.0540  0.1635  0.2410
  789MOL0     C 6445   2.227   3.262  10.849 -0.0299 -0.6411  0.9549
  789MOL0     C 6446   2.293   3.134  10.863 -0.6064 -0.2803 -0.6023
  789MOL0     C 6447   2.223   3.021  10.788  0.5232 -0.2935  0.1468
  789MOL0     H 6448   2.765   2.965  11.196 -0.8927  1.7880 -1.7443
  789MOL0     H 6449   2.864   2.763  11.288 -0.1165  3.1559 -1.6536
  789MOL0     H 6450   2.915   2.551  11.364  0.7796 -1.6669  0.8019
  789MOL0     H 6451   2.875   2.383  11.366 -2.4077 -0.5382 -0.4386
  789MOL0     H 6452   3.061   2.415  11.201 -0.5876 -0.7514  2.6655
  789MOL0     H 6453   2.967   2.536  11.113  2.7557  0.4230  0.7897
  789MOL0     H 6454   2.980   2.319  11.009  0.4249  0.2466  0.3135
  789MOL0     H 6455   2.809   2.359  11.041  0.6082 -1.1587 -1.2858
  789MOL0     H 6456   2.975   2.182  11.219 -0.8829 -0.3923  0.7231
  789MOL0     H 6457   2.808   2.195  11.235 -0.8187  0.1011 -0.9997
  789MOL0     H 6458   2.803   2.004  11.113 -0.3425  1.8490  2.1861
  789MOL0     H 6459   2.756   2.115  10.988 -1.0814 -3.1151 -0.0552
  789MOL0     H 6460   2.963   2.123  10.873 -3.0531  0.1745  0.7786
  789MOL0     H 6461   3.052   2.057  11.003 -0.8291 -0.6527  1.3089
  789MOL0     H 6462   2.926   1.842  10.965  0.3430  0.1343 -0.8976
  789MOL0     H 6463   3.022   1.895  10.815 -2.0736 -0.0169 -2.4737
  789MOL0     H 6464   2.730   1.923  10.856 -0.0252 -0.4862  0.5630
  789MOL0     H 6465   2.828   1.993  10.727  1.8794 -1.0406 -0.7482
  789MOL0     H 6466   2.675   1.653  10.830 -1.5430 -0.8346 -0.8952
  789MOL0     H 6467   2.711   1.435  10.556 -0.1524 -0.0912  0.0213
  789MOL0     H 6468   2.597   1.454  10.695 -0.8748  0.2487 -0.3864
  789MOL0     H 6469   2.430   1.481  10.532  1.0382 -2.2538 -0.3860
  789MOL0     H 6470   2.512   1.629  10.478  1.0484 -0.4758 -1.5946
  789MOL0     H 6471   2.454   1.420  10.325 -0.9274 -0.5038  2.5889
  789MOL0     H 6472   2.617   1.366  10.367  1.2156  0.4664  0.2767
  789MOL0     H 6473   2.694   1.605  10.334 -1.3925 -0.1766  0.9281
  789MOL0     H 6474   2.551   1.638  10.242 -0.0670 -1.1325 -2.6479
  789MOL0     H 6475   2.791   1.476   9.927 -0.6499  2.7544  1.7307
  789MOL0     H 6476   2.988   1.341   9.875  1.6162  3.2354 -0.1417
  789MOL0     H 6477   3.268   0.916  10.025 -0.5503  0.6321  1.3014
  789MOL0     H 6478   3.499   0.841   9.985 -0.5746  0.5905 -1.2809
  789MOL0     H 6479   3.719   0.753  10.030 -2.6944  1.0115 -0.3433
  789MOL0     H 6480   3.723   0.881   9.911  0.2535  0.9841  0.0872
  789MOL0     H 6481   3.960   0.752  10.035  1.7468  0.1321 -0.1511
  789MOL0     H 6482   3.936   0.801   9.878  0.8223  1.6966  0.5682
  789MOL0     H 6483   3.945   1.044   9.964 -0.0646 -1.4131 -1.7758
  789MOL0     H 6484   3.977   0.982  10.125  0.1261 -1.6025  0.6512
  789MOL0     H 6485   4.155   0.918   9.874 -1.0756  0.3674  0.6926
  789MOL0     H 6486   4.187   0.898  10.051 -1.0175 -5.6207 -1.6719
  789MOL0     H 6487   4.159   1.147  10.059 -0.0277  0.3376  0.8711
  789MOL0     H 6488   4.114   1.149   9.895 -0.6832  0.6056  0.5648
  789MOL0     H 6489   4.326   1.041   9.832  1.0714 -0.9969  0.2040
  789MOL0     H 6490   4.359   1.197   9.915  2.3205 -1.2155 -0.9912
  789MOL0     H 6491   4.391   0.932  10.031 -0.2402  0.9946 -1.0867
  789MOL0     H 6492   4.366   1.072  10.132 -2.3601 -3.8115  1.1928
  789MOL0     H 6493   4.569   1.069   9.905 -0.3068 -0.2378 -0.4023
  789MOL0     H 6494   4.572   1.172  10.046  1.9791 -0.3218 -1.3257
  789MOL0     H 6495   3.631   1.164  10.248 -1.0003  0.3266  0.6077
  789MOL0     H 6496   3.382   1.239  10.252 -1.4449 -1.0693  1.5237
  789MOL0     H 6497   3.010   1.222  10.292  1.6483  0.8821  0.4613
  789MOL0     H 6498   2.827   1.388  10.338 -0.4652  1.7394 -0.1629
  789MOL0     H 6499   2.519   2.530  11.148 -1.0285  0.3331  2.2192
  789MOL0     H 6500   2.429   2.755  11.058  0.4655  1.9819  0.5052
  789MOL0     H 6501   2.494   3.221  11.124  2.7573 -2.5906 -2.7195
  789MOL0     H 6502   2.353   3.429  11.104 -3.6600  1.3040 -1.6384
  789MOL0     H 6503   2.114   3.476  10.742  0.5211 -0.9452  0.1788
  789MOL0     H 6504   2.144   3.639  10.805 -2.0315  0.2572 -0.5034
  789MOL0     H 6505   1.899   3.602  10.816 -1.2962 -0.1125  0.5676
  789MOL0     H 6506   1.971   3.625  10.977 -0.9500  0.3859 -0.3428
  789MOL0     H 6507   1.829   3.455  11.029  0.1245  1.1261  0.1996
  789MOL0     H 6508   1.965   3.362  10.977 -1.2142 -1.1738 -0.7239
  789MOL0     H 6509   1.756   3.265  10.873 -0.3436 -0.6272 -3.2635
  789MOL0     H 6510   1.711   3.426  10.806  0.3799  1.4532 -3.7649
  789MOL0     H 6511   2.002   3.285  10.529 -0.1075  1.3778 -0.0330
  789MOL0     H 6512   2.154   3.279  10.770  0.3666  1.2215  0.9350
  789MOL0     H 6513   2.223   2.936  10.856 -3.5337  0.9897  2.0344
  789MOL0     H 6514   2.121   3.049  10.762  0.0706  0.5998  2.6369
  789MOL0     H 6515   2.277   3.002  10.694 -1.8034  1.6045 -1.7165
  790MOL0     O 6516   1.688   8.368   3.246  0.2354 -0.0325  0.2342
  790MOL0     C 6517   1.720   8.439   3.154  0.3650  0.1635  0.6502
  790MOL0     O 6518   1.853   8.440   3.100 -0.7439 -0.0583  0.4123
  790MOL0     C 6519   1.956   8.376   3.168  1.3351 -0.7255  0.6056
  790MOL0     C 6520   1.966   8.394   3.311 -0.6488  0.7527 -0.4202
  790MOL0     C 6521   2.083   8.354   3.376  0.1779  0.3385  0.2236
  790MOL0     C 6522   2.182   8.288   3.307  0.7329 -0.3484  0.7223
  790MOL0     O 6523   2.294   8.242   3.373  0.0868 -0.7260 -0.3374
  790MOL0     C 6524   2.397   8.336   3.413  0.4825 -0.3356  0.0601
  790MOL0     C 6525   2.474   8.378   3.292  0.3059  0.4326 -0.5431
  790MOL0     C 6526   2.548   8.260   3.237  0.0085  0.5855 -0.1033
  790MOL0     C 6527   2.674   8.224   3.311 -0.3365  0.1785 -0.0068
  790MOL0     C 6528   2.768   8.131   3.232 -0.5366  0.3751  0.3906
  790MOL0     C 6529   2.899   8.104   3.311 -0.3813  0.3236  0.4621
  790MOL0     C 6530   2.886   8.003   3.434 -0.5938 -0.2407 -0.8299
  790MOL0     C 6531   3.010   7.926   3.483 -0.5421 -0.2215  0.2080
  790MOL0     N 6532   3.132   7.994   3.530  0.6125 -0.2426 -0.1379
  790MOL0     C 6533   3.202   8.079   3.456 -0.2406 -0.5987  0.3598
  790MOL0     C 6534   3.285   8.139   3.544 -0.8829  0.5724 -0.1104
  790MOL0     C 6535   3.368   8.263   3.518 -0.4675 -0.3608  0.1511
  790MOL0     C 6536   3.524   8.248   3.536  0.1555 -0.9797 -0.0020
  790MOL0     C 6537   3.595   8.357   3.462 -0.7739 -0.3522 -0.1476
  790MOL0     C 6538   3.739   8.382   3.496  0.1982 -0.7060 -0.3089
  790MOL0     O 6539   3.756   8.507   3.427  0.1618 -0.5569 -0.6789
  790MOL0     C 6540   3.882   8.564   3.452 -0.4945  0.6352  0.7103
  790MOL0     C 6541   3.898   8.696   3.398  0.3992 -0.2284  0.1431
  790MOL0     C 6542   4.012   8.773   3.413 -0.3500 -0.1464 -0.5874
  790MOL0     C 6543   4.119   8.724   3.484 -0.5353  0.5290 -0.4887
  790MOL0     C 6544   4.240   8.804   3.502  0.4371  0.4168 -0.5718
  790MOL0     O 6545   4.241   8.937   3.453 -0.7336  0.4626 -0.2284
  790MOL0     C 6546   4.366   8.992   3.459 -1.1309  0.0216  0.1165
  790MOL0     C 6547   4.474   8.945   3.372 -0.0563 -0.0107  1.4367
  790MOL0     C 6548   4.604   8.984   3.412  0.1301  0.6047  0.7984
  790MOL0     C 6549   4.638   9.071   3.512 -0.4057 -0.2344  0.2803
  790MOL0     O 6550   4.763   9.126   3.534  0.0227  0.0655  0.1595
  790MOL0     C 6551   4.869   9.103   3.447  0.4054 -0.3858  0.3313
  790MOL0     C 6552   4.987   9.132   3.540  0.0585 -0.2202  0.1445
  790MOL0     C 6553   5.115   9.188   3.473  0.4605 -0.2896  0.0255
  790MOL0     C 6554   5.223   9.253   3.567  0.9881  0.1308 -0.5121
  790MOL0     C 6555   5.335   9.318   3.493  0.2761  0.1549 -0.0886
  790MOL0     C 6556   5.454   9.375   3.576 -0.3607 -0.7213 -0.5251
  790MOL0     C 6557   5.561   9.428   3.476 -0.2468 -0.4761 -0.1791
  790MOL0     C 6558   5.676   9.466   3.563  0.3864  0.0127 -0.3402
  790MOL0    Cl 6559   5.784   9.326   3.602  0.1750 -0.1123  0.2920
  790MOL0     C 6560   4.523   9.129   3.580 -0.5431 -0.5970  0.1330
  790MOL0     C 6561   4.388   9.084   3.561 -0.7175  0.1150  0.0428
  790MOL0     O 6562   4.340   8.736   3.546 -0.0941  0.0302  0.4354
  790MOL0     C 6563   4.109   8.596   3.541 -0.2743  0.0174 -0.3222
  790MOL0     C 6564   3.993   8.514   3.524 -0.8478  0.2855 -0.0214
  790MOL0     N 6565   3.285   8.067   3.665  0.5807 -0.0378  0.3725
  790MOL0     N 6566   3.194   7.977   3.651 -0.3822 -0.3071  0.5009
  790MOL0     C 6567   2.171   8.284   3.168 -0.1888 -0.2308  0.1923
  790MOL0     C 6568   2.061   8.323   3.097  0.5172  0.1742 -1.2617
  790MOL0     C 6569   1.617   8.521   3.078 -0.0866 -0.2012 -0.0096
  790MOL0     C 6570   1.666   8.604   2.971  0.0308  0.4488  0.2751
  790MOL0     C 6571   1.576   8.682   2.891 -0.4421 -0.2765 -0.1950
  790MOL0     C 6572   1.438   8.688   2.926 -0.9880 -0.0297 -0.6874
  790MOL0     O 6573   1.343   8.767   2.869 -0.5337  0.0616 -0.3858
  790MOL0     C 6574   1.375   8.851   2.761  0.3916  0.3840 -0.0104
  790MOL0     C 6575   1.463   8.971   2.792  0.2970  0.0419 -0.0990
  790MOL0     C 6576   1.408   9.063   2.908  1.2611 -0.8118  0.1661
  790MOL0     C 6577   1.481   9.192   2.931 -0.1792 -0.1358  0.3294
  790MOL0     C 6578   1.445   9.258   3.058  0.4555 -1.1634  0.1637
  790MOL0     C 6579   1.402   9.322   3.156 -0.6895 -0.7527  0.3618
  790MOL0     C 6580   1.397   8.609   3.031  0.6884 -0.0145  0.1233
  790MOL0     C 6581   1.479   8.526   3.104  0.0013 -0.3431  0.6703
  790MOL0     C 6582   1.414   8.442   3.219 -0.0947 -0.0417  0.0433
  790MOL0     H 6583   1.901   8.465   3.362 -0.6866  0.9329 -0.7208
  790MOL0     H 6584   2.091   8.365   3.484 -2.3513 -1.2709  0.6699
  790MOL0     H 6585   2.362   8.430   3.455  0.7692 -0.2934  0.2148
  790MOL0     H 6586   2.468   8.289   3.482 -2.4032 -1.5889  2.3667
  790MOL0     H 6587   2.546   8.455   3.322 -1.8467  1.6008  2.1235
  790MOL0     H 6588   2.404   8.411   3.215  1.3413 -0.0493 -1.7164
  790MOL0     H 6589   2.589   8.275   3.136 -0.2133 -0.0315 -0.2951
  790MOL0     H 6590   2.485   8.170   3.236  0.9485 -0.1357  1.7103
  790MOL0     H 6591   2.722   8.319   3.336 -0.4001  0.2690 -0.2208
  790MOL0     H 6592   2.656   8.177   3.408  0.4563 -0.8263 -0.3318
  790MOL0     H 6593   2.716   8.036   3.220 -0.1873 -0.2500  3.1975
  790MOL0     H 6594   2.810   8.172   3.140 -0.9315 -3.1365 -1.5272
  790MOL0     H 6595   2.971   8.062   3.241  0.5278  1.3356  0.7662
  790MOL0     H 6596   2.947   8.199   3.335  0.0101  0.5589 -1.1318
  790MOL0     H 6597   2.809   7.927   3.422 -0.0337 -1.1035  0.6818
  790MOL0     H 6598   2.852   8.067   3.516 -2.0149 -1.4554 -0.4215
  790MOL0     H 6599   2.981   7.853   3.560 -0.0803  0.8184  1.4034
  790MOL0     H 6600   3.041   7.866   3.397 -1.8064  0.2629 -0.6217
  790MOL0     H 6601   3.206   8.108   3.352  1.4754  0.9132  0.8075
  790MOL0     H 6602   3.356   8.299   3.415  2.1107  1.0679  0.2609
  790MOL0     H 6603   3.315   8.339   3.576 -0.1710 -2.0672  2.8257
  790MOL0     H 6604   3.550   8.249   3.642 -1.8579  0.7141  0.5498
  790MOL0     H 6605   3.556   8.149   3.502 -1.5684 -1.5512 -0.0783
  790MOL0     H 6606   3.541   8.449   3.488  1.1796  0.5433  0.9864
  790MOL0     H 6607   3.596   8.324   3.358  0.8944 -2.5985  0.5115
  790MOL0     H 6608   3.803   8.304   3.454 -1.0612 -1.2070 -1.3877
  790MOL0     H 6609   3.752   8.394   3.603  0.0116 -0.2738 -0.3293
  790MOL0     H 6610   3.820   8.750   3.345  0.3411  0.0741  0.5351
  790MOL0     H 6611   4.025   8.876   3.383  1.3944 -0.8279 -2.4560
  790MOL0     H 6612   4.451   8.886   3.284  0.3192 -1.0560  2.0177
  790MOL0     H 6613   4.677   8.932   3.350 -0.6951  0.4239 -0.0684
  790MOL0     H 6614   4.865   9.000   3.410 -1.7098 -0.1259 -0.2908
  790MOL0     H 6615   4.875   9.173   3.364 -0.5458 -0.2092  0.4057
  790MOL0     H 6616   4.959   9.190   3.628  2.7092 -0.7363  1.4158
  790MOL0     H 6617   5.015   9.034   3.580  4.1579 -0.8971 -3.5494
  790MOL0     H 6618   5.149   9.111   3.403 -2.3321 -2.5422  0.9663
  790MOL0     H 6619   5.077   9.273   3.416  0.6540 -0.9490 -1.1167
  790MOL0     H 6620   5.266   9.172   3.628  2.3835 -1.7979 -3.7799
  790MOL0     H 6621   5.161   9.327   3.619 -1.2563  0.8228 -3.8582
  790MOL0     H 6622   5.291   9.396   3.430 -2.7881  0.0894  1.7697
  790MOL0     H 6623   5.373   9.239   3.427 -0.4651  0.2802 -0.6845
  790MOL0     H 6624   5.423   9.453   3.647  1.2623  0.4255 -0.9893
  790MOL0     H 6625   5.497   9.295   3.638  2.5228 -0.2469 -1.7397
  790MOL0     H 6626   5.511   9.516   3.435 -1.5860 -0.9390  0.3902
  790MOL0     H 6627   5.581   9.356   3.396 -0.5958 -2.0646  1.0962
  790MOL0     H 6628   5.750   9.535   3.520  2.5772 -2.5742 -1.0310
  790MOL0     H 6629   5.642   9.504   3.659 -1.4137 -1.5676 -0.3056
  790MOL0     H 6630   4.531   9.201   3.660 -1.3607  1.5084 -1.5617
  790MOL0     H 6631   4.310   9.120   3.627  0.6875 -0.5567  2.2069
  790MOL0     H 6632   4.193   8.564   3.602 -0.9363  0.7194  1.0026
  790MOL0     H 6633   3.999   8.420   3.577  3.2146 -0.8345 -2.0071
  790MOL0     H 6634   2.257   8.253   3.110 -2.0722 -1.5646 -2.0320
  790MOL0     H 6635   2.054   8.319   2.989 -2.5242 -0.7614 -1.1157
  790MOL0     H 6636   1.771   8.612   2.945 -0.5495  0.0416 -2.5126
  790MOL0     H 6637   1.612   8.742   2.807  0.3447  3.1647  2.3885
  790MOL0     H 6638   1.283   8.894   2.721  1.1921  2.1955  0.0174
  790MOL0     H 6639   1.419   8.784   2.687  0.8078 -0.8151  1.2776
  790MOL0     H 6640   1.455   9.027   2.699 -1.9631 -0.9549 -0.5747
  790MOL0     H 6641   1.567   8.944   2.812 -0.5852 -3.4173  0.6759
  790MOL0     H 6642   1.415   8.999   2.997  0.5488 -0.0357  0.7844
  790MOL0     H 6643   1.302   9.080   2.889  1.4078  0.0479  0.0909
  790MOL0     H 6644   1.588   9.167   2.938  0.0732  1.0713  1.0321
  790MOL0     H 6645   1.464   9.258   2.845  0.7745 -0.5111 -0.1647
  790MOL0     H 6646   1.373   9.365   3.249 -1.3113  3.2107 -1.4394
  790MOL0     H 6647   1.295   8.622   3.065  0.4836  3.1381 -1.3291
  790MOL0     H 6648   1.312   8.416   3.190  0.5241 -0.4902 -1.8826
  790MOL0     H 6649   1.469   8.348   3.216 -0.7955 -0.5047  1.2287
  790MOL0     H 6650   1.407   8.499   3.312  0.5516 -0.0685  0.1124
  791MOL0     O 6651   7.043   2.801   5.677 -0.9844 -0.2773 -0.1109
  791MOL0     C 6652   7.032   2.917   5.633 -0.9812 -0.1525 -0.0625
  791MOL0     O 6653   7.119   3.016   5.657 -0.7141 -0.9346 -0.3729
  791MOL0     C 6654   7.247   2.994   5.700  0.3385  0.4408 -1.1907
  791MOL0     C 6655   7.328   2.905   5.635 -0.2913  0.1161 -0.9241
  791MOL0     C 6656   7.462   2.887   5.676 -0.1516  0.5058 -0.0787
  791MOL0     C 6657   7.503   2.954   5.794 -0.0631 -0.0452 -0.7452
  791MOL0     O 6658   7.633   2.949   5.837  0.2380  0.2736  0.2664
  791MOL0     C 6659   7.730   2.916   5.737 -0.2133  0.6880  0.0723
  791MOL0     C 6660   7.872   2.940   5.792  0.1851 -0.1758  1.0283
  791MOL0     C 6661   7.977   2.889   5.696 -0.6273  0.2066  0.0169
  791MOL0     C 6662   8.129   2.944   5.716 -0.1366 -0.0650  0.7746
  791MOL0     C 6663   8.182   2.914   5.856  0.5484 -0.5156  0.1463
  791MOL0     C 6664   8.312   2.988   5.873 -0.1620 -0.7205  0.1723
  791MOL0     C 6665   8.431   2.910   5.841  0.7312 -0.3670  0.2460
  791MOL0     C 6666   8.470   2.806   5.952  0.1514  0.1813  0.2727
  791MOL0     N 6667   8.606   2.753   5.943 -0.4595 -0.3028 -0.5446
  791MOL0     C 6668   8.692   2.731   6.051  0.0171 -0.3500  0.2777
  791MOL0     C 6669   8.792   2.658   5.999  0.2064 -0.2303 -0.8728
  791MOL0     C 6670   8.912   2.603   6.079  0.2114  0.3100 -0.5090
  791MOL0     C 6671   9.033   2.583   5.987  0.3273 -0.1761  0.6299
  791MOL0     C 6672   9.167   2.567   6.061  0.2993  0.3302  0.3091
  791MOL0     C 6673   9.287   2.545   5.978  0.5266  0.1682 -0.6655
  791MOL0     O 6674   9.398   2.508   6.062  0.5478 -0.4710  0.0542
  791MOL0     C 6675   9.512   2.456   6.003 -0.1156  0.4325 -1.1240
  791MOL0     C 6676   9.626   2.440   6.083 -0.1300 -0.6780  0.5906
  791MOL0     C 6677   9.741   2.386   6.030  0.0774 -0.4804  0.5918
  791MOL0     C 6678   9.751   2.358   5.894  0.0813  0.0988 -1.0975
  791MOL0     C 6679   9.884   2.299   5.843  0.0874 -0.8481 -0.0645
  791MOL0     O 6680   9.991   2.337   5.915 -0.0120  0.2240  0.4120
  791MOL0     C 6681  10.117   2.316   5.863  0.0585 -0.0460  0.2056
  791MOL0     C 6682  10.170   2.398   5.763  0.1993 -0.1460 -0.4353
  791MOL0     C 6683  10.294   2.367   5.714 -0.6415 -0.1149  0.1109
  791MOL0     C 6684  10.380   2.264   5.759 -0.2414  0.0785 -0.0013
  791MOL0     O 6685  10.515   2.267   5.716  0.4581  0.0667 -0.3404
  791MOL0     C 6686  10.537   2.234   5.586 -0.0348 -0.1178  0.1948
  791MOL0     C 6687  10.680   2.186   5.572 -0.3553 -0.2457  0.0144
  791MOL0     C 6688  10.786   2.293   5.624 -0.6589  0.3550  1.2180
  791MOL0     C 6689  10.925   2.249   5.557  0.0390 -0.7700  0.7500
  791MOL0     C 6690  11.035   2.334   5.599  0.6142 -0.8171 -0.3611
  791MOL0     C 6691  11.148   2.328   5.493  0.3067  0.1533 -0.1755
  791MOL0     C 6692  11.276   2.396   5.536  0.0620  0.5137  0.9532
  791MOL0     C 6693  11.371   2.305   5.614  0.4344  0.9570 -0.3838
  791MOL0    Cl 6694  11.434   2.166   5.512 -0.1300  0.2231  0.0518
  791MOL0     C 6695  10.330   2.187   5.862  0.4431 -1.2936 -0.9078
  791MOL0     C 6696  10.199   2.215   5.916 -0.3217  0.4155 -0.1213
  791MOL0     O 6697   9.890   2.240   5.738 -0.1865  0.4409 -0.2993
  791MOL0     C 6698   9.642   2.372   5.816  0.6100 -0.6281  0.2341
  791MOL0     C 6699   9.516   2.426   5.861 -0.8072  0.0192  0.4893
  791MOL0     N 6700   8.756   2.616   5.873  0.0687 -0.6055  0.5114
  791MOL0     N 6701   8.653   2.688   5.834 -0.0697 -0.2176 -0.1689
  791MOL0     C 6702   7.413   3.041   5.858 -0.3220  0.1125 -0.9281
  791MOL0     C 6703   7.286   3.062   5.815 -0.4428 -0.2682 -0.1050
  791MOL0     C 6704   6.906   2.942   5.551 -0.7511  0.3709 -0.0525
  791MOL0     C 6705   6.884   3.077   5.513  0.0306 -0.2585  0.8968
  791MOL0     C 6706   6.779   3.112   5.422  0.9612  0.2803 -0.2206
  791MOL0     C 6707   6.681   3.018   5.387  0.0094  0.1434 -0.0160
  791MOL0     O 6708   6.574   3.058   5.308  0.0453 -0.4721 -0.7692
  791MOL0     C 6709   6.441   3.030   5.345 -0.4696  0.5278 -0.4919
  791MOL0     C 6710   6.328   3.096   5.268 -0.1494 -0.1819 -0.5499
  791MOL0     C 6711   6.200   3.041   5.326 -0.4386  0.2450  0.0193
  791MOL0     C 6712   6.078   3.090   5.253  0.4931 -0.2752  1.3145
  791MOL0     C 6713   6.041   3.230   5.276  0.2810  0.1129  0.1004
  791MOL0     C 6714   6.002   3.341   5.285 -0.4164 -0.6906  0.9430
  791MOL0     C 6715   6.700   2.884   5.429  0.2625  0.2472  0.5863
  791MOL0     C 6716   6.805   2.849   5.518  0.9472 -0.5043  0.2650
  791MOL0     C 6717   6.808   2.709   5.569  0.5684 -0.1892  0.3923
  791MOL0     H 6718   7.299   2.863   5.539 -0.2551 -0.2219 -0.7903
  791MOL0     H 6719   7.523   2.816   5.620 -0.7847 -1.9906  2.1902
  791MOL0     H 6720   7.727   2.811   5.708  2.8786  0.5949 -0.1719
  791MOL0     H 6721   7.712   2.987   5.655  3.2899  2.5153  0.6794
  791MOL0     H 6722   7.882   2.887   5.887 -1.3823 -2.1812  0.1651
  791MOL0     H 6723   7.893   3.046   5.806  1.9045 -0.2643 -0.4562
  791MOL0     H 6724   7.946   2.910   5.593  0.0139 -0.6640 -0.3614
  791MOL0     H 6725   7.987   2.782   5.714  1.8098  0.4364  0.2794
  791MOL0     H 6726   8.198   2.912   5.637 -0.6193 -0.9763  0.7159
  791MOL0     H 6727   8.134   3.053   5.706 -1.4941  0.1269  1.9554
  791MOL0     H 6728   8.118   2.955   5.935  0.1690 -2.3592  0.8486
  791MOL0     H 6729   8.190   2.807   5.876  0.4126 -0.0858  2.9941
  791MOL0     H 6730   8.313   3.079   5.812  1.9418 -0.8636 -0.0644
  791MOL0     H 6731   8.325   3.020   5.977  1.7127 -1.7831  0.3012
  791MOL0     H 6732   8.513   2.979   5.821 -1.4925  2.5051  0.2731
  791MOL0     H 6733   8.410   2.858   5.746 -0.1989  0.3932  0.0186
  791MOL0     H 6734   8.451   2.850   6.050  0.6487  0.1695  0.3741
  791MOL0     H 6735   8.399   2.724   5.938 -0.0598  0.2456  0.9230
  791MOL0     H 6736   8.684   2.783   6.146  2.3701  2.3632 -0.8499
  791MOL0     H 6737   8.939   2.673   6.160  3.6826 -1.4495  0.0533
  791MOL0     H 6738   8.895   2.505   6.124  1.8299  0.8297  1.3954
  791MOL0     H 6739   9.011   2.515   5.904  0.5854 -1.1402  1.3302
  791MOL0     H 6740   9.038   2.679   5.936  2.2918 -0.6764 -0.2196
  791MOL0     H 6741   9.158   2.473   6.116 -2.0241  0.3935  0.1327
  791MOL0     H 6742   9.189   2.644   6.136 -0.3951 -2.2643  3.3930
  791MOL0     H 6743   9.313   2.630   5.914  1.1653  0.8669  0.4824
  791MOL0     H 6744   9.269   2.457   5.916  0.6133 -0.4623  0.1756
  791MOL0     H 6745   9.629   2.467   6.188 -0.1895  1.8072  0.0167
  791MOL0     H 6746   9.818   2.369   6.104 -0.6542  2.7465  2.2945
  791MOL0     H 6747  10.098   2.471   5.727  1.3564  0.4191 -1.6961
  791MOL0     H 6748  10.333   2.438   5.642 -0.5898 -0.3902 -0.1362
  791MOL0     H 6749  10.457   2.162   5.563 -0.7698  0.3457  1.2142
  791MOL0     H 6750  10.514   2.320   5.523  1.3640 -0.2670 -0.5430
  791MOL0     H 6751  10.693   2.092   5.628  1.2533  0.8095  1.5234
  791MOL0     H 6752  10.705   2.150   5.471  1.4715 -3.5627  1.4690
  791MOL0     H 6753  10.761   2.393   5.587  0.9072  0.3614  0.1170
  791MOL0     H 6754  10.789   2.288   5.734  2.1363 -3.7331  1.1912
  791MOL0     H 6755  10.917   2.250   5.447  0.6419  0.5792  0.7042
  791MOL0     H 6756  10.952   2.148   5.590  0.5386 -1.4439 -1.5205
  791MOL0     H 6757  11.070   2.305   5.698 -0.4964  2.8464  1.2536
  791MOL0     H 6758  11.005   2.439   5.602  0.3752 -0.8913  3.1464
  791MOL0     H 6759  11.170   2.222   5.477 -1.4865  0.0247 -2.1737
  791MOL0     H 6760  11.114   2.374   5.399 -2.0642  2.1969  1.5592
  791MOL0     H 6761  11.258   2.488   5.592  1.6263  0.5853  1.3727
  791MOL0     H 6762  11.325   2.424   5.442  1.6332  2.8556  2.3756
  791MOL0     H 6763  11.451   2.373   5.646 -0.2961  4.2501 -4.5563
  791MOL0     H 6764  11.312   2.270   5.699 -0.5843  3.8419  0.2174
  791MOL0     H 6765  10.385   2.110   5.915  1.1444  1.2647  2.4496
  791MOL0     H 6766  10.168   2.149   5.996  0.1340  0.8459  0.4282
  791MOL0     H 6767   9.668   2.359   5.711  1.0015  2.3602 -0.1360
  791MOL0     H 6768   9.438   2.434   5.787 -1.0783  0.9367  0.8602
  791MOL0     H 6769   7.451   3.093   5.946  0.6054  1.8098 -2.2706
  791MOL0     H 6770   7.220   3.136   5.861  0.6504  0.0927  0.9542
  791MOL0     H 6771   6.950   3.157   5.546 -0.2913  0.8742 -1.0905
  791MOL0     H 6772   6.759   3.210   5.378  1.3979  0.3186 -0.3369
  791MOL0     H 6773   6.430   3.061   5.449 -0.8555  2.1402 -0.9795
  791MOL0     H 6774   6.426   2.922   5.340  0.9879  0.0840  2.4835
  791MOL0     H 6775   6.332   3.062   5.164 -2.0810  0.0540 -0.7410
  791MOL0     H 6776   6.331   3.204   5.281  4.1609 -0.1210 -0.7464
  791MOL0     H 6777   6.193   3.086   5.425 -0.8687 -1.3455  0.7496
  791MOL0     H 6778   6.195   2.932   5.338 -1.8763 -0.2341 -3.6828
  791MOL0     H 6779   6.090   3.085   5.145  3.5814 -2.2379  1.6216
  791MOL0     H 6780   5.991   3.033   5.285 -3.3880  3.5534 -1.2458
  791MOL0     H 6781   5.969   3.443   5.287 -1.1331 -0.9137  0.9015
  791MOL0     H 6782   6.629   2.809   5.393 -0.4761  1.8542 -1.5386
  791MOL0     H 6783   6.807   2.713   5.679 -2.7621  1.3397  0.4368
  791MOL0     H 6784   6.716   2.656   5.542 -0.5546  1.5305  0.6585
  791MOL0     H 6785   6.889   2.643   5.537 -1.5761 -2.5794 -0.5063
  792MOL0     O 6786   7.239   6.222   4.463  0.2895  0.8454  0.0555
  792MOL0     C 6787   7.161   6.211   4.364  0.0872 -0.9753  0.0260
  792MOL0     O 6788   7.199   6.199   4.233  0.1519 -0.0137 -0.2726
  792MOL0     C 6789   7.327   6.158   4.213 -0.1260 -0.1462 -0.0463
  792MOL0     C 6790   7.417   6.266   4.192 -0.5006  0.0544 -0.4374
  792MOL0     C 6791   7.559   6.244   4.181  0.5503 -0.2676  1.1603
  792MOL0     C 6792   7.601   6.111   4.162  0.2412  0.8830  0.5766
  792MOL0     O 6793   7.729   6.074   4.119  0.0740  0.1804  0.0269
  792MOL0     C 6794   7.832   6.177   4.108 -0.1722  0.1509  0.9625
  792MOL0     C 6795   7.962   6.103   4.074 -1.0959 -0.1775 -0.3006
  792MOL0     C 6796   8.095   6.169   4.109 -1.1395  0.2415 -0.5159
  792MOL0     C 6797   8.219   6.093   4.061  0.6378  0.4683  0.7831
  792MOL0     C 6798   8.364   6.149   4.090  0.5787 -1.0022 -0.3636
  792MOL0     C 6799   8.389   6.282   4.017  0.2297  0.9462 -0.0583
  792MOL0     C 6800   8.529   6.335   4.049  0.6193  0.9793 -0.8030
  792MOL0     C 6801   8.553   6.465   3.972 -0.1553  0.5217 -0.3542
  792MOL0     N 6802   8.698   6.486   3.962 -0.1633 -0.3791 -0.5176
  792MOL0     C 6803   8.774   6.416   3.876  0.7221 -0.1559  0.5292
  792MOL0     C 6804   8.897   6.469   3.880  0.3478  0.9398 -0.0043
  792MOL0     C 6805   9.014   6.432   3.796  0.1731 -0.0900  0.1668
  792MOL0     C 6806   9.134   6.392   3.872  0.1439  0.5837  0.4034
  792MOL0     C 6807   9.255   6.371   3.774 -0.0679 -0.5943  0.6296
  792MOL0     C 6808   9.395   6.377   3.847  1.0324 -0.3909  0.0108
  792MOL0     O 6809   9.501   6.371   3.754 -0.1257  0.2820  0.0415
  792MOL0     C 6810   9.626   6.393   3.799  0.0390  0.7436  0.1481
  792MOL0     C 6811   9.728   6.406   3.704 -0.0901  0.3192  0.5238
  792MOL0     C 6812   9.861   6.429   3.738  0.3558 -0.7111 -1.4590
  792MOL0     C 6813   9.902   6.428   3.875  0.8619 -1.6371 -0.1441
  792MOL0     C 6814  10.043   6.441   3.912  0.4301  0.7829  0.1486
  792MOL0     O 6815  10.138   6.403   3.827 -0.4712 -0.0796 -0.3232
  792MOL0     C 6816  10.275   6.394   3.853 -0.0126  0.2915 -0.1433
  792MOL0     C 6817  10.340   6.393   3.976  0.3343  0.2122  0.5672
  792MOL0     C 6818  10.480   6.394   3.987 -0.0159 -0.8873  0.1004
  792MOL0     C 6819  10.565   6.397   3.871 -0.4098  0.4810 -0.4830
  792MOL0     O 6820  10.701   6.402   3.891 -0.2017 -0.2338  0.4590
  792MOL0     C 6821  10.782   6.495   3.806  0.2333  0.9599 -0.2455
  792MOL0     C 6822  10.878   6.566   3.902 -0.9175 -0.3083  0.1073
  792MOL0     C 6823  11.009   6.620   3.820  0.7471  0.6641 -0.7289
  792MOL0     C 6824  10.965   6.723   3.722 -0.4715  0.8611 -0.4041
  792MOL0     C 6825  11.087   6.792   3.662  0.9686  0.4994  0.4291
  792MOL0     C 6826  11.162   6.700   3.567  0.5287 -0.0650 -0.1209
  792MOL0     C 6827  11.205   6.775   3.438  0.0196  0.8957 -0.1737
  792MOL0     C 6828  11.291   6.687   3.352 -0.3698 -0.2342 -0.0471
  792MOL0    Cl 6829  11.456   6.676   3.427 -0.5926 -0.0755  0.1546
  792MOL0     C 6830  10.502   6.392   3.751  0.4326 -0.2247  0.4066
  792MOL0     C 6831  10.358   6.394   3.744  0.4390  0.6242 -0.0330
  792MOL0     O 6832  10.066   6.471   4.031  0.0419  0.8879 -0.0442
  792MOL0     C 6833   9.799   6.408   3.970  0.1072  0.1858  0.0462
  792MOL0     C 6834   9.662   6.392   3.931  0.1061  0.5355  0.0448
  792MOL0     N 6835   8.891   6.575   3.968 -0.6693 -0.1251  0.0103
  792MOL0     N 6836   8.771   6.591   4.012  1.4338 -0.0380  0.1595
  792MOL0     C 6837   7.503   6.003   4.172  1.1117 -0.0172 -0.4752
  792MOL0     C 6838   7.373   6.025   4.209 -0.1366 -0.1705 -0.2092
  792MOL0     C 6839   7.017   6.236   4.384 -0.1422  0.1139 -0.4935
  792MOL0     C 6840   6.930   6.181   4.289  0.6819  0.3225  0.5926
  792MOL0     C 6841   6.792   6.190   4.294 -0.1719  0.1629 -0.0249
  792MOL0     C 6842   6.734   6.259   4.404  0.0262 -0.1281 -0.0668
  792MOL0     O 6843   6.599   6.269   4.402 -0.1274 -0.0045 -0.1408
  792MOL0     C 6844   6.530   6.335   4.505 -0.0403  0.2126 -0.3085
  792MOL0     C 6845   6.377   6.322   4.475  0.2957 -1.4955 -0.2368
  792MOL0     C 6846   6.346   6.170   4.481  0.5750  0.8539 -0.6887
  792MOL0     C 6847   6.202   6.140   4.451 -0.6342  0.0106 -0.1262
  792MOL0     C 6848   6.103   6.191   4.543 -0.1482  0.0429 -0.7844
  792MOL0     C 6849   6.010   6.232   4.611  0.4065 -0.1510  0.5482
  792MOL0     C 6850   6.821   6.327   4.496 -0.9542  0.0895  0.5679
  792MOL0     C 6851   6.959   6.322   4.481 -0.2487 -0.7907 -0.6580
  792MOL0     C 6852   7.051   6.394   4.577 -0.3446 -0.0461 -0.0334
  792MOL0     H 6853   7.367   6.357   4.222  0.7835 -0.3530  3.4670
  792MOL0     H 6854   7.623   6.332   4.174  1.6029 -1.0614  0.4164
  792MOL0     H 6855   7.821   6.247   4.025 -0.2200  0.8009  1.5131
  792MOL0     H 6856   7.845   6.230   4.203  0.3439  1.0246  0.4169
  792MOL0     H 6857   7.972   6.092   3.965 -0.3899 -0.3076 -0.2299
  792MOL0     H 6858   7.956   6.003   4.117 -0.0486  0.8618  2.4971
  792MOL0     H 6859   8.106   6.172   4.218  0.9431 -1.3964 -0.6174
  792MOL0     H 6860   8.101   6.269   4.063  0.3609  0.0540 -0.7900
  792MOL0     H 6861   8.214   5.999   4.117  0.6759  1.0417  1.7786
  792MOL0     H 6862   8.219   6.070   3.954 -0.2807 -0.3413  0.9426
  792MOL0     H 6863   8.366   6.174   4.197  0.5348  2.0638 -0.9965
  792MOL0     H 6864   8.443   6.076   4.066  0.5484 -0.5896 -1.8001
  792MOL0     H 6865   8.385   6.262   3.910 -0.5479 -1.9583  0.4154
  792MOL0     H 6866   8.312   6.355   4.045 -1.8493 -1.6962  1.7443
  792MOL0     H 6867   8.602   6.259   4.020  0.6109 -0.5391  2.6314
  792MOL0     H 6868   8.537   6.353   4.157  1.3315  0.7813 -0.8190
  792MOL0     H 6869   8.511   6.449   3.872 -4.0328 -3.4516  1.5871
  792MOL0     H 6870   8.503   6.549   4.020  0.5928  0.7384  0.0641
  792MOL0     H 6871   8.746   6.333   3.812  0.0265  0.9742 -0.6800
  792MOL0     H 6872   8.994   6.348   3.729  0.6827 -0.4151  0.4159
  792MOL0     H 6873   9.032   6.519   3.732 -0.9741 -0.3450 -0.5336
  792MOL0     H 6874   9.159   6.478   3.936  2.7426  1.3595 -1.4976
  792MOL0     H 6875   9.115   6.298   3.925  0.9113 -0.4936 -1.1523
  792MOL0     H 6876   9.250   6.429   3.682 -3.5452 -0.8440  0.5313
  792MOL0     H 6877   9.239   6.266   3.747 -4.5463 -0.4813  2.1065
  792MOL0     H 6878   9.407   6.290   3.912  0.8452  0.4297  1.1854
  792MOL0     H 6879   9.408   6.467   3.909 -2.7278  1.6104 -1.7695
  792MOL0     H 6880   9.693   6.369   3.608  1.8841 -2.9318  0.8688
  792MOL0     H 6881   9.934   6.437   3.658  1.0116 -0.7848 -0.8739
  792MOL0     H 6882  10.279   6.388   4.066  1.6237  1.2670  1.5367
  792MOL0     H 6883  10.526   6.379   4.085  1.2340 -0.9812 -0.4771
  792MOL0     H 6884  10.836   6.444   3.727  0.2790 -1.2337  1.1111
  792MOL0     H 6885  10.714   6.569   3.764  1.6294  1.0835 -2.4163
  792MOL0     H 6886  10.825   6.648   3.952  0.8375  2.0011 -1.5638
  792MOL0     H 6887  10.921   6.492   3.969  0.2905  1.9425  1.9906
  792MOL0     H 6888  11.081   6.668   3.887  0.7827  2.2913 -1.8936
  792MOL0     H 6889  11.056   6.533   3.773  1.2857 -0.8650  2.3589
  792MOL0     H 6890  10.900   6.798   3.768 -0.2836  0.1392  1.0893
  792MOL0     H 6891  10.906   6.667   3.649  0.4178  0.8530 -1.1259
  792MOL0     H 6892  11.148   6.828   3.745  0.8905 -0.8542  1.0958
  792MOL0     H 6893  11.047   6.877   3.605 -2.5467 -2.1698 -1.4922
  792MOL0     H 6894  11.246   6.658   3.623  0.9586 -1.6474 -1.8359
  792MOL0     H 6895  11.092   6.620   3.540 -1.9513  1.2979  1.8498
  792MOL0     H 6896  11.255   6.869   3.463  1.8394 -0.3990  1.3593
  792MOL0     H 6897  11.120   6.805   3.377 -1.1281 -1.0183  0.4069
  792MOL0     H 6898  11.244   6.590   3.334 -0.2659  0.1107 -2.5277
  792MOL0     H 6899  11.301   6.737   3.255  0.8485 -1.0159 -0.3433
  792MOL0     H 6900  10.563   6.407   3.662  0.5785  0.1996  0.5736
  792MOL0     H 6901  10.320   6.403   3.643  0.0345  1.6995  0.1907
  792MOL0     H 6902   9.834   6.400   4.073  2.7275 -1.5763 -0.8660
  792MOL0     H 6903   9.594   6.371   4.012  2.1128 -1.7192  1.2461
  792MOL0     H 6904   7.540   5.902   4.158  1.0494  0.0193 -0.8949
  792MOL0     H 6905   7.308   5.942   4.236  2.2780 -1.6067  1.6979
  792MOL0     H 6906   6.962   6.125   4.202 -1.1988 -2.5931  1.6129
  792MOL0     H 6907   6.720   6.149   4.224 -1.4060 -1.5137  2.0987
  792MOL0     H 6908   6.563   6.438   4.489  1.0995 -0.2155 -0.8244
  792MOL0     H 6909   6.562   6.296   4.602  0.7309 -2.4573 -1.5405
  792MOL0     H 6910   6.351   6.366   4.378  3.5758 -0.5983 -0.8195
  792MOL0     H 6911   6.328   6.371   4.560  2.1805  1.1625 -0.5448
  792MOL0     H 6912   6.371   6.125   4.577 -0.7068 -1.0105 -1.1709
  792MOL0     H 6913   6.400   6.108   4.409 -0.7839 -0.5225 -0.5764
  792MOL0     H 6914   6.182   6.175   4.349  2.1942  1.1319 -0.4094
  792MOL0     H 6915   6.201   6.031   4.446 -1.2729  0.0354 -0.7376
  792MOL0     H 6916   5.930   6.271   4.670 -0.2335 -1.4068  0.5238
  792MOL0     H 6917   6.779   6.390   4.574  0.3582  3.7164 -1.4125
  792MOL0     H 6918   7.115   6.450   4.508  0.1579  0.7779  1.0628
  792MOL0     H 6919   6.995   6.464   4.639 -0.1950  1.3234 -1.3874
  792MOL0     H 6920   7.108   6.316   4.629  1.3255 -1.8717 -4.1520
  793MOL0     O 6921   8.711   3.659   0.448 -0.3329 -0.0580 -0.5900
  793MOL0     C 6922   8.704   3.565   0.370  0.3342  0.9117  0.6037
  793MOL0     O 6923   8.799   3.486   0.330  0.1656  0.3460 -0.8401
  793MOL0     C 6924   8.933   3.515   0.353  0.8782  0.0003  0.1705
  793MOL0     C 6925   9.015   3.510   0.242 -0.0139  0.5444 -0.0372
  793MOL0     C 6926   9.145   3.551   0.258  0.6210  0.2648 -0.0687
  793MOL0     C 6927   9.204   3.582   0.384  0.5785  0.0676 -0.3075
  793MOL0     O 6928   9.335   3.607   0.405 -0.7163 -0.4380  0.9800
  793MOL0     C 6929   9.439   3.538   0.328  0.6532 -0.2053  0.7840
  793MOL0     C 6930   9.569   3.587   0.382  0.4689  0.7479  0.5311
  793MOL0     C 6931   9.701   3.546   0.310  0.1835  0.1510  1.0254
  793MOL0     C 6932   9.818   3.617   0.377  0.7009  0.1984 -0.0369
  793MOL0     C 6933   9.955   3.558   0.327  0.1960  1.2803  0.3195
  793MOL0     C 6934   9.986   3.417   0.386  0.1712  0.7855 -0.1169
  793MOL0     C 6935  10.114   3.359   0.329 -0.4746  0.4944  0.2744
  793MOL0     C 6936  10.249   3.436   0.363 -0.0496  0.4822 -0.1429
  793MOL0     N 6937  10.372   3.353   0.363  0.5991  0.1924  0.4493
  793MOL0     C 6938  10.412   3.248   0.279 -0.1433 -0.3186  0.1763
  793MOL0     C 6939  10.528   3.201   0.328 -0.0031 -0.5829  0.1636
  793MOL0     C 6940  10.615   3.082   0.284 -0.2735 -0.4074  0.1679
  793MOL0     C 6941  10.745   3.118   0.201 -0.1415 -0.2352 -0.1623
  793MOL0     C 6942  10.835   2.997   0.189  0.7389 -1.1301  0.2329
  793MOL0     C 6943  10.961   3.024   0.110  0.5135  0.1003 -0.3682
  793MOL0     O 6944  11.039   3.144   0.153  0.4570 -0.2249 -0.0908
  793MOL0     C 6945  11.165   3.160   0.104  0.6202 -0.4568 -0.1509
  793MOL0     C 6946  11.234   3.067   0.023 -1.1784  0.9554 -0.0172
  793MOL0     C 6947  11.359   3.098  -0.036  0.2159  0.5122  0.6686
  793MOL0     C 6948  11.424   3.218  -0.000  0.2322 -0.3758  0.2556
  793MOL0     C 6949  11.559   3.240  -0.050  0.5582  0.0355 -0.9143
  793MOL0     O 6950  11.622   3.354  -0.003  0.1274  0.5413 -0.0138
  793MOL0     C 6951  11.744   3.383  -0.051 -0.2360  0.6115 -0.5225
  793MOL0     C 6952  11.776   3.399  -0.182 -0.3076 -0.4540  0.4909
  793MOL0     C 6953  11.909   3.433  -0.222  0.0796 -0.1167 -0.5548
  793MOL0     C 6954  12.006   3.453  -0.126  0.0016 -0.7193  0.2258
  793MOL0     O 6955  12.143   3.456  -0.168  0.0918  0.3098 -0.3413
  793MOL0     C 6956  12.180   3.534  -0.278  0.1475  0.2037  0.3167
  793MOL0     C 6957  12.333   3.527  -0.312  0.8056 -0.3656 -0.2239
  793MOL0     C 6958  12.360   3.615  -0.427  0.0808  0.4182 -0.3593
  793MOL0     C 6959  12.517   3.629  -0.463  0.0694 -0.1168 -0.3361
  793MOL0     C 6960  12.547   3.733  -0.563  0.1036 -0.4774  0.1446
  793MOL0     C 6961  12.694   3.720  -0.608  1.1350 -0.9879  0.3436
  793MOL0     C 6962  12.800   3.754  -0.508  0.5303 -0.4991  0.4431
  793MOL0     C 6963  12.941   3.775  -0.569  0.2520  0.2068 -0.1764
  793MOL0    Cl 6964  13.041   3.864  -0.446  0.2429 -0.1200  0.0391
  793MOL0     C 6965  11.978   3.443   0.004  0.5615 -0.7398 -0.1497
  793MOL0     C 6966  11.843   3.409   0.043  0.1098  0.8812 -0.8971
  793MOL0     O 6967  11.601   3.163  -0.133  0.0778 -0.3876  0.1772
  793MOL0     C 6968  11.362   3.303   0.082  0.4476 -0.2393 -0.0946
  793MOL0     C 6969  11.229   3.282   0.129  0.4177  0.1688  0.0190
  793MOL0     N 6970  10.567   3.281   0.432  0.2532 -0.3326 -1.1043
  793MOL0     N 6971  10.472   3.370   0.456  0.1298 -0.7216  0.2764
  793MOL0     C 6972   9.123   3.587   0.488  0.4027  0.4438 -0.5089
  793MOL0     C 6973   8.985   3.558   0.472  0.4345 -0.1317 -0.2709
  793MOL0     C 6974   8.570   3.535   0.313 -1.1469 -0.3899 -0.3795
  793MOL0     C 6975   8.472   3.482   0.395  0.6569  0.9253  0.3000
  793MOL0     C 6976   8.353   3.446   0.340  1.0824 -0.3816  0.0532
  793MOL0     C 6977   8.317   3.477   0.207  0.5388 -0.0386  0.7750
  793MOL0     O 6978   8.196   3.460   0.147 -0.3426  0.1832  0.2796
  793MOL0     C 6979   8.082   3.462   0.226  0.2095 -0.3816  0.6952
  793MOL0     C 6980   7.959   3.489   0.139  0.1078  0.2537 -0.4216
  793MOL0     C 6981   7.833   3.443   0.212  0.2089 -0.0935  0.3645
  793MOL0     C 6982   7.704   3.464   0.131 -0.3619  0.3841 -0.1610
  793MOL0     C 6983   7.681   3.606   0.100  0.1357  0.4873  0.0744
  793MOL0     C 6984   7.651   3.722   0.092 -0.6592  0.0421  0.0910
  793MOL0     C 6985   8.416   3.526   0.125  1.1706  0.0432 -0.2034
  793MOL0     C 6986   8.549   3.549   0.178  0.0022 -0.0850  1.2467
  793MOL0     C 6987   8.657   3.596   0.084  0.6014 -0.5343  0.0318
  793MOL0     H 6988   8.974   3.468   0.151  0.4703  0.0976 -0.0560
  793MOL0     H 6989   9.224   3.536   0.184  2.3974  0.5820  1.6700
  793MOL0     H 6990   9.416   3.433   0.345 -0.1356 -0.3673 -1.1008
  793MOL0     H 6991   9.437   3.562   0.221  4.9646  0.1412  0.6183
  793MOL0     H 6992   9.585   3.558   0.486  2.2862  1.8290  0.5923
  793MOL0     H 6993   9.560   3.696   0.385  3.8304  1.1633 -0.2736
  793MOL0     H 6994   9.692   3.577   0.205 -0.8667 -1.3250  0.6470
  793MOL0     H 6995   9.715   3.438   0.319  0.7685  0.1403  0.1229
  793MOL0     H 6996   9.818   3.725   0.357  3.7702  0.7088  1.9958
  793MOL0     H 6997   9.817   3.600   0.485  1.3587  0.2217 -0.0243
  793MOL0     H 6998   9.944   3.551   0.218  1.1926 -1.7149  0.3325
  793MOL0     H 6999  10.036   3.626   0.355  0.6840  1.1484 -0.7322
  793MOL0     H 7000   9.995   3.425   0.495  0.1198  0.1820 -0.0617
  793MOL0     H 7001   9.907   3.346   0.359 -1.1717  3.0478 -2.4834
  793MOL0     H 7002  10.116   3.372   0.220  0.4659 -0.5813  0.1432
  793MOL0     H 7003  10.121   3.253   0.355  0.1401  0.7024  0.9928
  793MOL0     H 7004  10.272   3.522   0.298  0.2402  0.7463  0.3032
  793MOL0     H 7005  10.236   3.471   0.466 -0.5958  0.4130 -0.1866
  793MOL0     H 7006  10.359   3.194   0.201  0.5311 -0.0085 -0.5074
  793MOL0     H 7007  10.641   3.020   0.370 -2.0973 -0.3333  0.8230
  793MOL0     H 7008  10.546   3.031   0.216 -0.5233  0.4998 -0.2857
  793MOL0     H 7009  10.714   3.146   0.100  1.0059 -1.4538 -0.8817
  793MOL0     H 7010  10.799   3.198   0.254 -0.1956 -0.3312  0.0358
  793MOL0     H 7011  10.784   2.914   0.139 -1.1465  0.2776 -0.2835
  793MOL0     H 7012  10.863   2.976   0.293  5.7582 -1.7559 -0.9930
  793MOL0     H 7013  10.951   3.027   0.001 -0.1779  2.3861 -0.2985
  793MOL0     H 7014  11.021   2.937   0.137  0.4660  0.6181  1.5094
  793MOL0     H 7015  11.180   2.972   0.012 -2.2774  1.5888 -0.2986
  793MOL0     H 7016  11.415   3.029  -0.099 -0.6355  1.1012 -0.8010
  793MOL0     H 7017  11.704   3.381  -0.261  1.4986 -2.4668 -0.8035
  793MOL0     H 7018  11.924   3.433  -0.330  0.3390  0.3934 -0.5234
  793MOL0     H 7019  12.117   3.513  -0.365 -4.6801  5.3399  2.0037
  793MOL0     H 7020  12.158   3.638  -0.252  0.9047  0.3812  0.2853
  793MOL0     H 7021  12.396   3.554  -0.227  1.2184 -2.3501  0.1436
  793MOL0     H 7022  12.358   3.426  -0.346  0.4648 -1.1682  1.7921
  793MOL0     H 7023  12.304   3.575  -0.512 -0.6265 -0.3946  0.4632
  793MOL0     H 7024  12.335   3.721  -0.414  1.5984  1.0322 -1.9761
  793MOL0     H 7025  12.554   3.533  -0.500 -1.2339 -1.7538  2.2768
  793MOL0     H 7026  12.565   3.648  -0.366 -1.0311  0.5362  0.1000
  793MOL0     H 7027  12.534   3.837  -0.533  1.7820 -0.3202  0.3976
  793MOL0     H 7028  12.487   3.719  -0.654  0.2500  2.9702 -0.6196
  793MOL0     H 7029  12.705   3.616  -0.640 -0.0757 -1.5410  1.6245
  793MOL0     H 7030  12.704   3.782  -0.698  2.1211  0.8879  1.6920
  793MOL0     H 7031  12.804   3.688  -0.420  1.2838  2.4954  2.7977
  793MOL0     H 7032  12.772   3.848  -0.460 -1.4947  0.1673 -1.8268
  793MOL0     H 7033  12.986   3.679  -0.596  0.2568 -0.6075  2.4962
  793MOL0     H 7034  12.942   3.836  -0.660  3.4568 -0.9655 -1.0793
  793MOL0     H 7035  12.059   3.446   0.076 -0.2553  2.7807  0.7821
  793MOL0     H 7036  11.827   3.410   0.150  2.3521  0.5171 -0.4952
  793MOL0     H 7037  11.413   3.388   0.127  0.7791 -1.5712  2.1667
  793MOL0     H 7038  11.177   3.363   0.179 -2.0405 -2.3928  1.9161
  793MOL0     H 7039   9.162   3.608   0.587  2.7932 -1.3276 -1.0027
  793MOL0     H 7040   8.922   3.577   0.558  2.2594  2.2588  0.6546
  793MOL0     H 7041   8.494   3.459   0.499 -0.9630  0.5982  0.5910
  793MOL0     H 7042   8.272   3.399   0.395 -0.0109 -0.8602 -1.8841
  793MOL0     H 7043   8.078   3.539   0.303  2.2493  1.6733 -1.1000
  793MOL0     H 7044   8.063   3.363   0.269 -1.9681 -0.1010  0.4865
  793MOL0     H 7045   7.975   3.437   0.045  0.2826 -0.5132  0.0239
  793MOL0     H 7046   7.950   3.597   0.120  1.1162 -0.0113 -2.6571
  793MOL0     H 7047   7.832   3.493   0.309  0.3387 -0.7672  0.7249
  793MOL0     H 7048   7.842   3.337   0.239  3.6237 -0.3951 -1.4566
  793MOL0     H 7049   7.705   3.398   0.044  1.1272 -0.5041  0.4895
  793MOL0     H 7050   7.621   3.425   0.191 -0.9859  1.0211 -0.5886
  793MOL0     H 7051   7.623   3.825   0.102  0.4147  0.4231 -0.6532
  793MOL0     H 7052   8.400   3.548   0.019  1.1398  2.5590  0.2563
  793MOL0     H 7053   8.723   3.662   0.141  1.7945 -2.2973  0.7612
  793MOL0     H 7054   8.714   3.513   0.041  3.2632  1.3528 -0.3330
  793MOL0     H 7055   8.614   3.663   0.009  2.9966  2.2566  0.9543
  794MOL0     O 7056   5.137   5.387  11.199  0.5789  0.1380 -0.5518
  794MOL0     C 7057   5.103   5.501  11.184 -0.4598 -0.6705 -0.3245
  794MOL0     O 7058   5.186   5.608  11.177 -0.0299 -0.0190  0.5482
  794MOL0     C 7059   5.322   5.601  11.160  0.1942  0.0126 -0.3721
  794MOL0     C 7060   5.392   5.705  11.212  0.3204  0.4170 -0.5629
  794MOL0     C 7061   5.526   5.696  11.223 -0.6915 -0.2284 -0.2883
  794MOL0     C 7062   5.597   5.592  11.162 -0.3429 -0.9382 -0.0688
  794MOL0     O 7063   5.726   5.588  11.174  0.6034 -0.0278 -0.7472
  794MOL0     C 7064   5.800   5.698  11.111  0.2003  0.7141  0.1453
  794MOL0     C 7065   5.864   5.640  10.981 -0.6741 -0.1844  0.1784
  794MOL0     C 7066   5.995   5.567  11.001  0.4165 -0.2548 -0.0602
  794MOL0     C 7067   6.107   5.669  11.045 -0.4085 -1.0379 -0.3704
  794MOL0     C 7068   6.243   5.598  11.016  0.6020  0.5780 -0.3327
  794MOL0     C 7069   6.304   5.621  10.879  0.4993 -0.1680 -0.0830
  794MOL0     C 7070   6.452   5.580  10.883 -0.4651  1.1603 -0.1963
  794MOL0     C 7071   6.482   5.429  10.905 -0.8965  0.2787 -0.2286
  794MOL0     N 7072   6.474   5.345  10.793  0.1012  0.4227 -0.0008
  794MOL0     C 7073   6.569   5.273  10.731 -0.2146  0.3425  0.1714
  794MOL0     C 7074   6.502   5.223  10.625 -1.2104 -0.4171  0.2652
  794MOL0     C 7075   6.557   5.117  10.532  0.5733 -0.5638 -0.0736
  794MOL0     C 7076   6.660   5.173  10.430 -0.5400  0.2359  0.4862
  794MOL0     C 7077   6.597   5.204  10.288  0.1279  0.3967 -0.2723
  794MOL0     C 7078   6.714   5.238  10.199 -0.1292 -1.2926  0.2674
  794MOL0     O 7079   6.780   5.355  10.252 -0.2042  0.2120  0.3904
  794MOL0     C 7080   6.910   5.365  10.223  0.2304 -0.6189 -0.0853
  794MOL0     C 7081   6.984   5.444  10.316  0.4597  0.1401 -0.1541
  794MOL0     C 7082   7.119   5.463  10.301  0.0299  0.9821 -0.2459
  794MOL0     C 7083   7.192   5.380  10.212  0.7223  0.2427  0.6099
  794MOL0     C 7084   7.333   5.392  10.215  0.1026  0.6164 -0.0696
  794MOL0     O 7085   7.378   5.484  10.307  0.0392 -0.0694  0.1855
  794MOL0     C 7086   7.514   5.505  10.321 -0.9245 -0.7108 -0.3823
  794MOL0     C 7087   7.599   5.525  10.210  0.0569 -0.6407  0.4721
  794MOL0     C 7088   7.731   5.567  10.222 -0.4809  1.0212 -0.5370
  794MOL0     C 7089   7.786   5.589  10.355  0.9545 -0.0656  0.7954
  794MOL0     O 7090   7.918   5.618  10.367 -0.0829 -0.1549 -0.1835
  794MOL0     C 7091   7.937   5.752  10.415 -0.2986  0.2486  0.7787
  794MOL0     C 7092   8.092   5.775  10.408 -0.6758 -0.2846 -0.6437
  794MOL0     C 7093   8.192   5.660  10.388  0.0672  0.1523  0.5177
  794MOL0     C 7094   8.340   5.695  10.375  0.3758  1.2760 -0.1234
  794MOL0     C 7095   8.427   5.568  10.387 -0.7463  0.0109 -0.1069
  794MOL0     C 7096   8.569   5.602  10.445  0.1947  0.0555  0.7782
  794MOL0     C 7097   8.650   5.697  10.362  0.0307  0.6825  0.2760
  794MOL0     C 7098   8.785   5.716  10.434 -0.2629  0.8053  0.1159
  794MOL0    Cl 7099   8.764   5.808  10.589 -0.4677  0.3605 -0.0079
  794MOL0     C 7100   7.706   5.557  10.463  0.4202  0.0591 -0.2283
  794MOL0     C 7101   7.577   5.521  10.442  0.1963 -0.4243  0.2217
  794MOL0     O 7102   7.403   5.326  10.136  0.1212 -0.1810  0.3359
  794MOL0     C 7103   7.120   5.295  10.130  0.1236  0.1508 -0.5460
  794MOL0     C 7104   6.981   5.290  10.134  0.4512  0.6564  0.0630
  794MOL0     N 7105   6.368   5.255  10.630  0.6903 -0.6632 -0.5947
  794MOL0     N 7106   6.349   5.323  10.738 -1.0607  0.3939  0.2555
  794MOL0     C 7107   5.534   5.488  11.102 -0.1830 -0.1266  0.3824
  794MOL0     C 7108   5.391   5.491  11.105  0.1187  0.5976  0.5403
  794MOL0     C 7109   4.958   5.533  11.169  0.0115  0.3477  0.0866
  794MOL0     C 7110   4.923   5.648  11.089  0.4649  0.2017 -0.6096
  794MOL0     C 7111   4.796   5.700  11.083  0.5375  0.4634 -0.1092
  794MOL0     C 7112   4.692   5.631  11.133  0.0193  1.4236  0.2699
  794MOL0     O 7113   4.562   5.683  11.134 -0.2713  0.4158  0.5106
  794MOL0     C 7114   4.456   5.610  11.208  0.2145 -0.6194  0.5543
  794MOL0     C 7115   4.334   5.700  11.221 -0.2131  0.5309 -0.1350
  794MOL0     C 7116   4.339   5.799  11.340  0.5414 -0.2795 -0.0079
  794MOL0     C 7117   4.463   5.895  11.337 -0.0538  0.8380 -0.2585
  794MOL0     C 7118   4.438   6.001  11.442  0.2346 -0.0565  0.8734
  794MOL0     C 7119   4.422   6.091  11.520 -0.5248 -0.4646  0.0282
  794MOL0     C 7120   4.724   5.502  11.197 -0.3482 -0.4743 -0.0754
  794MOL0     C 7121   4.852   5.455  11.216  0.0916  1.0434 -0.3949
  794MOL0     C 7122   4.857   5.313  11.260  0.3902  0.6377  0.4855
  794MOL0     H 7123   5.338   5.785  11.262  1.0109 -0.4632  1.7003
  794MOL0     H 7124   5.576   5.766  11.289  0.2454 -0.3162 -0.8825
  794MOL0     H 7125   5.724   5.775  11.093 -0.8616 -0.0372  1.2660
  794MOL0     H 7126   5.878   5.746  11.172  0.1521 -0.0224  0.8006
  794MOL0     H 7127   5.885   5.731  10.924  2.1656  0.5749  2.2284
  794MOL0     H 7128   5.791   5.577  10.930  0.3435  0.2813 -1.9469
  794MOL0     H 7129   6.024   5.511  10.912  4.5673 -0.9545  1.5407
  794MOL0     H 7130   5.983   5.497  11.084 -1.3893 -0.2886 -0.3042
  794MOL0     H 7131   6.099   5.762  10.989  0.0145 -1.7544 -1.6613
  794MOL0     H 7132   6.094   5.696  11.150 -0.0379  3.8998 -1.3632
  794MOL0     H 7133   6.318   5.633  11.087  1.5026 -0.2123 -0.8619
  794MOL0     H 7134   6.234   5.490  11.033  0.9645  0.5746 -0.1457
  794MOL0     H 7135   6.260   5.562  10.798 -0.1154  1.2584 -0.8335
  794MOL0     H 7136   6.300   5.728  10.854 -1.1921 -0.5305 -1.6552
  794MOL0     H 7137   6.505   5.630  10.964  0.6120  2.1547 -1.4639
  794MOL0     H 7138   6.502   5.607  10.789  1.2214 -0.9934 -0.0053
  794MOL0     H 7139   6.588   5.424  10.930 -0.5844 -1.8238 -1.7889
  794MOL0     H 7140   6.428   5.384  10.989  3.1888 -1.6270  1.6354
  794MOL0     H 7141   6.672   5.251  10.758  0.2199  0.3599 -1.4142
  794MOL0     H 7142   6.607   5.049  10.601 -1.4897 -0.9850  1.0842
  794MOL0     H 7143   6.480   5.064  10.475 -0.6842  0.6902  0.3763
  794MOL0     H 7144   6.708   5.256  10.483 -0.1425 -0.0329  0.5520
  794MOL0     H 7145   6.741   5.103  10.411 -0.0042  0.9161  0.2186
  794MOL0     H 7146   6.522   5.284  10.287 -3.2178 -2.5311 -0.9351
  794MOL0     H 7147   6.556   5.113  10.244 -0.0279  0.4898 -0.3205
  794MOL0     H 7148   6.689   5.276  10.099  1.5733 -0.2651  0.1929
  794MOL0     H 7149   6.776   5.148  10.187  0.8491 -0.4548 -1.2592
  794MOL0     H 7150   6.922   5.500  10.386 -0.7508 -0.7565 -0.4697
  794MOL0     H 7151   7.163   5.549  10.351  1.1811 -0.7075  1.8301
  794MOL0     H 7152   7.568   5.506  10.108  1.0308  0.4837 -0.0486
  794MOL0     H 7153   7.796   5.563  10.135  0.2151 -0.5617  0.0144
  794MOL0     H 7154   7.884   5.826  10.354 -0.6567  0.4496  1.3310
  794MOL0     H 7155   7.905   5.744  10.519 -2.1443 -3.1289  0.0967
  794MOL0     H 7156   8.115   5.850  10.332 -1.9767  1.8561  0.9838
  794MOL0     H 7157   8.126   5.823  10.500 -1.6495  3.3804 -2.0254
  794MOL0     H 7158   8.185   5.585  10.468 -0.8630 -0.0890  0.2144
  794MOL0     H 7159   8.168   5.609  10.294 -0.6868  0.6686  0.4244
  794MOL0     H 7160   8.361   5.769  10.452  0.2075  0.0276  1.1670
  794MOL0     H 7161   8.362   5.745  10.280 -0.0286  3.4592  0.8987
  794MOL0     H 7162   8.437   5.522  10.288 -2.7360 -0.5284 -0.1035
  794MOL0     H 7163   8.385   5.486  10.446 -0.5281 -0.5123 -0.6647
  794MOL0     H 7164   8.553   5.627  10.550  2.3311 -2.6829  1.8906
  794MOL0     H 7165   8.621   5.506  10.440  1.5478  0.7723 -4.0939
  794MOL0     H 7166   8.598   5.792  10.343 -0.8067  0.3540  0.8390
  794MOL0     H 7167   8.659   5.662  10.259  0.8772  1.9750 -0.1183
  794MOL0     H 7168   8.824   5.618  10.461 -1.6320  0.4063  0.7295
  794MOL0     H 7169   8.850   5.762  10.359  2.1815 -3.3917 -0.6701
  794MOL0     H 7170   7.741   5.567  10.565 -0.2452  0.1485  0.0032
  794MOL0     H 7171   7.516   5.491  10.526 -2.5350 -0.3221 -1.5809
  794MOL0     H 7172   7.173   5.247  10.049  1.3509  2.4575 -1.2144
  794MOL0     H 7173   6.928   5.230  10.060 -0.8464  0.4640  1.1008
  794MOL0     H 7174   5.597   5.419  11.047  0.7008  2.0866 -1.5467
  794MOL0     H 7175   5.335   5.412  11.055 -0.3442  1.6685 -0.6698
  794MOL0     H 7176   5.008   5.705  11.055  0.9595  0.3175  0.7596
  794MOL0     H 7177   4.784   5.791  11.024 -0.0153 -0.7396 -1.9408
  794MOL0     H 7178   4.496   5.579  11.304 -0.0854 -1.3651  0.4458
  794MOL0     H 7179   4.429   5.521  11.151 -0.5612 -1.5004  2.2260
  794MOL0     H 7180   4.243   5.639  11.224 -2.1328  3.1173 -1.5869
  794MOL0     H 7181   4.319   5.760  11.131  0.8975 -0.1924 -0.8145
  794MOL0     H 7182   4.328   5.743  11.433  1.4820  2.0453  1.6155
  794MOL0     H 7183   4.246   5.857  11.340  1.3034  1.0163  1.3763
  794MOL0     H 7184   4.552   5.840  11.370 -1.0814 -0.7976 -0.1197
  794MOL0     H 7185   4.483   5.949  11.244  0.9950  1.2503  0.1895
  794MOL0     H 7186   4.397   6.174  11.582  0.3489  1.1773 -1.7205
  794MOL0     H 7187   4.641   5.436  11.220 -1.0755  0.4401 -0.0291
  794MOL0     H 7188   4.762   5.268  11.290  2.0643 -2.3953  1.7385
  794MOL0     H 7189   4.892   5.252  11.176 -2.4204 -3.2759  1.8444
  794MOL0     H 7190   4.923   5.303  11.347  1.1647 -2.5673 -0.3228
  795MOL0     O 7191   2.250   4.677  10.022  0.7311 -0.7417 -0.1052
  795MOL0     C 7192   2.247   4.784   9.961 -0.2070  0.0927  1.0631
  795MOL0     O 7193   2.323   4.812   9.850  0.0884 -0.7511 -0.0768
  795MOL0     C 7194   2.424   4.726   9.810 -0.2685  0.7967  0.3924
  795MOL0     C 7195   2.562   4.768   9.828  0.2395  0.1948 -0.7782
  795MOL0     C 7196   2.668   4.688   9.790  0.1007  0.4673  0.2406
  795MOL0     C 7197   2.644   4.575   9.719  0.0389 -0.0036  0.0476
  795MOL0     O 7198   2.751   4.490   9.680  0.2451  0.3052 -0.7257
  795MOL0     C 7199   2.869   4.543   9.615  0.3295  0.0225 -0.6716
  795MOL0     C 7200   2.981   4.441   9.621  0.8660  0.3593 -0.5365
  795MOL0     C 7201   3.095   4.470   9.524 -0.0173 -0.7016 -0.1837
  795MOL0     C 7202   3.196   4.370   9.531  0.2535  0.2448  0.3492
  795MOL0     C 7203   3.303   4.395   9.644 -0.2871  0.3462  0.0045
  795MOL0     C 7204   3.389   4.273   9.653  0.7427 -0.2979  0.1516
  795MOL0     C 7205   3.500   4.297   9.748 -0.7537  0.3106  0.1794
  795MOL0     C 7206   3.603   4.404   9.700  0.4265  0.1867  0.6318
  795MOL0     N 7207   3.661   4.371   9.567 -0.1771 -0.4587 -0.3237
  795MOL0     C 7208   3.741   4.262   9.536  0.2744 -0.1960  0.8185
  795MOL0     C 7209   3.774   4.272   9.404 -0.1029 -0.3785  0.8111
  795MOL0     C 7210   3.844   4.168   9.311  0.2749 -0.9312 -0.4234
  795MOL0     C 7211   3.992   4.145   9.343  0.4804 -0.0291  0.1174
  795MOL0     C 7212   4.034   3.997   9.312  0.1351  0.4344 -0.0666
  795MOL0     C 7213   4.180   3.968   9.358  0.5593 -1.0540 -0.2990
  795MOL0     O 7214   4.256   4.019   9.248 -0.2541 -0.6038 -0.6792
  795MOL0     C 7215   4.391   4.020   9.258  0.2279  0.0072 -0.4147
  795MOL0     C 7216   4.460   3.950   9.363  0.3640 -0.5403 -0.4296
  795MOL0     C 7217   4.595   3.923   9.352  0.0756  0.5425 -0.1201
  795MOL0     C 7218   4.677   3.983   9.247 -0.2608  0.3194 -0.1243
  795MOL0     C 7219   4.823   3.967   9.252 -0.0851  0.0142  0.0614
  795MOL0     O 7220   4.874   3.897   9.361  0.3100  0.1233 -0.1287
  795MOL0     C 7221   4.999   3.853   9.363  0.2682  0.2268  0.4961
  795MOL0     C 7222   5.100   3.948   9.341 -0.5578  0.4259  0.2308
  795MOL0     C 7223   5.235   3.914   9.365 -0.2677  0.5416  0.8555
  795MOL0     C 7224   5.266   3.777   9.397 -0.4462 -0.4227 -0.4954
  795MOL0     O 7225   5.400   3.754   9.412  0.5223 -0.2441 -0.5891
  795MOL0     C 7226   5.438   3.628   9.467 -0.0653 -0.3572 -0.4139
  795MOL0     C 7227   5.582   3.614   9.471  0.3518  0.5797 -0.3567
  795MOL0     C 7228   5.662   3.726   9.538  0.0819  0.0034 -0.1267
  795MOL0     C 7229   5.809   3.715   9.510 -0.3139  0.4969 -0.6756
  795MOL0     C 7230   5.906   3.820   9.563 -0.5218  0.2047 -0.2850
  795MOL0     C 7231   6.053   3.784   9.526 -0.1551  0.0474  0.5416
  795MOL0     C 7232   6.165   3.883   9.587  0.4369 -0.0525  1.0013
  795MOL0     C 7233   6.266   3.909   9.474  0.4168  0.3223  0.0389
  795MOL0    Cl 7234   6.379   4.028   9.519  0.1294  0.1103  0.2950
  795MOL0     C 7235   5.167   3.683   9.408  0.9748  0.1336  0.9029
  795MOL0     C 7236   5.030   3.717   9.386 -0.3762 -0.5810 -0.4579
  795MOL0     O 7237   4.892   4.013   9.160 -0.5537 -0.3604  0.1035
  795MOL0     C 7238   4.607   4.049   9.145  0.0420 -0.6885  0.2057
  795MOL0     C 7239   4.465   4.082   9.151 -0.0510  0.6961  0.0593
  795MOL0     N 7240   3.706   4.382   9.351 -0.5510 -0.4498 -0.1985
  795MOL0     N 7241   3.647   4.445   9.452 -0.2144  0.7122 -0.1971
  795MOL0     C 7242   2.517   4.536   9.698  0.8050 -0.1565 -0.0771
  795MOL0     C 7243   2.402   4.611   9.738 -0.6773 -0.0519  0.5021
  795MOL0     C 7244   2.150   4.884  10.007  0.1283 -0.8757  0.9291
  795MOL0     C 7245   2.089   4.867  10.130  0.5794 -0.7237  0.3380
  795MOL0     C 7246   1.980   4.953  10.168 -0.6189 -0.3448  0.4343
  795MOL0     C 7247   1.934   5.056  10.097 -0.2571 -0.0650  0.3437
  795MOL0     O 7248   1.833   5.134  10.156 -0.3908  0.6593  0.1829
  795MOL0     C 7249   1.786   5.254  10.085  1.0151  0.1934 -0.0453
  795MOL0     C 7250   1.678   5.312  10.189  0.4475  0.2420 -0.1557
  795MOL0     C 7251   1.540   5.258  10.165  0.4915  0.2886  0.0756
  795MOL0     C 7252   1.538   5.105  10.181  0.3781  0.3112 -0.2600
  795MOL0     C 7253   1.406   5.039  10.161 -1.4866 -0.7545  0.5568
  795MOL0     C 7254   1.307   4.986  10.119 -0.6592 -0.0525 -0.8593
  795MOL0     C 7255   2.002   5.084   9.974  0.4127 -0.1587 -0.2353
  795MOL0     C 7256   2.102   4.992   9.926 -0.0319 -0.9016 -0.2969
  795MOL0     C 7257   2.139   5.012   9.783 -0.8797  0.0468 -0.0410
  795MOL0     H 7258   2.591   4.859   9.880  0.3629 -1.2785  1.8931
  795MOL0     H 7259   2.768   4.728   9.798  1.2249 -1.3979 -2.7155
  795MOL0     H 7260   2.848   4.560   9.509  0.0012 -0.6404 -0.7175
  795MOL0     H 7261   2.910   4.630   9.667  0.6258 -2.6646  4.1177
  795MOL0     H 7262   2.943   4.341   9.599 -0.9842  0.5937  1.2202
  795MOL0     H 7263   3.031   4.431   9.718  0.1751 -3.2566 -0.4207
  795MOL0     H 7264   3.127   4.574   9.538 -2.2289  0.3314 -2.1087
  795MOL0     H 7265   3.048   4.468   9.425  1.2648  3.3440 -1.0824
  795MOL0     H 7266   3.147   4.274   9.550 -0.4091  0.4161 -0.4556
  795MOL0     H 7267   3.237   4.374   9.430 -0.1340  0.6308  0.2054
  795MOL0     H 7268   3.357   4.483   9.609  1.5058 -0.7329 -0.0516
  795MOL0     H 7269   3.254   4.413   9.740 -2.2392 -1.7413 -0.5099
  795MOL0     H 7270   3.323   4.194   9.690 -0.3769 -0.4608 -1.9982
  795MOL0     H 7271   3.414   4.236   9.553 -0.9765 -0.3550 -0.2925
  795MOL0     H 7272   3.558   4.204   9.745 -1.9370 -0.4544 -3.2878
  795MOL0     H 7273   3.455   4.318   9.846 -0.9288  1.3868 -0.1210
  795MOL0     H 7274   3.546   4.497   9.691  0.1424  0.1830  2.1559
  795MOL0     H 7275   3.682   4.424   9.773  0.5050  2.1005  0.0843
  795MOL0     H 7276   3.769   4.178   9.599 -2.1710 -1.5033  0.2936
  795MOL0     H 7277   3.791   4.073   9.328  0.9640 -1.5775 -1.7403
  795MOL0     H 7278   3.825   4.195   9.207 -0.0701 -0.5714 -0.2683
  795MOL0     H 7279   4.051   4.213   9.281 -0.7067  0.0460 -0.9997
  795MOL0     H 7280   4.018   4.165   9.447  1.8756 -0.5693 -0.1069
  795MOL0     H 7281   4.018   3.972   9.207  1.3610 -1.0117  0.0648
  795MOL0     H 7282   3.957   3.933   9.357  0.2195 -1.4223 -2.3717
  795MOL0     H 7283   4.198   3.861   9.373 -0.7897 -1.2438  0.0968
  795MOL0     H 7284   4.196   4.030   9.447 -0.8109  1.2539 -1.5530
  795MOL0     H 7285   4.405   3.909   9.447 -1.6839  2.8389  0.0167
  795MOL0     H 7286   4.632   3.849   9.422 -1.4281 -1.3440 -1.2175
  795MOL0     H 7287   5.087   4.053   9.318  2.2931  0.7690 -0.2135
  795MOL0     H 7288   5.314   3.987   9.354 -1.7750  1.9281 -1.7089
  795MOL0     H 7289   5.402   3.631   9.570  0.4788  0.6280 -0.2339
  795MOL0     H 7290   5.396   3.542   9.414  1.1190 -0.6988 -0.8135
  795MOL0     H 7291   5.604   3.517   9.517 -2.0448  0.9591  1.7775
  795MOL0     H 7292   5.614   3.612   9.366 -0.0748 -2.9700 -0.5460
  795MOL0     H 7293   5.620   3.823   9.512 -2.0599 -1.3742 -2.2363
  795MOL0     H 7294   5.644   3.733   9.646 -2.3544  2.6728 -0.5941
  795MOL0     H 7295   5.819   3.694   9.403  0.3628 -0.3254 -0.4649
  795MOL0     H 7296   5.838   3.619   9.556 -1.5604  0.8341  0.9106
  795MOL0     H 7297   5.908   3.819   9.672  2.5352 -1.4227 -0.2330
  795MOL0     H 7298   5.884   3.914   9.513 -2.9212 -1.3313 -2.3989
  795MOL0     H 7299   6.082   3.690   9.573  1.9300 -0.7106 -2.0232
  795MOL0     H 7300   6.049   3.779   9.417 -2.1464 -0.1231  0.5914
  795MOL0     H 7301   6.193   3.845   9.686  0.3672 -1.3848  0.5323
  795MOL0     H 7302   6.124   3.980   9.615 -0.7386 -0.1369 -0.3035
  795MOL0     H 7303   6.316   3.823   9.428 -0.4379  1.7476 -3.9763
  795MOL0     H 7304   6.222   3.949   9.382  2.0404 -1.7661 -1.7806
  795MOL0     H 7305   5.198   3.581   9.426 -0.1821 -0.7319 -1.5670
  795MOL0     H 7306   4.956   3.638   9.387  0.8198 -1.7381 -0.3614
  795MOL0     H 7307   4.670   4.102   9.075  2.8666 -1.5267  1.9762
  795MOL0     H 7308   4.407   4.136   9.077  0.1616  0.1798 -0.4943
  795MOL0     H 7309   2.501   4.445   9.641  1.4426  0.3959 -1.1766
  795MOL0     H 7310   2.298   4.586   9.721 -0.3940  0.1167 -1.8370
  795MOL0     H 7311   2.123   4.784  10.192  1.3917 -2.5202 -2.3248
  795MOL0     H 7312   1.941   4.934  10.267  0.3826 -0.9552  0.7397
  795MOL0     H 7313   1.746   5.231   9.985 -1.3116  0.7409  0.7004
  795MOL0     H 7314   1.873   5.317  10.069  0.1536  1.0749 -1.4636
  795MOL0     H 7315   1.662   5.420  10.179 -2.6905 -0.0365  0.8735
  795MOL0     H 7316   1.703   5.289  10.293 -0.8801 -0.6708 -0.0246
  795MOL0     H 7317   1.503   5.282  10.065  1.2213  1.1709  0.0008
  795MOL0     H 7318   1.465   5.301  10.231  0.3450 -1.2317  0.9287
  795MOL0     H 7319   1.608   5.059  10.112  1.5849 -0.0552  1.1555
  795MOL0     H 7320   1.554   5.069  10.283 -0.1597  1.7128  0.3518
  795MOL0     H 7321   1.224   4.940  10.070 -0.6038 -1.8034  0.5914
  795MOL0     H 7322   1.977   5.173   9.917  2.3851  1.5830  1.4232
  795MOL0     H 7323   2.078   5.085   9.731 -1.0324  0.6188  0.9160
  795MOL0     H 7324   2.245   5.037   9.781 -1.1829  1.6101  1.4029
  795MOL0     H 7325   2.123   4.914   9.737  0.0592 -0.0493 -0.1768
  796MOL0     O 7326   1.429   9.834   0.989  0.5519 -0.1025 -0.3516
  796MOL0     C 7327   1.415   9.958   0.997  0.2657  0.2933 -0.3497
  796MOL0     O 7328   1.508  10.045   1.029 -0.8261 -0.4626 -0.1348
  796MOL0     C 7329   1.626   9.994   1.084  0.0674 -0.1566  0.3708
  796MOL0     C 7330   1.745   9.997   1.004 -0.7902  0.1194 -0.0192
  796MOL0     C 7331   1.858   9.930   1.047  0.0362  0.5669  0.4569
  796MOL0     C 7332   1.864   9.871   1.175 -0.5657 -0.0871  0.4270
  796MOL0     O 7333   1.986   9.822   1.225 -0.5757 -0.3013  0.4810
  796MOL0     C 7334   1.973   9.697   1.299  0.7077 -1.2909 -0.1270
  796MOL0     C 7335   2.104   9.672   1.373  0.1242 -1.3704  0.1242
  796MOL0     C 7336   2.227   9.660   1.280 -0.5179  0.2701  0.5849
  796MOL0     C 7337   2.338   9.574   1.345  0.3630  0.6329  0.0550
  796MOL0     C 7338   2.465   9.587   1.239  0.6151  0.6530 -0.7741
  796MOL0     C 7339   2.592   9.515   1.279 -0.8698  0.6641  0.0359
  796MOL0     C 7340   2.707   9.545   1.185  0.8811 -0.1000 -0.4888
  796MOL0     C 7341   2.837   9.473   1.219 -0.4511  0.0403  0.7171
  796MOL0     N 7342   2.948   9.504   1.130  0.4335  0.1364  0.5213
  796MOL0     C 7343   3.025   9.410   1.069 -0.4860 -0.5251  0.6849
  796MOL0     C 7344   3.099   9.480   0.972  0.0304  0.0355  0.2982
  796MOL0     C 7345   3.202   9.425   0.877 -0.2154  0.0133 -0.2934
  796MOL0     C 7346   3.325   9.385   0.961  0.0649  1.0552  0.4949
  796MOL0     C 7347   3.398   9.518   0.999  0.5439  0.1268 -0.1661
  796MOL0     C 7348   3.545   9.500   1.035 -0.0157 -0.1458  0.4511
  796MOL0     O 7349   3.611   9.440   0.920 -0.0493  0.2830 -0.5676
  796MOL0     C 7350   3.746   9.444   0.921  0.2707  0.5815 -0.0595
  796MOL0     C 7351   3.815   9.416   0.807 -0.2900 -0.3406 -0.1221
  796MOL0     C 7352   3.956   9.415   0.796  0.3271 -0.0184  0.6785
  796MOL0     C 7353   4.031   9.447   0.912 -0.5134 -0.3038  0.0741
  796MOL0     C 7354   4.182   9.465   0.914  1.3219  0.3840 -0.3239
  796MOL0     O 7355   4.238   9.469   0.792 -0.7369  0.0366 -0.0731
  796MOL0     C 7356   4.373   9.501   0.770 -0.3319  0.9369  0.1645
  796MOL0     C 7357   4.480   9.446   0.833 -0.1726 -1.2162 -0.9531
  796MOL0     C 7358   4.611   9.489   0.805 -0.5138  0.3681  0.1679
  796MOL0     C 7359   4.627   9.591   0.708  0.3741  0.1459 -0.8558
  796MOL0     O 7360   4.754   9.633   0.673 -0.4909  0.2709 -0.2927
  796MOL0     C 7361   4.763   9.749   0.590 -0.0204 -0.8744 -1.3307
  796MOL0     C 7362   4.906   9.794   0.563  0.0454  0.0605 -0.6714
  796MOL0     C 7363   4.970   9.847   0.694 -0.2965 -0.0790  0.7026
  796MOL0     C 7364   4.931   9.993   0.727 -0.5908  0.2886 -0.3235
  796MOL0     C 7365   4.992  10.039   0.863 -0.1463 -0.3128 -0.0616
  796MOL0     C 7366   5.153  10.037   0.843 -0.1754 -0.1552 -0.2596
  796MOL0     C 7367   5.234  10.112   0.954  0.2209 -0.8750 -0.5275
  796MOL0     C 7368   5.378  10.074   0.949 -1.0007  1.1087  1.1499
  796MOL0    Cl 7369   5.470  10.154   0.824  0.0748  0.0727  0.2150
  796MOL0     C 7370   4.522   9.645   0.640  1.2087  0.6081 -0.1561
  796MOL0     C 7371   4.394   9.602   0.681  0.2012  0.5042  0.5207
  796MOL0     O 7372   4.240   9.489   1.017 -0.4955 -0.2283  0.0643
  796MOL0     C 7373   3.962   9.482   1.024 -0.5086 -0.0877 -0.7833
  796MOL0     C 7374   3.822   9.485   1.031  0.2594 -0.8032 -0.4000
  796MOL0     N 7375   3.056   9.610   0.976  0.6872  0.2326 -0.6303
  796MOL0     N 7376   2.973   9.625   1.078  0.6734 -0.6844 -0.0038
  796MOL0     C 7377   1.749   9.876   1.253 -0.2903 -0.0517 -0.2015
  796MOL0     C 7378   1.628   9.938   1.215 -1.0298  0.7010  1.1934
  796MOL0     C 7379   1.281  10.005   0.967  0.2136 -0.0409 -0.1624
  796MOL0     C 7380   1.209  10.085   1.058  0.1321  0.0581  0.2945
  796MOL0     C 7381   1.075  10.126   1.040 -0.4460  0.3660  0.8634
  796MOL0     C 7382   1.013  10.093   0.919  0.1502 -0.9022  0.3188
  796MOL0     O 7383   0.883  10.143   0.919  0.7213 -0.3917  0.5479
  796MOL0     C 7384   0.793  10.104   0.811 -0.8049  0.1914 -0.1661
  796MOL0     C 7385   0.655  10.161   0.840  0.2259 -1.1055  0.3306
  796MOL0     C 7386   0.550  10.130   0.735 -0.5055  0.5370 -0.1530
  796MOL0     C 7387   0.511   9.981   0.744  0.6374 -0.2023 -0.5498
  796MOL0     C 7388   0.434   9.961   0.869  0.0926  0.3705  0.7297
  796MOL0     C 7389   0.360   9.932   0.960  0.4879 -0.2855 -0.2023
  796MOL0     C 7390   1.087  10.025   0.818  0.1783 -0.1967 -0.0087
  796MOL0     C 7391   1.214   9.975   0.842  0.0576  0.5496  0.6859
  796MOL0     C 7392   1.271   9.896   0.728 -0.5232  0.0268 -0.0608
  796MOL0     H 7393   1.748  10.041   0.905  0.8674 -0.1921 -0.1285
  796MOL0     H 7394   1.950   9.928   0.989 -0.8857  1.3592 -1.0867
  796MOL0     H 7395   1.895   9.712   1.373  1.2353  0.0460  0.1904
  796MOL0     H 7396   1.942   9.610   1.240  1.6558 -1.0755 -0.9680
  796MOL0     H 7397   2.095   9.577   1.427  0.6287 -2.0522 -0.9670
  796MOL0     H 7398   2.120   9.756   1.440  1.2314 -0.1411 -1.6099
  796MOL0     H 7399   2.264   9.762   1.266 -1.2215  0.3508 -0.8992
  796MOL0     H 7400   2.189   9.607   1.192 -1.4427  1.0966  0.4544
  796MOL0     H 7401   2.360   9.615   1.444  0.5024  0.9271 -0.0983
  796MOL0     H 7402   2.312   9.470   1.367 -2.0548  1.1910  0.0983
  796MOL0     H 7403   2.433   9.554   1.140 -1.7742 -0.2934  0.2326
  796MOL0     H 7404   2.487   9.694   1.232 -2.9027  1.6335  0.6646
  796MOL0     H 7405   2.617   9.562   1.375  1.1014  1.0678 -0.6336
  796MOL0     H 7406   2.579   9.408   1.293 -1.6448  0.5684 -1.3159
  796MOL0     H 7407   2.728   9.652   1.193  1.6994 -0.3430  1.1872
  796MOL0     H 7408   2.681   9.523   1.082 -1.2881  0.9472 -0.2101
  796MOL0     H 7409   2.870   9.502   1.319 -2.2876  1.7887  0.8762
  796MOL0     H 7410   2.814   9.366   1.216  1.3779 -0.3831  0.4848
  796MOL0     H 7411   3.040   9.306   1.096 -1.9600 -0.8119  0.4541
  796MOL0     H 7412   3.171   9.340   0.816 -1.8588  1.6874 -1.9314
  796MOL0     H 7413   3.229   9.508   0.811 -0.8348  1.3393  1.0639
  796MOL0     H 7414   3.294   9.326   1.048 -2.1387 -0.2070 -1.0426
  796MOL0     H 7415   3.389   9.326   0.896 -1.2047 -1.8999  1.7569
  796MOL0     H 7416   3.348   9.555   1.090  0.4937  1.5476 -0.7350
  796MOL0     H 7417   3.393   9.597   0.923 -0.0385  0.9360  0.6945
  796MOL0     H 7418   3.553   9.439   1.125  1.7311 -0.9210 -0.1904
  796MOL0     H 7419   3.586   9.598   1.059 -0.0968 -0.0908  0.3646
  796MOL0     H 7420   3.758   9.383   0.721  1.7925 -0.0620 -1.6946
  796MOL0     H 7421   3.998   9.371   0.705 -1.9403 -1.8034  0.4207
  796MOL0     H 7422   4.466   9.360   0.897 -0.4054 -0.2138  0.3697
  796MOL0     H 7423   4.699   9.445   0.851  2.0163  2.4159 -2.3335
  796MOL0     H 7424   4.704   9.747   0.498 -0.6534 -1.5266 -0.9213
  796MOL0     H 7425   4.717   9.824   0.655 -0.6643 -1.3692 -1.2027
  796MOL0     H 7426   4.961   9.708   0.522  1.9392  0.4022  0.9882
  796MOL0     H 7427   4.906   9.884   0.500 -0.6033  0.4710 -0.0931
  796MOL0     H 7428   4.954   9.784   0.782  2.1467  1.8413  2.6795
  796MOL0     H 7429   5.078   9.834   0.679 -0.0532 -4.1047  3.9569
  796MOL0     H 7430   4.821  10.000   0.729 -0.6463 -0.3480  2.2920
  796MOL0     H 7431   4.965  10.060   0.648 -1.1521  0.7691 -0.1688
  796MOL0     H 7432   4.960   9.972   0.943 -1.1621  0.5762  0.2877
  796MOL0     H 7433   4.959  10.142   0.880 -0.3186 -0.0825 -1.6383
  796MOL0     H 7434   5.189   9.934   0.840  0.7152  0.1189 -4.0837
  796MOL0     H 7435   5.176  10.092   0.752 -2.5597  1.9636  0.2828
  796MOL0     H 7436   5.198  10.082   1.053  0.1659 -2.0917 -0.9049
  796MOL0     H 7437   5.223  10.221   0.951  0.5624 -0.8449 -0.7360
  796MOL0     H 7438   5.416  10.111   1.045 -2.6879 -0.2023  2.3731
  796MOL0     H 7439   5.386   9.965   0.958 -0.8621  1.2197  2.6567
  796MOL0     H 7440   4.521   9.724   0.567  1.3200  1.4746  0.7522
  796MOL0     H 7441   4.316   9.651   0.624 -0.0263  3.2942  2.9814
  796MOL0     H 7442   4.009   9.509   1.118 -1.8027 -2.9381  0.8059
  796MOL0     H 7443   3.770   9.518   1.120 -0.4345 -0.3270 -0.9747
  796MOL0     H 7444   1.742   9.831   1.352  0.3480 -0.3602 -0.2937
  796MOL0     H 7445   1.542   9.931   1.281 -1.6701  0.0868  0.3260
  796MOL0     H 7446   1.252  10.118   1.153 -2.0142  1.5324  0.8356
  796MOL0     H 7447   1.017  10.182   1.113  0.4599  0.6384  1.3917
  796MOL0     H 7448   0.796   9.995   0.814  1.5074  0.2015 -0.1469
  796MOL0     H 7449   0.825  10.145   0.714 -2.0426  2.5706  0.3615
  796MOL0     H 7450   0.663  10.269   0.833  1.2023 -1.2766 -3.7781
  796MOL0     H 7451   0.622  10.130   0.940  0.9084 -2.0280  0.2884
  796MOL0     H 7452   0.601  10.143   0.639  1.0017  0.4285  0.5901
  796MOL0     H 7453   0.463  10.194   0.749 -0.2017  1.1089 -0.7699
  796MOL0     H 7454   0.447   9.954   0.659 -1.2972 -0.3880  0.9028
  796MOL0     H 7455   0.597   9.913   0.740 -0.5475 -1.6973 -1.6095
  796MOL0     H 7456   0.300   9.904   1.045  1.9212  1.6104  1.5536
  796MOL0     H 7457   1.035  10.010   0.724 -0.6075  1.0851  0.1907
  796MOL0     H 7458   1.359   9.945   0.687 -0.6794 -0.6212 -1.2140
  796MOL0     H 7459   1.300   9.796   0.761  0.0765  0.9631  2.4600
  796MOL0     H 7460   1.192   9.887   0.652 -0.6364  2.4868 -0.2963
  797MOL0     O 7461   7.330   1.865   1.124 -0.0414 -0.2975  0.4871
  797MOL0     C 7462   7.311   1.778   1.039  1.5046  0.7029  0.1842
  797MOL0     O 7463   7.401   1.681   1.003  0.2530  0.2656 -0.1196
  797MOL0     C 7464   7.532   1.702   1.035  0.1385 -0.3474  0.6320
  797MOL0     C 7465   7.622   1.745   0.935  0.0719 -0.5905 -0.1495
  797MOL0     C 7466   7.751   1.770   0.967 -0.6042  0.6314  0.1250
  797MOL0     C 7467   7.801   1.728   1.087 -0.5091 -0.2747  0.0414
  797MOL0     O 7468   7.933   1.739   1.098  0.6857  0.0684 -0.0088
  797MOL0     C 7469   7.999   1.711   1.225  0.5257  0.2242  0.3248
  797MOL0     C 7470   8.152   1.756   1.209 -0.2239  0.5611  0.0822
  797MOL0     C 7471   8.224   1.664   1.119 -0.7076  0.0859  0.5016
  797MOL0     C 7472   8.373   1.691   1.123 -0.7482  0.7115  0.4472
  797MOL0     C 7473   8.448   1.589   1.036  0.4128  0.0316  0.5643
  797MOL0     C 7474   8.592   1.599   1.037  0.1327  0.1597 -0.1702
  797MOL0     C 7475   8.648   1.475   0.968 -0.4156  0.3939  0.7511
  797MOL0     C 7476   8.788   1.486   0.896 -0.1059 -0.4650 -0.2651
  797MOL0     N 7477   8.901   1.506   0.993 -0.6779  0.5139  0.9837
  797MOL0     C 7478   8.941   1.420   1.090  0.1974  1.1827  0.0670
  797MOL0     C 7479   9.068   1.467   1.131  0.4785 -0.5435  1.3383
  797MOL0     C 7480   9.157   1.397   1.230 -0.6566 -0.2221 -0.1641
  797MOL0     C 7481   9.296   1.355   1.183 -0.5383 -0.1381  0.8241
  797MOL0     C 7482   9.382   1.474   1.149 -0.2589 -0.0633 -0.1155
  797MOL0     C 7483   9.512   1.438   1.071 -0.5740 -0.1793 -0.3676
  797MOL0     O 7484   9.585   1.357   1.167 -0.1675  0.4231 -0.2440
  797MOL0     C 7485   9.713   1.325   1.132  0.2849 -0.1265 -0.5503
  797MOL0     C 7486   9.795   1.263   1.224  0.1812  1.1950 -0.7153
  797MOL0     C 7487   9.931   1.231   1.201 -0.4643  0.8879  1.2460
  797MOL0     C 7488   9.988   1.274   1.077 -0.2448 -0.4819  1.1400
  797MOL0     C 7489  10.129   1.247   1.035 -0.0558 -1.1649 -0.1328
  797MOL0     O 7490  10.210   1.185   1.131  0.3999 -0.7512  0.5561
  797MOL0     C 7491  10.350   1.172   1.108  0.4994 -0.1714 -0.3390
  797MOL0     C 7492  10.395   1.104   0.984  0.4613  0.2156  0.6803
  797MOL0     C 7493  10.531   1.068   0.966 -0.1996 -0.4631 -0.1817
  797MOL0     C 7494  10.628   1.089   1.065  0.4616 -0.5083  0.2458
  797MOL0     O 7495  10.753   1.036   1.067  0.4687 -0.4297 -0.6970
  797MOL0     C 7496  10.803   0.978   0.940  0.1358 -0.4699 -0.4967
  797MOL0     C 7497  10.946   0.929   0.958  1.0524  0.4933 -0.2426
  797MOL0     C 7498  11.046   1.048   0.965  0.7722 -0.3798  0.9022
  797MOL0     C 7499  11.181   1.001   1.025  0.8318  0.7345  0.5147
  797MOL0     C 7500  11.264   0.949   0.907 -0.1236  0.0531  0.3792
  797MOL0     C 7501  11.407   0.933   0.950  1.0897  0.5142 -0.6397
  797MOL0     C 7502  11.491   1.059   0.970  0.5397 -0.2593 -0.1649
  797MOL0     C 7503  11.630   1.030   1.032 -0.1517 -0.4618 -0.0899
  797MOL0    Cl 7504  11.746   0.984   0.894  0.5318 -0.1225  0.1374
  797MOL0     C 7505  10.577   1.149   1.176  0.9838 -0.3280 -0.3221
  797MOL0     C 7506  10.445   1.191   1.197 -0.0777  1.2538 -0.6501
  797MOL0     O 7507  10.161   1.288   0.925  0.3260  0.0670 -0.8467
  797MOL0     C 7508   9.900   1.331   0.987 -0.4948 -0.5053  0.4757
  797MOL0     C 7509   9.767   1.363   1.012 -0.2877  1.0349  0.7364
  797MOL0     N 7510   9.078   1.597   1.073 -0.8257  0.4922  0.5953
  797MOL0     N 7511   8.987   1.610   0.986 -1.2405  0.6467  0.4937
  797MOL0     C 7512   7.720   1.682   1.181 -0.5281 -0.2184 -0.1206
  797MOL0     C 7513   7.582   1.677   1.162  0.4733  0.0686  0.2235
  797MOL0     C 7514   7.172   1.764   0.988  0.0052  0.4639 -0.1111
  797MOL0     C 7515   7.066   1.815   1.071 -0.7961 -0.0118  1.0483
  797MOL0     C 7516   6.940   1.792   1.054 -0.2204  0.9178  0.2927
  797MOL0     C 7517   6.898   1.728   0.937 -0.1709 -0.4554 -0.1664
  797MOL0     O 7518   6.768   1.717   0.894 -0.6297  0.7868 -0.1121
  797MOL0     C 7519   6.656   1.793   0.951 -0.4919  0.3967 -0.0560
  797MOL0     C 7520   6.612   1.738   1.084 -0.2269 -0.1081  0.4835
  797MOL0     C 7521   6.587   1.586   1.068 -0.0108 -0.2908 -0.1819
  797MOL0     C 7522   6.523   1.539   1.191 -0.0345  0.8366  0.2062
  797MOL0     C 7523   6.492   1.391   1.193 -0.3559  0.2033  0.3534
  797MOL0     C 7524   6.473   1.272   1.187  0.9584  0.2962  0.1561
  797MOL0     C 7525   6.999   1.678   0.843  0.3402  0.1032 -0.1471
  797MOL0     C 7526   7.137   1.698   0.870  0.3814  0.6959 -0.7241
  797MOL0     C 7527   7.242   1.635   0.770 -0.2445 -0.5613 -1.4328
  797MOL0     H 7528   7.583   1.757   0.834 -0.8756  0.3234  0.2953
  797MOL0     H 7529   7.821   1.801   0.890 -0.2828  1.5244  0.7616
  797MOL0     H 7530   7.953   1.779   1.297 -0.5828 -1.0664  0.8780
  797MOL0     H 7531   7.991   1.607   1.259 -0.8198  0.7775  1.7982
  797MOL0     H 7532   8.187   1.751   1.313  0.2089 -0.1494 -0.0943
  797MOL0     H 7533   8.165   1.858   1.171 -0.1595  1.0920  1.4600
  797MOL0     H 7534   8.184   1.670   1.017  1.1743 -1.1416 -0.3648
  797MOL0     H 7535   8.194   1.562   1.143 -1.5021  0.2562  0.2444
  797MOL0     H 7536   8.397   1.791   1.085  2.4659 -0.5233 -1.2439
  797MOL0     H 7537   8.413   1.685   1.225 -0.8821  0.6972  0.4984
  797MOL0     H 7538   8.409   1.491   1.062 -1.8890  0.7597  0.1460
  797MOL0     H 7539   8.431   1.613   0.930 -0.0973  2.5711  1.1387
  797MOL0     H 7540   8.627   1.688   0.984  1.0252 -0.3524 -0.4489
  797MOL0     H 7541   8.618   1.606   1.143 -2.0106  1.5544  0.3209
  797MOL0     H 7542   8.570   1.453   0.895 -0.0042  0.2387  0.3500
  797MOL0     H 7543   8.665   1.394   1.039  0.0033 -0.5917 -0.4405
  797MOL0     H 7544   8.805   1.394   0.840 -0.7653 -1.0040  0.4037
  797MOL0     H 7545   8.797   1.569   0.825  2.0012  1.5648  2.1741
  797MOL0     H 7546   8.898   1.324   1.118  2.0516  0.4005  0.4414
  797MOL0     H 7547   9.170   1.457   1.320  0.5580 -0.8101  0.0734
  797MOL0     H 7548   9.109   1.301   1.255  1.5165 -1.5389 -0.7732
  797MOL0     H 7549   9.345   1.297   1.262  0.0274 -0.4364  0.2592
  797MOL0     H 7550   9.287   1.292   1.094 -0.6777  1.7760 -0.5776
  797MOL0     H 7551   9.399   1.545   1.230  0.2230  0.5234 -0.7105
  797MOL0     H 7552   9.329   1.538   1.077 -0.1825  1.3912  1.0744
  797MOL0     H 7553   9.566   1.528   1.042  0.2157 -0.2994  0.6445
  797MOL0     H 7554   9.476   1.387   0.981 -0.6723  0.8253 -0.9010
  797MOL0     H 7555   9.754   1.229   1.319 -2.6922 -0.1835 -2.2976
  797MOL0     H 7556   9.999   1.182   1.270 -1.5187 -1.1927  0.8656
  797MOL0     H 7557  10.322   1.085   0.906 -1.5065 -1.2659  2.7653
  797MOL0     H 7558  10.563   1.021   0.874 -0.9712 -0.9914 -0.1877
  797MOL0     H 7559  10.746   0.891   0.908  1.3244  0.0615 -4.6614
  797MOL0     H 7560  10.800   1.050   0.858  0.7370 -0.3329 -0.4055
  797MOL0     H 7561  10.954   0.872   1.051  1.9537  0.7634 -0.1411
  797MOL0     H 7562  10.979   0.861   0.879  2.6364 -1.2244  1.7766
  797MOL0     H 7563  11.052   1.084   0.862 -0.8714 -0.3166  0.7959
  797MOL0     H 7564  11.008   1.125   1.033 -2.1619  0.1246 -1.0871
  797MOL0     H 7565  11.164   0.922   1.099 -0.8129 -0.2603 -0.8474
  797MOL0     H 7566  11.229   1.089   1.069 -0.8533  0.6541  2.7182
  797MOL0     H 7567  11.265   1.024   0.827  0.2952  0.0820  0.4088
  797MOL0     H 7568  11.223   0.856   0.867  2.3106 -1.2282  0.6111
  797MOL0     H 7569  11.406   0.878   1.045 -0.0167 -0.0292 -0.9434
  797MOL0     H 7570  11.451   0.873   0.869 -3.0178  0.3906 -3.0901
  797MOL0     H 7571  11.437   1.113   1.048 -1.2402 -1.8087 -0.2566
  797MOL0     H 7572  11.504   1.109   0.873 -2.3269 -2.1821 -1.6847
  797MOL0     H 7573  11.651   1.124   1.085 -1.1561 -0.1800 -0.1705
  797MOL0     H 7574  11.622   0.953   1.109 -0.7596  1.0044  1.3888
  797MOL0     H 7575  10.656   1.162   1.251  1.9127 -1.3407 -1.0837
  797MOL0     H 7576  10.416   1.230   1.294  1.9376 -1.0971  1.0589
  797MOL0     H 7577   9.938   1.364   0.891  2.6770 -3.3360  0.5622
  797MOL0     H 7578   9.721   1.418   0.932 -0.9692  0.0561  0.4357
  797MOL0     H 7579   7.752   1.651   1.279 -1.8391  0.9085  0.7056
  797MOL0     H 7580   7.534   1.648   1.255  3.3058 -2.3149  1.1168
  797MOL0     H 7581   7.086   1.876   1.158 -2.4018 -1.2843  2.3547
  797MOL0     H 7582   6.873   1.847   1.120 -2.0005  1.1591 -1.6261
  797MOL0     H 7583   6.580   1.794   0.872  1.5610 -1.4529 -2.1810
  797MOL0     H 7584   6.688   1.895   0.973 -2.2178  1.1078 -0.6359
  797MOL0     H 7585   6.522   1.790   1.119 -0.7489 -0.2132 -0.6368
  797MOL0     H 7586   6.688   1.756   1.160 -0.3950 -1.3623  0.9816
  797MOL0     H 7587   6.685   1.542   1.047  0.2727  0.3324 -0.2016
  797MOL0     H 7588   6.521   1.574   0.982 -0.7591 -1.8647  0.5756
  797MOL0     H 7589   6.588   1.574   1.272  1.9076 -0.8460 -0.5136
  797MOL0     H 7590   6.424   1.584   1.197 -0.1536  0.5050  0.7284
  797MOL0     H 7591   6.454   1.166   1.184  0.9918  0.2776  0.5231
  797MOL0     H 7592   6.978   1.635   0.745  1.9048  1.7469 -1.2675
  797MOL0     H 7593   7.317   1.709   0.742  2.7364 -2.1681  1.5076
  797MOL0     H 7594   7.301   1.560   0.824 -1.0926  0.4366  1.0261
  797MOL0     H 7595   7.197   1.585   0.684  0.5624 -1.0013 -1.6139
  798MOL0     O 7596   9.320   3.975   3.030  0.8455 -0.1559 -0.3890
  798MOL0     C 7597   9.310   4.037   2.924  0.2635 -0.3513 -0.3918
  798MOL0     O 7598   9.416   4.057   2.844 -0.6319 -0.8381 -0.1630
  798MOL0     C 7599   9.533   3.998   2.860  0.3748 -0.7461 -0.1449
  798MOL0     C 7600   9.552   3.865   2.905 -0.5610  0.0986  0.3108
  798MOL0     C 7601   9.685   3.815   2.918 -0.3851  0.5093 -0.9111
  798MOL0     C 7602   9.795   3.883   2.871 -1.1808  0.2106  0.3384
  798MOL0     O 7603   9.908   3.811   2.896 -0.6670 -0.0485  0.2042
  798MOL0     C 7604  10.036   3.869   2.905  0.0930 -0.8145  0.0696
  798MOL0     C 7605  10.055   3.891   3.052 -0.1820 -0.2993  0.0230
  798MOL0     C 7606  10.200   3.928   3.082  0.3362  0.3926 -0.4902
  798MOL0     C 7607  10.215   3.938   3.235 -0.5189  0.3880 -0.4131
  798MOL0     C 7608  10.357   3.979   3.271  0.1652  0.4068 -0.9032
  798MOL0     C 7609  10.472   3.875   3.242  0.9826 -0.0739 -0.0895
  798MOL0     C 7610  10.595   3.938   3.296 -0.4835  0.2183 -0.5876
  798MOL0     C 7611  10.717   3.844   3.254 -0.1941  0.4238 -0.5804
  798MOL0     N 7612  10.832   3.936   3.251 -0.6873  0.7742  0.3611
  798MOL0     C 7613  10.946   3.921   3.167 -0.0493 -0.5357 -0.0968
  798MOL0     C 7614  11.008   4.046   3.166  0.5857 -0.4854  1.1296
  798MOL0     C 7615  11.125   4.097   3.074 -0.7593  0.0706 -0.4760
  798MOL0     C 7616  11.254   4.077   3.153  0.6206  0.1645  0.5278
  798MOL0     C 7617  11.377   4.139   3.071  0.0584  0.0311 -0.4530
  798MOL0     C 7618  11.503   4.078   3.134 -0.7614  0.3474  0.3113
  798MOL0     O 7619  11.610   4.163   3.098  0.3111 -0.0245 -0.5253
  798MOL0     C 7620  11.733   4.136   3.142 -0.8135  0.4107 -0.2636
  798MOL0     C 7621  11.771   4.041   3.237 -0.1891  0.4750 -0.8402
  798MOL0     C 7622  11.906   4.005   3.258 -0.8710 -0.5108 -0.3323
  798MOL0     C 7623  12.007   4.087   3.202  0.1710 -0.3088  0.1199
  798MOL0     C 7624  12.156   4.058   3.208  0.1744  0.4367  0.1780
  798MOL0     O 7625  12.190   3.953   3.293 -0.6372  0.2390  0.3281
  798MOL0     C 7626  12.325   3.942   3.308  0.4806 -0.5939 -0.3382
  798MOL0     C 7627  12.400   3.844   3.239 -0.2661 -0.7420  0.2971
  798MOL0     C 7628  12.541   3.827   3.263  0.1329 -0.6485 -0.5350
  798MOL0     C 7629  12.607   3.918   3.345 -0.0432  0.9633  0.3709
  798MOL0     O 7630  12.740   3.908   3.345 -0.6856 -0.7972  0.1989
  798MOL0     C 7631  12.827   3.978   3.442  0.7002  0.2243  0.2332
  798MOL0     C 7632  12.971   3.980   3.397 -0.0179  0.3634  0.8148
  798MOL0     C 7633  13.072   3.961   3.514 -0.2324 -0.0187  0.2490
  798MOL0     C 7634  13.210   3.923   3.460 -0.0103 -0.1308 -0.0290
  798MOL0     C 7635  13.325   3.909   3.563  0.1651  0.8427  0.1096
  798MOL0     C 7636  13.459   3.899   3.501  0.5760 -0.3361 -0.7134
  798MOL0     C 7637  13.516   4.038   3.467  0.5119  0.9551 -0.6121
  798MOL0     C 7638  13.626   4.028   3.365  0.1529  1.7720  0.5830
  798MOL0    Cl 7639  13.775   3.996   3.457 -0.5450  0.0782  0.0613
  798MOL0     C 7640  12.529   4.016   3.409  0.2187  0.3997 -0.5085
  798MOL0     C 7641  12.394   4.020   3.398 -0.7303  0.7244 -0.3694
  798MOL0     O 7642  12.229   4.131   3.136 -0.5579  0.0836 -0.6672
  798MOL0     C 7643  11.970   4.193   3.117  0.1777 -0.3730 -0.0085
  798MOL0     C 7644  11.837   4.210   3.074  1.5054 -0.0345 -0.3885
  798MOL0     N 7645  10.942   4.141   3.249 -0.2262  0.9270 -0.0735
  798MOL0     N 7646  10.847   4.060   3.304  0.3229 -0.0395 -0.3429
  798MOL0     C 7647   9.778   4.013   2.827 -1.3042  0.7977  0.1881
  798MOL0     C 7648   9.644   4.069   2.816 -0.9597 -0.7820  0.5337
  798MOL0     C 7649   9.181   4.110   2.896  0.0298 -0.0956 -0.6016
  798MOL0     C 7650   9.187   4.214   2.807  0.1457 -0.6039  0.5676
  798MOL0     C 7651   9.074   4.281   2.771 -1.1659  0.6141  0.3078
  798MOL0     C 7652   8.953   4.254   2.837 -0.3692 -0.0759  0.5634
  798MOL0     O 7653   8.828   4.311   2.803  0.5544  0.0213 -0.5254
  798MOL0     C 7654   8.817   4.388   2.683 -0.0805 -0.0960 -0.1104
  798MOL0     C 7655   8.679   4.443   2.671 -0.4700 -0.5438 -0.0866
  798MOL0     C 7656   8.665   4.491   2.526 -0.5960 -0.1481  0.3913
  798MOL0     C 7657   8.520   4.498   2.477  0.4184 -0.2437 -0.3260
  798MOL0     C 7658   8.430   4.603   2.532 -1.0510 -0.2983  0.2078
  798MOL0     C 7659   8.341   4.679   2.577 -0.0752  0.9266  0.7496
  798MOL0     C 7660   8.947   4.151   2.931 -0.0272 -0.1451 -0.3659
  798MOL0     C 7661   9.056   4.077   2.953 -1.0535 -0.1884 -0.7998
  798MOL0     C 7662   9.033   3.962   3.056  0.3283  0.2124  0.2799
  798MOL0     H 7663   9.465   3.800   2.918 -0.4748 -0.8291 -2.9014
  798MOL0     H 7664   9.686   3.721   2.972  1.7035  0.9068 -0.1421
  798MOL0     H 7665  10.108   3.798   2.863  0.0116 -0.5731 -0.5014
  798MOL0     H 7666  10.049   3.959   2.843  0.8031 -1.6446 -1.0311
  798MOL0     H 7667  10.039   3.801   3.112 -1.7417  1.2269  2.0498
  798MOL0     H 7668   9.992   3.973   3.089 -1.0386 -0.4556 -1.0584
  798MOL0     H 7669  10.227   4.018   3.025  1.2297 -0.4280 -1.3929
  798MOL0     H 7670  10.266   3.845   3.057  3.4872  1.5287  3.0366
  798MOL0     H 7671  10.142   4.009   3.274 -1.4842  0.3881 -2.1164
  798MOL0     H 7672  10.208   3.846   3.294  0.6175 -0.4089 -1.4730
  798MOL0     H 7673  10.359   4.066   3.205 -0.2901  2.1590  1.2689
  798MOL0     H 7674  10.373   4.015   3.373 -0.3989 -1.9703  0.0875
  798MOL0     H 7675  10.457   3.784   3.300  2.7272 -1.5285 -1.7598
  798MOL0     H 7676  10.471   3.859   3.134 -1.9289 -0.4813 -0.0850
  798MOL0     H 7677  10.594   3.928   3.404  0.4783  0.5264 -0.5387
  798MOL0     H 7678  10.608   4.041   3.263  0.3492  0.4445  0.4061
  798MOL0     H 7679  10.737   3.765   3.327 -1.0915  0.3280 -0.4279
  798MOL0     H 7680  10.697   3.806   3.154 -2.3974 -0.5787  0.1935
  798MOL0     H 7681  10.980   3.836   3.108 -1.9569 -1.1100 -0.4423
  798MOL0     H 7682  11.122   4.039   2.981 -3.9139  1.6951 -1.5369
  798MOL0     H 7683  11.119   4.200   3.040 -0.5194  0.6387  1.1348
  798MOL0     H 7684  11.248   4.127   3.250 -1.7153 -1.7652  1.4831
  798MOL0     H 7685  11.256   3.969   3.167  2.5015 -0.1496 -1.6453
  798MOL0     H 7686  11.388   4.247   3.089 -2.5231  0.1673  0.6495
  798MOL0     H 7687  11.388   4.119   2.964 -1.0342 -1.9785 -0.2274
  798MOL0     H 7688  11.518   3.972   3.114 -2.8261 -0.0738  0.7497
  798MOL0     H 7689  11.490   4.075   3.242  2.3848 -0.9143  0.7548
  798MOL0     H 7690  11.698   3.976   3.284  1.4208 -1.0495 -0.3311
  798MOL0     H 7691  11.937   3.913   3.307 -0.3881 -1.0254 -1.5696
  798MOL0     H 7692  12.345   3.786   3.165 -0.5565  3.0998 -2.8821
  798MOL0     H 7693  12.586   3.757   3.194  0.2336  0.1100 -1.2580
  798MOL0     H 7694  12.803   4.084   3.449  1.7841  0.7424 -2.6022
  798MOL0     H 7695  12.811   3.928   3.538 -2.2478 -0.9803 -0.7493
  798MOL0     H 7696  12.986   3.898   3.326  1.0340  2.2608 -1.2616
  798MOL0     H 7697  12.985   4.068   3.334  0.7185 -0.5149 -0.2933
  798MOL0     H 7698  13.077   4.061   3.559  2.3866 -0.4550  1.0870
  798MOL0     H 7699  13.034   3.883   3.580 -1.0717  0.5953  0.5123
  798MOL0     H 7700  13.232   4.000   3.386  1.2433  1.5301  1.9586
  798MOL0     H 7701  13.202   3.825   3.412  0.4822  0.6449 -1.7262
  798MOL0     H 7702  13.302   3.822   3.625  0.5064  0.0638 -0.8391
  798MOL0     H 7703  13.329   3.997   3.629  0.2301 -0.0568  1.3369
  798MOL0     H 7704  13.530   3.847   3.566 -0.2404  0.7889  1.1580
  798MOL0     H 7705  13.452   3.844   3.407  0.6819  1.7662 -2.0346
  798MOL0     H 7706  13.556   4.084   3.558 -2.9294  0.0878  1.5297
  798MOL0     H 7707  13.430   4.086   3.420 -0.8997 -3.1279 -2.6988
  798MOL0     H 7708  13.597   3.950   3.294  0.2198  2.3602 -0.0975
  798MOL0     H 7709  13.628   4.117   3.302 -1.6639  0.5325 -1.3498
  798MOL0     H 7710  12.564   4.089   3.480 -1.8157  0.0229  0.9849
  798MOL0     H 7711  12.339   4.094   3.456  2.2064  4.0390 -1.4542
  798MOL0     H 7712  12.043   4.259   3.071 -0.4916  0.2725 -0.1573
  798MOL0     H 7713  11.814   4.286   3.000 -0.6125 -1.1439 -0.9515
  798MOL0     H 7714   9.859   4.074   2.789  0.6135 -0.8566  1.4228
  798MOL0     H 7715   9.633   4.171   2.780 -1.4286 -0.6499  1.0272
  798MOL0     H 7716   9.277   4.248   2.758 -0.7904  1.9263  0.4609
  798MOL0     H 7717   9.080   4.366   2.703  1.7352 -0.0309 -0.3893
  798MOL0     H 7718   8.845   4.319   2.603 -0.4844 -1.3100  0.7635
  798MOL0     H 7719   8.888   4.471   2.689  0.1121 -0.3342  1.1824
  798MOL0     H 7720   8.657   4.524   2.741 -1.6693 -1.0628  0.1523
  798MOL0     H 7721   8.611   4.360   2.691 -0.4380  0.0091  2.7125
  798MOL0     H 7722   8.728   4.428   2.463  0.7267 -0.0305  1.5427
  798MOL0     H 7723   8.710   4.591   2.517  0.7882 -0.9401 -3.3014
  798MOL0     H 7724   8.526   4.513   2.369 -0.0662  1.0428 -0.1977
  798MOL0     H 7725   8.477   4.398   2.489  0.7472 -0.0782  3.3462
  798MOL0     H 7726   8.258   4.737   2.614 -0.7212 -0.0641  0.9087
  798MOL0     H 7727   8.851   4.136   2.980 -0.3661  0.9937 -0.6439
  798MOL0     H 7728   9.100   3.962   3.143  0.0013  3.0219  0.6316
  798MOL0     H 7729   8.932   3.964   3.100 -0.8130 -0.3639 -2.1167
  798MOL0     H 7730   9.044   3.870   2.999 -2.2623  0.6587 -1.0968
  799MOL0     O 7731   3.954   2.334   9.489 -0.2609 -0.3105  0.1703
  799MOL0     C 7732   3.976   2.401   9.390  0.6891 -0.3678  0.6994
  799MOL0     O 7733   4.073   2.492   9.380  0.0932  0.0454 -0.0306
  799MOL0     C 7734   4.195   2.464   9.435  0.3349 -0.9417  0.1247
  799MOL0     C 7735   4.255   2.569   9.507  0.4061  0.1765  0.3153
  799MOL0     C 7736   4.381   2.549   9.558 -0.1506 -0.4657 -0.4677
  799MOL0     C 7737   4.450   2.429   9.547  0.3633 -0.5544 -0.0149
  799MOL0     O 7738   4.571   2.410   9.609  0.2165  0.0655  0.0463
  799MOL0     C 7739   4.664   2.314   9.552  0.3893 -0.3094 -0.0444
  799MOL0     C 7740   4.800   2.328   9.620 -0.2774  0.0109  0.1887
  799MOL0     C 7741   4.900   2.260   9.529  0.3327  0.3104  1.1098
  799MOL0     C 7742   5.032   2.259   9.610 -0.5020  0.2895 -0.4335
  799MOL0     C 7743   5.142   2.323   9.531 -0.3929 -0.3396 -0.7281
  799MOL0     C 7744   5.273   2.308   9.601 -1.0282 -0.8162  1.1363
  799MOL0     C 7745   5.399   2.347   9.514  0.3717  0.3999 -0.0177
  799MOL0     C 7746   5.517   2.358   9.604  0.5544  0.0038  0.1438
  799MOL0     N 7747   5.641   2.400   9.526  0.5691 -0.5082 -0.1827
  799MOL0     C 7748   5.646   2.498   9.425 -0.3605 -0.1068 -0.9455
  799MOL0     C 7749   5.778   2.490   9.390  0.4798  0.1423 -0.7177
  799MOL0     C 7750   5.837   2.591   9.291  0.6059  0.6042 -0.0700
  799MOL0     C 7751   5.874   2.527   9.148 -0.9545 -0.3838 -0.1008
  799MOL0     C 7752   6.007   2.437   9.153 -0.3152  0.2378  0.1155
  799MOL0     C 7753   6.138   2.502   9.198 -0.8060 -0.4079 -0.2548
  799MOL0     O 7754   6.193   2.577   9.082  0.4319  0.5113 -0.2436
  799MOL0     C 7755   6.325   2.615   9.086 -0.9162  0.8444  0.4498
  799MOL0     C 7756   6.372   2.680   8.969  0.9380 -0.5226 -0.1584
  799MOL0     C 7757   6.495   2.755   8.968 -0.3392 -0.6731  0.6022
  799MOL0     C 7758   6.571   2.762   9.078 -0.1417 -0.1499  0.0622
  799MOL0     C 7759   6.680   2.864   9.090  0.3921  0.5072 -0.1868
  799MOL0     O 7760   6.663   2.984   9.022  0.4232 -0.0301 -0.8451
  799MOL0     C 7761   6.770   3.072   9.028 -0.1059 -0.0897  0.0811
  799MOL0     C 7762   6.846   3.097   8.917  0.0711  0.7921  0.9332
  799MOL0     C 7763   6.953   3.198   8.913  0.8800  0.9213 -0.0085
  799MOL0     C 7764   6.996   3.251   9.034 -0.3465  0.2043 -0.3139
  799MOL0     O 7765   7.109   3.322   9.036  0.2182 -0.2779 -1.0890
  799MOL0     C 7766   7.180   3.331   9.163  0.1707 -0.6644  0.3804
  799MOL0     C 7767   7.318   3.387   9.142 -0.0740 -0.3356  0.9393
  799MOL0     C 7768   7.398   3.321   9.029  0.2783 -0.2858 -0.2902
  799MOL0     C 7769   7.517   3.395   8.992  0.4326  0.2265  0.8486
  799MOL0     C 7770   7.596   3.337   8.869  0.3071  0.1944 -0.2268
  799MOL0     C 7771   7.737   3.386   8.853 -0.0237  0.1049  0.3894
  799MOL0     C 7772   7.829   3.322   8.954  0.6247  0.1376  0.0586
  799MOL0     C 7773   7.964   3.318   8.888 -0.5102  0.2246  0.0053
  799MOL0    Cl 7774   8.021   3.490   8.871 -0.2082  0.2569  0.0032
  799MOL0     C 7775   6.923   3.225   9.150 -0.3291 -0.2038  0.4043
  799MOL0     C 7776   6.814   3.134   9.144  0.4695 -0.2639 -0.6806
  799MOL0     O 7777   6.780   2.833   9.158 -0.7913  0.2587  0.7649
  799MOL0     C 7778   6.537   2.680   9.187  0.3506  0.5682 -0.8210
  799MOL0     C 7779   6.415   2.615   9.195  0.5926 -0.3522  0.4151
  799MOL0     N 7780   5.838   2.386   9.453  0.3562  0.2998 -0.2134
  799MOL0     N 7781   5.758   2.328   9.526  0.4246 -0.3553  0.5110
  799MOL0     C 7782   4.389   2.325   9.473  0.4889 -0.1474 -0.0956
  799MOL0     C 7783   4.262   2.341   9.425 -0.1490  0.3366  0.3746
  799MOL0     C 7784   3.857   2.417   9.302  0.3694  1.0152  0.6144
  799MOL0     C 7785   3.843   2.534   9.224  0.0645  0.0073 -0.0148
  799MOL0     C 7786   3.732   2.555   9.142 -0.7588 -0.9675  0.3236
  799MOL0     C 7787   3.645   2.456   9.115  0.8481  0.4081 -0.2165
  799MOL0     O 7788   3.539   2.486   9.029 -0.6244 -0.6521  0.5013
  799MOL0     C 7789   3.425   2.400   9.010 -0.7629  0.9085 -0.3556
  799MOL0     C 7790   3.331   2.416   9.133  0.3969  0.0343 -0.1469
  799MOL0     C 7791   3.291   2.567   9.145  0.1391  0.0396  0.2331
  799MOL0     C 7792   3.187   2.614   9.040  0.7207  0.1635  0.7076
  799MOL0     C 7793   3.069   2.527   9.035 -0.4361  0.9611 -0.4376
  799MOL0     C 7794   2.987   2.442   9.011  0.0353  0.0847 -0.3297
  799MOL0     C 7795   3.650   2.342   9.194  0.2654 -0.8579  1.1604
  799MOL0     C 7796   3.758   2.320   9.283  0.7318 -0.2578 -0.2222
  799MOL0     C 7797   3.753   2.189   9.343  0.0178 -0.1488 -0.4316
  799MOL0     H 7798   4.216   2.670   9.511 -0.8794 -0.2119 -1.1925
  799MOL0     H 7799   4.427   2.628   9.616  0.8895 -2.7001  1.9367
  799MOL0     H 7800   4.635   2.210   9.570 -0.3789 -0.1248 -0.2150
  799MOL0     H 7801   4.674   2.337   9.446  0.5069  1.6489  0.3643
  799MOL0     H 7802   4.799   2.286   9.720  0.3548 -1.0909 -0.2561
  799MOL0     H 7803   4.827   2.434   9.628 -4.6243  1.2125  1.6202
  799MOL0     H 7804   4.908   2.315   9.435 -3.0956  0.9606  1.0663
  799MOL0     H 7805   4.877   2.153   9.521 -0.7037  0.5796  0.2489
  799MOL0     H 7806   5.023   2.319   9.702 -0.3841  0.0805 -0.2851
  799MOL0     H 7807   5.057   2.156   9.635 -0.8982  0.4046  0.4558
  799MOL0     H 7808   5.144   2.266   9.438 -0.4582  1.3863 -1.8221
  799MOL0     H 7809   5.121   2.428   9.515  1.2282  0.5921  2.2971
  799MOL0     H 7810   5.275   2.373   9.690  3.7726  0.5473  0.3418
  799MOL0     H 7811   5.291   2.204   9.631  2.2541 -1.9044 -3.5410
  799MOL0     H 7812   5.388   2.439   9.457 -1.6828 -0.1888 -0.6530
  799MOL0     H 7813   5.424   2.271   9.439 -1.6125 -0.1671 -0.1522
  799MOL0     H 7814   5.515   2.435   9.682 -0.1578 -0.5396  0.6703
  799MOL0     H 7815   5.528   2.266   9.663 -1.2037 -0.6873 -0.5391
  799MOL0     H 7816   5.566   2.561   9.387 -1.0224 -0.1523  0.3154
  799MOL0     H 7817   5.766   2.673   9.274  1.4806  1.0464 -1.8735
  799MOL0     H 7818   5.928   2.631   9.335  0.8948 -0.5086  0.3827
  799MOL0     H 7819   5.786   2.474   9.109 -0.4467 -0.3602 -1.3250
  799MOL0     H 7820   5.880   2.609   9.076 -0.9034 -1.4976 -1.3971
  799MOL0     H 7821   6.018   2.393   9.053 -0.4177 -0.8429  0.5683
  799MOL0     H 7822   5.996   2.358   9.227 -1.2523 -0.7516 -1.0369
  799MOL0     H 7823   6.215   2.433   9.232  0.0724 -0.9822 -3.1095
  799MOL0     H 7824   6.117   2.572   9.279  0.6177  1.7874 -1.6776
  799MOL0     H 7825   6.313   2.681   8.878 -0.5624  2.1626  0.7160
  799MOL0     H 7826   6.511   2.818   8.880 -1.0566 -0.8938  0.3044
  799MOL0     H 7827   6.809   3.062   8.821 -1.9374  5.1604 -0.1310
  799MOL0     H 7828   7.009   3.245   8.832 -0.1354  1.7078 -0.2706
  799MOL0     H 7829   7.128   3.397   9.232  1.3727  1.2905 -0.5182
  799MOL0     H 7830   7.193   3.233   9.212  1.5501  0.9549  3.5331
  799MOL0     H 7831   7.297   3.486   9.099 -0.8276 -1.6519 -1.9203
  799MOL0     H 7832   7.371   3.401   9.237  0.0113  1.1163  0.6985
  799MOL0     H 7833   7.413   3.216   9.056 -1.5721 -0.2219  1.1731
  799MOL0     H 7834   7.333   3.320   8.941 -1.6222  1.3954  1.0195
  799MOL0     H 7835   7.586   3.398   9.076  2.8541  2.2688 -1.0160
  799MOL0     H 7836   7.491   3.495   8.954  1.1536 -0.3581 -1.3171
  799MOL0     H 7837   7.545   3.352   8.773  0.7865  0.1928 -0.4814
  799MOL0     H 7838   7.596   3.228   8.874 -2.8286 -0.2033 -4.1111
  799MOL0     H 7839   7.761   3.358   8.750 -1.1676 -0.6262  0.3076
  799MOL0     H 7840   7.741   3.495   8.858 -4.8090  0.4897  1.3040
  799MOL0     H 7841   7.799   3.218   8.969  0.1874  0.6962  4.4247
  799MOL0     H 7842   7.836   3.381   9.046 -1.8548 -0.2023  0.5200
  799MOL0     H 7843   8.041   3.260   8.941 -0.4313 -0.0533 -0.4152
  799MOL0     H 7844   7.955   3.282   8.786 -0.4901  3.4313 -1.2517
  799MOL0     H 7845   6.950   3.271   9.244  0.5510 -1.0844  0.5928
  799MOL0     H 7846   6.754   3.121   9.233  0.7923  1.3471 -0.2041
  799MOL0     H 7847   6.601   2.688   9.274 -0.2266 -0.9707 -0.2156
  799MOL0     H 7848   6.383   2.562   9.284 -1.7946 -2.3868 -1.5201
  799MOL0     H 7849   4.425   2.224   9.457  0.1029 -0.3910  0.5136
  799MOL0     H 7850   4.209   2.257   9.381  0.2786  0.5301 -0.5193
  799MOL0     H 7851   3.918   2.612   9.220  0.1668  0.2251  3.3803
  799MOL0     H 7852   3.722   2.647   9.084  0.2914 -0.7237  0.5056
  799MOL0     H 7853   3.460   2.298   8.998 -0.1194  0.8774  1.5193
  799MOL0     H 7854   3.375   2.438   8.920 -0.9926  1.7375  0.1054
  799MOL0     H 7855   3.382   2.392   9.226 -1.4300 -1.6368  0.4881
  799MOL0     H 7856   3.242   2.352   9.138  1.3007 -1.2233  4.4909
  799MOL0     H 7857   3.382   2.626   9.130 -0.8058  1.1883 -1.3786
  799MOL0     H 7858   3.244   2.578   9.243  3.0699  0.1706  1.7133
  799MOL0     H 7859   3.147   2.711   9.071 -0.7334 -0.4323  0.8034
  799MOL0     H 7860   3.232   2.625   8.941 -0.8769  1.8297  0.1103
  799MOL0     H 7861   2.906   2.373   8.997  0.2424 -1.0073  3.0262
  799MOL0     H 7862   3.567   2.274   9.179  0.4989 -0.8264 -0.4456
  799MOL0     H 7863   3.850   2.139   9.334  0.4852  0.7382 -0.3846
  799MOL0     H 7864   3.720   2.195   9.447  0.6696  1.0951 -0.2862
  799MOL0     H 7865   3.678   2.124   9.297  0.2880 -0.9858  0.2842
  800MOL0     O 7866   8.374   3.651   8.185  0.8101  0.4186 -0.0732
  800MOL0     C 7867   8.335   3.734   8.106  0.8704  0.4370 -0.1471
  800MOL0     O 7868   8.414   3.810   8.030 -0.6062  0.3290  0.1133
  800MOL0     C 7869   8.551   3.799   8.050  0.1189  0.6421 -0.2288
  800MOL0     C 7870   8.623   3.688   8.013 -0.2860 -0.1537  0.6016
  800MOL0     C 7871   8.760   3.674   8.044 -0.2037 -0.6335 -0.1419
  800MOL0     C 7872   8.829   3.773   8.102  0.3066 -0.7243 -0.6756
  800MOL0     O 7873   8.974   3.752   8.114 -0.5163  0.2166  0.2483
  800MOL0     C 7874   9.033   3.836   8.212 -0.5136 -0.1816 -0.4721
  800MOL0     C 7875   9.180   3.796   8.209  0.1685  0.2700 -0.3913
  800MOL0     C 7876   9.261   3.841   8.088 -0.7186 -0.1329 -0.1631
  800MOL0     C 7877   9.237   3.985   8.041  0.6821  1.0334  0.1208
  800MOL0     C 7878   9.334   4.039   7.935  0.2571  0.1930 -0.3630
  800MOL0     C 7879   9.339   3.957   7.801 -0.1416 -0.6453  0.0275
  800MOL0     C 7880   9.434   4.021   7.709  0.0675  0.3707  0.0550
  800MOL0     C 7881   9.420   3.984   7.561 -0.1716  0.0806 -0.0222
  800MOL0     N 7882   9.533   3.997   7.477  0.1837  0.0322 -0.0149
  800MOL0     C 7883   9.612   4.105   7.464 -0.2817 -0.3823 -0.5419
  800MOL0     C 7884   9.674   4.090   7.347 -0.0488 -0.2700 -0.5110
  800MOL0     C 7885   9.786   4.169   7.295 -0.5272  0.0300  0.5203
  800MOL0     C 7886   9.895   4.078   7.231  0.0435 -0.2395  0.8491
  800MOL0     C 7887   9.983   4.175   7.156  0.8954  0.8613 -0.4169
  800MOL0     C 7888  10.108   4.098   7.119  0.1504 -0.2077  0.3413
  800MOL0     O 7889  10.169   4.173   7.008 -0.3065  0.4266 -0.4012
  800MOL0     C 7890  10.294   4.234   7.027  0.3899  0.1865 -0.3701
  800MOL0     C 7891  10.386   4.185   7.121  0.2174  0.7432  0.5842
  800MOL0     C 7892  10.514   4.235   7.124  0.3303 -0.2306 -0.1350
  800MOL0     C 7893  10.538   4.357   7.052 -0.8090 -0.7172 -0.2486
  800MOL0     C 7894  10.674   4.424   7.072 -0.7705  0.9308  0.2999
  800MOL0     O 7895  10.757   4.368   7.170  0.6169 -0.5394 -0.3608
  800MOL0     C 7896  10.885   4.414   7.187 -0.1664  0.0507  1.2003
  800MOL0     C 7897  10.946   4.524   7.132 -0.3827 -0.8202 -0.3607
  800MOL0     C 7898  11.082   4.540   7.134  0.0761 -0.2023  0.6706
  800MOL0     C 7899  11.164   4.453   7.206  0.1570 -0.6499 -0.3400
  800MOL0     O 7900  11.297   4.475   7.198 -0.2242 -0.1115  0.5542
  800MOL0     C 7901  11.385   4.384   7.270  0.9222  0.1021 -0.3201
  800MOL0     C 7902  11.527   4.429   7.294 -0.3063  0.2918  0.8315
  800MOL0     C 7903  11.603   4.480   7.183 -0.4721 -0.6597 -0.0319
  800MOL0     C 7904  11.751   4.518   7.209 -0.7444 -0.2063  0.3502
  800MOL0     C 7905  11.829   4.389   7.239 -0.8208  0.1052 -0.0041
  800MOL0     C 7906  11.974   4.415   7.243  0.5135  0.4098 -0.2404
  800MOL0     C 7907  12.060   4.305   7.304  0.1812  0.4305 -0.8230
  800MOL0     C 7908  12.206   4.359   7.298 -0.2648  0.0683  0.3814
  800MOL0    Cl 7909  12.268   4.396   7.136  0.1620 -0.2008  0.3820
  800MOL0     C 7910  11.102   4.346   7.263  0.0322  0.0594 -0.1136
  800MOL0     C 7911  10.962   4.326   7.252 -1.0540  0.2819 -0.6877
  800MOL0     O 7912  10.696   4.529   7.016 -0.1108 -0.7175  0.0241
  800MOL0     C 7913  10.447   4.401   6.958 -0.0808 -0.5633  0.5849
  800MOL0     C 7914  10.323   4.344   6.946 -0.8162 -0.0546  0.3547
  800MOL0     N 7915   9.642   3.960   7.305  0.2784 -0.2288  0.0655
  800MOL0     N 7916   9.551   3.910   7.379  0.3838  0.5124 -0.0541
  800MOL0     C 7917   8.757   3.893   8.129  0.1582 -0.8587  0.6037
  800MOL0     C 7918   8.621   3.906   8.106  0.2648  0.9977  0.1806
  800MOL0     C 7919   8.185   3.741   8.086  0.5856 -0.0631  0.0697
  800MOL0     C 7920   8.140   3.845   7.991 -0.8208 -0.2555  0.0618
  800MOL0     C 7921   8.004   3.866   7.973 -0.7701 -0.2571  0.2375
  800MOL0     C 7922   7.910   3.788   8.029  0.1539  0.1238 -1.1243
  800MOL0     O 7923   7.774   3.801   8.029 -0.6309  0.1355 -0.1008
  800MOL0     C 7924   7.717   3.929   8.053  0.2741  0.3566  0.8512
  800MOL0     C 7925   7.663   4.000   7.930  0.0755  0.2776 -0.3866
  800MOL0     C 7926   7.576   4.113   7.964  0.0301  0.1597  0.0279
  800MOL0     C 7927   7.567   4.231   7.873  0.4193  1.0124 -0.5907
  800MOL0     C 7928   7.697   4.299   7.879 -1.0231 -0.7252 -0.4783
  800MOL0     C 7929   7.803   4.364   7.886  1.1258  0.1481 -0.3755
  800MOL0     C 7930   7.956   3.675   8.098 -0.7610 -0.3505  0.4429
  800MOL0     C 7931   8.083   3.646   8.125  0.5274 -0.0641  0.1945
  800MOL0     C 7932   8.104   3.534   8.215 -0.1014 -0.1453 -0.0980
  800MOL0     H 7933   8.560   3.612   7.968  0.2593 -0.1969 -0.1092
  800MOL0     H 7934   8.817   3.587   8.012 -1.9930 -1.8830 -0.1251
  800MOL0     H 7935   9.024   3.944   8.201 -2.6347 -0.4300 -1.9181
  800MOL0     H 7936   8.986   3.812   8.307 -3.3463 -0.4948 -1.8481
  800MOL0     H 7937   9.192   3.687   8.215 -3.0563 -0.3169 -2.3253
  800MOL0     H 7938   9.240   3.837   8.291  0.0619 -0.1875 -0.0795
  800MOL0     H 7939   9.245   3.769   8.007  0.1830  0.6183 -1.0391
  800MOL0     H 7940   9.365   3.832   8.119 -0.8600  0.8135  0.6555
  800MOL0     H 7941   9.138   3.983   7.994  0.7577  1.5868 -0.0652
  800MOL0     H 7942   9.242   4.051   8.127 -1.8693 -0.6062  1.6890
  800MOL0     H 7943   9.296   4.138   7.910 -0.5955  0.3802  1.4697
  800MOL0     H 7944   9.430   4.045   7.987  1.4153 -1.0361 -2.2227
  800MOL0     H 7945   9.374   3.857   7.831  0.8338  0.8384  4.7392
  800MOL0     H 7946   9.238   3.950   7.760 -0.6420 -0.1910  1.1209
  800MOL0     H 7947   9.539   4.009   7.740 -0.2334  1.3338  1.5324
  800MOL0     H 7948   9.429   4.130   7.717  1.8149  0.8317 -3.1106
  800MOL0     H 7949   9.385   3.881   7.570 -1.0189  0.4214  0.7167
  800MOL0     H 7950   9.343   4.046   7.515  1.2592  2.1115  0.2037
  800MOL0     H 7951   9.622   4.188   7.533  1.8683 -1.4836  0.5838
  800MOL0     H 7952   9.749   4.247   7.227  0.2911 -1.4423 -1.7241
  800MOL0     H 7953   9.835   4.227   7.374  2.9597 -0.2857 -1.1995
  800MOL0     H 7954   9.940   4.013   7.307 -0.3480 -3.5938 -1.5328
  800MOL0     H 7955   9.852   4.008   7.159 -1.0026 -0.2061  1.4175
  800MOL0     H 7956  10.000   4.265   7.218 -0.7673  1.6037 -0.9870
  800MOL0     H 7957   9.922   4.207   7.071 -2.8763 -2.2422  0.8502
  800MOL0     H 7958  10.084   3.994   7.093 -2.2268  0.8891 -2.3089
  800MOL0     H 7959  10.166   4.085   7.211 -1.0079  0.9648  1.2597
  800MOL0     H 7960  10.371   4.094   7.177  1.9469  0.1634  0.1770
  800MOL0     H 7961  10.587   4.195   7.194  0.1360  0.7047  0.6297
  800MOL0     H 7962  10.881   4.601   7.093 -1.8256 -3.3614 -3.4371
  800MOL0     H 7963  11.126   4.623   7.080 -2.5349 -0.8155 -2.7933
  800MOL0     H 7964  11.348   4.361   7.370  0.4619 -0.5306 -0.6351
  800MOL0     H 7965  11.390   4.296   7.206 -0.7989  2.5163 -4.1384
  800MOL0     H 7966  11.525   4.499   7.378  0.9951  0.2500  0.9259
  800MOL0     H 7967  11.583   4.341   7.328 -0.6633 -0.2086  0.1422
  800MOL0     H 7968  11.595   4.414   7.096 -0.6472 -0.0344 -0.5029
  800MOL0     H 7969  11.552   4.569   7.144 -0.1286 -0.6760 -0.5290
  800MOL0     H 7970  11.753   4.578   7.300  2.4274 -0.5954  0.6552
  800MOL0     H 7971  11.788   4.579   7.127  1.5311 -0.6522  0.9851
  800MOL0     H 7972  11.803   4.313   7.165 -2.2891  0.9828 -0.4491
  800MOL0     H 7973  11.802   4.362   7.341  0.2732  1.0461  0.5617
  800MOL0     H 7974  12.009   4.443   7.143  0.9554 -2.7894 -1.0900
  800MOL0     H 7975  11.978   4.507   7.303 -0.3949  2.1419 -2.6287
  800MOL0     H 7976  12.061   4.214   7.242  2.1471  0.6642 -1.1969
  800MOL0     H 7977  12.041   4.288   7.410  2.2045  4.9241  0.5221
  800MOL0     H 7978  12.212   4.452   7.356  1.5858  0.7251 -0.7522
  800MOL0     H 7979  12.261   4.283   7.354 -0.1343 -1.7332 -2.0266
  800MOL0     H 7980  11.148   4.269   7.325  0.3612  1.0510  0.9075
  800MOL0     H 7981  10.916   4.235   7.290 -3.5506  1.3924 -0.9021
  800MOL0     H 7982  10.471   4.491   6.903 -1.2811 -0.4720  0.1815
  800MOL0     H 7983  10.253   4.381   6.872  0.8334  1.7102 -0.4114
  800MOL0     H 7984   8.807   3.984   8.160 -0.1447 -1.3810  2.8266
  800MOL0     H 7985   8.573   4.002   8.126  0.6828  1.2780 -0.1240
  800MOL0     H 7986   8.216   3.903   7.941  0.9191 -2.1477  0.3959
  800MOL0     H 7987   7.973   3.949   7.910 -0.4914  0.6887  1.3220
  800MOL0     H 7988   7.791   3.996   8.098 -1.1441  3.2259 -0.7598
  800MOL0     H 7989   7.640   3.911   8.128  2.3975 -0.2547  2.9871
  800MOL0     H 7990   7.601   3.931   7.872 -1.8966 -0.0904  1.9968
  800MOL0     H 7991   7.748   4.040   7.874  0.4182  2.8263  1.7926
  800MOL0     H 7992   7.589   4.151   8.066  0.2478  1.1324 -0.3434
  800MOL0     H 7993   7.476   4.069   7.976 -0.2923  0.9127  0.1900
  800MOL0     H 7994   7.552   4.194   7.771 -0.2505  2.6202 -1.0952
  800MOL0     H 7995   7.487   4.294   7.911 -1.3007 -0.5173 -1.5429
  800MOL0     H 7996   7.884   4.433   7.875  0.7341  0.3692 -2.0907
  800MOL0     H 7997   7.880   3.606   8.132 -0.6351 -1.1646 -0.8400
  800MOL0     H 7998   8.188   3.474   8.178  1.6147  1.6856  0.7158
  800MOL0     H 7999   8.136   3.571   8.312 -0.6051 -1.2515  0.5155
  800MOL0     H 8000   8.020   3.466   8.233 -2.6905  3.3736  2.5163
  801MOL0     O 8001   9.164   8.974   1.298  0.3878 -0.5168  0.1271
  801MOL0     C 8002   9.287   8.971   1.316  0.5746  0.6814 -0.1196
  801MOL0     O 8003   9.371   9.083   1.327 -0.5227  0.3787  0.0813
  801MOL0     C 8004   9.309   9.216   1.329  0.6309  0.9389  0.0325
  801MOL0     C 8005   9.234   9.260   1.224  0.7101 -0.7036  0.1388
  801MOL0     C 8006   9.178   9.387   1.225 -0.3413  0.5511  0.0222
  801MOL0     C 8007   9.180   9.468   1.337  0.1357  0.3520 -0.0507
  801MOL0     O 8008   9.086   9.569   1.357  0.1349  0.0908  0.5293
  801MOL0     C 8009   8.963   9.539   1.420  0.2590  1.2051 -0.2447
  801MOL0     C 8010   8.862   9.650   1.403  0.3434  0.4821  0.1328
  801MOL0     C 8011   8.904   9.771   1.494 -0.3340  0.3114  0.4707
  801MOL0     C 8012   8.799   9.879   1.541 -0.4518  0.1629  0.5093
  801MOL0     C 8013   8.858   9.962   1.653  0.0344 -0.3257  0.1454
  801MOL0     C 8014   8.789  10.098   1.679 -0.0312  0.2636 -0.0335
  801MOL0     C 8015   8.635  10.078   1.709 -0.3695  0.6559  0.2114
  801MOL0     C 8016   8.591   9.986   1.823  0.8020  0.6664 -0.2796
  801MOL0     N 8017   8.642  10.032   1.948  0.1557 -0.5063 -0.3604
  801MOL0     C 8018   8.599  10.146   2.006 -0.6718 -0.4336 -0.1248
  801MOL0     C 8019   8.679  10.156   2.117  0.7927 -0.2871 -0.0766
  801MOL0     C 8020   8.678  10.272   2.195 -0.6193 -0.0549  0.3919
  801MOL0     C 8021   8.818  10.338   2.203 -0.2232 -0.1572 -0.8159
  801MOL0     C 8022   8.820  10.448   2.310 -0.6128  0.3546  0.0798
  801MOL0     C 8023   8.951  10.522   2.327 -0.0343 -0.7361  0.2895
  801MOL0     O 8024   9.001  10.586   2.205 -0.1498  0.5588 -0.1777
  801MOL0     C 8025   9.124  10.655   2.214 -0.4144 -0.0167  0.2273
  801MOL0     C 8026   9.214  10.656   2.324  0.3808 -0.1933 -0.7802
  801MOL0     C 8027   9.339  10.708   2.311 -0.3992  0.3667 -0.7552
  801MOL0     C 8028   9.383  10.756   2.192  0.2112  0.2509 -0.2251
  801MOL0     C 8029   9.515  10.813   2.184 -0.3942  0.0609 -1.1953
  801MOL0     O 8030   9.538  10.936   2.135  1.2755 -0.0659  0.2199
  801MOL0     C 8031   9.624  11.027   2.181  0.2649 -0.8110  0.1284
  801MOL0     C 8032   9.646  11.043   2.316 -0.3001 -0.1819  0.2754
  801MOL0     C 8033   9.727  11.152   2.360 -0.6616 -0.0186 -0.1162
  801MOL0     C 8034   9.800  11.226   2.264 -0.3805 -1.4499  1.3116
  801MOL0     O 8035   9.889  11.331   2.294  0.6033  0.0642 -0.4469
  801MOL0     C 8036   9.953  11.331   2.420 -0.0542  0.2645  0.2046
  801MOL0     C 8037  10.092  11.380   2.386  1.2956  0.6990  0.0859
  801MOL0     C 8038  10.186  11.278   2.306  0.4020  0.4023  0.2004
  801MOL0     C 8039  10.236  11.344   2.175  0.5289  0.0112  0.4784
  801MOL0     C 8040  10.358  11.270   2.110  0.4065 -0.1306  1.0130
  801MOL0     C 8041  10.382  11.335   1.973  0.6116  0.1426  0.1364
  801MOL0     C 8042  10.509  11.267   1.910  0.0404  0.8097 -0.2613
  801MOL0     C 8043  10.619  11.365   1.848 -0.0644 -0.8568  0.0980
  801MOL0    Cl 8044  10.700  11.457   1.975 -0.1222 -0.2908  0.2572
  801MOL0     C 8045   9.785  11.205   2.125 -0.1336  0.2196 -0.2421
  801MOL0     C 8046   9.698  11.103   2.085  0.1983  0.3671  0.4948
  801MOL0     O 8047   9.610  10.744   2.244  0.2835  0.1491  0.1871
  801MOL0     C 8048   9.287  10.772   2.090  0.2669  0.1014  0.5013
  801MOL0     C 8049   9.161  10.719   2.099  0.4856 -0.7962  0.5181
  801MOL0     N 8050   8.769  10.055   2.119  0.6006 -0.2374 -0.3629
  801MOL0     N 8051   8.742   9.979   2.019 -0.6656 -0.6074 -0.1633
  801MOL0     C 8052   9.257   9.418   1.447  0.2864  0.6951  0.1094
  801MOL0     C 8053   9.323   9.294   1.444  0.5006  0.0685  0.1715
  801MOL0     C 8054   9.355   8.842   1.299 -0.8497 -0.1234  0.3615
  801MOL0     C 8055   9.297   8.752   1.215  0.7200  0.2026 -0.1910
  801MOL0     C 8056   9.349   8.628   1.184 -0.4064  0.7499 -0.4968
  801MOL0     C 8057   9.457   8.578   1.255 -0.1224  0.0322  1.2849
  801MOL0     O 8058   9.487   8.447   1.227  0.0572  0.2294  0.5931
  801MOL0     C 8059   9.615   8.394   1.274  0.7685 -0.5708 -1.0410
  801MOL0     C 8060   9.650   8.268   1.193 -0.3789  0.5014  0.4642
  801MOL0     C 8061   9.534   8.168   1.185  0.1769 -0.2157 -0.1737
  801MOL0     C 8062   9.581   8.030   1.148 -0.1084  0.4173 -0.2332
  801MOL0     C 8063   9.461   7.938   1.155  0.0420  0.2350  0.0355
  801MOL0     C 8064   9.358   7.870   1.162 -0.3884 -0.4232  0.7128
  801MOL0     C 8065   9.518   8.668   1.351 -0.0754 -0.4388 -0.3658
  801MOL0     C 8066   9.469   8.796   1.379  0.5118  0.0166  0.1834
  801MOL0     C 8067   9.544   8.880   1.481  0.0438 -0.0340 -0.6317
  801MOL0     H 8068   9.215   9.195   1.139 -0.7177  1.0068 -0.9299
  801MOL0     H 8069   9.114   9.424   1.145  0.0281  1.9037  0.3238
  801MOL0     H 8070   8.922   9.461   1.356  2.1844  0.6451 -0.8721
  801MOL0     H 8071   8.974   9.526   1.528 -1.3114  0.2341 -0.1681
  801MOL0     H 8072   8.759   9.628   1.430  0.1533  1.5830  0.3669
  801MOL0     H 8073   8.860   9.686   1.300 -0.9089  0.5699  0.1775
  801MOL0     H 8074   8.985   9.819   1.439 -0.2113  1.1357  1.3380
  801MOL0     H 8075   8.954   9.736   1.585  0.4419  1.0158  0.3314
  801MOL0     H 8076   8.777   9.950   1.461 -0.7865  1.7375  1.9631
  801MOL0     H 8077   8.707   9.831   1.575  0.5577 -0.1948  2.9278
  801MOL0     H 8078   8.848   9.913   1.750  0.6510  2.1014  1.5093
  801MOL0     H 8079   8.958   9.991   1.617 -0.1843 -0.7996 -0.8912
  801MOL0     H 8080   8.840  10.143   1.765  1.5092  1.4529 -1.5049
  801MOL0     H 8081   8.805  10.166   1.595  0.2587 -1.2912 -1.2820
  801MOL0     H 8082   8.590  10.050   1.613  1.0412 -0.1273 -0.2386
  801MOL0     H 8083   8.595  10.177   1.730 -1.4242  0.0721  1.0890
  801MOL0     H 8084   8.482   9.987   1.810  0.8419  1.4305 -0.6394
  801MOL0     H 8085   8.637   9.890   1.798 -0.5004  0.5139 -2.3479
  801MOL0     H 8086   8.519  10.210   1.971 -0.0198  0.3133 -0.2843
  801MOL0     H 8087   8.622  10.349   2.140 -0.1133  0.7337  0.9520
  801MOL0     H 8088   8.631  10.259   2.293 -0.7791  0.2091  0.3530
  801MOL0     H 8089   8.890  10.266   2.243 -1.3774  0.1329  2.0389
  801MOL0     H 8090   8.844  10.370   2.102  0.3907  0.6081 -0.4260
  801MOL0     H 8091   8.791  10.403   2.406  0.4024  0.2266  0.3393
  801MOL0     H 8092   8.740  10.517   2.283 -0.4724 -0.7782 -3.7795
  801MOL0     H 8093   9.025  10.464   2.383  0.0252  0.7255  1.8219
  801MOL0     H 8094   8.924  10.606   2.391  0.5324 -1.6421  1.7532
  801MOL0     H 8095   9.193  10.612   2.421  0.7682  0.7031 -0.2746
  801MOL0     H 8096   9.409  10.708   2.394 -0.5588 -0.3659 -0.6158
  801MOL0     H 8097   9.601  10.978   2.391 -0.4568 -0.5790 -0.1577
  801MOL0     H 8098   9.742  11.171   2.465  2.1412 -0.5031 -0.3503
  801MOL0     H 8099   9.899  11.408   2.477  1.2926  1.0528  0.4665
  801MOL0     H 8100   9.957  11.234   2.469  2.5971 -1.0354 -2.2983
  801MOL0     H 8101  10.099  11.478   2.337  2.1716 -0.0967 -1.4741
  801MOL0     H 8102  10.150  11.388   2.478 -2.3425  0.6654  2.5877
  801MOL0     H 8103  10.266  11.248   2.374 -0.5813  2.6616  2.5056
  801MOL0     H 8104  10.132  11.190   2.271  1.6964 -0.3192 -0.0809
  801MOL0     H 8105  10.263  11.450   2.186 -0.9276  1.1133 -4.2699
  801MOL0     H 8106  10.140  11.352   2.122 -0.0027  1.4491  1.5854
  801MOL0     H 8107  10.339  11.163   2.099  0.8130 -0.1759  0.7398
  801MOL0     H 8108  10.447  11.286   2.171  0.3056 -0.0826  1.1497
  801MOL0     H 8109  10.295  11.316   1.910  1.7985 -0.5319 -1.3723
  801MOL0     H 8110  10.404  11.441   1.991 -1.2600  0.2254  2.4041
  801MOL0     H 8111  10.473  11.199   1.832 -0.4114 -0.5911  1.1329
  801MOL0     H 8112  10.562  11.210   1.987  0.5538  2.3125  0.5333
  801MOL0     H 8113  10.697  11.309   1.796  2.8326  3.0473 -0.1758
  801MOL0     H 8114  10.564  11.419   1.770 -1.6472 -0.4293  1.4450
  801MOL0     H 8115   9.847  11.261   2.056  0.6096 -2.4205 -1.8766
  801MOL0     H 8116   9.678  11.100   1.978  0.3316 -2.6305  0.4733
  801MOL0     H 8117   9.321  10.829   2.005  0.1030  1.4747  1.3331
  801MOL0     H 8118   9.096  10.735   2.015 -0.5185  4.1680  1.8965
  801MOL0     H 8119   9.242   9.470   1.542 -1.4846 -0.1786  0.3437
  801MOL0     H 8120   9.363   9.253   1.536  0.2432  0.1538  0.3206
  801MOL0     H 8121   9.211   8.776   1.154  2.0743  0.4409 -2.0928
  801MOL0     H 8122   9.300   8.573   1.104  0.4874  0.9117 -1.1681
  801MOL0     H 8123   9.613   8.365   1.380 -3.5061  0.8932 -0.5172
  801MOL0     H 8124   9.691   8.472   1.270  1.3982 -1.1940 -1.3424
  801MOL0     H 8125   9.733   8.218   1.243  0.2496  1.4634  0.4086
  801MOL0     H 8126   9.682   8.292   1.091 -0.3895 -0.5809  0.1976
  801MOL0     H 8127   9.455   8.205   1.119  0.8558 -0.5971 -1.2227
  801MOL0     H 8128   9.479   8.184   1.278 -0.0242 -1.8216  0.0072
  801MOL0     H 8129   9.625   8.020   1.049 -0.9143 -1.0061 -0.4794
  801MOL0     H 8130   9.666   8.002   1.210  0.0506 -1.5820 -1.2664
  801MOL0     H 8131   9.274   7.805   1.153 -0.7162  0.0192  0.5924
  801MOL0     H 8132   9.604   8.631   1.405  0.0729 -0.9758 -0.9549
  801MOL0     H 8133   9.564   8.821   1.571  3.1661  1.6720 -0.0697
  801MOL0     H 8134   9.638   8.916   1.438 -0.1119  0.6491 -0.4147
  801MOL0     H 8135   9.489   8.968   1.513  1.0330  0.5443 -0.4903
  802MOL0     O 8136   5.466   7.996  10.542 -0.1578  0.5272 -0.4662
  802MOL0     C 8137   5.456   7.951  10.655 -0.6162  0.5995 -0.7655
  802MOL0     O 8138   5.540   7.857  10.695 -0.0287  0.5380 -0.4593
  802MOL0     C 8139   5.623   7.790  10.600  0.6056  0.1673  0.0857
  802MOL0     C 8140   5.735   7.852  10.547 -0.3903 -1.3982 -1.1765
  802MOL0     C 8141   5.812   7.780  10.454 -0.3552  0.7870  0.0997
  802MOL0     C 8142   5.789   7.648  10.421 -0.4998  0.6658 -0.4871
  802MOL0     O 8143   5.879   7.597  10.332 -0.4953  0.2618 -0.6037
  802MOL0     C 8144   5.845   7.466  10.280  0.5350  0.0219  0.1713
  802MOL0     C 8145   5.943   7.413  10.172 -0.6686 -0.7673  0.7510
  802MOL0     C 8146   6.080   7.432  10.234  0.0739 -0.2896  0.2332
  802MOL0     C 8147   6.182   7.386  10.127  0.2584  0.9615  0.2854
  802MOL0     C 8148   6.334   7.415  10.171 -0.0535  0.5251 -0.0743
  802MOL0     C 8149   6.441   7.373  10.075  0.7613 -0.2052 -0.2074
  802MOL0     C 8150   6.586   7.410  10.123  0.5122  0.6114 -0.7578
  802MOL0     C 8151   6.614   7.551  10.102  0.0358 -0.1487 -1.0364
  802MOL0     N 8152   6.754   7.574  10.150  0.2319 -0.3832 -0.0077
  802MOL0     C 8153   6.858   7.548  10.062  0.2089 -0.5495 -0.0123
  802MOL0     C 8154   6.982   7.562  10.125 -0.0140 -0.1008 -0.6933
  802MOL0     C 8155   7.112   7.560  10.069 -0.2119 -0.0547  0.8467
  802MOL0     C 8156   7.194   7.688  10.093  0.6248  0.4904  0.0558
  802MOL0     C 8157   7.147   7.808  10.021 -0.0622 -0.1156  0.7554
  802MOL0     C 8158   7.184   7.791   9.866 -0.1831 -0.6410  0.2725
  802MOL0     O 8159   7.183   7.914   9.788 -0.0873 -1.1523  0.1257
  802MOL0     C 8160   7.274   8.017   9.801  0.6051 -0.4107 -0.1552
  802MOL0     C 8161   7.373   8.016   9.904  0.5541  0.1751  0.1912
  802MOL0     C 8162   7.483   8.100   9.891  0.3086 -0.8106  0.9589
  802MOL0     C 8163   7.493   8.199   9.788  0.0541 -0.4509 -0.5204
  802MOL0     C 8164   7.621   8.281   9.766 -0.4715  0.2365 -1.3071
  802MOL0     O 8165   7.716   8.265   9.878 -0.1347  0.2991 -0.2308
  802MOL0     C 8166   7.828   8.336   9.865 -0.2089 -0.0385 -0.2896
  802MOL0     C 8167   7.920   8.321   9.754  0.4696 -0.4569 -0.7218
  802MOL0     C 8168   8.042   8.375   9.754 -0.2196 -0.2338 -0.0899
  802MOL0     C 8169   8.080   8.472   9.852  0.2299  0.3562 -0.1892
  802MOL0     O 8170   8.208   8.532   9.839 -0.4631  0.6264 -0.3911
  802MOL0     C 8171   8.247   8.619   9.943 -0.4630  0.1282 -1.4330
  802MOL0     C 8172   8.394   8.676   9.934 -0.1940  0.3609 -0.2643
  802MOL0     C 8173   8.475   8.559   9.995  0.1050 -0.4149 -0.5188
  802MOL0     C 8174   8.631   8.568   9.993  0.2248 -0.3210 -0.8011
  802MOL0     C 8175   8.689   8.438  10.041 -0.0657 -0.8857  0.1735
  802MOL0     C 8176   8.843   8.450  10.031  0.4581  0.0802 -0.0686
  802MOL0     C 8177   8.900   8.476  10.168  0.2573 -0.6089 -0.2277
  802MOL0     C 8178   9.037   8.542  10.171  0.3946 -0.1569 -0.7552
  802MOL0    Cl 8179   9.022   8.710  10.103  0.3780 -0.4095  0.1646
  802MOL0     C 8180   7.992   8.484   9.961 -0.4183 -0.0880 -0.3128
  802MOL0     C 8181   7.870   8.419   9.970  0.3010  0.7918 -0.1581
  802MOL0     O 8182   7.635   8.350   9.670  0.0161  0.3727  0.2928
  802MOL0     C 8183   7.380   8.218   9.708  0.5154 -0.4134 -0.1174
  802MOL0     C 8184   7.269   8.126   9.702 -0.5732  0.3879  0.1266
  802MOL0     N 8185   6.940   7.599  10.255 -0.1163 -0.2100  0.3699
  802MOL0     N 8186   6.816   7.600  10.270 -0.7780  0.1703 -0.1410
  802MOL0     C 8187   5.675   7.577  10.472 -0.6726  0.3085  0.7724
  802MOL0     C 8188   5.602   7.652  10.563  0.1436 -0.2450 -0.0383
  802MOL0     C 8189   5.332   7.968  10.746  0.0627  0.8305 -0.0676
  802MOL0     C 8190   5.328   7.895  10.866  0.4455 -0.1130 -0.6959
  802MOL0     C 8191   5.203   7.892  10.935 -0.4754 -0.0452  1.0395
  802MOL0     C 8192   5.098   7.979  10.896  0.9049 -0.3552  0.0242
  802MOL0     O 8193   4.978   8.001  10.961 -0.0421 -1.1743  0.0189
  802MOL0     C 8194   4.951   7.945  11.087  0.3911 -0.1085  0.5294
  802MOL0     C 8195   4.878   7.815  11.074  0.8681 -0.2782  1.0251
  802MOL0     C 8196   4.738   7.843  11.012  0.0624  1.0867  0.2604
  802MOL0     C 8197   4.621   7.862  11.111  0.1184 -0.2554 -0.0480
  802MOL0     C 8198   4.649   7.966  11.219  0.5128  0.1568  0.5496
  802MOL0     C 8199   4.652   8.045  11.311 -1.2448  0.2783  0.2362
  802MOL0     C 8200   5.111   8.055  10.792  0.1005  0.5672  0.4002
  802MOL0     C 8201   5.226   8.055  10.709 -0.1425 -0.0474 -0.3198
  802MOL0     C 8202   5.233   8.147  10.589  0.1829 -1.0656 -0.1284
  802MOL0     H 8203   5.762   7.950  10.584  1.5340 -1.6998 -1.6463
  802MOL0     H 8204   5.904   7.820  10.415  0.2285 -0.4202  0.1776
  802MOL0     H 8205   5.833   7.389  10.357  0.2987  0.0038  0.1154
  802MOL0     H 8206   5.748   7.466  10.231  0.9919 -3.8780 -1.1074
  802MOL0     H 8207   5.942   7.469  10.078  1.7017 -0.6945  0.7238
  802MOL0     H 8208   5.925   7.307  10.150  0.7188 -0.5621 -1.6726
  802MOL0     H 8209   6.068   7.363  10.318 -2.1992 -0.6215 -0.2918
  802MOL0     H 8210   6.109   7.532  10.267 -3.1011  0.0799  2.4334
  802MOL0     H 8211   6.164   7.282  10.099  1.7916  0.5589  0.6881
  802MOL0     H 8212   6.157   7.436  10.033  0.5717  3.0090  1.2309
  802MOL0     H 8213   6.341   7.522  10.188 -0.1222  0.8321 -1.7990
  802MOL0     H 8214   6.351   7.372  10.270 -2.2641 -0.3174  0.0036
  802MOL0     H 8215   6.424   7.265  10.072 -1.3636 -0.0002  1.7408
  802MOL0     H 8216   6.416   7.408   9.975 -1.0880 -0.7674  0.0349
  802MOL0     H 8217   6.644   7.348  10.054 -2.0053 -1.2960 -1.3103
  802MOL0     H 8218   6.609   7.375  10.224 -0.8206 -0.2691 -0.7422
  802MOL0     H 8219   6.604   7.583   9.997 -1.8531  1.4524 -0.4197
  802MOL0     H 8220   6.542   7.611  10.159  1.7539  0.6119  0.4183
  802MOL0     H 8221   6.855   7.536   9.954  1.8754  3.1979 -0.6152
  802MOL0     H 8222   7.168   7.479  10.117  1.6518  0.8721  0.3395
  802MOL0     H 8223   7.098   7.532   9.964 -4.1341 -0.2679  1.3020
  802MOL0     H 8224   7.184   7.716  10.198 -2.2874 -1.6540  0.4847
  802MOL0     H 8225   7.299   7.671  10.065  0.3081 -1.2161 -0.1947
  802MOL0     H 8226   7.180   7.899  10.072 -0.9587  0.3277  0.5650
  802MOL0     H 8227   7.038   7.817  10.027 -0.0800 -1.1031  2.5779
  802MOL0     H 8228   7.110   7.725   9.821 -0.4990 -0.3616  0.3768
  802MOL0     H 8229   7.285   7.754   9.850 -0.0987 -0.6703  0.8527
  802MOL0     H 8230   7.376   7.933   9.973 -2.0438 -1.1517 -1.1307
  802MOL0     H 8231   7.557   8.078   9.966 -1.8681 -4.2210  2.3186
  802MOL0     H 8232   7.891   8.246   9.680 -0.1032 -0.3510 -0.6130
  802MOL0     H 8233   8.109   8.343   9.675 -0.0052  3.3913 -1.5979
  802MOL0     H 8234   8.174   8.700   9.935 -0.2778  0.3520 -0.8827
  802MOL0     H 8235   8.248   8.568  10.039  0.5341  0.3507 -1.3093
  802MOL0     H 8236   8.412   8.698   9.829 -2.3952  1.2509 -0.5224
  802MOL0     H 8237   8.421   8.768   9.986 -0.3387 -0.5833  1.5748
  802MOL0     H 8238   8.447   8.545  10.100 -1.6083  1.4558 -0.6728
  802MOL0     H 8239   8.432   8.465   9.958 -1.8911 -0.7915  2.3963
  802MOL0     H 8240   8.672   8.642  10.062 -0.2235 -0.7397 -0.0755
  802MOL0     H 8241   8.654   8.594   9.889 -1.8717 -1.6925 -1.6846
  802MOL0     H 8242   8.645   8.357   9.980 -2.4961 -1.1899  2.1587
  802MOL0     H 8243   8.666   8.423  10.147  3.9112 -0.6652  1.2197
  802MOL0     H 8244   8.870   8.347  10.005  0.0696 -0.2937  0.9761
  802MOL0     H 8245   8.874   8.528   9.961 -2.8974  3.0895  1.4783
  802MOL0     H 8246   8.908   8.376  10.213 -1.6443 -1.3803 -1.4658
  802MOL0     H 8247   8.828   8.534  10.226  2.3113 -0.1422  2.0367
  802MOL0     H 8248   9.069   8.553  10.275 -1.5813  0.6681 -0.1810
  802MOL0     H 8249   9.109   8.479  10.119  1.0636 -1.7869  1.9299
  802MOL0     H 8250   8.020   8.551  10.042 -2.8209  0.8465 -0.1788
  802MOL0     H 8251   7.813   8.432  10.061  4.0219  1.3823  2.3478
  802MOL0     H 8252   7.369   8.290   9.628 -2.8317 -1.6926 -0.9919
  802MOL0     H 8253   7.196   8.153   9.627 -2.2663 -0.7212  1.3309
  802MOL0     H 8254   5.651   7.473  10.457  0.3893 -0.0670  1.5887
  802MOL0     H 8255   5.522   7.596  10.610  1.1826 -2.6266 -0.9270
  802MOL0     H 8256   5.416   7.844  10.903  0.2626 -0.3273 -0.5452
  802MOL0     H 8257   5.201   7.823  11.018  2.9671 -4.9800 -2.3978
  802MOL0     H 8258   4.907   8.026  11.146  3.0295  1.6489  0.2597
  802MOL0     H 8259   5.039   7.923  11.148  0.6502 -0.1756  0.1396
  802MOL0     H 8260   4.868   7.759  11.168  2.1242 -2.8020 -0.2710
  802MOL0     H 8261   4.922   7.758  10.992  0.5759 -0.4437  0.9809
  802MOL0     H 8262   4.709   7.761  10.946  2.4190  0.6084 -0.2601
  802MOL0     H 8263   4.748   7.929  10.946  2.5022  2.3746  2.1226
  802MOL0     H 8264   4.532   7.898  11.057 -0.6932 -1.3397  0.5421
  802MOL0     H 8265   4.588   7.766  11.151  0.6635  0.1731  1.4913
  802MOL0     H 8266   4.675   8.117  11.387 -0.6517  1.9745 -1.4524
  802MOL0     H 8267   5.034   8.124  10.758 -1.0401 -1.6059 -1.7194
  802MOL0     H 8268   5.321   8.211  10.603 -1.0821  1.0202 -1.1341
  802MOL0     H 8269   5.236   8.109  10.486  1.5045  2.3287 -1.5014
  802MOL0     H 8270   5.146   8.213  10.596  0.7569 -0.2554 -0.3479
  803MOL0     O 8271   7.677   6.137   2.980  0.0278 -0.8275 -1.5025
  803MOL0     C 8272   7.666   6.209   3.083 -0.2371 -0.1785  0.1184
  803MOL0     O 8273   7.769   6.263   3.162 -0.3621 -0.2429  0.6232
  803MOL0     C 8274   7.894   6.241   3.108  0.4666 -0.9958 -0.5645
  803MOL0     C 8275   7.928   6.288   2.975  0.5136 -0.3655 -0.0446
  803MOL0     C 8276   8.059   6.253   2.927  0.5122 -0.8201  0.5818
  803MOL0     C 8277   8.155   6.200   3.004 -0.5492  0.3907 -0.1981
  803MOL0     O 8278   8.278   6.172   2.945  0.3421  0.0906 -0.3994
  803MOL0     C 8279   8.386   6.183   3.028 -0.0425  0.0797 -0.8531
  803MOL0     C 8280   8.506   6.194   2.950 -0.7252 -0.9635  0.4906
  803MOL0     C 8281   8.629   6.163   3.033 -0.3100  0.5296  0.8330
  803MOL0     C 8282   8.760   6.174   2.953 -0.3129 -0.3743 -0.2347
  803MOL0     C 8283   8.877   6.133   3.038 -0.5104 -0.1566  0.2824
  803MOL0     C 8284   9.002   6.194   2.976 -0.0192  0.6468  0.2952
  803MOL0     C 8285   9.128   6.133   3.034  0.1922  0.9336 -0.2867
  803MOL0     C 8286   9.251   6.195   2.959  0.0447 -0.1961  0.1307
  803MOL0     N 8287   9.368   6.149   3.028 -1.2141  0.4176 -0.1221
  803MOL0     C 8288   9.407   6.015   3.045  1.3175  1.0971 -0.5771
  803MOL0     C 8289   9.529   6.018   3.090  0.4802  1.1091  0.4428
  803MOL0     C 8290   9.619   5.897   3.123  0.4814 -0.3905 -0.2364
  803MOL0     C 8291   9.699   5.839   3.008  1.6378 -0.4827 -0.6234
  803MOL0     C 8292   9.813   5.923   2.942  0.8084 -0.6029 -0.1228
  803MOL0     C 8293   9.878   5.850   2.830 -0.6028  0.6386  1.0574
  803MOL0     O 8294   9.964   5.921   2.746  0.1420  0.4576  0.7780
  803MOL0     C 8295  10.045   5.841   2.680 -0.4657  0.1002 -0.3533
  803MOL0     C 8296  10.019   5.766   2.567  0.1922  0.1637 -0.0191
  803MOL0     C 8297  10.107   5.674   2.509 -0.6265 -0.6999 -0.3874
  803MOL0     C 8298  10.244   5.674   2.560 -0.2915  0.3976 -0.9009
  803MOL0     C 8299  10.348   5.600   2.491 -0.4477 -0.0477 -1.2171
  803MOL0     O 8300  10.301   5.520   2.394 -0.1536 -0.4995 -0.2465
  803MOL0     C 8301  10.380   5.440   2.313 -0.0513  0.8370  0.1602
  803MOL0     C 8302  10.518   5.400   2.341  0.0371  0.6155  0.8762
  803MOL0     C 8303  10.565   5.278   2.278 -0.7322  0.3427 -0.1607
  803MOL0     C 8304  10.477   5.196   2.198 -0.4156 -1.4222  0.4881
  803MOL0     O 8305  10.503   5.073   2.143  0.5844 -0.2039  0.2511
  803MOL0     C 8306  10.628   5.013   2.153 -0.1510  0.8676  0.1862
  803MOL0     C 8307  10.622   4.872   2.101 -0.3402 -0.3470 -0.3429
  803MOL0     C 8308  10.586   4.864   1.951  0.3754  0.3049 -0.5507
  803MOL0     C 8309  10.560   4.715   1.912  0.7413 -0.3114  0.0769
  803MOL0     C 8310  10.474   4.704   1.784 -0.4034  0.0676  0.4046
  803MOL0     C 8311  10.432   4.558   1.746  0.1643  0.5704 -0.8242
  803MOL0     C 8312  10.309   4.563   1.659 -0.0417 -0.1164 -0.2247
  803MOL0     C 8313  10.280   4.426   1.597 -0.3672 -0.3028 -0.5740
  803MOL0    Cl 8314  10.113   4.426   1.543 -0.1602 -0.4601  0.1613
  803MOL0     C 8315  10.353   5.250   2.158  0.0979  0.2961 -0.2276
  803MOL0     C 8316  10.299   5.367   2.216 -0.5555 -0.2186 -0.0814
  803MOL0     O 8317  10.469   5.618   2.520  0.3621 -0.0646 -0.2277
  803MOL0     C 8318  10.273   5.763   2.674 -0.0154  0.2091 -0.1024
  803MOL0     C 8319  10.173   5.848   2.728 -0.2777 -0.0541  0.1073
  803MOL0     N 8320   9.564   6.148   3.102 -0.2480 -0.4649 -0.0339
  803MOL0     N 8321   9.466   6.231   3.070 -0.1386  0.1177 -0.2207
  803MOL0     C 8322   8.126   6.168   3.139 -1.2455 -0.0706  1.0833
  803MOL0     C 8323   7.996   6.189   3.182  0.0099  0.4203 -0.2378
  803MOL0     C 8324   7.528   6.237   3.126  0.4207  0.1791 -0.0123
  803MOL0     C 8325   7.511   6.255   3.265  0.3640  0.3940 -0.2599
  803MOL0     C 8326   7.380   6.265   3.316 -0.1660 -0.0392  0.7304
  803MOL0     C 8327   7.267   6.278   3.243  0.1466 -0.4805 -0.1854
  803MOL0     O 8328   7.152   6.283   3.323 -0.0424 -0.5494  0.1840
  803MOL0     C 8329   7.029   6.282   3.255  1.1432  0.0641  0.6172
  803MOL0     C 8330   6.923   6.280   3.363 -0.2483  0.5197 -0.0263
  803MOL0     C 8331   6.782   6.279   3.304 -0.7478 -0.8548 -0.3046
  803MOL0     C 8332   6.666   6.301   3.403  0.1759  0.1098  0.2795
  803MOL0     C 8333   6.610   6.169   3.432  0.2585 -0.7229 -0.2755
  803MOL0     C 8334   6.571   6.064   3.473 -0.3897  0.0783  0.1857
  803MOL0     C 8335   7.283   6.280   3.103 -0.2828  0.4268 -1.2113
  803MOL0     C 8336   7.411   6.259   3.043  0.1604 -0.3175 -0.0682
  803MOL0     C 8337   7.420   6.281   2.897  0.3115 -0.5806  0.2361
  803MOL0     H 8338   7.852   6.334   2.913  1.1586  1.2727  0.3319
  803MOL0     H 8339   8.081   6.290   2.827 -1.9575  0.2897  0.3799
  803MOL0     H 8340   8.387   6.266   3.099 -2.1954 -0.0466 -0.6091
  803MOL0     H 8341   8.390   6.085   3.075  2.3113 -0.8511 -2.7809
  803MOL0     H 8342   8.524   6.293   2.908 -0.0661 -1.0657  0.5167
  803MOL0     H 8343   8.506   6.128   2.862 -1.2080 -0.4811  0.1282
  803MOL0     H 8344   8.619   6.060   3.069 -3.7037 -0.1378 -1.4749
  803MOL0     H 8345   8.640   6.228   3.120 -1.9367 -0.1236  1.5821
  803MOL0     H 8346   8.749   6.123   2.857 -0.7897  0.8145 -0.8226
  803MOL0     H 8347   8.765   6.280   2.930  1.3141 -0.5803 -0.9323
  803MOL0     H 8348   8.860   6.177   3.137  1.1621  1.2415 -0.0071
  803MOL0     H 8349   8.892   6.025   3.051  2.1102  0.2684  1.3458
  803MOL0     H 8350   8.993   6.175   2.868  1.1132  0.1657  0.2648
  803MOL0     H 8351   8.991   6.302   2.988  3.0702  0.9696  0.9618
  803MOL0     H 8352   9.123   6.024   3.025  1.6497  0.7918  0.2173
  803MOL0     H 8353   9.132   6.163   3.139 -1.9301  0.9512 -0.1706
  803MOL0     H 8354   9.262   6.161   2.856 -1.8325 -0.9756  0.1397
  803MOL0     H 8355   9.242   6.303   2.969  2.0476 -0.0067  0.3797
  803MOL0     H 8356   9.348   5.926   3.029 -0.5041  2.2973 -0.9572
  803MOL0     H 8357   9.682   5.919   3.209  1.3884  2.1888 -1.4606
  803MOL0     H 8358   9.545   5.823   3.155  0.8298  0.0060  1.6086
  803MOL0     H 8359   9.748   5.746   3.038  1.2450 -0.0212  1.5992
  803MOL0     H 8360   9.633   5.812   2.925 -0.3607  0.6537  0.5108
  803MOL0     H 8361   9.891   5.960   3.010  0.0313 -0.0938  0.5108
  803MOL0     H 8362   9.763   6.012   2.903 -0.2365 -1.8266 -1.6679
  803MOL0     H 8363   9.799   5.806   2.769 -0.6102  2.2950 -0.2108
  803MOL0     H 8364   9.931   5.767   2.877 -2.1324  0.1402  1.9852
  803MOL0     H 8365   9.919   5.771   2.527 -1.3618 -2.8111  2.9966
  803MOL0     H 8366  10.079   5.613   2.424  1.5429 -3.4782  0.7444
  803MOL0     H 8367  10.583   5.446   2.414  0.0514  2.7344 -0.3842
  803MOL0     H 8368  10.667   5.245   2.299 -0.8050  1.5075  2.3392
  803MOL0     H 8369  10.704   5.073   2.103  0.7584  1.7140  2.4487
  803MOL0     H 8370  10.657   5.006   2.258 -1.0642 -0.8720  0.3707
  803MOL0     H 8371  10.718   4.827   2.127 -0.2927  0.0655  0.2311
  803MOL0     H 8372  10.552   4.815   2.163  1.8787 -1.1468  1.5945
  803MOL0     H 8373  10.489   4.910   1.929 -0.0711 -1.7275 -3.3444
  803MOL0     H 8374  10.666   4.910   1.891 -0.1317  1.4177 -0.3986
  803MOL0     H 8375  10.507   4.656   1.987  0.8601 -0.7423 -0.1737
  803MOL0     H 8376  10.659   4.673   1.890  0.9938  1.0541 -1.7276
  803MOL0     H 8377  10.517   4.754   1.697 -0.0857  0.4388  0.7704
  803MOL0     H 8378  10.380   4.759   1.800 -0.4107 -0.5611  2.8560
  803MOL0     H 8379  10.515   4.513   1.692  0.2925 -0.0013 -0.1641
  803MOL0     H 8380  10.405   4.488   1.826  1.1776 -0.2963 -1.2197
  803MOL0     H 8381  10.332   4.617   1.567 -2.0589 -1.9902 -1.9466
  803MOL0     H 8382  10.224   4.605   1.713  1.8409  2.8403  0.6828
  803MOL0     H 8383  10.339   4.400   1.508 -0.9600 -0.6077 -0.8858
  803MOL0     H 8384  10.299   4.340   1.663  0.6768 -0.8677 -1.5635
  803MOL0     H 8385  10.287   5.191   2.095 -1.0641 -0.6230  1.7525
  803MOL0     H 8386  10.197   5.399   2.198  0.8730  3.4242 -2.9030
  803MOL0     H 8387  10.374   5.769   2.714  0.4819  0.6528 -1.3886
  803MOL0     H 8388  10.199   5.916   2.808  0.6216 -0.8761  0.5442
  803MOL0     H 8389   8.192   6.116   3.208 -0.7888 -1.9004 -0.6266
  803MOL0     H 8390   7.960   6.159   3.280  0.1027  2.7728  0.5898
  803MOL0     H 8391   7.592   6.247   3.336 -1.2732 -0.2074  1.6148
  803MOL0     H 8392   7.363   6.255   3.422 -1.4046  1.6151  0.7340
  803MOL0     H 8393   7.026   6.193   3.190  3.9472  1.5998 -1.8736
  803MOL0     H 8394   7.013   6.372   3.195 -0.1167  0.0004  0.8298
  803MOL0     H 8395   6.929   6.369   3.427 -2.4405 -0.1081  1.1498
  803MOL0     H 8396   6.943   6.191   3.424  1.5349 -0.4098 -1.8549
  803MOL0     H 8397   6.772   6.178   3.262  1.0576 -1.7214  1.1976
  803MOL0     H 8398   6.778   6.359   3.230 -0.7060 -0.2034  0.3933
  803MOL0     H 8399   6.713   6.347   3.490  2.1250 -0.8042 -0.2297
  803MOL0     H 8400   6.585   6.361   3.360  0.5371  0.5642  0.2187
  803MOL0     H 8401   6.529   5.974   3.514 -0.0605  0.3236  1.0770
  803MOL0     H 8402   7.192   6.305   3.049 -2.0584 -2.0826  0.4321
  803MOL0     H 8403   7.506   6.230   2.851 -0.4976 -1.1785 -0.6504
  803MOL0     H 8404   7.337   6.235   2.843  1.1438 -0.2950 -1.3433
  803MOL0     H 8405   7.438   6.388   2.880  0.0851 -0.3545  1.3378
  804MOL0     O 8406  10.839   3.558   6.780  0.2176 -0.2642  0.2718
  804MOL0     C 8407  10.815   3.600   6.667  0.4874  0.4755  0.5271
  804MOL0     O 8408  10.880   3.691   6.594  0.4291 -0.6162 -0.0882
  804MOL0     C 8409  11.014   3.717   6.629 -0.3704  0.5150  0.4537
  804MOL0     C 8410  11.065   3.845   6.615 -0.2462 -0.6702  0.4491
  804MOL0     C 8411  11.200   3.870   6.628 -0.8846  0.1669 -0.1353
  804MOL0     C 8412  11.296   3.773   6.668  0.5294  0.1200  1.1666
  804MOL0     O 8413  11.415   3.827   6.700  0.1496  0.3362 -0.3371
  804MOL0     C 8414  11.525   3.754   6.643 -0.1314  0.4408 -0.3303
  804MOL0     C 8415  11.658   3.833   6.661 -0.6113 -0.6615  0.0672
  804MOL0     C 8416  11.774   3.745   6.606 -0.0205  0.6360  0.2388
  804MOL0     C 8417  11.899   3.824   6.626 -0.5019 -0.6093 -0.5422
  804MOL0     C 8418  12.010   3.757   6.549 -0.8898 -0.4685 -0.5239
  804MOL0     C 8419  12.147   3.829   6.582  0.1366 -0.0437 -0.1471
  804MOL0     C 8420  12.239   3.830   6.461  0.0820 -0.6847  0.4453
  804MOL0     C 8421  12.264   3.693   6.410  0.0419 -0.1488  0.4459
  804MOL0     N 8422  12.369   3.668   6.306  0.8189  0.4112 -0.1578
  804MOL0     C 8423  12.342   3.623   6.184 -0.5748 -0.3714  0.0396
  804MOL0     C 8424  12.460   3.599   6.123  0.0832 -1.2739  0.8813
  804MOL0     C 8425  12.477   3.559   5.974  0.1849  0.2072 -0.4800
  804MOL0     C 8426  12.615   3.497   5.947  0.9144  0.6455 -0.4858
  804MOL0     C 8427  12.638   3.475   5.794 -0.4349  0.1955 -0.4689
  804MOL0     C 8428  12.763   3.397   5.782 -0.3264  0.5687  0.7973
  804MOL0     O 8429  12.851   3.475   5.695 -0.2492  0.2142 -0.6055
  804MOL0     C 8430  12.989   3.473   5.730 -0.3933  0.0648 -0.8427
  804MOL0     C 8431  13.078   3.571   5.677  0.1729  0.5447  0.1176
  804MOL0     C 8432  13.215   3.575   5.716 -0.0286  0.2488  0.1232
  804MOL0     C 8433  13.265   3.486   5.807 -0.6282  0.2346 -0.8173
  804MOL0     C 8434  13.407   3.496   5.855  0.0029 -0.0433  0.2468
  804MOL0     O 8435  13.481   3.604   5.813  0.1832  0.8298 -0.6089
  804MOL0     C 8436  13.600   3.640   5.874  0.8427  0.5149 -0.0371
  804MOL0     C 8437  13.703   3.686   5.791  0.4009 -0.1971 -0.0564
  804MOL0     C 8438  13.830   3.720   5.845  0.5969  0.5157 -1.0131
  804MOL0     C 8439  13.843   3.712   5.986  0.0496  1.0336 -0.5328
  804MOL0     O 8440  13.972   3.725   6.032  0.1679  0.1472 -0.4538
  804MOL0     C 8441  13.992   3.724   6.174  0.8641 -0.3338 -0.0328
  804MOL0     C 8442  14.110   3.814   6.201 -0.3680  0.8736  0.9489
  804MOL0     C 8443  14.145   3.833   6.346  0.6737  0.7390  0.1646
  804MOL0     C 8444  14.222   3.961   6.371 -0.0958  0.2065  0.1374
  804MOL0     C 8445  14.276   3.975   6.517  0.2934 -0.0827 -0.1210
  804MOL0     C 8446  14.163   3.970   6.624 -0.6507 -0.6638  0.8062
  804MOL0     C 8447  14.209   3.972   6.766  0.2469  0.9623 -0.2396
  804MOL0     C 8448  14.087   3.952   6.863 -0.3125  0.1754  0.6286
  804MOL0    Cl 8449  13.934   3.899   6.791  0.1204 -0.1890  0.1949
  804MOL0     C 8450  13.727   3.679   6.069 -0.1669 -0.3276  0.5873
  804MOL0     C 8451  13.606   3.637   6.011  1.2372 -0.0830  0.0761
  804MOL0     O 8452  13.454   3.403   5.921  0.2794 -0.5450  0.1215
  804MOL0     C 8453  13.181   3.388   5.861  1.0481 -0.3534  0.0476
  804MOL0     C 8454  13.043   3.383   5.819 -0.5559  0.3907  0.0514
  804MOL0     N 8455  12.558   3.621   6.216 -0.2872  0.5079 -0.1456
  804MOL0     N 8456  12.504   3.654   6.327 -0.7660  0.2782 -0.6014
  804MOL0     C 8457  11.252   3.645   6.684 -0.0123  0.0694  0.8212
  804MOL0     C 8458  11.111   3.617   6.666  0.2598  0.5235 -0.8379
  804MOL0     C 8459  10.699   3.539   6.588  0.2133 -0.0914  1.0688
  804MOL0     C 8460  10.670   3.579   6.453  0.0265  0.2054  0.5247
  804MOL0     C 8461  10.560   3.526   6.379  0.8220 -0.3947  0.5213
  804MOL0     C 8462  10.461   3.459   6.442 -0.6933  0.4081  0.1488
  804MOL0     O 8463  10.348   3.432   6.370 -0.3127  0.2365  0.0612
  804MOL0     C 8464  10.246   3.366   6.447 -0.2956 -0.2506 -0.0660
  804MOL0     C 8465  10.123   3.338   6.351  0.1902 -0.1128 -0.5888
  804MOL0     C 8466  10.058   3.475   6.303 -1.1149 -0.5620  0.0167
  804MOL0     C 8467  10.005   3.464   6.165  0.6382  0.2282  0.3652
  804MOL0     C 8468   9.907   3.573   6.149  0.0697 -0.0151 -0.2185
  804MOL0     C 8469   9.814   3.643   6.127 -0.4971 -0.4795 -0.5418
  804MOL0     C 8470  10.488   3.415   6.576 -0.0661 -0.3153  0.5720
  804MOL0     C 8471  10.606   3.450   6.647  0.1334  0.3703 -0.1868
  804MOL0     C 8472  10.614   3.400   6.791 -0.2223  0.8595 -0.4984
  804MOL0     H 8473  11.003   3.926   6.579  1.0630 -0.1133 -0.6331
  804MOL0     H 8474  11.224   3.975   6.610 -0.9112 -0.0833 -1.8440
  804MOL0     H 8475  11.542   3.650   6.670 -1.2243  0.1870 -0.5882
  804MOL0     H 8476  11.495   3.749   6.539  1.2385 -1.6792 -0.6725
  804MOL0     H 8477  11.666   3.833   6.770  1.7983 -1.3349 -0.0466
  804MOL0     H 8478  11.667   3.933   6.617  1.3384 -0.7143  0.2239
  804MOL0     H 8479  11.763   3.710   6.503  0.0930  0.3059  0.3384
  804MOL0     H 8480  11.774   3.648   6.657  0.2277 -0.4253 -1.7017
  804MOL0     H 8481  11.879   3.927   6.594 -2.3015  0.2787  2.9293
  804MOL0     H 8482  11.932   3.832   6.730 -0.5799 -1.7224 -0.4164
  804MOL0     H 8483  12.022   3.649   6.555  0.9588 -0.3330 -1.1229
  804MOL0     H 8484  11.991   3.779   6.444 -0.5584 -0.3480 -0.5607
  804MOL0     H 8485  12.139   3.933   6.614  0.1138 -0.6274  1.9134
  804MOL0     H 8486  12.198   3.772   6.661 -0.4101 -0.2925  0.0278
  804MOL0     H 8487  12.329   3.888   6.485 -0.7717  1.0687 -0.3453
  804MOL0     H 8488  12.197   3.894   6.383  1.8237 -0.0189  0.0120
  804MOL0     H 8489  12.302   3.644   6.500  0.0582  2.1065  1.7359
  804MOL0     H 8490  12.166   3.657   6.377  0.2454  0.0150 -0.3484
  804MOL0     H 8491  12.244   3.614   6.139 -0.4380 -0.8011 -0.1795
  804MOL0     H 8492  12.409   3.477   5.949  0.7996 -1.2746  2.3356
  804MOL0     H 8493  12.458   3.649   5.914 -0.5282 -0.1554 -0.8101
  804MOL0     H 8494  12.698   3.552   5.991  1.1030 -0.4688  0.6181
  804MOL0     H 8495  12.614   3.400   5.999 -0.4317  1.1701  0.5287
  804MOL0     H 8496  12.634   3.571   5.741 -1.7516  1.4435  1.7611
  804MOL0     H 8497  12.556   3.413   5.755 -0.2819  0.9079 -2.0149
  804MOL0     H 8498  12.753   3.297   5.738 -1.4434  0.6862  0.7663
  804MOL0     H 8499  12.803   3.378   5.882 -0.1465  0.4787  0.7080
  804MOL0     H 8500  13.030   3.639   5.608 -0.3997  2.5261  2.3537
  804MOL0     H 8501  13.278   3.655   5.677 -0.3137  1.4604  1.9770
  804MOL0     H 8502  13.684   3.688   5.684 -0.3092 -1.2953  0.0357
  804MOL0     H 8503  13.920   3.735   5.787  0.7071 -1.0743 -1.3034
  804MOL0     H 8504  13.909   3.767   6.230  0.4655 -0.7242 -0.3188
  804MOL0     H 8505  14.017   3.623   6.207  0.1115 -0.6069 -0.2795
  804MOL0     H 8506  14.196   3.760   6.161 -1.5544 -1.7981  1.7492
  804MOL0     H 8507  14.092   3.912   6.158 -1.8365  0.5109  0.6746
  804MOL0     H 8508  14.046   3.852   6.389  0.2218  0.4379 -0.7060
  804MOL0     H 8509  14.183   3.744   6.395  2.1227  2.7131  2.9068
  804MOL0     H 8510  14.155   4.043   6.346  0.7989  0.7384 -0.5810
  804MOL0     H 8511  14.301   3.954   6.296  1.3485  1.7557  1.4606
  804MOL0     H 8512  14.334   4.068   6.514  0.7400 -0.3797 -0.9262
  804MOL0     H 8513  14.340   3.888   6.531  0.9961  0.1475 -1.7023
  804MOL0     H 8514  14.087   4.047   6.610 -0.3879 -0.0585  2.4778
  804MOL0     H 8515  14.112   3.875   6.605  0.8747 -1.5203  0.8075
  804MOL0     H 8516  14.259   4.064   6.798  2.1052 -0.7627  2.2053
  804MOL0     H 8517  14.290   3.901   6.786  0.1306  1.2080  1.2045
  804MOL0     H 8518  14.118   3.892   6.949 -0.5768 -1.4223 -0.3619
  804MOL0     H 8519  14.072   4.054   6.901 -1.2126  0.1187  0.4507
  804MOL0     H 8520  13.740   3.697   6.175  2.7553 -2.7165  0.7771
  804MOL0     H 8521  13.514   3.613   6.064  2.1710 -2.9926  0.5530
  804MOL0     H 8522  13.211   3.313   5.934 -1.1435 -1.3088  0.0440
  804MOL0     H 8523  12.981   3.300   5.850 -0.5038 -1.4389 -4.1398
  804MOL0     H 8524  11.329   3.575   6.713  0.9267  1.7947  2.7674
  804MOL0     H 8525  11.084   3.513   6.683  1.9565 -0.0941 -1.6578
  804MOL0     H 8526  10.730   3.648   6.395 -0.6876  0.8659  0.5621
  804MOL0     H 8527  10.554   3.555   6.275 -3.2233 -0.8820  0.4753
  804MOL0     H 8528  10.220   3.426   6.535 -0.9321 -0.5523 -0.0455
  804MOL0     H 8529  10.291   3.271   6.477  0.6400  0.5845  1.2999
  804MOL0     H 8530  10.053   3.288   6.418  2.2732  0.0225  1.8641
  804MOL0     H 8531  10.161   3.275   6.270  1.3479 -1.7998  1.1942
  804MOL0     H 8532  10.131   3.556   6.308  0.6956 -2.1819  2.6937
  804MOL0     H 8533   9.979   3.503   6.374  0.1392  2.4153  0.3953
  804MOL0     H 8534  10.085   3.474   6.091  1.0770 -2.0307  0.4517
  804MOL0     H 8535   9.951   3.370   6.149 -2.2941  1.8477 -0.0774
  804MOL0     H 8536   9.741   3.721   6.121 -0.0359 -0.0891 -1.3679
  804MOL0     H 8537  10.425   3.350   6.636  1.9995 -1.7013  1.3383
  804MOL0     H 8538  10.625   3.474   6.871  0.5249 -0.4917  0.7045
  804MOL0     H 8539  10.530   3.344   6.832 -1.0031  3.2532  1.4384
  804MOL0     H 8540  10.696   3.328   6.806 -1.2918 -0.2056  0.4482
  805MOL0     O 8541   6.718   1.403   5.268 -0.2491  0.0182  0.4311
  805MOL0     C 8542   6.598   1.430   5.257  0.0511 -0.1792 -0.3631
  805MOL0     O 8543   6.545   1.507   5.153 -0.2949 -0.2139 -0.3159
  805MOL0     C 8544   6.632   1.585   5.083  0.0357 -0.0681  0.8903
  805MOL0     C 8545   6.620   1.575   4.945  0.6218 -0.0879  0.5202
  805MOL0     C 8546   6.706   1.645   4.860  0.1213 -0.4935  0.2095
  805MOL0     C 8547   6.814   1.721   4.917  0.0983 -0.0297 -1.1246
  805MOL0     O 8548   6.905   1.790   4.841 -0.2259 -0.4075 -0.1618
  805MOL0     C 8549   6.858   1.863   4.721 -0.4170  0.2121  0.4227
  805MOL0     C 8550   6.956   1.970   4.674 -0.5986 -0.8063  0.5627
  805MOL0     C 8551   6.994   2.056   4.795  0.5024 -1.3476  0.0684
  805MOL0     C 8552   7.029   2.194   4.733 -0.0897 -0.7570 -0.3569
  805MOL0     C 8553   7.083   2.295   4.838  0.0284 -0.0875 -0.0173
  805MOL0     C 8554   7.242   2.278   4.853 -1.0344 -0.2531  0.4930
  805MOL0     C 8555   7.292   2.392   4.948 -0.6521  0.6450  0.9309
  805MOL0     C 8556   7.436   2.370   4.987 -0.2478 -0.3574  0.7044
  805MOL0     N 8557   7.525   2.397   4.878 -0.2574  0.3719 -0.3883
  805MOL0     C 8558   7.560   2.531   4.850 -0.1836  0.0228 -0.6163
  805MOL0     C 8559   7.633   2.519   4.734  1.0617 -0.8078 -0.6598
  805MOL0     C 8560   7.711   2.631   4.680  0.6979 -0.3265  0.7925
  805MOL0     C 8561   7.688   2.637   4.527  0.4538 -0.8808  0.1464
  805MOL0     C 8562   7.743   2.768   4.462 -0.0905 -0.1741  0.5574
  805MOL0     C 8563   7.886   2.817   4.483 -1.3078 -0.2509 -0.5128
  805MOL0     O 8564   7.893   2.868   4.615 -0.9221 -0.0280 -0.3408
  805MOL0     C 8565   8.011   2.918   4.664  0.0752 -0.4486  0.0342
  805MOL0     C 8566   8.013   2.961   4.797  0.7225 -0.2816 -0.3515
  805MOL0     C 8567   8.132   3.002   4.851 -0.4688 -0.2982  0.4160
  805MOL0     C 8568   8.255   3.007   4.780 -0.1763  0.3841 -0.1777
  805MOL0     C 8569   8.379   3.047   4.853 -0.7767 -0.6432  0.3964
  805MOL0     O 8570   8.495   3.011   4.784  0.1888  0.3070 -0.2709
  805MOL0     C 8571   8.613   3.065   4.831  1.2372 -0.6742  0.4443
  805MOL0     C 8572   8.726   2.990   4.869 -1.0911  0.1765 -0.8399
  805MOL0     C 8573   8.845   3.058   4.899  0.4691 -0.2561 -0.9039
  805MOL0     C 8574   8.848   3.198   4.921 -0.0116  0.5193  0.3847
  805MOL0     O 8575   8.962   3.242   4.980  0.7227  0.6792 -0.4321
  805MOL0     C 8576   9.012   3.356   4.917  0.0214 -0.1582  0.2119
  805MOL0     C 8577   9.067   3.319   4.775  0.0209  0.2192  0.2391
  805MOL0     C 8578   9.156   3.433   4.711 -0.4201  0.7599 -0.2881
  805MOL0     C 8579   9.261   3.388   4.609  0.0972  0.8792  0.2734
  805MOL0     C 8580   9.325   3.509   4.549 -0.4567  0.4896 -1.8783
  805MOL0     C 8581   9.430   3.558   4.647 -0.4992  1.0351 -0.0410
  805MOL0     C 8582   9.534   3.654   4.572 -0.3629 -0.2714  0.2645
  805MOL0     C 8583   9.608   3.732   4.679 -0.8327 -0.2157  0.5602
  805MOL0    Cl 8584   9.763   3.662   4.711 -0.4328  0.2028 -0.0888
  805MOL0     C 8585   8.740   3.268   4.873 -1.2922 -0.0215 -0.2745
  805MOL0     C 8586   8.627   3.201   4.833  0.3721 -0.1628  0.3791
  805MOL0     O 8587   8.389   3.118   4.955 -0.3578  0.3221  0.4820
  805MOL0     C 8588   8.244   2.964   4.650 -0.0868 -0.8222 -0.2426
  805MOL0     C 8589   8.129   2.919   4.588 -0.7374  0.0187 -0.8528
  805MOL0     N 8590   7.637   2.383   4.705 -0.1340 -0.8721  0.1539
  805MOL0     N 8591   7.584   2.302   4.790  0.3230  0.2290  0.2717
  805MOL0     C 8592   6.818   1.735   5.053  0.6043  0.1283  0.7281
  805MOL0     C 8593   6.735   1.663   5.138  0.0612  0.2470  0.0827
  805MOL0     C 8594   6.489   1.369   5.347 -0.7562  0.0882 -0.2977
  805MOL0     C 8595   6.348   1.408   5.329 -1.4494 -1.2443 -0.9841
  805MOL0     C 8596   6.246   1.361   5.412  0.4729 -0.2985 -0.7858
  805MOL0     C 8597   6.282   1.261   5.513 -0.1868  0.0015 -0.4551
  805MOL0     O 8598   6.193   1.201   5.596 -0.4377  0.1770 -0.0686
  805MOL0     C 8599   6.080   1.281   5.635 -0.4861  0.1981  0.3619
  805MOL0     C 8600   6.036   1.246   5.773  0.3101  0.1987 -0.4864
  805MOL0     C 8601   5.888   1.265   5.792 -0.5262 -0.3131 -0.3510
  805MOL0     C 8602   5.854   1.277   5.942 -0.7691  0.1998  0.8888
  805MOL0     C 8603   5.711   1.305   5.948  0.2690  0.3153 -0.4123
  805MOL0     C 8604   5.591   1.326   5.960  0.4949 -0.8495 -0.7668
  805MOL0     C 8605   6.413   1.229   5.534 -0.1145 -0.3331 -0.2664
  805MOL0     C 8606   6.522   1.283   5.454  0.1780 -0.0502  0.3780
  805MOL0     C 8607   6.660   1.249   5.503  0.5583  0.0995 -0.0326
  805MOL0     H 8608   6.539   1.510   4.914  0.4444  0.1243  0.5438
  805MOL0     H 8609   6.699   1.645   4.752  2.2717  2.5636 -0.0533
  805MOL0     H 8610   6.850   1.794   4.636  0.2226 -0.4688  0.9022
  805MOL0     H 8611   6.763   1.912   4.744  0.1325  1.3314  0.3797
  805MOL0     H 8612   6.908   2.026   4.593  1.8464  0.7986  0.1026
  805MOL0     H 8613   7.049   1.933   4.629  1.0617  3.3737  0.0882
  805MOL0     H 8614   7.081   2.002   4.836  0.1296 -0.9012  1.5093
  805MOL0     H 8615   6.923   2.072   4.876  0.7384  1.3240 -0.1744
  805MOL0     H 8616   7.108   2.189   4.657 -1.0550 -2.3209 -1.3242
  805MOL0     H 8617   6.939   2.235   4.688 -0.4086 -0.2563  0.6960
  805MOL0     H 8618   7.060   2.395   4.801 -1.3605 -0.4919 -0.3000
  805MOL0     H 8619   7.040   2.295   4.938  0.2750  0.3391  0.0921
  805MOL0     H 8620   7.258   2.180   4.900 -0.8212  0.3158  1.6387
  805MOL0     H 8621   7.296   2.270   4.759  1.9451  0.8993  1.9672
  805MOL0     H 8622   7.223   2.386   5.032 -1.1893  1.6709  0.5754
  805MOL0     H 8623   7.282   2.489   4.898 -1.0280 -0.7788 -1.9898
  805MOL0     H 8624   7.449   2.451   5.059 -2.2221  0.9432 -0.3068
  805MOL0     H 8625   7.454   2.270   5.028 -0.0874 -1.0230 -0.8955
  805MOL0     H 8626   7.525   2.618   4.905  0.0443  0.7059 -1.5217
  805MOL0     H 8627   7.687   2.727   4.726  0.9444  2.0754 -3.6603
  805MOL0     H 8628   7.812   2.600   4.709  1.0418  0.7129  0.7339
  805MOL0     H 8629   7.740   2.557   4.474  0.3102 -0.1735 -1.0958
  805MOL0     H 8630   7.584   2.623   4.498  0.1342  0.6773  0.4538
  805MOL0     H 8631   7.678   2.849   4.495 -2.2926 -0.7048 -2.1291
  805MOL0     H 8632   7.733   2.757   4.354  0.4916  1.6280  0.2969
  805MOL0     H 8633   7.913   2.897   4.413  1.5076  0.8649  1.6354
  805MOL0     H 8634   7.968   2.747   4.462 -1.4039 -0.9932  1.4001
  805MOL0     H 8635   7.917   2.963   4.848  1.0332  0.7201  0.2072
  805MOL0     H 8636   8.130   3.032   4.955 -0.2186 -0.5930  0.5075
  805MOL0     H 8637   8.736   2.882   4.876 -1.0906  0.2427  0.3735
  805MOL0     H 8638   8.935   3.002   4.921 -0.4335 -1.1325  0.7962
  805MOL0     H 8639   8.934   3.429   4.893 -2.1885 -2.1796  0.8372
  805MOL0     H 8640   9.089   3.409   4.974 -0.5004 -1.1308  1.8648
  805MOL0     H 8641   9.123   3.226   4.790  1.7501  1.6184  3.5974
  805MOL0     H 8642   8.991   3.293   4.702  1.2530 -1.1618 -0.6077
  805MOL0     H 8643   9.082   3.501   4.667 -3.2651 -2.6429 -1.2820
  805MOL0     H 8644   9.205   3.477   4.798 -1.2553  0.3869  0.3836
  805MOL0     H 8645   9.212   3.340   4.525  0.6217  1.7969 -0.5812
  805MOL0     H 8646   9.315   3.299   4.640 -3.5393 -1.1871  1.2929
  805MOL0     H 8647   9.252   3.585   4.520 -1.8901  0.7170  1.7952
  805MOL0     H 8648   9.377   3.478   4.457  0.8068  1.6118 -1.5776
  805MOL0     H 8649   9.376   3.597   4.734  1.1484 -1.3900  2.2732
  805MOL0     H 8650   9.491   3.473   4.681  0.4114  0.9781 -1.7223
  805MOL0     H 8651   9.489   3.728   4.505  2.6314 -1.0616 -2.9053
  805MOL0     H 8652   9.607   3.603   4.509  1.2077  2.0613  0.0544
  805MOL0     H 8653   9.629   3.833   4.644 -1.6621  0.0090  0.6918
  805MOL0     H 8654   9.536   3.741   4.761 -3.4488  2.9649 -1.8084
  805MOL0     H 8655   8.733   3.376   4.885  1.7646  0.0976  2.0349
  805MOL0     H 8656   8.538   3.258   4.809 -1.7937 -2.9270  1.2764
  805MOL0     H 8657   8.333   2.967   4.588  0.3433 -2.4772  0.2569
  805MOL0     H 8658   8.145   2.887   4.486  0.8149  0.4236 -0.7609
  805MOL0     H 8659   6.886   1.807   5.098  1.9719 -0.8675  0.3307
  805MOL0     H 8660   6.759   1.667   5.244  0.2060  0.6435  0.0373
  805MOL0     H 8661   6.311   1.473   5.250 -1.3617  2.3477  1.6327
  805MOL0     H 8662   6.147   1.398   5.391  1.4129  1.4907 -2.3809
  805MOL0     H 8663   6.002   1.275   5.559 -0.0246  3.7179 -0.5703
  805MOL0     H 8664   6.116   1.384   5.640 -0.9673  0.5145 -1.8799
  805MOL0     H 8665   6.087   1.319   5.835  1.7361 -1.3529  0.2412
  805MOL0     H 8666   6.059   1.141   5.795  0.1700  0.6286  2.0868
  805MOL0     H 8667   5.844   1.175   5.749  1.2950 -1.5872  0.3249
  805MOL0     H 8668   5.856   1.356   5.739 -1.8534 -0.5001  0.0843
  805MOL0     H 8669   5.876   1.188   6.002 -2.3214 -0.0933  1.0542
  805MOL0     H 8670   5.915   1.354   5.990  1.7168  0.2076 -1.9310
  805MOL0     H 8671   5.487   1.346   5.974  0.9820  0.4024  1.5176
  805MOL0     H 8672   6.430   1.156   5.612 -2.7819 -0.0508  0.6886
  805MOL0     H 8673   6.733   1.330   5.494  0.0189  0.7866  1.4480
  805MOL0     H 8674   6.653   1.206   5.603 -3.0725  0.2883 -0.0983
  805MOL0     H 8675   6.698   1.168   5.440  1.8214  1.6893 -1.4115
  806MOL0     O 8676   1.584  10.803   7.859  0.4540 -0.1474 -0.3781
  806MOL0     C 8677   1.488  10.773   7.934  0.1186  0.3051  0.4606
  806MOL0     O 8678   1.493  10.778   8.072  0.0741 -0.1429 -0.0050
  806MOL0     C 8679   1.608  10.793   8.141 -0.3441  0.0223  0.0203
  806MOL0     C 8680   1.627  10.901   8.237 -0.7829  0.3454  0.4723
  806MOL0     C 8681   1.757  10.933   8.281 -0.1911 -0.2100 -0.0495
  806MOL0     C 8682   1.872  10.854   8.254 -0.8202 -0.7770  0.5778
  806MOL0     O 8683   1.987  10.885   8.320 -1.1957 -0.0822  0.7409
  806MOL0     C 8684   2.116  10.835   8.276  0.1759 -0.1915 -0.1803
  806MOL0     C 8685   2.227  10.901   8.359  0.8974 -0.0155  0.5444
  806MOL0     C 8686   2.238  11.051   8.311 -0.3993 -0.8559  0.5377
  806MOL0     C 8687   2.341  11.134   8.390 -0.6060  0.6223 -0.0831
  806MOL0     C 8688   2.481  11.090   8.336 -0.4180  0.2939 -1.0773
  806MOL0     C 8689   2.602  11.149   8.405 -0.8686  1.0333 -0.7409
  806MOL0     C 8690   2.741  11.092   8.347  0.2836 -0.6669 -0.2587
  806MOL0     C 8691   2.872  11.135   8.425  0.1521 -0.0146 -0.0920
  806MOL0     N 8692   2.969  11.022   8.413  0.5204 -0.2980  0.3970
  806MOL0     C 8693   3.031  10.942   8.516 -0.8774 -0.7243  0.5707
  806MOL0     C 8694   3.134  10.891   8.452 -0.3437  0.3684 -0.3357
  806MOL0     C 8695   3.235  10.795   8.508  0.1684  0.6032 -0.9659
  806MOL0     C 8696   3.367  10.868   8.521 -1.1056  0.0680 -0.0574
  806MOL0     C 8697   3.442  10.886   8.394  0.0861  0.8551 -0.3527
  806MOL0     C 8698   3.593  10.896   8.417 -1.2045 -0.0208  0.3208
  806MOL0     O 8699   3.628  10.776   8.480 -0.1748 -0.1112 -0.1301
  806MOL0     C 8700   3.755  10.772   8.528 -0.2943  0.0930 -0.2711
  806MOL0     C 8701   3.774  10.708   8.650 -0.3558  0.6035  0.0899
  806MOL0     C 8702   3.899  10.704   8.710 -0.2624 -0.1148 -0.3729
  806MOL0     C 8703   4.017  10.752   8.648  0.5570 -0.1717 -0.3676
  806MOL0     C 8704   4.155  10.724   8.706 -0.3911  0.1023  0.0209
  806MOL0     O 8705   4.155  10.629   8.806 -0.2929 -0.8549 -0.4056
  806MOL0     C 8706   4.274  10.605   8.865 -0.0685  0.2526 -0.2247
  806MOL0     C 8707   4.350  10.695   8.938  0.2474 -0.8894  0.6009
  806MOL0     C 8708   4.463  10.659   9.002  0.0908 -0.4806  0.6185
  806MOL0     C 8709   4.499  10.528   9.010  0.0389 -0.0594 -0.5730
  806MOL0     O 8710   4.614  10.501   9.081 -0.2640 -1.0368 -0.0255
  806MOL0     C 8711   4.680  10.379   9.079 -1.0710  0.1393  0.0132
  806MOL0     C 8712   4.794  10.375   9.191  0.1966  0.5245  0.7675
  806MOL0     C 8713   4.865  10.241   9.185  0.1173 -0.0675  0.0412
  806MOL0     C 8714   4.996  10.243   9.264 -0.4114  0.0707 -0.8332
  806MOL0     C 8715   5.071  10.104   9.274  1.0294  0.2368  0.2067
  806MOL0     C 8716   5.122  10.046   9.143  0.2017  0.4550  0.3867
  806MOL0     C 8717   5.208  10.150   9.060  0.1963 -0.4729 -0.5201
  806MOL0     C 8718   5.279  10.083   8.939  0.5869 -0.4800 -0.3131
  806MOL0    Cl 8719   5.169  10.037   8.819 -0.1242 -0.0383  0.0160
  806MOL0     C 8720   4.429  10.428   8.936  0.0234 -0.0494  0.2835
  806MOL0     C 8721   4.323  10.470   8.860 -0.6935  0.4662  0.3777
  806MOL0     O 8722   4.259  10.782   8.663  0.2441 -0.1400 -0.6275
  806MOL0     C 8723   4.000  10.815   8.520 -0.0184 -0.1355  0.2942
  806MOL0     C 8724   3.865  10.825   8.461 -0.1218 -0.2158  0.3600
  806MOL0     N 8725   3.129  10.918   8.318  0.2671 -0.0811 -0.0328
  806MOL0     N 8726   3.029  10.999   8.298 -0.0690  0.5800 -0.5460
  806MOL0     C 8727   1.853  10.752   8.163 -0.5504  0.8919  0.1161
  806MOL0     C 8728   1.726  10.715   8.114  0.1354 -0.9256  0.5265
  806MOL0     C 8729   1.367  10.707   7.878  0.2248  0.1650 -0.4886
  806MOL0     C 8730   1.248  10.710   7.960 -0.0961 -0.1408 -0.7516
  806MOL0     C 8731   1.122  10.658   7.909 -0.9120  1.0201 -0.3282
  806MOL0     C 8732   1.129  10.593   7.789  0.7416  0.4520 -0.7442
  806MOL0     O 8733   1.019  10.548   7.721  0.4080  0.3963 -0.2874
  806MOL0     C 8734   0.902  10.503   7.789  0.2526  0.3220 -1.0262
  806MOL0     C 8735   0.829  10.399   7.713  0.9295 -0.4223  1.0910
  806MOL0     C 8736   0.692  10.362   7.769 -0.1814 -0.0550 -1.1695
  806MOL0     C 8737   0.710  10.300   7.909 -0.3317 -0.2609 -0.2980
  806MOL0     C 8738   0.587  10.236   7.936  0.2501  0.5919 -0.4603
  806MOL0     C 8739   0.489  10.161   7.949 -0.4915  0.4491  0.5308
  806MOL0     C 8740   1.246  10.582   7.717  0.3181  0.3267 -0.2828
  806MOL0     C 8741   1.365  10.636   7.755 -0.3531  0.4520  0.5355
  806MOL0     C 8742   1.491  10.619   7.670  0.4227  0.3271 -0.5527
  806MOL0     H 8743   1.544  10.968   8.259 -2.0558 -1.2763  0.8979
  806MOL0     H 8744   1.768  11.021   8.343 -1.0832  0.2957 -0.5771
  806MOL0     H 8745   2.131  10.726   8.280  0.8965 -0.1814 -1.7897
  806MOL0     H 8746   2.122  10.860   8.170 -2.2970  1.6690  0.0323
  806MOL0     H 8747   2.316  10.838   8.347  1.6744  0.3609  3.5062
  806MOL0     H 8748   2.200  10.901   8.465  1.5580 -0.6223  0.7227
  806MOL0     H 8749   2.144  11.105   8.304 -0.4929 -0.9707  0.9009
  806MOL0     H 8750   2.272  11.050   8.207  0.8892  0.4425  0.9186
  806MOL0     H 8751   2.328  11.242   8.383  0.6824  0.7657 -0.5832
  806MOL0     H 8752   2.332  11.103   8.494  0.9904 -1.4287 -0.4865
  806MOL0     H 8753   2.486  10.981   8.334 -1.8239 -0.0362  3.2710
  806MOL0     H 8754   2.487  11.120   8.231 -1.8426  1.8132 -0.7665
  806MOL0     H 8755   2.604  11.256   8.384  0.1187  0.9632 -1.0329
  806MOL0     H 8756   2.589  11.128   8.512  1.7446  0.5832 -0.4513
  806MOL0     H 8757   2.756  11.121   8.242 -0.4283 -1.5210 -0.6029
  806MOL0     H 8758   2.735  10.983   8.359 -1.9863 -0.3555  2.2381
  806MOL0     H 8759   2.914  11.221   8.373 -2.3946  1.9073  0.8181
  806MOL0     H 8760   2.841  11.157   8.528  0.4694  1.2312 -0.2445
  806MOL0     H 8761   3.016  10.941   8.624 -0.7314  0.4281  0.6168
  806MOL0     H 8762   3.204  10.766   8.609 -0.8900  1.0761 -1.1430
  806MOL0     H 8763   3.244  10.715   8.434  0.5380 -0.1922 -0.0726
  806MOL0     H 8764   3.363  10.967   8.568 -1.0307 -0.1985  0.5238
  806MOL0     H 8765   3.424  10.810   8.594 -1.0915  0.7144  0.4550
  806MOL0     H 8766   3.407  10.980   8.350  1.8594  2.7760  2.0472
  806MOL0     H 8767   3.430  10.801   8.326  1.3428  0.2984  0.0782
  806MOL0     H 8768   3.607  10.983   8.482 -1.6544  0.0962  0.2672
  806MOL0     H 8769   3.640  10.917   8.320 -3.3283  0.0800 -0.7511
  806MOL0     H 8770   3.690  10.672   8.708 -0.8268  2.5714  0.6854
  806MOL0     H 8771   3.908  10.656   8.807 -1.7952 -0.5073 -0.4021
  806MOL0     H 8772   4.321  10.797   8.960 -1.4382 -1.7696  2.8529
  806MOL0     H 8773   4.520  10.734   9.056 -0.3401 -0.3623  0.9138
  806MOL0     H 8774   4.605  10.300   9.095 -0.6406 -0.5538 -1.2672
  806MOL0     H 8775   4.722  10.348   8.983 -0.5370 -3.1547  1.1633
  806MOL0     H 8776   4.863  10.459   9.177 -0.0104  0.9298  2.0040
  806MOL0     H 8777   4.743  10.380   9.287  1.7967 -1.3373  1.7918
  806MOL0     H 8778   4.797  10.170   9.232 -1.4394 -0.0691 -2.0645
  806MOL0     H 8779   4.893  10.207   9.085  1.7114  0.2750  0.3295
  806MOL0     H 8780   4.970  10.266   9.368  3.5141 -1.3237  0.6694
  806MOL0     H 8781   5.063  10.325   9.237  1.1901 -0.8784  0.0295
  806MOL0     H 8782   5.004  10.041   9.332 -0.1122 -0.2213 -1.5299
  806MOL0     H 8783   5.163  10.129   9.328  2.5562  2.0364 -2.8820
  806MOL0     H 8784   5.184   9.957   9.155 -0.4601 -0.1059 -0.2980
  806MOL0     H 8785   5.047   9.996   9.082  0.4173 -1.7386  1.7942
  806MOL0     H 8786   5.290  10.183   9.124 -0.3414  0.4432 -0.2938
  806MOL0     H 8787   5.141  10.232   9.032 -0.3857 -0.7303  0.0895
  806MOL0     H 8788   5.344  10.153   8.885 -1.1961  0.8428 -0.8527
  806MOL0     H 8789   5.340  10.002   8.980  0.4164  0.0513  1.0636
  806MOL0     H 8790   4.447  10.321   8.938 -1.0075 -0.2343  0.5647
  806MOL0     H 8791   4.269  10.384   8.821 -0.6216  0.8508 -0.6108
  806MOL0     H 8792   4.081  10.842   8.454 -1.4167  1.1799 -0.9585
  806MOL0     H 8793   3.845  10.875   8.367 -0.3151  3.3646  2.1108
  806MOL0     H 8794   1.933  10.685   8.134  0.6960  1.5280  1.9215
  806MOL0     H 8795   1.719  10.638   8.038  0.0294 -1.0942  0.7044
  806MOL0     H 8796   1.257  10.759   8.056  1.5832  0.3358 -1.1189
  806MOL0     H 8797   1.026  10.684   7.951 -2.2989 -2.6840 -0.8429
  806MOL0     H 8798   0.832  10.584   7.812 -0.3584 -0.9981  2.3412
  806MOL0     H 8799   0.939  10.456   7.881 -2.0334 -0.3611 -0.3887
  806MOL0     H 8800   0.898  10.314   7.713 -0.8902 -2.0576 -1.8972
  806MOL0     H 8801   0.825  10.437   7.611 -1.8572  0.0860  1.3229
  806MOL0     H 8802   0.639  10.295   7.700  0.0329 -0.9988 -0.4425
  806MOL0     H 8803   0.632  10.453   7.776 -1.0377 -0.7350  1.7502
  806MOL0     H 8804   0.786  10.222   7.897  0.0689 -0.1200  1.1726
  806MOL0     H 8805   0.743  10.383   7.973  0.9409 -0.7749 -0.2533
  806MOL0     H 8806   0.405  10.095   7.956  0.5957 -1.7945 -3.9146
  806MOL0     H 8807   1.248  10.541   7.616  1.4316  1.7845 -0.8830
  806MOL0     H 8808   1.509  10.699   7.597 -0.1745 -0.2052 -1.3026
  806MOL0     H 8809   1.579  10.598   7.730  0.0767  0.4400  0.0065
  806MOL0     H 8810   1.467  10.543   7.595 -2.0670  1.6606 -1.2592
  807MOL0     O 8811   4.338  11.252   5.074  0.3271  0.2543 -0.3098
  807MOL0     C 8812   4.299  11.155   5.142 -0.7671 -0.5057  0.0534
  807MOL0     O 8813   4.383  11.094   5.237  0.4001 -0.0674 -0.1361
  807MOL0     C 8814   4.506  11.144   5.257 -0.4198  0.4660  1.0128
  807MOL0     C 8815   4.528  11.271   5.304  0.0508  0.8904  0.5496
  807MOL0     C 8816   4.658  11.316   5.309  0.5805 -0.2533  0.0537
  807MOL0     C 8817   4.772  11.240   5.273 -0.5076 -1.2585 -0.7507
  807MOL0     O 8818   4.903  11.288   5.287  0.0581  1.2523 -0.1145
  807MOL0     C 8819   5.006  11.209   5.337 -0.1758  0.0330 -0.7453
  807MOL0     C 8820   5.113  11.312   5.388 -0.6163 -0.4688  0.3016
  807MOL0     C 8821   5.247  11.246   5.439  0.4624  0.0360 -0.3410
  807MOL0     C 8822   5.342  11.198   5.326  1.3418 -0.0221  0.1781
  807MOL0     C 8823   5.468  11.131   5.371  0.6947 -0.2060  0.6165
  807MOL0     C 8824   5.526  11.192   5.496  0.5336 -0.8490 -0.2607
  807MOL0     C 8825   5.679  11.156   5.500 -0.2112  0.1820 -0.9771
  807MOL0     C 8826   5.723  11.160   5.639  0.0705  0.0398 -0.2524
  807MOL0     N 8827   5.866  11.147   5.650  0.1518 -0.5040  0.8109
  807MOL0     C 8828   5.954  11.248   5.624  0.1704 -0.5575 -0.7706
  807MOL0     C 8829   6.076  11.192   5.635  0.1566  0.4357  0.2660
  807MOL0     C 8830   6.212  11.251   5.615 -0.5669 -0.0320 -0.0603
  807MOL0     C 8831   6.317  11.184   5.710 -0.3475 -0.1676  0.7286
  807MOL0     C 8832   6.303  11.213   5.864  0.2265  0.1684  0.9668
  807MOL0     C 8833   6.439  11.214   5.935  0.3767  0.2706 -0.2557
  807MOL0     O 8834   6.530  11.296   5.861  0.7008  0.0031 -0.2765
  807MOL0     C 8835   6.658  11.320   5.911 -0.2630 -0.0047  0.4184
  807MOL0     C 8836   6.705  11.267   6.036  0.0392 -0.0759  0.1648
  807MOL0     C 8837   6.844  11.267   6.058  0.2460  0.1004 -1.1929
  807MOL0     C 8838   6.936  11.333   5.973  0.8759  0.1718  0.0949
  807MOL0     C 8839   7.081  11.345   6.007  1.0128  0.0688 -0.2020
  807MOL0     O 8840   7.170  11.384   5.910 -0.9288 -0.1861  0.9053
  807MOL0     C 8841   7.299  11.414   5.937 -0.0029 -0.5495 -0.3713
  807MOL0     C 8842   7.341  11.548   5.959 -0.3797  0.5394 -0.2216
  807MOL0     C 8843   7.476  11.576   5.954  0.3017  0.0841  0.9300
  807MOL0     C 8844   7.572  11.474   5.946 -0.3979 -0.7000 -0.2490
  807MOL0     O 8845   7.705  11.499   5.930 -0.7553  0.0778  0.2025
  807MOL0     C 8846   7.797  11.435   6.018  0.5535 -0.3109  0.1566
  807MOL0     C 8847   7.931  11.461   5.951  0.4545 -0.6274 -0.3987
  807MOL0     C 8848   7.986  11.600   5.971 -1.2004  0.1536 -0.2403
  807MOL0     C 8849   8.139  11.585   5.972 -0.5372 -0.3338  0.9859
  807MOL0     C 8850   8.216  11.718   5.972 -0.3960  0.2926  0.9440
  807MOL0     C 8851   8.363  11.713   5.997  0.0231 -0.7596 -0.3964
  807MOL0     C 8852   8.436  11.839   5.963 -0.1543  0.1005  0.6517
  807MOL0     C 8853   8.577  11.825   6.018 -0.9474  0.1616  0.7347
  807MOL0    Cl 8854   8.673  11.701   5.927 -0.5093 -0.0462 -0.2503
  807MOL0     C 8855   7.531  11.345   5.953 -0.3703 -0.3855  0.1837
  807MOL0     C 8856   7.395  11.315   5.943 -0.0684  0.5217 -0.7154
  807MOL0     O 8857   7.109  11.318   6.125 -0.0093 -0.4842  0.3506
  807MOL0     C 8858   6.882  11.394   5.853 -0.7392  0.3901 -0.3042
  807MOL0     C 8859   6.745  11.387   5.830  0.3030  0.2234  0.3026
  807MOL0     N 8860   6.063  11.062   5.671 -0.0011 -0.6750 -0.5150
  807MOL0     N 8861   5.929  11.030   5.674 -0.1899 -0.7757  0.0603
  807MOL0     C 8862   4.745  11.112   5.235  0.0856  0.3766 -0.5685
  807MOL0     C 8863   4.615  11.064   5.226 -0.3137 -0.1188  0.2621
  807MOL0     C 8864   4.157  11.128   5.148 -0.2322 -0.5393  0.1377
  807MOL0     C 8865   4.129  10.994   5.169  1.1775  0.6289 -0.0575
  807MOL0     C 8866   3.994  10.957   5.173  0.2777  0.3789 -0.2938
  807MOL0     C 8867   3.887  11.044   5.151 -0.2335  0.3947  0.0644
  807MOL0     O 8868   3.752  11.009   5.152 -0.2396  0.1082  0.0103
  807MOL0     C 8869   3.704  10.964   5.031  0.1657 -0.1042 -0.5121
  807MOL0     C 8870   3.553  11.005   5.029  0.4971 -0.4698  0.5805
  807MOL0     C 8871   3.473  10.916   4.926  0.1835 -0.3192  0.4720
  807MOL0     C 8872   3.385  11.011   4.833 -0.1925 -0.1707 -0.1378
  807MOL0     C 8873   3.453  11.085   4.722  0.2564 -0.4831 -0.2037
  807MOL0     C 8874   3.510  11.150   4.637 -1.1448  0.8360 -0.1255
  807MOL0     C 8875   3.925  11.173   5.143  0.6076 -0.4140 -0.5941
  807MOL0     C 8876   4.055  11.217   5.145 -0.4346 -0.3689  0.6779
  807MOL0     C 8877   4.082  11.371   5.141  0.7485  0.4660  0.7309
  807MOL0     H 8878   4.444  11.335   5.330  0.6669  3.1140 -2.3992
  807MOL0     H 8879   4.677  11.417   5.343  1.0585 -1.3312  3.3648
  807MOL0     H 8880   4.979  11.138   5.416 -1.2969  0.0275 -1.1155
  807MOL0     H 8881   5.049  11.149   5.256 -1.5476 -2.4710  0.2543
  807MOL0     H 8882   5.073  11.377   5.466 -1.8338 -2.0235  1.0240
  807MOL0     H 8883   5.128  11.378   5.302 -1.4736 -2.1619 -1.2272
  807MOL0     H 8884   5.215  11.157   5.495  0.9502 -2.8111 -4.1463
  807MOL0     H 8885   5.305  11.313   5.503  0.6157 -0.0356 -0.4026
  807MOL0     H 8886   5.295  11.128   5.256  1.6070  0.8845 -0.9493
  807MOL0     H 8887   5.368  11.284   5.262 -0.2630  0.0609 -0.4123
  807MOL0     H 8888   5.440  11.029   5.399 -2.2028  0.5898  0.9339
  807MOL0     H 8889   5.535  11.126   5.285  0.9327 -0.0532  0.7921
  807MOL0     H 8890   5.516  11.301   5.498 -0.9714 -0.9524 -0.8154
  807MOL0     H 8891   5.471  11.151   5.581  0.3796  0.7969  0.4609
  807MOL0     H 8892   5.726  11.232   5.437 -0.1778  1.2101  0.2586
  807MOL0     H 8893   5.707  11.062   5.451 -0.2735 -0.3753  0.0277
  807MOL0     H 8894   5.693  11.257   5.682 -0.8066 -0.1951 -0.3040
  807MOL0     H 8895   5.674  11.086   5.703 -1.7600  0.6316 -0.8895
  807MOL0     H 8896   5.941  11.353   5.598  3.5719  0.0053 -0.6263
  807MOL0     H 8897   6.237  11.236   5.510 -3.8653 -1.0826 -0.8416
  807MOL0     H 8898   6.213  11.359   5.633 -0.5925 -0.0629  0.1278
  807MOL0     H 8899   6.325  11.077   5.690  0.4020  0.2373 -1.3766
  807MOL0     H 8900   6.413  11.228   5.679 -1.2700  1.2020 -0.3222
  807MOL0     H 8901   6.244  11.134   5.911 -1.5794 -0.5080 -2.0938
  807MOL0     H 8902   6.258  11.309   5.889 -3.4981 -1.3390  0.6821
  807MOL0     H 8903   6.464  11.108   5.943 -2.7484 -0.4141  2.6070
  807MOL0     H 8904   6.417  11.259   6.033  2.8770 -1.0547  0.9917
  807MOL0     H 8905   6.645  11.211   6.107  0.1514  0.5590  0.7723
  807MOL0     H 8906   6.870  11.233   6.158  1.5408  1.6489 -0.9540
  807MOL0     H 8907   7.259  11.618   5.957 -1.5674 -0.6457  2.7075
  807MOL0     H 8908   7.514  11.677   5.962  0.4963  0.2752 -1.5341
  807MOL0     H 8909   7.792  11.484   6.116 -0.8945  2.6196 -1.2414
  807MOL0     H 8910   7.793  11.326   6.017  1.8832 -0.3770 -0.9864
  807MOL0     H 8911   7.990  11.375   5.985 -3.2648 -2.3102  2.4798
  807MOL0     H 8912   7.917  11.445   5.844  1.2040  1.3291 -0.8415
  807MOL0     H 8913   7.959  11.674   5.894  1.2169 -0.8358 -2.1854
  807MOL0     H 8914   7.964  11.641   6.070  2.6580  2.4134 -0.1073
  807MOL0     H 8915   8.174  11.533   5.882  1.6737  4.1173 -1.0226
  807MOL0     H 8916   8.172  11.532   6.062 -0.5551  3.0140  3.1459
  807MOL0     H 8917   8.188  11.790   6.050  2.9057  1.4164  1.2265
  807MOL0     H 8918   8.202  11.759   5.872 -0.9077  1.2029  1.3708
  807MOL0     H 8919   8.372  11.686   6.103  1.6109 -3.0152 -1.0358
  807MOL0     H 8920   8.397  11.631   5.934 -0.5531  0.2202 -2.0663
  807MOL0     H 8921   8.383  11.926   6.003 -2.0101 -1.0721  0.8216
  807MOL0     H 8922   8.440  11.858   5.855 -1.7568  2.5203  0.9392
  807MOL0     H 8923   8.637  11.916   6.008  0.2590 -0.4340  2.1935
  807MOL0     H 8924   8.577  11.808   6.126 -1.4685 -2.7261  0.3466
  807MOL0     H 8925   7.603  11.264   5.950 -0.1130 -0.1810  0.7391
  807MOL0     H 8926   7.365  11.214   5.916  0.5510  0.4342 -1.1035
  807MOL0     H 8927   6.941  11.448   5.780 -2.3154  4.1062  0.9082
  807MOL0     H 8928   6.689  11.415   5.741 -1.3557 -0.8701  0.9500
  807MOL0     H 8929   4.830  11.047   5.218  0.7104  0.5739  1.5488
  807MOL0     H 8930   4.598  10.961   5.195  0.2762  0.0745 -0.7419
  807MOL0     H 8931   4.206  10.920   5.192  0.4418 -0.2266 -0.3208
  807MOL0     H 8932   3.954  10.858   5.195  0.5552  0.4150  0.4043
  807MOL0     H 8933   3.717  10.856   5.020  3.0654  0.1947 -0.7954
  807MOL0     H 8934   3.759  11.011   4.949 -0.6508  2.7729  0.4595
  807MOL0     H 8935   3.543  11.112   5.009 -0.1386 -0.5752  0.2860
  807MOL0     H 8936   3.500  10.995   5.124 -1.7636  0.5451 -0.4977
  807MOL0     H 8937   3.412  10.842   4.978 -1.3915  1.6890  1.6108
  807MOL0     H 8938   3.544  10.860   4.864  1.4525 -0.9013  2.3669
  807MOL0     H 8939   3.305  10.953   4.786 -1.6754  0.6460  1.2816
  807MOL0     H 8940   3.329  11.079   4.898 -1.6262 -2.8126  1.5788
  807MOL0     H 8941   3.566  11.189   4.554 -0.4481 -1.9463 -1.0677
  807MOL0     H 8942   3.844  11.246   5.141 -0.4839 -1.5865 -2.7729
  807MOL0     H 8943   3.994  11.434   5.159 -1.5493 -2.0884 -0.6585
  807MOL0     H 8944   4.161  11.395   5.212  1.1489 -0.5964  0.6653
  807MOL0     H 8945   4.114  11.398   5.039 -1.0850 -0.0557 -0.0291
  808MOL0     O 8946   5.314  10.681   4.691  0.5871  0.0919 -0.5169
  808MOL0     C 8947   5.321  10.753   4.592  0.7138  0.2780  0.8795
  808MOL0     O 8948   5.432  10.783   4.521  0.3012 -0.2329  0.1185
  808MOL0     C 8949   5.552  10.784   4.582  0.3000  0.2304 -1.0314
  808MOL0     C 8950   5.667  10.760   4.516  0.0774  0.6159 -0.6287
  808MOL0     C 8951   5.791  10.759   4.583 -0.0320  0.5510 -0.1297
  808MOL0     C 8952   5.802  10.793   4.722  0.0058  0.5279  0.7513
  808MOL0     O 8953   5.920  10.797   4.795  0.5229  0.6302 -0.2727
  808MOL0     C 8954   5.939  10.681   4.873  0.2343  0.4638 -0.4582
  808MOL0     C 8955   6.082  10.651   4.906 -0.0568 -0.0990  0.0518
  808MOL0     C 8956   6.086  10.598   5.049  0.7632 -0.3732  0.0443
  808MOL0     C 8957   6.215  10.515   5.066 -0.0004 -0.5838  0.0289
  808MOL0     C 8958   6.219  10.421   5.194  0.5134  0.3912 -0.1408
  808MOL0     C 8959   6.332  10.316   5.183 -0.2490  0.0061 -0.5722
  808MOL0     C 8960   6.466  10.382   5.195 -0.0408  0.3136  0.3146
  808MOL0     C 8961   6.489  10.447   5.327 -0.6174  0.6315 -0.3767
  808MOL0     N 8962   6.625  10.503   5.322 -0.3944  0.1422 -0.3982
  808MOL0     C 8963   6.738  10.437   5.375 -0.1855  0.2545 -0.6705
  808MOL0     C 8964   6.834  10.510   5.328 -0.0223 -0.1941 -0.4730
  808MOL0     C 8965   6.978  10.495   5.361 -0.2097  0.3045  0.3187
  808MOL0     C 8966   7.079  10.551   5.258  0.0395  0.7616  0.8478
  808MOL0     C 8967   7.220  10.554   5.316  0.2589  0.0202 -1.1548
  808MOL0     C 8968   7.327  10.607   5.220 -0.6125  0.2969 -0.4715
  808MOL0     O 8969   7.444  10.632   5.298  0.1270  0.6256  0.4562
  808MOL0     C 8970   7.556  10.649   5.232  0.1728  0.2655  0.2256
  808MOL0     C 8971   7.671  10.649   5.315 -0.2094 -0.7474  0.0940
  808MOL0     C 8972   7.808  10.666   5.268  0.0764  0.4252  0.6109
  808MOL0     C 8973   7.830  10.677   5.128  1.0268 -0.5400  0.7905
  808MOL0     C 8974   7.968  10.695   5.070  0.3860  0.3885  0.7064
  808MOL0     O 8975   8.077  10.715   5.153  0.2030  0.4068 -0.4139
  808MOL0     C 8976   8.203  10.760   5.112  0.9427  0.6566 -0.3485
  808MOL0     C 8977   8.232  10.807   4.980  0.1128  0.2297 -0.1801
  808MOL0     C 8978   8.365  10.861   4.955 -0.3170  0.6972  0.4325
  808MOL0     C 8979   8.462  10.858   5.057 -0.0561 -0.4937  0.0497
  808MOL0     O 8980   8.587  10.911   5.043  0.0095 -0.6844  0.0475
  808MOL0     C 8981   8.658  10.898   4.915  0.5642 -0.3749 -0.3448
  808MOL0     C 8982   8.807  10.912   4.956 -0.3662  0.3396  0.3419
  808MOL0     C 8983   8.846  11.049   4.999 -0.7878  0.0504  0.4223
  808MOL0     C 8984   8.995  11.053   5.041  0.0653 -0.1023 -0.0278
  808MOL0     C 8985   9.031  11.184   5.102 -0.3316 -0.2695  0.1152
  808MOL0     C 8986   9.167  11.180   5.172  0.3152  0.6929  0.4536
  808MOL0     C 8987   9.200  11.306   5.257 -0.3646  0.0894 -0.0442
  808MOL0     C 8988   9.338  11.307   5.324  0.3677 -0.9026 -0.2984
  808MOL0    Cl 8989   9.381  11.144   5.389  0.2995  0.3307 -0.0230
  808MOL0     C 8990   8.428  10.794   5.177 -0.1419  0.0898 -0.4469
  808MOL0     C 8991   8.298  10.746   5.207 -0.8735 -0.0634  0.2873
  808MOL0     O 8992   7.964  10.683   4.945  0.4646 -0.0031 -0.3994
  808MOL0     C 8993   7.715  10.672   5.040 -0.3789  0.1014  0.5088
  808MOL0     C 8994   7.584  10.666   5.094  0.0147  0.2387  0.0100
  808MOL0     N 8995   6.784  10.611   5.252 -0.1835 -0.0194 -0.9058
  808MOL0     N 8996   6.659  10.609   5.245  0.6710 -0.1721  0.1802
  808MOL0     C 8997   5.683  10.829   4.787 -0.9489  0.4333  0.7363
  808MOL0     C 8998   5.560  10.819   4.723 -0.5279  0.3997  0.7042
  808MOL0     C 8999   5.192  10.807   4.536 -0.2410 -0.0109  0.4296
  808MOL0     C 9000   5.201  10.885   4.422  0.4305  0.4050 -0.6711
  808MOL0     C 9001   5.086  10.937   4.360 -0.3195  0.4900  0.2362
  808MOL0     C 9002   4.958  10.911   4.404  0.7715  0.2706  0.9206
  808MOL0     O 9003   4.857  10.962   4.322 -0.1304  0.0976  0.4123
  808MOL0     C 9004   4.724  10.919   4.360  0.1902 -0.0155 -0.0675
  808MOL0     C 9005   4.620  11.003   4.288 -0.0202 -0.3342  0.2558
  808MOL0     C 9006   4.473  11.004   4.330  0.0610 -0.5276 -0.3486
  808MOL0     C 9007   4.402  10.873   4.282  0.2349  0.4876 -0.0496
  808MOL0     C 9008   4.262  10.864   4.341 -0.0210 -0.0088 -0.1299
  808MOL0     C 9009   4.156  10.877   4.393  0.9392  0.1014 -0.2119
  808MOL0     C 9010   4.948  10.851   4.524  0.2648  0.4365 -0.4786
  808MOL0     C 9011   5.062  10.800   4.596  0.0565 -0.9052  0.1838
  808MOL0     C 9012   5.037  10.741   4.733 -0.0952 -0.1543 -0.1601
  808MOL0     H 9013   5.656  10.731   4.412 -0.6892 -1.6540  0.0300
  808MOL0     H 9014   5.881  10.740   4.525  2.7016  2.7427  3.0213
  808MOL0     H 9015   5.879  10.699   4.963  1.6988  2.3433  0.2118
  808MOL0     H 9016   5.909  10.584   4.833  2.6592 -0.5137 -0.0713
  808MOL0     H 9017   6.147  10.739   4.905 -0.2485  0.0452  0.1472
  808MOL0     H 9018   6.119  10.581   4.830 -0.3069 -0.1506 -0.0223
  808MOL0     H 9019   6.001  10.534   5.071  1.2804 -1.3139 -0.6295
  808MOL0     H 9020   6.090  10.680   5.122 -2.6815  0.4964 -0.5826
  808MOL0     H 9021   6.234  10.448   4.982 -0.3100  1.3985 -1.6807
  808MOL0     H 9022   6.305  10.576   5.077 -0.2713 -0.2726  0.5667
  808MOL0     H 9023   6.222  10.486   5.282  2.1267  1.5021 -0.9790
  808MOL0     H 9024   6.129  10.359   5.188  1.1573 -0.6741  0.8401
  808MOL0     H 9025   6.322  10.232   5.253 -0.0140 -2.3416 -3.1640
  808MOL0     H 9026   6.324  10.258   5.090  1.2145 -1.2627  0.0504
  808MOL0     H 9027   6.485  10.450   5.111  1.0002  1.0656  1.1410
  808MOL0     H 9028   6.550  10.312   5.185 -2.4236 -3.2641  2.8346
  808MOL0     H 9029   6.419  10.530   5.340  0.6095  1.5643  0.5385
  808MOL0     H 9030   6.483  10.375   5.409  2.1267 -0.0933 -0.7025
  808MOL0     H 9031   6.739  10.352   5.442 -2.1480  1.5484  1.1373
  808MOL0     H 9032   6.990  10.552   5.454 -0.0301  0.2622  0.3217
  808MOL0     H 9033   7.010  10.393   5.385 -0.2643  0.1692 -0.1722
  808MOL0     H 9034   7.073  10.484   5.172 -0.9347  1.0844  0.6645
  808MOL0     H 9035   7.039  10.650   5.237 -3.5412 -0.7205 -0.0785
  808MOL0     H 9036   7.242  10.451   5.347  1.3241  0.7541  0.6679
  808MOL0     H 9037   7.222  10.614   5.407 -0.8768  2.7527 -2.8054
  808MOL0     H 9038   7.303  10.704   5.176 -1.7993 -0.2199 -0.9819
  808MOL0     H 9039   7.339  10.532   5.142 -0.2622  0.2147 -0.3441
  808MOL0     H 9040   7.656  10.628   5.420 -2.9672  2.0330  0.3700
  808MOL0     H 9041   7.890  10.659   5.338  0.8157 -1.1949 -0.3453
  808MOL0     H 9042   8.163  10.807   4.896 -0.3811 -1.1297  0.1948
  808MOL0     H 9043   8.386  10.899   4.855  0.1160 -0.8964 -0.1148
  808MOL0     H 9044   8.639  10.804   4.863  0.9030 -0.3868 -0.4492
  808MOL0     H 9045   8.621  10.977   4.850  0.0530 -1.6535 -1.6733
  808MOL0     H 9046   8.816  10.848   5.044  0.5498  3.3955  2.6572
  808MOL0     H 9047   8.873  10.866   4.882  0.3076 -1.5753  2.0550
  808MOL0     H 9048   8.834  11.110   4.909 -3.2925 -3.1248 -1.6173
  808MOL0     H 9049   8.778  11.089   5.074 -0.7131  0.7449  0.1312
  808MOL0     H 9050   9.053  11.023   4.953 -0.2409 -0.0998 -0.2325
  808MOL0     H 9051   9.022  10.976   5.113  0.5230 -0.1537 -0.2530
  808MOL0     H 9052   8.955  11.212   5.175  1.2029 -0.1176  1.7190
  808MOL0     H 9053   9.039  11.258   5.022 -2.6197  0.9169  0.8898
  808MOL0     H 9054   9.157  11.095   5.240  1.7432 -1.7854 -2.1672
  808MOL0     H 9055   9.237  11.171   5.088 -1.1175  3.6504 -1.2272
  808MOL0     H 9056   9.123  11.317   5.333 -1.3084  0.9782 -1.0854
  808MOL0     H 9057   9.192  11.393   5.190 -1.5821  0.9618  1.1755
  808MOL0     H 9058   9.417  11.337   5.255  0.4988 -0.4966  0.0260
  808MOL0     H 9059   9.350  11.388   5.398  1.6264  0.5188 -1.9699
  808MOL0     H 9060   8.508  10.788   5.250  1.2412 -0.7092 -1.9659
  808MOL0     H 9061   8.281  10.707   5.307  2.6772 -0.2141  0.9711
  808MOL0     H 9062   7.713  10.681   4.932 -3.4810 -0.4774  0.4147
  808MOL0     H 9063   7.501  10.678   5.025  0.1394  1.4954  0.0519
  808MOL0     H 9064   5.688  10.858   4.891 -0.9538 -1.7548  1.4057
  808MOL0     H 9065   5.471  10.853   4.776 -1.2812  0.4882 -0.5848
  808MOL0     H 9066   5.293  10.909   4.372  0.0610  1.1146 -1.0138
  808MOL0     H 9067   5.088  10.993   4.267 -3.5390  1.3802  0.5994
  808MOL0     H 9068   4.711  10.939   4.466  2.1233  0.1762  0.1649
  808MOL0     H 9069   4.710  10.813   4.335 -2.1406  0.2941 -0.2892
  808MOL0     H 9070   4.617  10.987   4.180  3.2008 -0.6703  0.1205
  808MOL0     H 9071   4.657  11.105   4.305 -0.6208  0.0387 -0.6162
  808MOL0     H 9072   4.426  11.095   4.290 -0.8933 -0.6394  0.4711
  808MOL0     H 9073   4.460  11.010   4.438 -1.0099  0.7564 -0.5197
  808MOL0     H 9074   4.401  10.868   4.173 -0.3053 -0.9551  0.0042
  808MOL0     H 9075   4.448  10.785   4.327  0.8823  1.4174  1.1821
  808MOL0     H 9076   4.069  10.896   4.452  0.8676  0.7953 -0.5310
  808MOL0     H 9077   4.856  10.845   4.580 -0.3824  5.3869 -0.5826
  808MOL0     H 9078   5.066  10.637   4.749 -0.9564 -0.7429 -2.0740
  808MOL0     H 9079   5.092  10.793   4.812 -0.6145  1.0533 -0.5708
  808MOL0     H 9080   4.931  10.762   4.750  0.3151  0.8717  1.3812
  809MOL0     O 9081   6.776   0.809   6.192  0.0923  0.2377  0.4213
  809MOL0     C 9082   6.712   0.893   6.131  0.5499 -0.7404 -0.4144
  809MOL0     O 9083   6.751   1.021   6.104 -0.8081  0.7003 -0.3392
  809MOL0     C 9084   6.874   1.058   6.140 -0.3890 -0.9027 -0.2587
  809MOL0     C 9085   6.931   1.038   6.261  0.2485 -0.0573  0.1861
  809MOL0     C 9086   7.057   1.073   6.292  0.1774 -0.4459 -0.0528
  809MOL0     C 9087   7.142   1.125   6.197 -0.2125  0.1480  0.5827
  809MOL0     O 9088   7.276   1.157   6.215  0.2359 -0.1893 -0.0475
  809MOL0     C 9089   7.359   1.057   6.272  0.5038  0.7807  0.1195
  809MOL0     C 9090   7.477   1.121   6.340 -0.4237  0.5590 -0.0530
  809MOL0     C 9091   7.447   1.223   6.456 -0.4403 -0.2987 -1.2203
  809MOL0     C 9092   7.573   1.271   6.531  0.0363  0.1645  0.7529
  809MOL0     C 9093   7.657   1.360   6.429 -0.3314  0.1463 -0.7801
  809MOL0     C 9094   7.755   1.448   6.518  0.1099  0.4523  0.7933
  809MOL0     C 9095   7.862   1.516   6.429 -0.9974 -0.1603 -0.0125
  809MOL0     C 9096   7.974   1.408   6.377 -0.1693  0.4518 -0.0482
  809MOL0     N 9097   8.097   1.392   6.454  0.3586  0.2226 -0.5457
  809MOL0     C 9098   8.155   1.266   6.483  0.4249 -0.0926  0.2211
  809MOL0     C 9099   8.276   1.288   6.525  0.0216  0.5836  0.1821
  809MOL0     C 9100   8.373   1.179   6.554  0.2145 -0.1026 -0.5353
  809MOL0     C 9101   8.496   1.254   6.605 -0.4423  0.6688 -0.7795
  809MOL0     C 9102   8.607   1.161   6.651  0.5166  0.5954  0.2458
  809MOL0     C 9103   8.717   1.253   6.683  0.0385 -0.6767  1.3419
  809MOL0     O 9104   8.840   1.183   6.714  0.1738  0.0058  0.1647
  809MOL0     C 9105   8.959   1.247   6.738 -0.0909 -0.0487 -0.7030
  809MOL0     C 9106   8.972   1.385   6.749 -0.1323 -0.3007  1.0595
  809MOL0     C 9107   9.095   1.446   6.781  0.4084  0.4750  0.7552
  809MOL0     C 9108   9.205   1.357   6.792  0.2038  0.5708 -0.7152
  809MOL0     C 9109   9.337   1.394   6.845 -0.0899 -0.5919  0.3385
  809MOL0     O 9110   9.350   1.525   6.878  0.6448 -0.5350  0.2729
  809MOL0     C 9111   9.473   1.577   6.885 -0.4525  0.7511 -0.0060
  809MOL0     C 9112   9.519   1.605   7.015  0.8950  0.6982  0.2123
  809MOL0     C 9113   9.654   1.636   7.040  0.1137  0.4481  0.8708
  809MOL0     C 9114   9.751   1.618   6.938 -0.5908 -0.2457 -0.6633
  809MOL0     O 9115   9.882   1.646   6.969 -0.4161 -0.7124 -0.2958
  809MOL0     C 9116   9.975   1.631   6.867  0.7599 -0.2488  0.4836
  809MOL0     C 9117  10.055   1.504   6.862  0.0955 -0.5534  0.4037
  809MOL0     C 9118  10.159   1.527   6.755  1.0193  0.2404  0.3354
  809MOL0     C 9119  10.254   1.408   6.753  0.2519  0.7304 -0.6881
  809MOL0     C 9120  10.358   1.419   6.647 -0.7307 -0.7883  0.3007
  809MOL0     C 9121  10.492   1.341   6.671  0.3492 -0.0684  0.5457
  809MOL0     C 9122  10.487   1.190   6.699 -0.2075  0.9362 -0.0865
  809MOL0     C 9123  10.439   1.123   6.569  0.4550 -0.1066  0.0222
  809MOL0    Cl 9124  10.364   0.981   6.614  0.4592  0.1242  0.9480
  809MOL0     C 9125   9.705   1.575   6.812  0.9627 -0.2356  0.3731
  809MOL0     C 9126   9.565   1.559   6.784 -0.3736 -0.9585 -0.1029
  809MOL0     O 9127   9.426   1.310   6.853 -0.1926  0.4972  0.7261
  809MOL0     C 9128   9.190   1.219   6.773 -0.4146  0.2656 -0.6973
  809MOL0     C 9129   9.065   1.159   6.754 -0.4040 -0.6679 -0.8919
  809MOL0     N 9130   8.293   1.430   6.519 -0.3847 -0.3776  0.4562
  809MOL0     N 9131   8.183   1.496   6.486  0.0372  0.7489 -0.1571
  809MOL0     C 9132   7.092   1.131   6.061  0.0180 -0.1351  0.3465
  809MOL0     C 9133   6.959   1.093   6.039 -0.1929  0.1082  0.9790
  809MOL0     C 9134   6.563   0.881   6.101  0.2892  0.3336  0.1071
  809MOL0     C 9135   6.503   0.976   6.018  0.1789 -0.5805 -0.2465
  809MOL0     C 9136   6.371   0.970   5.978  0.1198  0.4074  0.0060
  809MOL0     C 9137   6.289   0.872   6.022  0.6288  0.1025  0.3523
  809MOL0     O 9138   6.164   0.867   5.967  0.1548  0.7327 -1.0454
  809MOL0     C 9139   6.078   0.758   6.010  0.3277  0.7025 -0.8884
  809MOL0     C 9140   5.969   0.768   5.909  0.6574  0.6343 -0.4142
  809MOL0     C 9141   5.860   0.869   5.936  0.0784  0.1007 -0.3485
  809MOL0     C 9142   5.758   0.884   5.821 -0.2465  0.4443 -0.1397
  809MOL0     C 9143   5.675   0.761   5.814 -0.0194 -0.1451 -0.1060
  809MOL0     C 9144   5.602   0.668   5.823  0.1749  1.3818 -0.1205
  809MOL0     C 9145   6.344   0.771   6.105  0.8361  0.4605  0.6485
  809MOL0     C 9146   6.476   0.775   6.146 -0.6448  0.2270  0.2671
  809MOL0     C 9147   6.523   0.667   6.239 -0.1895 -0.0705  0.4138
  809MOL0     H 9148   6.873   0.991   6.340  2.0490 -3.4313 -0.3199
  809MOL0     H 9149   7.087   1.043   6.393 -1.1663 -2.7285 -0.2554
  809MOL0     H 9150   7.306   0.996   6.345  0.1549 -3.4934 -3.3256
  809MOL0     H 9151   7.382   0.986   6.192 -0.9718 -0.1991  0.5419
  809MOL0     H 9152   7.538   1.166   6.261  3.3355 -1.1419  1.6050
  809MOL0     H 9153   7.533   1.036   6.382  2.1489  0.3111 -3.5331
  809MOL0     H 9154   7.385   1.174   6.531  1.0457 -0.3970 -0.0295
  809MOL0     H 9155   7.390   1.310   6.423  0.2655  1.2665  1.4571
  809MOL0     H 9156   7.531   1.326   6.616 -1.6335 -1.1101  0.7923
  809MOL0     H 9157   7.623   1.190   6.585 -1.9281 -1.7418 -0.1651
  809MOL0     H 9158   7.709   1.287   6.366 -0.0205  1.0217 -1.5546
  809MOL0     H 9159   7.596   1.422   6.362 -1.6597 -0.7874 -0.4866
  809MOL0     H 9160   7.706   1.522   6.582 -1.0032  1.2029 -0.8663
  809MOL0     H 9161   7.817   1.389   6.586  0.5302 -0.4598 -0.3494
  809MOL0     H 9162   7.902   1.601   6.485  1.0379 -0.9465 -0.2133
  809MOL0     H 9163   7.814   1.562   6.341  0.1206 -0.6711 -0.9064
  809MOL0     H 9164   7.923   1.312   6.360 -1.8765  1.6290 -2.1110
  809MOL0     H 9165   8.001   1.429   6.273 -2.1973 -0.3598 -0.7892
  809MOL0     H 9166   8.101   1.176   6.455  0.4195  0.0489 -0.2327
  809MOL0     H 9167   8.334   1.115   6.634  0.8449 -2.5254 -2.0610
  809MOL0     H 9168   8.391   1.124   6.461 -2.6350 -2.4634  0.1772
  809MOL0     H 9169   8.536   1.303   6.516  0.8247 -0.2308 -0.7260
  809MOL0     H 9170   8.470   1.328   6.681  1.5643  0.1040  0.5106
  809MOL0     H 9171   8.634   1.100   6.565  0.3627 -1.4282  1.5683
  809MOL0     H 9172   8.579   1.095   6.734  1.9750  0.2629  0.4867
  809MOL0     H 9173   8.682   1.319   6.763 -1.7391  0.1880 -0.0782
  809MOL0     H 9174   8.728   1.318   6.596 -2.6420  1.5092  2.4782
  809MOL0     H 9175   8.888   1.452   6.735  0.1927 -0.1700 -0.5555
  809MOL0     H 9176   9.118   1.551   6.793 -1.4773  1.0823 -0.4170
  809MOL0     H 9177   9.446   1.632   7.091  1.7463  2.2413  0.5479
  809MOL0     H 9178   9.704   1.665   7.132  0.1697  0.6155  0.7884
  809MOL0     H 9179   9.933   1.637   6.767  4.1672 -2.3752 -1.2599
  809MOL0     H 9180  10.032   1.724   6.873 -1.0497  1.2193 -2.6565
  809MOL0     H 9181  10.108   1.483   6.955  1.3845 -1.5502 -0.5291
  809MOL0     H 9182   9.996   1.414   6.840  2.4035 -1.7225 -1.4762
  809MOL0     H 9183  10.108   1.532   6.658 -1.0513 -1.1714  1.2754
  809MOL0     H 9184  10.209   1.622   6.776  2.1077 -0.2537  0.0592
  809MOL0     H 9185  10.192   1.318   6.745 -3.8793  3.2612 -0.1346
  809MOL0     H 9186  10.295   1.406   6.855 -0.3702 -3.3463 -0.3384
  809MOL0     H 9187  10.388   1.524   6.640 -0.9655 -0.7274  0.1940
  809MOL0     H 9188  10.316   1.383   6.552  0.0382 -1.9228  0.3739
  809MOL0     H 9189  10.559   1.366   6.588  1.6967 -1.3905  1.1914
  809MOL0     H 9190  10.542   1.381   6.760  1.1263 -0.6806  0.3879
  809MOL0     H 9191  10.430   1.157   6.786 -1.8579  2.7260 -0.4255
  809MOL0     H 9192  10.588   1.154   6.720  0.0391  0.7823 -1.4479
  809MOL0     H 9193  10.372   1.189   6.512  2.5801  1.0360 -1.3276
  809MOL0     H 9194  10.525   1.100   6.504  0.1783  0.1946 -0.4627
  809MOL0     H 9195   9.769   1.564   6.724 -0.1162  0.1389 -0.4891
  809MOL0     H 9196   9.531   1.529   6.685 -0.3721  1.9413 -1.0758
  809MOL0     H 9197   9.270   1.145   6.772 -0.9471 -0.3196 -0.6411
  809MOL0     H 9198   9.052   1.052   6.742 -3.7345 -0.4819  0.0085
  809MOL0     H 9199   7.153   1.162   5.976  0.1594  1.5452  1.0164
  809MOL0     H 9200   6.918   1.102   5.939  0.6781  1.4426  0.7101
  809MOL0     H 9201   6.563   1.060   5.984  2.0790 -1.8749 -0.2676
  809MOL0     H 9202   6.333   1.050   5.916 -0.0270  0.0559 -0.3633
  809MOL0     H 9203   6.038   0.780   6.110 -2.2246  0.5592 -1.7954
  809MOL0     H 9204   6.123   0.660   5.993 -0.8208 -0.5174  2.2003
  809MOL0     H 9205   5.919   0.674   5.881 -1.0291  1.2312  0.4295
  809MOL0     H 9206   6.007   0.807   5.814 -2.5742  0.7298 -1.8318
  809MOL0     H 9207   5.918   0.961   5.948  1.0879 -0.2836 -1.9700
  809MOL0     H 9208   5.806   0.839   6.026  0.1659  1.8486  0.3380
  809MOL0     H 9209   5.698   0.972   5.843 -0.1964  0.7078 -0.9950
  809MOL0     H 9210   5.822   0.900   5.733 -1.6328  1.6967 -0.9652
  809MOL0     H 9211   5.528   0.591   5.828  2.1465 -0.5101  1.1926
  809MOL0     H 9212   6.288   0.687   6.144  1.3855  0.7461  2.1491
  809MOL0     H 9213   6.587   0.593   6.190  1.7728  1.8872 -0.1246
  809MOL0     H 9214   6.593   0.698   6.317  2.1747  0.8714 -1.9262
  809MOL0     H 9215   6.443   0.625   6.300  0.7534 -2.4309  0.1486
  810MOL0     O 9216   6.053  10.425   8.017  0.5688 -0.8034  0.2364
  810MOL0     C 9217   6.030  10.302   8.023 -0.7693 -0.6926  0.2806
  810MOL0     O 9218   6.122  10.209   7.978 -0.5268 -0.2191 -0.0472
  810MOL0     C 9219   6.253  10.236   7.959 -0.0629  0.2916 -0.0324
  810MOL0     C 9220   6.331  10.174   7.850  0.1820 -0.1072 -0.0058
  810MOL0     C 9221   6.462  10.232   7.832  0.5684 -0.5744  0.0530
  810MOL0     C 9222   6.523  10.317   7.919 -0.0303  0.2963 -0.2946
  810MOL0     O 9223   6.646  10.368   7.883  0.3534 -0.3662 -0.3204
  810MOL0     C 9224   6.701  10.469   7.968  0.3371  0.2358 -0.1273
  810MOL0     C 9225   6.823  10.534   7.900  0.3894  0.1759 -0.8710
  810MOL0     C 9226   6.910  10.427   7.828  0.1738 -0.0705 -1.4173
  810MOL0     C 9227   6.995  10.361   7.938 -0.0362 -0.4724  0.1511
  810MOL0     C 9228   7.105  10.264   7.871  0.6119  0.6247  0.0992
  810MOL0     C 9229   7.216  10.335   7.793  0.0340  0.1947  0.2636
  810MOL0     C 9230   7.347  10.254   7.775 -0.0003  0.1131 -0.4730
  810MOL0     C 9231   7.452  10.340   7.709  0.5828  0.5834 -0.3252
  810MOL0     N 9232   7.573  10.262   7.689  0.0868  0.4354  0.4794
  810MOL0     C 9233   7.590  10.147   7.623 -0.6844  0.9150  0.0522
  810MOL0     C 9234   7.716  10.109   7.643  0.8236 -0.0688 -0.2628
  810MOL0     C 9235   7.772   9.989   7.589 -0.1799  0.0595  0.6801
  810MOL0     C 9236   7.860  10.000   7.457  0.3974  0.6037  1.0660
  810MOL0     C 9237   8.017   9.989   7.481  0.8813  0.2400  0.8538
  810MOL0     C 9238   8.079  10.070   7.600 -0.8020  0.3289 -0.2384
  810MOL0     O 9239   8.220  10.037   7.598 -0.4484  0.0041  0.7981
  810MOL0     C 9240   8.307  10.133   7.642  0.0541 -0.0901  0.5057
  810MOL0     C 9241   8.437  10.147   7.588  0.2470 -0.3152  0.3121
  810MOL0     C 9242   8.515  10.255   7.629 -0.5510  0.0195 -0.1035
  810MOL0     C 9243   8.470  10.354   7.713  0.2019  0.0066  0.1475
  810MOL0     C 9244   8.562  10.466   7.748 -0.1443 -0.5150 -0.7434
  810MOL0     O 9245   8.639  10.515   7.650 -0.0879 -0.8258 -0.1614
  810MOL0     C 9246   8.742  10.606   7.678 -0.4139  0.1807  0.7687
  810MOL0     C 9247   8.716  10.741   7.713 -0.1041 -0.1910 -0.5295
  810MOL0     C 9248   8.824  10.816   7.765  0.2924  0.9307 -0.0135
  810MOL0     C 9249   8.954  10.763   7.770 -0.1467 -1.0738 -0.3408
  810MOL0     O 9250   9.065  10.838   7.802 -0.2088  0.8330  0.5186
  810MOL0     C 9251   9.058  10.985   7.797 -0.1246 -0.3845 -0.1047
  810MOL0     C 9252   9.187  11.058   7.822 -0.0629 -0.6086 -0.5782
  810MOL0     C 9253   9.302  10.992   7.736  1.2133 -0.8887  0.7334
  810MOL0     C 9254   9.423  11.092   7.742  0.4188  0.3665  0.0516
  810MOL0     C 9255   9.556  11.019   7.699  0.5754  0.6983  0.0396
  810MOL0     C 9256   9.675  11.116   7.670  0.1137  0.0322  0.3685
  810MOL0     C 9257   9.787  11.040   7.607 -0.2579 -0.3163 -0.9457
  810MOL0     C 9258   9.918  11.114   7.608 -0.5441 -0.0005 -0.5015
  810MOL0    Cl 9259   9.922  11.263   7.508 -0.3998 -0.3746  0.1641
  810MOL0     C 9260   8.979  10.634   7.734  0.3601  0.2753 -0.7180
  810MOL0     C 9261   8.872  10.554   7.688  0.2165 -0.4742 -0.6402
  810MOL0     O 9262   8.564  10.507   7.868 -0.2324 -0.1842 -0.6355
  810MOL0     C 9263   8.336  10.344   7.758 -0.9845  0.0586 -0.5425
  810MOL0     C 9264   8.264  10.229   7.733  0.2147 -0.3813  0.3933
  810MOL0     N 9265   7.787  10.204   7.717 -0.2080 -0.0837 -0.4666
  810MOL0     N 9266   7.701  10.291   7.737  0.2908  0.1733  0.4842
  810MOL0     C 9267   6.448  10.356   8.025  0.8150  0.0163 -0.5419
  810MOL0     C 9268   6.316  10.328   8.034 -0.5312 -0.1373 -0.4537
  810MOL0     C 9269   5.906  10.240   8.072  0.4751 -0.8793 -0.3048
  810MOL0     C 9270   5.881  10.096   8.089 -0.0944  0.3752  0.2023
  810MOL0     C 9271   5.764  10.045   8.149 -0.5997 -0.5120  0.2872
  810MOL0     C 9272   5.673  10.125   8.211  0.2941 -0.2427 -0.0479
  810MOL0     O 9273   5.558  10.078   8.284  0.2422  0.1171  0.3028
  810MOL0     C 9274   5.538   9.937   8.296  0.6590  0.0183  0.2062
  810MOL0     C 9275   5.437   9.932   8.414  0.2414  0.7825  0.3420
  810MOL0     C 9276   5.397   9.789   8.456 -0.4730  0.7575  0.3590
  810MOL0     C 9277   5.319   9.785   8.591  0.4229  0.2305 -0.1874
  810MOL0     C 9278   5.411   9.783   8.711 -0.3138 -0.6032  0.2855
  810MOL0     C 9279   5.498   9.793   8.799  0.2938 -0.3375  0.9866
  810MOL0     C 9280   5.690  10.258   8.198 -0.3306 -0.2403 -0.7860
  810MOL0     C 9281   5.800  10.315   8.124 -0.2333  0.0307  0.2600
  810MOL0     C 9282   5.798  10.469   8.113  0.7142 -0.5651 -0.2861
  810MOL0     H 9283   6.285  10.098   7.788 -3.0723  2.5906 -1.2124
  810MOL0     H 9284   6.525  10.187   7.756  0.0807 -0.8213 -0.2049
  810MOL0     H 9285   6.634  10.549   7.999 -0.8333 -1.6058  2.4846
  810MOL0     H 9286   6.736  10.419   8.059 -1.7421 -0.5512  0.2839
  810MOL0     H 9287   6.876  10.600   7.969 -1.8367 -0.0697  1.2063
  810MOL0     H 9288   6.774  10.595   7.823 -1.2488  0.8905  0.6920
  810MOL0     H 9289   6.984  10.479   7.767 -0.4904  3.0572  0.2263
  810MOL0     H 9290   6.853  10.356   7.767 -0.0634  1.0159 -2.5146
  810MOL0     H 9291   7.053  10.437   7.989 -2.0041  0.8075  0.5957
  810MOL0     H 9292   6.932  10.291   7.994 -0.4562 -0.7704 -0.6720
  810MOL0     H 9293   7.158  10.222   7.957  0.7562 -1.3259 -0.8859
  810MOL0     H 9294   7.061  10.181   7.814  0.2799  0.4045  0.6632
  810MOL0     H 9295   7.186  10.365   7.692  0.7634  2.1710  0.5919
  810MOL0     H 9296   7.255  10.425   7.841  3.7291  0.3677 -2.5855
  810MOL0     H 9297   7.335  10.165   7.713 -2.2929 -0.6298  0.9152
  810MOL0     H 9298   7.379  10.223   7.875 -0.2738  3.4132  0.7884
  810MOL0     H 9299   7.413  10.396   7.623 -2.2109  3.8579  2.7433
  810MOL0     H 9300   7.474  10.419   7.782  1.0466  2.0513 -1.9781
  810MOL0     H 9301   7.518  10.091   7.564  0.2832 -0.6200  0.2714
  810MOL0     H 9302   7.838   9.947   7.666 -0.1212 -1.3025 -0.0668
  810MOL0     H 9303   7.692   9.915   7.577  1.8181 -2.2560  0.8704
  810MOL0     H 9304   7.831   9.915   7.396 -0.0559  1.4579  0.0600
  810MOL0     H 9305   7.835  10.090   7.400  2.3525 -0.4761 -1.7450
  810MOL0     H 9306   8.068  10.018   7.388  2.4393 -1.3291  1.1830
  810MOL0     H 9307   8.037   9.883   7.496  1.6657  0.1223 -0.8154
  810MOL0     H 9308   8.041  10.043   7.699  1.1281  1.0404  0.7497
  810MOL0     H 9309   8.059  10.176   7.582 -3.8666  0.1641  1.6022
  810MOL0     H 9310   8.475  10.084   7.508 -1.0003 -2.1004  1.0358
  810MOL0     H 9311   8.618  10.246   7.594 -0.8892 -0.2090 -1.0887
  810MOL0     H 9312   8.619  10.785   7.691  0.3949  3.1319  2.7695
  810MOL0     H 9313   8.807  10.921   7.786 -0.0093  0.5421  1.8838
  810MOL0     H 9314   9.030  11.010   7.694 -0.1027 -0.3562 -0.1036
  810MOL0     H 9315   8.979  11.022   7.863 -1.1877  0.3482 -1.7194
  810MOL0     H 9316   9.169  11.165   7.812  0.4247 -0.5923 -1.3449
  810MOL0     H 9317   9.203  11.044   7.930  0.6881 -0.4246 -0.6554
  810MOL0     H 9318   9.328  10.895   7.778 -0.8858 -2.7981 -1.9636
  810MOL0     H 9319   9.258  10.989   7.636 -2.3095  1.9475  1.9844
  810MOL0     H 9320   9.439  11.121   7.846  2.0966  0.5583 -0.2245
  810MOL0     H 9321   9.405  11.184   7.686 -0.4616  0.4126  0.4034
  810MOL0     H 9322   9.532  10.940   7.626 -0.0513 -1.5566  2.5125
  810MOL0     H 9323   9.587  10.958   7.784 -2.1858 -0.8241  0.0747
  810MOL0     H 9324   9.655  11.197   7.600 -0.5477 -0.7105 -0.3275
  810MOL0     H 9325   9.699  11.179   7.757  0.4282 -0.2328  0.4735
  810MOL0     H 9326   9.751  11.001   7.511 -3.5839 -0.9699  0.4398
  810MOL0     H 9327   9.800  10.954   7.674 -2.0669  0.3464  0.3077
  810MOL0     H 9328   9.955  11.138   7.707  0.1737  0.6726 -0.9215
  810MOL0     H 9329   9.994  11.046   7.568  0.7987  0.1330  1.7097
  810MOL0     H 9330   9.076  10.588   7.748 -0.2527 -0.3591  1.9907
  810MOL0     H 9331   8.889  10.455   7.646 -0.3886  0.0532 -2.1888
  810MOL0     H 9332   8.299  10.416   7.831 -1.6576 -2.6575  1.9890
  810MOL0     H 9333   8.167  10.222   7.782 -0.4406  0.1853 -0.7940
  810MOL0     H 9334   6.475  10.423   8.105 -2.0814  0.0591  0.5469
  810MOL0     H 9335   6.270  10.394   8.107  2.4264  0.8493  0.6834
  810MOL0     H 9336   5.961  10.028   8.062  0.0470 -0.1593  1.8409
  810MOL0     H 9337   5.759   9.936   8.142  0.3335 -0.9026  3.5511
  810MOL0     H 9338   5.625   9.876   8.321  0.6220 -0.7599 -1.4476
  810MOL0     H 9339   5.489   9.900   8.206 -0.6968  1.8030  0.1477
  810MOL0     H 9340   5.344   9.984   8.388 -0.3672 -0.4995 -0.1347
  810MOL0     H 9341   5.483   9.978   8.502 -0.9956 -2.6885  3.0789
  810MOL0     H 9342   5.486   9.726   8.466  0.4459  2.2304  1.8164
  810MOL0     H 9343   5.338   9.746   8.374  0.0672  0.6988 -0.0032
  810MOL0     H 9344   5.248   9.868   8.594  3.0382  2.5935  0.4477
  810MOL0     H 9345   5.264   9.690   8.585  2.4264 -1.0015  0.0762
  810MOL0     H 9346   5.568   9.802   8.880 -0.3806  1.0197  1.4481
  810MOL0     H 9347   5.623  10.322   8.255  2.6121  2.2983  0.1552
  810MOL0     H 9348   5.700  10.501   8.150 -1.1895 -2.8471 -2.9520
  810MOL0     H 9349   5.877  10.525   8.164  0.5182 -0.5003 -0.0483
  810MOL0     H 9350   5.788  10.500   8.008  3.1916  2.4886  0.2116
  811MOL0     O 9351   1.595   7.378  10.101  0.5248 -0.3938 -0.4057
  811MOL0     C 9352   1.561   7.444  10.198  0.1407 -0.8016  0.2629
  811MOL0     O 9353   1.431   7.485  10.224  0.7028 -0.1389  0.1470
  811MOL0     C 9354   1.354   7.479  10.112 -0.2937  0.6602 -0.2794
  811MOL0     C 9355   1.326   7.593  10.043  0.3797 -0.6386 -0.0496
  811MOL0     C 9356   1.223   7.594   9.950  0.7109  0.7078  0.5580
  811MOL0     C 9357   1.166   7.475   9.901 -0.5818 -0.4352 -0.4249
  811MOL0     O 9358   1.085   7.461   9.792  0.4341 -0.6524  0.3332
  811MOL0     C 9359   1.115   7.554   9.688  0.0377 -0.7750  0.3700
  811MOL0     C 9360   1.246   7.536   9.613  0.6673 -0.2841  0.4129
  811MOL0     C 9361   1.238   7.403   9.523  0.2836 -0.0292 -0.0117
  811MOL0     C 9362   1.255   7.269   9.599  0.6407  0.4253 -0.3530
  811MOL0     C 9363   1.400   7.252   9.649 -0.0461 -0.1789  0.3891
  811MOL0     C 9364   1.413   7.102   9.689 -0.2947  0.1148 -0.3303
  811MOL0     C 9365   1.540   7.065   9.767 -0.4186 -0.5891  0.1440
  811MOL0     C 9366   1.672   7.071   9.692  0.4882  0.1356  0.2768
  811MOL0     N 9367   1.764   6.999   9.780 -0.3533 -0.0601  0.1749
  811MOL0     C 9368   1.816   7.050   9.892  0.6908 -0.2355 -0.2913
  811MOL0     C 9369   1.881   6.949   9.959  0.0214 -0.0605  1.1123
  811MOL0     C 9370   1.953   6.969  10.093 -0.4811 -0.5731 -0.0809
  811MOL0     C 9371   2.098   6.939  10.052 -0.2403 -0.2971  0.1943
  811MOL0     C 9372   2.192   6.959  10.179 -0.4051 -0.1516  0.2484
  811MOL0     C 9373   2.339   6.921  10.155  0.5983 -0.0028  0.1840
  811MOL0     O 9374   2.392   7.021  10.063  0.2014  0.2950  0.2983
  811MOL0     C 9375   2.514   7.076  10.092 -0.5526  0.5595  1.1284
  811MOL0     C 9376   2.555   7.195  10.031  0.9021 -0.6990  0.0600
  811MOL0     C 9377   2.682   7.235  10.058  0.6931  0.3848  0.5576
  811MOL0     C 9378   2.774   7.166  10.143  0.8223 -0.0515  0.5682
  811MOL0     C 9379   2.915   7.219  10.172 -0.6037 -0.9450 -0.4455
  811MOL0     O 9380   2.954   7.337  10.109 -0.3037 -0.5449 -0.0528
  811MOL0     C 9381   3.084   7.375  10.112  0.0492  0.2634 -1.3670
  811MOL0     C 9382   3.181   7.293  10.051 -0.0327  0.0724  0.5236
  811MOL0     C 9383   3.312   7.334  10.057  0.0601  0.7683  0.3014
  811MOL0     C 9384   3.347   7.442  10.121 -1.0642  0.4375  0.8608
  811MOL0     O 9385   3.483   7.474  10.113  0.2566  0.5774  0.3774
  811MOL0     C 9386   3.513   7.610  10.158  0.4028  0.1723 -0.1837
  811MOL0     C 9387   3.654   7.643  10.120  0.1481  0.9702  0.1497
  811MOL0     C 9388   3.766   7.580  10.213  0.4373  0.1227 -0.1030
  811MOL0     C 9389   3.763   7.426  10.208  0.2606 -0.1226  0.0134
  811MOL0     C 9390   3.878   7.352  10.277 -0.2195 -0.1759 -0.7634
  811MOL0     C 9391   3.864   7.207  10.236  0.0594  0.1403 -0.0982
  811MOL0     C 9392   3.992   7.124  10.262  0.0731 -0.2751  0.0149
  811MOL0     C 9393   4.007   7.004  10.171 -0.0885  0.2938 -0.7365
  811MOL0    Cl 9394   4.156   6.921  10.215  0.5115 -0.0763 -0.3549
  811MOL0     C 9395   3.251   7.519  10.188  0.4241  0.2390  0.6746
  811MOL0     C 9396   3.117   7.490  10.183 -0.0451 -0.5689  0.1159
  811MOL0     O 9397   2.993   7.141  10.233 -0.1725  0.0268 -0.4202
  811MOL0     C 9398   2.733   7.042  10.199 -0.6754  0.3797  0.5953
  811MOL0     C 9399   2.607   7.001  10.159  0.5538  0.2968 -1.2501
  811MOL0     N 9400   1.872   6.835   9.880 -0.3762 -0.2992  0.3092
  811MOL0     N 9401   1.803   6.869   9.771  0.6764  0.8171 -0.3120
  811MOL0     C 9402   1.196   7.360   9.973  0.3714  0.6076  0.4355
  811MOL0     C 9403   1.284   7.361  10.082 -0.0536 -0.7223 -0.1247
  811MOL0     C 9404   1.665   7.512  10.275 -0.0491  0.5080  0.0185
  811MOL0     C 9405   1.628   7.608  10.366  0.3518  0.6362  0.0640
  811MOL0     C 9406   1.717   7.686  10.440  0.1516 -0.1756  0.7266
  811MOL0     C 9407   1.850   7.671  10.429 -0.0302  0.5220 -0.1544
  811MOL0     O 9408   1.929   7.758  10.500  0.1391 -0.5286 -0.4832
  811MOL0     C 9409   2.061   7.772  10.452 -0.0017 -0.0643 -1.0992
  811MOL0     C 9410   2.074   7.838  10.314  0.4876 -0.3529 -0.2387
  811MOL0     C 9411   2.214   7.821  10.262 -0.4197 -0.0407  0.3776
  811MOL0     C 9412   2.241   7.679  10.222  0.6687  0.3305 -0.0004
  811MOL0     C 9413   2.168   7.646  10.105 -0.5798  0.9183 -0.3103
  811MOL0     C 9414   2.100   7.625  10.004 -0.0068  0.3560 -0.4923
  811MOL0     C 9415   1.892   7.557  10.353 -0.4204 -0.1682 -0.8039
  811MOL0     C 9416   1.801   7.479  10.272  0.3732  0.3302  0.4460
  811MOL0     C 9417   1.861   7.367  10.182 -0.8357  0.2148 -0.2811
  811MOL0     H 9418   1.364   7.689  10.077 -0.8835 -0.2917  0.4282
  811MOL0     H 9419   1.199   7.694   9.917  0.4953  0.7965  0.9845
  811MOL0     H 9420   1.034   7.552   9.616  0.7008 -1.1954 -0.3799
  811MOL0     H 9421   1.113   7.656   9.730  0.3492 -1.6467  2.6429
  811MOL0     H 9422   1.328   7.537   9.685 -2.8247 -0.6832  4.9142
  811MOL0     H 9423   1.257   7.611   9.534 -1.9643  0.5822  0.7544
  811MOL0     H 9424   1.325   7.406   9.457 -0.5216 -0.9358 -1.1510
  811MOL0     H 9425   1.144   7.392   9.467 -1.2322  1.9879  1.9360
  811MOL0     H 9426   1.178   7.246   9.673  1.3621 -0.5273  0.1267
  811MOL0     H 9427   1.237   7.199   9.517 -0.1473  0.6854 -0.4149
  811MOL0     H 9428   1.475   7.275   9.572 -0.0785 -0.7472  0.1831
  811MOL0     H 9429   1.414   7.320   9.733  0.1022 -0.4600  0.5911
  811MOL0     H 9430   1.328   7.074   9.752 -1.9792  1.0991 -2.0978
  811MOL0     H 9431   1.403   7.040   9.599  2.0033 -2.2798  0.8899
  811MOL0     H 9432   1.523   6.960   9.791 -1.6846 -0.3350  0.4132
  811MOL0     H 9433   1.549   7.126   9.857  3.2878  0.0011 -0.4609
  811MOL0     H 9434   1.669   7.018   9.596  1.4220  1.9357 -0.7955
  811MOL0     H 9435   1.701   7.173   9.668 -0.4602  0.2246 -0.5770
  811MOL0     H 9436   1.793   7.146   9.938 -0.8391 -0.9679  0.5434
  811MOL0     H 9437   1.959   7.072  10.131 -0.1392 -0.6266  0.0152
  811MOL0     H 9438   1.918   6.911  10.178  0.6891 -0.4486  0.5140
  811MOL0     H 9439   2.105   6.835  10.019 -0.7844 -0.3067  0.1006
  811MOL0     H 9440   2.113   7.006   9.968 -0.5482  2.8346  2.4753
  811MOL0     H 9441   2.147   6.902  10.260  0.9894 -1.4234  0.1808
  811MOL0     H 9442   2.184   7.060  10.219  0.2367 -0.1090  0.2893
  811MOL0     H 9443   2.334   6.825  10.104  0.8593  0.4666 -0.7434
  811MOL0     H 9444   2.390   6.901  10.250  1.8864 -3.8042 -1.1492
  811MOL0     H 9445   2.482   7.250   9.973 -1.3398 -1.7575  1.7177
  811MOL0     H 9446   2.721   7.328  10.016 -1.0411  2.1557  2.6550
  811MOL0     H 9447   3.166   7.212   9.981 -0.5314  0.6020  0.0198
  811MOL0     H 9448   3.389   7.292   9.992  0.0919 -0.5440  1.1674
  811MOL0     H 9449   3.445   7.677  10.105  1.1394 -1.2883 -3.1957
  811MOL0     H 9450   3.513   7.614  10.267  0.5661 -1.3979 -0.1006
  811MOL0     H 9451   3.668   7.613  10.015 -1.5421  3.0304 -0.7433
  811MOL0     H 9452   3.663   7.750  10.141 -1.1274  0.8826  1.2171
  811MOL0     H 9453   3.865   7.615  10.184  0.0398  2.4073  1.0535
  811MOL0     H 9454   3.756   7.616  10.316  1.0337 -1.2209  0.4349
  811MOL0     H 9455   3.786   7.408  10.102  0.7171  1.4278 -0.1756
  811MOL0     H 9456   3.662   7.397  10.237  0.2058  1.6235  1.7502
  811MOL0     H 9457   3.864   7.368  10.384  2.3418  0.6781 -0.5026
  811MOL0     H 9458   3.975   7.396  10.252  0.7624  0.1074  2.9974
  811MOL0     H 9459   3.780   7.155  10.283  1.1616 -1.1695  0.4801
  811MOL0     H 9460   3.843   7.197  10.129  3.9221 -2.0694 -0.8501
  811MOL0     H 9461   3.990   7.089  10.366 -1.8111 -0.5569 -0.0856
  811MOL0     H 9462   4.085   7.180  10.254  1.6477 -2.7488 -0.0322
  811MOL0     H 9463   3.922   6.935  10.181  0.3287 -0.0687  0.4045
  811MOL0     H 9464   4.017   7.038  10.067 -2.9768 -0.1301 -1.2510
  811MOL0     H 9465   3.281   7.603  10.250  4.7345  2.0805 -3.2645
  811MOL0     H 9466   3.041   7.550  10.233  0.5403  0.9954 -0.7892
  811MOL0     H 9467   2.795   6.980  10.262 -0.6056  2.0329  2.2362
  811MOL0     H 9468   2.574   6.910  10.209  3.2694  1.3146  2.9561
  811MOL0     H 9469   1.142   7.276   9.932  0.9656  1.2077 -1.7010
  811MOL0     H 9470   1.300   7.281  10.153 -0.2284  1.3235  2.3544
  811MOL0     H 9471   1.523   7.633  10.382  0.7390  2.3621  0.0687
  811MOL0     H 9472   1.686   7.763  10.511  1.8940  1.4739 -0.1943
  811MOL0     H 9473   2.103   7.672  10.436  1.2004  0.6686 -2.8641
  811MOL0     H 9474   2.101   7.827  10.538 -2.5020 -0.3624  0.3650
  811MOL0     H 9475   2.059   7.947  10.316  3.2444  0.2085 -2.4187
  811MOL0     H 9476   1.997   7.796  10.248 -0.4800 -2.5322  2.1263
  811MOL0     H 9477   2.288   7.849  10.337 -2.3059  0.3999  2.1500
  811MOL0     H 9478   2.227   7.892  10.180  2.0378 -0.0311  0.7213
  811MOL0     H 9479   2.347   7.670  10.196  0.8573 -0.2397  0.9126
  811MOL0     H 9480   2.235   7.606  10.303  0.5743  1.6758  1.2458
  811MOL0     H 9481   2.036   7.610   9.919 -0.6226 -3.6928  0.4473
  811MOL0     H 9482   1.998   7.533  10.347 -0.1375  0.3628  1.2278
  811MOL0     H 9483   1.847   7.384  10.075 -2.0692 -0.9680 -0.3288
  811MOL0     H 9484   1.968   7.353  10.197 -0.9958  0.2461  1.0114
  811MOL0     H 9485   1.820   7.267  10.202  1.8445 -1.1229 -0.9166
  812MOL0     O 9486   8.608   5.825   4.451 -0.8105  0.0078 -0.0189
  812MOL0     C 9487   8.542   5.933   4.448  0.6605 -0.0098  0.0215
  812MOL0     O 9488   8.600   6.057   4.441 -0.6376 -0.1595  0.2841
  812MOL0     C 9489   8.736   6.058   4.436  0.6880  0.0588  0.3634
  812MOL0     C 9490   8.799   6.089   4.313  0.2362  0.4681  0.0314
  812MOL0     C 9491   8.946   6.076   4.302 -0.3051 -1.2080 -0.4371
  812MOL0     C 9492   9.024   6.043   4.420 -0.9210  0.0256  0.0097
  812MOL0     O 9493   9.161   6.040   4.422 -0.4383 -0.3043  0.2582
  812MOL0     C 9494   9.224   6.081   4.297  0.0530  0.2526 -0.2551
  812MOL0     C 9495   9.374   6.086   4.323  0.1377  0.3740  0.0444
  812MOL0     C 9496   9.401   6.219   4.391 -0.0121 -0.9437  0.0691
  812MOL0     C 9497   9.553   6.251   4.360  0.5914  0.2626 -0.0622
  812MOL0     C 9498   9.609   6.375   4.436 -0.2821 -0.6779 -0.6287
  812MOL0     C 9499   9.763   6.398   4.430  0.1550  0.0685  0.4273
  812MOL0     C 9500   9.790   6.537   4.486  0.4163 -0.1729  0.6841
  812MOL0     C 9501   9.931   6.599   4.464  0.5209 -0.6895  0.6113
  812MOL0     N 9502  10.025   6.573   4.564 -0.0912  0.2079  0.4382
  812MOL0     C 9503  10.089   6.668   4.643 -0.4553  0.3869  0.3856
  812MOL0     C 9504  10.170   6.590   4.720  0.3604  0.0740 -0.1461
  812MOL0     C 9505  10.267   6.644   4.821  0.1639 -0.4157 -0.0843
  812MOL0     C 9506  10.411   6.668   4.768 -0.7489 -0.4095 -0.0916
  812MOL0     C 9507  10.481   6.543   4.716  0.0346 -0.2306  0.2254
  812MOL0     C 9508  10.549   6.472   4.827  0.3100 -0.4114  0.7243
  812MOL0     O 9509  10.611   6.357   4.775  0.7273 -0.2631  0.2259
  812MOL0     C 9510  10.701   6.302   4.860 -0.0420  0.0203 -0.4772
  812MOL0     C 9511  10.798   6.228   4.802 -0.4087 -0.5916 -0.2453
  812MOL0     C 9512  10.899   6.172   4.880  0.6285  0.1328 -0.3503
  812MOL0     C 9513  10.904   6.186   5.020 -0.7191  0.1518  0.0236
  812MOL0     C 9514  11.005   6.134   5.117  0.2726  0.6095  0.7876
  812MOL0     O 9515  11.123   6.093   5.064 -0.5596 -0.2130 -0.6390
  812MOL0     C 9516  11.224   6.056   5.144 -0.3425 -0.9359 -0.4751
  812MOL0     C 9517  11.256   6.130   5.257  0.1792 -0.1636 -0.5736
  812MOL0     C 9518  11.354   6.085   5.341  0.5757 -0.5165  0.4510
  812MOL0     C 9519  11.429   5.977   5.311 -0.9283 -0.1921 -0.0314
  812MOL0     O 9520  11.518   5.916   5.396  0.0407 -0.1770 -0.2195
  812MOL0     C 9521  11.622   5.996   5.448 -0.0225 -0.5703  0.0302
  812MOL0     C 9522  11.721   5.901   5.520 -0.1477 -0.1896  0.0762
  812MOL0     C 9523  11.846   5.976   5.574 -0.1298  0.2567 -0.1845
  812MOL0     C 9524  11.919   5.870   5.653 -0.0942 -0.1655 -0.7664
  812MOL0     C 9525  12.047   5.929   5.726  0.4887 -0.2019  0.3083
  812MOL0     C 9526  12.139   5.809   5.760  0.4237 -0.4333 -0.1622
  812MOL0     C 9527  12.269   5.855   5.823 -0.4403 -0.4534  0.6849
  812MOL0     C 9528  12.347   5.745   5.901  1.5167 -0.1540 -0.9248
  812MOL0    Cl 9529  12.406   5.621   5.787 -0.3541  0.1409 -0.1941
  812MOL0     C 9530  11.406   5.905   5.194  0.4554  0.2575  0.5502
  812MOL0     C 9531  11.296   5.948   5.108  0.1029  0.5753 -0.4651
  812MOL0     O 9532  10.978   6.136   5.240  0.3774  0.2868  1.0607
  812MOL0     C 9533  10.798   6.263   5.075  0.6648  0.3344  0.1074
  812MOL0     C 9534  10.697   6.322   4.999 -0.2029 -0.0361 -0.4542
  812MOL0     N 9535  10.160   6.461   4.679  0.1381  0.5375 -0.4537
  812MOL0     N 9536  10.072   6.451   4.587  0.2561  0.4374  0.1052
  812MOL0     C 9537   8.962   6.016   4.543  0.3651 -0.1644  0.2945
  812MOL0     C 9538   8.821   6.034   4.554 -0.3456  0.1567  0.1246
  812MOL0     C 9539   8.391   5.924   4.439  0.8438  0.5764 -0.2472
  812MOL0     C 9540   8.330   5.802   4.388 -0.0660  0.6922 -0.1323
  812MOL0     C 9541   8.192   5.798   4.357  0.2442 -0.7762  0.9844
  812MOL0     C 9542   8.110   5.906   4.394 -1.0390 -0.1346  0.0426
  812MOL0     O 9543   7.975   5.899   4.372  0.6080  0.4629  0.0635
  812MOL0     C 9544   7.904   5.817   4.469  0.0507  0.2216  0.7898
  812MOL0     C 9545   7.802   5.889   4.561  0.6060 -0.4328  0.9846
  812MOL0     C 9546   7.697   5.953   4.475  0.1521 -0.2084 -0.3351
  812MOL0     C 9547   7.632   6.077   4.537  0.9025  0.0705  0.8919
  812MOL0     C 9548   7.569   6.039   4.663  0.3337  0.6762 -0.1807
  812MOL0     C 9549   7.503   6.002   4.756 -0.6547  0.1294 -0.2576
  812MOL0     C 9550   8.163   6.018   4.451  0.7843 -0.6045  0.0977
  812MOL0     C 9551   8.304   6.034   4.474 -0.1476  0.3073  0.6634
  812MOL0     C 9552   8.358   6.163   4.543 -0.1231  0.0611 -0.2901
  812MOL0     H 9553   8.745   6.092   4.219  0.1438 -1.1447 -0.0030
  812MOL0     H 9554   8.985   6.102   4.204  1.9621 -3.2804 -0.1725
  812MOL0     H 9555   9.199   6.017   4.212 -4.4560  3.2782 -1.5836
  812MOL0     H 9556   9.189   6.182   4.270 -1.0530 -0.3483 -1.1859
  812MOL0     H 9557   9.427   6.088   4.228  1.5963 -1.0133  0.7934
  812MOL0     H 9558   9.418   6.002   4.377 -1.4781 -0.2042  0.5372
  812MOL0     H 9559   9.382   6.199   4.497  0.9859 -1.9658  0.0770
  812MOL0     H 9560   9.346   6.302   4.347  0.2088 -0.6113  0.4098
  812MOL0     H 9561   9.608   6.159   4.381 -0.7557 -0.5796 -0.0830
  812MOL0     H 9562   9.570   6.280   4.255 -1.3135  2.3906  0.1288
  812MOL0     H 9563   9.557   6.463   4.397  0.4235 -1.1662 -2.7768
  812MOL0     H 9564   9.603   6.354   4.543  3.0526  1.1629  0.0580
  812MOL0     H 9565   9.822   6.328   4.488  0.5688  1.4543  1.7521
  812MOL0     H 9566   9.791   6.395   4.324 -0.7344 -0.5909  0.1934
  812MOL0     H 9567   9.763   6.554   4.590  4.5350  1.2867  1.7295
  812MOL0     H 9568   9.722   6.600   4.428  1.4536 -0.2666 -0.6811
  812MOL0     H 9569   9.972   6.558   4.372 -1.5069 -0.5809 -0.4101
  812MOL0     H 9570   9.920   6.706   4.446 -3.1848 -1.3832 -2.6303
  812MOL0     H 9571  10.071   6.774   4.635 -0.2175  0.4102  0.1576
  812MOL0     H 9572  10.227   6.741   4.853  0.4269 -0.3129 -0.0633
  812MOL0     H 9573  10.267   6.585   4.913 -0.3830  0.0782  0.2402
  812MOL0     H 9574  10.393   6.739   4.686 -2.6752 -1.2673 -0.4755
  812MOL0     H 9575  10.474   6.723   4.839 -0.4509 -0.7675 -0.0761
  812MOL0     H 9576  10.566   6.573   4.654 -0.6687 -0.2006 -0.7512
  812MOL0     H 9577  10.423   6.474   4.653  2.5329 -2.5620  0.2978
  812MOL0     H 9578  10.472   6.450   4.903 -1.4335 -0.3199 -0.9362
  812MOL0     H 9579  10.625   6.537   4.871  0.8954 -0.2492 -0.4968
  812MOL0     H 9580  10.791   6.218   4.694  1.5334  5.5307 -1.3153
  812MOL0     H 9581  10.974   6.110   4.831 -1.5477 -2.8924 -0.0655
  812MOL0     H 9582  11.209   6.222   5.288  0.5094  0.4971 -1.9661
  812MOL0     H 9583  11.374   6.128   5.439 -3.4291 -0.7704  1.5579
  812MOL0     H 9584  11.679   6.048   5.370  3.9407 -2.0327  1.6977
  812MOL0     H 9585  11.588   6.076   5.515  1.7450  0.4437 -0.2311
  812MOL0     H 9586  11.659   5.855   5.598 -0.3505 -0.1279 -0.0461
  812MOL0     H 9587  11.762   5.823   5.455  2.6183  0.5043  0.8765
  812MOL0     H 9588  11.909   6.016   5.493 -1.5586 -0.4892 -1.7415
  812MOL0     H 9589  11.808   6.059   5.635 -2.9145 -1.1475  0.1569
  812MOL0     H 9590  11.956   5.795   5.583  0.2798 -0.9175  0.2051
  812MOL0     H 9591  11.848   5.833   5.728 -1.6708 -1.4342 -2.7632
  812MOL0     H 9592  12.024   5.977   5.821 -0.5760  0.8763 -0.4761
  812MOL0     H 9593  12.107   5.997   5.665 -1.5635  0.9211 -0.5543
  812MOL0     H 9594  12.087   5.739   5.827 -1.0531  1.2384  0.5163
  812MOL0     H 9595  12.165   5.747   5.674 -1.4301  0.1436 -1.1848
  812MOL0     H 9596  12.262   5.951   5.876 -1.8471  0.9971 -1.9207
  812MOL0     H 9597  12.333   5.878   5.738  0.9377 -1.9152  1.2823
  812MOL0     H 9598  12.436   5.793   5.940  1.6969  1.2650 -2.9015
  812MOL0     H 9599  12.288   5.695   5.979  1.5239 -2.5905 -2.3681
  812MOL0     H 9600  11.468   5.817   5.185 -0.8356 -0.9943  2.8615
  812MOL0     H 9601  11.259   5.891   5.023 -0.3152  0.1879 -0.0328
  812MOL0     H 9602  10.796   6.274   5.183 -0.8854 -0.6337  0.2008
  812MOL0     H 9603  10.612   6.374   5.043  0.0524  0.5342 -0.6231
  812MOL0     H 9604   9.020   5.987   4.630 -1.0218  2.0502  2.0677
  812MOL0     H 9605   8.762   6.025   4.644 -1.6671  0.0420 -0.7239
  812MOL0     H 9606   8.387   5.713   4.363 -1.2790  0.5620 -2.7195
  812MOL0     H 9607   8.150   5.712   4.306  0.4457 -0.9198  1.0577
  812MOL0     H 9608   7.976   5.768   4.535 -1.2915  2.8147  4.5018
  812MOL0     H 9609   7.842   5.743   4.417 -0.2367 -1.2681  3.1126
  812MOL0     H 9610   7.859   5.958   4.624 -0.0530  0.2017  0.9057
  812MOL0     H 9611   7.753   5.812   4.621  2.9974 -0.3660  3.1829
  812MOL0     H 9612   7.630   5.873   4.442 -2.4691  1.9007 -0.4426
  812MOL0     H 9613   7.741   5.993   4.383 -1.4232  1.0293 -0.5852
  812MOL0     H 9614   7.708   6.154   4.557 -0.3962  1.5746  0.2577
  812MOL0     H 9615   7.554   6.121   4.474  2.0393  1.5678  0.4593
  812MOL0     H 9616   7.461   5.964   4.847 -2.3597 -2.6708 -2.0481
  812MOL0     H 9617   8.088   6.094   4.469  1.2367  1.2621 -4.4188
  812MOL0     H 9618   8.271   6.211   4.588  0.4475  1.1864 -0.3503
  812MOL0     H 9619   8.446   6.151   4.607 -0.3148  1.8650  0.3566
  812MOL0     H 9620   8.387   6.227   4.460 -0.7959 -0.2989 -0.8120
  813MOL0     O 9621   5.892   7.962   9.896 -0.1305  0.0553 -0.1266
  813MOL0     C 9622   5.841   7.918   9.995 -0.4594  0.6452 -0.0600
  813MOL0     O 9623   5.909   7.862  10.097  0.1945  0.4473  0.0876
  813MOL0     C 9624   6.047   7.850  10.083 -0.0229 -0.0306  0.1734
  813MOL0     C 9625   6.108   7.731  10.021  0.2117 -1.4617  0.0416
  813MOL0     C 9626   6.249   7.724  10.003 -0.2915  0.6481  0.8517
  813MOL0     C 9627   6.327   7.836  10.043  0.2465  0.1667 -0.2937
  813MOL0     O 9628   6.460   7.815  10.027  0.4205  0.4648 -0.0310
  813MOL0     C 9629   6.547   7.899  10.103 -0.1288  0.5667  0.0810
  813MOL0     C 9630   6.590   8.031  10.020 -0.7396  0.2342 -0.3193
  813MOL0     C 9631   6.654   8.127  10.110  0.0370 -0.1143 -0.0075
  813MOL0     C 9632   6.622   8.264  10.066  0.2976 -0.0218  0.2172
  813MOL0     C 9633   6.735   8.366  10.117 -0.3294  0.5566  0.0309
  813MOL0     C 9634   6.727   8.404  10.262  0.2652  0.2508  0.9355
  813MOL0     C 9635   6.799   8.535  10.300  1.0584 -0.1705 -0.2866
  813MOL0     C 9636   6.947   8.522  10.308  0.2066 -0.6569 -0.1911
  813MOL0     N 9637   6.987   8.476  10.440  0.0160 -0.0069 -0.7904
  813MOL0     C 9638   7.113   8.431  10.469 -0.3887 -0.2054  0.3398
  813MOL0     C 9639   7.111   8.407  10.605 -0.2295  0.0584  0.5658
  813MOL0     C 9640   7.214   8.361  10.701 -0.7387 -0.2264  0.3515
  813MOL0     C 9641   7.352   8.359  10.657 -0.1857  0.0739  0.5341
  813MOL0     C 9642   7.409   8.503  10.653 -0.0152 -0.6736 -0.4384
  813MOL0     C 9643   7.555   8.520  10.604  0.3168  0.2487  0.2175
  813MOL0     O 9644   7.645   8.439  10.683 -0.1144  0.8021 -0.2173
  813MOL0     C 9645   7.778   8.471  10.672  0.5398 -0.8958  0.0412
  813MOL0     C 9646   7.838   8.570  10.583 -0.0202 -0.4396 -0.5690
  813MOL0     C 9647   7.976   8.596  10.582 -0.6082 -0.3504 -0.5999
  813MOL0     C 9648   8.067   8.518  10.658  0.2399 -0.3965 -0.4671
  813MOL0     C 9649   8.212   8.539  10.655 -0.4216  0.8352  0.5722
  813MOL0     O 9650   8.252   8.654  10.588  0.6746  0.0360  0.0113
  813MOL0     C 9651   8.388   8.688  10.594 -0.3903 -0.1475  0.0570
  813MOL0     C 9652   8.429   8.776  10.699  0.2673  0.5124  0.6409
  813MOL0     C 9653   8.564   8.813  10.707 -0.0162  0.1708 -0.3040
  813MOL0     C 9654   8.656   8.775  10.607  1.1886  0.5266  0.0715
  813MOL0     O 9655   8.789   8.804  10.633 -0.4875 -0.2018  0.2447
  813MOL0     C 9656   8.889   8.761  10.543  0.0818 -0.1819  0.4253
  813MOL0     C 9657   9.024   8.811  10.584 -0.1654  0.6470 -0.1728
  813MOL0     C 9658   9.135   8.786  10.480  0.0654  0.2573 -1.1162
  813MOL0     C 9659   9.267   8.834  10.534 -0.0423 -0.1076  0.3944
  813MOL0     C 9660   9.375   8.808  10.422 -0.2355  0.5155 -0.3745
  813MOL0     C 9661   9.520   8.835  10.482  0.0719 -0.3498 -0.6983
  813MOL0     C 9662   9.629   8.774  10.395 -0.0394  0.7610  0.1350
  813MOL0     C 9663   9.762   8.843  10.421  0.1651  0.7755  0.1931
  813MOL0    Cl 9664   9.753   9.008  10.380 -0.4538  0.3265  0.1799
  813MOL0     C 9665   8.614   8.693  10.507  0.6273  0.6865 -0.3132
  813MOL0     C 9666   8.479   8.648  10.500  0.3476  0.0141  0.3279
  813MOL0     O 9667   8.294   8.466  10.707  0.3012 -0.0969  0.0469
  813MOL0     C 9668   8.013   8.410  10.732  0.4485  0.3915  0.3238
  813MOL0     C 9669   7.873   8.387  10.738 -0.0045  0.2480  0.1947
  813MOL0     N 9670   6.978   8.426  10.650 -0.5769 -0.1801  0.0588
  813MOL0     N 9671   6.909   8.473  10.549  0.5112 -0.4022 -0.0500
  813MOL0     C 9672   6.270   7.948  10.105  0.4902  0.0949 -0.2204
  813MOL0     C 9673   6.132   7.957  10.127 -0.8906  1.1940  0.5067
  813MOL0     C 9674   5.697   7.934  10.009  0.1818  0.7003  0.2756
  813MOL0     C 9675   5.636   7.900  10.138 -0.1381 -0.0370 -0.0965
  813MOL0     C 9676   5.503   7.921  10.167 -0.1031  0.7054  0.5038
  813MOL0     C 9677   5.412   7.961  10.070  0.1693  0.1030 -0.6097
  813MOL0     O 9678   5.276   7.986  10.089  0.7235  0.4301  0.2263
  813MOL0     C 9679   5.207   7.901  10.182 -0.2913  0.1972  0.1623
  813MOL0     C 9680   5.142   7.783  10.108  0.4908  0.6142 -0.2598
  813MOL0     C 9681   5.048   7.807   9.987 -0.8058 -0.5166  0.0798
  813MOL0     C 9682   5.109   7.814   9.847 -0.2306 -0.7238 -0.8025
  813MOL0     C 9683   5.138   7.671   9.802  0.1069 -1.0507  0.4964
  813MOL0     C 9684   5.149   7.561   9.769 -0.0525 -0.6686  0.0035
  813MOL0     C 9685   5.467   7.997   9.949 -0.4389  0.5313 -0.8119
  813MOL0     C 9686   5.603   7.985   9.914  0.5278 -0.0936 -0.5948
  813MOL0     C 9687   5.638   8.048   9.785  0.4910 -0.4029 -1.2562
  813MOL0     H 9688   6.042   7.651   9.988 -1.9399 -0.2226  1.1377
  813MOL0     H 9689   6.296   7.635   9.961  1.2460  1.6868  0.2773
  813MOL0     H 9690   6.500   7.933  10.196  0.4838  1.4110  0.0884
  813MOL0     H 9691   6.641   7.849  10.125  0.2936  0.8000 -1.1490
  813MOL0     H 9692   6.503   8.079   9.974  0.3591  3.3596  0.6552
  813MOL0     H 9693   6.659   8.006   9.939 -2.3540 -1.2677 -1.3167
  813MOL0     H 9694   6.763   8.123  10.103  0.0047  0.4172 -1.0654
  813MOL0     H 9695   6.624   8.112  10.214  1.2731 -1.9690  0.1244
  813MOL0     H 9696   6.614   8.267   9.957 -1.8139 -1.0300  0.2974
  813MOL0     H 9697   6.522   8.289  10.100  0.4107  1.2301 -0.3389
  813MOL0     H 9698   6.837   8.330  10.100 -0.1451  0.6697  0.8687
  813MOL0     H 9699   6.723   8.448  10.045  1.4806 -0.6180 -1.7107
  813MOL0     H 9700   6.621   8.423  10.281  0.2137 -0.6571  1.6013
  813MOL0     H 9701   6.745   8.315  10.324 -2.3718 -1.7858 -0.9755
  813MOL0     H 9702   6.750   8.575  10.389  1.2971  0.2450 -0.3353
  813MOL0     H 9703   6.768   8.604  10.221 -0.2659 -1.3605 -0.8358
  813MOL0     H 9704   6.980   8.454  10.230 -1.3386  1.8820 -3.2788
  813MOL0     H 9705   7.002   8.615  10.289  1.4482 -1.5266 -1.0245
  813MOL0     H 9706   7.195   8.433  10.399  1.7234  0.6200  2.7091
  813MOL0     H 9707   7.205   8.423  10.791  0.4578  2.5102 -1.2707
  813MOL0     H 9708   7.191   8.256  10.721  2.3992 -0.8287  1.3690
  813MOL0     H 9709   7.409   8.306  10.734  1.5403  3.7052  2.0069
  813MOL0     H 9710   7.365   8.316  10.558 -1.4873 -0.4436  0.5717
  813MOL0     H 9711   7.404   8.558  10.748  1.2766  0.5502 -1.0327
  813MOL0     H 9712   7.346   8.552  10.578 -0.5955 -0.5623  0.1105
  813MOL0     H 9713   7.583   8.625  10.611  1.6776 -0.1448  1.0648
  813MOL0     H 9714   7.563   8.475  10.504  0.0750  0.9542 -0.1274
  813MOL0     H 9715   7.776   8.640  10.527  0.9237  0.0794 -0.9987
  813MOL0     H 9716   8.014   8.671  10.513  0.2069 -0.9928 -0.8691
  813MOL0     H 9717   8.357   8.801  10.777 -0.0890  0.1563  0.4308
  813MOL0     H 9718   8.599   8.867  10.794 -1.7156  1.4396 -0.3470
  813MOL0     H 9719   8.875   8.653  10.553 -0.8021  0.1659  5.4693
  813MOL0     H 9720   8.870   8.786  10.438 -0.2694 -2.9397 -0.2588
  813MOL0     H 9721   9.013   8.917  10.609 -0.7630  0.4663  0.3667
  813MOL0     H 9722   9.040   8.758  10.678 -2.9338 -0.4693 -0.2357
  813MOL0     H 9723   9.144   8.680  10.456 -2.6521 -0.1227 -0.7836
  813MOL0     H 9724   9.109   8.843  10.391 -2.7706  2.0760  0.7319
  813MOL0     H 9725   9.289   8.796  10.634  0.2801 -0.3500  0.2372
  813MOL0     H 9726   9.257   8.942  10.536 -2.1435 -0.2410 -0.3586
  813MOL0     H 9727   9.356   8.872  10.335  0.6671  1.4360  0.0913
  813MOL0     H 9728   9.383   8.703  10.395  2.2326  0.4446  0.4270
  813MOL0     H 9729   9.532   8.942  10.500 -0.9208 -0.2905 -0.2828
  813MOL0     H 9730   9.536   8.781  10.576 -1.4494  0.1505 -0.1266
  813MOL0     H 9731   9.617   8.776  10.287  4.2570  0.9911 -0.5132
  813MOL0     H 9732   9.639   8.669  10.423  0.2010  0.4361 -1.1139
  813MOL0     H 9733   9.773   8.832  10.529 -1.5719 -0.8065  0.2756
  813MOL0     H 9734   9.853   8.798  10.380  1.0077  0.0830  2.6348
  813MOL0     H 9735   8.686   8.654  10.436  1.0165 -1.0228  0.9667
  813MOL0     H 9736   8.438   8.587  10.420  1.0588  1.1274 -0.9130
  813MOL0     H 9737   8.075   8.338  10.786 -3.2607 -2.4522  1.2439
  813MOL0     H 9738   7.827   8.308  10.795 -0.6816 -0.8408 -1.7521
  813MOL0     H 9739   6.335   8.032  10.126  1.2139  0.6054 -3.7956
  813MOL0     H 9740   6.089   8.042  10.179 -0.5547  1.4587  0.3533
  813MOL0     H 9741   5.701   7.872  10.220 -1.3401 -4.4891 -0.4103
  813MOL0     H 9742   5.466   7.921  10.269  0.0777  3.5644  0.6700
  813MOL0     H 9743   5.137   7.949  10.250 -1.1539  0.9095 -1.1911
  813MOL0     H 9744   5.277   7.845  10.246  0.4729 -1.0483 -1.6748
  813MOL0     H 9745   5.083   7.729  10.182 -1.9616  1.5831 -1.4274
  813MOL0     H 9746   5.218   7.713  10.070 -1.0819 -0.5429 -1.3878
  813MOL0     H 9747   4.989   7.898  10.007 -1.4447 -1.0949  0.8803
  813MOL0     H 9748   4.977   7.724   9.978  0.0037 -1.3096  0.9346
  813MOL0     H 9749   5.044   7.875   9.783  0.1041 -0.7789 -1.2076
  813MOL0     H 9750   5.207   7.863   9.847  0.5329 -2.1955 -0.3882
  813MOL0     H 9751   5.149   7.456   9.748 -0.7546 -0.5025 -0.9024
  813MOL0     H 9752   5.401   8.050   9.881 -0.7107  2.8468  1.1577
  813MOL0     H 9753   5.655   7.973   9.707 -2.3929 -0.4402 -1.9635
  813MOL0     H 9754   5.553   8.106   9.751 -0.5580 -0.7543  0.5988
  813MOL0     H 9755   5.722   8.118   9.794  0.2248 -0.2256  0.2047
  814MOL0     O 9756   6.261   6.666   5.220 -0.1925 -0.1721 -0.2372
  814MOL0     C 9757   6.170   6.673   5.138  0.9116  0.1286 -0.1105
  814MOL0     O 9758   6.174   6.616   5.012 -0.0237 -0.3247  0.2110
  814MOL0     C 9759   6.287   6.589   4.952  0.1002  0.4798  0.5112
  814MOL0     C 9760   6.303   6.468   4.876 -0.3748 -0.0925  1.4899
  814MOL0     C 9761   6.427   6.432   4.821  0.3887  0.1419  1.0815
  814MOL0     C 9762   6.535   6.511   4.833 -0.8262  0.0163  1.0358
  814MOL0     O 9763   6.655   6.457   4.794  0.2390  0.1238  0.0764
  814MOL0     C 9764   6.772   6.532   4.840 -0.7402  0.4826  1.0523
  814MOL0     C 9765   6.808   6.646   4.742 -0.0768 -0.2471  0.0479
  814MOL0     C 9766   6.943   6.712   4.789 -0.1115 -0.4934  0.4667
  814MOL0     C 9767   6.987   6.819   4.679  0.8215 -0.1350  0.2038
  814MOL0     C 9768   7.098   6.908   4.734 -0.5761 -0.6473  0.8780
  814MOL0     C 9769   7.149   6.991   4.617  0.5798 -0.3917 -0.7741
  814MOL0     C 9770   7.260   7.080   4.667  0.1198  0.7910  0.1054
  814MOL0     C 9771   7.351   7.120   4.549 -0.0045  0.2110  0.3610
  814MOL0     N 9772   7.483   7.144   4.591  0.5567 -0.1591 -0.1567
  814MOL0     C 9773   7.523   7.262   4.642 -1.0789  0.0100 -0.4404
  814MOL0     C 9774   7.659   7.261   4.652 -0.2386  0.7195  0.4893
  814MOL0     C 9775   7.756   7.370   4.673  0.2421  0.8640 -0.5874
  814MOL0     C 9776   7.749   7.482   4.565  0.5558 -0.5555  0.0083
  814MOL0     C 9777   7.866   7.578   4.576  0.0613 -0.8061  0.3348
  814MOL0     C 9778   7.844   7.692   4.480 -0.2168  0.4620 -1.4625
  814MOL0     O 9779   7.942   7.788   4.526  0.0905 -0.0929 -0.2298
  814MOL0     C 9780   8.060   7.818   4.467 -0.2410  0.9435  0.6202
  814MOL0     C 9781   8.172   7.833   4.551 -0.3555  0.3457 -0.0850
  814MOL0     C 9782   8.296   7.873   4.501  0.0010 -0.7275 -0.2722
  814MOL0     C 9783   8.318   7.872   4.364  0.3919 -0.7053  0.7617
  814MOL0     C 9784   8.455   7.904   4.315 -0.2326 -0.6541  0.1045
  814MOL0     O 9785   8.534   7.982   4.401  0.7159  0.0224 -0.0942
  814MOL0     C 9786   8.667   7.982   4.377  0.3281  0.1607  1.2947
  814MOL0     C 9787   8.723   8.105   4.404 -0.8585 -0.5799  0.7756
  814MOL0     C 9788   8.864   8.122   4.387  0.3114 -0.2472 -0.1128
  814MOL0     C 9789   8.950   8.019   4.352  0.8458 -0.1078 -0.1094
  814MOL0     O 9790   9.086   8.030   4.335 -0.4871  0.0845  0.0626
  814MOL0     C 9791   9.165   8.120   4.414 -0.3841  0.0770  0.0576
  814MOL0     C 9792   9.304   8.108   4.347  0.7727  0.0486 -0.4558
  814MOL0     C 9793   9.400   8.209   4.404  0.1056 -0.2352  0.3487
  814MOL0     C 9794   9.464   8.148   4.527  0.9102  0.0363  0.2772
  814MOL0     C 9795   9.568   8.231   4.596 -0.1552 -0.1878 -0.0959
  814MOL0     C 9796   9.707   8.239   4.526  0.2206  0.3278  0.6886
  814MOL0     C 9797   9.715   8.352   4.421  0.0081  0.8762  0.6252
  814MOL0     C 9798   9.846   8.422   4.419  0.0291  0.0190  0.3087
  814MOL0    Cl 9799   9.868   8.537   4.552  0.0678 -0.2370 -0.0690
  814MOL0     C 9800   8.889   7.898   4.331  0.2764  0.3164  0.2868
  814MOL0     C 9801   8.753   7.868   4.350  0.3964  0.1658  0.6821
  814MOL0     O 9802   8.487   7.863   4.206 -0.1174  0.3737 -0.0521
  814MOL0     C 9803   8.212   7.856   4.275 -0.7661 -0.9903  0.1939
  814MOL0     C 9804   8.086   7.830   4.328  0.8014  0.3261 -0.5551
  814MOL0     N 9805   7.699   7.134   4.609 -0.0184  0.1599  0.0120
  814MOL0     N 9806   7.591   7.067   4.579  0.6848  0.8288 -0.0312
  814MOL0     C 9807   6.519   6.641   4.891 -0.5317  0.1235 -0.0672
  814MOL0     C 9808   6.396   6.674   4.948  0.2169 -0.5430 -0.1811
  814MOL0     C 9809   6.048   6.750   5.174  0.3727 -0.1004  0.2759
  814MOL0     C 9810   5.930   6.713   5.102  0.3476 -0.3792 -1.0414
  814MOL0     C 9811   5.813   6.782   5.134  1.3326 -0.0387 -0.0427
  814MOL0     C 9812   5.808   6.880   5.234 -0.3197 -1.3939 -0.0470
  814MOL0     O 9813   5.700   6.954   5.270  0.0040 -0.5765 -0.1635
  814MOL0     C 9814   5.594   6.968   5.173  0.3324 -0.4134  0.1336
  814MOL0     C 9815   5.501   7.079   5.216 -0.1945  0.3835 -0.3160
  814MOL0     C 9816   5.565   7.216   5.197  0.2515 -0.6298 -0.0027
  814MOL0     C 9817   5.486   7.335   5.247 -0.1997  0.0388 -0.2322
  814MOL0     C 9818   5.468   7.435   5.144 -0.8002 -0.0612  0.1548
  814MOL0     C 9819   5.458   7.526   5.064  0.3152  0.2647  1.2297
  814MOL0     C 9820   5.929   6.911   5.294 -0.9501 -0.1816 -0.2880
  814MOL0     C 9821   6.052   6.849   5.278  0.4386  0.8245  0.3358
  814MOL0     C 9822   6.176   6.899   5.345 -0.0028  0.2527 -0.2887
  814MOL0     H 9823   6.220   6.398   4.875 -0.2698 -0.2195  0.5298
  814MOL0     H 9824   6.446   6.333   4.781 -0.8014  0.9467 -1.7561
  814MOL0     H 9825   6.762   6.572   4.941  0.8136  2.3248  0.5251
  814MOL0     H 9826   6.850   6.456   4.854 -1.0939 -0.2619 -0.7749
  814MOL0     H 9827   6.729   6.721   4.727 -0.2691 -0.8227 -1.9727
  814MOL0     H 9828   6.807   6.586   4.651 -4.5245 -0.9276  0.3146
  814MOL0     H 9829   7.025   6.640   4.802  0.5478  0.0509 -0.5936
  814MOL0     H 9830   6.935   6.766   4.884  1.5382  0.1967  0.2365
  814MOL0     H 9831   7.023   6.763   4.592  0.1418 -0.5325  0.1687
  814MOL0     H 9832   6.902   6.880   4.648  2.1182  1.9552  0.5090
  814MOL0     H 9833   7.063   6.983   4.805  0.5224  0.6131  0.1444
  814MOL0     H 9834   7.183   6.855   4.778  1.3652 -0.5709 -2.4415
  814MOL0     H 9835   7.194   6.925   4.542 -0.0101 -0.7505 -0.8152
  814MOL0     H 9836   7.069   7.047   4.567  2.6609  1.5895 -2.1441
  814MOL0     H 9837   7.321   7.024   4.738 -0.0190 -0.0688 -0.4408
  814MOL0     H 9838   7.216   7.171   4.710 -2.8354  1.3486 -3.5037
  814MOL0     H 9839   7.356   7.034   4.482 -1.8183 -0.2140  0.7076
  814MOL0     H 9840   7.316   7.209   4.497 -0.5545 -0.4531 -0.4422
  814MOL0     H 9841   7.456   7.344   4.666 -2.4273 -1.6078  1.6765
  814MOL0     H 9842   7.743   7.425   4.766  1.6556  0.7036 -0.2711
  814MOL0     H 9843   7.855   7.324   4.669 -0.2367 -0.1384 -2.2951
  814MOL0     H 9844   7.761   7.424   4.473  1.1330  0.1241 -0.3534
  814MOL0     H 9845   7.652   7.532   4.564 -0.0053 -1.6233 -0.6075
  814MOL0     H 9846   7.958   7.525   4.550  0.6808 -0.3739  1.5426
  814MOL0     H 9847   7.867   7.609   4.681 -0.1801  0.4500 -0.0176
  814MOL0     H 9848   7.745   7.736   4.498 -0.4481  0.0981 -1.8172
  814MOL0     H 9849   7.843   7.665   4.374 -3.5977 -3.3471 -0.7308
  814MOL0     H 9850   8.150   7.811   4.655 -1.6680  1.8656  0.0071
  814MOL0     H 9851   8.382   7.880   4.566  1.0259 -1.5850 -1.4894
  814MOL0     H 9852   8.651   8.178   4.437 -2.6673 -1.5111 -0.9081
  814MOL0     H 9853   8.900   8.223   4.406 -1.9509  0.3528  1.3532
  814MOL0     H 9854   9.129   8.222   4.402  0.7680  0.5066  0.0737
  814MOL0     H 9855   9.162   8.093   4.519 -1.0954 -0.9241 -0.2069
  814MOL0     H 9856   9.349   8.009   4.360  0.0626 -0.4138 -1.3964
  814MOL0     H 9857   9.284   8.132   4.242 -2.2385  1.6798  0.3493
  814MOL0     H 9858   9.475   8.238   4.329 -1.1268  1.7544 -0.1930
  814MOL0     H 9859   9.342   8.297   4.436 -0.8217  0.9968 -4.0199
  814MOL0     H 9860   9.521   8.060   4.497  0.3890 -0.3058  0.2720
  814MOL0     H 9861   9.396   8.113   4.606 -0.0843  2.1482  0.4267
  814MOL0     H 9862   9.582   8.169   4.685 -0.8212  1.0286  0.9003
  814MOL0     H 9863   9.528   8.328   4.628 -0.4052  0.4134 -2.0994
  814MOL0     H 9864   9.784   8.254   4.602 -0.2928  3.1332  0.7351
  814MOL0     H 9865   9.733   8.142   4.481 -1.4169 -1.2077  2.8087
  814MOL0     H 9866   9.635   8.425   4.440 -0.2251  1.1313 -1.1123
  814MOL0     H 9867   9.705   8.302   4.324  2.4665  0.0544  0.7373
  814MOL0     H 9868   9.935   8.359   4.411  0.0237  0.2303 -2.0870
  814MOL0     H 9869   9.850   8.481   4.327  0.2218 -0.8485 -0.2451
  814MOL0     H 9870   8.954   7.811   4.324  0.2753  0.2629  0.9106
  814MOL0     H 9871   8.716   7.767   4.337 -1.4326  1.1229 -2.6151
  814MOL0     H 9872   8.227   7.860   4.167  1.5708  0.1276  0.5006
  814MOL0     H 9873   8.005   7.814   4.257  0.9811  1.1926 -0.9626
  814MOL0     H 9874   6.606   6.706   4.895 -0.2678 -0.2767  0.7894
  814MOL0     H 9875   6.389   6.772   4.996  0.5964  0.4863 -2.1388
  814MOL0     H 9876   5.919   6.642   5.021 -1.7664 -3.7076  1.8662
  814MOL0     H 9877   5.725   6.752   5.079  0.9686  0.1103  0.4476
  814MOL0     H 9878   5.538   6.874   5.165 -1.3185  0.6329 -1.2342
  814MOL0     H 9879   5.634   6.992   5.075 -0.8609  0.1775 -0.2276
  814MOL0     H 9880   5.480   7.071   5.323 -0.4067 -3.9444 -0.5230
  814MOL0     H 9881   5.408   7.075   5.158 -0.3939 -0.5196  0.0577
  814MOL0     H 9882   5.580   7.233   5.090 -2.3695 -3.0416 -0.8764
  814MOL0     H 9883   5.664   7.226   5.241  0.2639  1.2989 -0.3677
  814MOL0     H 9884   5.386   7.306   5.279 -1.8707  2.7543 -2.5166
  814MOL0     H 9885   5.548   7.374   5.328 -0.9275  0.1535  0.2783
  814MOL0     H 9886   5.451   7.599   4.986 -0.9637 -0.6831  0.4212
  814MOL0     H 9887   5.919   6.993   5.364  1.0735 -0.1949  0.0633
  814MOL0     H 9888   6.145   6.990   5.395  0.0929 -0.3300  0.8507
  814MOL0     H 9889   6.219   6.830   5.418  0.1924  0.6556 -0.0213
  814MOL0     H 9890   6.248   6.925   5.266  0.6032 -0.4427  0.0250
  815MOL0     O 9891   6.934   8.606   7.453 -0.2623  0.2821  0.3102
  815MOL0     C 9892   6.873   8.683   7.529  0.7749  0.3870  0.6713
  815MOL0     O 9893   6.913   8.745   7.645  0.6918  0.1231 -0.2054
  815MOL0     C 9894   7.050   8.754   7.654 -0.2973  0.4727  0.3527
  815MOL0     C 9895   7.133   8.644   7.683  0.5520  0.3229 -0.0981
  815MOL0     C 9896   7.271   8.661   7.709  0.2706 -0.3785 -0.0526
  815MOL0     C 9897   7.332   8.786   7.692 -0.7149 -0.1148  0.2480
  815MOL0     O 9898   7.472   8.788   7.695 -0.1913  0.4710  0.3711
  815MOL0     C 9899   7.553   8.906   7.652 -0.0826  0.7636 -0.4188
  815MOL0     C 9900   7.705   8.898   7.672 -0.5450  0.7016 -1.2166
  815MOL0     C 9901   7.771   8.771   7.615  0.4185  0.4178 -0.2203
  815MOL0     C 9902   7.686   8.683   7.522  0.2949 -0.4242 -0.5346
  815MOL0     C 9903   7.759   8.571   7.438 -0.0401  0.5881 -0.1524
  815MOL0     C 9904   7.873   8.639   7.354  0.3728 -0.0387  0.1720
  815MOL0     C 9905   7.909   8.558   7.227  0.0973 -0.4759 -0.4431
  815MOL0     C 9906   7.801   8.571   7.113  0.5389 -0.2664 -0.7230
  815MOL0     N 9907   7.798   8.690   7.033 -0.7455 -0.5307 -0.1286
  815MOL0     C 9908   7.884   8.709   6.927 -0.5835 -0.7993 -0.7547
  815MOL0     C 9909   7.871   8.841   6.904  0.2002  0.4291  0.3335
  815MOL0     C 9910   7.926   8.916   6.789  0.0841  0.6200 -0.1716
  815MOL0     C 9911   8.076   8.949   6.798  0.0864 -0.7120 -0.3914
  815MOL0     C 9912   8.131   9.047   6.690 -1.4384 -0.5766  0.5387
  815MOL0     C 9913   8.283   9.077   6.706 -0.2595 -0.2340 -0.2462
  815MOL0     O 9914   8.364   8.964   6.667 -0.3369  0.0668  0.1976
  815MOL0     C 9915   8.503   8.974   6.644  0.0954 -0.5246  0.4011
  815MOL0     C 9916   8.573   9.096   6.635  0.7482  1.2258  0.2834
  815MOL0     C 9917   8.710   9.106   6.609  0.8104  0.0092  0.0874
  815MOL0     C 9918   8.788   8.992   6.593  0.1952 -0.5498  0.0374
  815MOL0     C 9919   8.928   9.007   6.570 -0.0224  1.2120 -0.0919
  815MOL0     O 9920   8.988   8.883   6.542  0.4792 -0.3936 -0.1935
  815MOL0     C 9921   9.123   8.878   6.524 -0.0507  0.0785  0.4836
  815MOL0     C 9922   9.194   8.925   6.409 -0.0106  0.3767 -0.3276
  815MOL0     C 9923   9.332   8.923   6.409  1.1085  1.6459  0.2560
  815MOL0     C 9924   9.406   8.878   6.521 -0.6165 -0.6338 -0.0201
  815MOL0     O 9925   9.543   8.882   6.505 -0.4328  0.1145  0.5327
  815MOL0     C 9926   9.616   8.870   6.624  0.0988  0.0788 -0.4334
  815MOL0     C 9927   9.754   8.947   6.587 -0.0123 -0.3318 -0.4158
  815MOL0     C 9928   9.837   8.861   6.490 -0.2510  0.0635 -0.8444
  815MOL0     C 9929   9.964   8.935   6.438  0.1788  0.3359  0.8612
  815MOL0     C 9930  10.089   8.875   6.497 -0.0917 -0.3092 -0.1174
  815MOL0     C 9931  10.209   8.917   6.408  0.7228 -0.2079  0.1660
  815MOL0     C 9932  10.351   8.893   6.472  1.0819  0.0652  1.2226
  815MOL0     C 9933  10.456   8.954   6.373  1.1421  0.4889  0.3466
  815MOL0    Cl 9934  10.420   9.131   6.381 -0.1506  0.3774 -0.3456
  815MOL0     C 9935   9.333   8.838   6.636  0.3465  0.3158 -0.6582
  815MOL0     C 9936   9.192   8.841   6.634  0.0864 -0.0518 -0.9363
  815MOL0     O 9937   8.978   9.115   6.553  0.1780 -1.0884  0.1531
  815MOL0     C 9938   8.720   8.866   6.607 -0.0833 -1.2751 -0.4048
  815MOL0     C 9939   8.580   8.859   6.623  0.2726 -0.3008  0.1505
  815MOL0     N 9940   7.778   8.893   6.999 -0.2768 -0.5947  0.0988
  815MOL0     N 9941   7.730   8.802   7.073 -0.9477 -0.3880 -0.9470
  815MOL0     C 9942   7.248   8.893   7.667 -0.7570  0.3351 -0.2240
  815MOL0     C 9943   7.118   8.873   7.645 -0.1734  0.2774  0.3752
  815MOL0     C 9944   6.726   8.705   7.482 -0.0555 -0.4232 -0.3995
  815MOL0     C 9945   6.628   8.704   7.580 -0.7437 -0.7896  0.1992
  815MOL0     C 9946   6.493   8.714   7.555  0.4325  0.4278 -0.3445
  815MOL0     C 9947   6.449   8.727   7.426  0.2209 -0.4480  1.0113
  815MOL0     O 9948   6.311   8.732   7.394 -0.1064 -0.2692  0.3459
  815MOL0     C 9949   6.207   8.718   7.491 -0.2700  0.7243  0.2526
  815MOL0     C 9950   6.067   8.740   7.434 -0.0299  0.0674 -0.2844
  815MOL0     C 9951   6.058   8.876   7.360 -0.5409  0.3351 -0.9885
  815MOL0     C 9952   5.939   8.896   7.259  0.7537  0.5281 -0.1858
  815MOL0     C 9953   5.803   8.877   7.323  0.0584  0.3379 -0.0439
  815MOL0     C 9954   5.695   8.866   7.376 -1.0912 -0.3325  0.4387
  815MOL0     C 9955   6.545   8.742   7.317 -0.4947  0.5869  0.5706
  815MOL0     C 9956   6.677   8.726   7.345 -0.5544 -0.0778  0.0172
  815MOL0     C 9957   6.778   8.730   7.234  0.0619 -0.4443  0.5352
  815MOL0     H 9958   7.092   8.545   7.664  0.5602  0.2581  0.2271
  815MOL0     H 9959   7.334   8.574   7.721  2.3804  1.3700  3.1960
  815MOL0     H 9960   7.542   8.935   7.548 -0.6423 -2.3574 -1.3509
  815MOL0     H 9961   7.512   8.989   7.711  0.5890 -1.5207  3.6488
  815MOL0     H 9962   7.749   8.908   7.771  3.6413 -0.1084 -2.7749
  815MOL0     H 9963   7.739   8.982   7.611 -3.2302  0.7365 -2.8725
  815MOL0     H 9964   7.800   8.705   7.698 -0.3967 -0.9172 -0.9586
  815MOL0     H 9965   7.851   8.813   7.554 -0.4822  0.5615 -1.3393
  815MOL0     H 9966   7.612   8.635   7.586  0.0977 -0.2152 -0.6044
  815MOL0     H 9967   7.640   8.751   7.450 -0.4136 -2.4453 -2.1063
  815MOL0     H 9968   7.802   8.488   7.494 -0.5041 -1.2154 -2.3606
  815MOL0     H 9969   7.679   8.527   7.378 -0.9363 -0.9774  2.0715
  815MOL0     H 9970   7.841   8.734   7.309  1.2657 -0.5797 -1.7208
  815MOL0     H 9971   7.952   8.661   7.425 -0.5645  0.2244  1.1632
  815MOL0     H 9972   7.931   8.458   7.264 -1.9841 -1.1756 -0.9214
  815MOL0     H 9973   8.008   8.586   7.190  0.2436  1.2505  1.0682
  815MOL0     H 9974   7.823   8.494   7.039 -3.3511  0.4461 -2.9043
  815MOL0     H 9975   7.698   8.548   7.142  0.1277  0.0358 -1.8935
  815MOL0     H 9976   7.964   8.649   6.885  0.3478 -0.2147  0.1347
  815MOL0     H 9977   7.917   8.848   6.704 -2.1991  2.0059 -1.1373
  815MOL0     H 9978   7.871   9.008   6.764 -1.7159 -0.6463 -1.0869
  815MOL0     H 9979   8.091   8.986   6.900 -1.5943 -0.7339 -0.1037
  815MOL0     H 9980   8.129   8.857   6.775  0.9769  0.0465 -1.4441
  815MOL0     H 9981   8.079   9.143   6.699  0.3370  0.4921 -0.1713
  815MOL0     H 9982   8.101   9.007   6.593  4.6073 -1.1089 -1.5191
  815MOL0     H 9983   8.311   9.094   6.811  2.4014 -1.3936 -0.6790
  815MOL0     H 9984   8.304   9.169   6.651  1.0515  0.2139  0.9182
  815MOL0     H 9985   8.506   9.178   6.661 -2.1874 -1.0329  0.3254
  815MOL0     H 9986   8.755   9.205   6.607  0.3880  0.2637  1.6169
  815MOL0     H 9987   9.138   8.972   6.328 -0.9894  0.2571  0.2605
  815MOL0     H 9988   9.381   8.961   6.319  4.2761 -3.7865 -0.7454
  815MOL0     H 9989   9.570   8.924   6.707  0.9840 -0.1357  0.2170
  815MOL0     H 9990   9.624   8.767   6.658  0.9633  0.4408  0.5357
  815MOL0     H 9991   9.731   9.048   6.552 -1.4567 -0.5066 -0.0060
  815MOL0     H 9992   9.799   8.951   6.686 -0.2027  0.1814 -0.3468
  815MOL0     H 9993   9.850   8.763   6.537 -4.1460 -1.0116 -1.6258
  815MOL0     H 9994   9.779   8.841   6.399  0.7172  1.2099 -1.7441
  815MOL0     H 9995   9.968   9.042   6.460 -1.2512  0.5450  0.1875
  815MOL0     H 9996   9.957   8.925   6.330 -0.5469  0.4222  0.9010
  815MOL0     H 9997  10.075   8.767   6.509 -1.1922 -0.0915  0.7446
  815MOL0     H 9998  10.097   8.907   6.602  0.8673 -1.0971  0.0717
  815MOL0     H 9999  10.183   8.869   6.313 -1.9223 -1.3962  1.3926
  815MOL0     H10000  10.200   9.025   6.394  1.6621 -0.2352 -0.8219
  815MOL0     H10001  10.363   8.784   6.477 -0.9972 -0.3193 -0.6586
  815MOL0     H10002  10.356   8.933   6.574  2.7215  3.0033  0.1243
  815MOL0     H10003  10.554   8.928   6.415  1.4929  0.7521 -0.3129
  815MOL0     H10004  10.447   8.917   6.271 -2.0684  0.2500  0.5874
  815MOL0     H10005   9.376   8.787   6.721  1.4897  0.1218 -1.3227
  815MOL0     H10006   9.126   8.800   6.710  0.2060  1.1734 -0.1484
  815MOL0     H10007   8.768   8.771   6.585  0.8265 -0.2484 -3.3229
  815MOL0     H10008   8.521   8.768   6.616  0.8973 -0.8038  1.2631
  815MOL0     H10009   7.293   8.991   7.668 -1.1533  0.5524 -1.5292
  815MOL0     H10010   7.063   8.963   7.617  2.5563  1.6826 -0.8900
  815MOL0     H10011   6.668   8.709   7.681 -0.1548  0.4962 -0.0742
  815MOL0     H10012   6.414   8.705   7.629  0.1674 -2.4999 -0.8566
  815MOL0     H10013   6.229   8.794   7.567  1.3809 -0.6223  1.2050
  815MOL0     H10014   6.202   8.622   7.544  1.5416  1.4902  1.9685
  815MOL0     H10015   5.993   8.733   7.514 -1.3995  0.8380 -1.4419
  815MOL0     H10016   6.057   8.660   7.360  0.3299 -0.4367  0.2052
  815MOL0     H10017   6.152   8.888   7.306  0.2079  2.6931  0.6256
  815MOL0     H10018   6.049   8.956   7.435 -2.2040  1.8746 -2.7290
  815MOL0     H10019   5.932   9.000   7.228  0.3757  1.3472  2.4104
  815MOL0     H10020   5.949   8.830   7.172 -1.5939  0.8389 -0.7420
  815MOL0     H10021   5.595   8.841   7.407 -0.7362  0.2632  2.1880
  815MOL0     H10022   6.513   8.753   7.214  1.9915 -0.1720 -0.3614
  815MOL0     H10023   6.731   8.768   7.142 -0.9234 -0.3701  1.0509
  815MOL0     H10024   6.856   8.806   7.244 -0.6345  0.8034 -2.2772
  815MOL0     H10025   6.825   8.634   7.214  0.2765 -0.3213  0.4484
  816MOL0     O10026   8.756   2.579  10.320 -0.2444 -0.5083  0.3444
  816MOL0     C10027   8.669   2.631  10.392  0.0578 -0.2343  1.5688
  816MOL0     O10028   8.696   2.729  10.480  0.4152 -0.0214  0.1867
  816MOL0     C10029   8.826   2.777  10.493  0.1791  0.8325  0.0498
  816MOL0     C10030   8.845   2.893  10.420 -0.3440  0.2947 -0.0164
  816MOL0     C10031   8.972   2.952  10.422  0.3986 -0.0241  0.4101
  816MOL0     C10032   9.075   2.890  10.486 -0.8116  0.5181 -0.5058
  816MOL0     O10033   9.207   2.950  10.476 -0.5502  0.0308  0.3395
  816MOL0     C10034   9.328   2.881  10.515  0.6883 -0.0424  0.0892
  816MOL0     C10035   9.370   2.784  10.409 -0.4540  1.0863  1.2242
  816MOL0     C10036   9.509   2.725  10.440 -0.2522  0.1370 -0.7603
  816MOL0     C10037   9.495   2.614  10.556  0.6724 -0.1107  0.5403
  816MOL0     C10038   9.640   2.568  10.593 -0.3562 -0.3456 -0.2449
  816MOL0     C10039   9.690   2.470  10.486 -0.5494  0.2974 -0.0416
  816MOL0     C10040   9.840   2.434  10.509 -0.1310 -0.4381 -0.1648
  816MOL0     C10041   9.896   2.346  10.403  0.0138  1.0400 -0.0795
  816MOL0     N10042  10.021   2.290  10.450  0.5047  0.2227  0.2048
  816MOL0     C10043  10.030   2.204  10.555 -0.0287  0.6361 -0.0621
  816MOL0     C10044  10.144   2.140  10.541  0.6631  0.3584 -0.2173
  816MOL0     C10045  10.192   2.030  10.630  1.0072  0.7818 -0.5815
  816MOL0     C10046  10.348   2.026  10.627  0.8343  0.0287  0.4551
  816MOL0     C10047  10.389   1.885  10.676 -0.1028  0.3720 -0.1967
  816MOL0     C10048  10.543   1.872  10.698  0.5658  0.0265 -0.2215
  816MOL0     O10049  10.575   1.757  10.767  0.1520 -0.4031  0.6392
  816MOL0     C10050  10.692   1.766  10.841 -0.2532  0.0411  0.0059
  816MOL0     C10051  10.715   1.641  10.896 -0.0683 -0.0436 -0.0610
  816MOL0     C10052  10.833   1.619  10.966 -0.6570 -0.1305 -0.0801
  816MOL0     C10053  10.928   1.727  10.983 -0.5109  0.6543 -0.2089
  816MOL0     C10054  11.052   1.695  11.069  0.7417 -0.4343 -0.0023
  816MOL0     O10055  11.141   1.799  11.054 -0.5649  0.0606  0.5951
  816MOL0     C10056  11.260   1.817  11.134  0.3501 -0.6779 -0.1359
  816MOL0     C10057  11.290   1.746  11.257  0.2167  0.1806  0.4472
  816MOL0     C10058  11.413   1.764  11.324 -0.3649 -0.0738 -0.1563
  816MOL0     C10059  11.506   1.854  11.275  0.1510 -0.0221 -0.0727
  816MOL0     O10060  11.634   1.845  11.326 -0.3029  0.1623  0.6245
  816MOL0     C10061  11.744   1.814  11.231  0.0379  0.2583  0.0883
  816MOL0     C10062  11.868   1.760  11.309 -0.1163 -0.0879 -0.5887
  816MOL0     C10063  11.994   1.749  11.220  0.1024  0.2002  0.7156
  816MOL0     C10064  12.053   1.881  11.174 -0.7420  0.0454  0.3568
  816MOL0     C10065  12.183   1.863  11.094 -0.0588 -0.7516  0.5271
  816MOL0     C10066  12.226   1.990  11.011  0.4657  0.3693  0.0059
  816MOL0     C10067  12.361   1.967  10.951  0.0197 -0.0222 -0.0045
  816MOL0     C10068  12.367   2.030  10.822 -0.2129  0.1215  0.2758
  816MOL0    Cl10069  12.540   1.977  10.766 -0.0113 -0.2063 -0.8301
  816MOL0     C10070  11.476   1.928  11.165 -0.1098 -0.1763 -0.4726
  816MOL0     C10071  11.359   1.909  11.092 -0.3852  0.8343  0.3749
  816MOL0     O10072  11.067   1.592  11.131 -0.5179  0.3519 -0.2344
  816MOL0     C10073  10.895   1.859  10.937 -0.5706  0.3280  0.2912
  816MOL0     C10074  10.777   1.876  10.865  0.2278 -0.0095  1.2954
  816MOL0     N10075  10.202   2.190  10.429 -0.3704  0.0817  0.1865
  816MOL0     N10076  10.132   2.287  10.380 -0.1880 -0.0083  0.2626
  816MOL0     C10077   9.052   2.768  10.561 -0.1760  0.4371  0.4379
  816MOL0     C10078   8.926   2.717  10.563 -0.4890  1.2684  0.3648
  816MOL0     C10079   8.526   2.589  10.380  0.3075  0.9719  0.4745
  816MOL0     C10080   8.506   2.447  10.385  0.4081  0.5904  0.9571
  816MOL0     C10081   8.367   2.409  10.378  0.3883  0.1201 -0.0936
  816MOL0     C10082   8.265   2.505  10.379  0.5354  0.3678  0.3770
  816MOL0     O10083   8.138   2.451  10.388 -0.4082  0.7948  0.5021
  816MOL0     C10084   8.027   2.534  10.412 -0.3920 -0.3226  0.0161
  816MOL0     C10085   7.917   2.454  10.476 -0.2133 -0.0163 -0.5090
  816MOL0     C10086   7.930   2.446  10.632 -0.1985  0.1893 -0.4162
  816MOL0     C10087   7.794   2.401  10.693 -0.3119 -0.5234  0.5960
  816MOL0     C10088   7.740   2.272  10.656 -0.4608  0.5476  0.4525
  816MOL0     C10089   7.690   2.160  10.635 -0.6914  0.0906 -0.3893
  816MOL0     C10090   8.293   2.641  10.356 -0.2225  0.5410  0.1731
  816MOL0     C10091   8.425   2.678  10.356 -0.4592  0.1028 -0.6193
  816MOL0     C10092   8.439   2.833  10.350 -0.6253 -0.1202  0.3736
  816MOL0     H10093   8.771   2.951  10.365  0.1255  1.1949  0.2757
  816MOL0     H10094   8.986   3.047  10.372 -1.2980 -0.8028 -1.7256
  816MOL0     H10095   9.414   2.947  10.530  0.5682  0.2872 -0.6199
  816MOL0     H10096   9.316   2.827  10.609  1.0264  1.0831  0.7884
  816MOL0     H10097   9.368   2.839  10.315  3.5130  0.1223  0.3901
  816MOL0     H10098   9.297   2.704  10.396  3.8015 -2.9505 -1.1133
  816MOL0     H10099   9.587   2.795  10.471 -0.2321 -0.2515  0.0957
  816MOL0     H10100   9.545   2.675  10.350  3.6311 -1.9029  1.6796
  816MOL0     H10101   9.436   2.653  10.639 -3.0711 -1.1373 -1.4127
  816MOL0     H10102   9.448   2.523  10.517 -1.3873  0.4410  1.6057
  816MOL0     H10103   9.697   2.660  10.603 -0.4474 -0.3266  0.1172
  816MOL0     H10104   9.639   2.503  10.681  0.0551 -3.5148 -2.4057
  816MOL0     H10105   9.630   2.380  10.505 -0.1911  0.3339  1.3753
  816MOL0     H10106   9.659   2.499  10.385 -1.8949  1.0014  0.5534
  816MOL0     H10107   9.832   2.381  10.605  0.5126 -1.4254 -0.6470
  816MOL0     H10108   9.904   2.523  10.508 -1.9543  0.9359 -0.2569
  816MOL0     H10109   9.827   2.270  10.365  0.0557  1.7849 -1.7491
  816MOL0     H10110   9.918   2.411  10.318 -0.2782 -4.3481 -4.9507
  816MOL0     H10111   9.959   2.180  10.634 -0.9402  2.4464 -0.2747
  816MOL0     H10112  10.156   2.046  10.732  0.3638 -0.1330 -0.6525
  816MOL0     H10113  10.140   1.939  10.599  1.9672 -0.3835  1.1035
  816MOL0     H10114  10.372   2.038  10.521 -0.7277 -0.1539  0.0537
  816MOL0     H10115  10.385   2.110  10.686 -2.8850  0.5260  2.3496
  816MOL0     H10116  10.369   1.805  10.605  1.8886  1.5524 -2.2591
  816MOL0     H10117  10.342   1.863  10.772 -0.6533  0.0758 -0.5338
  816MOL0     H10118  10.561   1.956  10.765 -0.5018 -0.5495  0.8275
  816MOL0     H10119  10.612   1.890  10.615  2.6511  1.5919  1.7549
  816MOL0     H10120  10.642   1.561  10.890  0.4574 -0.6868  1.5014
  816MOL0     H10121  10.856   1.526  11.016 -0.4915  0.1838  0.4280
  816MOL0     H10122  11.217   1.676  11.297  0.6615 -1.9020 -2.1021
  816MOL0     H10123  11.439   1.716  11.417 -0.2145  1.7217  0.7827
  816MOL0     H10124  11.716   1.745  11.151 -1.3529 -1.9325  2.3478
  816MOL0     H10125  11.769   1.909  11.182 -1.1729 -0.2750 -1.6520
  816MOL0     H10126  11.891   1.826  11.394 -0.1817  0.8398 -1.2747
  816MOL0     H10127  11.832   1.663  11.343 -1.2634 -0.0844 -1.7360
  816MOL0     H10128  12.059   1.705  11.295 -1.0764  1.0196  2.2840
  816MOL0     H10129  11.975   1.687  11.132 -1.0436 -0.4927  1.4186
  816MOL0     H10130  12.066   1.951  11.257 -0.7374  1.4187 -0.7565
  816MOL0     H10131  11.975   1.921  11.109  1.8593  0.4126 -2.7965
  816MOL0     H10132  12.166   1.776  11.030  1.4950  1.0697 -2.5741
  816MOL0     H10133  12.261   1.840  11.167  0.6601 -0.1335 -0.0357
  816MOL0     H10134  12.144   2.020  10.945 -0.3531  0.8861  1.2256
  816MOL0     H10135  12.233   2.074  11.080  0.2356  0.4416 -0.0572
  816MOL0     H10136  12.397   1.864  10.943  1.9539  0.5645  0.8106
  816MOL0     H10137  12.435   2.012  11.017  0.3126  2.4807 -1.9039
  816MOL0     H10138  12.287   1.998  10.754 -0.8277  1.2174  0.4686
  816MOL0     H10139  12.355   2.138  10.829  0.3466  0.3066 -1.1327
  816MOL0     H10140  11.544   2.004  11.127 -0.2773 -0.5670 -1.5872
  816MOL0     H10141  11.355   1.955  10.994  2.2615 -0.4881 -0.4839
  816MOL0     H10142  10.957   1.947  10.951  1.0261 -0.9470  1.6341
  816MOL0     H10143  10.762   1.977  10.827  1.4762 -0.7330 -1.3669
  816MOL0     H10144   9.130   2.703  10.600  1.5638  1.0117 -1.9045
  816MOL0     H10145   8.903   2.625  10.614  2.9429  0.8995  1.4970
  816MOL0     H10146   8.583   2.375  10.409  0.3423  0.3750  0.5175
  816MOL0     H10147   8.365   2.301  10.381 -0.2298  0.1288  2.7086
  816MOL0     H10148   8.002   2.574  10.314  2.3425  0.1817 -0.5581
  816MOL0     H10149   8.058   2.618  10.476  0.1367  1.4141 -2.3795
  816MOL0     H10150   7.922   2.352  10.437  1.1806  0.5989 -2.0649
  816MOL0     H10151   7.826   2.507  10.445 -0.0297 -0.2257 -1.4360
  816MOL0     H10152   7.943   2.547  10.671  1.3252 -0.3168  0.4716
  816MOL0     H10153   8.009   2.375  10.657  0.4668  1.4204  1.1972
  816MOL0     H10154   7.794   2.403  10.803  2.2793  0.9893  0.6413
  816MOL0     H10155   7.718   2.472  10.659  1.5394  1.3176  0.1446
  816MOL0     H10156   7.653   2.065  10.602 -1.7509  1.3316 -3.1195
  816MOL0     H10157   8.209   2.708  10.341 -1.6845 -1.6047 -2.0476
  816MOL0     H10158   8.439   2.868  10.454  3.8747  2.1518 -0.1213
  816MOL0     H10159   8.534   2.863  10.305 -0.4667 -1.4135 -0.1883
  816MOL0     H10160   8.360   2.881  10.292 -0.0399  0.8895  0.3782
  817MOL0     O10161   5.942   1.028   3.753  0.1986 -0.8162 -0.6988
  817MOL0     C10162   5.924   0.911   3.707  0.2708 -0.6131  0.5556
  817MOL0     O10163   6.016   0.842   3.632  0.2026  0.8661 -0.0764
  817MOL0     C10164   6.138   0.907   3.617  0.0094  0.7360 -1.5014
  817MOL0     C10165   6.249   0.830   3.648 -0.6794 -0.2880  0.4303
  817MOL0     C10166   6.379   0.882   3.657  0.5496 -0.7592 -0.6815
  817MOL0     C10167   6.403   1.014   3.623  0.0770  0.3231 -0.6598
  817MOL0     O10168   6.517   1.084   3.626 -0.1308 -0.0565 -0.7211
  817MOL0     C10169   6.642   1.032   3.683  0.2640  0.2261 -0.3790
  817MOL0     C10170   6.638   1.024   3.834 -0.6143  0.4872  1.2190
  817MOL0     C10171   6.605   1.165   3.899 -0.3226  0.7238 -0.3088
  817MOL0     C10172   6.708   1.276   3.877 -0.7500 -0.4144  0.2389
  817MOL0     C10173   6.848   1.246   3.934  0.7139 -0.3051 -0.3317
  817MOL0     C10174   6.914   1.378   3.971  0.2309  0.6591  0.2687
  817MOL0     C10175   7.061   1.386   4.019 -0.1461 -0.2652 -0.4192
  817MOL0     C10176   7.161   1.394   3.905  0.5652  0.0850  0.6517
  817MOL0     N10177   7.149   1.276   3.816 -0.6151  0.2905  0.0906
  817MOL0     C10178   7.175   1.143   3.849 -0.0020 -0.7211 -0.3491
  817MOL0     C10179   7.139   1.071   3.742 -0.4043  0.5465 -0.3721
  817MOL0     C10180   7.172   0.927   3.705  0.0784 -0.7031 -0.3122
  817MOL0     C10181   7.116   0.829   3.807  0.1561  0.3034  0.7678
  817MOL0     C10182   6.972   0.792   3.756 -0.5772 -0.2173 -0.6147
  817MOL0     C10183   6.912   0.707   3.869  0.3030  0.4028 -0.2347
  817MOL0     O10184   6.770   0.691   3.857 -0.2459  0.1066  0.2506
  817MOL0     C10185   6.706   0.583   3.908  0.3609 -0.7148 -0.7555
  817MOL0     C10186   6.767   0.477   3.972  0.5198 -0.6731 -0.3750
  817MOL0     C10187   6.696   0.368   4.027  0.2773  0.0117 -0.0938
  817MOL0     C10188   6.558   0.344   3.985 -0.8919 -0.6658  0.1510
  817MOL0     C10189   6.487   0.210   4.012  0.2017  0.2260  0.1427
  817MOL0     O10190   6.360   0.198   3.947 -0.6181  0.2237 -0.6074
  817MOL0     C10191   6.282   0.092   3.980 -0.3344 -0.0130 -0.8556
  817MOL0     C10192   6.254   0.044   4.117 -0.2556 -0.3851  0.1786
  817MOL0     C10193   6.161  -0.060   4.148 -0.7400 -0.2128 -0.2731
  817MOL0     C10194   6.088  -0.109   4.042  0.4498  0.7487 -0.0179
  817MOL0     O10195   6.005  -0.219   4.056  0.1965  0.5077  0.2402
  817MOL0     C10196   5.969  -0.280   4.184 -0.7906 -0.0151  0.2875
  817MOL0     C10197   5.833  -0.345   4.175  0.0006  0.2588  0.4466
  817MOL0     C10198   5.724  -0.238   4.193  0.2141 -1.1099  0.0014
  817MOL0     C10199   5.581  -0.295   4.192 -0.1017  0.1761  0.5025
  817MOL0     C10200   5.464  -0.187   4.183 -1.2059 -0.4221 -0.6914
  817MOL0     C10201   5.445  -0.108   4.317 -0.0909  0.6402  0.5947
  817MOL0     C10202   5.319  -0.024   4.293 -0.1684 -0.0762 -0.2063
  817MOL0     C10203   5.283   0.070   4.409  0.6728  0.4587  0.6763
  817MOL0    Cl10204   5.370   0.220   4.371 -0.5975 -0.5313  0.0169
  817MOL0     C10205   6.108  -0.066   3.912  0.1756  1.0629  0.1109
  817MOL0     C10206   6.214   0.027   3.884 -0.2567 -0.2375  0.0878
  817MOL0     O10207   6.536   0.132   4.096 -0.6637  0.2304  0.0867
  817MOL0     C10208   6.492   0.454   3.924  0.6047  0.1675  0.2538
  817MOL0     C10209   6.564   0.574   3.886 -0.8981  0.3369 -0.3307
  817MOL0     N10210   7.080   1.149   3.646  0.3039 -0.2848 -0.2481
  817MOL0     N10211   7.103   1.276   3.686 -0.0011  0.6189 -0.3067
  817MOL0     C10212   6.290   1.090   3.587 -0.0544 -0.2627  0.0969
  817MOL0     C10213   6.161   1.041   3.584 -0.5709 -0.2138  0.9176
  817MOL0     C10214   5.792   0.840   3.719  0.0474 -0.0683 -0.6840
  817MOL0     C10215   5.670   0.902   3.735 -0.1821  0.3630 -0.0621
  817MOL0     C10216   5.553   0.847   3.752  0.5093  0.2176  0.7749
  817MOL0     C10217   5.541   0.707   3.742  0.2357  0.4838 -0.2902
  817MOL0     O10218   5.428   0.636   3.762 -0.2285  0.7740 -0.1533
  817MOL0     C10219   5.304   0.700   3.752 -0.0433 -0.3513  0.3176
  817MOL0     C10220   5.207   0.589   3.715  0.3933 -0.0308 -0.6623
  817MOL0     C10221   5.060   0.627   3.759  0.8415 -0.3491 -0.6095
  817MOL0     C10222   4.975   0.526   3.691 -0.5467  0.2753  0.1604
  817MOL0     C10223   4.842   0.495   3.743 -0.5747 -0.1741  0.2322
  817MOL0     C10224   4.733   0.486   3.796 -0.6018 -1.0068 -0.6447
  817MOL0     C10225   5.657   0.633   3.737  0.0562  0.1948  0.0283
  817MOL0     C10226   5.788   0.701   3.725  0.5475  0.6472 -0.2061
  817MOL0     C10227   5.908   0.606   3.728 -0.6584  1.0319  0.0855
  817MOL0     H10228   6.221   0.726   3.651 -2.6766  0.1964 -0.1045
  817MOL0     H10229   6.463   0.821   3.688  0.5818  0.2336  1.2888
  817MOL0     H10230   6.654   0.930   3.644 -0.2359  1.0988 -3.0026
  817MOL0     H10231   6.727   1.092   3.648  2.5632 -2.4098  0.2855
  817MOL0     H10232   6.732   0.984   3.872  0.4648 -1.7067 -3.1907
  817MOL0     H10233   6.564   0.950   3.865 -1.5628  1.3032  0.9570
  817MOL0     H10234   6.612   1.152   4.007  1.5128  0.2339 -0.4509
  817MOL0     H10235   6.504   1.197   3.870 -0.4706  0.5595  0.0242
  817MOL0     H10236   6.720   1.293   3.770  1.8971 -0.6357  0.4267
  817MOL0     H10237   6.666   1.364   3.927  5.4647  3.2144  0.0314
  817MOL0     H10238   6.839   1.184   4.024  1.6140  1.5777  1.1280
  817MOL0     H10239   6.900   1.195   3.853  1.0607 -0.0513 -0.2733
  817MOL0     H10240   6.911   1.434   3.877  2.3347 -1.0203 -0.8720
  817MOL0     H10241   6.857   1.429   4.049 -1.6355 -0.2831 -0.4118
  817MOL0     H10242   7.079   1.290   4.069 -0.0555 -0.8110 -1.4682
  817MOL0     H10243   7.076   1.461   4.098 -2.4868 -0.4588  0.2675
  817MOL0     H10244   7.124   1.482   3.850  0.0375  0.2571  1.2684
  817MOL0     H10245   7.262   1.406   3.944  1.7220 -3.6314 -0.7388
  817MOL0     H10246   7.233   1.109   3.934  0.7121  2.6253  0.6487
  817MOL0     H10247   7.134   0.900   3.606 -2.5820 -2.2789  1.0357
  817MOL0     H10248   7.280   0.916   3.700  0.1503  0.2814 -1.4626
  817MOL0     H10249   7.176   0.738   3.811  0.6067  0.6281  1.5221
  817MOL0     H10250   7.117   0.874   3.907  1.5911  1.9354  0.0684
  817MOL0     H10251   6.975   0.738   3.661 -3.1120  1.7656 -1.9429
  817MOL0     H10252   6.922   0.889   3.759  0.9270  0.6842 -2.5335
  817MOL0     H10253   6.937   0.754   3.964 -4.3290 -0.4527  1.6798
  817MOL0     H10254   6.964   0.612   3.853  1.2688  0.6792  1.1094
  817MOL0     H10255   6.873   0.492   3.989  0.3834  0.0372 -0.1057
  817MOL0     H10256   6.753   0.296   4.084 -0.4696  0.1618  0.8607
  817MOL0     H10257   6.292   0.083   4.211 -0.5201  1.0891 -0.3027
  817MOL0     H10258   6.139  -0.077   4.252  0.8583  2.8034  0.6936
  817MOL0     H10259   6.041  -0.355   4.217  0.4201  2.1413  2.9352
  817MOL0     H10260   5.960  -0.204   4.262  1.7976  0.6072  0.0707
  817MOL0     H10261   5.822  -0.396   4.079 -0.3814 -2.0082  1.6306
  817MOL0     H10262   5.821  -0.414   4.259  1.3770  1.7039  1.9057
  817MOL0     H10263   5.738  -0.181   4.284  4.5961 -2.2822  0.2624
  817MOL0     H10264   5.724  -0.169   4.108  1.7176  0.9932  1.6316
  817MOL0     H10265   5.566  -0.355   4.282  2.6743 -1.8638 -0.2359
  817MOL0     H10266   5.563  -0.361   4.107 -1.2669  0.7315  0.2994
  817MOL0     H10267   5.374  -0.246   4.167 -2.0584  0.9014 -0.8835
  817MOL0     H10268   5.481  -0.118   4.100 -1.4980 -2.2094 -2.3029
  817MOL0     H10269   5.428  -0.182   4.396  1.8045 -2.2375 -1.4793
  817MOL0     H10270   5.537  -0.052   4.337 -0.1134  1.0888 -0.4643
  817MOL0     H10271   5.236  -0.094   4.278 -1.0293 -0.0108  3.3479
  817MOL0     H10272   5.337   0.031   4.200 -0.4999  1.4180  0.5811
  817MOL0     H10273   5.175   0.086   4.412 -0.1809 -4.2234  1.8350
  817MOL0     H10274   5.308   0.023   4.504 -1.1438  0.5369  1.2297
  817MOL0     H10275   6.057  -0.105   3.824 -1.2859  0.4545  1.1976
  817MOL0     H10276   6.227   0.057   3.780 -0.2547 -0.1204  0.1218
  817MOL0     H10277   6.389   0.457   3.890  1.4741  0.9148 -2.6068
  817MOL0     H10278   6.524   0.657   3.829 -1.5457 -1.5379 -2.7753
  817MOL0     H10279   6.307   1.194   3.559  1.4990 -0.5171 -0.0406
  817MOL0     H10280   6.087   1.116   3.558  1.8600  1.5622 -1.4241
  817MOL0     H10281   5.676   1.010   3.735 -1.2618  0.4353 -0.8689
  817MOL0     H10282   5.463   0.907   3.759 -0.0241 -0.4994  0.1582
  817MOL0     H10283   5.305   0.781   3.678 -1.7226  1.4781  2.1410
  817MOL0     H10284   5.276   0.745   3.848  2.1812  1.6715  0.1030
  817MOL0     H10285   5.241   0.494   3.758  1.1578  0.5078 -0.0545
  817MOL0     H10286   5.207   0.573   3.607 -0.4520 -0.4045 -0.6221
  817MOL0     H10287   5.043   0.731   3.727  0.2704 -0.3377 -0.2680
  817MOL0     H10288   5.034   0.620   3.865  1.9894 -1.4678 -0.3854
  817MOL0     H10289   4.953   0.566   3.592 -1.7915  3.1076  1.4819
  817MOL0     H10290   5.035   0.434   3.693  0.4345  0.9103  0.9388
  817MOL0     H10291   4.633   0.475   3.831 -1.0501 -2.1104 -2.1694
  817MOL0     H10292   5.650   0.525   3.730  3.0067  0.0003 -1.2676
  817MOL0     H10293   5.955   0.593   3.630  0.5755  1.4319  0.5959
  817MOL0     H10294   5.990   0.635   3.796 -0.0775 -2.9656  1.3785
  817MOL0     H10295   5.879   0.508   3.768  0.3807  0.4669 -0.4903
  818MOL0     O10296   6.248   4.071   7.854 -0.5693  0.0919 -0.3151
  818MOL0     C10297   6.321   4.098   7.755  0.3645 -0.0473 -0.0818
  818MOL0     O10298   6.306   4.055   7.630 -0.1099  0.2733  0.6965
  818MOL0     C10299   6.195   3.988   7.597  0.5747 -0.3771 -0.4532
  818MOL0     C10300   6.175   3.860   7.650 -0.3495  0.0770  0.0710
  818MOL0     C10301   6.064   3.790   7.609  0.0145 -0.3767 -0.3636
  818MOL0     C10302   5.975   3.827   7.506 -0.4376 -0.5738  0.4070
  818MOL0     O10303   5.872   3.748   7.454  0.6552  0.6476 -0.4327
  818MOL0     C10304   5.827   3.641   7.545 -0.3080 -0.5172  0.9228
  818MOL0     C10305   5.713   3.579   7.478 -0.4538  0.2667  0.2674
  818MOL0     C10306   5.675   3.476   7.590  0.4306 -0.6111  0.0428
  818MOL0     C10307   5.588   3.370   7.522 -0.0939  0.4320 -0.3879
  818MOL0     C10308   5.464   3.427   7.457 -0.5094 -0.3645  0.6657
  818MOL0     C10309   5.358   3.326   7.411 -0.1078 -0.0853  0.0922
  818MOL0     C10310   5.245   3.293   7.501  0.2657 -0.4276  0.8508
  818MOL0     C10311   5.115   3.254   7.420 -0.5820 -0.0969  0.7381
  818MOL0     N10312   5.018   3.193   7.519  0.3328 -0.6601 -0.4098
  818MOL0     C10313   4.888   3.156   7.493  0.2146  0.1510  0.0011
  818MOL0     C10314   4.827   3.143   7.614  0.1531 -0.0396  0.4653
  818MOL0     C10315   4.701   3.065   7.654 -0.1135  0.0739 -0.7119
  818MOL0     C10316   4.703   2.925   7.602  1.0177 -0.6961 -0.4395
  818MOL0     C10317   4.790   2.816   7.663  0.6215 -0.0300 -0.4129
  818MOL0     C10318   4.779   2.784   7.812 -0.3340  0.2686 -0.2797
  818MOL0     O10319   4.887   2.697   7.847 -0.0662 -0.1836  0.0632
  818MOL0     C10320   5.022   2.740   7.858 -0.6697  0.0350  0.5823
  818MOL0     C10321   5.063   2.875   7.857  0.4343  0.7663 -0.2861
  818MOL0     C10322   5.196   2.902   7.842 -0.2443  0.1255  0.4038
  818MOL0     C10323   5.290   2.801   7.841  0.4612 -0.3397 -0.2886
  818MOL0     C10324   5.436   2.838   7.836  0.5306  0.2376 -0.4711
  818MOL0     O10325   5.525   2.745   7.874  0.3720 -0.6187 -0.3286
  818MOL0     C10326   5.653   2.782   7.889 -0.5675  0.3657  0.1154
  818MOL0     C10327   5.745   2.692   7.840 -0.5800  0.2640  0.0130
  818MOL0     C10328   5.884   2.715   7.840  0.1248  0.1748 -0.2621
  818MOL0     C10329   5.935   2.836   7.900  0.6730  0.1003  0.1256
  818MOL0     O10330   6.071   2.871   7.911  0.6669  0.3722 -0.5524
  818MOL0     C10331   6.154   2.804   7.814  0.8255  0.3244 -0.5177
  818MOL0     C10332   6.298   2.851   7.839  0.4254  0.2901 -0.3553
  818MOL0     C10333   6.320   3.003   7.810  0.6267  0.8446 -0.6050
  818MOL0     C10334   6.458   3.050   7.856 -0.3238  0.3417 -0.2382
  818MOL0     C10335   6.505   3.176   7.779 -0.3533 -0.2204  0.7108
  818MOL0     C10336   6.648   3.199   7.823 -0.5239 -0.4921  0.1411
  818MOL0     C10337   6.715   3.309   7.750  0.0396  0.3590 -0.3181
  818MOL0     C10338   6.845   3.261   7.691  0.2366  0.7788 -0.1155
  818MOL0    Cl10339   6.945   3.401   7.649  0.2810 -0.4250 -0.2765
  818MOL0     C10340   5.841   2.915   7.965  0.9028 -0.1378 -0.4039
  818MOL0     C10341   5.701   2.890   7.959  0.4837 -0.2450  0.4921
  818MOL0     O10342   5.455   2.953   7.811 -0.4062  0.1489 -0.3666
  818MOL0     C10343   5.257   2.671   7.865  0.7278  0.5310 -0.1015
  818MOL0     C10344   5.118   2.648   7.861 -0.5344  0.0826  0.0687
  818MOL0     N10345   4.923   3.176   7.706 -0.3241 -0.0680  0.2145
  818MOL0     N10346   5.036   3.211   7.652  0.1694 -0.8195  0.5194
  818MOL0     C10347   5.998   3.950   7.452  0.4605 -0.5929 -0.0715
  818MOL0     C10348   6.102   4.034   7.497  0.4133 -0.2055  0.7222
  818MOL0     C10349   6.452   4.182   7.772 -0.4789  0.3360 -0.1807
  818MOL0     C10350   6.553   4.162   7.686 -1.5299  0.3636 -0.4850
  818MOL0     C10351   6.686   4.206   7.708 -0.6183 -0.6515  0.6448
  818MOL0     C10352   6.716   4.292   7.818 -0.2018  0.0886  0.4053
  818MOL0     O10353   6.831   4.368   7.831 -0.1073 -0.3408 -0.1273
  818MOL0     C10354   6.959   4.309   7.785  0.4936 -0.7784 -0.4635
  818MOL0     C10355   7.081   4.392   7.835 -0.2785 -0.5147  0.0075
  818MOL0     C10356   7.215   4.328   7.786  0.4088  0.8850  0.8217
  818MOL0     C10357   7.217   4.327   7.635 -0.0472 -0.4110  0.8210
  818MOL0     C10358   7.352   4.306   7.579  0.6023  1.3912  0.4287
  818MOL0     C10359   7.465   4.296   7.544 -0.3508 -0.2928  0.2014
  818MOL0     C10360   6.606   4.322   7.902 -0.4880  0.0078 -0.3650
  818MOL0     C10361   6.477   4.269   7.882  0.0417 -0.6949 -0.2014
  818MOL0     C10362   6.374   4.300   7.985  0.4225 -0.2266  0.7291
  818MOL0     H10363   6.249   3.823   7.720  1.0775 -0.9693 -1.9160
  818MOL0     H10364   6.046   3.695   7.657  0.3985 -0.6821 -0.8189
  818MOL0     H10365   5.905   3.565   7.553 -0.0668 -0.3590  0.2320
  818MOL0     H10366   5.804   3.679   7.644 -0.4964  1.0661  0.3031
  818MOL0     H10367   5.734   3.537   7.379 -1.9693  3.1952 -1.4449
  818MOL0     H10368   5.638   3.657   7.460  0.7420  1.1700 -0.9706
  818MOL0     H10369   5.612   3.520   7.668  1.0049 -1.9448  1.2900
  818MOL0     H10370   5.761   3.431   7.639  1.6254  2.1632  0.7064
  818MOL0     H10371   5.653   3.315   7.454  2.0735  3.3032 -0.8251
  818MOL0     H10372   5.553   3.304   7.601 -1.5026 -0.3714 -1.6122
  818MOL0     H10373   5.424   3.499   7.529 -0.5752 -1.2299  1.5034
  818MOL0     H10374   5.496   3.481   7.367  0.6430  0.1743  1.3799
  818MOL0     H10375   5.317   3.367   7.318 -0.1959  0.6524  0.4487
  818MOL0     H10376   5.416   3.237   7.386  0.4988  0.5503 -0.8269
  818MOL0     H10377   5.211   3.380   7.558 -0.0562 -1.1022  1.7243
  818MOL0     H10378   5.274   3.217   7.574  0.2437 -0.9232  0.3510
  818MOL0     H10379   5.064   3.340   7.377 -2.5097 -0.2325  2.5644
  818MOL0     H10380   5.132   3.183   7.339 -3.2681 -0.2698  0.2309
  818MOL0     H10381   4.836   3.149   7.398  0.0863 -0.8868  0.1302
  818MOL0     H10382   4.700   3.062   7.763  2.2794 -0.5429 -0.6432
  818MOL0     H10383   4.618   3.125   7.615  1.1699  1.7008 -1.0915
  818MOL0     H10384   4.598   2.901   7.622  1.1357  0.1367  1.3415
  818MOL0     H10385   4.718   2.925   7.493  0.3916 -0.5711 -0.5282
  818MOL0     H10386   4.893   2.845   7.640  1.1042 -2.3407 -1.5061
  818MOL0     H10387   4.761   2.728   7.606 -0.9914  1.1284 -1.4571
  818MOL0     H10388   4.686   2.732   7.837 -1.1455  0.3177 -2.9571
  818MOL0     H10389   4.782   2.882   7.861  1.2396  1.2780 -2.2864
  818MOL0     H10390   4.997   2.961   7.868  0.4037  0.7298 -0.1714
  818MOL0     H10391   5.221   3.007   7.829 -2.8939  0.5822 -2.1036
  818MOL0     H10392   5.718   2.591   7.812  1.6156 -0.5869  0.7670
  818MOL0     H10393   5.940   2.636   7.791 -1.2721 -0.6456 -0.5789
  818MOL0     H10394   6.166   2.696   7.823 -2.1886  0.0035  1.1310
  818MOL0     H10395   6.120   2.835   7.714 -0.0290 -2.0988 -1.0523
  818MOL0     H10396   6.327   2.822   7.941 -0.0078 -0.5303 -0.4522
  818MOL0     H10397   6.357   2.789   7.771 -0.5598  0.5626 -1.4851
  818MOL0     H10398   6.313   3.014   7.701  1.5335 -4.9630 -1.5551
  818MOL0     H10399   6.234   3.058   7.849  0.0441  0.6127 -1.5265
  818MOL0     H10400   6.528   2.966   7.844  0.0755  0.2217  2.4180
  818MOL0     H10401   6.452   3.065   7.964  1.2275  2.2756 -0.3496
  818MOL0     H10402   6.442   3.261   7.806  4.3078  2.7715  3.8122
  818MOL0     H10403   6.496   3.151   7.673 -1.6976 -1.9577  1.1883
  818MOL0     H10404   6.664   3.219   7.929  0.3159  3.0174 -0.5055
  818MOL0     H10405   6.697   3.105   7.796 -1.1614 -0.2924 -1.8539
  818MOL0     H10406   6.730   3.399   7.810 -2.3588  0.5061  0.1320
  818MOL0     H10407   6.662   3.338   7.658 -2.4428  4.8436  2.2005
  818MOL0     H10408   6.906   3.207   7.765 -0.7368 -0.1146  0.0523
  818MOL0     H10409   6.822   3.209   7.598 -0.6531  0.0585  0.4891
  818MOL0     H10410   5.881   2.989   8.034  2.0279 -2.5899  1.7223
  818MOL0     H10411   5.633   2.958   8.010  2.0341  2.7191 -1.1135
  818MOL0     H10412   5.328   2.588   7.868  1.1172  0.8683  0.2305
  818MOL0     H10413   5.100   2.543   7.879  1.1816 -0.6385 -1.9571
  818MOL0     H10414   5.935   3.976   7.368 -1.1271  0.0469  1.2689
  818MOL0     H10415   6.099   4.136   7.458  1.8812  0.0492  1.1841
  818MOL0     H10416   6.548   4.085   7.610  2.9788 -0.3593 -0.3500
  818MOL0     H10417   6.769   4.180   7.642  0.4304 -1.4677  2.2245
  818MOL0     H10418   6.958   4.312   7.676  2.0488  0.3881 -0.4786
  818MOL0     H10419   6.955   4.204   7.815 -2.1184 -0.0905  2.0014
  818MOL0     H10420   7.072   4.388   7.944 -0.8736 -1.0639 -0.0560
  818MOL0     H10421   7.069   4.493   7.795  1.9707 -1.6432 -4.0938
  818MOL0     H10422   7.219   4.225   7.823  1.0998  1.3802  2.1862
  818MOL0     H10423   7.304   4.373   7.832  2.7213 -3.0647  0.7335
  818MOL0     H10424   7.145   4.258   7.589  0.7378 -1.1726  0.6962
  818MOL0     H10425   7.197   4.430   7.604  2.8419 -0.4725 -1.7213
  818MOL0     H10426   7.566   4.308   7.508 -1.1439  1.6186 -1.5926
  818MOL0     H10427   6.621   4.376   7.995 -2.7343 -2.4614  1.5728
  818MOL0     H10428   6.362   4.211   8.048 -0.9177 -1.9751 -1.8501
  818MOL0     H10429   6.406   4.379   8.055 -0.2134 -2.2035  3.4374
  818MOL0     H10430   6.276   4.315   7.939  0.6869  1.4501  0.6383
  819MOL0     O10431   6.257   3.482   5.665  0.5898 -0.0450  0.3161
  819MOL0     C10432   6.227   3.602   5.649 -0.9810 -0.4302  0.2417
  819MOL0     O10433   6.310   3.698   5.580 -0.3162 -0.2330  0.7059
  819MOL0     C10434   6.417   3.655   5.505  0.1933  0.2429 -0.4569
  819MOL0     C10435   6.423   3.534   5.423  0.7632  0.0966  0.1997
  819MOL0     C10436   6.534   3.501   5.345 -0.7351 -0.0675 -0.3303
  819MOL0     C10437   6.650   3.579   5.360  0.3216  0.7452 -0.0566
  819MOL0     O10438   6.756   3.527   5.284 -0.7424  0.5364 -0.2097
  819MOL0     C10439   6.879   3.608   5.274  0.2715 -0.4286 -0.4125
  819MOL0     C10440   6.978   3.537   5.180  0.0953 -0.3384 -0.0093
  819MOL0     C10441   7.036   3.407   5.233  0.1533  0.5499 -0.9857
  819MOL0     C10442   7.133   3.356   5.132 -0.0964  0.5565  1.0692
  819MOL0     C10443   7.166   3.201   5.163  0.3653 -0.0186  1.4897
  819MOL0     C10444   7.232   3.169   5.291  0.2094 -0.3517  0.8747
  819MOL0     C10445   7.363   3.243   5.304  0.2746 -0.0565 -0.1260
  819MOL0     C10446   7.453   3.174   5.413 -0.1943 -0.2848 -0.8484
  819MOL0     N10447   7.591   3.223   5.404  0.2763  0.8032 -0.0175
  819MOL0     C10448   7.643   3.341   5.345  0.1757  0.4139  0.3321
  819MOL0     C10449   7.773   3.346   5.388  0.7235  0.3518  0.3375
  819MOL0     C10450   7.875   3.459   5.362 -0.9327  0.7028 -0.4382
  819MOL0     C10451   7.915   3.480   5.218  0.4567 -0.2355 -0.5498
  819MOL0     C10452   7.993   3.377   5.147 -0.2852 -0.6000  0.1699
  819MOL0     C10453   8.142   3.396   5.184 -0.0482 -0.2632 -0.4958
  819MOL0     O10454   8.204   3.511   5.121  0.0844  0.1306  0.3254
  819MOL0     C10455   8.338   3.524   5.120 -0.1786 -0.3329 -0.1170
  819MOL0     C10456   8.440   3.430   5.149 -0.2258 -0.0377  0.0685
  819MOL0     C10457   8.579   3.469   5.155 -0.1445 -0.3427 -1.1751
  819MOL0     C10458   8.621   3.594   5.111 -1.0125  0.3698 -0.1096
  819MOL0     C10459   8.770   3.621   5.099  0.9331 -0.2002 -0.1892
  819MOL0     O10460   8.808   3.738   5.041  0.1589  0.1178  0.0922
  819MOL0     C10461   8.946   3.760   5.024  0.6087  0.2151  0.3399
  819MOL0     C10462   9.011   3.719   4.906  0.3989  0.4763 -1.0537
  819MOL0     C10463   9.148   3.737   4.886 -0.3618 -0.1546 -0.2400
  819MOL0     C10464   9.227   3.810   4.983 -0.3041  0.2155  1.0409
  819MOL0     O10465   9.364   3.816   4.970  0.0179 -0.1737  0.5349
  819MOL0     C10466   9.451   3.861   5.076  0.0492  0.2750  0.0827
  819MOL0     C10467   9.599   3.858   5.021  0.1656 -0.1318 -0.0841
  819MOL0     C10468   9.693   3.901   5.145 -0.5362  0.4177  0.0287
  819MOL0     C10469   9.838   3.901   5.084  0.0169 -0.6902 -0.1506
  819MOL0     C10470   9.954   3.939   5.174 -1.0059  0.6629 -0.2619
  819MOL0     C10471  10.090   3.888   5.125 -0.0162 -0.0707 -0.3086
  819MOL0     C10472  10.203   3.968   5.198  0.1849  0.9364  1.1638
  819MOL0     C10473  10.335   3.901   5.150  0.1860 -0.1940 -0.1801
  819MOL0    Cl10474  10.456   3.976   5.244 -0.0189  0.2525  0.3067
  819MOL0     C10475   9.150   3.864   5.093  0.1699  0.7212  0.3092
  819MOL0     C10476   9.013   3.836   5.114 -0.6438 -1.1016  0.8554
  819MOL0     O10477   8.854   3.538   5.136  0.1919  0.3826  0.1048
  819MOL0     C10478   8.521   3.681   5.084  0.0178 -0.5398  0.2258
  819MOL0     C10479   8.381   3.650   5.085  0.0574 -0.1425 -0.5550
  819MOL0     N10480   7.799   3.235   5.470  1.0602  0.1378 -0.8096
  819MOL0     N10481   7.687   3.161   5.471 -0.3513  0.0849  0.3918
  819MOL0     C10482   6.649   3.693   5.435  0.0574 -0.9119  0.6556
  819MOL0     C10483   6.533   3.738   5.497  0.5007  0.4679  0.1942
  819MOL0     C10484   6.101   3.667   5.706 -0.0248 -0.5176  0.0416
  819MOL0     C10485   6.100   3.807   5.732 -0.7665 -0.1851 -0.5999
  819MOL0     C10486   5.990   3.864   5.799 -0.4504  0.0832 -0.3253
  819MOL0     C10487   5.876   3.789   5.843  0.3734  0.3566 -0.4218
  819MOL0     O10488   5.783   3.849   5.916 -0.2071 -0.4102 -0.1029
  819MOL0     C10489   5.678   3.774   5.974 -0.3110  0.3375  1.3907
  819MOL0     C10490   5.564   3.871   6.017 -0.5791 -0.2526 -0.3115
  819MOL0     C10491   5.619   3.981   6.108  0.3143 -0.2853 -0.8898
  819MOL0     C10492   5.639   3.927   6.251 -0.1545 -0.2170  0.2400
  819MOL0     C10493   5.703   4.026   6.335  0.6291  0.2332  0.4567
  819MOL0     C10494   5.749   4.107   6.412 -0.1403 -0.2359 -0.2143
  819MOL0     C10495   5.881   3.646   5.822  0.9129 -0.1805 -0.9102
  819MOL0     C10496   5.987   3.588   5.752  0.2793  0.7462 -0.5828
  819MOL0     C10497   5.988   3.430   5.738 -0.6570  0.2332  0.2162
  819MOL0     H10498   6.339   3.464   5.421  2.1246 -1.6031  0.2964
  819MOL0     H10499   6.524   3.422   5.271 -0.7500 -0.3166 -0.0654
  819MOL0     H10500   6.859   3.711   5.242 -3.8445 -1.2559 -1.0052
  819MOL0     H10501   6.940   3.611   5.365 -0.2659 -0.4104 -0.0474
  819MOL0     H10502   7.058   3.603   5.146  0.4754 -1.2832 -1.0131
  819MOL0     H10503   6.927   3.517   5.085  1.2323 -1.6942 -0.3664
  819MOL0     H10504   6.946   3.347   5.244 -0.1766  1.3761  1.5744
  819MOL0     H10505   7.073   3.423   5.334 -1.4188 -0.3899 -0.2268
  819MOL0     H10506   7.088   3.353   5.032  0.9275 -2.2126  0.5956
  819MOL0     H10507   7.225   3.414   5.124  1.7350 -2.2891 -0.3713
  819MOL0     H10508   7.068   3.153   5.157  0.6106 -0.3836 -2.2861
  819MOL0     H10509   7.223   3.168   5.076 -0.3431 -1.0585  1.3972
  819MOL0     H10510   7.161   3.209   5.364 -1.2228 -0.7040 -0.2890
  819MOL0     H10511   7.247   3.062   5.307 -3.5665 -0.6625  3.9463
  819MOL0     H10512   7.358   3.350   5.327  1.2459 -0.5942  3.1566
  819MOL0     H10513   7.413   3.234   5.207 -2.8726  2.3045 -2.1618
  819MOL0     H10514   7.408   3.200   5.509  0.8793  2.3540 -0.9768
  819MOL0     H10515   7.456   3.066   5.395  2.3689 -0.4382  0.1076
  819MOL0     H10516   7.594   3.415   5.283  1.6253  1.2444  0.1499
  819MOL0     H10517   7.815   3.543   5.399 -3.2653 -1.0898  0.0486
  819MOL0     H10518   7.962   3.448   5.427  1.2796  0.3367 -3.2528
  819MOL0     H10519   7.825   3.485   5.156 -0.7556  0.3047  1.1966
  819MOL0     H10520   7.961   3.580   5.213 -0.9013  0.4839  0.5659
  819MOL0     H10521   7.990   3.392   5.039 -0.7438  0.4884  0.3177
  819MOL0     H10522   7.964   3.274   5.171 -1.6113 -0.6108 -1.3117
  819MOL0     H10523   8.206   3.310   5.160  0.7899 -0.4181  2.0583
  819MOL0     H10524   8.160   3.410   5.290  1.9279  2.1039 -1.0749
  819MOL0     H10525   8.426   3.328   5.185  2.0457 -0.1050  0.9040
  819MOL0     H10526   8.663   3.406   5.184  1.6927  2.4632  0.1299
  819MOL0     H10527   8.939   3.681   4.834 -1.7401 -0.7048  1.5370
  819MOL0     H10528   9.204   3.699   4.801  2.6888  3.0944  0.0549
  819MOL0     H10529   9.429   3.966   5.097  2.8883  1.5162 -2.5308
  819MOL0     H10530   9.443   3.800   5.167 -0.6810 -0.1414 -0.2517
  819MOL0     H10531   9.635   3.759   4.989 -0.0021 -0.1123 -0.3332
  819MOL0     H10532   9.605   3.934   4.942 -1.2045 -1.6141 -1.7138
  819MOL0     H10533   9.662   3.996   5.188 -1.0411  0.6272 -0.7839
  819MOL0     H10534   9.703   3.828   5.226 -1.7118 -0.3643 -0.5073
  819MOL0     H10535   9.845   3.962   4.994 -3.2294  0.1285  0.0308
  819MOL0     H10536   9.863   3.798   5.055  1.0758 -0.9637  1.5706
  819MOL0     H10537   9.940   3.901   5.276  0.3876 -0.0534 -0.3196
  819MOL0     H10538   9.958   4.049   5.175 -3.5821  0.8879 -2.5701
  819MOL0     H10539  10.102   3.781   5.146  0.0963 -0.1949 -0.9746
  819MOL0     H10540  10.099   3.906   5.018 -1.0402 -0.8969 -0.5450
  819MOL0     H10541  10.195   3.941   5.304 -0.2025 -1.8163  0.5166
  819MOL0     H10542  10.193   4.074   5.173 -0.5846  0.3165 -1.4389
  819MOL0     H10543  10.315   3.794   5.157 -2.8183  0.2854 -0.0961
  819MOL0     H10544  10.362   3.924   5.047  2.4673  3.0261  0.9691
  819MOL0     H10545   9.203   3.912   5.175  1.8086  2.1035 -1.4515
  819MOL0     H10546   8.962   3.875   5.201 -3.4937 -0.5394 -0.9343
  819MOL0     H10547   8.557   3.779   5.053 -0.0132  0.3200  2.7241
  819MOL0     H10548   8.307   3.725   5.057 -1.1700 -0.9093  0.5317
  819MOL0     H10549   6.732   3.763   5.435 -0.6521  0.5877 -6.3630
  819MOL0     H10550   6.525   3.833   5.549 -0.9734 -0.8876  2.6435
  819MOL0     H10551   6.185   3.869   5.707 -0.6179 -0.8944 -1.9951
  819MOL0     H10552   5.983   3.970   5.819 -0.6376  0.5969 -2.7751
  819MOL0     H10553   5.718   3.711   6.055  0.0735  1.5675  2.1835
  819MOL0     H10554   5.636   3.710   5.896 -1.5250  3.4225 -0.6536
  819MOL0     H10555   5.483   3.812   6.061  0.8790 -1.1361  1.3185
  819MOL0     H10556   5.533   3.915   5.922  1.1036  1.1197 -0.2705
  819MOL0     H10557   5.541   4.056   6.121 -0.4387 -1.4712  2.3746
  819MOL0     H10558   5.700   4.037   6.060 -1.2001  3.8774  0.9610
  819MOL0     H10559   5.545   3.899   6.299  0.7790 -2.3546  0.9395
  819MOL0     H10560   5.680   3.826   6.251 -2.0216 -1.0279  0.3920
  819MOL0     H10561   5.794   4.182   6.473 -0.6229  0.9415 -1.2527
  819MOL0     H10562   5.805   3.580   5.862 -0.5348  2.0176  0.1438
  819MOL0     H10563   6.021   3.390   5.642  4.4535 -2.4237  2.7206
  819MOL0     H10564   6.054   3.381   5.810  1.4055  1.0899 -1.0066
  819MOL0     H10565   5.887   3.387   5.743 -0.5819  0.2224  3.8766
  820MOL0     O10566   3.910   1.248   9.768 -0.7196  0.2289  0.2051
  820MOL0     C10567   3.864   1.302   9.672 -0.3446  0.1451  0.9139
  820MOL0     O10568   3.935   1.374   9.585 -0.4503 -0.7532 -0.0989
  820MOL0     C10569   4.074   1.358   9.587 -0.6235  0.5685 -0.1776
  820MOL0     C10570   4.138   1.254   9.518 -0.0492 -0.7286  0.4699
  820MOL0     C10571   4.278   1.253   9.521 -0.4698 -0.2708  0.9342
  820MOL0     C10572   4.349   1.356   9.601  0.0273  0.1976 -0.5383
  820MOL0     O10573   4.483   1.359   9.609 -0.3149 -0.1564 -0.2068
  820MOL0     C10574   4.558   1.252   9.550  0.2448  0.2942 -0.0312
  820MOL0     C10575   4.700   1.279   9.597 -0.7058 -0.1401  0.4065
  820MOL0     C10576   4.810   1.216   9.513 -0.4961  0.4268  0.4210
  820MOL0     C10577   4.935   1.165   9.589 -0.4242  0.7795  0.1777
  820MOL0     C10578   5.035   1.120   9.479  0.1603  0.1223  0.0144
  820MOL0     C10579   5.170   1.087   9.539 -0.0607 -0.6822  0.0023
  820MOL0     C10580   5.269   1.031   9.437 -0.0334 -0.1090  1.1619
  820MOL0     C10581   5.239   0.886   9.396 -0.7043 -0.3153 -1.2255
  820MOL0     N10582   5.357   0.819   9.345  0.3757 -0.1733 -0.6775
  820MOL0     C10583   5.450   0.866   9.252 -0.1140 -0.6645 -0.5813
  820MOL0     C10584   5.545   0.775   9.239  0.4185 -0.1263  0.2397
  820MOL0     C10585   5.656   0.771   9.145 -0.6712 -0.9587  0.0613
  820MOL0     C10586   5.804   0.787   9.192 -0.6106 -0.1139  0.3060
  820MOL0     C10587   5.898   0.744   9.084  0.1025 -0.3486 -0.5252
  820MOL0     C10588   6.038   0.725   9.147  0.4366  0.2564  0.4751
  820MOL0     O10589   6.118   0.700   9.032 -0.0358 -1.2346  0.4088
  820MOL0     C10590   6.256   0.732   9.058  0.3139  0.1519 -0.2710
  820MOL0     C10591   6.318   0.807   8.960 -0.1192 -0.1530 -0.1321
  820MOL0     C10592   6.458   0.838   8.967  0.7902 -0.4983  0.4914
  820MOL0     C10593   6.526   0.817   9.084  0.6683 -0.5294 -1.0711
  820MOL0     C10594   6.663   0.877   9.103 -0.2767  0.2667  0.3659
  820MOL0     O10595   6.723   0.831   9.215  0.0538  0.1625  0.2881
  820MOL0     C10596   6.852   0.852   9.237 -0.1882  0.4352 -0.1476
  820MOL0     C10597   6.885   0.897   9.364 -0.5130 -0.2206 -0.7760
  820MOL0     C10598   7.022   0.918   9.401  0.1599 -1.4838 -0.0512
  820MOL0     C10599   7.116   0.898   9.302 -0.5589 -0.0515  0.3584
  820MOL0     O10600   7.249   0.926   9.316 -0.3294  0.4642  0.5633
  820MOL0     C10601   7.308   0.942   9.445 -0.1228 -0.3480  0.0643
  820MOL0     C10602   7.460   0.963   9.416  0.1430  0.3087 -0.0494
  820MOL0     C10603   7.491   1.073   9.325 -0.1840  0.9994  0.5255
  820MOL0     C10604   7.639   1.114   9.318  0.1420 -0.0305  0.3605
  820MOL0     C10605   7.651   1.224   9.217 -0.3842 -0.3895  0.2854
  820MOL0     C10606   7.799   1.280   9.230  0.4497 -0.0634  0.0470
  820MOL0     C10607   7.909   1.191   9.162 -0.4373  0.0291  1.4687
  820MOL0     C10608   8.027   1.276   9.119 -1.3464 -0.2006 -0.1426
  820MOL0    Cl10609   8.175   1.182   9.084  0.2194  0.1394  0.2111
  820MOL0     C10610   7.082   0.856   9.174 -0.0524 -0.9674 -0.1935
  820MOL0     C10611   6.955   0.829   9.143  0.1427 -0.5932  0.0463
  820MOL0     O10612   6.711   0.960   9.027 -0.1426 -0.0570 -0.2849
  820MOL0     C10613   6.451   0.762   9.194  0.6478  0.2059 -0.0615
  820MOL0     C10614   6.323   0.714   9.177 -0.0016  0.1358  0.6604
  820MOL0     N10615   5.505   0.662   9.311 -0.1495  0.1717  0.8971
  820MOL0     N10616   5.401   0.693   9.381 -0.2552 -0.1111  1.0241
  820MOL0     C10617   4.271   1.462   9.652 -0.6306  0.0874 -0.0053
  820MOL0     C10618   4.142   1.459   9.651 -0.1131 -0.3103 -0.3557
  820MOL0     C10619   3.713   1.307   9.642 -0.5373  0.1507 -0.0852
  820MOL0     C10620   3.680   1.364   9.514 -0.0979  0.2365  0.4424
  820MOL0     C10621   3.546   1.370   9.469 -0.0967  0.2282  0.0432
  820MOL0     C10622   3.440   1.325   9.547 -0.3055 -0.8364  0.1585
  820MOL0     O10623   3.315   1.329   9.486 -0.4381 -0.3228 -0.0677
  820MOL0     C10624   3.204   1.321   9.581 -0.2637  0.1633 -0.2646
  820MOL0     C10625   3.065   1.339   9.517  0.6460  0.5549  0.9766
  820MOL0     C10626   3.016   1.212   9.447  0.0861 -1.1861  0.3808
  820MOL0     C10627   2.888   1.245   9.365 -0.9457 -0.2614  0.3730
  820MOL0     C10628   2.773   1.262   9.456 -0.3655  0.4404 -0.2027
  820MOL0     C10629   2.679   1.263   9.526  0.2757 -0.8917 -0.1980
  820MOL0     C10630   3.474   1.274   9.677  0.2236  0.3553  0.2701
  820MOL0     C10631   3.603   1.260   9.720  0.9105 -1.3299 -0.1809
  820MOL0     C10632   3.631   1.206   9.860 -0.4022 -0.7798 -0.3940
  820MOL0     H10633   4.074   1.181   9.471  0.8561  0.0639 -2.1501
  820MOL0     H10634   4.324   1.169   9.470  1.7251  0.1948  2.0580
  820MOL0     H10635   4.532   1.156   9.595  0.9198 -0.6071 -1.5248
  820MOL0     H10636   4.545   1.256   9.442 -2.5684 -2.5844  0.0493
  820MOL0     H10637   4.701   1.238   9.699 -0.8204  1.1766  0.9568
  820MOL0     H10638   4.726   1.385   9.599  2.1140 -0.7338 -0.9709
  820MOL0     H10639   4.850   1.285   9.438  0.5633 -0.6912 -0.0769
  820MOL0     H10640   4.772   1.129   9.458  2.4833 -1.0520  0.5038
  820MOL0     H10641   4.977   1.242   9.654  0.6740 -0.4190  0.9414
  820MOL0     H10642   4.910   1.076   9.647 -3.9485  0.7285 -1.1844
  820MOL0     H10643   4.989   1.029   9.441  1.2553 -0.2848 -0.3578
  820MOL0     H10644   5.051   1.189   9.396 -1.3946  1.0405  0.4308
  820MOL0     H10645   5.207   1.183   9.575 -0.6373  0.3702 -2.0631
  820MOL0     H10646   5.158   1.018   9.623 -0.1756 -2.0952 -1.1362
  820MOL0     H10647   5.373   1.031   9.472  0.0512 -0.6128  0.9197
  820MOL0     H10648   5.266   1.096   9.349  2.5658 -0.4600  0.7252
  820MOL0     H10649   5.211   0.840   9.491 -1.3587 -1.8821 -2.1326
  820MOL0     H10650   5.154   0.871   9.329 -1.8967 -0.7638  0.3279
  820MOL0     H10651   5.458   0.966   9.210 -0.6080  0.1661  1.1889
  820MOL0     H10652   5.644   0.672   9.100 -2.6995  0.1552 -2.0041
  820MOL0     H10653   5.633   0.845   9.069 -0.6307 -1.4304 -0.4141
  820MOL0     H10654   5.829   0.893   9.201  2.8907 -0.7681 -0.0463
  820MOL0     H10655   5.816   0.730   9.285 -0.2455 -0.7157 -0.1021
  820MOL0     H10656   5.904   0.815   9.001  1.7865  2.6816  1.9415
  820MOL0     H10657   5.876   0.652   9.030  0.1166  0.6726 -2.3613
  820MOL0     H10658   6.045   0.640   9.216 -1.8436  1.5151  2.4080
  820MOL0     H10659   6.071   0.812   9.204  0.0905 -0.7922  2.3466
  820MOL0     H10660   6.269   0.843   8.869  0.5203 -2.5865 -1.5344
  820MOL0     H10661   6.505   0.907   8.897 -2.8968  4.4697  2.2681
  820MOL0     H10662   6.806   0.923   9.432 -0.5908  1.1282 -1.3517
  820MOL0     H10663   7.034   0.967   9.497 -5.9645  1.5632 -0.3266
  820MOL0     H10664   7.265   1.032   9.491 -0.7122 -0.3638 -0.4423
  820MOL0     H10665   7.302   0.850   9.504 -1.8362  0.3034  0.9787
  820MOL0     H10666   7.514   0.991   9.507 -0.0085  0.3963  0.0127
  820MOL0     H10667   7.515   0.876   9.379  0.8326 -0.2794  2.1891
  820MOL0     H10668   7.459   1.045   9.224  1.8156 -0.0332  0.1198
  820MOL0     H10669   7.431   1.160   9.355  0.2001  1.1664  0.8163
  820MOL0     H10670   7.701   1.026   9.303 -0.7960 -0.5646 -0.4581
  820MOL0     H10671   7.671   1.163   9.411  0.6271  0.8391 -0.2514
  820MOL0     H10672   7.574   1.299   9.236 -1.4511 -1.4674  0.3452
  820MOL0     H10673   7.637   1.182   9.117 -0.8332  0.4589 -0.0194
  820MOL0     H10674   7.790   1.377   9.179 -2.6869 -0.9087 -1.3004
  820MOL0     H10675   7.824   1.298   9.335 -2.8780  1.5830  0.7121
  820MOL0     H10676   7.864   1.142   9.075 -0.4294  0.7977  1.0255
  820MOL0     H10677   7.933   1.114   9.236  0.9481 -1.2563 -0.2501
  820MOL0     H10678   8.012   1.335   9.028 -0.7232  1.4578  0.7862
  820MOL0     H10679   8.054   1.348   9.197  0.9558  1.0217 -1.9312
  820MOL0     H10680   7.168   0.854   9.107  0.6775  0.5287  0.6542
  820MOL0     H10681   6.920   0.794   9.046 -3.9855 -1.1973  1.5570
  820MOL0     H10682   6.497   0.744   9.290 -1.5154 -0.2929  0.9462
  820MOL0     H10683   6.292   0.692   9.278 -1.2133 -1.8919 -0.1055
  820MOL0     H10684   4.330   1.544   9.693  1.0606 -0.4227 -1.3243
  820MOL0     H10685   4.093   1.536   9.711  1.0498  0.2386 -0.0736
  820MOL0     H10686   3.753   1.401   9.443  1.0076  0.6430  1.7525
  820MOL0     H10687   3.526   1.410   9.370 -1.1544  0.9892  0.5430
  820MOL0     H10688   3.219   1.397   9.658 -0.9075  0.5769 -0.5509
  820MOL0     H10689   3.195   1.226   9.635 -0.4790 -0.9088 -2.0974
  820MOL0     H10690   3.069   1.425   9.449 -0.6244 -0.3993 -0.3866
  820MOL0     H10691   2.987   1.363   9.589  0.4431 -1.3572  1.4329
  820MOL0     H10692   3.002   1.124   9.510  0.6390 -1.5575 -0.0100
  820MOL0     H10693   3.092   1.189   9.372  0.4185 -0.7259  0.5751
  820MOL0     H10694   2.911   1.334   9.307 -0.0039 -1.4142 -1.1195
  820MOL0     H10695   2.871   1.167   9.290  1.1371 -1.6937  1.2672
  820MOL0     H10696   2.589   1.269   9.585 -0.5108 -3.5377 -0.9762
  820MOL0     H10697   3.395   1.243   9.746 -0.6407 -0.9300 -1.2149
  820MOL0     H10698   3.673   1.288   9.919  2.3177 -0.3469 -2.6771
  820MOL0     H10699   3.545   1.155   9.904  0.0233 -1.7089 -0.6303
  820MOL0     H10700   3.711   1.132   9.861  0.2769 -0.0949  1.7081
  821MOL0     O10701   2.579   9.219   7.561 -0.6251  0.3868 -0.5665
  821MOL0     C10702   2.658   9.206   7.464 -0.2393 -0.6993  0.6851
  821MOL0     O10703   2.787   9.172   7.476  0.0122  0.0576  0.3840
  821MOL0     C10704   2.842   9.180   7.601 -0.5100 -0.8501 -0.3256
  821MOL0     C10705   2.962   9.264   7.610 -0.5154  0.6471  0.6335
  821MOL0     C10706   3.035   9.250   7.726 -0.2622  0.4652 -0.7345
  821MOL0     C10707   2.991   9.176   7.843  0.5152 -0.1777  0.2170
  821MOL0     O10708   3.064   9.153   7.958 -0.3977 -0.0968  0.7885
  821MOL0     C10709   3.204   9.141   7.941  0.3946  0.4062  0.0160
  821MOL0     C10710   3.253   9.089   8.077  0.2535  0.2584 -0.4256
  821MOL0     C10711   3.397   9.123   8.106 -0.0329 -0.0855  0.0284
  821MOL0     C10712   3.437   9.075   8.240 -0.0611 -0.0430 -0.3048
  821MOL0     C10713   3.569   9.135   8.293 -0.5466  0.2770 -0.3446
  821MOL0     C10714   3.631   9.063   8.423  0.8527  0.5184  0.0103
  821MOL0     C10715   3.784   9.091   8.422 -0.1826 -0.5764 -0.1265
  821MOL0     C10716   3.857   8.973   8.504  0.1858 -0.4157  0.4104
  821MOL0     N10717   4.001   9.015   8.508 -0.1780  0.2301 -0.1497
  821MOL0     C10718   4.089   8.982   8.409 -0.4323  0.1187 -0.2980
  821MOL0     C10719   4.201   9.030   8.458 -0.3300  0.4485 -0.3677
  821MOL0     C10720   4.333   9.021   8.380  0.4487 -0.2576 -0.5020
  821MOL0     C10721   4.458   9.005   8.471  0.3044  0.2998 -0.3089
  821MOL0     C10722   4.584   8.978   8.379 -1.7073 -0.0306 -0.7636
  821MOL0     C10723   4.688   8.935   8.482 -0.0680  0.6058 -0.6453
  821MOL0     O10724   4.787   8.863   8.398 -0.4005  0.5119 -0.3240
  821MOL0     C10725   4.909   8.853   8.455 -1.0590  0.3335 -0.0366
  821MOL0     C10726   5.012   8.918   8.380 -0.2989  0.1930  0.4452
  821MOL0     C10727   5.140   8.923   8.419 -0.3047  0.4633  0.9668
  821MOL0     C10728   5.178   8.852   8.529  0.7121 -0.8537 -0.7662
  821MOL0     C10729   5.319   8.861   8.585  0.4380 -0.9248  0.7241
  821MOL0     O10730   5.411   8.917   8.499 -0.0303 -0.4000  0.5067
  821MOL0     C10731   5.541   8.933   8.549  0.3937 -0.1291 -0.0467
  821MOL0     C10732   5.650   8.883   8.475 -0.2685  0.4210 -0.1760
  821MOL0     C10733   5.780   8.888   8.524  0.4881  0.2023  0.0067
  821MOL0     C10734   5.811   8.952   8.644  0.0955  0.2272 -0.4632
  821MOL0     O10735   5.939   8.955   8.683 -0.0382  0.3557  0.0196
  821MOL0     C10736   5.969   9.037   8.796 -0.1322  0.2329  0.3102
  821MOL0     C10737   6.116   9.000   8.841  0.3215 -0.1335  0.0668
  821MOL0     C10738   6.225   9.058   8.744 -0.3777 -0.3550  0.2248
  821MOL0     C10739   6.360   9.041   8.814  0.2514  0.1854  0.0092
  821MOL0     C10740   6.483   9.070   8.730 -1.0116  0.0192  0.3326
  821MOL0     C10741   6.602   9.118   8.814 -0.3372  0.3633  1.0662
  821MOL0     C10742   6.718   9.166   8.723  0.4507 -0.3706 -0.9202
  821MOL0     C10743   6.842   9.204   8.809  0.6487  0.9507  0.6509
  821MOL0    Cl10744   6.979   9.247   8.704  0.0138 -0.1604  0.1072
  821MOL0     C10745   5.703   9.003   8.718 -0.4153  0.2565  1.2450
  821MOL0     C10746   5.570   8.995   8.672  0.4990 -0.8955 -0.2489
  821MOL0     O10747   5.340   8.811   8.697  0.1878 -0.7085  0.4680
  821MOL0     C10748   5.080   8.787   8.608 -0.4587  1.4643  0.0926
  821MOL0     C10749   4.939   8.786   8.573 -0.4527  0.0131  0.3613
  821MOL0     N10750   4.181   9.084   8.591 -0.0477  0.3949  0.2962
  821MOL0     N10751   4.059   9.064   8.615 -0.0053 -0.6781 -0.1170
  821MOL0     C10752   2.864   9.112   7.833  0.1311  0.0733 -0.5445
  821MOL0     C10753   2.803   9.098   7.709  0.3792 -0.8869  0.3607
  821MOL0     C10754   2.610   9.232   7.322 -0.0210 -0.7096 -0.4727
  821MOL0     C10755   2.680   9.167   7.218 -1.1909  0.3368  0.7270
  821MOL0     C10756   2.651   9.191   7.087  0.4771  0.2463 -1.0892
  821MOL0     C10757   2.558   9.288   7.052 -0.2519  0.3996  0.4108
  821MOL0     O10758   2.534   9.329   6.923  0.0235 -0.7117 -0.3633
  821MOL0     C10759   2.614   9.279   6.816 -0.7159  0.3918 -0.1207
  821MOL0     C10760   2.573   9.340   6.680  0.5924 -0.1876  0.1901
  821MOL0     C10761   2.439   9.283   6.632  0.4261 -0.0239  0.3039
  821MOL0     C10762   2.396   9.331   6.492 -0.0636 -0.4175 -0.1509
  821MOL0     C10763   2.259   9.287   6.472  0.0601 -0.0086 -0.2753
  821MOL0     C10764   2.152   9.236   6.436  0.7043  0.1732 -0.7441
  821MOL0     C10765   2.470   9.343   7.152 -0.0393 -0.4091 -0.4025
  821MOL0     C10766   2.498   9.310   7.293  0.2389 -0.3731  1.5554
  821MOL0     C10767   2.418   9.385   7.392  0.6947 -0.2997 -0.0428
  821MOL0     H10768   2.991   9.320   7.522  2.6184  0.4230  1.4157
  821MOL0     H10769   3.129   9.301   7.740  0.0063 -0.6640  2.4325
  821MOL0     H10770   3.236   9.073   7.862  1.0856 -0.1779  0.7836
  821MOL0     H10771   3.247   9.240   7.921  0.7971  0.4832  1.1794
  821MOL0     H10772   3.244   8.980   8.073  0.9933  0.2091 -1.1878
  821MOL0     H10773   3.185   9.126   8.153  2.2609  1.1573  1.0361
  821MOL0     H10774   3.409   9.231   8.105  0.1251 -0.0996 -1.1447
  821MOL0     H10775   3.477   9.099   8.035  0.5977  1.1788  0.2812
  821MOL0     H10776   3.358   9.097   8.313  1.6650 -0.8930  1.9325
  821MOL0     H10777   3.451   8.967   8.250 -1.5234 -0.0237  3.8158
  821MOL0     H10778   3.641   9.119   8.212  0.4742 -3.3013  1.0788
  821MOL0     H10779   3.576   9.243   8.309 -0.6254  0.3458 -0.7696
  821MOL0     H10780   3.579   9.089   8.516 -3.6462 -3.4522 -1.0223
  821MOL0     H10781   3.617   8.956   8.407  0.3832  0.6192 -0.2824
  821MOL0     H10782   3.804   9.186   8.472 -0.1674 -1.4771  1.6342
  821MOL0     H10783   3.822   9.098   8.319 -0.6541  1.6827 -0.2119
  821MOL0     H10784   3.817   8.982   8.605 -1.8090 -1.5314 -0.2298
  821MOL0     H10785   3.852   8.870   8.468  2.0238 -0.6087  0.6138
  821MOL0     H10786   4.083   8.950   8.305 -0.3592  0.4348 -0.4016
  821MOL0     H10787   4.320   8.938   8.310  0.8831 -2.2573  1.6567
  821MOL0     H10788   4.336   9.118   8.329 -0.3248 -0.9430 -1.8901
  821MOL0     H10789   4.467   9.096   8.530 -2.7263  1.2451 -1.1275
  821MOL0     H10790   4.432   8.918   8.533  1.9419 -1.2321 -1.6543
  821MOL0     H10791   4.626   9.065   8.329  0.5205 -0.9181 -0.5258
  821MOL0     H10792   4.553   8.901   8.307 -0.5223 -1.2650 -0.0132
  821MOL0     H10793   4.658   8.866   8.561 -0.7413 -0.5971 -1.9125
  821MOL0     H10794   4.724   9.028   8.529 -4.1436  0.9218  2.3596
  821MOL0     H10795   4.983   8.959   8.284  1.9503  0.8499 -0.0089
  821MOL0     H10796   5.209   8.989   8.366 -0.2936 -0.7498 -0.6016
  821MOL0     H10797   5.631   8.825   8.385  3.1572 -0.3753 -0.5274
  821MOL0     H10798   5.856   8.841   8.463  3.0915 -0.2476  3.3046
  821MOL0     H10799   5.969   9.142   8.765  0.4835  0.1212 -0.0829
  821MOL0     H10800   5.899   9.019   8.879  0.0837 -0.6778  0.3017
  821MOL0     H10801   6.123   9.036   8.944 -1.5451 -0.2988  0.2912
  821MOL0     H10802   6.128   8.892   8.855 -0.1860 -0.3892 -1.2826
  821MOL0     H10803   6.226   9.000   8.651  1.3479  3.2265 -2.1866
  821MOL0     H10804   6.213   9.164   8.720 -0.7769 -0.4629 -0.0670
  821MOL0     H10805   6.370   8.940   8.854  2.5393  0.3668 -0.0138
  821MOL0     H10806   6.364   9.115   8.895 -0.8195  0.9560 -0.6037
  821MOL0     H10807   6.461   9.153   8.662  0.8240 -0.4326 -0.8960
  821MOL0     H10808   6.516   8.982   8.674  2.3567 -1.8199  4.6354
  821MOL0     H10809   6.571   9.197   8.883 -1.8169  0.3164  0.4907
  821MOL0     H10810   6.628   9.025   8.865 -1.2575 -0.0702  0.7597
  821MOL0     H10811   6.688   9.256   8.668  0.1608 -0.5137 -1.0026
  821MOL0     H10812   6.748   9.086   8.654  1.2627  1.3993 -2.7417
  821MOL0     H10813   6.816   9.278   8.886  0.6356  1.5269  0.0950
  821MOL0     H10814   6.878   9.118   8.867 -0.3702  0.5825  0.7549
  821MOL0     H10815   5.719   9.067   8.805 -0.2736  3.1962 -0.7969
  821MOL0     H10816   5.489   9.037   8.732 -1.3122  2.4121 -4.3953
  821MOL0     H10817   5.110   8.731   8.696 -0.7341 -1.0923 -1.3245
  821MOL0     H10818   4.861   8.736   8.628 -0.4835  1.6103  1.8439
  821MOL0     H10819   2.822   9.054   7.914  0.8987 -0.3824 -0.4654
  821MOL0     H10820   2.711   9.043   7.695 -0.3812  0.6408 -1.0433
  821MOL0     H10821   2.775   9.117   7.235 -1.2087 -0.1168 -0.4401
  821MOL0     H10822   2.714   9.136   7.019 -0.8509 -1.6855 -0.8267
  821MOL0     H10823   2.619   9.169   6.812 -1.3564  0.3020  0.9835
  821MOL0     H10824   2.713   9.322   6.832 -0.3067 -0.2712 -0.8100
  821MOL0     H10825   2.655   9.329   6.609  0.5389 -0.4044  0.1634
  821MOL0     H10826   2.573   9.449   6.693  0.7246 -0.2905  1.1538
  821MOL0     H10827   2.364   9.311   6.706  1.9148 -0.2748  1.9636
  821MOL0     H10828   2.456   9.175   6.632 -2.5507 -0.5937  0.2325
  821MOL0     H10829   2.394   9.441   6.490  1.9260 -0.3466  0.0870
  821MOL0     H10830   2.477   9.295   6.429 -0.1793 -0.5616 -0.2174
  821MOL0     H10831   2.055   9.204   6.403  0.0372 -1.1016  2.1231
  821MOL0     H10832   2.391   9.411   7.122  0.1294  0.4622  1.0327
  821MOL0     H10833   2.348   9.446   7.335 -0.0347 -1.9822 -1.0098
  821MOL0     H10834   2.364   9.317   7.458  0.5675 -1.1313 -0.9752
  821MOL0     H10835   2.481   9.454   7.450  0.2270 -0.8157  1.1078
  822MOL0     O10836   0.111   5.216  10.211 -0.1329 -0.0959 -0.1319
  822MOL0     C10837   0.010   5.283  10.221 -0.1084  0.1407 -0.1681
  822MOL0     O10838   0.002   5.403  10.296 -0.5523  0.9609  0.0398
  822MOL0     C10839   0.108   5.432  10.380 -0.6329 -0.1525 -0.1158
  822MOL0     C10840   0.108   5.381  10.513  0.5132 -0.7506  0.0089
  822MOL0     C10841   0.227   5.389  10.587  0.0101  1.2223  0.2041
  822MOL0     C10842   0.343   5.457  10.540  0.4563 -0.2938 -0.1171
  822MOL0     O10843   0.451   5.485  10.618 -0.1042 -0.3144  0.4157
  822MOL0     C10844   0.467   5.388  10.720  0.1088  0.0538  0.3374
  822MOL0     C10845   0.611   5.386  10.772 -0.1897  0.2059 -0.5689
  822MOL0     C10846   0.715   5.361  10.662  0.3818 -0.5835  0.2578
  822MOL0     C10847   0.845   5.287  10.698 -0.3611  0.6160  0.7088
  822MOL0     C10848   0.917   5.368  10.799  0.2431 -0.1019  0.2945
  822MOL0     C10849   1.056   5.308  10.845  0.1489 -0.4369  0.7018
  822MOL0     C10850   1.146   5.415  10.914 -0.2703  1.0100  0.5013
  822MOL0     C10851   1.283   5.356  10.958 -0.6332 -0.2803  0.5944
  822MOL0     N10852   1.275   5.303  11.095  0.0265  0.1324  0.7812
  822MOL0     C10853   1.230   5.170  11.118  0.2527  0.9262 -0.4696
  822MOL0     C10854   1.284   5.135  11.238  0.5747 -0.3252 -0.0517
  822MOL0     C10855   1.278   4.994  11.292 -0.4719  0.1626  0.0769
  822MOL0     C10856   1.373   4.901  11.217  0.3885 -0.3856  0.5654
  822MOL0     C10857   1.470   4.820  11.308 -0.3482 -0.2134 -0.0945
  822MOL0     C10858   1.402   4.684  11.339  0.3580 -0.2425 -0.1946
  822MOL0     O10859   1.495   4.596  11.387 -0.3772 -0.1704 -0.7035
  822MOL0     C10860   1.573   4.535  11.293 -0.5790  0.2439  0.1159
  822MOL0     C10861   1.569   4.535  11.153  0.5901 -0.8727 -0.1122
  822MOL0     C10862   1.659   4.469  11.079 -0.1328 -0.2857  0.5749
  822MOL0     C10863   1.770   4.401  11.126  0.7743 -0.8025  0.6836
  822MOL0     C10864   1.866   4.341  11.038 -0.5429  0.4919 -0.0462
  822MOL0     O10865   1.957   4.254  11.098  0.1911  0.5957  0.1482
  822MOL0     C10866   2.046   4.186  11.021 -0.4279 -0.4253  0.0804
  822MOL0     C10867   2.012   4.091  10.932  0.0068 -0.2395 -0.2815
  822MOL0     C10868   2.108   4.024  10.868  0.4172  0.0159  0.5995
  822MOL0     C10869   2.247   4.047  10.894  1.1247 -0.7772 -0.4125
  822MOL0     O10870   2.344   3.978  10.821  0.3466  0.3956  0.2747
  822MOL0     C10871   2.485   4.015  10.830 -0.3134  0.1225  0.6098
  822MOL0     C10872   2.557   3.948  10.713  0.7228 -0.3801  0.7347
  822MOL0     C10873   2.692   4.012  10.675 -0.5778  0.1355 -0.2444
  822MOL0     C10874   2.764   3.933  10.570 -0.1238 -0.0210 -0.9048
  822MOL0     C10875   2.910   3.976  10.537 -0.4962 -0.8608 -0.1094
  822MOL0     C10876   2.924   4.115  10.466  0.5509  0.9676  0.4828
  822MOL0     C10877   2.935   4.233  10.569 -0.3585  0.3447  0.5593
  822MOL0     C10878   2.984   4.358  10.501 -0.0985 -0.0037  0.1154
  822MOL0    Cl10879   3.017   4.487  10.628  0.4284  0.3946  0.3662
  822MOL0     C10880   2.284   4.150  10.993  0.2171 -0.4195 -0.3085
  822MOL0     C10881   2.179   4.218  11.057 -0.2723 -1.3173  0.3132
  822MOL0     O10882   1.867   4.369  10.922 -0.6650 -0.0623 -0.1818
  822MOL0     C10883   1.776   4.393  11.266 -0.3474  0.0758 -0.4578
  822MOL0     C10884   1.675   4.459  11.344 -0.0822  0.5678 -0.7713
  822MOL0     N10885   1.351   5.248  11.293  0.3628  0.1282 -0.0023
  822MOL0     N10886   1.347   5.344  11.205 -0.3238 -0.1247  0.1673
  822MOL0     C10887   0.341   5.512  10.406  0.1921 -0.2323 -0.4319
  822MOL0     C10888   0.228   5.494  10.328  0.5579  0.3416 -0.2436
  822MOL0     C10889  -0.111   5.242  10.157 -0.2072  0.2946 -0.5418
  822MOL0     C10890  -0.134   5.109  10.121 -0.0403 -0.1320 -1.3108
  822MOL0     C10891  -0.258   5.064  10.083  0.6817  0.5569 -0.0790
  822MOL0     C10892  -0.362   5.145  10.061 -0.0381  0.3800  0.2181
  822MOL0     O10893  -0.468   5.093   9.993 -0.4145 -0.1236 -0.0026
  822MOL0     C10894  -0.582   5.181   9.967  0.0453  0.1586 -0.3393
  822MOL0     C10895  -0.667   5.199  10.097 -0.5066 -0.2402 -0.4377
  822MOL0     C10896  -0.753   5.329  10.089  0.2404 -0.3248  0.1440
  822MOL0     C10897  -0.840   5.351  10.210 -0.1762 -0.0482  0.1288
  822MOL0     C10898  -0.919   5.475  10.199 -0.5220 -0.0981 -0.3935
  822MOL0     C10899  -0.971   5.581  10.160 -0.2199  0.5885 -1.0086
  822MOL0     C10900  -0.337   5.285  10.079 -0.2127  0.5099 -0.0902
  822MOL0     C10901  -0.209   5.333  10.119  0.2357  0.4622 -0.5005
  822MOL0     C10902  -0.201   5.481  10.113  0.4583 -0.2937  0.9692
  822MOL0     H10903   0.020   5.325  10.544  0.0485 -0.4853 -0.8142
  822MOL0     H10904   0.226   5.336  10.682  0.2505  2.2084  0.7701
  822MOL0     H10905   0.396   5.404  10.802 -0.3126 -0.5213  0.0925
  822MOL0     H10906   0.440   5.289  10.683 -0.7277 -0.1000  1.3111
  822MOL0     H10907   0.627   5.308  10.848  0.6258 -2.1468 -2.9984
  822MOL0     H10908   0.629   5.485  10.814 -3.9790  0.4749  0.7783
  822MOL0     H10909   0.749   5.457  10.623 -1.9774 -0.2807 -1.2792
  822MOL0     H10910   0.663   5.303  10.584 -1.5700  0.4355  0.7546
  822MOL0     H10911   0.826   5.191  10.747  1.4520 -0.2192 -0.1098
  822MOL0     H10912   0.901   5.275  10.604  0.4967  1.4937  1.0958
  822MOL0     H10913   0.944   5.465  10.756 -0.3897 -0.9983 -2.3132
  822MOL0     H10914   0.846   5.389  10.879 -0.6267  1.1539 -0.7470
  822MOL0     H10915   1.044   5.217  10.904  0.3950 -1.8228 -1.3081
  822MOL0     H10916   1.110   5.284  10.754  0.7499  1.3601  0.5521
  822MOL0     H10917   1.089   5.464  10.993 -1.4507  3.6964 -1.8144
  822MOL0     H10918   1.166   5.497  10.844 -3.6975  2.3716  0.9019
  822MOL0     H10919   1.309   5.278  10.885 -0.6300  0.6775 -0.4540
  822MOL0     H10920   1.365   5.429  10.955  0.5753 -1.5977 -0.8444
  822MOL0     H10921   1.168   5.103  11.059 -2.6986  1.7711  1.4226
  822MOL0     H10922   1.307   4.998  11.397 -0.6846 -0.8255  0.1799
  822MOL0     H10923   1.177   4.958  11.273 -0.1043 -0.1921 -1.3760
  822MOL0     H10924   1.318   4.829  11.157 -2.2513 -0.0501  2.3963
  822MOL0     H10925   1.429   4.965  11.148  0.0625  1.8735  2.2430
  822MOL0     H10926   1.494   4.876  11.399 -0.2661  1.1619 -0.9350
  822MOL0     H10927   1.565   4.806  11.255  0.6859 -0.0466  1.6076
  822MOL0     H10928   1.359   4.648  11.244  1.4854  1.4100 -1.3843
  822MOL0     H10929   1.334   4.711  11.420  0.3498  0.2572 -0.3643
  822MOL0     H10930   1.490   4.586  11.098 -2.0413  0.1941  4.1666
  822MOL0     H10931   1.642   4.484  10.973 -3.1452 -0.2671  0.9751
  822MOL0     H10932   1.906   4.069  10.919 -1.0549  3.1367  1.4131
  822MOL0     H10933   2.080   3.953  10.791 -0.1711 -0.3992  1.1903
  822MOL0     H10934   2.494   4.124  10.834 -3.8705  0.5044  1.9147
  822MOL0     H10935   2.543   3.994  10.920  0.2383  0.7371  0.4139
  822MOL0     H10936   2.572   3.841  10.729  1.1550 -0.5582 -0.6807
  822MOL0     H10937   2.495   3.951  10.623 -2.4955  2.9130  2.7726
  822MOL0     H10938   2.675   4.114  10.639 -0.9129 -0.7111 -2.6524
  822MOL0     H10939   2.754   4.020  10.765 -2.0906  4.0018  0.6418
  822MOL0     H10940   2.703   3.926  10.480 -0.9768 -3.2080 -0.2185
  822MOL0     H10941   2.769   3.830  10.608 -2.4306  0.5181  1.0866
  822MOL0     H10942   2.956   3.903  10.469 -2.3490 -1.4368 -0.8123
  822MOL0     H10943   2.977   3.976  10.623  0.9827 -0.6023 -1.2087
  822MOL0     H10944   3.006   4.103  10.396 -0.4584 -0.2036 -0.5594
  822MOL0     H10945   2.838   4.142  10.404  0.6429  3.3851  1.3061
  822MOL0     H10946   2.995   4.204  10.655 -1.2595  1.5715  1.6419
  822MOL0     H10947   2.837   4.257  10.612 -0.2137  0.0569  1.0505
  822MOL0     H10948   3.075   4.331  10.446 -1.2154 -3.2502 -0.3457
  822MOL0     H10949   2.907   4.391  10.431 -0.0280 -3.0175 -1.5954
  822MOL0     H10950   2.386   4.170  11.023  0.0635 -1.7319  1.2342
  822MOL0     H10951   2.200   4.283  11.141  2.8047 -0.5685 -0.8581
  822MOL0     H10952   1.863   4.343  11.307 -1.0393  0.2161  1.2605
  822MOL0     H10953   1.693   4.458  11.450  1.5252 -0.2775 -1.0216
  822MOL0     H10954   0.434   5.551  10.364  1.8759 -2.6464  0.8129
  822MOL0     H10955   0.229   5.537  10.229 -0.3799  2.1235  0.4668
  822MOL0     H10956  -0.048   5.047  10.141  0.1730  1.3698  3.6199
  822MOL0     H10957  -0.264   4.957  10.066  0.9155  0.6818 -1.0222
  822MOL0     H10958  -0.637   5.137   9.883  1.8113 -2.2915 -0.2959
  822MOL0     H10959  -0.540   5.276   9.932  3.5791 -1.7614 -1.8573
  822MOL0     H10960  -0.597   5.220  10.178 -1.5706 -0.0230  0.4439
  822MOL0     H10961  -0.728   5.110  10.117 -1.1116  0.6380  1.8795
  822MOL0     H10962  -0.809   5.323   9.994 -0.8243 -0.2695  0.7505
  822MOL0     H10963  -0.680   5.408  10.069  2.9961 -3.4283 -3.8604
  822MOL0     H10964  -0.913   5.270  10.220  0.7277 -0.7731  1.0230
  822MOL0     H10965  -0.772   5.360  10.295 -1.2408 -0.8588  1.0870
  822MOL0     H10966  -1.010   5.677  10.133  0.6843  1.0367 -0.7704
  822MOL0     H10967  -0.414   5.359  10.064 -2.0727 -1.1823  0.5891
  822MOL0     H10968  -0.232   5.514  10.212 -1.1576 -4.5787  2.1152
  822MOL0     H10969  -0.103   5.522  10.091  0.8899 -2.4053 -1.6034
  822MOL0     H10970  -0.275   5.520  10.042  2.3395  0.9361 -0.3872
  823MOL0     O10971   5.734   0.192   9.327 -0.0479 -0.2586  0.1497
  823MOL0     C10972   5.693   0.270   9.234 -0.4582 -0.3547 -0.1619
  823MOL0     O10973   5.778   0.359   9.175 -0.5132  0.7108 -0.4964
  823MOL0     C10974   5.899   0.382   9.244 -0.5111  0.0301  0.7553
  823MOL0     C10975   5.905   0.450   9.370  0.9422  0.2719 -0.2806
  823MOL0     C10976   6.023   0.478   9.432 -0.2954 -0.0141 -1.0751
  823MOL0     C10977   6.146   0.432   9.372  0.8387 -0.2381 -0.7179
  823MOL0     O10978   6.253   0.440   9.455 -0.5950  0.5918  0.2535
  823MOL0     C10979   6.348   0.333   9.441 -0.7434 -0.6101  0.0150
  823MOL0     C10980   6.467   0.344   9.348  0.4364 -0.4492 -0.8095
  823MOL0     C10981   6.585   0.429   9.399 -0.1466 -0.0861  0.3326
  823MOL0     C10982   6.709   0.406   9.307 -0.0453  0.0899 -0.6712
  823MOL0     C10983   6.836   0.472   9.376  1.0554 -0.0936 -0.0286
  823MOL0     C10984   6.967   0.465   9.287  0.2663 -0.4165 -0.0136
  823MOL0     C10985   7.098   0.495   9.371 -0.0912 -0.8024  0.3775
  823MOL0     C10986   7.212   0.533   9.277 -0.6313  0.2952 -0.5086
  823MOL0     N10987   7.352   0.525   9.337  0.9170 -0.1034  0.7589
  823MOL0     C10988   7.385   0.547   9.470  0.5219 -0.2053  0.1865
  823MOL0     C10989   7.523   0.527   9.471 -0.0920 -0.4178 -0.3038
  823MOL0     C10990   7.617   0.543   9.590  0.2230  0.2647 -0.3506
  823MOL0     C10991   7.765   0.577   9.550 -0.1718  0.7255 -0.6377
  823MOL0     C10992   7.783   0.723   9.495  0.1612  0.3444 -0.4466
  823MOL0     C10993   7.930   0.741   9.464  1.0190  0.4414  0.3711
  823MOL0     O10994   7.986   0.633   9.385  0.1905 -0.6016  0.2701
  823MOL0     C10995   8.099   0.663   9.317 -0.2531  0.1314  0.4527
  823MOL0     C10996   8.211   0.586   9.354 -1.0786  0.3196 -0.5613
  823MOL0     C10997   8.338   0.620   9.308  0.4593  0.4120 -0.4744
  823MOL0     C10998   8.366   0.727   9.221 -0.2814 -0.1339 -0.0148
  823MOL0     C10999   8.500   0.768   9.191 -0.2035  0.3953  0.7607
  823MOL0     O11000   8.606   0.677   9.203 -0.5223 -0.1706  0.4156
  823MOL0     C11001   8.738   0.710   9.172 -0.7174 -0.7406 -0.8944
  823MOL0     C11002   8.833   0.659   9.260  0.7337  0.1783 -0.6896
  823MOL0     C11003   8.972   0.665   9.235  0.4874  0.9470 -0.2473
  823MOL0     C11004   9.012   0.747   9.131  0.1694 -0.1285  0.2046
  823MOL0     O11005   9.146   0.782   9.098  0.3821 -0.2065 -0.5442
  823MOL0     C11006   9.250   0.710   9.160  0.1329  0.2719  0.0230
  823MOL0     C11007   9.386   0.724   9.078 -0.1812 -0.2639 -0.8199
  823MOL0     C11008   9.501   0.640   9.145 -0.0312  0.5437  0.8604
  823MOL0     C11009   9.617   0.619   9.051  0.1419 -0.6109 -0.1610
  823MOL0     C11010   9.725   0.530   9.118  0.1081 -0.2596  0.0353
  823MOL0     C11011   9.839   0.528   9.016 -0.2755 -0.0101 -0.1293
  823MOL0     C11012   9.941   0.415   9.048  0.1172  0.0041  0.4750
  823MOL0     C11013   9.999   0.393   9.189  0.6724  0.1482 -0.0468
  823MOL0    Cl11014  10.109   0.529   9.243 -0.1842  0.2878  0.1030
  823MOL0     C11015   8.911   0.808   9.047 -0.4949  0.2924 -0.4160
  823MOL0     C11016   8.778   0.790   9.068 -0.5114  0.4412 -0.3242
  823MOL0     O11017   8.511   0.885   9.147 -0.0088  0.3127  0.0615
  823MOL0     C11018   8.252   0.801   9.187  0.2281  0.8617  0.4191
  823MOL0     C11019   8.123   0.777   9.236  0.2221  0.5563 -1.1488
  823MOL0     N11020   7.571   0.490   9.346  0.4749 -0.2419  0.2385
  823MOL0     N11021   7.465   0.488   9.270  0.4227  0.3595  0.4888
  823MOL0     C11022   6.145   0.369   9.245 -0.0029 -0.0939 -0.5613
  823MOL0     C11023   6.025   0.352   9.182  0.2760 -0.5031  0.7152
  823MOL0     C11024   5.552   0.281   9.197  0.3009  0.7266  0.4100
  823MOL0     C11025   5.513   0.372   9.088 -0.7161  0.3983 -0.8386
  823MOL0     C11026   5.382   0.391   9.048 -0.3777  0.6592 -0.4730
  823MOL0     C11027   5.281   0.308   9.100  0.2826  0.5147 -0.6324
  823MOL0     O11028   5.154   0.294   9.063  0.5193  0.4705  0.1493
  823MOL0     C11029   5.112   0.371   8.952 -0.5518 -0.4994 -0.1647
  823MOL0     C11030   4.969   0.340   8.899  0.1919  0.1427  0.0413
  823MOL0     C11031   4.970   0.199   8.824  0.7179  0.1118 -0.0658
  823MOL0     C11032   4.830   0.154   8.771 -0.0020 -0.6358  0.2571
  823MOL0     C11033   4.785   0.259   8.680 -0.2559 -0.0780  0.0512
  823MOL0     C11034   4.723   0.338   8.613 -0.4941 -0.0088  0.3962
  823MOL0     C11035   5.312   0.220   9.207  0.2566 -0.4645 -0.3825
  823MOL0     C11036   5.447   0.205   9.252 -0.0249  0.0873 -0.3784
  823MOL0     C11037   5.467   0.104   9.364 -0.5969 -0.5104 -0.0439
  823MOL0     H11038   5.809   0.475   9.416 -0.1725 -2.4678 -0.9237
  823MOL0     H11039   6.021   0.518   9.533  0.7648 -0.9343 -0.6767
  823MOL0     H11040   6.383   0.313   9.543  0.7939  3.3805  0.4237
  823MOL0     H11041   6.288   0.243   9.421 -2.1627  0.6880 -1.9223
  823MOL0     H11042   6.450   0.387   9.248 -0.6056  0.3928 -0.2865
  823MOL0     H11043   6.505   0.243   9.332 -2.2687 -1.9299  1.4397
  823MOL0     H11044   6.611   0.390   9.497 -1.6953 -2.4750 -0.1370
  823MOL0     H11045   6.560   0.536   9.402 -1.3152 -0.3509  0.4419
  823MOL0     H11046   6.722   0.298   9.298  0.8528 -0.0653  1.7715
  823MOL0     H11047   6.691   0.442   9.205 -0.7587  0.0433 -0.5689
  823MOL0     H11048   6.823   0.580   9.385  0.0833 -0.0532 -1.5987
  823MOL0     H11049   6.850   0.428   9.475 -0.6790  0.7864  0.6484
  823MOL0     H11050   6.971   0.368   9.236 -0.0651  0.8617 -2.6062
  823MOL0     H11051   6.962   0.527   9.198  2.5464 -0.6909 -0.3857
  823MOL0     H11052   7.122   0.398   9.415 -2.0605 -1.2455  0.5658
  823MOL0     H11053   7.083   0.576   9.444  0.7020 -0.9098  0.6655
  823MOL0     H11054   7.204   0.465   9.191 -3.0810 -1.8371  1.2459
  823MOL0     H11055   7.192   0.631   9.233 -0.7032 -0.6729 -2.7787
  823MOL0     H11056   7.323   0.571   9.556  1.7051  1.8082  0.5446
  823MOL0     H11057   7.571   0.619   9.653  0.2499 -1.8848  2.4347
  823MOL0     H11058   7.628   0.451   9.647 -0.3522  2.6436  3.9755
  823MOL0     H11059   7.831   0.565   9.637  0.2986  0.5241 -1.0205
  823MOL0     H11060   7.801   0.504   9.477  0.2571  0.8670 -0.5747
  823MOL0     H11061   7.746   0.799   9.563  0.2169 -0.7353  0.8222
  823MOL0     H11062   7.731   0.730   9.398  0.5919  1.4462 -0.6173
  823MOL0     H11063   7.974   0.745   9.564  1.0218  1.3947  0.3473
  823MOL0     H11064   7.949   0.842   9.426  0.6319  0.8061  1.1280
  823MOL0     H11065   8.190   0.502   9.419 -0.4483  1.6674  1.4667
  823MOL0     H11066   8.416   0.550   9.337  1.0436  0.9354 -0.7521
  823MOL0     H11067   8.797   0.614   9.352 -0.2782  2.0981 -0.0886
  823MOL0     H11068   9.039   0.612   9.302 -0.4353 -0.7147 -0.6034
  823MOL0     H11069   9.269   0.742   9.263  0.6928  0.4166 -0.1229
  823MOL0     H11070   9.217   0.606   9.160  0.3852  0.1794  1.1118
  823MOL0     H11071   9.380   0.692   8.974  0.5668  1.3362 -1.3754
  823MOL0     H11072   9.403   0.831   9.064  0.2666 -0.3601 -1.0366
  823MOL0     H11073   9.539   0.691   9.234  3.5751  0.3987 -0.4205
  823MOL0     H11074   9.451   0.547   9.174 -2.6871  1.4499 -0.4653
  823MOL0     H11075   9.645   0.722   9.025 -0.8333 -0.0120  1.0601
  823MOL0     H11076   9.596   0.574   8.954  0.1570 -4.1949  1.3456
  823MOL0     H11077   9.684   0.429   9.109  0.2161 -0.3157  0.1725
  823MOL0     H11078   9.758   0.559   9.219  0.6212  0.2912 -0.2850
  823MOL0     H11079   9.802   0.511   8.915 -0.4950  1.4657 -0.3273
  823MOL0     H11080   9.906   0.615   9.021  1.7835 -1.5612  3.2333
  823MOL0     H11081  10.021   0.427   8.974  0.0357  2.9230  0.7525
  823MOL0     H11082   9.885   0.326   9.019 -0.1397  0.9183 -2.1348
  823MOL0     H11083   9.921   0.378   9.264  1.2978  1.1618  0.8357
  823MOL0     H11084  10.041   0.292   9.181 -1.7251 -0.8258 -0.9929
  823MOL0     H11085   8.950   0.891   8.990  2.1634  1.5748  2.9221
  823MOL0     H11086   8.709   0.847   9.007  0.6086 -0.0141 -2.0928
  823MOL0     H11087   8.269   0.883   9.118  1.8929 -2.1778 -3.1553
  823MOL0     H11088   8.037   0.840   9.215 -0.8888  0.8506  3.3275
  823MOL0     H11089   6.239   0.331   9.208  1.5221  1.5900  1.3587
  823MOL0     H11090   6.012   0.300   9.088 -2.2927 -0.4255  0.9529
  823MOL0     H11091   5.590   0.434   9.044  0.6430  0.5163  1.5182
  823MOL0     H11092   5.366   0.465   8.970 -0.7678  0.8155 -0.2475
  823MOL0     H11093   5.174   0.368   8.862 -0.8332  1.5603 -0.4938
  823MOL0     H11094   5.119   0.475   8.985 -1.0590 -0.7376  0.7378
  823MOL0     H11095   4.948   0.415   8.823  3.8428  0.5203 -0.7628
  823MOL0     H11096   4.892   0.334   8.978 -0.2405 -0.7909 -0.4385
  823MOL0     H11097   5.011   0.128   8.897  1.2263  0.1690 -0.2976
  823MOL0     H11098   5.037   0.201   8.737  0.8976 -2.0424 -0.0376
  823MOL0     H11099   4.845   0.057   8.722  0.8797  0.0612 -0.9246
  823MOL0     H11100   4.762   0.141   8.855  1.6231  0.8668  1.8724
  823MOL0     H11101   4.671   0.393   8.537 -2.7824 -2.0091  0.3960
  823MOL0     H11102   5.232   0.160   9.249  1.0654 -1.9652 -0.8659
  823MOL0     H11103   5.514   0.151   9.451  3.3651  0.0423 -2.2536
  823MOL0     H11104   5.369   0.068   9.396 -0.2368 -1.5976 -0.1297
  823MOL0     H11105   5.530   0.024   9.325  0.0980 -1.0560  2.0480
  824MOL0     O11106   4.840   7.907   0.703 -0.1980  1.1164  0.4445
  824MOL0     C11107   4.786   7.979   0.782 -0.0916 -0.8426 -0.2003
  824MOL0     O11108   4.840   8.090   0.843  0.8422 -0.6248 -0.1882
  824MOL0     C11109   4.946   8.139   0.779 -1.0414 -0.1757 -0.2033
  824MOL0     C11110   4.925   8.273   0.722  0.2608  0.0821  1.0702
  824MOL0     C11111   5.036   8.335   0.654 -0.2829 -0.1531 -0.5645
  824MOL0     C11112   5.156   8.264   0.635 -0.1915 -0.2453 -0.0159
  824MOL0     O11113   5.259   8.332   0.580 -0.4458  0.3832  0.0088
  824MOL0     C11114   5.338   8.412   0.677  0.2873 -0.0515  0.2407
  824MOL0     C11115   5.469   8.338   0.712  0.0133  0.0402 -0.5537
  824MOL0     C11116   5.569   8.341   0.597 -0.3499  0.2262  0.9464
  824MOL0     C11117   5.638   8.486   0.574  0.0052 -0.0214 -0.2911
  824MOL0     C11118   5.732   8.486   0.452 -0.4396 -0.0011  0.0988
  824MOL0     C11119   5.843   8.589   0.469 -0.0103 -0.1317 -0.0131
  824MOL0     C11120   5.923   8.618   0.344 -0.2208  0.9578  0.5587
  824MOL0     C11121   6.017   8.496   0.299 -0.0842 -0.4119 -0.0825
  824MOL0     N11122   6.123   8.461   0.392  0.0217 -0.5522  0.0427
  824MOL0     C11123   6.242   8.527   0.408  0.1215  0.3222  1.1366
  824MOL0     C11124   6.316   8.449   0.486  1.1952  0.7969 -0.0785
  824MOL0     C11125   6.454   8.494   0.535  0.3968  0.0481  0.0477
  824MOL0     C11126   6.548   8.373   0.510 -0.5339  0.0102 -0.6069
  824MOL0     C11127   6.699   8.405   0.547  0.0491 -0.1985 -0.0903
  824MOL0     C11128   6.796   8.286   0.503  0.0573 -0.4599  0.2968
  824MOL0     O11129   6.931   8.305   0.545  0.1175  0.2221 -0.5020
  824MOL0     C11130   6.989   8.428   0.518  0.2060  0.1644  0.2958
  824MOL0     C11131   7.088   8.483   0.605  0.5899  0.1247  0.7557
  824MOL0     C11132   7.158   8.601   0.581  0.1619 -0.6106  0.9101
  824MOL0     C11133   7.129   8.680   0.466 -0.0438 -0.1902 -0.2905
  824MOL0     C11134   7.212   8.796   0.437  0.1575 -0.1880 -0.2959
  824MOL0     O11135   7.291   8.842   0.530 -0.8422  0.4257 -1.0641
  824MOL0     C11136   7.394   8.925   0.503  0.1261 -0.9924  0.5052
  824MOL0     C11137   7.429   9.028   0.592 -0.7837  0.6543  0.4621
  824MOL0     C11138   7.535   9.113   0.553 -1.0433 -0.2196  0.4273
  824MOL0     C11139   7.613   9.094   0.437 -0.2358 -0.4284  0.5626
  824MOL0     O11140   7.713   9.190   0.415  0.5318  0.8448 -0.7035
  824MOL0     C11141   7.788   9.166   0.296 -1.5786  0.5989  0.6147
  824MOL0     C11142   7.891   9.269   0.277 -0.4726  0.5544  0.8574
  824MOL0     C11143   7.827   9.410   0.240  0.2108  0.0456  0.3670
  824MOL0     C11144   7.934   9.512   0.249  0.3018 -0.3982  0.1072
  824MOL0     C11145   7.889   9.653   0.205  0.3274 -0.0095 -0.1066
  824MOL0     C11146   8.014   9.743   0.176 -0.6772 -0.5905 -0.0983
  824MOL0     C11147   7.985   9.876   0.126 -0.9333  0.0029  0.7323
  824MOL0     C11148   7.956   9.876  -0.024  0.3926 -0.9743  0.0064
  824MOL0    Cl11149   8.118   9.834  -0.104  0.5001 -0.4323  0.0037
  824MOL0     C11150   7.583   8.983   0.353 -0.7857  0.1780  0.7422
  824MOL0     C11151   7.471   8.910   0.388  0.1741  0.5475 -0.4746
  824MOL0     O11152   7.197   8.844   0.325 -0.4605  0.2807 -0.5763
  824MOL0     C11153   7.038   8.626   0.376  0.3187  0.7086  0.3206
  824MOL0     C11154   6.968   8.505   0.403  0.1813  0.0230  0.2387
  824MOL0     N11155   6.245   8.338   0.527  0.6426  0.2429 -0.5445
  824MOL0     N11156   6.128   8.355   0.475  0.1442 -0.4351 -0.0756
  824MOL0     C11157   5.166   8.137   0.679 -0.2375 -0.0287 -0.5997
  824MOL0     C11158   5.068   8.072   0.753 -1.0269  0.1555 -0.3745
  824MOL0     C11159   4.643   7.948   0.801 -0.8272 -0.6123 -1.0115
  824MOL0     C11160   4.597   7.823   0.772  0.0461  0.4640  0.1920
  824MOL0     C11161   4.469   7.780   0.794 -0.2919 -0.6504 -1.3080
  824MOL0     C11162   4.375   7.864   0.845  0.1442 -0.3042 -0.7324
  824MOL0     O11163   4.243   7.830   0.854  0.2811 -0.2481 -0.4327
  824MOL0     C11164   4.197   7.691   0.884  0.0343 -1.0215  0.2343
  824MOL0     C11165   4.041   7.687   0.849 -0.3871 -0.4877 -0.4767
  824MOL0     C11166   3.969   7.564   0.896  0.3940  0.3324 -0.8671
  824MOL0     C11167   3.848   7.529   0.805  0.1071  0.2876  0.6018
  824MOL0     C11168   3.799   7.409   0.857  1.0009  0.1339 -0.7960
  824MOL0     C11169   3.762   7.302   0.905  0.7231  0.0654 -0.6463
  824MOL0     C11170   4.408   8.001   0.869 -0.2506  0.4792 -0.2581
  824MOL0     C11171   4.541   8.042   0.845 -0.5526 -0.3125  0.8520
  824MOL0     C11172   4.562   8.185   0.863  0.9884  0.6761 -0.0022
  824MOL0     H11173   4.827   8.318   0.736  0.2590 -0.2799  2.4147
  824MOL0     H11174   5.032   8.436   0.616  2.5770 -0.5781 -2.3313
  824MOL0     H11175   5.354   8.511   0.634 -2.9248  1.1724  1.5432
  824MOL0     H11176   5.283   8.436   0.768 -2.1847  1.7285 -1.6060
  824MOL0     H11177   5.461   8.233   0.741  1.1066 -0.3974 -1.7699
  824MOL0     H11178   5.512   8.399   0.792 -0.9949 -0.1878  0.1892
  824MOL0     H11179   5.516   8.301   0.510 -2.0483 -0.4609  2.2515
  824MOL0     H11180   5.653   8.274   0.615  1.0469  1.8698  0.7595
  824MOL0     H11181   5.559   8.560   0.556  0.4163  0.4467 -0.1986
  824MOL0     H11182   5.688   8.520   0.665 -1.7955  0.5728  0.5291
  824MOL0     H11183   5.775   8.386   0.445 -0.8157 -0.1438 -0.2129
  824MOL0     H11184   5.672   8.501   0.362 -1.0575  0.6797  0.6120
  824MOL0     H11185   5.795   8.684   0.495 -0.2038 -0.8605  2.6204
  824MOL0     H11186   5.902   8.562   0.557  0.6893  1.1220 -0.0814
  824MOL0     H11187   5.986   8.706   0.355  0.2363  0.9539 -1.5193
  824MOL0     H11188   5.857   8.656   0.265 -0.0924  3.0885  1.4172
  824MOL0     H11189   5.944   8.415   0.292 -1.1450  0.4933  0.0718
  824MOL0     H11190   6.062   8.517   0.202 -2.4743 -0.1597 -1.2260
  824MOL0     H11191   6.276   8.617   0.358  3.2370 -0.7210  1.1531
  824MOL0     H11192   6.495   8.580   0.480  0.4987 -0.4523 -0.6776
  824MOL0     H11193   6.450   8.523   0.640 -1.7734 -1.2807  0.3884
  824MOL0     H11194   6.515   8.291   0.574 -0.5851 -0.3070 -1.0343
  824MOL0     H11195   6.543   8.330   0.410  0.0496 -2.9781  0.5250
  824MOL0     H11196   6.711   8.428   0.653 -2.5083  0.2817  0.1762
  824MOL0     H11197   6.716   8.498   0.492 -0.8720 -0.7815 -1.4430
  824MOL0     H11198   6.811   8.260   0.398  0.1171  1.3427 -0.1695
  824MOL0     H11199   6.759   8.192   0.546  3.1713 -1.7150  0.5326
  824MOL0     H11200   7.111   8.435   0.699  3.9345  0.6202  0.3064
  824MOL0     H11201   7.226   8.628   0.661  2.0844 -0.5184 -0.6827
  824MOL0     H11202   7.367   9.049   0.678 -3.6993 -0.3638 -1.2458
  824MOL0     H11203   7.553   9.205   0.609 -0.8317 -0.7275  1.2130
  824MOL0     H11204   7.839   9.069   0.300  0.7210  1.6467 -0.9278
  824MOL0     H11205   7.726   9.178   0.206 -1.7129  3.4158  0.9830
  824MOL0     H11206   7.949   9.275   0.370 -1.4001  3.6474  1.3731
  824MOL0     H11207   7.960   9.247   0.195 -1.4549  1.1598 -0.1635
  824MOL0     H11208   7.792   9.406   0.136 -1.2793  1.1905  0.7894
  824MOL0     H11209   7.744   9.443   0.303 -0.9401 -0.7202 -0.6862
  824MOL0     H11210   8.013   9.484   0.180 -0.4181 -0.3040 -0.7736
  824MOL0     H11211   7.972   9.525   0.351 -2.7546 -0.2425  1.3556
  824MOL0     H11212   7.836   9.707   0.284  1.0071  1.5823 -0.7003
  824MOL0     H11213   7.829   9.642   0.114  2.1325  1.3739 -1.5384
  824MOL0     H11214   8.075   9.747   0.268 -0.0299 -2.5304 -0.3845
  824MOL0     H11215   8.071   9.689   0.100  3.7451  0.5570  2.0613
  824MOL0     H11216   8.068   9.946   0.139 -3.1938  3.0541 -0.0694
  824MOL0     H11217   7.894   9.917   0.171 -0.5859  1.1259  0.4367
  824MOL0     H11218   7.876   9.805  -0.043 -1.1243  1.0523 -1.6018
  824MOL0     H11219   7.913   9.970  -0.060 -1.5842 -2.5738 -2.1286
  824MOL0     H11220   7.638   8.969   0.261 -1.2688 -1.0290  0.6169
  824MOL0     H11221   7.449   8.826   0.323  0.2921 -0.8420  1.2063
  824MOL0     H11222   7.017   8.677   0.282 -1.1110  0.0837  0.2720
  824MOL0     H11223   6.891   8.482   0.330 -0.6470  3.9551 -0.3528
  824MOL0     H11224   5.255   8.081   0.650  0.5456  1.1516 -0.5490
  824MOL0     H11225   5.103   7.976   0.789  3.6497  1.0734 -1.8419
  824MOL0     H11226   4.660   7.748   0.726  2.1392  1.1075  1.8452
  824MOL0     H11227   4.440   7.680   0.765 -1.9652 -0.5238 -0.2225
  824MOL0     H11228   4.215   7.677   0.991 -0.4237  1.6271  0.7350
  824MOL0     H11229   4.240   7.612   0.821 -0.5417  0.5300 -2.2629
  824MOL0     H11230   4.034   7.685   0.740 -0.7778 -0.9340 -0.4449
  824MOL0     H11231   3.989   7.774   0.889 -1.1053 -1.7853  1.5521
  824MOL0     H11232   3.947   7.577   1.002  0.6085  1.9932 -1.0025
  824MOL0     H11233   4.040   7.481   0.893  0.0470 -0.0451  0.6089
  824MOL0     H11234   3.780   7.614   0.799 -0.3256  0.1969  3.0181
  824MOL0     H11235   3.881   7.519   0.701 -1.7947  2.2246 -0.2795
  824MOL0     H11236   3.721   7.217   0.956 -0.1513  1.3261  0.8623
  824MOL0     H11237   4.334   8.076   0.896 -0.8925 -0.5814  1.0611
  824MOL0     H11238   4.475   8.243   0.833  0.8513 -0.2300 -1.4128
  824MOL0     H11239   4.584   8.207   0.968 -0.4371  0.6574  0.3231
  824MOL0     H11240   4.642   8.220   0.797 -2.0611  0.3502 -4.1998
  825MOL0     O11241   4.006   6.039  10.154  0.7078 -0.1084 -0.0677
  825MOL0     C11242   4.064   6.065  10.050 -0.2229 -0.1465  0.7313
  825MOL0     O11243   4.206   6.061  10.034 -0.6035 -0.1368  0.1093
  825MOL0     C11244   4.281   6.077  10.146 -0.3230  0.1093 -0.6915
  825MOL0     C11245   4.252   6.185  10.236  0.0099  1.4102  0.8553
  825MOL0     C11246   4.338   6.199  10.347  0.2186 -0.4334  0.6659
  825MOL0     C11247   4.436   6.105  10.383  0.3851  0.0187  0.1099
  825MOL0     O11248   4.531   6.123  10.479  0.1482 -0.3700 -0.0494
  825MOL0     C11249   4.498   6.188  10.599  0.3460  0.1203  0.2081
  825MOL0     C11250   4.615   6.251  10.670 -0.2720  0.2447 -0.3797
  825MOL0     C11251   4.733   6.158  10.703 -0.7105 -0.8914 -0.1523
  825MOL0     C11252   4.862   6.245  10.686  0.1410  0.4900 -0.0521
  825MOL0     C11253   4.882   6.347  10.802  1.0223 -0.5675  0.1982
  825MOL0     C11254   5.028   6.395  10.804 -0.3191  0.0556 -0.0255
  825MOL0     C11255   5.053   6.523  10.877 -0.7048  0.0844  0.1861
  825MOL0     C11256   4.966   6.555  10.999  0.0316 -0.5842 -0.3541
  825MOL0     N11257   5.008   6.496  11.125 -0.0564  0.2349 -1.2776
  825MOL0     C11258   5.132   6.496  11.184 -0.3017  0.5823  0.0072
  825MOL0     C11259   5.112   6.438  11.308 -0.5121 -0.2977 -0.2274
  825MOL0     C11260   5.225   6.416  11.418  0.0532  0.3612  0.6875
  825MOL0     C11261   5.298   6.554  11.456  0.2635 -0.2450 -0.3804
  825MOL0     C11262   5.415   6.510  11.549  0.0012  0.3909  0.4436
  825MOL0     C11263   5.499   6.622  11.597  0.0699  0.2388  0.2068
  825MOL0     O11264   5.559   6.686  11.480  0.7004  0.0038 -0.1367
  825MOL0     C11265   5.678   6.741  11.489 -0.6592 -0.5017 -0.6404
  825MOL0     C11266   5.734   6.752  11.364  0.1938 -0.4131 -0.0469
  825MOL0     C11267   5.871   6.792  11.344 -0.3632 -0.0034  0.3880
  825MOL0     C11268   5.947   6.832  11.456 -0.7502  0.0516 -0.3310
  825MOL0     C11269   6.080   6.894  11.432  0.5459 -0.5879 -0.6713
  825MOL0     O11270   6.160   6.914  11.549  0.6575  0.1374  0.5747
  825MOL0     C11271   6.287   6.964  11.527  0.2241 -0.2064 -0.1369
  825MOL0     C11272   6.319   7.083  11.599 -0.3876  0.4851  0.5708
  825MOL0     C11273   6.441   7.151  11.580  0.1637 -0.4683 -0.2121
  825MOL0     C11274   6.541   7.084  11.507 -0.1695 -0.1578 -0.3890
  825MOL0     O11275   6.667   7.143  11.502 -0.2096  0.6048 -0.1606
  825MOL0     C11276   6.779   7.058  11.529  0.0318  0.6239  0.0200
  825MOL0     C11277   6.910   7.132  11.539  0.1977 -0.3670 -0.5655
  825MOL0     C11278   7.023   7.044  11.596 -0.3459  0.2047 -0.1042
  825MOL0     C11279   7.157   7.088  11.539 -0.5232 -0.9796 -1.0058
  825MOL0     C11280   7.270   7.005  11.615 -0.1043  0.2852  0.0046
  825MOL0     C11281   7.405   7.025  11.543 -0.7007  0.7182 -0.2482
  825MOL0     C11282   7.460   7.165  11.565  0.7551 -0.6522  1.2929
  825MOL0     C11283   7.615   7.161  11.558  0.1056 -1.5579 -0.4301
  825MOL0    Cl11284   7.681   7.060  11.693  0.4326  0.0835  0.0615
  825MOL0     C11285   6.508   6.957  11.443  0.5949  0.2454  0.7966
  825MOL0     C11286   6.380   6.903  11.447  0.4104  0.1740 -0.3423
  825MOL0     O11287   6.116   6.916  11.314 -0.1197  0.3537  0.4571
  825MOL0     C11288   5.894   6.807  11.588  0.3475  0.3589  0.5645
  825MOL0     C11289   5.765   6.759  11.603  0.5186 -0.6242  1.4669
  825MOL0     N11290   4.978   6.424  11.331 -0.5365 -0.2810  0.0785
  825MOL0     N11291   4.922   6.461  11.223  0.4153 -0.0155  0.1673
  825MOL0     C11292   4.455   5.999  10.295 -0.1656 -0.3704  0.3820
  825MOL0     C11293   4.379   5.982  10.177 -0.3708 -0.2026 -0.2825
  825MOL0     C11294   3.974   6.110   9.928 -0.3361  0.8238  0.0658
  825MOL0     C11295   4.043   6.148   9.809 -0.4503 -0.1877  0.1064
  825MOL0     C11296   3.975   6.216   9.712 -0.4313 -0.4194  0.4194
  825MOL0     C11297   3.836   6.237   9.718 -0.1191 -0.7523  0.0998
  825MOL0     O11298   3.779   6.319   9.625 -0.4483  0.3077  0.3384
  825MOL0     C11299   3.634   6.341   9.630  0.1391 -0.5877  0.1922
  825MOL0     C11300   3.602   6.413   9.503 -0.3806 -0.3341 -0.5185
  825MOL0     C11301   3.683   6.547   9.494 -0.4629  0.4042 -0.1434
  825MOL0     C11302   3.613   6.632   9.395 -0.6322  0.0421  0.4188
  825MOL0     C11303   3.660   6.769   9.407 -0.0364  0.1850 -0.4480
  825MOL0     C11304   3.687   6.881   9.446 -0.0815 -0.1754  0.3570
  825MOL0     C11305   3.764   6.179   9.823 -0.5295 -0.6180 -0.3270
  825MOL0     C11306   3.829   6.120   9.933 -0.4271 -0.3649  0.2851
  825MOL0     C11307   3.738   6.059  10.036 -0.5737 -0.2707 -0.1202
  825MOL0     H11308   4.171   6.250  10.207  0.5097  1.6796  0.0056
  825MOL0     H11309   4.323   6.289  10.407 -3.2741  1.8179 -3.0651
  825MOL0     H11310   4.433   6.275  10.586 -0.4835 -0.3673  0.9688
  825MOL0     H11311   4.455   6.119  10.672  0.8610  1.1321  1.4977
  825MOL0     H11312   4.562   6.291  10.757 -2.2159 -0.2110 -1.3055
  825MOL0     H11313   4.641   6.332  10.601  0.9157 -0.8261 -1.2402
  825MOL0     H11314   4.757   6.072  10.641  1.4053 -2.2742  2.3968
  825MOL0     H11315   4.726   6.129  10.808 -1.2218  1.9446  0.6929
  825MOL0     H11316   4.949   6.179  10.682  1.8786  2.6357  0.4104
  825MOL0     H11317   4.867   6.290  10.586 -0.6235 -0.0492 -0.3419
  825MOL0     H11318   4.833   6.441  10.775  0.5658 -0.5288  1.1095
  825MOL0     H11319   4.847   6.312  10.900 -0.0493 -3.1004 -1.0158
  825MOL0     H11320   5.094   6.320  10.848  0.4716  0.6200 -0.2144
  825MOL0     H11321   5.064   6.411  10.702  0.1567  1.8358  0.3739
  825MOL0     H11322   5.045   6.610  10.812 -0.1240  0.2310  0.3038
  825MOL0     H11323   5.161   6.519  10.894 -0.7130 -1.9954 -0.0185
  825MOL0     H11324   4.977   6.664  10.995  0.3251 -0.6358 -1.2252
  825MOL0     H11325   4.859   6.538  10.985 -0.4614  2.1791 -0.6409
  825MOL0     H11326   5.230   6.525  11.145  0.7889  2.0525  3.4404
  825MOL0     H11327   5.181   6.360  11.501  0.1353  0.6703  0.9430
  825MOL0     H11328   5.306   6.360  11.371  1.6646  0.5556  3.0901
  825MOL0     H11329   5.325   6.611  11.367 -2.0321 -0.5440 -1.3532
  825MOL0     H11330   5.231   6.626  11.505 -0.3196  0.7894 -2.5693
  825MOL0     H11331   5.474   6.437  11.494 -1.6428 -1.1055  0.5806
  825MOL0     H11332   5.395   6.460  11.644  1.5935 -1.5966 -0.1960
  825MOL0     H11333   5.578   6.583  11.662  2.0151 -1.5697 -2.9869
  825MOL0     H11334   5.435   6.680  11.663 -0.8212  0.3177 -0.7010
  825MOL0     H11335   5.663   6.736  11.283 -2.0963 -0.3643  1.8465
  825MOL0     H11336   5.907   6.801  11.241 -1.3088 -1.4117 -0.0958
  825MOL0     H11337   6.250   7.125  11.672  0.9813  2.5185  0.7714
  825MOL0     H11338   6.469   7.247  11.620  3.8863 -1.8531  0.9250
  825MOL0     H11339   6.744   7.003  11.617  1.7735  0.0235  0.3619
  825MOL0     H11340   6.785   6.979  11.453 -0.3014 -2.3159  2.8130
  825MOL0     H11341   6.925   7.177  11.441 -0.6106 -1.8046 -1.3782
  825MOL0     H11342   6.898   7.221  11.603 -0.8141 -1.3726  0.7121
  825MOL0     H11343   7.027   7.066  11.703  0.1058  1.5042 -0.3737
  825MOL0     H11344   7.008   6.936  11.585  3.5354 -0.5693  0.6691
  825MOL0     H11345   7.163   7.196  11.556  0.3965 -1.2436  0.6184
  825MOL0     H11346   7.156   7.063  11.433 -1.7592 -0.1396 -1.2033
  825MOL0     H11347   7.241   6.900  11.617 -0.8092  0.4722  2.3230
  825MOL0     H11348   7.275   7.031  11.721  1.3609 -0.8194  0.2343
  825MOL0     H11349   7.474   6.953  11.589  0.0972  1.9415  0.5473
  825MOL0     H11350   7.406   6.997  11.437  3.3366 -2.8366  0.4503
  825MOL0     H11351   7.429   7.204  11.662  1.2082 -1.2303  1.6758
  825MOL0     H11352   7.429   7.229  11.481  1.7665 -1.4427  0.2890
  825MOL0     H11353   7.647   7.124  11.460  0.0459  2.9375 -2.3892
  825MOL0     H11354   7.658   7.260  11.572  0.3867 -1.7016 -0.2847
  825MOL0     H11355   6.578   6.900  11.382 -1.3840  0.7651 -2.1999
  825MOL0     H11356   6.359   6.812  11.392 -0.6778 -0.4904  1.1145
  825MOL0     H11357   5.951   6.813  11.680 -0.8398  3.3400  1.2084
  825MOL0     H11358   5.720   6.737  11.699 -2.2414 -0.9249  0.2129
  825MOL0     H11359   4.549   5.950  10.317  1.0792  1.9355  0.5871
  825MOL0     H11360   4.405   5.903  10.107  3.0631  0.0843  0.5127
  825MOL0     H11361   4.151   6.139   9.802 -0.4362  0.2402 -0.2740
  825MOL0     H11362   4.033   6.257   9.630  1.0439 -0.9916  1.1370
  825MOL0     H11363   3.606   6.399   9.718  0.4737  0.7749 -0.5705
  825MOL0     H11364   3.582   6.245   9.636  0.8785 -0.9381  1.4398
  825MOL0     H11365   3.496   6.440   9.509  0.3436  2.8428 -0.3541
  825MOL0     H11366   3.621   6.348   9.417 -0.4005 -2.3449  0.9195
  825MOL0     H11367   3.787   6.532   9.467 -0.6320  0.8923 -1.1039
  825MOL0     H11368   3.660   6.599   9.588 -1.2746  0.7159 -0.5006
  825MOL0     H11369   3.636   6.593   9.296  0.8529 -0.8763  1.0838
  825MOL0     H11370   3.505   6.642   9.409 -0.6325  0.1004  0.3745
  825MOL0     H11371   3.714   6.984   9.457  1.8573 -0.5992 -0.0273
  825MOL0     H11372   3.656   6.191   9.828 -0.3689  1.1109 -0.3704
  825MOL0     H11373   3.753   6.108  10.132  3.8842 -1.1005 -0.2165
  825MOL0     H11374   3.634   6.078  10.005 -0.2113  0.6937 -0.7990
  825MOL0     H11375   3.762   5.953  10.041 -1.2290 -0.3836  0.9372
  826MOL0     O11376   5.718   9.717   1.811  0.3530  0.0950 -0.1700
  826MOL0     C11377   5.693   9.623   1.886 -0.2237  0.6000  0.5022
  826MOL0     O11378   5.784   9.569   1.968 -0.1407  0.1726  0.4099
  826MOL0     C11379   5.922   9.586   1.933  0.0658  0.0245  0.1452
  826MOL0     C11380   5.967   9.590   1.796 -0.2614  0.4524 -0.4154
  826MOL0     C11381   6.101   9.610   1.764 -0.0548 -0.0392  0.4813
  826MOL0     C11382   6.196   9.615   1.860  0.1028  0.1872 -0.6175
  826MOL0     O11383   6.322   9.657   1.824  0.5059 -0.0548  0.6558
  826MOL0     C11384   6.433   9.660   1.911  0.0858 -0.2898 -0.6247
  826MOL0     C11385   6.489   9.520   1.961  0.1285  0.4335  0.4342
  826MOL0     C11386   6.515   9.436   1.833 -0.5378  0.3340 -0.6918
  826MOL0     C11387   6.619   9.497   1.733 -0.2271  0.2882 -0.4291
  826MOL0     C11388   6.664   9.397   1.631 -1.1071 -0.4096 -0.8214
  826MOL0     C11389   6.558   9.368   1.523 -0.2308 -0.3971  0.5088
  826MOL0     C11390   6.624   9.289   1.410  0.0141  0.0600  0.6722
  826MOL0     C11391   6.531   9.258   1.293 -0.6798  0.5040 -0.0857
  826MOL0     N11392   6.433   9.159   1.325  0.9243 -0.1256 -0.9493
  826MOL0     C11393   6.397   9.043   1.255 -0.7558 -0.7836 -1.4468
  826MOL0     C11394   6.289   9.000   1.329  0.6320 -0.1692  0.5081
  826MOL0     C11395   6.205   8.883   1.281 -0.6442  0.1970  0.6739
  826MOL0     C11396   6.129   8.823   1.396  0.4970  0.7267 -0.0477
  826MOL0     C11397   6.227   8.767   1.499 -0.4084  0.1646 -0.2858
  826MOL0     C11398   6.179   8.663   1.595  0.6205  0.4359  0.2627
  826MOL0     O11399   6.081   8.730   1.670 -0.3962  0.0467 -0.1049
  826MOL0     C11400   5.980   8.650   1.714 -0.3276  0.4904 -0.7366
  826MOL0     C11401   5.901   8.716   1.803 -0.1852  0.0441  0.5018
  826MOL0     C11402   5.774   8.664   1.839 -0.4258 -0.2828  0.0620
  826MOL0     C11403   5.748   8.530   1.801  0.5814  0.1367  0.2181
  826MOL0     C11404   5.619   8.465   1.836 -0.4744 -0.5493 -0.3893
  826MOL0     O11405   5.593   8.340   1.782 -0.4451  0.9056 -0.8558
  826MOL0     C11406   5.500   8.266   1.846 -0.0605  0.2741 -0.0637
  826MOL0     C11407   5.491   8.246   1.985  0.1989  0.4955  0.2307
  826MOL0     C11408   5.391   8.173   2.040  0.2663  0.3592  0.3297
  826MOL0     C11409   5.300   8.095   1.965 -0.6869 -0.6829  1.0686
  826MOL0     O11410   5.198   8.024   2.021 -0.6880 -0.7420  0.0293
  826MOL0     C11411   5.118   7.945   1.935 -0.5142 -0.1189 -0.2554
  826MOL0     C11412   5.011   7.867   2.017 -0.3616 -0.5628 -0.1808
  826MOL0     C11413   4.895   7.958   2.066 -0.5323  0.9159  0.6146
  826MOL0     C11414   4.779   7.890   2.127 -0.2922 -0.0247 -0.4453
  826MOL0     C11415   4.656   7.975   2.135 -0.1405 -0.3502  0.3449
  826MOL0     C11416   4.571   8.006   2.013  0.0000  0.4931  0.2849
  826MOL0     C11417   4.427   8.053   2.045 -0.7604  0.1177  0.7187
  826MOL0     C11418   4.324   7.942   2.078  0.5338  0.4974 -0.7133
  826MOL0    Cl11419   4.177   8.036   2.104  0.1504  0.3649 -0.1440
  826MOL0     C11420   5.311   8.106   1.826  0.1056  0.4469  0.1291
  826MOL0     C11421   5.410   8.192   1.767  0.4480  0.0374 -0.4016
  826MOL0     O11422   5.545   8.527   1.921 -0.5403  0.5735 -0.0131
  826MOL0     C11423   5.835   8.466   1.716  0.0608  0.6809  0.6747
  826MOL0     C11424   5.946   8.526   1.668  0.9796 -0.4918 -0.5756
  826MOL0     N11425   6.246   9.094   1.420  0.3549  0.0068 -0.5737
  826MOL0     N11426   6.339   9.182   1.424 -0.7601  0.9082 -0.0474
  826MOL0     C11427   6.162   9.600   1.991 -0.1387 -0.1145  0.1074
  826MOL0     C11428   6.030   9.571   2.029  0.4251 -0.6259 -0.8727
  826MOL0     C11429   5.547   9.607   1.897  0.7344  0.0962 -0.3740
  826MOL0     C11430   5.458   9.702   1.829  0.3128 -0.1001 -1.0851
  826MOL0     C11431   5.317   9.709   1.854 -1.4973  0.0988 -0.3598
  826MOL0     C11432   5.251   9.620   1.927 -0.0953  0.6118 -0.5978
  826MOL0     O11433   5.117   9.630   1.925  0.1689  1.0726 -0.1640
  826MOL0     C11434   5.050   9.622   2.048 -0.3628  0.5711 -0.3198
  826MOL0     C11435   5.047   9.763   2.110  0.0384  0.1761 -0.7712
  826MOL0     C11436   4.942   9.756   2.236 -0.3136 -0.7848  0.4087
  826MOL0     C11437   4.971   9.859   2.344 -0.3738  0.7532  0.3133
  826MOL0     C11438   5.082   9.823   2.438  0.6088 -0.6305 -0.2937
  826MOL0     C11439   5.180   9.803   2.514  0.1017 -0.2176  0.1358
  826MOL0     C11440   5.337   9.513   1.981  0.0774 -0.5404 -0.4059
  826MOL0     C11441   5.476   9.506   1.968 -0.6824 -0.3719  0.0749
  826MOL0     C11442   5.538   9.391   2.042 -0.0347 -0.6909  0.1278
  826MOL0     H11443   5.899   9.574   1.714  0.3576 -2.6093 -0.4399
  826MOL0     H11444   6.125   9.624   1.659  0.5083 -1.1630  0.4442
  826MOL0     H11445   6.507   9.721   1.859  1.0182 -0.4274  0.4933
  826MOL0     H11446   6.408   9.729   1.993  0.4597  1.4202 -1.8995
  826MOL0     H11447   6.407   9.471   2.014 -1.7191  2.0165 -0.8305
  826MOL0     H11448   6.582   9.528   2.017 -0.2135  3.0232  0.7449
  826MOL0     H11449   6.428   9.400   1.777  0.0372 -1.4607 -0.4991
  826MOL0     H11450   6.569   9.351   1.875  1.9851  1.9854 -0.3506
  826MOL0     H11451   6.573   9.580   1.679  1.6913  1.6206 -0.0952
  826MOL0     H11452   6.703   9.535   1.792  0.6757  1.7015 -2.5356
  826MOL0     H11453   6.748   9.441   1.576 -0.9274 -3.2282 -3.0376
  826MOL0     H11454   6.692   9.307   1.685  0.7434  3.2395  5.2669
  826MOL0     H11455   6.481   9.307   1.572 -1.4500  0.2223 -0.5742
  826MOL0     H11456   6.526   9.462   1.476  0.1819 -0.4233  0.1702
  826MOL0     H11457   6.664   9.195   1.450 -0.4429  0.1635  1.3872
  826MOL0     H11458   6.714   9.341   1.377  0.4214 -1.0013  0.0566
  826MOL0     H11459   6.486   9.347   1.248 -0.6873 -0.5077 -2.2092
  826MOL0     H11460   6.589   9.202   1.219 -1.6658 -0.6861  0.0007
  826MOL0     H11461   6.450   9.000   1.171 -0.2018 -1.6110 -0.6900
  826MOL0     H11462   6.140   8.928   1.207  0.3364  0.8014  0.1545
  826MOL0     H11463   6.262   8.801   1.235 -2.1211 -1.1034  1.0642
  826MOL0     H11464   6.067   8.898   1.446  0.1378 -0.3787  1.2160
  826MOL0     H11465   6.058   8.749   1.357 -0.6938  1.5898  0.4290
  826MOL0     H11466   6.258   8.856   1.554  0.2782  0.1934 -0.7168
  826MOL0     H11467   6.319   8.725   1.457  0.9586  1.4119  1.3678
  826MOL0     H11468   6.254   8.641   1.671  1.2493  2.3856  0.2563
  826MOL0     H11469   6.164   8.570   1.539  3.1934  0.4727 -0.6041
  826MOL0     H11470   5.923   8.817   1.836 -4.2419  1.0113  0.7152
  826MOL0     H11471   5.700   8.718   1.897  0.1163 -0.2172  0.7017
  826MOL0     H11472   5.557   8.288   2.060 -0.0059  0.2144  0.5739
  826MOL0     H11473   5.382   8.171   2.148 -1.3042  0.1477  0.2322
  826MOL0     H11474   5.072   8.008   1.858 -0.7438 -0.7970 -0.6907
  826MOL0     H11475   5.172   7.868   1.878 -0.2600  0.0479 -0.2386
  826MOL0     H11476   4.967   7.789   1.955 -2.8546  0.9422 -0.4441
  826MOL0     H11477   5.053   7.817   2.105  0.2422 -0.9305 -0.6704
  826MOL0     H11478   4.939   8.032   2.133  1.5847  2.0660 -1.8442
  826MOL0     H11479   4.858   8.010   1.977  1.5513  1.8161  0.2273
  826MOL0     H11480   4.798   7.854   2.229 -2.2841  1.0727  0.3521
  826MOL0     H11481   4.751   7.803   2.066  0.7193 -2.4237  2.2316
  826MOL0     H11482   4.682   8.067   2.187  1.2518  0.0221 -0.9524
  826MOL0     H11483   4.592   7.919   2.205 -1.0082  1.0434  0.7029
  826MOL0     H11484   4.621   8.091   1.966 -1.8553  1.5778  0.1923
  826MOL0     H11485   4.573   7.921   1.944 -0.5581  0.3066  0.4937
  826MOL0     H11486   4.393   8.108   1.956  0.5909  3.0003  1.8631
  826MOL0     H11487   4.429   8.117   2.134  2.5559  0.6286  0.3886
  826MOL0     H11488   4.326   7.868   1.998  2.3539  0.0963 -0.3382
  826MOL0     H11489   4.351   7.888   2.168 -0.6213  0.1230 -0.5691
  826MOL0     H11490   5.234   8.073   1.757 -2.0337  1.0423  2.0973
  826MOL0     H11491   5.421   8.197   1.659 -1.6845 -1.9753 -0.8102
  826MOL0     H11492   5.820   8.365   1.679  0.1773  0.9251 -0.0512
  826MOL0     H11493   5.991   8.471   1.586  0.5825 -2.2940  0.3704
  826MOL0     H11494   6.244   9.609   2.061 -0.7373  0.9315  0.6972
  826MOL0     H11495   5.998   9.552   2.130 -2.3434  2.7168 -0.9427
  826MOL0     H11496   5.500   9.774   1.760  1.3021 -1.9719 -2.5416
  826MOL0     H11497   5.257   9.785   1.806 -0.6852  0.4837 -0.7883
  826MOL0     H11498   5.092   9.546   2.115 -0.4095 -0.0891 -1.0290
  826MOL0     H11499   4.948   9.586   2.035 -0.1458 -1.1202  2.1237
  826MOL0     H11500   5.038   9.836   2.029  0.5411 -1.1983 -2.1244
  826MOL0     H11501   5.145   9.766   2.159 -0.2947  1.5725 -0.1594
  826MOL0     H11502   4.950   9.656   2.279 -1.7257 -0.3450  1.7512
  826MOL0     H11503   4.841   9.771   2.197  0.4764 -1.4024 -2.0315
  826MOL0     H11504   4.998   9.957   2.304 -0.2435  0.6283  0.0912
  826MOL0     H11505   4.882   9.858   2.407 -0.9204  0.6827 -0.4409
  826MOL0     H11506   5.271   9.784   2.568  1.0056  2.4124 -0.3331
  826MOL0     H11507   5.281   9.436   2.033 -1.2058 -0.5808 -1.7773
  826MOL0     H11508   5.474   9.366   2.127 -0.3692  0.4148  0.2265
  826MOL0     H11509   5.543   9.303   1.977 -0.2568 -1.6324  1.3628
  826MOL0     H11510   5.636   9.426   2.075 -0.5017 -0.5207  1.3980
  827MOL0     O11511  10.663   8.163   9.059 -0.2176 -0.0042  0.4160
  827MOL0     C11512  10.561   8.128   9.117  0.2004 -0.9160 -1.1815
  827MOL0     O11513  10.521   7.998   9.159 -0.3249  0.6486  0.2166
  827MOL0     C11514  10.602   7.888   9.147 -0.5726  0.0397  0.5223
  827MOL0     C11515  10.565   7.767   9.080  0.7486  1.0264  0.5440
  827MOL0     C11516  10.651   7.659   9.093 -0.9092  0.0363  0.2325
  827MOL0     C11517  10.774   7.665   9.155 -0.8490 -0.3281  0.3087
  827MOL0     O11518  10.855   7.563   9.174 -0.3512  0.8742  0.0041
  827MOL0     C11519  10.913   7.502   9.055  0.0024 -0.0113 -0.3476
  827MOL0     C11520  10.972   7.370   9.094  0.2045 -0.4408 -0.7441
  827MOL0     C11521  11.095   7.336   9.011  0.0957 -0.9841  0.4990
  827MOL0     C11522  11.122   7.187   9.036 -0.0516  0.6515 -0.4345
  827MOL0     C11523  11.266   7.139   9.000  0.3008 -0.2980  0.1329
  827MOL0     C11524  11.292   7.132   8.847 -0.0051  0.0404  0.1022
  827MOL0     C11525  11.439   7.095   8.825 -1.3184  0.0318  0.3834
  827MOL0     C11526  11.456   6.942   8.824  1.3808 -0.4699  0.2836
  827MOL0     N11527  11.589   6.898   8.865 -0.3145  0.1461 -0.3573
  827MOL0     C11528  11.707   6.898   8.796  0.2484  0.2405  0.0282
  827MOL0     C11529  11.791   6.822   8.860  0.2073 -0.1837  0.4334
  827MOL0     C11530  11.924   6.786   8.801 -0.0135  0.2343 -0.0362
  827MOL0     C11531  12.000   6.670   8.869  0.5946 -0.4387  0.7410
  827MOL0     C11532  12.065   6.688   9.006 -0.3994 -0.6021  0.1080
  827MOL0     C11533  12.186   6.597   9.045 -0.2179 -0.5666  0.7625
  827MOL0     O11534  12.285   6.624   8.945  0.8983 -0.0275  0.1136
  827MOL0     C11535  12.405   6.601   9.001  0.1490 -0.2368  0.0277
  827MOL0     C11536  12.484   6.713   9.031  0.2407  0.2052 -0.1739
  827MOL0     C11537  12.614   6.696   9.078 -0.3616 -0.3810  0.1377
  827MOL0     C11538  12.666   6.567   9.102 -0.3620 -0.0660  0.1977
  827MOL0     C11539  12.810   6.557   9.150 -0.3164  0.5603 -0.6099
  827MOL0     O11540  12.887   6.667   9.190  1.0120 -0.2178 -0.5307
  827MOL0     C11541  13.023   6.662   9.187  0.1981  0.8175  0.8204
  827MOL0     C11542  13.094   6.586   9.087 -0.7521 -0.0657  0.3892
  827MOL0     C11543  13.229   6.579   9.086 -0.2290 -0.4535 -0.9003
  827MOL0     C11544  13.302   6.640   9.197  0.4779 -0.4614 -0.3233
  827MOL0     O11545  13.438   6.621   9.205 -0.4283 -0.1000  0.1906
  827MOL0     C11546  13.511   6.627   9.087 -0.1605  0.1024  0.4383
  827MOL0     C11547  13.662   6.651   9.107  0.0385  0.9024  0.0608
  827MOL0     C11548  13.730   6.648   8.971  0.2714  0.2849  0.1383
  827MOL0     C11549  13.883   6.663   8.994  0.4157 -0.3212  0.5761
  827MOL0     C11550  13.959   6.704   8.874  0.5123  0.6320 -0.0537
  827MOL0     C11551  14.108   6.721   8.880  0.6472 -0.4788 -0.0448
  827MOL0     C11552  14.194   6.603   8.937  0.3764 -0.1070  0.1244
  827MOL0     C11553  14.340   6.636   8.948  0.1076 -0.0995 -0.2612
  827MOL0    Cl11554  14.429   6.603   8.797  0.3722  0.1105 -0.0798
  827MOL0     C11555  13.227   6.713   9.297  0.2045  0.0866  0.0830
  827MOL0     C11556  13.093   6.714   9.297  0.5506 -0.1164 -0.3477
  827MOL0     O11557  12.856   6.444   9.150  0.0912  0.7192  0.7977
  827MOL0     C11558  12.583   6.451   9.068  0.0703  0.2297 -0.3238
  827MOL0     C11559  12.457   6.469   9.019  0.0296 -0.0543  0.4588
  827MOL0     N11560  11.729   6.778   8.975  0.1890  0.3952 -0.5467
  827MOL0     N11561  11.611   6.835   8.983 -0.1641 -0.0813 -0.1014
  827MOL0     C11562  10.801   7.781   9.223  0.1080 -0.1539 -0.5051
  827MOL0     C11563  10.725   7.894   9.220  0.3567 -1.0376  0.2860
  827MOL0     C11564  10.460   8.230   9.136  0.6115  0.0828  1.1953
  827MOL0     C11565  10.323   8.207   9.098 -0.4904  0.1240 -0.3814
  827MOL0     C11566  10.230   8.309   9.105  0.0952  0.7033 -0.0901
  827MOL0     C11567  10.270   8.436   9.143 -0.2641  0.1301 -0.5090
  827MOL0     O11568  10.180   8.539   9.154 -0.5989 -0.2464  0.5757
  827MOL0     C11569  10.068   8.514   9.239  0.2037 -0.0677 -0.1533
  827MOL0     C11570  10.090   8.551   9.393 -0.4643  0.1371 -0.0726
  827MOL0     C11571  10.048   8.699   9.425 -0.9052 -0.9607 -0.1225
  827MOL0     C11572   9.899   8.716   9.463  0.6642 -0.9278 -0.5757
  827MOL0     C11573   9.850   8.856   9.456 -0.0497 -0.1999 -0.1194
  827MOL0     C11574   9.808   8.969   9.471  0.1865  0.1349 -0.9452
  827MOL0     C11575  10.400   8.461   9.195  0.4828  1.3927  0.0500
  827MOL0     C11576  10.496   8.356   9.189 -0.0248 -0.3740  0.0169
  827MOL0     C11577  10.632   8.384   9.254 -0.3084  0.1428  0.9300
  827MOL0     H11578  10.465   7.762   9.039  1.2038  1.0877 -0.5989
  827MOL0     H11579  10.609   7.563   9.065 -1.8282  0.3489  0.5155
  827MOL0     H11580  10.835   7.485   8.980  0.3446  2.9123 -1.4895
  827MOL0     H11581  10.986   7.570   9.012  1.9146 -1.4994  0.4043
  827MOL0     H11582  10.888   7.300   9.095 -1.1834  0.9739  3.1445
  827MOL0     H11583  10.999   7.373   9.200 -0.0814 -1.7830 -0.6136
  827MOL0     H11584  11.182   7.397   9.036 -1.4320  1.8369 -0.5570
  827MOL0     H11585  11.078   7.352   8.904  0.7480 -1.0119  0.3912
  827MOL0     H11586  11.098   7.159   9.139 -1.0310 -1.2570 -1.1355
  827MOL0     H11587  11.050   7.133   8.974 -1.0825 -0.3657  1.5314
  827MOL0     H11588  11.337   7.192   9.064 -0.4274  0.2526  0.5056
  827MOL0     H11589  11.274   7.036   9.034  2.2647 -0.5693 -0.9591
  827MOL0     H11590  11.231   7.055   8.799 -0.2659 -0.2271  0.8470
  827MOL0     H11591  11.285   7.230   8.799  1.3305 -1.3394 -3.1687
  827MOL0     H11592  11.495   7.146   8.903 -1.7151  1.3203 -0.1588
  827MOL0     H11593  11.484   7.127   8.731 -1.5488 -2.7249 -0.7748
  827MOL0     H11594  11.393   6.904   8.904 -2.9894  1.5646 -1.8391
  827MOL0     H11595  11.422   6.908   8.725  0.3134  3.6713 -1.0062
  827MOL0     H11596  11.731   6.948   8.704  1.3510  1.8508  1.1464
  827MOL0     H11597  11.897   6.753   8.700 -0.2458 -2.4242  0.8202
  827MOL0     H11598  11.985   6.876   8.804  0.1428  0.2007 -1.4831
  827MOL0     H11599  11.933   6.585   8.883  0.4110  0.1312  4.3366
  827MOL0     H11600  12.070   6.636   8.792 -1.6206 -0.2596 -1.4617
  827MOL0     H11601  11.983   6.679   9.078  1.4396 -0.5726  2.3085
  827MOL0     H11602  12.099   6.792   9.013  0.1228 -0.5721 -2.1184
  827MOL0     H11603  12.159   6.491   9.039 -0.5976 -0.3844 -1.4326
  827MOL0     H11604  12.215   6.627   9.146  2.8101  0.4447 -0.2975
  827MOL0     H11605  12.445   6.813   9.014  0.8469  0.9592  2.4799
  827MOL0     H11606  12.673   6.783   9.105 -0.3006 -0.3312 -0.1522
  827MOL0     H11607  13.035   6.553   9.001 -0.6925  1.6876 -0.3762
  827MOL0     H11608  13.276   6.510   9.017  0.6757  1.8696 -2.7179
  827MOL0     H11609  13.489   6.534   9.035 -1.3112 -0.7293  2.3113
  827MOL0     H11610  13.473   6.704   9.020 -0.4687  0.1529  0.6710
  827MOL0     H11611  13.663   6.754   9.143 -1.4437  1.0335 -0.2025
  827MOL0     H11612  13.707   6.579   9.176  0.3047  1.4750  0.4925
  827MOL0     H11613  13.708   6.556   8.917 -0.9810  1.3941 -1.3505
  827MOL0     H11614  13.698   6.729   8.905 -0.1129  1.0135  1.1884
  827MOL0     H11615  13.908   6.564   9.032 -1.1153 -0.1420  2.2104
  827MOL0     H11616  13.907   6.722   9.083 -2.2513  0.1146  1.1004
  827MOL0     H11617  13.915   6.797   8.837  1.9785  2.0284  1.6008
  827MOL0     H11618  13.940   6.621   8.805 -1.7321 -0.5903  1.8632
  827MOL0     H11619  14.148   6.754   8.783  0.5243  0.1215  0.1058
  827MOL0     H11620  14.109   6.806   8.948 -2.5870 -1.2515  1.1456
  827MOL0     H11621  14.182   6.508   8.884 -0.0643  0.8309 -1.5326
  827MOL0     H11622  14.145   6.580   9.032 -0.1211  0.5001  0.0186
  827MOL0     H11623  14.353   6.742   8.971 -2.7797  0.6717 -1.6697
  827MOL0     H11624  14.387   6.577   9.027 -1.1107  0.2416  0.7508
  827MOL0     H11625  13.284   6.765   9.373 -0.0636  1.1271 -0.4107
  827MOL0     H11626  13.047   6.767   9.380 -2.9494  1.2632 -2.9601
  827MOL0     H11627  12.623   6.350   9.076  2.7611  1.2692  0.5862
  827MOL0     H11628  12.391   6.383   9.007 -2.9371  1.9331  1.3172
  827MOL0     H11629  10.893   7.796   9.278 -0.2283 -0.5272  0.1732
  827MOL0     H11630  10.756   7.982   9.275 -0.3716  0.1806 -1.1648
  827MOL0     H11631  10.300   8.109   9.059  0.2634  0.4956 -1.8080
  827MOL0     H11632  10.130   8.287   9.070  0.3136 -0.0184 -0.2925
  827MOL0     H11633  10.033   8.410   9.238 -0.2513  0.0140  2.0760
  827MOL0     H11634   9.990   8.580   9.198  0.2464 -0.1032 -0.2941
  827MOL0     H11635  10.198   8.551   9.410  0.1200  1.7934 -3.0555
  827MOL0     H11636  10.048   8.482   9.466  1.2704  0.6469  1.4792
  827MOL0     H11637  10.074   8.760   9.338  1.1331 -0.3422  0.8604
  827MOL0     H11638  10.106   8.741   9.508 -3.3465  0.2406  1.1067
  827MOL0     H11639   9.838   8.661   9.391 -1.9975  2.7483 -1.4152
  827MOL0     H11640   9.898   8.681   9.566  0.8221  0.8729  0.0701
  827MOL0     H11641   9.757   9.062   9.486  1.1387  0.9395 -2.5358
  827MOL0     H11642  10.431   8.559   9.230  2.3029  0.5671  0.8437
  827MOL0     H11643  10.624   8.460   9.332 -0.6449  1.8241 -0.6711
  827MOL0     H11644  10.666   8.288   9.294  0.1768  0.1654  0.5824
  827MOL0     H11645  10.702   8.439   9.191  1.7229 -2.1899  1.0268
  828MOL0     O11646   8.728   7.929   0.266 -0.0860  0.5795  0.5198
  828MOL0     C11647   8.668   7.902   0.152 -0.8027 -0.2031 -1.3621
  828MOL0     O11648   8.640   7.997   0.065  1.0342 -0.3805 -0.2513
  828MOL0     C11649   8.699   8.118   0.078 -0.1342 -0.0688  0.1654
  828MOL0     C11650   8.639   8.235   0.144 -0.2405 -0.2306  0.1026
  828MOL0     C11651   8.709   8.362   0.136 -0.2059 -0.7064  0.1019
  828MOL0     C11652   8.837   8.363   0.081  0.1474 -1.2084  0.4748
  828MOL0     O11653   8.904   8.479   0.058 -0.0073  0.9168  0.0106
  828MOL0     C11654   8.911   8.562   0.179 -0.2446 -0.4107  0.2516
  828MOL0     C11655   9.001   8.680   0.142  0.4112 -0.1659  0.1409
  828MOL0     C11656   9.151   8.646   0.134  0.2247  0.6880  0.1453
  828MOL0     C11657   9.233   8.774   0.099 -0.0215  0.2931  0.0645
  828MOL0     C11658   9.374   8.727   0.083 -0.8819  0.2823  0.0079
  828MOL0     C11659   9.404   8.647  -0.046  0.0985 -0.3098 -0.7042
  828MOL0     C11660   9.552   8.606  -0.039 -0.3844  0.1334 -0.1120
  828MOL0     C11661   9.604   8.564  -0.177 -0.2754  0.0970  0.4277
  828MOL0     N11662   9.743   8.513  -0.175  0.4798  0.8248  0.1037
  828MOL0     C11663   9.856   8.574  -0.229  0.5722  0.7439  0.0258
  828MOL0     C11664   9.962   8.501  -0.192  0.7738 -0.0142  0.5776
  828MOL0     C11665  10.113   8.530  -0.225 -0.3747 -0.1671 -0.1621
  828MOL0     C11666  10.170   8.438  -0.330  0.0847  0.0852  0.1810
  828MOL0     C11667  10.317   8.458  -0.342 -0.3193 -0.2222 -0.8971
  828MOL0     C11668  10.387   8.356  -0.422  0.6794 -0.0211  0.5420
  828MOL0     O11669  10.519   8.408  -0.444 -0.1904  0.0784  0.1406
  828MOL0     C11670  10.611   8.340  -0.520  0.4235  0.7006  0.0293
  828MOL0     C11671  10.735   8.409  -0.546  0.6786  0.3379  0.0527
  828MOL0     C11672  10.835   8.346  -0.618  0.2298  0.2866  0.1746
  828MOL0     C11673  10.810   8.225  -0.675 -0.1072 -0.5623 -0.2073
  828MOL0     C11674  10.926   8.165  -0.754  0.3657 -0.0775 -0.5362
  828MOL0     O11675  11.027   8.243  -0.802  0.0680 -0.0936 -0.4338
  828MOL0     C11676  11.146   8.199  -0.852 -0.0590  0.1671 -0.7691
  828MOL0     C11677  11.184   8.226  -0.980 -0.0552 -0.3338 -0.2101
  828MOL0     C11678  11.308   8.182  -1.029  0.0774 -0.5334 -0.8585
  828MOL0     C11679  11.397   8.108  -0.956  0.4166 -0.4102  0.4065
  828MOL0     O11680  11.514   8.055  -1.004 -0.2093  0.2700 -0.0927
  828MOL0     C11681  11.560   8.099  -1.132 -0.7632 -0.5831  0.5534
  828MOL0     C11682  11.698   8.047  -1.148 -0.6615  0.0025 -0.9456
  828MOL0     C11683  11.815   8.140  -1.104  0.6089 -0.1059 -0.2275
  828MOL0     C11684  11.948   8.074  -1.126 -0.4669  0.3204 -0.7372
  828MOL0     C11685  12.068   8.171  -1.130 -0.4290 -0.3948  0.4370
  828MOL0     C11686  12.184   8.118  -1.209  0.3378  0.4549  0.7686
  828MOL0     C11687  12.315   8.199  -1.177  0.4919 -1.1068 -0.4703
  828MOL0     C11688  12.437   8.171  -1.253  0.1448 -0.4992  0.2508
  828MOL0    Cl11689  12.561   8.287  -1.198 -0.0318  0.2970  0.3726
  828MOL0     C11690  11.350   8.078  -0.826  0.1467  0.3010 -0.6245
  828MOL0     C11691  11.229   8.120  -0.777 -0.3160  0.2214  0.1091
  828MOL0     O11692  10.924   8.043  -0.764  0.5593 -0.0776  0.2165
  828MOL0     C11693  10.686   8.155  -0.658  0.3580 -0.9113 -0.0484
  828MOL0     C11694  10.584   8.211  -0.578 -0.1874  0.3072 -0.7725
  828MOL0     N11695   9.916   8.392  -0.123 -0.1041 -0.1912 -0.2911
  828MOL0     N11696   9.781   8.390  -0.121 -0.5228  0.5467  0.1467
  828MOL0     C11697   8.904   8.241   0.039 -0.1049 -0.0567 -0.3973
  828MOL0     C11698   8.833   8.124   0.032  0.4486 -0.6715  0.5770
  828MOL0     C11699   8.640   7.757   0.117 -0.2278 -0.5692 -0.2647
  828MOL0     C11700   8.717   7.650   0.177  0.3693 -0.1651 -0.6693
  828MOL0     C11701   8.672   7.516   0.173 -1.6792 -0.1882  0.2253
  828MOL0     C11702   8.581   7.473   0.084  0.4431 -0.4919  0.7128
  828MOL0     O11703   8.562   7.337   0.065  0.2350  0.1707 -0.2953
  828MOL0     C11704   8.422   7.301   0.063 -0.6280  0.8704 -0.3166
  828MOL0     C11705   8.402   7.142   0.048 -0.4356  0.0545  0.2379
  828MOL0     C11706   8.449   7.086  -0.089 -0.3248  0.0203  0.2688
  828MOL0     C11707   8.472   6.932  -0.067 -0.0107 -0.6339 -0.5311
  828MOL0     C11708   8.347   6.853  -0.062 -0.7614  0.2372  1.0499
  828MOL0     C11709   8.252   6.781  -0.070 -0.0908  0.3179 -0.0867
  828MOL0     C11710   8.528   7.576   0.001 -0.2527  0.1746  0.4613
  828MOL0     C11711   8.545   7.712   0.018  1.2537  1.0334 -0.0160
  828MOL0     C11712   8.445   7.798  -0.051 -0.2061  0.0751  0.5941
  828MOL0     H11713   8.538   8.220   0.181 -0.3971 -1.4621 -0.7689
  828MOL0     H11714   8.654   8.447   0.174  0.6356  0.4671 -1.2520
  828MOL0     H11715   8.812   8.603   0.200 -0.2404 -0.7461  0.9781
  828MOL0     H11716   8.952   8.496   0.256 -1.1400 -0.9935  0.2511
  828MOL0     H11717   8.994   8.770   0.205  3.7275  0.7351 -0.5821
  828MOL0     H11718   8.957   8.717   0.049 -1.6917  0.1541  1.1881
  828MOL0     H11719   9.162   8.568   0.059 -1.5916  1.0191 -0.5068
  828MOL0     H11720   9.197   8.599   0.222 -1.0560  1.5221  1.3089
  828MOL0     H11721   9.194   8.823   0.009 -0.2706 -0.3409 -0.1825
  828MOL0     H11722   9.230   8.845   0.182  0.3016 -0.2869  0.5800
  828MOL0     H11723   9.439   8.815   0.086  0.6923 -0.8685  1.4578
  828MOL0     H11724   9.411   8.671   0.170 -2.7211 -2.1672 -0.6679
  828MOL0     H11725   9.336   8.562  -0.050  0.0945 -0.2511 -2.4589
  828MOL0     H11726   9.382   8.705  -0.136  0.6418 -0.1671 -0.7471
  828MOL0     H11727   9.568   8.528   0.036 -1.0587  2.0346  2.0862
  828MOL0     H11728   9.612   8.694  -0.016 -0.3524 -0.5059  2.5479
  828MOL0     H11729   9.535   8.490  -0.217 -0.0573 -0.3623  0.9002
  828MOL0     H11730   9.592   8.653  -0.240  1.4937  1.6025  2.0759
  828MOL0     H11731   9.866   8.670  -0.278 -1.9866  0.0734 -2.0527
  828MOL0     H11732  10.118   8.633  -0.262 -2.2710 -1.1524 -3.6937
  828MOL0     H11733  10.168   8.523  -0.131 -1.3234  0.7122  0.4907
  828MOL0     H11734  10.149   8.335  -0.299  0.3838  0.1496  0.5981
  828MOL0     H11735  10.127   8.452  -0.430 -1.3513 -1.0390  0.5961
  828MOL0     H11736  10.372   8.464  -0.247 -0.3310 -1.1670 -0.8171
  828MOL0     H11737  10.327   8.550  -0.400  0.8375 -0.0277 -0.4177
  828MOL0     H11738  10.340   8.344  -0.520  0.5772 -0.9811  0.6940
  828MOL0     H11739  10.391   8.262  -0.366  1.4886  0.8536  1.9994
  828MOL0     H11740  10.747   8.509  -0.506 -0.5017  0.5125 -0.0037
  828MOL0     H11741  10.930   8.397  -0.634 -0.1843  0.2177 -3.3100
  828MOL0     H11742  11.126   8.291  -1.045 -3.2399  0.4546  3.0891
  828MOL0     H11743  11.330   8.185  -1.135  1.5640 -1.1682 -0.6095
  828MOL0     H11744  11.501   8.071  -1.220 -0.1790  0.2406 -0.1235
  828MOL0     H11745  11.562   8.209  -1.131  0.1760 -0.6020  1.6993
  828MOL0     H11746  11.708   7.949  -1.101 -0.4435  0.0374 -0.9182
  828MOL0     H11747  11.720   8.032  -1.254  3.5069  1.7969 -0.5497
  828MOL0     H11748  11.811   8.237  -1.154 -0.4003 -0.2005 -0.3543
  828MOL0     H11749  11.803   8.163  -0.998  2.2267 -1.4838  0.2890
  828MOL0     H11750  11.936   8.023  -1.222  2.4210 -1.3457 -0.3236
  828MOL0     H11751  11.972   7.996  -1.052  2.7295  1.7684 -0.0684
  828MOL0     H11752  12.109   8.197  -1.032 -0.0063 -1.9282  0.6957
  828MOL0     H11753  12.032   8.262  -1.179  3.7170  0.4682 -1.4224
  828MOL0     H11754  12.204   8.016  -1.178 -1.1154 -0.6497 -1.6261
  828MOL0     H11755  12.156   8.121  -1.315  0.6897 -0.7232  0.6286
  828MOL0     H11756  12.339   8.181  -1.072  1.4215  0.0104 -0.4699
  828MOL0     H11757  12.292   8.306  -1.180  0.0874 -1.1281  1.2576
  828MOL0     H11758  12.452   8.068  -1.221  2.3770 -0.5542 -0.7745
  828MOL0     H11759  12.422   8.181  -1.361  2.0920 -1.2024 -0.1241
  828MOL0     H11760  11.402   8.008  -0.762 -1.9740  0.5232  1.4708
  828MOL0     H11761  11.184   8.084  -0.686  1.0675 -1.5337  0.1627
  828MOL0     H11762  10.667   8.057  -0.701 -1.5938 -0.4641 -0.3056
  828MOL0     H11763  10.484   8.172  -0.564 -0.0701  0.5807  1.1826
  828MOL0     H11764   9.003   8.238  -0.006  0.5368  1.0349  0.8446
  828MOL0     H11765   8.883   8.045  -0.023 -0.8622 -0.2794 -1.2356
  828MOL0     H11766   8.798   7.671   0.246  1.7570  2.9134 -2.9692
  828MOL0     H11767   8.729   7.452   0.239  2.3460  0.4845 -2.2788
  828MOL0     H11768   8.358   7.354  -0.008  2.3034  2.6654 -1.7928
  828MOL0     H11769   8.378   7.333   0.159 -0.7400  2.3044 -0.8241
  828MOL0     H11770   8.296   7.122   0.063 -1.0681  2.8385 -0.0512
  828MOL0     H11771   8.453   7.092   0.131 -2.9712 -0.0658  1.8259
  828MOL0     H11772   8.548   7.121  -0.117 -0.7988  0.4953 -0.8646
  828MOL0     H11773   8.374   7.110  -0.165 -0.4540  2.7930  1.1606
  828MOL0     H11774   8.530   6.902  -0.155 -0.1918 -0.3586 -0.7472
  828MOL0     H11775   8.533   6.927   0.023  3.1427 -1.8831 -2.5476
  828MOL0     H11776   8.173   6.717  -0.102  2.4989 -2.6155 -1.1598
  828MOL0     H11777   8.463   7.537  -0.077  0.1564  0.7705 -0.1839
  828MOL0     H11778   8.435   7.893   0.003  0.9600  0.0558  0.8699
  828MOL0     H11779   8.488   7.821  -0.149  0.0574  1.6180  1.0284
  828MOL0     H11780   8.351   7.744  -0.064  1.6764 -3.0350 -1.4423
  829MOL0     O11781   7.250   6.334  10.315 -0.7550  0.1075 -0.1496
  829MOL0     C11782   7.323   6.368  10.222 -0.2735  0.8666 -0.5440
  829MOL0     O11783   7.301   6.334  10.094 -0.6536 -1.1210  0.7168
  829MOL0     C11784   7.180   6.291  10.043 -0.3482 -0.2473 -0.0110
  829MOL0     C11785   7.055   6.317  10.104 -0.1225 -0.1480  0.5550
  829MOL0     C11786   6.949   6.234  10.069  0.9527  0.3625 -0.1419
  829MOL0     C11787   6.952   6.140   9.968 -0.9166  0.1852 -0.1960
  829MOL0     O11788   6.841   6.075   9.930  0.1555 -0.3501  0.4034
  829MOL0     C11789   6.833   6.038   9.792  0.1778  0.2223  0.6276
  829MOL0     C11790   6.680   6.019   9.771  0.0651  0.9133 -0.1668
  829MOL0     C11791   6.606   5.935   9.886  0.1969  0.0409 -0.1753
  829MOL0     C11792   6.450   5.958   9.879  0.3051  0.1692  0.2645
  829MOL0     C11793   6.380   5.865   9.778  0.6534 -0.3360 -0.5178
  829MOL0     C11794   6.230   5.839   9.790 -0.2049 -0.5390 -0.0182
  829MOL0     C11795   6.198   5.757   9.915  0.3428 -0.1643  0.4912
  829MOL0     C11796   6.047   5.712   9.925  0.0103 -0.2933  0.9872
  829MOL0     N11797   6.035   5.619  10.035 -0.5497 -0.5729 -0.4401
  829MOL0     C11798   5.960   5.649  10.144  0.3713  0.3696  0.5190
  829MOL0     C11799   5.984   5.549  10.230 -0.5568  0.6129 -0.0150
  829MOL0     C11800   5.920   5.521  10.364 -0.2236 -0.5841  0.1243
  829MOL0     C11801   5.812   5.412  10.342  0.5200  0.0117  0.0434
  829MOL0     C11802   5.760   5.355  10.477  0.3047 -0.2797  0.7178
  829MOL0     C11803   5.640   5.270  10.445 -0.1055 -0.1361  0.2546
  829MOL0     O11804   5.561   5.233  10.557  0.2773  0.4920 -0.4499
  829MOL0     C11805   5.464   5.139  10.547  0.9204  0.4436  0.1939
  829MOL0     C11806   5.457   5.041  10.452  0.5129  0.0994 -0.3058
  829MOL0     C11807   5.345   4.947  10.447 -0.6759 -0.2225 -0.5574
  829MOL0     C11808   5.250   4.959  10.543  1.2807  0.2565  0.8757
  829MOL0     C11809   5.113   4.887  10.539  0.0522 -0.2149  0.4392
  829MOL0     O11810   5.012   4.942  10.617 -0.4221 -0.3239  0.1558
  829MOL0     C11811   4.889   4.890  10.599 -0.3082  0.7018 -0.3131
  829MOL0     C11812   4.801   4.973  10.530 -0.3153 -0.0494 -1.4531
  829MOL0     C11813   4.668   4.943  10.513  0.3301 -0.1053  0.0832
  829MOL0     C11814   4.610   4.833  10.575 -0.3885  0.8590 -0.1557
  829MOL0     O11815   4.476   4.800  10.558  0.1539 -0.0631 -0.1036
  829MOL0     C11816   4.410   4.709  10.649  0.4145  0.4788 -0.2309
  829MOL0     C11817   4.257   4.717  10.647 -0.4209 -0.3364  0.4115
  829MOL0     C11818   4.207   4.847  10.700  0.0426 -0.5451  0.7622
  829MOL0     C11819   4.057   4.845  10.683  0.0503 -1.3102 -0.0443
  829MOL0     C11820   4.002   4.979  10.738 -0.3299  0.2091 -0.4743
  829MOL0     C11821   3.846   4.981  10.757 -0.4161 -1.3540  0.3232
  829MOL0     C11822   3.799   5.125  10.804 -0.2748 -0.0832 -0.5074
  829MOL0     C11823   3.648   5.151  10.789 -1.0763 -0.5299  1.0570
  829MOL0    Cl11824   3.543   5.048  10.897  0.2189 -0.3788  0.0105
  829MOL0     C11825   4.700   4.748  10.649 -1.0965 -0.2486 -0.3695
  829MOL0     C11826   4.838   4.776  10.661  0.7110 -0.1898  0.5910
  829MOL0     O11827   5.111   4.790  10.462 -0.2080  0.2896 -0.0444
  829MOL0     C11828   5.260   5.060  10.636 -0.0744 -0.6309 -0.8654
  829MOL0     C11829   5.362   5.144  10.648 -0.8956 -0.7691  0.4289
  829MOL0     N11830   6.069   5.455  10.168  1.4000 -0.7010 -0.6663
  829MOL0     N11831   6.093   5.502  10.044 -0.4321  0.8928 -1.1096
  829MOL0     C11832   7.077   6.122   9.908  0.5569  0.1546 -0.5963
  829MOL0     C11833   7.199   6.195   9.943  1.3037 -0.3486  0.0202
  829MOL0     C11834   7.465   6.415  10.255 -0.5003  0.0809 -0.6383
  829MOL0     C11835   7.567   6.391  10.158  0.4476 -0.6762 -1.0563
  829MOL0     C11836   7.695   6.436  10.179 -0.5989  0.3193 -0.4097
  829MOL0     C11837   7.748   6.480  10.301  0.3001 -0.0053 -0.7534
  829MOL0     O11838   7.882   6.506  10.311 -0.5910 -0.6376 -0.5415
  829MOL0     C11839   7.938   6.539  10.440 -0.8648  0.0851 -0.2747
  829MOL0     C11840   8.070   6.610  10.434 -0.5443 -0.2576 -0.4181
  829MOL0     C11841   8.183   6.534  10.369  0.1095 -0.4993  0.2611
  829MOL0     C11842   8.306   6.620  10.374 -0.5388  0.1572 -0.8296
  829MOL0     C11843   8.431   6.554  10.329 -0.0030 -0.1177 -0.0286
  829MOL0     C11844   8.541   6.511  10.293 -0.0266  0.1164  0.0907
  829MOL0     C11845   7.650   6.484  10.403 -0.0361  0.2095 -0.2614
  829MOL0     C11846   7.511   6.461  10.383 -0.6683 -0.1124  0.0377
  829MOL0     C11847   7.421   6.490  10.500  0.0061  0.1041  0.3275
  829MOL0     H11848   7.043   6.386  10.187  0.9654  0.6914  0.0361
  829MOL0     H11849   6.845   6.244  10.100  1.5989 -1.4379  3.1326
  829MOL0     H11850   6.874   6.111   9.722  0.6436 -0.0110  0.6527
  829MOL0     H11851   6.883   5.945   9.761 -0.3074 -0.3226  1.4470
  829MOL0     H11852   6.652   5.964   9.680 -1.8113 -0.1650  0.9820
  829MOL0     H11853   6.646   6.122   9.762  1.1984  1.4091  0.9956
  829MOL0     H11854   6.640   5.967   9.985  0.2412 -1.3455  0.2683
  829MOL0     H11855   6.640   5.831   9.892  0.9650  0.2699 -0.3446
  829MOL0     H11856   6.419   5.948   9.984  2.5787 -0.9784  0.8927
  829MOL0     H11857   6.425   6.059   9.845 -1.6778 -0.4543 -0.2280
  829MOL0     H11858   6.402   5.898   9.676  3.8899  1.4391  0.6083
  829MOL0     H11859   6.423   5.765   9.789 -1.4090 -1.1669  0.4645
  829MOL0     H11860   6.191   5.941   9.799 -0.0738 -0.6184  1.9875
  829MOL0     H11861   6.206   5.791   9.695 -1.0366 -1.2990  0.5515
  829MOL0     H11862   6.228   5.811  10.005 -1.7743  2.9137 -0.5105
  829MOL0     H11863   6.245   5.660   9.899 -0.4960 -0.2502 -1.8346
  829MOL0     H11864   5.973   5.792   9.928 -0.0065 -0.3336  1.8034
  829MOL0     H11865   6.025   5.659   9.832  1.3343  0.7867  0.0079
  829MOL0     H11866   5.891   5.731  10.156  2.9992  2.6121  1.5091
  829MOL0     H11867   5.996   5.478  10.430  0.0566 -0.4042 -0.0815
  829MOL0     H11868   5.885   5.608  10.421 -1.1172 -0.8108 -0.0719
  829MOL0     H11869   5.727   5.456  10.290 -0.7877 -0.6246  1.5982
  829MOL0     H11870   5.860   5.333  10.283  1.7843 -1.2285  2.6052
  829MOL0     H11871   5.732   5.437  10.543  0.1018 -0.5215  0.9334
  829MOL0     H11872   5.843   5.294  10.514  1.2989 -0.3943 -1.4792
  829MOL0     H11873   5.678   5.187  10.383 -2.7317  0.1600 -1.9437
  829MOL0     H11874   5.569   5.333  10.392 -1.1926  0.1394  1.9949
  829MOL0     H11875   5.527   5.031  10.370  0.6210  3.5483 -0.8128
  829MOL0     H11876   5.325   4.863  10.381  2.1068 -0.1377 -1.6439
  829MOL0     H11877   4.842   5.067  10.495  2.9549 -1.2364 -1.1956
  829MOL0     H11878   4.608   5.019  10.462  3.2197  1.2298 -1.5698
  829MOL0     H11879   4.434   4.607  10.618  1.1673  1.1302 -1.8965
  829MOL0     H11880   4.453   4.724  10.749  0.9956  0.6889 -0.5109
  829MOL0     H11881   4.236   4.702  10.541 -1.9884  1.0822  0.4774
  829MOL0     H11882   4.218   4.634  10.707  0.4874 -0.1331  1.3074
  829MOL0     H11883   4.234   4.865  10.804 -1.3697  0.6856  0.9590
  829MOL0     H11884   4.249   4.925  10.636 -2.4608  0.6876  0.4974
  829MOL0     H11885   4.017   4.762  10.743  0.0166 -0.2171  1.4877
  829MOL0     H11886   4.024   4.830  10.579 -0.3682 -1.1143  0.0578
  829MOL0     H11887   4.024   5.063  10.672 -1.3352  0.0156 -1.0857
  829MOL0     H11888   4.042   5.007  10.836 -2.4486  2.9029 -0.2234
  829MOL0     H11889   3.803   4.947  10.662  0.7553  1.3546 -1.2837
  829MOL0     H11890   3.818   4.912  10.837 -1.2451 -2.1641 -0.6296
  829MOL0     H11891   3.851   5.200  10.744  2.3071 -1.1942  0.2126
  829MOL0     H11892   3.832   5.131  10.908  4.9261 -0.1503 -1.8873
  829MOL0     H11893   3.635   5.258  10.805 -0.6991 -0.0165 -1.6957
  829MOL0     H11894   3.631   5.135  10.683  1.0070  1.8133  0.2534
  829MOL0     H11895   4.659   4.659  10.695 -2.1363 -0.0126 -0.8110
  829MOL0     H11896   4.905   4.713  10.719 -0.6599 -1.1717  1.1389
  829MOL0     H11897   5.180   5.076  10.708  0.3382  0.7025 -0.6817
  829MOL0     H11898   5.378   5.217  10.727 -0.2601 -0.9052  0.4325
  829MOL0     H11899   7.094   6.051   9.828  1.4889  0.9379 -1.1141
  829MOL0     H11900   7.299   6.186   9.903  1.3844 -1.5192  0.4661
  829MOL0     H11901   7.529   6.347  10.066 -1.2456 -1.8668  0.1465
  829MOL0     H11902   7.763   6.413  10.097 -0.1505  1.0297 -0.2487
  829MOL0     H11903   7.937   6.448  10.501 -3.1920  2.4051  3.5450
  829MOL0     H11904   7.867   6.602  10.494 -2.2631 -1.5059 -0.1499
  829MOL0     H11905   8.103   6.648  10.531 -0.8735  0.1338 -0.4590
  829MOL0     H11906   8.051   6.699  10.374 -3.9117  0.5282  1.5250
  829MOL0     H11907   8.152   6.521  10.265 -1.4669  3.6846  0.0395
  829MOL0     H11908   8.193   6.435  10.413 -0.1719 -0.7624 -0.2577
  829MOL0     H11909   8.297   6.713  10.317  0.7637  0.0609 -1.2087
  829MOL0     H11910   8.323   6.649  10.478  1.1945 -1.9223 -0.4769
  829MOL0     H11911   8.645   6.496  10.270 -0.5302 -0.8804 -1.7510
  829MOL0     H11912   7.682   6.528  10.497  0.8246  1.5265 -1.1434
  829MOL0     H11913   7.463   6.560  10.572 -0.6281  0.4570  0.3654
  829MOL0     H11914   7.328   6.530  10.459  1.4441  1.9621 -1.3603
  829MOL0     H11915   7.400   6.395  10.550  3.3670 -1.0476 -0.1537
  830MOL0     O11916   0.901   6.461   9.529 -0.1132  0.3751  0.2015
  830MOL0     C11917   0.835   6.477   9.426 -0.1085  0.2677 -0.1542
  830MOL0     O11918   0.869   6.442   9.307 -0.4877 -0.2722 -0.0927
  830MOL0     C11919   0.983   6.368   9.282  0.2187 -0.3521  0.3536
  830MOL0     C11920   0.973   6.262   9.193  0.3210  0.0682 -0.9821
  830MOL0     C11921   1.074   6.169   9.176 -0.4893  0.4999  0.1035
  830MOL0     C11922   1.193   6.185   9.252  0.2235 -0.4347  0.5189
  830MOL0     O11923   1.290   6.088   9.235 -0.7078 -0.2470 -0.4570
  830MOL0     C11924   1.399   6.097   9.332  1.0265  0.3236  0.8670
  830MOL0     C11925   1.492   5.976   9.307  0.1900  0.4218 -0.8930
  830MOL0     C11926   1.573   5.938   9.434  0.0841  0.6296 -0.4842
  830MOL0     C11927   1.669   5.817   9.410  0.5054 -0.5100 -0.7955
  830MOL0     C11928   1.737   5.772   9.540  0.2437  0.5087  0.2359
  830MOL0     C11929   1.845   5.866   9.597  0.2662  0.5089 -0.5262
  830MOL0     C11930   1.970   5.778   9.623  0.9114  0.2798 -0.9592
  830MOL0     C11931   2.093   5.874   9.649  1.5565  0.6114 -0.0692
  830MOL0     N11932   2.226   5.810   9.626  0.0798 -0.6364 -0.7145
  830MOL0     C11933   2.269   5.724   9.526 -0.2600 -0.1587 -0.6259
  830MOL0     C11934   2.389   5.678   9.566  0.0170 -0.2248  0.5085
  830MOL0     C11935   2.474   5.582   9.495 -0.1277 -0.2003  0.1567
  830MOL0     C11936   2.500   5.612   9.341  0.7103  0.0509 -1.2243
  830MOL0     C11937   2.585   5.514   9.266  0.2676 -0.3952 -0.0606
  830MOL0     C11938   2.724   5.495   9.320 -0.4787 -1.5787 -0.5334
  830MOL0     O11939   2.796   5.428   9.224  0.3065  0.4947 -0.4431
  830MOL0     C11940   2.931   5.427   9.255  0.3969 -0.9273  0.1993
  830MOL0     C11941   2.975   5.336   9.355 -0.8047  0.0824  0.3246
  830MOL0     C11942   3.116   5.323   9.386  0.7472 -0.8536 -0.1067
  830MOL0     C11943   3.214   5.402   9.323 -0.3806  0.5367 -1.1579
  830MOL0     C11944   3.359   5.377   9.353  0.2295  0.1394 -0.4389
  830MOL0     O11945   3.440   5.440   9.272 -0.6586 -0.0738 -0.1986
  830MOL0     C11946   3.574   5.421   9.294  1.8769  0.1050  0.7549
  830MOL0     C11947   3.657   5.499   9.373 -0.1797  0.7805  0.3531
  830MOL0     C11948   3.791   5.475   9.388  0.0150 -0.3221  0.4273
  830MOL0     C11949   3.849   5.367   9.317 -0.3023 -0.5935 -0.1376
  830MOL0     O11950   3.982   5.341   9.316  0.1109 -0.4626 -0.7605
  830MOL0     C11951   4.053   5.294   9.199 -0.0434  0.0186 -0.4550
  830MOL0     C11952   4.201   5.333   9.222  0.0345  0.6727 -0.2988
  830MOL0     C11953   4.283   5.259   9.112 -0.4507 -0.6450 -0.9552
  830MOL0     C11954   4.322   5.334   8.988  0.3969 -0.7709 -0.0447
  830MOL0     C11955   4.417   5.257   8.907  0.0785 -0.3552  0.1835
  830MOL0     C11956   4.427   5.330   8.765 -0.9431 -1.1292 -0.5915
  830MOL0     C11957   4.546   5.277   8.685 -0.6442 -0.1538  0.4256
  830MOL0     C11958   4.484   5.149   8.620 -0.6365  0.1942 -1.1133
  830MOL0    Cl11959   4.597   5.069   8.517  0.2025 -0.0363  0.1803
  830MOL0     C11960   3.761   5.271   9.258 -0.5973  0.2946  0.2734
  830MOL0     C11961   3.625   5.305   9.230 -0.3320  1.2705 -0.0455
  830MOL0     O11962   3.387   5.316   9.456  0.1876 -0.0338 -0.7331
  830MOL0     C11963   3.164   5.488   9.226  0.4146 -0.2258 -0.4717
  830MOL0     C11964   3.025   5.509   9.191 -0.3293 -0.0748 -0.2236
  830MOL0     N11965   2.428   5.748   9.672  0.5080  0.0974 -0.2216
  830MOL0     N11966   2.330   5.822   9.715 -0.7794  0.7834  0.4334
  830MOL0     C11967   1.208   6.302   9.337 -0.0772  0.2646  0.5175
  830MOL0     C11968   1.105   6.391   9.346  0.1193 -0.6330 -0.9493
  830MOL0     C11969   0.701   6.540   9.443 -0.2274 -0.3668  0.0046
  830MOL0     C11970   0.642   6.581   9.329 -0.0965  0.7323  0.4752
  830MOL0     C11971   0.506   6.613   9.323 -0.8633 -0.1019 -0.0947
  830MOL0     C11972   0.435   6.624   9.437 -0.6776 -0.1440 -1.5423
  830MOL0     O11973   0.309   6.657   9.459  0.0902 -0.2098 -0.3387
  830MOL0     C11974   0.224   6.639   9.344  0.2051 -0.4272 -0.1313
  830MOL0     C11975   0.214   6.778   9.265  0.2081 -0.5680  0.3184
  830MOL0     C11976   0.131   6.884   9.353 -0.5774 -0.4597  0.5902
  830MOL0     C11977   0.149   7.031   9.305  0.0339  0.2823  0.6952
  830MOL0     C11978   0.039   7.104   9.364  0.5200  0.0864  0.6728
  830MOL0     C11979  -0.064   7.143   9.402 -1.0928 -0.3972 -0.3840
  830MOL0     C11980   0.502   6.590   9.559 -0.3638 -0.5103 -0.5421
  830MOL0     C11981   0.637   6.553   9.570  0.7481 -0.4213  0.2216
  830MOL0     C11982   0.688   6.531   9.705 -0.6266 -0.2542 -0.8404
  830MOL0     H11983   0.880   6.244   9.141  0.5619  0.2843 -1.4977
  830MOL0     H11984   1.065   6.076   9.121 -2.2220 -0.8452  2.4906
  830MOL0     H11985   1.460   6.187   9.320  2.4106 -0.6690  0.1729
  830MOL0     H11986   1.360   6.080   9.433 -1.7739  1.1237 -0.0123
  830MOL0     H11987   1.553   5.996   9.219  1.0905 -1.5051 -0.7473
  830MOL0     H11988   1.432   5.888   9.283  2.4484 -0.9909 -1.6428
  830MOL0     H11989   1.507   5.912   9.517  3.1544 -1.5099  1.5085
  830MOL0     H11990   1.623   6.028   9.471  2.5403 -1.7815  2.5092
  830MOL0     H11991   1.602   5.742   9.367 -1.2431 -0.4945  1.6666
  830MOL0     H11992   1.744   5.838   9.333  0.1476  0.7969 -0.8150
  830MOL0     H11993   1.654   5.753   9.608  0.6430  0.4087  0.7025
  830MOL0     H11994   1.786   5.675   9.522  0.0176  0.2192  1.1448
  830MOL0     H11995   1.858   5.953   9.532 -0.6424  1.8892  1.0561
  830MOL0     H11996   1.816   5.908   9.694 -0.3693  2.9452 -1.7012
  830MOL0     H11997   1.993   5.724   9.531  1.5627  2.8085 -2.3866
  830MOL0     H11998   1.963   5.717   9.714 -0.6283  0.8211 -0.6790
  830MOL0     H11999   2.084   5.957   9.578  1.0450 -0.1870 -0.9507
  830MOL0     H12000   2.091   5.913   9.751 -0.8907  0.4904 -0.0141
  830MOL0     H12001   2.225   5.685   9.435 -1.4116 -2.0692  0.6705
  830MOL0     H12002   2.571   5.592   9.545  0.5853  2.8478 -1.5785
  830MOL0     H12003   2.424   5.487   9.517  0.3290 -0.1051  1.8120
  830MOL0     H12004   2.406   5.623   9.286  1.1199  0.3829 -1.8681
  830MOL0     H12005   2.537   5.713   9.323 -0.1485  1.7963  4.7159
  830MOL0     H12006   2.594   5.550   9.164  2.1115 -1.6701 -0.3897
  830MOL0     H12007   2.536   5.416   9.273  1.2450 -0.9135 -0.3583
  830MOL0     H12008   2.715   5.437   9.413 -1.4720  0.0148  0.4148
  830MOL0     H12009   2.776   5.588   9.344 -1.1764 -0.6826 -2.3067
  830MOL0     H12010   2.914   5.263   9.407  0.2486  0.3150  1.9767
  830MOL0     H12011   3.143   5.248   9.460  0.4359 -0.5413  0.3294
  830MOL0     H12012   3.636   5.597   9.413 -2.3492 -0.2279  1.9036
  830MOL0     H12013   3.863   5.545   9.430  2.7142 -2.0781 -0.9901
  830MOL0     H12014   4.044   5.185   9.192 -0.2258 -0.2541  2.5220
  830MOL0     H12015   4.027   5.340   9.104  0.4559 -1.0548 -1.1417
  830MOL0     H12016   4.213   5.441   9.217  2.9696  0.4045 -1.1295
  830MOL0     H12017   4.231   5.300   9.322 -0.5849  1.8594  0.2926
  830MOL0     H12018   4.379   5.242   9.161 -0.6587  2.3911  0.7251
  830MOL0     H12019   4.231   5.168   9.081 -0.7843 -0.6372 -0.4212
  830MOL0     H12020   4.357   5.430   9.025  1.5873 -1.1827 -0.0562
  830MOL0     H12021   4.230   5.352   8.930  0.4190  0.8715  0.3995
  830MOL0     H12022   4.385   5.155   8.883 -0.1382 -0.3996  0.6495
  830MOL0     H12023   4.516   5.263   8.953  0.5108  2.7864 -0.9300
  830MOL0     H12024   4.327   5.323   8.721 -1.1902 -0.1288 -0.2352
  830MOL0     H12025   4.441   5.437   8.781  1.5687 -1.7344  2.1918
  830MOL0     H12026   4.634   5.262   8.748 -1.8848  1.3181  2.6631
  830MOL0     H12027   4.568   5.350   8.607 -0.0433  1.7366  2.2766
  830MOL0     H12028   4.476   5.079   8.704  2.2862  2.1287  0.9459
  830MOL0     H12029   4.383   5.162   8.579 -1.9772  0.1536  1.8526
  830MOL0     H12030   3.802   5.179   9.216 -2.8044 -1.1197  1.0433
  830MOL0     H12031   3.572   5.242   9.159 -1.0899  0.7734  0.9388
  830MOL0     H12032   3.252   5.534   9.183  1.3923 -2.1131 -0.6288
  830MOL0     H12033   3.003   5.577   9.109 -3.9169  0.8287  1.2703
  830MOL0     H12034   1.297   6.321   9.398  0.3621 -0.6584  0.1861
  830MOL0     H12035   1.133   6.474   9.410  0.8510 -0.5044 -1.4271
  830MOL0     H12036   0.692   6.574   9.233 -2.7888  1.0581 -1.0530
  830MOL0     H12037   0.471   6.631   9.222  0.9861 -2.3482 -1.2476
  830MOL0     H12038   0.134   6.586   9.378  2.9984 -2.8516  4.5247
  830MOL0     H12039   0.269   6.571   9.271  1.5012 -0.2966  0.5105
  830MOL0     H12040   0.166   6.757   9.168  1.0509 -2.1490  0.2297
  830MOL0     H12041   0.314   6.820   9.255 -0.4625  1.5311  1.6047
  830MOL0     H12042   0.165   6.866   9.455  2.7665 -2.5088 -0.7292
  830MOL0     H12043   0.024   6.863   9.357 -1.0396  1.6148  0.2935
  830MOL0     H12044   0.248   7.072   9.329  0.0366 -0.3783  1.8918
  830MOL0     H12045   0.130   7.035   9.197 -1.2680 -1.2606  0.8288
  830MOL0     H12046  -0.159   7.176   9.438 -1.5258 -1.1337 -0.8376
  830MOL0     H12047   0.453   6.597   9.656  0.4287 -0.7848 -0.1112
  830MOL0     H12048   0.615   6.540   9.787 -0.2216 -2.4828 -0.1584
  830MOL0     H12049   0.724   6.428   9.720 -1.5876 -0.4436  0.3627
  830MOL0     H12050   0.767   6.605   9.716 -2.5560  1.6421  1.3193
  831MOL0     O12051   2.794   8.428   7.906  0.1400 -0.1078  0.3422
  831MOL0     C12052   2.726   8.514   7.957  0.7605 -0.7369 -0.3226
  831MOL0     O12053   2.767   8.626   8.018 -0.8215 -0.2318  0.2479
  831MOL0     C12054   2.904   8.641   7.999  0.4111  0.0300 -0.3251
  831MOL0     C12055   2.942   8.745   7.916  0.2272  0.2343 -0.3509
  831MOL0     C12056   3.076   8.778   7.911 -0.0558 -0.2066  1.0733
  831MOL0     C12057   3.181   8.706   7.977  0.1758  0.5232  0.0348
  831MOL0     O12058   3.309   8.737   7.945  0.1508 -0.6080  0.3996
  831MOL0     C12059   3.427   8.666   8.015  1.0330 -0.3734  0.0118
  831MOL0     C12060   3.548   8.733   7.951  0.5959  0.1617  1.1248
  831MOL0     C12061   3.674   8.718   8.037  0.3957  0.2179 -0.2866
  831MOL0     C12062   3.809   8.739   7.968  0.3618 -1.1420 -0.1786
  831MOL0     C12063   3.935   8.737   8.053 -0.1698  0.3473 -1.1377
  831MOL0     C12064   4.000   8.596   8.055  0.6303  0.1132 -0.3434
  831MOL0     C12065   4.109   8.586   8.156  0.2331 -0.5087 -0.7569
  831MOL0     C12066   4.213   8.695   8.160 -0.1102  0.9589 -0.5666
  831MOL0     N12067   4.310   8.656   8.262 -0.1519  0.1358 -0.3278
  831MOL0     C12068   4.443   8.625   8.231  1.2988  0.3884  0.2107
  831MOL0     C12069   4.504   8.612   8.347  0.6860 -0.0851 -0.1929
  831MOL0     C12070   4.633   8.552   8.359  0.2341 -0.1611 -0.5320
  831MOL0     C12071   4.649   8.480   8.496  0.3650 -0.0728  0.3506
  831MOL0     C12072   4.799   8.427   8.500 -0.2390  0.8479 -0.1136
  831MOL0     C12073   4.814   8.340   8.625 -0.3160  0.1531 -0.7295
  831MOL0     O12074   4.820   8.422   8.742 -0.3719  0.1746 -0.1060
  831MOL0     C12075   4.940   8.480   8.782 -0.3402  0.2481 -1.0473
  831MOL0     C12076   5.075   8.442   8.757  0.8780  0.2617  0.3327
  831MOL0     C12077   5.186   8.501   8.806 -0.2789  0.1409  0.4780
  831MOL0     C12078   5.170   8.590   8.911 -0.0281 -0.2278  0.6892
  831MOL0     C12079   5.282   8.646   8.984  0.0425 -0.4477 -0.4879
  831MOL0     O12080   5.409   8.590   8.953 -0.1243  0.0329  0.0551
  831MOL0     C12081   5.522   8.640   9.005 -0.6995 -0.1224 -0.3105
  831MOL0     C12082   5.623   8.693   8.921 -0.1107 -0.3461 -0.4935
  831MOL0     C12083   5.744   8.743   8.954 -0.8067  0.1861 -0.4860
  831MOL0     C12084   5.776   8.745   9.091 -0.5750 -0.8923 -0.4785
  831MOL0     O12085   5.903   8.793   9.121  0.3939  0.0733  0.9232
  831MOL0     C12086   5.913   8.838   9.256  0.5440  0.7299  0.1239
  831MOL0     C12087   6.050   8.900   9.276  0.3343  0.2581  0.4202
  831MOL0     C12088   6.170   8.813   9.239  0.3446  0.2675 -0.7284
  831MOL0     C12089   6.296   8.904   9.200 -0.0394  0.2979 -0.2729
  831MOL0     C12090   6.401   8.803   9.149  0.1300 -0.1204  0.5064
  831MOL0     C12091   6.529   8.876   9.121 -0.2460  0.3297 -1.1373
  831MOL0     C12092   6.607   8.887   9.254 -0.0680  0.5651  0.6615
  831MOL0     C12093   6.728   8.972   9.221  0.5607  0.1588 -0.2706
  831MOL0    Cl12094   6.676   9.129   9.168  0.1554 -0.0128 -0.2613
  831MOL0     C12095   5.672   8.703   9.184  0.1540  0.3998  0.3651
  831MOL0     C12096   5.547   8.658   9.144  0.2449  0.0462 -0.3763
  831MOL0     O12097   5.260   8.726   9.077  0.4768  0.3652 -0.1033
  831MOL0     C12098   5.038   8.630   8.948  0.4692  0.2934 -0.1418
  831MOL0     C12099   4.925   8.582   8.882  0.2815 -0.0162  0.4598
  831MOL0     N12100   4.423   8.655   8.454 -0.4628 -0.5303 -0.1712
  831MOL0     N12101   4.307   8.688   8.395 -0.4874  0.2044 -0.8283
  831MOL0     C12102   3.136   8.582   8.038 -0.1329 -0.6662 -0.0576
  831MOL0     C12103   3.004   8.549   8.053 -0.7426 -0.5690 -0.4559
  831MOL0     C12104   2.581   8.494   7.963 -1.2889 -0.8001  0.3073
  831MOL0     C12105   2.523   8.398   7.873 -0.0870 -1.2328 -0.2351
  831MOL0     C12106   2.386   8.377   7.858 -1.3897  0.3550 -0.4309
  831MOL0     C12107   2.299   8.447   7.940 -0.1524  0.2749 -0.2294
  831MOL0     O12108   2.168   8.416   7.914  0.4200 -0.1835  0.2097
  831MOL0     C12109   2.066   8.448   8.014 -0.7135  0.4078 -0.3646
  831MOL0     C12110   1.926   8.390   7.996  0.3856 -0.0305 -0.3065
  831MOL0     C12111   1.850   8.429   7.867 -0.5043  0.0474  0.0744
  831MOL0     C12112   1.731   8.323   7.837 -0.1558  0.1507  0.0185
  831MOL0     C12113   1.664   8.366   7.713  0.2024 -0.4205 -0.1307
  831MOL0     C12114   1.607   8.391   7.602  0.4389  0.6783 -0.1897
  831MOL0     C12115   2.354   8.521   8.052 -0.2326 -0.0553  0.6637
  831MOL0     C12116   2.492   8.551   8.065 -1.2286  1.0591  0.3622
  831MOL0     C12117   2.527   8.640   8.178  0.2471 -0.5621 -0.9593
  831MOL0     H12118   2.869   8.811   7.869 -0.6103  3.0725  4.2749
  831MOL0     H12119   3.111   8.857   7.846 -0.9696 -0.7938 -0.1816
  831MOL0     H12120   3.430   8.701   8.119 -2.7286  0.0693  0.1096
  831MOL0     H12121   3.426   8.557   8.009 -1.0344 -0.3614 -0.4809
  831MOL0     H12122   3.520   8.838   7.945 -0.0444 -0.0734 -0.9572
  831MOL0     H12123   3.568   8.682   7.856 -0.6317 -3.0910  2.4741
  831MOL0     H12124   3.670   8.615   8.076  0.2168  0.0849 -0.6498
  831MOL0     H12125   3.666   8.779   8.127 -1.1339  0.7747 -0.7719
  831MOL0     H12126   3.820   8.676   7.879  0.2591  0.5392 -1.4243
  831MOL0     H12127   3.803   8.844   7.938  2.8201 -0.7914  0.3992
  831MOL0     H12128   4.008   8.806   8.010 -0.6952  1.1665 -0.7478
  831MOL0     H12129   3.909   8.785   8.148 -0.7616 -0.0813 -1.0793
  831MOL0     H12130   3.922   8.520   8.072 -1.1597  2.1798  1.4523
  831MOL0     H12131   4.049   8.573   7.960 -0.6191 -2.0134 -0.5454
  831MOL0     H12132   4.160   8.494   8.126 -1.5240 -1.5591 -0.6683
  831MOL0     H12133   4.069   8.566   8.256 -0.3220 -0.5431 -0.9827
  831MOL0     H12134   4.255   8.705   8.060  0.7316 -0.6760 -0.4149
  831MOL0     H12135   4.175   8.794   8.186 -0.0860  1.1790 -1.3341
  831MOL0     H12136   4.491   8.605   8.135  2.7032  1.9433  0.5512
  831MOL0     H12137   4.641   8.485   8.272  2.7666  2.2554 -2.3151
  831MOL0     H12138   4.714   8.623   8.343 -0.2944  0.4036 -0.7356
  831MOL0     H12139   4.637   8.551   8.578  3.1463  1.6217 -0.5392
  831MOL0     H12140   4.576   8.401   8.513  1.2040 -0.9455 -0.0375
  831MOL0     H12141   4.864   8.513   8.516  1.6506 -0.3418 -1.1298
  831MOL0     H12142   4.821   8.375   8.407  1.1613 -1.6411  1.5071
  831MOL0     H12143   4.905   8.279   8.623  1.0827  2.1401 -0.4003
  831MOL0     H12144   4.736   8.265   8.640 -0.3167  0.3397  0.2554
  831MOL0     H12145   5.080   8.352   8.695 -2.8511 -0.2823  0.5984
  831MOL0     H12146   5.285   8.469   8.774 -1.0188 -1.7218 -0.1006
  831MOL0     H12147   5.600   8.685   8.815  0.8387  0.9980 -0.8305
  831MOL0     H12148   5.814   8.760   8.873 -0.2872 -0.1549 -0.1179
  831MOL0     H12149   5.831   8.909   9.270  0.5214  0.5549  0.9471
  831MOL0     H12150   5.915   8.757   9.329  1.2026  1.0933  0.5184
  831MOL0     H12151   6.048   8.996   9.225  0.2667 -1.2285 -2.5590
  831MOL0     H12152   6.056   8.916   9.384  1.4756 -0.3307  0.4539
  831MOL0     H12153   6.198   8.743   9.318 -2.5161 -1.1037 -0.7841
  831MOL0     H12154   6.148   8.751   9.151  2.0107 -0.6104 -0.5727
  831MOL0     H12155   6.323   8.967   9.285 -3.1636  0.1960  0.9505
  831MOL0     H12156   6.254   8.961   9.116 -0.1818 -1.5596 -1.5198
  831MOL0     H12157   6.381   8.764   9.049  3.3261  0.5631 -0.5370
  831MOL0     H12158   6.404   8.715   9.214 -1.9942 -0.7480 -0.1660
  831MOL0     H12159   6.596   8.828   9.050  0.2059 -1.4732  0.4041
  831MOL0     H12160   6.498   8.970   9.075  1.1571  0.5949 -1.5761
  831MOL0     H12161   6.640   8.786   9.278  0.3887  1.2325  3.0994
  831MOL0     H12162   6.544   8.923   9.337  0.7820  0.0232  1.5611
  831MOL0     H12163   6.777   8.973   9.319 -1.3397 -0.8686  0.7657
  831MOL0     H12164   6.800   8.913   9.164  0.7434 -2.7454  2.6350
  831MOL0     H12165   5.681   8.714   9.292 -1.5722  2.1236  0.3836
  831MOL0     H12166   5.463   8.635   9.208 -1.0360  2.3657 -1.0701
  831MOL0     H12167   5.017   8.691   9.036 -0.6788 -2.9507  2.0224
  831MOL0     H12168   4.820   8.602   8.905 -0.0157  0.8781 -1.5237
  831MOL0     H12169   3.208   8.510   8.075 -0.0663 -0.0120  1.1515
  831MOL0     H12170   2.975   8.455   8.099 -2.1589  1.1608  2.5501
  831MOL0     H12171   2.585   8.353   7.796 -1.6965  0.2896 -2.5711
  831MOL0     H12172   2.348   8.310   7.781 -0.1887  1.5783 -2.1792
  831MOL0     H12173   2.048   8.556   8.015 -2.6731  0.1100  0.4877
  831MOL0     H12174   2.104   8.408   8.108 -0.1328 -0.3299 -0.9007
  831MOL0     H12175   1.865   8.432   8.077 -0.3875 -1.0311 -0.3506
  831MOL0     H12176   1.933   8.281   8.006  2.3176 -0.1242 -2.0708
  831MOL0     H12177   1.920   8.417   7.784 -1.0705  0.1765 -0.4230
  831MOL0     H12178   1.822   8.535   7.871  1.9451  0.7135  1.1629
  831MOL0     H12179   1.771   8.222   7.830  1.4269  0.7892 -0.6225
  831MOL0     H12180   1.665   8.323   7.924  0.1748  1.6888  0.3073
  831MOL0     H12181   1.573   8.408   7.502 -1.1029 -0.2683  0.1292
  831MOL0     H12182   2.282   8.553   8.127  0.4375 -1.8221  2.1584
  831MOL0     H12183   2.585   8.595   8.259  0.2953  2.4114  0.8262
  831MOL0     H12184   2.578   8.734   8.154  1.2483  0.0238  2.7001
  831MOL0     H12185   2.436   8.676   8.227 -0.2536 -4.7785  1.7019
  832MOL0     O12186   4.204   5.543   1.687 -0.2913  0.1326  0.1839
  832MOL0     C12187   4.117   5.622   1.684  0.1622  0.0588  0.0482
  832MOL0     O12188   4.105   5.723   1.774  0.6610 -0.6583  0.2343
  832MOL0     C12189   4.220   5.778   1.810 -0.2152 -0.5525  0.3073
  832MOL0     C12190   4.333   5.809   1.727 -0.0380  0.1766  0.1719
  832MOL0     C12191   4.438   5.892   1.753 -0.3747  0.7545 -0.0003
  832MOL0     C12192   4.443   5.957   1.876  0.1126 -0.5143  0.4961
  832MOL0     O12193   4.549   6.043   1.912  0.4044 -0.2039 -0.5931
  832MOL0     C12194   4.631   6.096   1.807 -0.0025  0.6226 -0.1858
  832MOL0     C12195   4.745   6.173   1.866  1.1472 -0.0381 -0.1279
  832MOL0     C12196   4.832   6.080   1.955 -0.4835  0.1477 -1.2169
  832MOL0     C12197   4.955   6.160   2.019  0.0452 -0.7033  0.8455
  832MOL0     C12198   5.037   6.089   2.120  1.0649 -0.0106 -0.4921
  832MOL0     C12199   5.154   6.160   2.181  0.0016 -0.6707 -0.2336
  832MOL0     C12200   5.264   6.053   2.223 -0.0132 -0.7274 -1.2889
  832MOL0     C12201   5.379   6.109   2.304 -0.3279  0.1661 -0.4198
  832MOL0     N12202   5.505   6.180   2.243  0.9456  1.0809 -0.2306
  832MOL0     C12203   5.562   6.291   2.302 -0.5214 -0.8757  0.1232
  832MOL0     C12204   5.674   6.313   2.219  0.4754  0.2697  0.4338
  832MOL0     C12205   5.774   6.425   2.222 -0.5194  0.5871  0.5888
  832MOL0     C12206   5.882   6.392   2.319  0.0160 -0.0566 -0.0209
  832MOL0     C12207   5.964   6.278   2.252 -0.0418 -0.1101 -0.3372
  832MOL0     C12208   6.107   6.269   2.309  0.1543 -0.2171  0.5495
  832MOL0     O12209   6.182   6.380   2.258  0.3936 -0.2276  0.0637
  832MOL0     C12210   6.319   6.372   2.275  0.2262 -0.2080 -0.0199
  832MOL0     C12211   6.393   6.280   2.349  0.1634  0.2748  0.2755
  832MOL0     C12212   6.529   6.280   2.354  0.4304 -0.0172 -0.7159
  832MOL0     C12213   6.605   6.382   2.305 -0.9144  0.0048  0.1323
  832MOL0     C12214   6.753   6.383   2.300  0.4236 -0.1312 -0.6767
  832MOL0     O12215   6.813   6.494   2.242  0.9191  0.0575  0.7017
  832MOL0     C12216   6.950   6.515   2.237  0.2618 -0.0690  0.0839
  832MOL0     C12217   7.001   6.644   2.265 -0.0004  0.2188 -0.2057
  832MOL0     C12218   7.138   6.669   2.232 -0.0818  1.0322  0.0335
  832MOL0     C12219   7.218   6.568   2.177 -0.0982 -0.0943 -0.1647
  832MOL0     O12220   7.345   6.599   2.134  0.5723 -0.0081 -0.2833
  832MOL0     C12221   7.347   6.650   2.003 -0.3868 -0.0200 -0.3737
  832MOL0     C12222   7.497   6.685   1.976  0.5139 -0.4092  0.5087
  832MOL0     C12223   7.590   6.725   2.085  0.7483 -0.1457  0.1310
  832MOL0     C12224   7.724   6.758   2.032 -0.1241  0.6222 -0.2615
  832MOL0     C12225   7.822   6.797   2.147  0.0421  0.0097  0.8918
  832MOL0     C12226   7.966   6.809   2.093  0.4656  0.0886 -0.0738
  832MOL0     C12227   8.029   6.679   2.055 -0.6158 -0.0020  0.3910
  832MOL0     C12228   8.178   6.712   2.019 -0.0488  0.3768 -0.4248
  832MOL0    Cl12229   8.273   6.777   2.157 -0.1710  0.2030 -0.2878
  832MOL0     C12230   7.169   6.443   2.155  0.2087  0.7340  0.3021
  832MOL0     C12231   7.034   6.420   2.185 -0.3831 -0.3188  0.0990
  832MOL0     O12232   6.819   6.298   2.352  0.5435  0.5509  0.5776
  832MOL0     C12233   6.541   6.478   2.229  1.3659  0.4291  1.4365
  832MOL0     C12234   6.395   6.473   2.211 -0.1077  0.2705  1.1175
  832MOL0     N12235   5.681   6.216   2.120  0.2701  0.4724  0.8104
  832MOL0     N12236   5.571   6.142   2.133  0.0196  0.1204  0.4852
  832MOL0     C12237   4.341   5.930   1.962 -0.3655  0.4622  0.1408
  832MOL0     C12238   4.231   5.845   1.933 -0.5632 -0.2337 -0.6175
  832MOL0     C12239   4.004   5.589   1.596  0.6350  0.1704  0.2083
  832MOL0     C12240   4.018   5.482   1.501  0.2306 -0.5676 -0.5566
  832MOL0     C12241   3.916   5.446   1.413 -0.0469  0.5903 -1.1177
  832MOL0     C12242   3.793   5.501   1.425  0.0343 -0.1185  0.1092
  832MOL0     O12243   3.699   5.485   1.333 -0.2892  0.3790  0.3491
  832MOL0     C12244   3.692   5.357   1.274 -0.3917  0.0614  0.6269
  832MOL0     C12245   3.551   5.329   1.214 -0.3001 -0.1222  0.7308
  832MOL0     C12246   3.439   5.364   1.317 -0.3775 -0.7352 -0.0282
  832MOL0     C12247   3.301   5.310   1.268  0.2706  0.2793  0.4824
  832MOL0     C12248   3.195   5.330   1.376  0.0646  0.1358  0.1538
  832MOL0     C12249   3.103   5.350   1.458 -0.2111  0.1283 -0.7962
  832MOL0     C12250   3.779   5.604   1.513  0.3062 -0.1559 -0.7414
  832MOL0     C12251   3.875   5.646   1.610  0.1005 -0.6247  0.1565
  832MOL0     C12252   3.841   5.770   1.685  0.5091 -0.9114  1.0356
  832MOL0     H12253   4.345   5.768   1.627  3.5459  0.1247  0.4994
  832MOL0     H12254   4.519   5.905   1.682 -0.6395  0.8160 -0.2948
  832MOL0     H12255   4.682   6.015   1.754  1.6900  1.6779 -0.2589
  832MOL0     H12256   4.572   6.162   1.743  0.5843 -0.0100 -1.4101
  832MOL0     H12257   4.710   6.260   1.922  1.8182 -0.0600  0.3390
  832MOL0     H12258   4.807   6.216   1.787  3.7090 -0.3466  1.5932
  832MOL0     H12259   4.863   5.997   1.891 -1.0437 -0.8106 -0.2874
  832MOL0     H12260   4.772   6.032   2.034  0.9696  2.8327  1.7533
  832MOL0     H12261   5.017   6.190   1.934 -1.7934 -3.1375 -1.5371
  832MOL0     H12262   4.920   6.251   2.068 -1.3940 -1.6944  1.7250
  832MOL0     H12263   4.971   6.069   2.205 -0.1082  0.1163 -1.3466
  832MOL0     H12264   5.072   5.996   2.073  0.0687 -0.9934  0.6300
  832MOL0     H12265   5.207   6.232   2.119  4.0911 -1.5101  1.9144
  832MOL0     H12266   5.123   6.215   2.270  2.8884  0.1166  0.3815
  832MOL0     H12267   5.317   6.006   2.140 -0.8042 -3.0234 -0.5781
  832MOL0     H12268   5.219   5.984   2.295  0.2456  3.3993  3.3313
  832MOL0     H12269   5.337   6.171   2.384  1.5707 -1.1496  1.7246
  832MOL0     H12270   5.422   6.016   2.341  1.3811  1.0598 -0.0361
  832MOL0     H12271   5.527   6.351   2.385  0.0719 -0.0612 -0.2029
  832MOL0     H12272   5.812   6.464   2.127  1.8159  3.0881  2.3952
  832MOL0     H12273   5.727   6.509   2.274  1.7400  0.2105  3.4628
  832MOL0     H12274   5.934   6.485   2.345  0.1723 -0.6060  1.7837
  832MOL0     H12275   5.840   6.356   2.413 -1.4360  0.6840 -0.3598
  832MOL0     H12276   5.975   6.305   2.147 -2.1516  1.3702 -0.2635
  832MOL0     H12277   5.909   6.184   2.263  0.2968 -0.1421  1.5006
  832MOL0     H12278   6.150   6.177   2.271 -0.5441 -1.4514  2.5678
  832MOL0     H12279   6.116   6.255   2.417  5.0000 -3.8020 -0.0337
  832MOL0     H12280   6.338   6.199   2.395  0.3744 -0.3413 -0.5398
  832MOL0     H12281   6.574   6.191   2.397 -1.9627 -0.2173  1.6916
  832MOL0     H12282   6.930   6.720   2.296  0.8132  1.6191 -1.5879
  832MOL0     H12283   7.176   6.771   2.236 -1.0485  1.3645  1.2472
  832MOL0     H12284   7.316   6.575   1.928  3.3871 -0.0307 -2.1905
  832MOL0     H12285   7.274   6.729   2.022  1.6773  1.5371  1.5833
  832MOL0     H12286   7.547   6.605   1.921  1.7386  0.3850  0.4163
  832MOL0     H12287   7.493   6.759   1.895 -0.1623  0.9888  1.7735
  832MOL0     H12288   7.545   6.816   2.125  1.4259  0.8186 -1.2117
  832MOL0     H12289   7.598   6.652   2.166 -1.7178 -2.3285 -1.4408
  832MOL0     H12290   7.713   6.845   1.966 -0.3553  1.3830  0.7519
  832MOL0     H12291   7.757   6.669   1.977 -0.2681  0.2054  0.3147
  832MOL0     H12292   7.802   6.724   2.226 -2.2219  1.2497  1.5407
  832MOL0     H12293   7.793   6.893   2.190 -1.3004  0.7000 -1.4106
  832MOL0     H12294   7.971   6.886   2.015 -0.8330  0.0127 -0.2500
  832MOL0     H12295   8.027   6.852   2.173  1.5637  1.8241 -1.7375
  832MOL0     H12296   7.980   6.635   1.967 -1.7132  0.4737  0.7528
  832MOL0     H12297   8.012   6.602   2.131 -0.6565 -0.1618  0.2219
  832MOL0     H12298   8.224   6.619   1.983 -1.4106 -0.7946  0.7539
  832MOL0     H12299   8.184   6.787   1.940 -0.4337 -0.4505 -1.2520
  832MOL0     H12300   7.231   6.362   2.117 -2.4480 -1.5466  0.5571
  832MOL0     H12301   6.985   6.323   2.184 -1.1418 -0.0546  2.8138
  832MOL0     H12302   6.602   6.554   2.180 -0.4851  0.1410 -1.5984
  832MOL0     H12303   6.345   6.548   2.151  0.9091  0.8146  0.9410
  832MOL0     H12304   4.347   5.971   2.063  0.1915 -2.0590  1.2206
  832MOL0     H12305   4.153   5.822   2.004 -0.1706 -1.4535 -0.5564
  832MOL0     H12306   4.118   5.443   1.489  0.2060 -0.7030 -0.3041
  832MOL0     H12307   3.945   5.374   1.338 -2.1745 -0.5891 -0.9057
  832MOL0     H12308   3.710   5.266   1.332  0.7064 -0.1862 -0.0712
  832MOL0     H12309   3.765   5.352   1.193 -1.7011 -1.5937 -0.5555
  832MOL0     H12310   3.540   5.222   1.197  0.3763 -0.7648  3.6886
  832MOL0     H12311   3.538   5.391   1.125  2.1463 -0.7755 -0.1477
  832MOL0     H12312   3.441   5.471   1.339  4.0062 -0.1657 -2.1045
  832MOL0     H12313   3.471   5.319   1.411  1.3896 -0.7072 -0.5780
  832MOL0     H12314   3.275   5.370   1.180  0.6296  2.6417  1.8872
  832MOL0     H12315   3.304   5.202   1.249  0.0110 -0.0805  2.2700
  832MOL0     H12316   3.019   5.375   1.520 -0.1464 -1.2810 -0.1099
  832MOL0     H12317   3.677   5.640   1.517 -0.0111 -1.0959  0.5589
  832MOL0     H12318   3.906   5.853   1.659  1.3800 -2.0947 -0.7581
  832MOL0     H12319   3.739   5.785   1.649  1.2034 -2.6424 -2.0316
  832MOL0     H12320   3.845   5.752   1.793  1.2259 -1.2463  0.9605
  833MOL0     O12321   6.137   2.143   0.374  0.1070 -0.0766 -0.8446
  833MOL0     C12322   6.048   2.222   0.411  0.2236  0.7646  0.7781
  833MOL0     O12323   6.060   2.319   0.503 -0.5438  0.2335 -0.1387
  833MOL0     C12324   6.182   2.360   0.530 -0.7174 -0.3571 -0.1163
  833MOL0     C12325   6.226   2.391   0.664 -0.7462 -0.1124 -0.8798
  833MOL0     C12326   6.359   2.430   0.692  0.2889 -0.1493  0.2065
  833MOL0     C12327   6.449   2.458   0.585  0.5931  0.5908  0.3625
  833MOL0     O12328   6.579   2.481   0.614  0.0087 -0.2616  0.4150
  833MOL0     C12329   6.680   2.415   0.534  0.5865  0.1555  0.1915
  833MOL0     C12330   6.820   2.422   0.602  0.0361 -0.0695  0.0283
  833MOL0     C12331   6.933   2.405   0.508  0.5335 -0.7101 -0.8220
  833MOL0     C12332   7.064   2.404   0.577  0.1465  0.1148 -0.7183
  833MOL0     C12333   7.174   2.337   0.494  0.3038 -0.1536  0.3448
  833MOL0     C12334   7.308   2.346   0.559 -0.3999  0.1069  0.2000
  833MOL0     C12335   7.431   2.328   0.467 -0.1126 -0.1514  0.3242
  833MOL0     C12336   7.571   2.354   0.517  0.2625 -0.3587  0.2959
  833MOL0     N12337   7.664   2.304   0.418  0.0272  0.5950 -0.0648
  833MOL0     C12338   7.796   2.259   0.450 -0.4179 -0.5299  0.4213
  833MOL0     C12339   7.849   2.230   0.326  0.5923  0.1265  0.9120
  833MOL0     C12340   7.997   2.211   0.303  0.1490  0.0745 -0.5454
  833MOL0     C12341   8.020   2.160   0.160  0.2776  0.2192 -0.1164
  833MOL0     C12342   8.159   2.109   0.123 -0.3234 -0.6179 -0.3643
  833MOL0     C12343   8.162   2.071  -0.021 -0.3518 -1.3660  0.0623
  833MOL0     O12344   8.213   1.943  -0.045  0.2058  0.4573 -0.3437
  833MOL0     C12345   8.334   1.922  -0.110 -0.3864  0.3515  0.3740
  833MOL0     C12346   8.432   2.023  -0.126 -0.2317  0.0643  0.1276
  833MOL0     C12347   8.553   1.995  -0.185  0.5391  0.9221  0.2015
  833MOL0     C12348   8.577   1.872  -0.244 -0.4539 -0.0143 -0.5455
  833MOL0     C12349   8.710   1.839  -0.304  0.1686 -0.4496  0.1253
  833MOL0     O12350   8.786   1.929  -0.370 -0.2975 -0.0524 -0.2770
  833MOL0     C12351   8.895   1.885  -0.440  0.3677 -0.2501 -0.8353
  833MOL0     C12352   9.022   1.913  -0.379 -0.2491  0.5093 -0.5109
  833MOL0     C12353   9.144   1.880  -0.445  0.7337 -0.1883 -0.6368
  833MOL0     C12354   9.131   1.817  -0.570 -0.6394  0.0795  1.6409
  833MOL0     O12355   9.237   1.780  -0.656 -0.2325  0.4168  0.0757
  833MOL0     C12356   9.379   1.797  -0.622  0.0134  0.2378 -0.3370
  833MOL0     C12357   9.453   1.742  -0.746  0.5397 -0.0381  0.5968
  833MOL0     C12358   9.604   1.729  -0.726  0.0487 -0.0499 -0.5886
  833MOL0     C12359   9.664   1.656  -0.844  0.8098 -0.1910  0.3295
  833MOL0     C12360   9.815   1.657  -0.852  0.2337  0.4110  0.7574
  833MOL0     C12361   9.880   1.566  -0.741  0.0621  0.0706  0.7488
  833MOL0     C12362  10.032   1.588  -0.744 -0.5544  0.3247 -0.6305
  833MOL0     C12363  10.096   1.521  -0.868  0.0961  0.4597  0.8726
  833MOL0    Cl12364  10.061   1.346  -0.875 -0.0364  0.2477  0.2401
  833MOL0     C12365   9.008   1.784  -0.624  0.3927 -0.4414 -0.0177
  833MOL0     C12366   8.895   1.819  -0.560 -0.1078 -0.2319  0.0319
  833MOL0     O12367   8.745   1.728  -0.272 -1.0520  0.6846 -0.2880
  833MOL0     C12368   8.478   1.767  -0.230 -0.0708 -1.1983  1.3240
  833MOL0     C12369   8.363   1.792  -0.166 -0.2656 -0.2101 -0.4757
  833MOL0     N12370   7.753   2.270   0.231  0.1659 -0.5671 -0.0640
  833MOL0     N12371   7.643   2.298   0.289  0.1175 -0.1654  0.1403
  833MOL0     C12372   6.407   2.438   0.450 -1.1287 -1.0632  0.7839
  833MOL0     C12373   6.277   2.385   0.425  0.1315 -0.5740 -0.2726
  833MOL0     C12374   5.918   2.196   0.348 -0.3293 -0.3787 -0.8446
  833MOL0     C12375   5.907   2.154   0.213 -0.7002 -0.1328 -0.5930
  833MOL0     C12376   5.786   2.122   0.160  0.4938  0.5472  0.2820
  833MOL0     C12377   5.666   2.135   0.228 -0.7767 -0.3509 -0.4320
  833MOL0     O12378   5.551   2.117   0.162  0.4615  0.6471  0.7842
  833MOL0     C12379   5.434   2.056   0.236 -0.4724 -0.6276 -0.0507
  833MOL0     C12380   5.460   1.905   0.261 -0.0414 -0.2824 -0.2113
  833MOL0     C12381   5.483   1.839   0.122 -0.8952  0.9326 -0.4344
  833MOL0     C12382   5.470   1.691   0.146 -0.5676  0.0384  0.2683
  833MOL0     C12383   5.533   1.616   0.032 -0.0380 -0.1729  0.3094
  833MOL0     C12384   5.561   1.551  -0.065 -0.2219 -0.1782 -0.0445
  833MOL0     C12385   5.672   2.181   0.367  0.2727 -0.3102  0.2957
  833MOL0     C12386   5.799   2.211   0.424  1.3698  0.7597  1.2214
  833MOL0     C12387   5.796   2.257   0.568 -0.6651 -0.3867 -0.5782
  833MOL0     H12388   6.155   2.376   0.745  1.7497  0.5632  1.5798
  833MOL0     H12389   6.401   2.431   0.792  2.4727  0.6200 -0.6607
  833MOL0     H12390   6.657   2.309   0.522 -0.6635  0.3671  0.5474
  833MOL0     H12391   6.694   2.458   0.434 -0.8566  2.3317  0.8557
  833MOL0     H12392   6.818   2.355   0.689  0.9798  0.6031  0.5714
  833MOL0     H12393   6.828   2.521   0.648  0.4594 -0.0705 -0.0406
  833MOL0     H12394   6.933   2.489   0.438  0.6942  0.5600  0.6553
  833MOL0     H12395   6.914   2.312   0.453  0.5172 -1.3489  0.2316
  833MOL0     H12396   7.095   2.507   0.593  0.8850 -0.5088  2.6088
  833MOL0     H12397   7.049   2.349   0.670  0.2625 -2.7034 -2.2222
  833MOL0     H12398   7.136   2.237   0.471  0.0218  0.2558 -1.0760
  833MOL0     H12399   7.182   2.395   0.402 -0.4803 -1.6624 -0.7222
  833MOL0     H12400   7.317   2.447   0.600 -1.9204  1.1987 -1.9521
  833MOL0     H12401   7.301   2.282   0.648 -1.1438  1.7051  1.3503
  833MOL0     H12402   7.425   2.387   0.375  1.8338 -2.2320 -1.2676
  833MOL0     H12403   7.419   2.224   0.433 -0.3738 -0.3625  1.0443
  833MOL0     H12404   7.564   2.462   0.532  0.9362 -0.3849  0.8683
  833MOL0     H12405   7.592   2.315   0.617 -5.0596 -1.2759  1.3512
  833MOL0     H12406   7.847   2.248   0.545  3.3591 -2.5601 -1.6429
  833MOL0     H12407   8.062   2.298   0.310  2.0311 -1.0360 -2.8838
  833MOL0     H12408   8.036   2.135   0.371 -4.2636 -0.1502  2.1799
  833MOL0     H12409   7.953   2.075   0.147  1.4774 -0.7968  0.1884
  833MOL0     H12410   7.978   2.241   0.099  0.7961 -0.2453 -1.1183
  833MOL0     H12411   8.192   2.026   0.186 -1.1373 -1.2260 -0.7200
  833MOL0     H12412   8.225   2.195   0.134 -1.6598  0.6375 -1.6423
  833MOL0     H12413   8.209   2.153  -0.075  1.8796 -2.4441  0.2777
  833MOL0     H12414   8.058   2.071  -0.054 -0.0078 -0.7741 -1.0628
  833MOL0     H12415   8.410   2.124  -0.091  0.4786  0.4745 -0.5831
  833MOL0     H12416   8.639   2.062  -0.190 -0.0362  1.6157 -0.8135
  833MOL0     H12417   9.026   1.966  -0.285 -1.8967 -1.7036  0.9016
  833MOL0     H12418   9.242   1.909  -0.407 -0.2031  1.9437  0.3084
  833MOL0     H12419   9.397   1.904  -0.611  0.1289  0.0920  1.0028
  833MOL0     H12420   9.406   1.739  -0.534  1.6266  2.1849  0.5221
  833MOL0     H12421   9.411   1.641  -0.754 -1.2690  0.6149  1.1623
  833MOL0     H12422   9.427   1.791  -0.840 -0.2091 -1.3875  0.0725
  833MOL0     H12423   9.644   1.831  -0.723  0.0245 -0.0099 -1.2995
  833MOL0     H12424   9.620   1.669  -0.636 -0.7878  0.7557  0.1164
  833MOL0     H12425   9.614   1.693  -0.934 -1.5365 -1.1220  1.1509
  833MOL0     H12426   9.625   1.555  -0.826 -0.0988  0.4850  2.5556
  833MOL0     H12427   9.859   1.757  -0.848  1.7938 -0.1747 -0.4959
  833MOL0     H12428   9.845   1.618  -0.950  1.4572 -0.3589  1.4038
  833MOL0     H12429   9.845   1.604  -0.645  1.4533 -2.1098  2.1921
  833MOL0     H12430   9.849   1.462  -0.754  1.4289 -0.1984 -0.5785
  833MOL0     H12431  10.075   1.549  -0.652 -1.1094  0.3616 -0.3524
  833MOL0     H12432  10.055   1.695  -0.753  1.4050 -0.1780 -2.4379
  833MOL0     H12433  10.041   1.558  -0.955 -0.1672 -0.8725  0.4491
  833MOL0     H12434  10.201   1.551  -0.873  0.5915 -1.3040 -2.0146
  833MOL0     H12435   8.991   1.731  -0.717 -1.7832 -0.0610  0.1063
  833MOL0     H12436   8.800   1.791  -0.606  0.4508 -1.0028 -0.6957
  833MOL0     H12437   8.506   1.668  -0.265  0.1642  0.0525 -2.4807
  833MOL0     H12438   8.290   1.711  -0.163 -0.2350 -0.3295 -2.1127
  833MOL0     H12439   6.470   2.455   0.363 -0.2641  0.1796  1.6154
  833MOL0     H12440   6.248   2.375   0.320  0.2406  1.8026 -0.5685
  833MOL0     H12441   5.990   2.152   0.143 -0.2473  1.4371 -0.1370
  833MOL0     H12442   5.777   2.096   0.055  1.3077  3.1032 -0.4974
  833MOL0     H12443   5.342   2.070   0.179 -0.8934 -1.4893  0.3944
  833MOL0     H12444   5.412   2.108   0.330  0.0483  1.6812 -1.1377
  833MOL0     H12445   5.372   1.860   0.309 -1.2449  1.4014 -0.7526
  833MOL0     H12446   5.542   1.889   0.331 -1.1629 -0.5501  1.0910
  833MOL0     H12447   5.583   1.853   0.080 -1.8146 -1.0306 -3.6106
  833MOL0     H12448   5.411   1.869   0.046 -1.2391 -2.0211 -1.3977
  833MOL0     H12449   5.522   1.654   0.235 -0.2609 -1.0560 -0.3535
  833MOL0     H12450   5.364   1.664   0.145 -0.6526  0.3537 -0.9285
  833MOL0     H12451   5.587   1.501  -0.156  0.2931  0.0252 -0.0103
  833MOL0     H12452   5.583   2.187   0.428 -0.1996 -0.6363 -0.3404
  833MOL0     H12453   5.703   2.217   0.610 -1.6501  3.5076  1.4419
  833MOL0     H12454   5.879   2.224   0.631 -1.4343 -1.3699 -0.0558
  833MOL0     H12455   5.783   2.361   0.599 -0.3193 -0.5867  0.2630
  834MOL0     O12456   4.341   2.349   9.876 -0.0399 -1.1393  0.1423
  834MOL0     C12457   4.339   2.475   9.897 -0.2538  0.4807  0.3887
  834MOL0     O12458   4.453   2.546   9.940 -0.3141 -0.0669  0.0563
  834MOL0     C12459   4.562   2.474   9.964  0.8221  0.0121 -0.0849
  834MOL0     C12460   4.555   2.362  10.050  0.0079  0.2747 -0.0335
  834MOL0     C12461   4.679   2.295  10.081 -0.8093 -0.3169 -0.0758
  834MOL0     C12462   4.796   2.333  10.026 -0.1119 -0.0464  0.6171
  834MOL0     O12463   4.914   2.268  10.045  0.2985 -0.4324 -0.9529
  834MOL0     C12464   4.940   2.163  10.140  0.0648 -0.6963  0.4571
  834MOL0     C12465   4.994   2.202  10.273 -0.6600 -0.6187  0.3944
  834MOL0     C12466   5.086   2.098  10.339 -0.8784  0.6149 -0.2968
  834MOL0     C12467   5.228   2.100  10.284  0.4749  0.3028 -0.5090
  834MOL0     C12468   5.310   1.994  10.356 -0.0475 -0.7441 -0.6424
  834MOL0     C12469   5.453   1.977  10.302 -0.2906  0.3799  1.4458
  834MOL0     C12470   5.520   2.112  10.291  0.5755  0.3589 -0.2038
  834MOL0     C12471   5.673   2.104  10.276  0.2283  0.5438 -0.1657
  834MOL0     N12472   5.739   2.054  10.399 -0.6714 -0.6820  0.4493
  834MOL0     C12473   5.751   2.115  10.523  0.6454 -0.3149 -0.1202
  834MOL0     C12474   5.844   2.035  10.578 -0.9107 -0.1416  0.8217
  834MOL0     C12475   5.914   2.058  10.710 -0.0346 -0.3903  0.8467
  834MOL0     C12476   6.059   2.000  10.700 -0.6816  0.5098 -0.0785
  834MOL0     C12477   6.141   2.031  10.820  0.6915 -1.3166 -0.6374
  834MOL0     C12478   6.295   2.011  10.805 -0.1394  0.6075  0.9786
  834MOL0     O12479   6.365   2.106  10.726 -0.3859 -0.2017  0.1901
  834MOL0     C12480   6.499   2.117  10.754 -0.1126 -0.2758  0.3630
  834MOL0     C12481   6.553   2.233  10.697 -0.4042 -0.6697 -0.2028
  834MOL0     C12482   6.698   2.252  10.709  0.3531  0.8824  0.5533
  834MOL0     C12483   6.776   2.167  10.793  0.7333  0.9091  0.5149
  834MOL0     C12484   6.923   2.195  10.816 -0.7029 -0.4135 -0.3550
  834MOL0     O12485   6.989   2.089  10.863 -0.4766 -0.1951 -0.2028
  834MOL0     C12486   7.124   2.112  10.882 -0.3368 -0.3644 -0.1641
  834MOL0     C12487   7.204   2.093  10.773  0.0890 -0.4067  0.0425
  834MOL0     C12488   7.341   2.118  10.790 -0.4275 -0.0416  0.4781
  834MOL0     C12489   7.402   2.144  10.915  0.7308 -0.4043 -0.4408
  834MOL0     O12490   7.538   2.149  10.921 -0.5421  0.9141  0.2972
  834MOL0     C12491   7.602   2.147  11.049  0.3290 -0.8787  0.3382
  834MOL0     C12492   7.751   2.128  11.018 -0.1941 -0.2897  0.0326
  834MOL0     C12493   7.792   1.991  10.965 -0.0169 -0.6953 -0.2393
  834MOL0     C12494   7.939   1.974  10.934  0.0423  0.4005 -0.0593
  834MOL0     C12495   7.969   1.853  10.836 -0.5543 -0.3139 -0.3372
  834MOL0     C12496   8.115   1.817  10.825 -0.2075 -0.5683 -0.4654
  834MOL0     C12497   8.139   1.710  10.716  0.4317  0.6370  0.1159
  834MOL0     C12498   8.288   1.674  10.732 -0.1688  0.4060 -0.6413
  834MOL0    Cl12499   8.402   1.809  10.718 -0.1256 -0.0952 -0.0867
  834MOL0     C12500   7.319   2.164  11.026  0.1900  0.3631  0.4531
  834MOL0     C12501   7.183   2.143  11.007 -1.0691  0.0103  0.2581
  834MOL0     O12502   6.967   2.310  10.795 -0.0226 -0.2413  0.5721
  834MOL0     C12503   6.715   2.050  10.847 -0.5237  0.1351  0.0176
  834MOL0     C12504   6.581   2.024  10.832  0.4701 -0.6105 -0.1830
  834MOL0     N12505   5.866   1.912  10.504  0.2960  0.0284 -0.0223
  834MOL0     N12506   5.823   1.943  10.391  0.9625 -0.2488  0.8800
  834MOL0     C12507   4.792   2.435   9.932 -0.3463  0.5122 -0.0829
  834MOL0     C12508   4.678   2.507   9.900 -0.0447 -0.2767  0.0575
  834MOL0     C12509   4.212   2.539   9.880  0.1208  0.3137  0.0248
  834MOL0     C12510   4.118   2.488   9.789 -0.4079 -0.4330  0.2278
  834MOL0     C12511   3.995   2.547   9.765  0.3352  1.3195 -0.3389
  834MOL0     C12512   3.949   2.662   9.833 -0.0860  0.0346 -0.2408
  834MOL0     O12513   3.819   2.700   9.796 -0.0579  0.2431 -0.3215
  834MOL0     C12514   3.757   2.772   9.903 -0.4756 -0.3222  0.1328
  834MOL0     C12515   3.610   2.751   9.889 -0.6115 -0.4832  0.1981
  834MOL0     C12516   3.550   2.804   9.761  0.0294 -0.0988  0.2806
  834MOL0     C12517   3.396   2.795   9.754  0.0744 -0.4199 -0.0205
  834MOL0     C12518   3.327   2.858   9.869 -0.7665  0.1514  0.0788
  834MOL0     C12519   3.279   2.910   9.965 -0.9136  0.1046 -0.0722
  834MOL0     C12520   4.046   2.723   9.918 -0.3078  0.3124 -0.3073
  834MOL0     C12521   4.178   2.661   9.938 -0.5324 -0.3979  0.3737
  834MOL0     C12522   4.274   2.752  10.012  0.6536 -0.3750  0.1891
  834MOL0     H12523   4.462   2.333  10.097 -0.6178  2.0581 -0.0863
  834MOL0     H12524   4.678   2.207  10.144  2.2565 -0.5946 -0.2402
  834MOL0     H12525   4.854   2.096  10.147  0.3560 -1.0889  0.2766
  834MOL0     H12526   5.019   2.106  10.089  2.2547  1.7383  0.9008
  834MOL0     H12527   4.902   2.222  10.328 -0.3981  2.3152 -0.0654
  834MOL0     H12528   5.060   2.289  10.275  1.6369 -2.2817  2.8722
  834MOL0     H12529   5.049   1.997  10.320  3.0059 -1.1506  0.4046
  834MOL0     H12530   5.085   2.115  10.447  0.9097 -2.0619  0.2595
  834MOL0     H12531   5.233   2.076  10.177  1.5794  0.8201 -0.5803
  834MOL0     H12532   5.271   2.200  10.284  2.1358 -0.2706 -3.7152
  834MOL0     H12533   5.326   2.015  10.462 -0.7441  2.8415 -1.1417
  834MOL0     H12534   5.264   1.894  10.352 -0.1944 -0.7216  0.2994
  834MOL0     H12535   5.507   1.904  10.363 -0.6315 -1.4843 -0.3540
  834MOL0     H12536   5.446   1.941  10.199  0.4013 -2.1639  2.1969
  834MOL0     H12537   5.508   2.175  10.379  0.5114 -0.4972  0.4115
  834MOL0     H12538   5.474   2.156  10.202  1.0153 -0.3801 -0.8007
  834MOL0     H12539   5.705   2.030  10.202 -0.3399 -1.3513  1.3701
  834MOL0     H12540   5.712   2.201  10.245 -0.6853  0.0044 -3.4008
  834MOL0     H12541   5.705   2.210  10.551 -0.1253  0.2492 -2.9276
  834MOL0     H12542   5.928   2.159  10.747  1.4600 -0.7048  1.1933
  834MOL0     H12543   5.856   2.009  10.789 -0.4532 -1.4519 -0.0947
  834MOL0     H12544   6.047   1.892  10.688 -1.2206  0.5658 -0.0892
  834MOL0     H12545   6.111   2.035  10.610 -2.0161  0.2259 -0.9918
  834MOL0     H12546   6.107   1.969  10.904  1.6136 -0.0855  0.6935
  834MOL0     H12547   6.126   2.137  10.843  1.7695 -1.3930  0.4975
  834MOL0     H12548   6.300   1.920  10.744 -0.0913  1.9900 -1.1747
  834MOL0     H12549   6.341   1.984  10.900  1.1713 -1.0191 -0.0534
  834MOL0     H12550   6.491   2.303  10.641 -1.9773 -0.3702  1.8149
  834MOL0     H12551   6.739   2.340  10.659 -1.5816  1.5876  0.1043
  834MOL0     H12552   7.161   2.072  10.675  3.1487 -1.4696 -1.1751
  834MOL0     H12553   7.410   2.102  10.708 -0.6807  0.2504  0.2055
  834MOL0     H12554   7.572   2.239  11.100 -0.0396  0.7857 -2.6624
  834MOL0     H12555   7.573   2.056  11.101 -1.1571 -1.1734 -0.9344
  834MOL0     H12556   7.784   2.202  10.944 -1.4963  0.8602  0.5687
  834MOL0     H12557   7.794   2.161  11.113  1.5848 -0.5198 -0.6530
  834MOL0     H12558   7.775   1.928  11.053  2.1390  0.7672  1.3751
  834MOL0     H12559   7.730   1.950  10.886 -1.6413 -3.6699  2.3452
  834MOL0     H12560   7.997   1.959  11.026  3.2772  0.6822 -1.9168
  834MOL0     H12561   7.988   2.063  10.895  0.4619  0.1463 -0.1102
  834MOL0     H12562   7.919   1.869  10.740  0.2667 -0.7448 -0.8474
  834MOL0     H12563   7.922   1.763  10.878  0.0183 -0.3948  0.1406
  834MOL0     H12564   8.167   1.904  10.783  1.8317 -2.7267 -2.7923
  834MOL0     H12565   8.164   1.803  10.922 -2.1997 -1.9564  0.3917
  834MOL0     H12566   8.116   1.753  10.618 -2.3194  1.4544  1.0254
  834MOL0     H12567   8.074   1.622  10.724 -0.8681  1.4538 -1.0877
  834MOL0     H12568   8.287   1.626  10.830 -3.1460 -0.8617 -1.1760
  834MOL0     H12569   8.312   1.597  10.657  0.5530 -0.1837  0.1763
  834MOL0     H12570   7.351   2.204  11.122 -3.0590  3.9243  0.3158
  834MOL0     H12571   7.122   2.140  11.097  0.8805 -1.5896  1.6031
  834MOL0     H12572   6.784   1.981  10.895 -0.7217 -0.6677 -0.8239
  834MOL0     H12573   6.541   1.935  10.878  0.0884 -0.2751  0.1443
  834MOL0     H12574   4.883   2.464   9.881 -0.4021  0.7912 -0.0248
  834MOL0     H12575   4.673   2.590   9.829 -2.4383 -0.2545  0.1620
  834MOL0     H12576   4.147   2.404   9.726  2.2075 -0.3552  1.2129
  834MOL0     H12577   3.928   2.507   9.690  0.4472 -0.3595  0.4246
  834MOL0     H12578   3.784   2.878   9.900  0.6259 -0.5992 -0.4568
  834MOL0     H12579   3.786   2.736  10.002  2.4252 -1.4470 -1.0009
  834MOL0     H12580   3.561   2.799   9.974  2.8239 -0.6526  2.4890
  834MOL0     H12581   3.599   2.642   9.889 -0.6052 -0.5787 -3.0088
  834MOL0     H12582   3.583   2.749   9.672 -1.0119 -2.0680  1.0388
  834MOL0     H12583   3.585   2.905   9.739 -0.5651 -0.1216 -0.8512
  834MOL0     H12584   3.359   2.849   9.666 -1.2333  1.3914  1.5654
  834MOL0     H12585   3.365   2.691   9.743  1.3482 -0.9343  1.0429
  834MOL0     H12586   3.242   2.967  10.048  0.3173 -0.1137  0.6524
  834MOL0     H12587   4.040   2.820   9.967 -0.8488 -0.4168  1.1141
  834MOL0     H12588   4.325   2.693  10.088 -1.7225 -2.2692  0.4458
  834MOL0     H12589   4.342   2.805   9.945 -0.4063  2.8003  1.4285
  834MOL0     H12590   4.220   2.828  10.069  1.7747 -0.8911  2.0186
  835MOL0     O12591  10.406   1.280   9.678  0.2856 -0.0225 -0.1812
  835MOL0     C12592  10.355   1.195   9.607 -1.1144 -0.5701 -0.6592
  835MOL0     O12593  10.424   1.096   9.546 -0.1568 -0.1096 -0.1145
  835MOL0     C12594  10.561   1.098   9.565  0.7137 -0.8833 -0.2469
  835MOL0     C12595  10.615   0.989   9.629 -0.2128 -0.0679  0.5220
  835MOL0     C12596  10.753   0.974   9.649 -0.3579 -0.8896  0.6741
  835MOL0     C12597  10.836   1.080   9.594 -0.4521 -0.4850 -0.4394
  835MOL0     O12598  10.973   1.062   9.615 -0.5359 -0.0647  0.2362
  835MOL0     C12599  11.073   1.144   9.542 -0.5999  0.0744 -0.1295
  835MOL0     C12600  11.094   1.284   9.603  0.2464  0.3195  0.6802
  835MOL0     C12601  11.203   1.277   9.709  0.0324  0.1311 -0.8495
  835MOL0     C12602  11.223   1.420   9.766  0.5184 -0.2404  1.0054
  835MOL0     C12603  11.302   1.435   9.887 -0.3668  0.4593 -0.1838
  835MOL0     C12604  11.438   1.364   9.886 -0.3821 -0.0457  0.8234
  835MOL0     C12605  11.520   1.375  10.017 -1.0549 -0.5910  0.3938
  835MOL0     C12606  11.467   1.324  10.144  0.3643  0.0012 -0.0996
  835MOL0     N12607  11.546   1.357  10.264  0.1840  0.3269 -0.9550
  835MOL0     C12608  11.576   1.483  10.309  0.3544 -0.4384  1.1280
  835MOL0     C12609  11.680   1.462  10.397  0.8702 -0.5869  0.0575
  835MOL0     C12610  11.772   1.566  10.469  0.0026  0.5924  0.5055
  835MOL0     C12611  11.883   1.617  10.376 -0.5580 -0.3640  0.2745
  835MOL0     C12612  11.980   1.505  10.359 -1.2538  0.2883  0.1579
  835MOL0     C12613  12.108   1.558  10.289  0.2576  0.4133 -0.0311
  835MOL0     O12614  12.212   1.458  10.312  0.5236  0.2679 -0.0174
  835MOL0     C12615  12.337   1.471  10.245  0.6029  0.1711 -0.4134
  835MOL0     C12616  12.438   1.397  10.293 -0.4261 -0.2408  0.5929
  835MOL0     C12617  12.568   1.423  10.241 -0.0123  0.0459 -0.1027
  835MOL0     C12618  12.596   1.509  10.136  1.2235 -0.2950  0.3722
  835MOL0     C12619  12.731   1.519  10.069 -0.5876 -0.0957  0.1283
  835MOL0     O12620  12.751   1.611   9.967  0.2195  0.4834  0.0105
  835MOL0     C12621  12.881   1.603   9.904 -0.2955 -0.2247  0.5778
  835MOL0     C12622  12.878   1.568   9.774 -0.4697 -0.3708  0.8636
  835MOL0     C12623  12.996   1.555   9.696 -0.1707 -0.5081  0.3211
  835MOL0     C12624  13.119   1.575   9.758 -0.6599  0.7483  0.4340
  835MOL0     O12625  13.239   1.547   9.693  0.4680 -0.2071 -0.3112
  835MOL0     C12626  13.261   1.634   9.585  0.3876 -0.4354 -0.6058
  835MOL0     C12627  13.383   1.588   9.502  0.6359  0.4075  0.3496
  835MOL0     C12628  13.354   1.462   9.421 -0.2249  0.0355  0.0226
  835MOL0     C12629  13.462   1.438   9.316  0.2453  0.0227 -0.5698
  835MOL0     C12630  13.598   1.420   9.367  0.4381  0.5180  0.1731
  835MOL0     C12631  13.697   1.431   9.252  0.3846  0.2155  0.3325
  835MOL0     C12632  13.717   1.583   9.226 -0.1903 -0.0199 -0.3564
  835MOL0     C12633  13.854   1.605   9.158  0.7735 -0.4974  0.5414
  835MOL0    Cl12634  13.845   1.549   8.975  0.1046 -0.1899  0.4187
  835MOL0     C12635  13.133   1.598   9.901 -0.1464 -0.0729  0.5160
  835MOL0     C12636  13.008   1.617   9.970 -0.5104  0.0243  0.0552
  835MOL0     O12637  12.814   1.442  10.116  0.6131 -0.4459 -0.6758
  835MOL0     C12638  12.487   1.581  10.080  0.1480  0.1092 -0.8940
  835MOL0     C12639  12.359   1.561  10.136  0.6945  0.3162 -0.2997
  835MOL0     N12640  11.696   1.326  10.416  0.0217  0.2507 -0.1492
  835MOL0     N12641  11.614   1.261  10.336 -0.1129  0.3416  0.7259
  835MOL0     C12642  10.781   1.190   9.525 -0.0854 -0.4277 -0.4038
  835MOL0     C12643  10.643   1.197   9.508 -0.2604 -0.1346 -0.5310
  835MOL0     C12644  10.205   1.191   9.594 -0.3594 -0.1190 -0.3664
  835MOL0     C12645  10.128   1.202   9.714 -0.1000  0.3707 -0.0006
  835MOL0     C12646   9.989   1.225   9.713 -0.2332  0.4335  0.0347
  835MOL0     C12647   9.921   1.200   9.589 -0.3297  0.8298 -0.5141
  835MOL0     O12648   9.785   1.218   9.571  0.1647  0.0086  0.1818
  835MOL0     C12649   9.706   1.254   9.677  0.1141  0.5398 -0.3868
  835MOL0     C12650   9.720   1.406   9.714 -0.4530  0.0063 -0.0019
  835MOL0     C12651   9.666   1.448   9.844 -0.0923 -0.1134 -0.0952
  835MOL0     C12652   9.514   1.425   9.848 -0.1121 -0.0934 -0.3586
  835MOL0     C12653   9.457   1.425   9.981  0.1044 -0.0318 -0.0647
  835MOL0     C12654   9.375   1.421  10.071 -0.5250 -0.4413  0.5444
  835MOL0     C12655   9.995   1.172   9.472  0.4277 -0.4853 -0.1778
  835MOL0     C12656  10.131   1.180   9.480  0.6739  0.1784  0.5274
  835MOL0     C12657  10.208   1.168   9.346  0.5576 -0.4378 -0.0373
  835MOL0     H12658  10.543   0.916   9.665  2.1871 -2.2398  1.1580
  835MOL0     H12659  10.791   0.882   9.692 -0.1797 -1.2710 -0.2665
  835MOL0     H12660  11.168   1.089   9.544  0.1566  1.3379  0.5666
  835MOL0     H12661  11.046   1.157   9.437  1.2269  0.2709 -0.6122
  835MOL0     H12662  10.997   1.321   9.639 -0.7491 -0.8391 -0.6688
  835MOL0     H12663  11.127   1.345   9.518  0.1918 -0.4620  0.0866
  835MOL0     H12664  11.297   1.250   9.659 -0.5199 -0.0778 -1.8023
  835MOL0     H12665  11.184   1.208   9.792  2.2042  0.8131  0.2923
  835MOL0     H12666  11.265   1.490   9.692 -1.3102  1.4475  1.4846
  835MOL0     H12667  11.125   1.465   9.787  0.4899  0.2971 -0.1851
  835MOL0     H12668  11.319   1.538   9.920  0.2039  0.7784 -1.4203
  835MOL0     H12669  11.243   1.389   9.966  0.2019 -1.1723 -0.6759
  835MOL0     H12670  11.421   1.259   9.861  1.2252 -0.1544  0.0588
  835MOL0     H12671  11.488   1.398   9.795  0.8650 -0.1869  1.4308
  835MOL0     H12672  11.536   1.483  10.028 -2.5719 -0.2537 -0.4724
  835MOL0     H12673  11.615   1.324   9.997 -1.1943 -1.4634  1.8479
  835MOL0     H12674  11.373   1.380  10.147  0.2574 -0.2072  1.4358
  835MOL0     H12675  11.447   1.216  10.140 -3.3633  0.4189  2.2822
  835MOL0     H12676  11.546   1.579  10.268 -1.0184 -0.3343  2.3168
  835MOL0     H12677  11.712   1.653  10.497 -0.4875  0.7186 -0.8815
  835MOL0     H12678  11.811   1.521  10.561  0.9204 -1.8109 -0.9504
  835MOL0     H12679  11.851   1.638  10.274  0.0064 -1.3243 -0.1110
  835MOL0     H12680  11.917   1.712  10.419 -1.3305 -0.9545  2.3025
  835MOL0     H12681  11.932   1.418  10.311 -1.1810 -1.7008  3.4172
  835MOL0     H12682  12.005   1.484  10.463  1.1776 -1.9428 -0.7439
  835MOL0     H12683  12.122   1.657  10.331 -2.2514  1.2678 -1.0166
  835MOL0     H12684  12.102   1.557  10.179  3.5722  1.2815 -0.2997
  835MOL0     H12685  12.416   1.317  10.363 -1.6138  0.2221  0.7785
  835MOL0     H12686  12.642   1.356  10.284 -2.1731 -3.0045 -0.8360
  835MOL0     H12687  12.791   1.550   9.712 -0.1014 -1.3138  0.5960
  835MOL0     H12688  12.985   1.526   9.592 -1.9291 -1.8858  0.8409
  835MOL0     H12689  13.172   1.645   9.522  1.4072  0.2360 -2.0060
  835MOL0     H12690  13.284   1.728   9.635 -2.5605 -1.6088  3.5033
  835MOL0     H12691  13.422   1.666   9.437  1.2949 -1.9541 -2.3025
  835MOL0     H12692  13.464   1.572   9.574  0.6955 -0.2762  0.1393
  835MOL0     H12693  13.342   1.375   9.487 -2.2357 -1.3608 -2.0177
  835MOL0     H12694  13.257   1.467   9.372  0.4897  0.7024 -1.3734
  835MOL0     H12695  13.454   1.502   9.228  2.5838 -2.5265 -2.8327
  835MOL0     H12696  13.440   1.342   9.268  1.0753 -1.0030  1.0165
  835MOL0     H12697  13.608   1.320   9.410  1.3777  0.9611  1.0635
  835MOL0     H12698  13.626   1.492   9.445  0.0970  0.3441  0.4568
  835MOL0     H12699  13.791   1.380   9.274 -0.2098 -0.6194  1.0376
  835MOL0     H12700  13.655   1.380   9.165  0.0526 -1.1644  1.2598
  835MOL0     H12701  13.710   1.642   9.319 -1.2412  2.8825 -2.1151
  835MOL0     H12702  13.636   1.621   9.162  0.4067 -0.2086 -1.2307
  835MOL0     H12703  13.875   1.712   9.168  1.2531 -0.5039 -0.3542
  835MOL0     H12704  13.940   1.560   9.208  2.0385 -0.1641 -1.2678
  835MOL0     H12705  13.228   1.582   9.950 -1.1662 -4.2490  1.5542
  835MOL0     H12706  12.999   1.642  10.075 -2.1621  2.2824 -0.5435
  835MOL0     H12707  12.501   1.660  10.006  1.9649  1.6276  0.9373
  835MOL0     H12708  12.279   1.602  10.076  0.0868  1.8911  1.4964
  835MOL0     H12709  10.848   1.258   9.474  2.1923 -0.8765  1.8208
  835MOL0     H12710  10.598   1.270   9.441  0.5906  0.6639 -0.2444
  835MOL0     H12711  10.189   1.200   9.804 -0.4624 -0.5710  0.2343
  835MOL0     H12712   9.949   1.246   9.811  0.2782 -0.2329  0.3997
  835MOL0     H12713   9.728   1.205   9.773 -0.5648  1.4350  0.2420
  835MOL0     H12714   9.605   1.219   9.655  0.3524 -0.1217 -0.4404
  835MOL0     H12715   9.674   1.464   9.634 -1.3337  0.4009  0.7727
  835MOL0     H12716   9.827   1.431   9.715 -0.8973  2.2545 -1.4145
  835MOL0     H12717   9.683   1.555   9.859 -0.3372 -0.2313  1.1843
  835MOL0     H12718   9.715   1.396   9.927  0.9621 -0.6335 -1.0191
  835MOL0     H12719   9.455   1.495   9.788  0.2267  1.7603  1.3661
  835MOL0     H12720   9.503   1.318   9.828  2.5222 -0.2641 -1.3905
  835MOL0     H12721   9.298   1.437  10.144  0.1237 -0.7278  1.3035
  835MOL0     H12722   9.932   1.146   9.388 -1.2843  0.0907  0.8778
  835MOL0     H12723  10.276   1.253   9.343  1.0872 -0.7718  1.4527
  835MOL0     H12724  10.254   1.070   9.332 -0.8547 -0.9511 -1.4168
  835MOL0     H12725  10.137   1.165   9.263 -1.2937 -2.5655  1.4890
  836MOL0     O12726   0.724   9.946   0.478 -0.2737  0.3493 -0.8013
  836MOL0     C12727   0.711   9.871   0.380  0.4310 -0.7726 -0.3727
  836MOL0     O12728   0.808   9.806   0.313  0.1990 -0.4937 -0.1806
  836MOL0     C12729   0.942   9.835   0.336 -0.2659 -0.0876 -0.4642
  836MOL0     C12730   1.010   9.722   0.381  0.0701 -0.4014 -0.1518
  836MOL0     C12731   1.148   9.732   0.397  0.3115  0.7983  1.3219
  836MOL0     C12732   1.215   9.850   0.372  0.4125 -0.3435  0.8146
  836MOL0     O12733   1.351   9.836   0.388 -0.6833 -0.1168  0.6579
  836MOL0     C12734   1.432   9.946   0.363 -0.4962 -0.5780  0.2953
  836MOL0     C12735   1.580   9.918   0.371  0.0444 -0.6824 -0.7238
  836MOL0     C12736   1.637   9.820   0.267  0.1624  0.1333  0.3309
  836MOL0     C12737   1.788   9.797   0.281 -0.2401  0.2921  0.2379
  836MOL0     C12738   1.844   9.669   0.221  0.1713  0.2956  0.4682
  836MOL0     C12739   1.974   9.610   0.282 -0.1016  0.6391 -0.7661
  836MOL0     C12740   1.986   9.467   0.236 -0.8966  0.5104  0.4116
  836MOL0     C12741   2.131   9.417   0.241  0.7523 -0.2301  0.1246
  836MOL0     N12742   2.167   9.372   0.375 -0.4994  0.2180  0.5380
  836MOL0     C12743   2.129   9.263   0.443  0.5357  0.7595 -0.5065
  836MOL0     C12744   2.177   9.271   0.568  0.4281  0.3593  0.3620
  836MOL0     C12745   2.144   9.178   0.676  0.0286  0.5549 -0.0985
  836MOL0     C12746   2.271   9.124   0.735 -0.0456  0.3153 -0.0029
  836MOL0     C12747   2.247   9.008   0.835 -0.5690 -0.2828  0.1407
  836MOL0     C12748   2.373   8.940   0.884  0.9422  0.5791  0.4159
  836MOL0     O12749   2.453   8.922   0.772 -0.5252 -0.4129 -0.0947
  836MOL0     C12750   2.576   8.857   0.771 -0.7497 -0.5711 -0.2305
  836MOL0     C12751   2.640   8.814   0.884  0.0659 -0.1681  1.1109
  836MOL0     C12752   2.765   8.753   0.870 -0.4673  0.0797 -0.3126
  836MOL0     C12753   2.827   8.740   0.748  0.3723  0.7915  0.0053
  836MOL0     C12754   2.947   8.660   0.740  0.8975 -0.4179  0.1288
  836MOL0     O12755   2.954   8.584   0.624  0.4907  0.0866 -0.1034
  836MOL0     C12756   3.052   8.487   0.616 -0.2352  0.0602 -0.5989
  836MOL0     C12757   3.014   8.354   0.595 -0.3613 -0.3787  0.0003
  836MOL0     C12758   3.117   8.258   0.582 -0.0104  0.0372  0.0376
  836MOL0     C12759   3.248   8.284   0.582 -0.4977 -0.6963 -0.3493
  836MOL0     O12760   3.338   8.184   0.550 -0.1326  0.1198  0.0012
  836MOL0     C12761   3.360   8.167   0.410 -1.0580  0.4588  0.2653
  836MOL0     C12762   3.480   8.081   0.381 -0.5920 -0.0582  0.7255
  836MOL0     C12763   3.607   8.173   0.390 -0.9852  0.3504 -0.1195
  836MOL0     C12764   3.742   8.115   0.332  0.3399  0.6274 -1.0260
  836MOL0     C12765   3.733   8.087   0.186  0.1808 -0.2532 -1.0132
  836MOL0     C12766   3.869   8.068   0.126 -0.9082  0.3414 -0.8577
  836MOL0     C12767   3.948   8.200   0.109 -0.2178  0.2366 -0.6821
  836MOL0     C12768   4.080   8.170   0.038 -0.5361 -0.1540  0.6250
  836MOL0    Cl12769   4.216   8.208   0.138 -0.1953  0.3320  0.0105
  836MOL0     C12770   3.297   8.415   0.606 -0.0667 -0.4116  0.9146
  836MOL0     C12771   3.200   8.516   0.624  0.3810  1.1294 -0.6459
  836MOL0     O12772   3.029   8.660   0.837  0.3807  0.1297  0.1562
  836MOL0     C12773   2.763   8.793   0.636  0.1631 -0.2167  0.1417
  836MOL0     C12774   2.636   8.847   0.646 -0.1569  0.4474 -0.4762
  836MOL0     N12775   2.247   9.388   0.576  0.2197  0.5704  0.3644
  836MOL0     N12776   2.232   9.442   0.461  0.4463  0.1128  0.1675
  836MOL0     C12777   1.137   9.969   0.350 -0.0291  0.6268  0.8298
  836MOL0     C12778   1.004   9.955   0.319  0.4676  0.2049  0.0335
  836MOL0     C12779   0.574   9.850   0.323 -0.7716 -1.2843  0.4681
  836MOL0     C12780   0.479   9.951   0.342  0.1691 -1.0940  0.5302
  836MOL0     C12781   0.349   9.947   0.291 -0.6627 -0.2636 -0.5205
  836MOL0     C12782   0.312   9.838   0.207  0.1335 -0.3923  0.1946
  836MOL0     O12783   0.191   9.821   0.149  0.2772 -0.4385  0.8333
  836MOL0     C12784   0.092   9.920   0.152 -0.0956 -0.0250 -0.3917
  836MOL0     C12785   0.006   9.906   0.271  0.0931  0.0545  0.1610
  836MOL0     C12786  -0.107  10.014   0.274  0.5910  0.0821 -0.1122
  836MOL0     C12787  -0.193  10.001   0.149  0.1605  0.1207 -1.1745
  836MOL0     C12788  -0.309  10.094   0.160 -0.3144 -0.0502  0.9239
  836MOL0     C12789  -0.416  10.149   0.163  0.5854 -0.5899  0.0269
  836MOL0     C12790   0.411   9.730   0.189 -0.4960 -0.6768  1.2070
  836MOL0     C12791   0.534   9.735   0.250  0.4628 -0.3720 -0.7870
  836MOL0     C12792   0.610   9.603   0.239 -0.2913 -0.0599 -0.3213
  836MOL0     H12793   0.958   9.627   0.378  0.5483 -0.6523 -0.6301
  836MOL0     H12794   1.198   9.638   0.417 -2.2643 -0.9908  0.0229
  836MOL0     H12795   1.412   9.990   0.264  1.4743  2.0729  0.9741
  836MOL0     H12796   1.410  10.024   0.436  3.0110  2.0753 -1.1570
  836MOL0     H12797   1.599   9.876   0.470 -0.6003  1.3380  0.3228
  836MOL0     H12798   1.632  10.014   0.373 -0.2640 -0.4955 -1.3800
  836MOL0     H12799   1.621   9.836   0.160 -0.1850 -1.6504  0.0764
  836MOL0     H12800   1.585   9.729   0.301 -1.7040  1.0995  0.1664
  836MOL0     H12801   1.843   9.882   0.240 -0.1877  0.5304  0.7901
  836MOL0     H12802   1.800   9.797   0.390 -2.2666  0.6757  0.4899
  836MOL0     H12803   1.761   9.599   0.237  1.8336 -1.3683  2.2223
  836MOL0     H12804   1.859   9.671   0.112 -0.6098  0.4896  0.3562
  836MOL0     H12805   2.057   9.671   0.245  0.5503  0.3159  0.1309
  836MOL0     H12806   1.967   9.603   0.391  1.4350 -0.1149 -0.6853
  836MOL0     H12807   1.959   9.458   0.130 -0.5436 -0.4243  0.3906
  836MOL0     H12808   1.931   9.399   0.302 -1.0916  1.0152  0.7764
  836MOL0     H12809   2.145   9.342   0.162  1.6196  1.1495 -1.1038
  836MOL0     H12810   2.192   9.504   0.213  0.2603 -0.4359 -1.7693
  836MOL0     H12811   2.080   9.175   0.400 -0.9661  1.4278 -0.2475
  836MOL0     H12812   2.085   9.222   0.757  1.4432 -2.5760  2.9426
  836MOL0     H12813   2.083   9.103   0.625  3.6864 -1.8256 -1.3793
  836MOL0     H12814   2.333   9.095   0.649 -0.9943 -0.3278 -0.4922
  836MOL0     H12815   2.325   9.208   0.780 -0.7100 -0.0368  1.5196
  836MOL0     H12816   2.179   8.938   0.787  1.2078 -0.9070 -1.6181
  836MOL0     H12817   2.196   9.054   0.921  0.9888  1.8392  0.0268
  836MOL0     H12818   2.350   8.838   0.917  1.8132  0.4667  0.7068
  836MOL0     H12819   2.428   8.987   0.966 -0.5578  0.4352  1.5426
  836MOL0     H12820   2.603   8.846   0.981 -3.9506 -2.1218  0.4311
  836MOL0     H12821   2.825   8.724   0.956 -0.1757 -2.8977 -1.4237
  836MOL0     H12822   2.913   8.316   0.598 -1.0891  1.5135  1.1245
  836MOL0     H12823   3.089   8.154   0.564 -1.8570  0.5744 -0.4790
  836MOL0     H12824   3.280   8.097   0.381  1.6595 -2.8624  0.1873
  836MOL0     H12825   3.349   8.261   0.355 -3.3391 -0.0700 -0.3204
  836MOL0     H12826   3.495   7.992   0.443 -0.3249  0.0199  0.7725
  836MOL0     H12827   3.467   8.046   0.278 -1.9655  0.0723  0.8436
  836MOL0     H12828   3.580   8.268   0.344 -2.8323 -1.6094 -3.5344
  836MOL0     H12829   3.632   8.195   0.494 -1.1605  0.3878 -0.0853
  836MOL0     H12830   3.756   8.024   0.391 -1.1710  0.1131 -1.3946
  836MOL0     H12831   3.823   8.181   0.363  1.1366 -1.8007  2.6249
  836MOL0     H12832   3.671   8.163   0.137 -0.7369 -0.8004 -0.7482
  836MOL0     H12833   3.668   8.000   0.170  0.4989 -0.6058 -0.3969
  836MOL0     H12834   3.922   8.003   0.196 -3.4607 -0.5282  0.3783
  836MOL0     H12835   3.860   8.017   0.029  0.6429 -2.2316  0.2505
  836MOL0     H12836   3.969   8.240   0.209  2.3159 -1.4636 -0.4400
  836MOL0     H12837   3.894   8.263   0.039 -0.2618  0.6423 -0.2838
  836MOL0     H12838   4.082   8.066   0.006 -0.4464  0.0420 -0.0262
  836MOL0     H12839   4.087   8.219  -0.060 -3.5376 -2.9234 -1.1887
  836MOL0     H12840   3.401   8.443   0.614 -0.3060  0.4214  1.2605
  836MOL0     H12841   3.232   8.618   0.643 -1.9073  1.6454  0.8982
  836MOL0     H12842   2.813   8.794   0.540 -1.1670  1.0779 -0.5745
  836MOL0     H12843   2.575   8.889   0.567 -3.8496 -0.2150  1.7362
  836MOL0     H12844   1.186  10.066   0.347 -0.4560  0.8196 -1.6654
  836MOL0     H12845   0.946  10.041   0.290 -0.3260 -0.2242  0.3184
  836MOL0     H12846   0.496  10.037   0.406  0.5049 -1.0002  0.3174
  836MOL0     H12847   0.282  10.028   0.319 -0.2410  0.1318 -0.6615
  836MOL0     H12848   0.032   9.901   0.063 -0.4548 -0.3910 -0.0743
  836MOL0     H12849   0.151  10.012   0.142  1.2265 -0.8025 -0.0621
  836MOL0     H12850   0.069   9.911   0.361  0.3643  0.9616 -0.0697
  836MOL0     H12851  -0.042   9.808   0.268  0.8003 -0.2868 -2.2606
  836MOL0     H12852  -0.060  10.113   0.278  2.6342 -0.7968 -1.1898
  836MOL0     H12853  -0.167   9.997   0.364 -1.1442  0.5641 -1.1291
  836MOL0     H12854  -0.136  10.018   0.057  2.1059 -2.7049 -0.6256
  836MOL0     H12855  -0.230   9.899   0.142 -1.2027  0.5400 -0.4941
  836MOL0     H12856  -0.502  10.211   0.178  0.5781 -0.0872 -1.8505
  836MOL0     H12857   0.383   9.646   0.127 -0.2468 -1.0488  1.6002
  836MOL0     H12858   0.553   9.513   0.216 -0.1047 -0.6774  1.4570
  836MOL0     H12859   0.689   9.623   0.166  0.5736 -0.0145  0.6079
  836MOL0     H12860   0.658   9.579   0.335  3.2567  2.5722 -1.2098
  837MOL0     O12861   0.272   5.705   0.825 -0.2323  0.0414 -0.3464
  837MOL0     C12862   0.223   5.793   0.898  0.1020 -1.1074  0.3370
  837MOL0     O12863   0.296   5.887   0.957  0.5774 -0.4111 -0.3492
  837MOL0     C12864   0.428   5.884   0.936 -0.2274 -0.2012  0.0368
  837MOL0     C12865   0.518   5.831   1.031 -0.6540  0.1614  0.1709
  837MOL0     C12866   0.657   5.840   1.000 -0.0216  0.0124 -0.9586
  837MOL0     C12867   0.707   5.900   0.878  0.8817 -0.3710 -0.5007
  837MOL0     O12868   0.840   5.900   0.856 -0.1109 -0.3297 -0.1597
  837MOL0     C12869   0.905   5.775   0.834 -0.3704  0.1992 -0.0786
  837MOL0     C12870   1.022   5.761   0.930 -0.4995  0.1009  0.7708
  837MOL0     C12871   1.125   5.877   0.923 -0.6196  0.1206 -0.0344
  837MOL0     C12872   1.226   5.877   1.042 -0.1955 -0.0587  0.1424
  837MOL0     C12873   1.318   5.997   1.018 -0.1272  0.1349 -0.6026
  837MOL0     C12874   1.422   6.005   1.132  0.0483  0.7259 -0.3953
  837MOL0     C12875   1.532   5.902   1.113  1.0194  0.7799  0.8165
  837MOL0     C12876   1.636   5.896   1.226  0.2370 -0.8688 -0.0924
  837MOL0     N12877   1.747   5.999   1.213  0.2620 -0.4150  0.4116
  837MOL0     C12878   1.845   6.018   1.304 -0.0651  0.7281 -0.3099
  837MOL0     C12879   1.923   6.109   1.249  0.2665 -0.1698 -0.2337
  837MOL0     C12880   2.040   6.173   1.313  0.1218 -0.3583 -0.1150
  837MOL0     C12881   2.164   6.202   1.216  0.8331 -0.7623 -0.1677
  837MOL0     C12882   2.259   6.303   1.284 -0.3961  0.3164 -0.1894
  837MOL0     C12883   2.371   6.354   1.189  0.2194 -0.1241 -0.5009
  837MOL0     O12884   2.442   6.461   1.245 -0.3353  0.0737  0.4222
  837MOL0     C12885   2.565   6.502   1.199  0.7109  0.2121 -0.0478
  837MOL0     C12886   2.645   6.436   1.109  0.4320  0.1642  0.6741
  837MOL0     C12887   2.771   6.481   1.072  0.1453  0.6197 -0.6765
  837MOL0     C12888   2.830   6.600   1.126  0.7012  0.2550 -1.0144
  837MOL0     C12889   2.975   6.632   1.106 -0.0327 -0.4774  0.0993
  837MOL0     O12890   3.049   6.551   1.031  0.2967 -0.6150  0.3886
  837MOL0     C12891   3.163   6.598   0.973  0.4909  0.1779  0.4932
  837MOL0     C12892   3.156   6.682   0.858  0.4693 -0.0345 -0.3441
  837MOL0     C12893   3.268   6.729   0.789 -0.3132 -0.1796  0.5296
  837MOL0     C12894   3.392   6.705   0.842  0.3454 -0.1598 -0.1394
  837MOL0     O12895   3.497   6.749   0.770 -0.4365 -0.1732  0.1838
  837MOL0     C12896   3.625   6.763   0.827  0.5912 -0.0091  0.0477
  837MOL0     C12897   3.725   6.846   0.741 -0.4184 -0.1554  0.1000
  837MOL0     C12898   3.840   6.884   0.830  0.0307  0.5630 -0.3992
  837MOL0     C12899   3.939   6.983   0.769  0.2089 -0.0659 -0.0592
  837MOL0     C12900   4.048   7.031   0.870  0.0708  0.1084  0.8589
  837MOL0     C12901   4.123   7.154   0.803 -0.3639  0.4616  0.4231
  837MOL0     C12902   4.259   7.176   0.871  1.2312  0.0678  0.3802
  837MOL0     C12903   4.374   7.082   0.828  0.7036 -1.1801 -0.7392
  837MOL0    Cl12904   4.389   7.052   0.642  0.5077  0.2273  0.0907
  837MOL0     C12905   3.399   6.635   0.966  0.2696  0.4870  0.0476
  837MOL0     C12906   3.288   6.575   1.036  0.4652 -0.1074 -0.0334
  837MOL0     O12907   3.007   6.745   1.146 -0.3029  0.2772  0.3647
  837MOL0     C12908   2.736   6.676   1.207 -0.0556  0.5012 -0.5008
  837MOL0     C12909   2.607   6.627   1.235  0.1677 -0.1548 -0.1610
  837MOL0     N12910   1.868   6.147   1.131  0.4324  0.0447  0.1794
  837MOL0     N12911   1.754   6.088   1.112 -0.5848 -0.3488  0.4927
  837MOL0     C12912   0.610   5.959   0.792 -0.2462 -0.5883 -0.2906
  837MOL0     C12913   0.476   5.951   0.820 -0.5418  0.6539 -0.4137
  837MOL0     C12914   0.074   5.804   0.917 -0.1141  0.3882 -0.3306
  837MOL0     C12915   0.023   5.888   1.020 -0.0083  0.4217  0.5478
  837MOL0     C12916  -0.111   5.900   1.042 -0.2332  0.0582 -0.5158
  837MOL0     C12917  -0.195   5.813   0.968  1.0079 -0.6854 -0.2176
  837MOL0     O12918  -0.328   5.801   0.993 -0.4917  0.6683 -0.2358
  837MOL0     C12919  -0.396   5.919   1.033 -0.5550 -0.0107  0.5632
  837MOL0     C12920  -0.541   5.922   0.983 -0.0862  0.8195  0.2618
  837MOL0     C12921  -0.562   5.919   0.827 -0.6835  0.0005  0.8382
  837MOL0     C12922  -0.544   6.058   0.766  0.2799  0.4710 -0.5961
  837MOL0     C12923  -0.621   6.067   0.644  0.0405  0.2633  0.3063
  837MOL0     C12924  -0.671   6.062   0.529  0.9687 -0.4615 -0.9826
  837MOL0     C12925  -0.148   5.737   0.865 -0.0657 -0.3788  0.4322
  837MOL0     C12926  -0.014   5.731   0.837  1.1462 -0.6638 -0.5912
  837MOL0     C12927   0.022   5.639   0.721 -0.3327  0.8190 -0.4779
  837MOL0     H12928   0.473   5.791   1.121 -1.1690 -1.7549 -0.8815
  837MOL0     H12929   0.724   5.796   1.073  0.2607  0.3711 -0.9945
  837MOL0     H12930   0.841   5.687   0.845  0.9115 -0.7395  0.0891
  837MOL0     H12931   0.956   5.779   0.737 -1.7738 -1.1310 -0.9072
  837MOL0     H12932   1.070   5.668   0.902 -0.5106  0.5198 -0.7266
  837MOL0     H12933   0.999   5.755   1.037  1.2265  1.2390  1.2430
  837MOL0     H12934   1.064   5.968   0.924  0.5084  0.9283 -1.2263
  837MOL0     H12935   1.175   5.868   0.826 -1.0669 -0.8269 -0.1870
  837MOL0     H12936   1.177   5.879   1.139 -1.9155 -0.9457 -0.6677
  837MOL0     H12937   1.274   5.779   1.048  2.0345  1.0229  0.9454
  837MOL0     H12938   1.367   5.977   0.922  1.4667 -4.7955  0.9414
  837MOL0     H12939   1.257   6.088   1.010 -1.7976 -0.5252  2.7664
  837MOL0     H12940   1.468   6.104   1.140  0.4609  0.4984  0.0951
  837MOL0     H12941   1.380   5.986   1.231  0.2255  1.4621 -0.1681
  837MOL0     H12942   1.575   5.922   1.014 -0.3999 -1.2603 -0.2760
  837MOL0     H12943   1.496   5.800   1.096  0.9861  0.7329  1.1659
  837MOL0     H12944   1.586   5.916   1.321 -0.0807  3.8110 -0.9990
  837MOL0     H12945   1.680   5.796   1.223  2.8326  0.1734  0.3297
  837MOL0     H12946   1.848   5.975   1.404 -1.5354  1.9099  0.2908
  837MOL0     H12947   2.008   6.262   1.367 -0.0897 -0.2432 -0.4277
  837MOL0     H12948   2.079   6.111   1.394 -1.8514 -3.1913 -1.1806
  837MOL0     H12949   2.232   6.117   1.201  1.9217  0.2353 -1.0957
  837MOL0     H12950   2.129   6.236   1.118  3.9088 -3.1983 -2.3382
  837MOL0     H12951   2.295   6.248   1.372 -1.3444  0.6149  0.4083
  837MOL0     H12952   2.212   6.397   1.315 -0.1746 -0.3873  2.5253
  837MOL0     H12953   2.310   6.395   1.107 -1.1903 -0.4614  0.3602
  837MOL0     H12954   2.432   6.271   1.153  0.4276 -0.9313  1.5998
  837MOL0     H12955   2.628   6.344   1.054 -1.2569  0.8108  0.0342
  837MOL0     H12956   2.852   6.424   1.027  3.0038  3.9992 -0.1970
  837MOL0     H12957   3.065   6.714   0.808 -0.8888 -2.2600  0.5560
  837MOL0     H12958   3.256   6.785   0.697  2.3848 -1.8834 -0.9852
  837MOL0     H12959   3.609   6.807   0.925 -1.2664 -1.8333  0.6578
  837MOL0     H12960   3.665   6.667   0.859 -0.1931 -0.3281  0.1034
  837MOL0     H12961   3.759   6.790   0.654  2.9864  1.8499 -0.0452
  837MOL0     H12962   3.670   6.932   0.701  0.9825  0.2672 -1.0079
  837MOL0     H12963   3.800   6.945   0.912 -1.4017 -0.5643 -0.2274
  837MOL0     H12964   3.902   6.801   0.865 -2.1386 -1.5956 -1.4218
  837MOL0     H12965   3.885   7.067   0.724  0.7728  0.3672  0.0513
  837MOL0     H12966   3.993   6.924   0.694 -2.6564 -1.7209 -0.9694
  837MOL0     H12967   4.117   6.949   0.890 -0.4485 -0.5556  0.0172
  837MOL0     H12968   4.001   7.064   0.963 -1.0543  1.6750 -0.2012
  837MOL0     H12969   4.152   7.135   0.699 -0.2226 -3.0385  1.0023
  837MOL0     H12970   4.045   7.230   0.815 -0.3771  0.4858  0.1783
  837MOL0     H12971   4.233   7.154   0.975  0.8234 -2.6823 -0.2448
  837MOL0     H12972   4.290   7.281   0.863  0.0969  0.3228 -1.0567
  837MOL0     H12973   4.469   7.103   0.877  0.6821  0.7505 -1.4646
  837MOL0     H12974   4.350   6.986   0.876  0.3919 -1.1536 -0.8394
  837MOL0     H12975   3.495   6.609   1.009  0.3602 -1.5956 -1.2765
  837MOL0     H12976   3.299   6.522   1.129  2.8628  1.7648  0.8495
  837MOL0     H12977   2.770   6.767   1.255 -1.3988  0.7792 -0.0189
  837MOL0     H12978   2.537   6.688   1.292  0.6969 -1.2220  1.6917
  837MOL0     H12979   0.642   6.002   0.698  1.5540 -0.4241  0.3550
  837MOL0     H12980   0.406   6.004   0.756 -1.4579 -0.3006 -0.2456
  837MOL0     H12981   0.090   5.939   1.089  0.1325  0.4739  0.3744
  837MOL0     H12982  -0.144   5.976   1.113 -1.5013  1.5325 -2.5905
  837MOL0     H12983  -0.348   6.006   0.989 -0.0899  0.6266  2.2486
  837MOL0     H12984  -0.399   5.921   1.143 -1.0698 -1.4886  0.6081
  837MOL0     H12985  -0.594   6.006   1.029  0.3170  0.0333  2.2921
  837MOL0     H12986  -0.595   5.836   1.024  0.6626 -1.5234 -3.2031
  837MOL0     H12987  -0.665   5.888   0.810 -1.1060  0.4491  2.4533
  837MOL0     H12988  -0.495   5.845   0.782 -2.7584 -1.4286 -0.0253
  837MOL0     H12989  -0.591   6.137   0.826  1.8841  1.2439 -0.2982
  837MOL0     H12990  -0.437   6.076   0.756  0.3663 -0.7919 -2.3600
  837MOL0     H12991  -0.699   6.074   0.426 -1.8514  0.5188 -0.2224
  837MOL0     H12992  -0.220   5.673   0.814 -0.2327  0.0547  0.1201
  837MOL0     H12993   0.087   5.686   0.647  0.8109  2.8956  1.7072
  837MOL0     H12994   0.066   5.545   0.756 -1.0724  0.7243  0.2290
  837MOL0     H12995  -0.070   5.615   0.666  1.3635 -1.2033 -2.6508
  838MOL0     O12996  11.136  10.673   3.768  0.3878 -0.5601 -0.3288
  838MOL0     C12997  11.141  10.742   3.668  0.0610  0.1406  0.1288
  838MOL0     O12998  11.234  10.735   3.573 -0.4895  0.0421 -0.5343
  838MOL0     C12999  11.338  10.649   3.586 -0.2862  0.5587 -0.5067
  838MOL0     C13000  11.340  10.514   3.643 -0.1394 -0.2412  0.5626
  838MOL0     C13001  11.461  10.442   3.631 -0.2607  0.4799  0.4002
  838MOL0     C13002  11.572  10.488   3.559  0.4964  0.4867  0.1711
  838MOL0     O13003  11.689  10.417   3.550 -0.2126 -0.3703  0.4927
  838MOL0     C13004  11.719  10.328   3.661 -0.3911  0.5797 -0.1507
  838MOL0     C13005  11.848  10.259   3.631 -0.5603  1.0227 -0.3684
  838MOL0     C13006  11.869  10.147   3.731 -0.7923 -0.2006 -0.2113
  838MOL0     C13007  12.008  10.090   3.728 -0.1338 -0.0116  0.1738
  838MOL0     C13008  12.054  10.031   3.594  0.1992 -0.8812  0.3537
  838MOL0     C13009  12.184   9.970   3.615 -0.5427  1.1736 -0.0306
  838MOL0     C13010  12.227   9.901   3.482 -0.5063 -0.1153  0.6124
  838MOL0     C13011  12.372   9.866   3.486 -0.8127  0.2911 -0.3588
  838MOL0     N13012  12.387   9.747   3.561 -0.7024  0.4179 -0.0475
  838MOL0     C13013  12.388   9.621   3.503 -0.4460  0.5780  0.3058
  838MOL0     C13014  12.410   9.530   3.596  0.1067 -0.1064  0.4867
  838MOL0     C13015  12.425   9.380   3.593 -0.0583  0.6408  0.6349
  838MOL0     C13016  12.563   9.324   3.589  0.1502 -0.4635 -0.3685
  838MOL0     C13017  12.656   9.379   3.697  0.0426 -0.3187 -0.9341
  838MOL0     C13018  12.763   9.273   3.732 -0.1198 -0.4469 -0.5835
  838MOL0     O13019  12.833   9.224   3.624 -0.1659  0.1081  0.3293
  838MOL0     C13020  12.927   9.307   3.565 -0.1104  0.3647  0.3445
  838MOL0     C13021  12.924   9.308   3.424  0.0508 -0.2328 -0.5896
  838MOL0     C13022  13.016   9.395   3.358 -0.5829  0.1752  0.5448
  838MOL0     C13023  13.112   9.472   3.428  0.6289  1.2533 -0.4001
  838MOL0     C13024  13.215   9.543   3.344  0.4323  0.0907 -0.0345
  838MOL0     O13025  13.279   9.653   3.396 -0.3455 -0.3538 -0.3345
  838MOL0     C13026  13.372   9.711   3.312  0.0338 -0.4121  0.3462
  838MOL0     C13027  13.486   9.651   3.277  0.1050 -0.3188  0.4896
  838MOL0     C13028  13.580   9.723   3.199  0.0099  0.1900  0.0944
  838MOL0     C13029  13.552   9.858   3.160 -0.1804  0.4520 -0.1961
  838MOL0     O13030  13.643   9.911   3.072  0.1258  0.0338 -0.1958
  838MOL0     C13031  13.619  10.048   3.029 -0.0231  1.5905  0.2967
  838MOL0     C13032  13.737  10.083   2.936 -1.0024 -0.0524 -0.2877
  838MOL0     C13033  13.868  10.088   3.006 -0.3235  0.4495  0.3534
  838MOL0     C13034  13.975  10.180   2.939  0.2304  0.2648 -0.9959
  838MOL0     C13035  14.064  10.120   2.830 -0.0104 -0.1942 -0.6515
  838MOL0     C13036  14.148  10.218   2.754  0.1271  0.1657  0.2454
  838MOL0     C13037  14.281  10.156   2.713 -0.5070 -1.7183  0.1941
  838MOL0     C13038  14.369  10.263   2.652  0.0936  0.2132  0.3840
  838MOL0    Cl13039  14.281  10.335   2.512 -0.0437 -0.1068 -0.4630
  838MOL0     C13040  13.431   9.915   3.202  0.1362  0.4637 -0.1985
  838MOL0     C13041  13.341   9.841   3.277 -0.2904 -0.0886 -0.0470
  838MOL0     O13042  13.219   9.504   3.228  0.6989 -0.4109 -0.0170
  838MOL0     C13043  13.118   9.460   3.564  0.1123  0.1256  0.4208
  838MOL0     C13044  13.026   9.383   3.629 -0.0961  0.0747 -0.3728
  838MOL0     N13045  12.419   9.598   3.713 -0.1149  0.0544 -0.6219
  838MOL0     N13046  12.392   9.722   3.691 -0.4464 -1.0386  0.0154
  838MOL0     C13047  11.564  10.611   3.497  0.8387 -0.1010  0.4699
  838MOL0     C13048  11.449  10.696   3.513  0.3307  0.2300  0.6157
  838MOL0     C13049  11.024  10.825   3.628  0.4422  1.1876 -0.2296
  838MOL0     C13050  10.898  10.764   3.615 -0.6015  0.4172  0.0439
  838MOL0     C13051  10.790  10.848   3.585  0.1281 -0.3919  0.0283
  838MOL0     C13052  10.808  10.986   3.552  0.1753  0.3193  0.0143
  838MOL0     O13053  10.709  11.068   3.512  0.1043 -0.5856  0.4774
  838MOL0     C13054  10.579  11.038   3.566  0.1276  0.2990 -0.8343
  838MOL0     C13055  10.480  11.142   3.523 -0.8222 -0.1921  0.1937
  838MOL0     C13056  10.369  11.144   3.628 -1.1355 -1.0520  0.1787
  838MOL0     C13057  10.261  11.253   3.598 -0.2854  0.4540  0.1419
  838MOL0     C13058  10.185  11.199   3.484 -0.3290  0.2118 -1.2802
  838MOL0     C13059  10.110  11.166   3.395  0.5865  0.0920  0.7863
  838MOL0     C13060  10.934  11.045   3.566  0.3174 -0.4613 -0.0867
  838MOL0     C13061  11.046  10.964   3.602  0.1104 -1.2334 -0.2985
  838MOL0     C13062  11.176  11.036   3.626 -0.7190  0.1530  0.8128
  838MOL0     H13063  11.254  10.459   3.678 -0.8371  0.1892 -0.4353
  838MOL0     H13064  11.462  10.345   3.680 -0.1305 -0.1358 -0.7754
  838MOL0     H13065  11.723  10.380   3.757  1.2472 -0.5477  0.4397
  838MOL0     H13066  11.646  10.246   3.662  0.8004 -0.5649 -1.5480
  838MOL0     H13067  11.929  10.332   3.620 -0.8213  1.8749  2.6328
  838MOL0     H13068  11.835  10.209   3.534 -1.6059 -0.6209  0.5716
  838MOL0     H13069  11.797  10.068   3.709 -0.4870 -1.0558  1.6097
  838MOL0     H13070  11.842  10.179   3.832 -4.4231 -1.8077 -0.5467
  838MOL0     H13071  12.076  10.170   3.757  1.4361 -1.7776  1.6606
  838MOL0     H13072  12.006  10.004   3.796  1.2120  0.7557  1.2319
  838MOL0     H13073  11.984   9.953   3.563 -0.8518  0.4393 -0.7289
  838MOL0     H13074  12.061  10.121   3.532 -1.2567 -0.6948  0.4144
  838MOL0     H13075  12.261  10.045   3.638 -2.0680  2.7011  0.3333
  838MOL0     H13076  12.170   9.901   3.698 -1.0939 -0.0433 -1.1151
  838MOL0     H13077  12.224   9.963   3.392  1.1728 -2.5768 -1.3004
  838MOL0     H13078  12.174   9.807   3.462  3.7393 -2.8933  1.1756
  838MOL0     H13079  12.388   9.842   3.381  1.1981 -2.3144  0.4573
  838MOL0     H13080  12.431   9.942   3.538 -1.0922 -1.2376  2.4228
  838MOL0     H13081  12.374   9.592   3.399  1.5781  2.0575 -0.4477
  838MOL0     H13082  12.372   9.333   3.677  1.2064 -1.4492  0.3380
  838MOL0     H13083  12.376   9.353   3.499  0.6794 -2.1148  0.9583
  838MOL0     H13084  12.557   9.215   3.586 -0.0902 -0.4570 -2.8772
  838MOL0     H13085  12.612   9.347   3.493  0.5208 -0.4660 -0.1816
  838MOL0     H13086  12.608   9.399   3.793  2.8269 -1.9894  0.9707
  838MOL0     H13087  12.711   9.467   3.662  1.0102 -0.2366  0.7380
  838MOL0     H13088  12.710   9.187   3.774 -0.7879 -0.5009 -1.5349
  838MOL0     H13089  12.831   9.314   3.807  2.0857  1.0054 -3.2195
  838MOL0     H13090  12.857   9.233   3.383 -0.1649  0.0989 -0.8488
  838MOL0     H13091  13.014   9.405   3.250 -0.9879  0.8166  0.6037
  838MOL0     H13092  13.512   9.550   3.308 -2.1704 -1.6009 -1.3651
  838MOL0     H13093  13.670   9.676   3.160 -0.9384 -1.5946 -0.0276
  838MOL0     H13094  13.520  10.056   2.982  0.3121 -0.7165 -0.9532
  838MOL0     H13095  13.620  10.120   3.111 -0.0606 -0.6537  2.3669
  838MOL0     H13096  13.737  10.000   2.864  0.6551 -0.7163  0.4145
  838MOL0     H13097  13.720  10.181   2.892  1.1124  1.1509  1.3758
  838MOL0     H13098  13.845  10.132   3.103  1.3126 -1.2746  1.6109
  838MOL0     H13099  13.903   9.986   3.025  0.9346  0.7012 -0.5199
  838MOL0     H13100  14.040  10.205   3.023  0.5577  0.9770 -1.4506
  838MOL0     H13101  13.926  10.268   2.895 -5.2581 -1.7665  0.2741
  838MOL0     H13102  13.997  10.075   2.756 -0.3382  0.3164 -0.6709
  838MOL0     H13103  14.122  10.043   2.882  0.6895 -1.6919 -3.4375
  838MOL0     H13104  14.088  10.255   2.670  0.5761  0.0466 -0.1310
  838MOL0     H13105  14.152  10.308   2.816  2.1484  0.9844 -0.9630
  838MOL0     H13106  14.264  10.080   2.636 -0.1575  0.3073 -2.0297
  838MOL0     H13107  14.334  10.108   2.795 -0.3274 -0.2248  0.9822
  838MOL0     H13108  14.403  10.343   2.719  0.6885 -0.4192  0.8535
  838MOL0     H13109  14.460  10.219   2.610 -0.0355 -0.3493  0.6876
  838MOL0     H13110  13.419  10.017   3.166  2.0900 -0.0599 -2.6281
  838MOL0     H13111  13.256   9.890   3.324 -1.0567  0.3293 -1.7918
  838MOL0     H13112  13.188   9.519   3.623  0.1553  0.3855  0.1111
  838MOL0     H13113  13.025   9.370   3.737  1.5558 -1.0625 -0.4512
  838MOL0     H13114  11.644  10.639   3.429 -0.7983  1.0975 -1.0114
  838MOL0     H13115  11.441  10.792   3.463  1.8597 -0.5981 -1.3824
  838MOL0     H13116  10.880  10.659   3.636  0.5067  0.4588  1.3484
  838MOL0     H13117  10.689  10.808   3.594 -1.4593  3.2710  0.6040
  838MOL0     H13118  10.583  11.055   3.674 -1.4417 -2.5286 -0.2222
  838MOL0     H13119  10.542  10.937   3.544  0.5991 -0.1928  0.5152
  838MOL0     H13120  10.435  11.122   3.426 -0.1243 -0.0134 -0.1778
  838MOL0     H13121  10.516  11.246   3.515  1.2630 -0.6770  2.0397
  838MOL0     H13122  10.403  11.162   3.731  0.0636  0.7578 -0.4950
  838MOL0     H13123  10.329  11.042   3.623  1.4763 -2.1972  0.8248
  838MOL0     H13124  10.195  11.276   3.682 -0.1355 -1.9257  0.9995
  838MOL0     H13125  10.305  11.344   3.557  1.4532 -0.6514 -0.5711
  838MOL0     H13126  10.045  11.152   3.311  0.0316  0.7824  1.0849
  838MOL0     H13127  10.946  11.148   3.535 -1.0817 -0.7524 -1.7338
  838MOL0     H13128  11.147  11.139   3.650  1.5110  1.5780 -1.9693
  838MOL0     H13129  11.235  10.994   3.707  1.2435 -1.6962 -1.4414
  838MOL0     H13130  11.235  11.034   3.534 -1.2907  0.6302  0.4247
  839MOL0     O13131   8.985   9.103   4.624 -0.2458  0.3058  0.0409
  839MOL0     C13132   8.975   9.178   4.718 -0.6400 -0.2957  0.3148
  839MOL0     O13133   9.056   9.180   4.831  0.1852 -0.1261 -0.4722
  839MOL0     C13134   9.167   9.093   4.831  0.6544  0.7991  0.1142
  839MOL0     C13135   9.290   9.127   4.901 -0.1889 -0.0324  0.2803
  839MOL0     C13136   9.403   9.037   4.895  0.6830  0.3020 -0.1705
  839MOL0     C13137   9.389   8.907   4.835  0.0233 -0.3958 -0.2797
  839MOL0     O13138   9.480   8.812   4.847  0.3977  0.3110 -0.2718
  839MOL0     C13139   9.623   8.849   4.854  0.2892 -0.1742 -0.4500
  839MOL0     C13140   9.708   8.723   4.827 -0.2404 -0.0795  0.4562
  839MOL0     C13141   9.678   8.614   4.932 -0.2736  0.3898 -0.7666
  839MOL0     C13142   9.757   8.485   4.895 -0.4425  0.5917  0.6527
  839MOL0     C13143   9.758   8.371   5.002  1.0389  0.8287 -0.2107
  839MOL0     C13144   9.829   8.243   4.949  0.6562  0.3966  0.7413
  839MOL0     C13145   9.823   8.131   5.053  0.1774 -1.5523 -0.2928
  839MOL0     C13146   9.876   7.998   5.006  0.5426 -0.2437 -0.6088
  839MOL0     N13147  10.012   7.962   5.041  0.3323  0.0829  0.1296
  839MOL0     C13148  10.116   7.975   4.953  0.0826  0.7038  0.3076
  839MOL0     C13149  10.218   7.905   5.013 -0.1522 -0.1191 -0.2580
  839MOL0     C13150  10.353   7.889   4.951 -0.0006 -0.8466  0.0504
  839MOL0     C13151  10.432   7.787   5.029 -0.6764  0.3110  0.6411
  839MOL0     C13152  10.554   7.746   4.944 -0.2271 -0.4881 -0.1984
  839MOL0     C13153  10.619   7.616   4.995 -0.1315  1.4538 -0.0960
  839MOL0     O13154  10.746   7.612   4.939  0.3647 -0.8567  0.4129
  839MOL0     C13155  10.819   7.500   4.954 -0.1365 -0.2972 -0.0733
  839MOL0     C13156  10.952   7.518   4.925 -0.1584  0.1821 -0.0864
  839MOL0     C13157  11.041   7.413   4.942 -0.3158  0.0073 -0.3982
  839MOL0     C13158  10.996   7.287   4.981 -0.8519 -0.0302  0.4241
  839MOL0     C13159  11.089   7.175   5.012  0.4577  0.2162 -0.8945
  839MOL0     O13160  11.216   7.187   4.979 -0.0204  0.0726 -0.3449
  839MOL0     C13161  11.314   7.103   5.024  0.0439 -0.4836 -0.6841
  839MOL0     C13162  11.305   6.966   4.996 -0.0698  0.5394  0.3621
  839MOL0     C13163  11.408   6.883   5.034  0.5291  0.1901  0.1405
  839MOL0     C13164  11.523   6.934   5.095  0.1729 -0.4421  0.5968
  839MOL0     O13165  11.613   6.853   5.150  0.1956 -0.0303  0.0240
  839MOL0     C13166  11.659   6.738   5.078 -0.7422 -0.5225 -0.0194
  839MOL0     C13167  11.739   6.761   4.953  0.3842  0.0339 -0.5198
  839MOL0     C13168  11.886   6.774   4.987 -0.4638 -0.1849 -0.2745
  839MOL0     C13169  11.981   6.824   4.878  0.2919  0.3515  0.3482
  839MOL0     C13170  12.124   6.823   4.920  0.1849 -0.1617  0.0626
  839MOL0     C13171  12.198   6.911   4.819 -1.1260 -0.0036 -0.4384
  839MOL0     C13172  12.343   6.933   4.872 -0.2168 -0.3269  0.3253
  839MOL0     C13173  12.413   7.048   4.804 -0.0337 -0.1403 -0.2871
  839MOL0    Cl13174  12.375   7.202   4.887 -0.0906  0.2446  0.2707
  839MOL0     C13175  11.531   7.070   5.134  0.0256  0.1314  0.8531
  839MOL0     C13176  11.423   7.150   5.095 -0.0597 -0.0495  0.3972
  839MOL0     O13177  11.041   7.074   5.066 -0.0652  0.5989 -0.2547
  839MOL0     C13178  10.858   7.268   5.003 -0.8489  0.4309  0.1967
  839MOL0     C13179  10.767   7.372   4.992 -0.9496  0.5900  0.4113
  839MOL0     N13180  10.170   7.864   5.135 -0.0441  0.3693  0.3015
  839MOL0     N13181  10.049   7.891   5.152 -0.2315 -0.8565  0.4673
  839MOL0     C13182   9.267   8.864   4.783  0.1537 -0.3189  0.1743
  839MOL0     C13183   9.161   8.953   4.786  0.4707  0.1688 -0.3600
  839MOL0     C13184   8.862   9.287   4.715 -0.4780  0.8087 -0.1011
  839MOL0     C13185   8.833   9.359   4.832 -0.0917 -0.3365  0.2201
  839MOL0     C13186   8.744   9.467   4.837 -0.0628 -0.1721 -0.1305
  839MOL0     C13187   8.671   9.508   4.722  0.1740 -0.1259 -0.2014
  839MOL0     O13188   8.590   9.618   4.714  0.5198  0.1381 -0.6403
  839MOL0     C13189   8.509   9.651   4.830  0.6890  0.3109 -0.3351
  839MOL0     C13190   8.532   9.797   4.870  0.0524  0.6665  0.1170
  839MOL0     C13191   8.544   9.895   4.753  0.3632 -0.3221  0.5809
  839MOL0     C13192   8.412   9.916   4.675 -0.1692 -0.9183  0.6026
  839MOL0     C13193   8.439   9.931   4.533  0.7024 -0.9614 -0.2827
  839MOL0     C13194   8.479   9.964   4.423  0.6179 -0.5164  0.4761
  839MOL0     C13195   8.709   9.448   4.601  0.2728  0.1533 -0.4351
  839MOL0     C13196   8.783   9.328   4.603  0.1157 -0.0854  0.5090
  839MOL0     C13197   8.784   9.256   4.472 -0.2521  0.3057  0.0432
  839MOL0     H13198   9.306   9.219   4.957  0.5457  0.2995 -0.4547
  839MOL0     H13199   9.501   9.050   4.940  0.3188 -2.1332  1.5524
  839MOL0     H13200   9.641   8.927   4.780  0.3633 -0.0466 -0.2998
  839MOL0     H13201   9.645   8.893   4.952 -1.3040  0.5519 -0.3787
  839MOL0     H13202   9.810   8.763   4.823 -0.6304  0.8765 -1.8199
  839MOL0     H13203   9.674   8.695   4.727  1.5168  0.4106 -0.3125
  839MOL0     H13204   9.573   8.585   4.941  0.0672 -0.4766  0.6817
  839MOL0     H13205   9.715   8.643   5.031 -2.1703  3.1932 -0.7578
  839MOL0     H13206   9.711   8.444   4.804  0.9575 -0.2333  0.2857
  839MOL0     H13207   9.859   8.508   4.866 -0.7576 -1.6591 -2.7691
  839MOL0     H13208   9.816   8.399   5.091  4.0181 -1.7906 -1.1417
  839MOL0     H13209   9.664   8.327   5.034  1.6097 -0.6614 -0.5162
  839MOL0     H13210   9.775   8.207   4.862  0.0923 -0.7907  1.5638
  839MOL0     H13211   9.933   8.258   4.919 -0.3127  1.2381 -2.6811
  839MOL0     H13212   9.718   8.124   5.082  0.2783  1.6298  1.3480
  839MOL0     H13213   9.881   8.155   5.143 -0.4638 -0.4162 -0.1605
  839MOL0     H13214   9.804   7.936   5.061  0.9634 -1.3851 -1.3184
  839MOL0     H13215   9.857   7.987   4.899  1.2752 -0.2702 -0.7397
  839MOL0     H13216  10.121   8.029   4.859 -0.3842 -0.6496 -0.5139
  839MOL0     H13217  10.344   7.870   4.844 -0.6154  4.0245 -1.0128
  839MOL0     H13218  10.412   7.981   4.959 -1.7493  0.5475 -2.0687
  839MOL0     H13219  10.464   7.836   5.122 -0.5750  1.0232  0.2431
  839MOL0     H13220  10.374   7.700   5.059  0.9027 -1.1300 -0.2998
  839MOL0     H13221  10.633   7.821   4.949 -1.4672  0.9153 -0.8998
  839MOL0     H13222  10.513   7.735   4.843  1.2342  0.0206 -0.8802
  839MOL0     H13223  10.548   7.537   4.969  1.3209 -0.0111  0.2425
  839MOL0     H13224  10.635   7.609   5.103  0.0484 -1.1187 -0.2137
  839MOL0     H13225  10.983   7.619   4.900  0.8555 -0.4518 -1.5000
  839MOL0     H13226  11.147   7.434   4.933  0.2775 -1.9838  1.2682
  839MOL0     H13227  11.214   6.924   4.955  0.7469 -4.8112  3.1290
  839MOL0     H13228  11.402   6.776   5.019  0.5315  0.5278 -2.8462
  839MOL0     H13229  11.719   6.678   5.147 -1.8392 -0.0698  1.3910
  839MOL0     H13230  11.580   6.674   5.038  0.6137 -2.7848  0.7510
  839MOL0     H13231  11.734   6.683   4.876 -0.1969 -0.3834 -0.0755
  839MOL0     H13232  11.702   6.846   4.895 -0.0418 -0.1655 -0.5458
  839MOL0     H13233  11.886   6.847   5.068  0.7759  2.6763 -2.6574
  839MOL0     H13234  11.923   6.681   5.030  1.9108  1.3360  1.2359
  839MOL0     H13235  11.951   6.924   4.844  1.8098  0.3074 -1.2374
  839MOL0     H13236  11.972   6.762   4.789  1.3922 -1.1066  1.2128
  839MOL0     H13237  12.159   6.720   4.916 -1.3192 -0.6788 -0.2509
  839MOL0     H13238  12.131   6.867   5.020 -2.2815 -0.5124  0.4602
  839MOL0     H13239  12.195   6.871   4.717 -3.4406 -0.5266 -0.2230
  839MOL0     H13240  12.151   7.008   4.801  1.7136  0.9010 -4.7280
  839MOL0     H13241  12.402   6.841   4.870  0.2862 -0.1902  3.6336
  839MOL0     H13242  12.334   6.955   4.979  1.8219  2.9779 -0.0524
  839MOL0     H13243  12.520   7.023   4.804  0.2070  0.7330 -1.9664
  839MOL0     H13244  12.383   7.055   4.699 -0.9523 -3.1074 -0.2936
  839MOL0     H13245  11.621   7.101   5.187 -1.2047 -0.2625  3.3257
  839MOL0     H13246  11.414   7.253   5.126  0.3375 -0.1588  0.8887
  839MOL0     H13247  10.827   7.170   5.039  1.4630 -1.2676 -2.0792
  839MOL0     H13248  10.661   7.358   5.011 -1.2421  1.0846 -0.7751
  839MOL0     H13249   9.254   8.759   4.760  3.2119 -1.3009  2.3387
  839MOL0     H13250   9.071   8.907   4.748  0.2734 -0.5298  0.8933
  839MOL0     H13251   8.899   9.349   4.918  1.0109 -0.3811 -0.6122
  839MOL0     H13252   8.736   9.519   4.931  1.9522 -2.2279  1.2928
  839MOL0     H13253   8.550   9.593   4.914  1.0608 -0.7538 -1.2274
  839MOL0     H13254   8.405   9.631   4.804  0.4783 -0.0814  0.7361
  839MOL0     H13255   8.630   9.800   4.919 -1.1547  5.1643  2.9314
  839MOL0     H13256   8.461   9.841   4.940  0.3987 -1.7494  2.1087
  839MOL0     H13257   8.623   9.865   4.683 -1.3976  0.3330 -1.8238
  839MOL0     H13258   8.566   9.991   4.800  2.1561  0.3582 -1.4296
  839MOL0     H13259   8.348   9.828   4.690 -1.4871 -0.2084 -0.6971
  839MOL0     H13260   8.358  10.004   4.712 -0.5913 -0.7123 -0.4593
  839MOL0     H13261   8.515   9.977   4.323 -0.0394 -0.2323  0.2783
  839MOL0     H13262   8.660   9.484   4.511 -0.9393  0.9312  0.5090
  839MOL0     H13263   8.746   9.153   4.476 -1.4319  0.6630 -1.0952
  839MOL0     H13264   8.733   9.312   4.393 -1.5103 -0.4923  0.2521
  839MOL0     H13265   8.892   9.254   4.458 -0.3218 -0.0253 -0.4617
  840MOL0     O13266  11.020   3.183   1.293 -0.7125 -0.0591 -0.4186
  840MOL0     C13267  11.100   3.168   1.197 -0.5582  0.5565 -0.4064
  840MOL0     O13268  11.240   3.156   1.208 -0.3929  0.0459  0.5497
  840MOL0     C13269  11.299   3.189   1.330 -0.0813 -0.2868  0.7095
  840MOL0     C13270  11.276   3.312   1.385 -0.7152 -0.0828 -0.8235
  840MOL0     C13271  11.316   3.341   1.516 -0.0023 -1.0071  0.3227
  840MOL0     C13272  11.392   3.252   1.579 -0.1515  0.6707  0.1980
  840MOL0     O13273  11.430   3.255   1.713  0.0999 -0.3801  0.3831
  840MOL0     C13274  11.404   3.374   1.791 -0.7062  0.5053 -0.4033
  840MOL0     C13275  11.461   3.352   1.934 -0.0903  0.7977  0.9490
  840MOL0     C13276  11.615   3.353   1.921 -0.0971  0.1801 -0.0274
  840MOL0     C13277  11.680   3.322   2.050 -1.3123 -0.0697 -0.0839
  840MOL0     C13278  11.828   3.280   2.039  0.4881 -0.0659  1.0263
  840MOL0     C13279  11.912   3.401   1.992 -0.0312 -1.1087  0.0362
  840MOL0     C13280  12.066   3.363   2.002 -0.1160  0.2584  0.7814
  840MOL0     C13281  12.154   3.471   1.952 -0.1929  0.6018  0.4268
  840MOL0     N13282  12.292   3.463   2.008 -1.0069 -0.2827 -0.3042
  840MOL0     C13283  12.324   3.425   2.140 -0.8778 -0.1735 -0.1858
  840MOL0     C13284  12.455   3.376   2.126 -0.3226  0.5894 -0.0384
  840MOL0     C13285  12.524   3.311   2.251 -0.1802  0.3113  0.1399
  840MOL0     C13286  12.667   3.275   2.209  0.6316 -0.4087 -0.5798
  840MOL0     C13287  12.753   3.231   2.322  0.8819  0.7098  0.1740
  840MOL0     C13288  12.891   3.171   2.277 -0.5332  0.3628 -0.0601
  840MOL0     O13289  12.942   3.236   2.163  0.1937 -0.3366  0.7019
  840MOL0     C13290  13.059   3.213   2.112  0.0880 -0.4695  0.3208
  840MOL0     C13291  13.092   3.258   1.979  0.8440  0.1362 -0.6135
  840MOL0     C13292  13.214   3.222   1.913  0.1616  0.3634  0.2381
  840MOL0     C13293  13.314   3.152   1.990 -0.2051  0.1034 -0.6035
  840MOL0     C13294  13.451   3.124   1.929 -0.2701 -0.7383 -0.3254
  840MOL0     O13295  13.466   3.162   1.798 -0.2857  0.5366 -0.2665
  840MOL0     C13296  13.601   3.147   1.751  1.0459 -0.5179  0.3135
  840MOL0     C13297  13.633   3.055   1.648  0.5723 -0.9123 -0.5041
  840MOL0     C13298  13.755   3.060   1.596 -0.1511  0.4852  0.4863
  840MOL0     C13299  13.857   3.137   1.649 -0.3930 -0.0934  1.0104
  840MOL0     O13300  13.985   3.121   1.597 -0.3715 -0.7492  0.3941
  840MOL0     C13301  14.097   3.155   1.673  0.2082 -0.4717  0.2758
  840MOL0     C13302  14.222   3.135   1.597  0.6039  0.3577 -0.1618
  840MOL0     C13303  14.343   3.195   1.663 -0.6432 -0.2049  0.2524
  840MOL0     C13304  14.478   3.191   1.584  0.4321  0.1888 -0.2196
  840MOL0     C13305  14.589   3.214   1.682  0.5186  0.2575 -0.8746
  840MOL0     C13306  14.715   3.244   1.604 -0.0108 -0.1442  0.1460
  840MOL0     C13307  14.759   3.117   1.529 -0.2197  1.0152  0.7280
  840MOL0     C13308  14.904   3.116   1.496  0.0318  0.3560 -0.6545
  840MOL0    Cl13309  14.933   2.964   1.406  0.2149 -0.0381  0.3695
  840MOL0     C13310  13.825   3.225   1.750  0.3045  0.1919 -0.9860
  840MOL0     C13311  13.695   3.223   1.803  0.5165  0.6519 -0.9665
  840MOL0     O13312  13.537   3.080   1.999 -0.5409  0.0854  0.9832
  840MOL0     C13313  13.284   3.117   2.120 -0.0105 -0.6026 -0.2994
  840MOL0     C13314  13.164   3.148   2.177  0.0034 -0.2748 -0.3843
  840MOL0     N13315  12.508   3.392   1.998  0.3186  0.0022  0.2070
  840MOL0     N13316  12.404   3.440   1.925 -0.4384 -0.0050 -0.3463
  840MOL0     C13317  11.427   3.129   1.524  0.5005 -1.0377 -0.3213
  840MOL0     C13318  11.392   3.098   1.393 -0.1034 -0.4399 -0.4114
  840MOL0     C13319  11.045   3.125   1.065  0.0642 -0.1932  0.5279
  840MOL0     C13320  11.118   3.040   0.994 -0.3946 -0.3273  0.5413
  840MOL0     C13321  11.075   2.998   0.864 -0.1733  0.6132  0.4235
  840MOL0     C13322  10.953   3.051   0.813  0.5927 -0.5149  0.3572
  840MOL0     O13323  10.929   3.018   0.682 -0.6349  0.6514  0.0882
  840MOL0     C13324  10.841   3.093   0.595  0.5797 -0.2280 -0.2379
  840MOL0     C13325  10.879   3.244   0.575  0.6833  0.4508 -0.3780
  840MOL0     C13326  11.023   3.285   0.536  0.6930  0.5377  0.3774
  840MOL0     C13327  11.041   3.434   0.531 -0.5082  0.1570 -1.0077
  840MOL0     C13328  11.175   3.462   0.476  0.3410  0.0018 -0.2351
  840MOL0     C13329  11.286   3.469   0.413  0.5751  0.8755 -0.3363
  840MOL0     C13330  10.877   3.142   0.890  0.4757  0.7159  0.0474
  840MOL0     C13331  10.921   3.176   1.016 -0.3589  0.0628 -0.2465
  840MOL0     C13332  10.832   3.271   1.094  0.7762  0.9082  0.1908
  840MOL0     H13333  11.202   3.377   1.339 -0.1395  0.9346 -0.3386
  840MOL0     H13334  11.284   3.430   1.571 -1.5971  0.1262 -2.2480
  840MOL0     H13335  11.443   3.463   1.742 -0.4166  1.2429  1.0947
  840MOL0     H13336  11.296   3.382   1.810 -1.1792  0.2055 -2.6680
  840MOL0     H13337  11.426   3.256   1.973  0.2946  0.3872  0.2914
  840MOL0     H13338  11.423   3.430   2.001  0.6555  0.6158  1.5949
  840MOL0     H13339  11.652   3.447   1.877 -2.1840  1.5017  0.8542
  840MOL0     H13340  11.640   3.270   1.854 -0.0631  2.3602 -2.9556
  840MOL0     H13341  11.678   3.404   2.123 -2.9387 -2.0426  2.2349
  840MOL0     H13342  11.624   3.245   2.103 -0.2504  1.0680  2.9224
  840MOL0     H13343  11.854   3.249   2.141 -1.7735 -0.1483  1.6465
  840MOL0     H13344  11.840   3.187   1.984 -1.3497  1.0061 -1.3739
  840MOL0     H13345  11.877   3.431   1.893 -0.7749  1.6656  1.0474
  840MOL0     H13346  11.887   3.487   2.055 -4.4538 -2.1240  0.0222
  840MOL0     H13347  12.083   3.270   1.948  0.2193  0.5259  0.4167
  840MOL0     H13348  12.084   3.347   2.108  0.2119 -0.4032  0.6306
  840MOL0     H13349  12.152   3.477   1.843 -0.8720  0.1162  0.4043
  840MOL0     H13350  12.114   3.568   1.985 -1.9480 -0.5169  1.7712
  840MOL0     H13351  12.271   3.439   2.233  0.5997 -1.9450  0.9911
  840MOL0     H13352  12.511   3.383   2.331  0.1968  2.0832 -1.3369
  840MOL0     H13353  12.471   3.220   2.282 -0.5210  0.6900  0.6846
  840MOL0     H13354  12.668   3.208   2.123 -0.1412 -1.1963  0.0055
  840MOL0     H13355  12.713   3.369   2.178  0.0710 -0.1527 -0.6599
  840MOL0     H13356  12.707   3.152   2.381  0.0398  2.0239  1.3387
  840MOL0     H13357  12.770   3.317   2.388  1.4059  1.3003 -0.7007
  840MOL0     H13358  12.891   3.062   2.271 -0.7091  0.3587 -0.0001
  840MOL0     H13359  12.954   3.207   2.359  0.4993  4.0656 -2.2346
  840MOL0     H13360  13.013   3.317   1.934 -0.1341 -2.3117 -2.2883
  840MOL0     H13361  13.229   3.262   1.814  0.0719 -1.3967 -0.5118
  840MOL0     H13362  13.557   2.987   1.614  0.4461 -1.0527  0.0506
  840MOL0     H13363  13.787   2.984   1.525  0.9888 -0.1695  1.6654
  840MOL0     H13364  14.083   3.260   1.704  1.6056 -0.8265  2.3311
  840MOL0     H13365  14.110   3.094   1.762 -0.4861 -1.1517 -0.0800
  840MOL0     H13366  14.223   3.026   1.591  0.9591  0.3227  0.4513
  840MOL0     H13367  14.215   3.176   1.495  2.2975  0.9799 -0.0655
  840MOL0     H13368  14.325   3.299   1.692  2.1399  0.1143  1.1509
  840MOL0     H13369  14.352   3.141   1.758 -4.2547 -1.8557 -0.1680
  840MOL0     H13370  14.466   3.274   1.513 -0.7539  1.5175  1.4269
  840MOL0     H13371  14.487   3.097   1.528  3.5028  0.2926 -0.0581
  840MOL0     H13372  14.600   3.131   1.752  0.3110 -0.1021 -1.2716
  840MOL0     H13373  14.565   3.304   1.741 -0.3376  0.1257 -1.0110
  840MOL0     H13374  14.711   3.335   1.543  0.9010  0.6753  1.2848
  840MOL0     H13375  14.790   3.267   1.680  0.0215  1.1875 -0.2723
  840MOL0     H13376  14.700   3.096   1.439  1.0625  0.1495  0.0668
  840MOL0     H13377  14.735   3.036   1.598 -0.5953 -0.9312 -1.5714
  840MOL0     H13378  14.926   3.206   1.439  3.2279  0.3376  0.3851
  840MOL0     H13379  14.959   3.116   1.590 -2.8138  1.9938  1.1567
  840MOL0     H13380  13.903   3.294   1.782 -1.9104  1.6972  1.6345
  840MOL0     H13381  13.661   3.299   1.873 -0.3931 -1.2149  0.7209
  840MOL0     H13382  13.346   3.050   2.180  2.3282  0.0074 -1.8946
  840MOL0     H13383  13.165   3.096   2.272  1.6691 -0.4589 -0.4730
  840MOL0     H13384  11.488   3.064   1.586  0.4686 -0.2300  0.5754
  840MOL0     H13385  11.421   3.006   1.344 -1.1152 -0.6517 -0.6284
  840MOL0     H13386  11.209   2.994   1.030  0.6733  1.1762 -0.1571
  840MOL0     H13387  11.126   2.920   0.809 -2.0012 -3.3365  3.7580
  840MOL0     H13388  10.739   3.093   0.634 -0.0432  1.3351 -1.7305
  840MOL0     H13389  10.830   3.043   0.498 -1.8685 -1.6772  0.6967
  840MOL0     H13390  10.846   3.278   0.674  1.4888  1.6727 -0.5198
  840MOL0     H13391  10.812   3.278   0.496  1.5123  1.4211 -0.6723
  840MOL0     H13392  11.030   3.232   0.441  0.6521  1.3958 -0.1124
  840MOL0     H13393  11.093   3.235   0.604  1.1760 -1.1214 -1.2689
  840MOL0     H13394  10.968   3.492   0.473  0.0449  1.5621 -0.3530
  840MOL0     H13395  11.033   3.469   0.634 -0.2591 -3.0011  0.1757
  840MOL0     H13396  11.381   3.481   0.365 -0.1020  0.0047 -1.9749
  840MOL0     H13397  10.782   3.178   0.852 -0.1115 -0.0976  0.7147
  840MOL0     H13398  10.884   3.326   1.173  0.9213 -0.9028  1.4050
  840MOL0     H13399  10.773   3.334   1.027 -1.6167 -1.8001 -0.4626
  840MOL0     H13400  10.749   3.221   1.144 -1.0752  3.4260 -0.1389
  841MOL0     O13401   2.599   0.188  10.855  0.6748  0.1240  0.0539
  841MOL0     C13402   2.508   0.097  10.872  0.0707  0.3915  0.0171
  841MOL0     O13403   2.514  -0.004  10.962 -0.1891  0.2376 -0.4223
  841MOL0     C13404   2.644  -0.053  10.987  0.2740  0.8382  0.0289
  841MOL0     C13405   2.664  -0.109  11.115 -0.1124 -0.8790 -0.1839
  841MOL0     C13406   2.789  -0.163  11.138  0.4217 -0.3065  0.5611
  841MOL0     C13407   2.891  -0.166  11.051  0.0175 -0.8476 -0.1199
  841MOL0     O13408   3.009  -0.238  11.095  0.0128  0.1387 -0.0324
  841MOL0     C13409   3.051  -0.340  11.006  0.1064 -0.0285 -0.5463
  841MOL0     C13410   3.124  -0.447  11.076  0.4014 -0.8613  0.2936
  841MOL0     C13411   3.234  -0.405  11.174 -0.6475  0.8904 -0.4533
  841MOL0     C13412   3.184  -0.405  11.316  0.9548  0.0802 -0.1522
  841MOL0     C13413   3.278  -0.368  11.432 -0.3626  0.0804  0.4744
  841MOL0     C13414   3.207  -0.373  11.567  0.1707  0.3509  0.0894
  841MOL0     C13415   3.298  -0.343  11.684  0.0655  0.0310  0.0695
  841MOL0     C13416   3.371  -0.212  11.669 -0.2273 -0.2336 -0.7866
  841MOL0     N13417   3.432  -0.164  11.800  0.2871 -0.7914 -0.1919
  841MOL0     C13418   3.535  -0.221  11.860  0.3274 -0.2068 -0.0049
  841MOL0     C13419   3.551  -0.141  11.970  0.0766 -0.0237  0.0177
  841MOL0     C13420   3.668  -0.151  12.064  0.3762  0.6178 -0.6354
  841MOL0     C13421   3.800  -0.163  11.983 -0.2884  0.0816  0.4496
  841MOL0     C13422   3.909  -0.233  12.054 -0.2952 -0.1659 -0.0565
  841MOL0     C13423   4.052  -0.181  11.994  0.5698  0.1285 -0.2215
  841MOL0     O13424   4.152  -0.251  12.057  0.0223 -0.1965 -0.8933
  841MOL0     C13425   4.272  -0.187  12.061  0.1792  0.2604 -0.3273
  841MOL0     C13426   4.308  -0.080  11.974 -0.1254  1.4616  0.5743
  841MOL0     C13427   4.428  -0.014  11.982  0.0032 -0.1807  0.0724
  841MOL0     C13428   4.517  -0.055  12.078  0.0183  0.4139 -0.2439
  841MOL0     C13429   4.653   0.010  12.084 -0.5990 -0.5360 -0.3350
  841MOL0     O13430   4.748  -0.054  12.156 -0.1234  0.3055 -0.5207
  841MOL0     C13431   4.852   0.027  12.203 -0.3078 -0.4219 -0.1928
  841MOL0     C13432   4.843   0.128  12.301 -0.2786  0.2280  0.0674
  841MOL0     C13433   4.955   0.202  12.344  0.5337 -0.7781  0.5091
  841MOL0     C13434   5.074   0.176  12.277 -0.7546 -0.0232 -0.4994
  841MOL0     O13435   5.184   0.257  12.313 -0.0661 -0.3036 -0.3932
  841MOL0     C13436   5.305   0.219  12.258  0.5283  0.1185  0.7418
  841MOL0     C13437   5.402   0.329  12.285  0.2081  0.0821  0.1629
  841MOL0     C13438   5.539   0.278  12.249 -0.0292  0.3272 -0.6657
  841MOL0     C13439   5.635   0.395  12.258  0.3379  0.5050 -0.0621
  841MOL0     C13440   5.774   0.341  12.246  0.0761 -0.4634  0.2514
  841MOL0     C13441   5.888   0.452  12.239  0.4799 -0.2501  0.3841
  841MOL0     C13442   6.025   0.388  12.212 -0.3774  0.1656  0.5805
  841MOL0     C13443   6.123   0.502  12.251  0.1606 -0.1649 -0.1666
  841MOL0    Cl13444   6.290   0.454  12.232  0.0434 -0.4989  0.1631
  841MOL0     C13445   5.082   0.084  12.172  0.1991 -0.2347  0.6512
  841MOL0     C13446   4.972   0.014  12.135 -0.1082  0.2382  0.8504
  841MOL0     O13447   4.671   0.118  12.022  0.0963 -0.1193 -0.4983
  841MOL0     C13448   4.481  -0.160  12.160  0.6600 -0.0830  0.1043
  841MOL0     C13449   4.363  -0.226  12.158 -0.2371  0.9938  0.1284
  841MOL0     N13450   3.453  -0.039  11.968  0.3805  0.1406 -0.4772
  841MOL0     N13451   3.390  -0.050  11.864 -0.0221 -0.5062  0.8175
  841MOL0     C13452   2.878  -0.100  10.928  0.0447  0.2231  0.2562
  841MOL0     C13453   2.752  -0.042  10.898 -0.3227 -0.6977 -0.8945
  841MOL0     C13454   2.373   0.121  10.802  0.6032  0.1495 -0.7574
  841MOL0     C13455   2.289   0.002  10.809  0.0627 -0.7656 -0.4868
  841MOL0     C13456   2.156   0.011  10.748 -0.3443 -0.2265 -0.8080
  841MOL0     C13457   2.115   0.129  10.687 -0.1230  0.0679 -0.0900
  841MOL0     O13458   1.998   0.140  10.624  0.1166 -0.3115  0.4945
  841MOL0     C13459   1.882   0.116  10.704  0.1584 -0.4393 -0.1732
  841MOL0     C13460   1.752   0.092  10.624  0.1309 -0.6020 -0.2110
  841MOL0     C13461   1.775  -0.029  10.531  0.1473 -0.0846 -0.0218
  841MOL0     C13462   1.645  -0.087  10.478  0.6273 -0.6880  0.7554
  841MOL0     C13463   1.592  -0.000  10.368 -0.3609  0.4102  0.2669
  841MOL0     C13464   1.564   0.048  10.258 -0.7946  0.0723  0.0840
  841MOL0     C13465   2.208   0.243  10.686  0.2815 -0.8219 -0.2206
  841MOL0     C13466   2.334   0.234  10.736 -0.3349  0.3339  0.0527
  841MOL0     C13467   2.420   0.364  10.731  0.3799 -0.1301 -0.0102
  841MOL0     H13468   2.585  -0.123  11.189  0.0329  1.6366  0.5420
  841MOL0     H13469   2.817  -0.211  11.232  1.1546  0.1397  0.5840
  841MOL0     H13470   2.971  -0.386  10.949  1.0262 -2.5182  0.0640
  841MOL0     H13471   3.117  -0.288  10.935  0.3862 -0.5338 -0.6598
  841MOL0     H13472   3.156  -0.516  10.997 -1.1794  2.6419 -3.8303
  841MOL0     H13473   3.051  -0.511  11.128  1.4311 -2.8475 -0.5840
  841MOL0     H13474   3.271  -0.306  11.147 -1.3250  1.7942  1.6666
  841MOL0     H13475   3.319  -0.474  11.180  0.6177  2.4908  2.5857
  841MOL0     H13476   3.101  -0.336  11.333  0.3220 -0.9006  0.9440
  841MOL0     H13477   3.144  -0.506  11.333 -0.5264  1.0963  3.3222
  841MOL0     H13478   3.368  -0.431  11.429 -0.9158 -0.6785 -1.9088
  841MOL0     H13479   3.310  -0.265  11.415 -1.7989  0.6883  1.2601
  841MOL0     H13480   3.131  -0.296  11.551  1.0349  1.2496  0.1711
  841MOL0     H13481   3.153  -0.467  11.577 -1.1743  1.0958  0.0060
  841MOL0     H13482   3.379  -0.417  11.679  0.1894  0.2420 -2.4822
  841MOL0     H13483   3.237  -0.347  11.775 -2.6468 -0.6218 -1.6533
  841MOL0     H13484   3.451  -0.221  11.595 -1.7207  0.1101 -2.5362
  841MOL0     H13485   3.314  -0.130  11.624 -1.7330 -1.3358 -0.9866
  841MOL0     H13486   3.596  -0.300  11.819 -0.7009 -0.7238 -0.5861
  841MOL0     H13487   3.666  -0.065  12.131 -0.7512 -0.0383  0.1993
  841MOL0     H13488   3.659  -0.250  12.109 -3.1256  1.1828  0.1329
  841MOL0     H13489   3.778  -0.211  11.887 -0.5134 -1.7488  1.3729
  841MOL0     H13490   3.832  -0.059  11.970 -2.3928  0.8231  0.8930
  841MOL0     H13491   3.900  -0.342  12.062  1.5096 -0.2174  2.2545
  841MOL0     H13492   3.916  -0.184  12.151  0.5424  0.7397 -0.5498
  841MOL0     H13493   4.058  -0.072  12.001  0.4573  0.4246 -3.2839
  841MOL0     H13494   4.047  -0.210  11.889 -1.0331  0.8590 -0.3795
  841MOL0     H13495   4.238  -0.045  11.899 -0.9045 -0.4187  0.3839
  841MOL0     H13496   4.441   0.074  11.920  0.0935  0.2690  0.7212
  841MOL0     H13497   4.754   0.144  12.361  0.2195 -0.1788  0.9296
  841MOL0     H13498   4.944   0.264  12.433 -0.9700 -1.6832  0.9867
  841MOL0     H13499   5.338   0.126  12.305  1.6932  0.5522  0.8193
  841MOL0     H13500   5.304   0.218  12.148  0.4110  2.9303  0.6394
  841MOL0     H13501   5.374   0.405  12.211  1.4116  0.1467 -0.2655
  841MOL0     H13502   5.399   0.369  12.386 -0.0491 -0.8209  0.5189
  841MOL0     H13503   5.567   0.207  12.327  1.7497 -0.7797 -2.2135
  841MOL0     H13504   5.543   0.227  12.152  2.0252  0.7071 -0.8402
  841MOL0     H13505   5.614   0.446  12.352 -3.1806  0.1206 -0.5063
  841MOL0     H13506   5.624   0.467  12.177  0.9160  1.2598  0.5097
  841MOL0     H13507   5.794   0.284  12.155  3.2581  0.6339  0.1532
  841MOL0     H13508   5.788   0.277  12.334  3.3255 -1.3674 -0.7746
  841MOL0     H13509   5.877   0.526  12.158  0.7835 -1.1041 -0.4541
  841MOL0     H13510   5.881   0.498  12.337  0.4556 -0.6372  0.5647
  841MOL0     H13511   6.043   0.357  12.108 -2.3418  0.1206  0.2259
  841MOL0     H13512   6.031   0.294  12.267  0.2295 -0.3540 -0.3344
  841MOL0     H13513   6.099   0.582  12.181  2.7589 -1.6787 -3.0564
  841MOL0     H13514   6.112   0.527  12.356 -0.4102  0.9676 -0.4821
  841MOL0     H13515   5.171   0.054  12.118 -1.6233 -1.1575 -2.0406
  841MOL0     H13516   4.988  -0.061  12.058  2.7306  1.0581  0.5512
  841MOL0     H13517   4.544  -0.210  12.234  0.1711  1.5841  1.7218
  841MOL0     H13518   4.346  -0.310  12.225  0.4307 -0.0366 -0.9640
  841MOL0     H13519   2.957  -0.095  10.855  0.2488  0.9496  0.5204
  841MOL0     H13520   2.733   0.013  10.807  0.8999 -0.0494 -0.7830
  841MOL0     H13521   2.307  -0.088  10.867 -1.4899 -0.5285  0.4163
  841MOL0     H13522   2.083  -0.068  10.752 -1.4587  0.7406 -1.4451
  841MOL0     H13523   1.876   0.209  10.761  2.7232  0.8769 -1.8587
  841MOL0     H13524   1.892   0.032  10.773 -2.5354 -0.2021  0.6089
  841MOL0     H13525   1.737   0.177  10.557  0.5251 -0.9603 -0.7622
  841MOL0     H13526   1.665   0.077  10.688  1.0252 -0.7522  1.0056
  841MOL0     H13527   1.817  -0.114  10.586 -2.2452 -2.3398 -1.4502
  841MOL0     H13528   1.836  -0.012  10.441 -1.8108 -2.5362 -1.9460
  841MOL0     H13529   1.662  -0.186  10.436 -0.5192 -0.5302 -0.1358
  841MOL0     H13530   1.571  -0.107  10.556  0.1701 -4.8843 -0.5010
  841MOL0     H13531   1.533   0.081  10.161 -1.5299 -0.9604 -0.0494
  841MOL0     H13532   2.167   0.331  10.637 -1.2108 -1.8818 -0.9687
  841MOL0     H13533   2.519   0.353  10.686  1.3520  0.0430  2.0218
  841MOL0     H13534   2.370   0.432  10.661 -1.7753  0.7935  2.2590
  841MOL0     H13535   2.437   0.415  10.826  1.7586 -1.8412  0.6959
  842MOL0     O13536   2.610   6.331   2.384  0.3917  0.1466  0.6459
  842MOL0     C13537   2.539   6.319   2.286  0.1355  0.4429  0.1277
  842MOL0     O13538   2.573   6.356   2.157 -0.4874  0.0769 -0.6346
  842MOL0     C13539   2.684   6.424   2.120 -0.2109 -0.5868  0.8795
  842MOL0     C13540   2.667   6.545   2.052  0.1129  0.5617  0.0874
  842MOL0     C13541   2.778   6.613   2.003 -0.2768 -0.6100 -0.2941
  842MOL0     C13542   2.914   6.571   2.038 -0.0177  0.2353 -0.4063
  842MOL0     O13543   3.026   6.641   2.006  0.2113 -0.4137 -0.4175
  842MOL0     C13544   3.022   6.787   1.996  0.1357 -0.2331 -0.0508
  842MOL0     C13545   3.166   6.842   1.983 -0.4744 -0.1721  0.5875
  842MOL0     C13546   3.251   6.823   2.117  0.1428 -0.7211  0.3196
  842MOL0     C13547   3.331   6.694   2.104  0.2546 -0.1797 -0.4217
  842MOL0     C13548   3.461   6.700   2.187 -0.0185 -0.0101  0.1178
  842MOL0     C13549   3.455   6.729   2.333  0.2234 -0.4694 -0.9938
  842MOL0     C13550   3.598   6.710   2.392  0.0861 -0.8039 -0.4457
  842MOL0     C13551   3.694   6.819   2.344  0.2432 -1.1568 -0.3319
  842MOL0     N13552   3.830   6.791   2.387  0.1782  0.6620  0.2430
  842MOL0     C13553   3.885   6.756   2.501 -0.9463 -0.5022  0.6901
  842MOL0     C13554   4.024   6.751   2.478  0.3908 -0.0924 -0.4336
  842MOL0     C13555   4.130   6.722   2.578  0.4747  0.8216  0.4034
  842MOL0     C13556   4.111   6.587   2.645 -0.0360 -0.4161 -0.0652
  842MOL0     C13557   4.214   6.570   2.758  0.3244 -0.3405  0.4302
  842MOL0     C13558   4.154   6.445   2.838  0.4613  0.3808 -0.1661
  842MOL0     O13559   4.261   6.384   2.910  0.5533 -0.5862  0.2872
  842MOL0     C13560   4.369   6.319   2.848 -0.0514 -0.0557 -0.2785
  842MOL0     C13561   4.484   6.332   2.927 -0.5211  0.3895 -0.6756
  842MOL0     C13562   4.595   6.256   2.889  0.1804  0.3519 -0.9660
  842MOL0     C13563   4.588   6.158   2.790 -1.4647 -0.0304  0.1014
  842MOL0     C13564   4.697   6.048   2.767  0.1864 -0.2582 -0.5605
  842MOL0     O13565   4.681   5.968   2.660  0.3366 -0.0708  0.6747
  842MOL0     C13566   4.786   5.884   2.618 -0.3534  0.1029 -0.1422
  842MOL0     C13567   4.881   5.822   2.704 -0.5217  0.1867 -0.0912
  842MOL0     C13568   4.980   5.729   2.646  0.3092 -0.0009 -0.6538
  842MOL0     C13569   4.969   5.694   2.511 -0.2823 -0.4907 -0.1792
  842MOL0     O13570   5.054   5.600   2.467  0.3174  0.1943  0.3186
  842MOL0     C13571   5.068   5.579   2.325  0.3071  0.6357 -0.6808
  842MOL0     C13572   5.180   5.472   2.297  0.9788 -0.3031  0.4486
  842MOL0     C13573   5.311   5.534   2.327  0.7112 -0.6136  0.1445
  842MOL0     C13574   5.370   5.624   2.221  1.5017  0.4472  0.2444
  842MOL0     C13575   5.497   5.696   2.259 -0.7483 -1.0904 -0.4942
  842MOL0     C13576   5.570   5.754   2.141  0.7148 -0.2676  0.0925
  842MOL0     C13577   5.712   5.799   2.179  0.5750  0.1519 -0.0860
  842MOL0     C13578   5.774   5.851   2.050  0.2526 -0.0178 -0.3555
  842MOL0    Cl13579   5.928   5.942   2.070 -0.1301 -0.5408 -0.4772
  842MOL0     C13580   4.883   5.762   2.427  0.3448 -0.0651  0.5894
  842MOL0     C13581   4.798   5.863   2.484  0.5430  0.1367 -0.2433
  842MOL0     O13582   4.789   6.045   2.851 -0.2367 -0.1259 -0.8847
  842MOL0     C13583   4.472   6.149   2.713 -0.1459  0.6510  0.7919
  842MOL0     C13584   4.370   6.235   2.736  0.6984  0.6452 -0.5469
  842MOL0     N13585   4.043   6.771   2.351  0.7869  0.2430  0.5421
  842MOL0     N13586   3.930   6.791   2.294 -0.4837  0.1976  0.2292
  842MOL0     C13587   2.928   6.451   2.103 -0.4166  0.9204 -0.5110
  842MOL0     C13588   2.816   6.381   2.151  0.5992  0.2045  0.0818
  842MOL0     C13589   2.394   6.262   2.300  0.0663 -0.1834 -0.6923
  842MOL0     C13590   2.316   6.281   2.186  0.7615  0.2158 -0.3482
  842MOL0     C13591   2.188   6.221   2.182 -0.2523  0.2223  0.1395
  842MOL0     C13592   2.138   6.153   2.294  0.0695 -0.7995  0.7024
  842MOL0     O13593   2.015   6.094   2.313 -0.2677  0.6348  1.3274
  842MOL0     C13594   1.914   6.105   2.210 -0.4165  0.1709  0.1871
  842MOL0     C13595   1.802   6.011   2.241  0.5727 -0.4047  0.0362
  842MOL0     C13596   1.739   6.037   2.379 -0.1183  0.3357  0.6499
  842MOL0     C13597   1.638   5.923   2.402  0.4601  0.4410  0.0556
  842MOL0     C13598   1.571   5.950   2.530 -0.6896 -0.2883 -0.3010
  842MOL0     C13599   1.511   5.982   2.627  0.7265 -0.1979 -0.2575
  842MOL0     C13600   2.219   6.141   2.406  0.2342 -0.2901 -0.2797
  842MOL0     C13601   2.349   6.197   2.417 -1.2204 -0.6501 -0.3595
  842MOL0     C13602   2.434   6.192   2.534 -0.1875  0.0172 -0.1926
  842MOL0     H13603   2.572   6.593   2.031 -0.0292  0.8841  1.3484
  842MOL0     H13604   2.764   6.697   1.936 -0.3184 -0.0809  0.3620
  842MOL0     H13605   2.971   6.821   1.905 -1.3765  0.2943  0.9515
  842MOL0     H13606   2.983   6.842   2.082 -1.3217  2.3293 -2.1720
  842MOL0     H13607   3.152   6.947   1.956  3.5239  0.5967  0.9491
  842MOL0     H13608   3.228   6.806   1.901  0.1667  0.0475  0.9712
  842MOL0     H13609   3.185   6.816   2.205  0.7888  2.0126  1.1395
  842MOL0     H13610   3.305   6.917   2.132 -3.0838  1.1272  1.4465
  842MOL0     H13611   3.259   6.620   2.138 -0.4317  0.5040 -0.3646
  842MOL0     H13612   3.364   6.675   2.002  1.2389  2.1470 -0.6008
  842MOL0     H13613   3.502   6.599   2.175 -0.6099 -0.2083 -0.3120
  842MOL0     H13614   3.525   6.773   2.137 -1.0795  0.9190  0.0904
  842MOL0     H13615   3.409   6.828   2.341 -0.0953 -0.7214  4.8275
  842MOL0     H13616   3.383   6.660   2.378  1.0416 -0.5541  0.2556
  842MOL0     H13617   3.628   6.605   2.381  0.5847 -0.9206  1.6490
  842MOL0     H13618   3.579   6.718   2.500  0.3789 -2.0805 -0.2794
  842MOL0     H13619   3.692   6.835   2.236  1.8591  0.2025 -0.1935
  842MOL0     H13620   3.651   6.903   2.399 -1.2243 -2.4453  0.5853
  842MOL0     H13621   3.844   6.741   2.600 -0.3474 -3.6483  0.5766
  842MOL0     H13622   4.226   6.726   2.527 -0.7409  0.0105 -2.1139
  842MOL0     H13623   4.126   6.807   2.647  0.6538  2.3350 -1.3801
  842MOL0     H13624   4.009   6.583   2.685 -0.0521  0.5718  0.0200
  842MOL0     H13625   4.124   6.510   2.569 -1.2090 -0.4130 -0.2880
  842MOL0     H13626   4.219   6.660   2.819  1.1854  1.0391 -1.5675
  842MOL0     H13627   4.310   6.542   2.713 -0.2289  0.0014 -1.0388
  842MOL0     H13628   4.110   6.365   2.777  1.2255 -1.4221  1.5228
  842MOL0     H13629   4.080   6.474   2.913 -0.4203  0.0317 -0.8881
  842MOL0     H13630   4.495   6.399   3.012  2.7963 -1.1956  0.3347
  842MOL0     H13631   4.680   6.269   2.955  0.7881 -3.2101 -0.8444
  842MOL0     H13632   4.881   5.842   2.811 -0.9871  0.3632 -0.1225
  842MOL0     H13633   5.052   5.680   2.710  1.3874 -0.0560 -1.8621
  842MOL0     H13634   4.970   5.535   2.301 -0.3312  0.1810  2.3529
  842MOL0     H13635   5.093   5.676   2.282  2.3648 -0.4628 -2.1078
  842MOL0     H13636   5.154   5.394   2.370 -1.9531  2.1568  2.3212
  842MOL0     H13637   5.180   5.434   2.194 -0.3400  1.4503 -0.2555
  842MOL0     H13638   5.299   5.582   2.424  1.8584 -0.4997  0.2484
  842MOL0     H13639   5.382   5.450   2.327  0.5702 -0.7349 -0.3416
  842MOL0     H13640   5.288   5.690   2.192  1.1926  0.3984  0.9875
  842MOL0     H13641   5.396   5.568   2.130 -1.7638  0.4349 -0.8033
  842MOL0     H13642   5.570   5.635   2.313  1.8923  1.1475 -1.3162
  842MOL0     H13643   5.467   5.767   2.337 -0.8389 -2.1882  0.4902
  842MOL0     H13644   5.564   5.685   2.057  0.2844  0.1408 -0.2165
  842MOL0     H13645   5.525   5.848   2.108  2.1555  0.9259  1.4049
  842MOL0     H13646   5.771   5.714   2.217 -1.8373 -1.5538  0.0755
  842MOL0     H13647   5.704   5.874   2.259  2.1852  1.7381 -1.3467
  842MOL0     H13648   5.799   5.769   1.982  1.9632  0.3327 -0.1974
  842MOL0     H13649   5.698   5.911   2.000  0.3192  1.1641  0.9125
  842MOL0     H13650   4.870   5.733   2.324  2.2481 -1.5680  0.7078
  842MOL0     H13651   4.729   5.917   2.419  1.0397  0.7047 -0.3071
  842MOL0     H13652   4.464   6.083   2.627  1.6532  2.1420 -0.5927
  842MOL0     H13653   4.284   6.227   2.670  2.0541  1.1536 -2.4762
  842MOL0     H13654   3.030   6.425   2.127 -0.3252 -1.3838 -2.9459
  842MOL0     H13655   2.831   6.297   2.218  0.4160 -0.2710 -0.4747
  842MOL0     H13656   2.340   6.325   2.090 -2.4372 -2.2022 -2.4689
  842MOL0     H13657   2.126   6.229   2.093  1.8777 -2.1478 -1.6867
  842MOL0     H13658   1.955   6.076   2.113 -2.4736  0.3046 -0.7748
  842MOL0     H13659   1.878   6.208   2.200 -0.5231  0.1049 -0.0947
  842MOL0     H13660   1.845   5.912   2.227  0.0097 -0.9653  2.0518
  842MOL0     H13661   1.727   6.025   2.162  1.1400  0.1606 -0.4187
  842MOL0     H13662   1.690   6.134   2.379 -0.6136  0.1206 -0.9876
  842MOL0     H13663   1.815   6.031   2.458 -0.2065  0.5348  0.7479
  842MOL0     H13664   1.574   5.919   2.313  0.5534 -1.0835  0.0328
  842MOL0     H13665   1.667   5.818   2.413 -0.9303 -0.0831 -0.8967
  842MOL0     H13666   1.464   6.000   2.722  1.8857 -1.3519  0.5570
  842MOL0     H13667   2.192   6.076   2.489  2.6519  0.6685  1.3710
  842MOL0     H13668   2.389   6.160   2.629  1.4030  2.4720  1.5098
  842MOL0     H13669   2.523   6.129   2.520  1.0756  1.3095  1.5899
  842MOL0     H13670   2.468   6.291   2.566  3.0812 -0.7784 -0.8084
  843MOL0     O13671   2.836   3.623   3.622 -0.6200  0.0759 -1.1142
  843MOL0     C13672   2.839   3.518   3.566  0.5975  0.3305 -0.4660
  843MOL0     O13673   2.916   3.411   3.581 -0.1564  0.2450 -0.2787
  843MOL0     C13674   3.027   3.411   3.665 -0.0562  0.0994 -0.3290
  843MOL0     C13675   3.074   3.291   3.708 -0.2130 -0.4128 -0.0375
  843MOL0     C13676   3.188   3.279   3.788 -0.3045  0.4339 -0.0550
  843MOL0     C13677   3.261   3.388   3.822  0.4685 -0.1895  0.4532
  843MOL0     O13678   3.374   3.374   3.899  0.2551  0.8299  0.3486
  843MOL0     C13679   3.442   3.243   3.908 -0.0305  0.0413  0.2175
  843MOL0     C13680   3.578   3.285   3.963 -0.0153 -0.6093 -0.1481
  843MOL0     C13681   3.674   3.172   4.005  0.0715  0.3955 -0.8560
  843MOL0     C13682   3.633   3.114   4.144 -0.1140 -0.1650  0.8965
  843MOL0     C13683   3.733   3.002   4.187  0.5671 -0.3642 -0.0276
  843MOL0     C13684   3.743   2.996   4.339  0.8205  0.0200 -0.5612
  843MOL0     C13685   3.844   2.891   4.385 -0.1024  0.5701  0.4356
  843MOL0     C13686   3.964   2.956   4.456 -0.3465 -0.5579 -0.0867
  843MOL0     N13687   4.051   2.850   4.497  0.3631 -0.4769  0.3074
  843MOL0     C13688   4.022   2.768   4.603  0.0553  0.6368  0.6386
  843MOL0     C13689   4.140   2.707   4.639 -0.5697  0.5612 -0.3433
  843MOL0     C13690   4.163   2.605   4.752 -0.1552  0.7246  0.2316
  843MOL0     C13691   4.283   2.659   4.825  0.6985  0.1727 -0.5409
  843MOL0     C13692   4.325   2.564   4.932  0.6945  0.5034  0.7738
  843MOL0     C13693   4.468   2.595   4.982  0.3213  0.1330  0.1835
  843MOL0     O13694   4.561   2.530   4.891 -0.4488 -0.2016  0.7381
  843MOL0     C13695   4.698   2.537   4.903  0.4876  0.1009  0.7167
  843MOL0     C13696   4.774   2.496   4.796  0.5728 -0.5928  0.6593
  843MOL0     C13697   4.918   2.496   4.801  0.8223  0.3449  0.2585
  843MOL0     C13698   4.983   2.540   4.917  0.6891 -0.0804 -0.0739
  843MOL0     C13699   5.131   2.525   4.935  0.9819  0.0577  0.0699
  843MOL0     O13700   5.197   2.469   4.828 -0.6054 -0.1439 -0.4795
  843MOL0     C13701   5.345   2.470   4.826  0.2099 -0.3372 -0.1017
  843MOL0     C13702   5.417   2.361   4.770 -0.0505 -0.2240  0.0211
  843MOL0     C13703   5.556   2.356   4.767 -0.2353 -0.4090 -0.7697
  843MOL0     C13704   5.631   2.467   4.827  0.3640  0.6307 -0.4695
  843MOL0     O13705   5.765   2.469   4.820 -0.2629 -0.3445  0.2161
  843MOL0     C13706   5.830   2.376   4.911 -0.0118  0.4828 -0.4469
  843MOL0     C13707   5.967   2.431   4.958 -0.0707  0.3624  0.1535
  843MOL0     C13708   6.053   2.475   4.836  0.4282 -0.2331  0.1365
  843MOL0     C13709   6.202   2.433   4.866  0.0558  0.6223  0.1387
  843MOL0     C13710   6.289   2.465   4.743 -0.3879 -0.2819  0.0690
  843MOL0     C13711   6.428   2.403   4.768 -0.2323 -0.6650 -0.1043
  843MOL0     C13712   6.517   2.400   4.639 -0.0752 -1.2305 -1.0262
  843MOL0     C13713   6.655   2.347   4.652 -0.2318 -0.1036 -0.6197
  843MOL0    Cl13714   6.642   2.166   4.631 -0.6405  0.3629  0.1356
  843MOL0     C13715   5.560   2.579   4.882 -0.3696 -1.1480  0.3291
  843MOL0     C13716   5.421   2.571   4.876 -0.8050  0.0530  0.2232
  843MOL0     O13717   5.182   2.552   5.045  0.3573  0.0688 -0.2323
  843MOL0     C13718   4.898   2.576   5.024  0.0659 -0.4926  0.4004
  843MOL0     C13719   4.758   2.584   5.016 -0.1278  0.2824 -0.0465
  843MOL0     N13720   4.231   2.754   4.549 -0.0970 -0.9219 -1.2632
  843MOL0     N13721   4.184   2.840   4.470  0.4496 -0.4568 -0.1026
  843MOL0     C13722   3.211   3.516   3.789 -0.0238  0.1065  0.4267
  843MOL0     C13723   3.097   3.527   3.706 -0.9006  0.3260 -0.4329
  843MOL0     C13724   2.737   3.497   3.452 -0.2252  0.7054 -0.0246
  843MOL0     C13725   2.758   3.386   3.367  1.0936 -0.6885 -0.6540
  843MOL0     C13726   2.680   3.364   3.249 -0.0666 -0.2254  0.3028
  843MOL0     C13727   2.574   3.448   3.221  0.8049 -0.4278 -0.4153
  843MOL0     O13728   2.496   3.417   3.112  0.4204 -0.7683 -0.0529
  843MOL0     C13729   2.380   3.499   3.076  0.4945 -0.0309  0.0229
  843MOL0     C13730   2.313   3.462   2.944  0.2432  0.0474 -0.5356
  843MOL0     C13731   2.251   3.320   2.942  0.1246 -0.1845 -0.6485
  843MOL0     C13732   2.155   3.279   3.058  0.1498  0.0481 -0.0368
  843MOL0     C13733   2.041   3.358   3.074  0.5863  0.4499 -0.1623
  843MOL0     C13734   1.948   3.431   3.095  0.8590 -0.5520  0.3893
  843MOL0     C13735   2.546   3.555   3.303  1.3085 -0.2380 -0.5126
  843MOL0     C13736   2.627   3.577   3.415  0.1228 -0.2308 -0.2582
  843MOL0     C13737   2.596   3.701   3.498  0.0755 -0.2609  0.4257
  843MOL0     H13738   3.018   3.203   3.677  2.5622 -1.6750 -1.9272
  843MOL0     H13739   3.216   3.181   3.826 -2.7196 -1.6545 -3.1646
  843MOL0     H13740   3.380   3.183   3.975 -1.0597  0.3448 -0.4373
  843MOL0     H13741   3.455   3.190   3.814  0.1696 -1.6972  1.1825
  843MOL0     H13742   3.566   3.349   4.050  2.2182 -1.2876  0.7201
  843MOL0     H13743   3.618   3.336   3.875  0.7476 -2.8913 -1.2100
  843MOL0     H13744   3.772   3.216   4.025  1.4523 -2.5591 -0.6410
  843MOL0     H13745   3.685   3.098   3.925 -1.3550 -0.5578 -0.2116
  843MOL0     H13746   3.650   3.197   4.213 -0.9973  1.6722 -0.9829
  843MOL0     H13747   3.529   3.081   4.149 -0.4988  0.7621 -0.3161
  843MOL0     H13748   3.694   2.912   4.139 -2.3428  2.2405 -3.0667
  843MOL0     H13749   3.832   3.022   4.145  1.3713  1.7258  2.5992
  843MOL0     H13750   3.771   3.092   4.383  1.7823  0.0065 -1.0993
  843MOL0     H13751   3.640   2.976   4.369  0.3720 -1.2575 -2.7204
  843MOL0     H13752   3.886   2.833   4.303 -1.3435 -1.0581  0.8884
  843MOL0     H13753   3.786   2.829   4.455 -3.2748  0.2555 -2.2244
  843MOL0     H13754   4.017   3.013   4.379  0.5351 -2.6613 -1.1103
  843MOL0     H13755   3.921   3.013   4.539 -1.1214 -2.4024  0.8372
  843MOL0     H13756   3.922   2.756   4.643 -0.3714  0.1733 -0.5352
  843MOL0     H13757   4.080   2.601   4.822  1.5967  3.8843  2.7684
  843MOL0     H13758   4.173   2.504   4.711 -2.5728  0.3423  0.4662
  843MOL0     H13759   4.369   2.689   4.765  1.5572  1.9783  1.4276
  843MOL0     H13760   4.244   2.755   4.861 -4.7010 -1.6616 -0.6277
  843MOL0     H13761   4.312   2.462   4.895 -1.9939  1.3925 -0.9961
  843MOL0     H13762   4.259   2.565   5.020  0.7618 -0.5701  0.8451
  843MOL0     H13763   4.483   2.554   5.083 -0.2737  0.9615  0.6212
  843MOL0     H13764   4.487   2.703   4.978 -0.8650  0.3470  0.0243
  843MOL0     H13765   4.716   2.466   4.709  0.0716 -1.3106  1.2260
  843MOL0     H13766   4.975   2.454   4.719  2.6139  2.0935  0.5340
  843MOL0     H13767   5.380   2.268   4.727  1.4723 -0.2812 -1.2571
  843MOL0     H13768   5.618   2.286   4.713  0.2366  1.1072 -2.2743
  843MOL0     H13769   5.765   2.362   4.997 -0.2619  1.1009 -0.5272
  843MOL0     H13770   5.844   2.274   4.874  0.5619  1.6804 -3.9089
  843MOL0     H13771   5.942   2.509   5.031 -0.8132 -1.6519  2.1864
  843MOL0     H13772   6.015   2.348   5.012  0.6313  0.1810 -0.7198
  843MOL0     H13773   6.021   2.424   4.745  1.5475  2.6821 -2.0373
  843MOL0     H13774   6.042   2.583   4.824  0.0390 -0.3963 -1.1571
  843MOL0     H13775   6.210   2.325   4.882 -0.9442  0.3950 -0.7408
  843MOL0     H13776   6.241   2.495   4.947  0.8986  0.6286 -0.2700
  843MOL0     H13777   6.297   2.571   4.720  1.1089 -0.1254  1.2167
  843MOL0     H13778   6.248   2.414   4.655  1.3495 -0.7760 -0.5103
  843MOL0     H13779   6.477   2.447   4.855  0.9179 -1.1193 -0.5002
  843MOL0     H13780   6.410   2.298   4.790  1.3759 -0.8474  0.4823
  843MOL0     H13781   6.523   2.508   4.618 -0.3427 -1.3557 -1.8109
  843MOL0     H13782   6.454   2.359   4.559 -2.3273  0.1775 -0.0706
  843MOL0     H13783   6.733   2.382   4.585  1.7342 -1.4360  0.8571
  843MOL0     H13784   6.698   2.362   4.752  1.5297  0.5126 -1.4471
  843MOL0     H13785   5.606   2.671   4.914 -1.3485  1.7938 -5.3801
  843MOL0     H13786   5.365   2.661   4.902  0.2069  1.4761 -2.2018
  843MOL0     H13787   4.939   2.602   5.121  0.6607  1.9125 -0.4381
  843MOL0     H13788   4.696   2.611   5.102 -0.1771 -3.2614  1.1920
  843MOL0     H13789   3.266   3.605   3.819 -0.3735  0.3684  0.2946
  843MOL0     H13790   3.068   3.628   3.680  1.4885  0.9675 -0.8123
  843MOL0     H13791   2.838   3.315   3.385  2.7628  0.7878 -1.8159
  843MOL0     H13792   2.703   3.290   3.173  2.5524  1.4894 -0.7333
  843MOL0     H13793   2.415   3.602   3.061  1.8133  0.0435  2.9341
  843MOL0     H13794   2.296   3.489   3.145  1.2381 -0.1103  0.9418
  843MOL0     H13795   2.384   3.472   2.862  1.4460 -2.7731  0.0459
  843MOL0     H13796   2.248   3.547   2.926  0.2816  0.1195 -0.3381
  843MOL0     H13797   2.329   3.244   2.943 -0.7230 -1.1734  2.7631
  843MOL0     H13798   2.193   3.320   2.849  0.8750 -0.0191 -1.1255
  843MOL0     H13799   2.117   3.177   3.047  3.8166 -1.5710  0.7714
  843MOL0     H13800   2.228   3.287   3.139  0.6562  0.3710 -0.5213
  843MOL0     H13801   1.860   3.491   3.097  2.6780  2.3615 -0.2239
  843MOL0     H13802   2.461   3.622   3.297  1.5109  0.0325 -0.4137
  843MOL0     H13803   2.608   3.676   3.604  0.0220 -0.4390  0.3917
  843MOL0     H13804   2.656   3.786   3.465 -2.4334  0.6999 -2.0329
  843MOL0     H13805   2.491   3.730   3.488  0.0883 -0.1185  0.6955
  844MOL0     O13806  11.270   1.678   5.562  0.1455 -0.3567  0.0453
  844MOL0     C13807  11.232   1.750   5.475 -0.0112 -0.6126  1.1908
  844MOL0     O13808  11.310   1.826   5.390  0.5193  0.9799  0.3012
  844MOL0     C13809  11.448   1.811   5.387 -0.4841  0.6297  1.0789
  844MOL0     C13810  11.518   1.692   5.411 -0.2494  0.4819 -0.0956
  844MOL0     C13811  11.654   1.684   5.385  0.1542  0.3660 -0.3694
  844MOL0     C13812  11.730   1.803   5.356 -1.3916  0.4537 -0.5255
  844MOL0     O13813  11.869   1.806   5.338 -0.8027  0.5300  0.3026
  844MOL0     C13814  11.947   1.739   5.442  0.4623 -0.9066 -0.5825
  844MOL0     C13815  12.103   1.767   5.420  0.8015  0.3352 -0.4794
  844MOL0     C13816  12.192   1.678   5.501 -0.3108  0.1613  0.5132
  844MOL0     C13817  12.327   1.701   5.442  0.2764  0.0275 -0.5305
  844MOL0     C13818  12.424   1.626   5.524 -0.5108 -0.0331  0.1103
  844MOL0     C13819  12.569   1.651   5.467  0.3510 -0.2858  0.1524
  844MOL0     C13820  12.674   1.581   5.542 -0.5447 -0.4466  0.3342
  844MOL0     C13821  12.666   1.429   5.510 -0.9604  0.3451  0.9186
  844MOL0     N13822  12.802   1.375   5.550 -0.1899 -0.3085 -0.4567
  844MOL0     C13823  12.860   1.378   5.676  0.8789 -0.0352  0.0626
  844MOL0     C13824  12.981   1.324   5.664  0.1450  0.0554  0.0067
  844MOL0     C13825  13.071   1.294   5.779 -0.1221  0.0479  0.2895
  844MOL0     C13826  13.187   1.200   5.743 -0.2626  0.0890  0.1508
  844MOL0     C13827  13.289   1.176   5.857  0.2656  0.3363 -0.2795
  844MOL0     C13828  13.376   1.041   5.831 -0.4172 -0.3290 -0.1267
  844MOL0     O13829  13.496   1.052   5.900  0.2113 -0.7622  0.3224
  844MOL0     C13830  13.613   1.015   5.841  0.6086  0.5537 -0.1547
  844MOL0     C13831  13.727   1.071   5.895  0.5263 -0.5606 -0.5123
  844MOL0     C13832  13.853   1.022   5.853  0.6524 -0.3047  0.4581
  844MOL0     C13833  13.867   0.930   5.759 -0.6538  1.0585  0.0777
  844MOL0     C13834  13.992   0.861   5.729  0.0811 -0.3215  1.2239
  844MOL0     O13835  14.011   0.805   5.605  0.3744  0.7824 -0.1904
  844MOL0     C13836  14.133   0.754   5.578 -0.6798  0.1810 -1.2225
  844MOL0     C13837  14.225   0.837   5.501  0.2024 -0.7273  0.0316
  844MOL0     C13838  14.352   0.782   5.465  0.2365 -1.2834  0.8520
  844MOL0     C13839  14.393   0.654   5.499 -0.5534 -0.1866 -0.5195
  844MOL0     O13840  14.510   0.603   5.449 -0.2815  0.1532 -0.6636
  844MOL0     C13841  14.633   0.667   5.440 -0.0604 -1.0955  0.5563
  844MOL0     C13842  14.708   0.615   5.320 -0.3857 -0.0602  0.1214
  844MOL0     C13843  14.632   0.630   5.188  0.5188 -0.2994  1.1160
  844MOL0     C13844  14.717   0.586   5.066 -0.1153 -0.3984  1.0163
  844MOL0     C13845  14.750   0.437   5.080  0.1661 -0.4390  0.1314
  844MOL0     C13846  14.820   0.384   4.953  0.3322 -0.4216  0.6137
  844MOL0     C13847  14.879   0.243   4.983  0.1954 -0.0992  0.6739
  844MOL0     C13848  14.919   0.171   4.850 -0.7135  0.8736 -0.2821
  844MOL0    Cl13849  14.985   0.011   4.899 -0.4753 -0.4166 -0.3941
  844MOL0     C13850  14.309   0.584   5.590  0.5279  0.1418  0.3983
  844MOL0     C13851  14.178   0.630   5.625  0.5997  0.0105 -0.1261
  844MOL0     O13852  14.070   0.852   5.824  0.1928 -0.5471 -0.2411
  844MOL0     C13853  13.755   0.883   5.700 -0.2629  0.2970 -0.0499
  844MOL0     C13854  13.623   0.914   5.751 -0.6101 -0.3900  0.3872
  844MOL0     N13855  12.994   1.287   5.525 -0.1874 -0.1917 -0.1117
  844MOL0     N13856  12.881   1.309   5.462 -0.3028 -0.0708 -0.4403
  844MOL0     C13857  11.654   1.921   5.333 -0.6312  0.4508 -0.4321
  844MOL0     C13858  11.521   1.918   5.341 -0.0205  0.3356 -0.1128
  844MOL0     C13859  11.081   1.770   5.474 -0.4805 -0.2810 -0.1568
  844MOL0     C13860  11.028   1.895   5.452  0.0176  0.9183 -0.2573
  844MOL0     C13861  10.895   1.917   5.444  0.3136 -0.5671 -0.4618
  844MOL0     C13862  10.800   1.814   5.462  0.7343  0.2830 -0.4898
  844MOL0     O13863  10.673   1.853   5.440 -0.3538 -0.0846 -0.8404
  844MOL0     C13864  10.566   1.762   5.403  0.1653  0.0568  0.4251
  844MOL0     C13865  10.502   1.707   5.529  0.1980  0.6343 -0.3771
  844MOL0     C13866  10.414   1.814   5.598  0.3533 -0.8049 -0.1952
  844MOL0     C13867  10.288   1.849   5.517  0.6058  0.2851 -0.1810
  844MOL0     C13868  10.211   1.955   5.585  1.1017 -0.1080 -0.1883
  844MOL0     C13869  10.128   2.025   5.647 -0.0366  0.9449  0.3991
  844MOL0     C13870  10.848   1.683   5.474 -1.0177  0.3668 -0.7254
  844MOL0     C13871  10.993   1.659   5.485 -0.7944  0.0140 -0.3451
  844MOL0     C13872  11.036   1.510   5.487  0.0706 -0.2086  0.1632
  844MOL0     H13873  11.456   1.608   5.441 -1.3232  1.4908  0.6064
  844MOL0     H13874  11.704   1.588   5.396  0.9453  1.0338  3.0472
  844MOL0     H13875  11.938   1.792   5.538  3.1078 -1.6771  0.1917
  844MOL0     H13876  11.917   1.634   5.445  1.0606 -1.1092 -1.3261
  844MOL0     H13877  12.118   1.869   5.457  0.7290 -0.2138  1.1438
  844MOL0     H13878  12.132   1.769   5.315  1.0389 -1.2890 -0.4698
  844MOL0     H13879  12.158   1.574   5.501  2.6754 -1.0933  4.6937
  844MOL0     H13880  12.186   1.714   5.604 -0.1616  2.5601 -0.2615
  844MOL0     H13881  12.330   1.677   5.335  0.5254  3.1572 -1.3167
  844MOL0     H13882  12.355   1.806   5.445  1.1014 -0.1852 -0.4776
  844MOL0     H13883  12.416   1.661   5.627 -1.7930 -0.6123  0.2253
  844MOL0     H13884  12.386   1.524   5.513  0.1510 -0.2167 -0.5978
  844MOL0     H13885  12.570   1.612   5.364  3.6758 -2.2300  0.7593
  844MOL0     H13886  12.591   1.757   5.480  3.2776 -0.5511 -1.7264
  844MOL0     H13887  12.666   1.603   5.648  1.5119 -0.9574  0.6170
  844MOL0     H13888  12.769   1.623   5.508 -1.3216  2.9603  1.9392
  844MOL0     H13889  12.587   1.371   5.557 -0.8768 -0.4555  0.0998
  844MOL0     H13890  12.664   1.415   5.402  0.7506  1.3245  0.7174
  844MOL0     H13891  12.824   1.413   5.773  0.6074 -0.1861  0.0173
  844MOL0     H13892  13.113   1.383   5.827  1.0089 -0.5521  0.4477
  844MOL0     H13893  13.008   1.244   5.853 -1.5755  0.7265 -0.4541
  844MOL0     H13894  13.134   1.106   5.730  0.7811 -0.7075  1.4008
  844MOL0     H13895  13.244   1.231   5.654 -1.2123  0.1019 -0.4627
  844MOL0     H13896  13.241   1.165   5.955 -0.5100 -0.9057 -0.7759
  844MOL0     H13897  13.356   1.263   5.861 -0.6798  1.3311 -3.4166
  844MOL0     H13898  13.405   1.038   5.725  1.5681  1.7777  0.2578
  844MOL0     H13899  13.316   0.957   5.866  2.2104 -1.7653  1.1909
  844MOL0     H13900  13.716   1.151   5.968  0.7759 -0.3878 -0.6625
  844MOL0     H13901  13.944   1.052   5.904  2.0554 -3.0914 -0.2046
  844MOL0     H13902  14.193   0.936   5.471 -0.3730 -0.1308  2.3917
  844MOL0     H13903  14.413   0.841   5.396 -0.6012 -2.3872 -0.8918
  844MOL0     H13904  14.623   0.775   5.423 -0.0658 -1.4329 -1.9064
  844MOL0     H13905  14.698   0.641   5.525  1.6560 -0.2829 -0.4445
  844MOL0     H13906  14.803   0.669   5.316 -0.6319  0.6158  2.3387
  844MOL0     H13907  14.748   0.514   5.337  1.7826  0.5512 -0.9777
  844MOL0     H13908  14.542   0.568   5.194 -0.1397  0.5623  0.4156
  844MOL0     H13909  14.578   0.724   5.177 -2.8745 -2.1222  0.5542
  844MOL0     H13910  14.810   0.642   5.058 -0.1632 -0.4698 -0.0683
  844MOL0     H13911  14.660   0.598   4.973  1.0593  2.8209  0.6243
  844MOL0     H13912  14.666   0.372   5.106 -1.8789  1.8213 -0.3976
  844MOL0     H13913  14.817   0.436   5.167 -2.2173 -0.4789  2.0828
  844MOL0     H13914  14.738   0.377   4.881 -0.3161 -0.8418  1.3787
  844MOL0     H13915  14.898   0.451   4.916  0.2828 -0.5873  0.2025
  844MOL0     H13916  14.799   0.181   5.024  0.7009 -0.0717  1.7405
  844MOL0     H13917  14.968   0.253   5.047  0.9132  1.5350 -0.5167
  844MOL0     H13918  14.841   0.138   4.781 -0.1864 -2.7656  0.6959
  844MOL0     H13919  14.993   0.240   4.807  1.5969  0.7682  3.1206
  844MOL0     H13920  14.352   0.496   5.635 -1.6123 -1.2134 -0.0439
  844MOL0     H13921  14.108   0.570   5.683 -1.7423  0.4222 -2.3754
  844MOL0     H13922  13.765   0.801   5.629 -0.2523 -0.7204  1.0935
  844MOL0     H13923  13.543   0.854   5.709  0.0159 -3.0159  2.6182
  844MOL0     H13924  11.699   2.014   5.299 -1.0622  0.9503  0.3502
  844MOL0     H13925  11.470   2.009   5.310 -0.0625  0.8999  1.5112
  844MOL0     H13926  11.097   1.978   5.441  0.0994  0.5761 -2.8753
  844MOL0     H13927  10.866   2.019   5.422  3.8690  0.1855 -2.3876
  844MOL0     H13928  10.602   1.679   5.342 -0.5349 -2.8538  3.6347
  844MOL0     H13929  10.488   1.815   5.347 -2.8621 -4.9164 -0.6124
  844MOL0     H13930  10.576   1.663   5.596 -0.4650 -0.6405 -0.4594
  844MOL0     H13931  10.435   1.629   5.492 -1.2882  1.5017  0.3442
  844MOL0     H13932  10.469   1.903   5.627  0.9855 -1.6296  1.2427
  844MOL0     H13933  10.373   1.769   5.689  0.9699  1.5288  1.3239
  844MOL0     H13934  10.316   1.891   5.419  0.7143 -0.1333 -0.3340
  844MOL0     H13935  10.231   1.757   5.503  2.4933 -0.5540 -3.4411
  844MOL0     H13936  10.057   2.077   5.709  0.0868  1.2405  0.2964
  844MOL0     H13937  10.777   1.600   5.471 -2.1646  1.2119  1.4295
  844MOL0     H13938  11.133   1.474   5.453  0.0076 -1.6231  1.3278
  844MOL0     H13939  11.036   1.478   5.592 -0.2573 -1.0910 -0.0879
  844MOL0     H13940  10.972   1.434   5.440 -1.8023 -0.0517  2.2664
  845MOL0     O13941   5.017   2.540   0.828 -0.4512 -0.2069 -0.1577
  845MOL0     C13942   5.093   2.514   0.735  0.8922 -0.0547 -0.0826
  845MOL0     O13943   5.054   2.506   0.603  0.5601 -0.1303  0.4247
  845MOL0     C13944   4.918   2.508   0.570  0.5595  0.2661 -0.1459
  845MOL0     C13945   4.833   2.603   0.626 -0.0936 -0.9041  0.3206
  845MOL0     C13946   4.698   2.612   0.599 -0.0060 -0.7979 -0.1014
  845MOL0     C13947   4.641   2.525   0.504 -0.0745  1.0871  0.2209
  845MOL0     O13948   4.507   2.517   0.463  0.9170 -0.0310 -0.1369
  845MOL0     C13949   4.432   2.633   0.471 -0.2094  0.1430 -0.0254
  845MOL0     C13950   4.355   2.654   0.603 -0.5234  0.4214  0.2380
  845MOL0     C13951   4.312   2.801   0.624 -0.0818 -0.0242 -0.4909
  845MOL0     C13952   4.198   2.837   0.539  0.0093 -0.3348  0.3475
  845MOL0     C13953   4.107   2.955   0.596  0.3456 -0.2411  0.5821
  845MOL0     C13954   4.181   3.068   0.659  0.0636 -0.5597  0.1639
  845MOL0     C13955   4.247   3.158   0.561 -0.5577  0.0451 -0.4407
  845MOL0     C13956   4.321   3.273   0.622  0.1106 -0.5931 -0.4990
  845MOL0     N13957   4.411   3.231   0.730  0.4373  0.0531 -0.0236
  845MOL0     C13958   4.527   3.167   0.708 -0.3671 -0.0069  0.0605
  845MOL0     C13959   4.576   3.114   0.826 -0.0778  0.0201  0.6200
  845MOL0     C13960   4.703   3.028   0.843  0.3123 -0.2969  0.1147
  845MOL0     C13961   4.835   3.110   0.842  0.2922 -0.0547  0.9418
  845MOL0     C13962   4.835   3.239   0.931  0.7385  0.2034 -0.3574
  845MOL0     C13963   4.935   3.344   0.874 -0.0197 -1.4533  0.5164
  845MOL0     O13964   5.071   3.296   0.898 -0.3123  0.0185 -0.0618
  845MOL0     C13965   5.184   3.366   0.872 -0.4510  0.4592  0.3146
  845MOL0     C13966   5.299   3.305   0.900 -0.6650 -0.6076 -0.5786
  845MOL0     C13967   5.420   3.362   0.854 -0.5223  0.2029  0.2063
  845MOL0     C13968   5.424   3.488   0.798  0.2122 -0.0056 -0.2651
  845MOL0     C13969   5.544   3.544   0.744 -0.0838  0.0658 -0.2779
  845MOL0     O13970   5.661   3.493   0.788  0.2628 -0.0306  0.9741
  845MOL0     C13971   5.777   3.531   0.725  0.4303  0.4589  0.1178
  845MOL0     C13972   5.883   3.588   0.806 -0.3516 -1.1538 -0.0772
  845MOL0     C13973   5.994   3.641   0.739 -0.4411  0.0928 -0.4723
  845MOL0     C13974   6.007   3.638   0.604  0.0103  0.0849  0.6139
  845MOL0     O13975   6.120   3.696   0.554  0.1582  0.1552  0.4541
  845MOL0     C13976   6.123   3.712   0.412 -0.1236 -0.3273  0.6950
  845MOL0     C13977   6.232   3.798   0.365 -0.0035  0.2154 -0.3601
  845MOL0     C13978   6.232   3.932   0.443  0.6812  0.4194  0.0285
  845MOL0     C13979   6.335   4.037   0.399  0.2644 -0.0844 -0.0668
  845MOL0     C13980   6.341   4.074   0.251 -0.2112 -0.6941 -0.0788
  845MOL0     C13981   6.211   4.116   0.187  0.8260  0.9500  0.0865
  845MOL0     C13982   6.245   4.185   0.057  0.6101 -0.2793  0.4505
  845MOL0     C13983   6.124   4.221  -0.010 -0.3251 -0.1954  0.1037
  845MOL0    Cl13984   6.150   4.289  -0.173  0.1690  0.2062 -0.3558
  845MOL0     C13985   5.909   3.570   0.531  0.8141 -0.0290  0.3316
  845MOL0     C13986   5.796   3.519   0.590 -0.4617  0.6933 -0.4186
  845MOL0     O13987   5.534   3.644   0.679 -0.3142 -0.5820  0.2279
  845MOL0     C13988   5.298   3.554   0.780 -0.4555  0.1362  0.0299
  845MOL0     C13989   5.180   3.500   0.809 -0.1616  0.2700  0.0606
  845MOL0     N13990   4.486   3.159   0.920  0.3318 -0.0139 -0.9837
  845MOL0     N13991   4.384   3.218   0.866  0.7339 -0.3242 -0.0809
  845MOL0     C13992   4.726   2.427   0.448  0.6851  0.3284 -0.1883
  845MOL0     C13993   4.867   2.420   0.470 -0.4143 -0.0512 -0.2328
  845MOL0     C13994   5.228   2.475   0.771  0.9431  0.0669 -0.0860
  845MOL0     C13995   5.323   2.477   0.666 -0.1096  0.7322 -0.6588
  845MOL0     C13996   5.457   2.459   0.674  0.3486  0.9325  0.2181
  845MOL0     C13997   5.509   2.439   0.796  0.4519  0.0190 -0.2531
  845MOL0     O13998   5.645   2.420   0.797 -0.3167  0.6064  0.4190
  845MOL0     C13999   5.709   2.365   0.914 -0.2529  1.2140 -0.3596
  845MOL0     C14000   5.676   2.208   0.928  0.0360  0.5327  0.1284
  845MOL0     C14001   5.758   2.135   1.035  0.0926 -0.6194 -0.4319
  845MOL0     C14002   5.764   2.200   1.178  0.3853 -0.2114 -0.9334
  845MOL0     C14003   5.642   2.167   1.254 -0.0633 -0.9837 -0.0137
  845MOL0     C14004   5.536   2.144   1.298 -0.1498  0.0462  0.9038
  845MOL0     C14005   5.421   2.439   0.906  0.1033  1.1538 -0.5070
  845MOL0     C14006   5.281   2.460   0.900  0.1737 -0.1653 -0.8945
  845MOL0     C14007   5.205   2.474   1.033 -0.7208 -0.8741 -0.1906
  845MOL0     H14008   4.864   2.681   0.696  0.0708  1.7560 -2.5237
  845MOL0     H14009   4.638   2.694   0.637  0.6141  0.2782 -1.3474
  845MOL0     H14010   4.495   2.720   0.450 -1.7087  1.8280  2.0035
  845MOL0     H14011   4.361   2.627   0.389  0.4324 -0.6956 -0.5454
  845MOL0     H14012   4.434   2.642   0.678  0.0587  0.5090 -0.3575
  845MOL0     H14013   4.276   2.582   0.622  0.3637 -1.1695 -1.8199
  845MOL0     H14014   4.390   2.873   0.598 -1.2829  1.5465  0.1206
  845MOL0     H14015   4.289   2.819   0.730 -0.8363  1.5510 -0.8983
  845MOL0     H14016   4.237   2.856   0.439 -1.1536 -0.1484 -0.0955
  845MOL0     H14017   4.132   2.749   0.535  1.1290 -1.1715 -0.1317
  845MOL0     H14018   4.047   2.999   0.516  0.5915  1.9911  1.5465
  845MOL0     H14019   4.033   2.919   0.669 -1.5293  0.5743 -0.8296
  845MOL0     H14020   4.118   3.132   0.721  2.1488 -0.0310  1.8858
  845MOL0     H14021   4.250   3.022   0.731  0.0273 -1.1597 -0.1803
  845MOL0     H14022   4.171   3.194   0.492  1.7867  1.8096 -2.2705
  845MOL0     H14023   4.315   3.096   0.501 -0.6924 -2.2044  1.5738
  845MOL0     H14024   4.378   3.319   0.541 -2.2647 -0.0236 -1.9346
  845MOL0     H14025   4.252   3.352   0.653  0.1398 -0.6577 -0.2688
  845MOL0     H14026   4.574   3.151   0.612 -0.9986 -1.0339 -0.0946
  845MOL0     H14027   4.696   2.962   0.930  1.8672  0.4037  0.8164
  845MOL0     H14028   4.707   2.967   0.753  2.3535  2.1254 -1.6111
  845MOL0     H14029   4.908   3.038   0.881 -0.4370 -0.9072  0.7698
  845MOL0     H14030   4.861   3.146   0.742  1.4343  0.6146  1.4605
  845MOL0     H14031   4.853   3.223   1.038  0.3830 -1.7140 -0.5525
  845MOL0     H14032   4.739   3.292   0.929 -0.5194 -1.8637  1.0018
  845MOL0     H14033   4.910   3.443   0.914 -2.3616 -1.0735 -1.5717
  845MOL0     H14034   4.908   3.358   0.768 -1.0089 -0.1723  0.9071
  845MOL0     H14035   5.313   3.209   0.949 -0.9145 -1.5956 -2.3714
  845MOL0     H14036   5.517   3.319   0.872  0.9994  2.1612 -2.6056
  845MOL0     H14037   5.868   3.595   0.913  1.5982 -0.9968  0.2173
  845MOL0     H14038   6.070   3.698   0.792 -1.4229  1.2921 -0.3091
  845MOL0     H14039   6.132   3.612   0.368  0.7398  0.7399 -1.7426
  845MOL0     H14040   6.026   3.755   0.383  0.6538 -0.0038 -1.6597
  845MOL0     H14041   6.326   3.742   0.373 -1.4225 -2.1785  0.3382
  845MOL0     H14042   6.219   3.815   0.257  2.6514 -1.9799 -1.1501
  845MOL0     H14043   6.136   3.982   0.424  1.4918  2.2544  0.4832
  845MOL0     H14044   6.244   3.924   0.552  2.4745 -0.2534 -0.1912
  845MOL0     H14045   6.435   4.001   0.422  1.4134  2.2189 -1.1376
  845MOL0     H14046   6.313   4.124   0.461  0.3031  1.0419 -1.5693
  845MOL0     H14047   6.382   3.986   0.201 -0.5795 -2.1870  2.1155
  845MOL0     H14048   6.421   4.149   0.251 -0.5344 -0.1087  4.3798
  845MOL0     H14049   6.142   4.033   0.174  0.9915  0.8219  0.0127
  845MOL0     H14050   6.170   4.197   0.248  2.4405  1.4901  0.5146
  845MOL0     H14051   6.299   4.120  -0.012 -0.4653  0.3324 -1.0052
  845MOL0     H14052   6.302   4.276   0.079  1.4607 -0.4812 -0.7886
  845MOL0     H14053   6.062   4.131  -0.015  1.1892 -1.3507  1.0712
  845MOL0     H14054   6.069   4.296   0.049 -1.7761 -0.6683 -0.5870
  845MOL0     H14055   5.914   3.575   0.423 -0.6461  3.1551  0.3039
  845MOL0     H14056   5.727   3.461   0.529 -0.8355 -0.8352  1.3640
  845MOL0     H14057   5.291   3.655   0.740 -0.9660 -0.2258 -0.8171
  845MOL0     H14058   5.092   3.559   0.786  0.9112  0.9075 -2.9093
  845MOL0     H14059   4.664   2.369   0.382 -0.5184  1.6676 -0.2895
  845MOL0     H14060   4.926   2.339   0.428  0.2142 -0.2041  0.8998
  845MOL0     H14061   5.289   2.506   0.567  0.7172  0.3668 -1.0579
  845MOL0     H14062   5.522   2.462   0.588  2.5820  1.2092  1.8175
  845MOL0     H14063   5.684   2.419   1.006  0.4456  1.2726 -0.2026
  845MOL0     H14064   5.817   2.366   0.895 -0.6133  1.4107 -2.7415
  845MOL0     H14065   5.687   2.161   0.829  0.6807  1.6465 -0.3532
  845MOL0     H14066   5.571   2.193   0.952  0.3831 -2.3149  0.1538
  845MOL0     H14067   5.856   2.131   0.985 -0.3592 -0.7840 -1.3284
  845MOL0     H14068   5.721   2.032   1.039  0.0483 -0.5647  2.0984
  845MOL0     H14069   5.846   2.153   1.234  0.2493 -1.9771 -2.1400
  845MOL0     H14070   5.771   2.308   1.165  1.3831 -0.6463 -5.7684
  845MOL0     H14071   5.448   2.119   1.353 -0.4938 -1.7243 -0.3632
  845MOL0     H14072   5.455   2.423   1.007 -0.7173 -1.5642 -0.5650
  845MOL0     H14073   5.116   2.411   1.028 -2.3401  1.3825 -2.7932
  845MOL0     H14074   5.266   2.447   1.120 -0.5675  0.2006  0.0478
  845MOL0     H14075   5.168   2.574   1.058  0.6615 -0.8040  1.8387
  846MOL0     O14076   5.375   4.265   7.800 -0.5433  0.5474  1.0289
  846MOL0     C14077   5.259   4.262   7.824 -0.3904 -0.3178  0.4024
  846MOL0     O14078   5.202   4.322   7.939 -0.1334  0.2725  0.0148
  846MOL0     C14079   5.272   4.406   8.027 -0.9102 -0.2315  0.3327
  846MOL0     C14080   5.205   4.449   8.145 -0.8888  0.6015 -0.6144
  846MOL0     C14081   5.263   4.538   8.233  0.6366 -0.4140 -0.4046
  846MOL0     C14082   5.386   4.588   8.206  0.3987  0.1529  0.9538
  846MOL0     O14083   5.438   4.682   8.295  0.2543  0.1605 -0.3291
  846MOL0     C14084   5.570   4.657   8.340  0.4587 -0.7426 -0.0629
  846MOL0     C14085   5.576   4.748   8.468  0.1685  0.3940  0.0191
  846MOL0     C14086   5.677   4.855   8.429  0.0996 -0.3019  0.3115
  846MOL0     C14087   5.735   4.943   8.538  0.4218  0.8189  0.5351
  846MOL0     C14088   5.812   5.055   8.476 -0.7882 -0.2939  0.2236
  846MOL0     C14089   5.840   5.164   8.586 -0.2026 -0.3618  1.2925
  846MOL0     C14090   5.934   5.275   8.533  0.2040  0.1425  0.0892
  846MOL0     C14091   6.083   5.227   8.550  1.8648 -1.1590  0.5732
  846MOL0     N14092   6.184   5.310   8.499 -0.2893 -0.6687  0.5202
  846MOL0     C14093   6.211   5.330   8.366  0.0885  0.0112  0.5754
  846MOL0     C14094   6.324   5.402   8.357 -1.1951  0.5225  0.6744
  846MOL0     C14095   6.388   5.450   8.233 -0.5673  0.7984  0.0579
  846MOL0     C14096   6.474   5.577   8.250 -0.3295 -0.3618  0.3906
  846MOL0     C14097   6.542   5.622   8.113  0.3891  0.3432  1.0976
  846MOL0     C14098   6.694   5.613   8.124  0.1834 -0.0459 -0.7101
  846MOL0     O14099   6.753   5.673   8.012  0.3757 -0.0584  0.2625
  846MOL0     C14100   6.887   5.663   8.020 -0.2890 -0.4486 -0.4125
  846MOL0     C14101   6.974   5.620   8.116 -0.0018  0.5853  1.4884
  846MOL0     C14102   7.111   5.637   8.103  0.4786  0.3282 -0.0149
  846MOL0     C14103   7.174   5.706   8.002 -0.0718 -0.3011 -0.0473
  846MOL0     C14104   7.317   5.739   7.998  1.1343  0.5070 -0.9077
  846MOL0     O14105   7.363   5.826   7.902 -0.1745  0.4963  0.4052
  846MOL0     C14106   7.496   5.848   7.907  0.4223 -0.0484 -0.4194
  846MOL0     C14107   7.570   5.771   7.823 -0.4426 -0.1514  0.3699
  846MOL0     C14108   7.707   5.785   7.815 -0.1933 -0.9913  0.5263
  846MOL0     C14109   7.767   5.894   7.884  0.3187  0.6225  0.6145
  846MOL0     O14110   7.898   5.919   7.888  0.7787  0.0485 -0.0571
  846MOL0     C14111   7.981   5.808   7.854 -0.0311  0.2956  0.1794
  846MOL0     C14112   8.120   5.841   7.896  0.2905 -0.3643  0.0970
  846MOL0     C14113   8.205   5.720   7.898 -0.0215  0.1695  0.8827
  846MOL0     C14114   8.351   5.757   7.938  0.0860 -0.4314 -0.0579
  846MOL0     C14115   8.471   5.668   7.896 -0.4479 -1.0760  0.0443
  846MOL0     C14116   8.470   5.536   7.959  0.7330 -0.2853 -0.0505
  846MOL0     C14117   8.597   5.451   7.934  0.3573  1.0178  0.0680
  846MOL0     C14118   8.631   5.409   7.792 -0.4703 -0.3248 -0.6207
  846MOL0    Cl14119   8.789   5.309   7.806  0.3215 -0.5144 -0.0877
  846MOL0     C14120   7.684   5.976   7.964  0.6295 -0.1869 -0.5127
  846MOL0     C14121   7.548   5.956   7.974 -0.1685 -0.0768 -0.3346
  846MOL0     O14122   7.396   5.670   8.069  0.6122  0.5043  0.2799
  846MOL0     C14123   7.085   5.763   7.912  0.6945 -0.2875  0.3622
  846MOL0     C14124   6.942   5.736   7.915  0.8990 -0.2533  0.0439
  846MOL0     N14125   6.368   5.425   8.489  0.2591 -0.3984  0.5180
  846MOL0     N14126   6.282   5.368   8.568 -0.0866 -0.5924  0.0413
  846MOL0     C14127   5.457   4.547   8.089  0.9380 -0.3596 -0.0759
  846MOL0     C14128   5.390   4.464   7.993 -0.6545  0.3846 -0.2798
  846MOL0     C14129   5.172   4.224   7.710  0.5749 -0.2140  0.4449
  846MOL0     C14130   5.230   4.200   7.580 -0.1370 -0.4206 -1.0703
  846MOL0     C14131   5.150   4.160   7.473  0.4510 -0.0339  0.0952
  846MOL0     C14132   5.020   4.129   7.482  0.0772  0.4772 -0.7773
  846MOL0     O14133   4.943   4.111   7.370  0.2489  0.2502  0.3809
  846MOL0     C14134   4.979   3.996   7.291  0.2543 -0.1887  0.2898
  846MOL0     C14135   4.932   3.865   7.352  0.1210  0.4408  0.3469
  846MOL0     C14136   4.957   3.752   7.247 -0.1910 -0.9254  0.2407
  846MOL0     C14137   4.915   3.623   7.323 -0.6324 -0.3396 -0.4362
  846MOL0     C14138   4.932   3.516   7.229 -0.2794 -0.8735  0.4630
  846MOL0     C14139   4.945   3.429   7.144  1.0893  0.0559  0.0419
  846MOL0     C14140   4.959   4.142   7.610  0.5933 -0.0439  0.7731
  846MOL0     C14141   5.033   4.185   7.727  0.3014 -1.1139  0.1462
  846MOL0     C14142   4.963   4.186   7.867 -0.1796 -0.3419 -0.0363
  846MOL0     H14143   5.110   4.405   8.175 -0.0737  0.4891  2.0516
  846MOL0     H14144   5.221   4.568   8.328  2.0844  0.6372 -0.0682
  846MOL0     H14145   5.588   4.550   8.352 -0.1189 -0.8512 -0.0949
  846MOL0     H14146   5.633   4.692   8.258  0.4502  3.4857  1.4864
  846MOL0     H14147   5.616   4.691   8.552 -0.7190 -1.0337 -0.4804
  846MOL0     H14148   5.478   4.791   8.488  0.8181  2.4168 -0.8650
  846MOL0     H14149   5.631   4.924   8.358 -0.4198 -0.7832  0.1767
  846MOL0     H14150   5.754   4.795   8.380 -2.0352 -2.3175 -0.7302
  846MOL0     H14151   5.648   4.980   8.593  0.3761  0.9274  0.3925
  846MOL0     H14152   5.796   4.886   8.609  1.4722  0.2721 -0.7531
  846MOL0     H14153   5.900   5.013   8.427 -1.9605 -0.4407 -1.8979
  846MOL0     H14154   5.751   5.102   8.399  0.4422  1.3233  0.1864
  846MOL0     H14155   5.742   5.193   8.626  0.0352  0.9416  0.9750
  846MOL0     H14156   5.888   5.111   8.668  2.5086 -2.8007 -1.5876
  846MOL0     H14157   5.930   5.361   8.600  1.3778  1.6249 -1.6463
  846MOL0     H14158   5.917   5.310   8.430 -0.5997  2.9599  1.0917
  846MOL0     H14159   6.105   5.198   8.653  0.6468 -2.3469  0.5200
  846MOL0     H14160   6.096   5.140   8.486 -2.3985 -1.4958 -0.1388
  846MOL0     H14161   6.157   5.296   8.279 -0.9276 -0.7130  1.4644
  846MOL0     H14162   6.460   5.376   8.198 -0.4464  1.1105 -0.3514
  846MOL0     H14163   6.298   5.461   8.172 -2.5129 -0.3511  2.5208
  846MOL0     H14164   6.411   5.660   8.282 -1.1711 -0.9088  0.1887
  846MOL0     H14165   6.548   5.552   8.327  0.5257  2.2667  0.4904
  846MOL0     H14166   6.507   5.721   8.081  0.9191 -0.3048 -1.7452
  846MOL0     H14167   6.503   5.554   8.037 -0.0181  1.0478  0.6670
  846MOL0     H14168   6.719   5.509   8.147 -0.8092 -0.3590 -0.9677
  846MOL0     H14169   6.725   5.665   8.215 -0.1054 -1.2469  0.0882
  846MOL0     H14170   6.940   5.550   8.192 -0.6738 -0.0864  0.5821
  846MOL0     H14171   7.172   5.590   8.180  0.1993  1.3415  0.8464
  846MOL0     H14172   7.528   5.692   7.763  1.0500 -1.1426  0.5703
  846MOL0     H14173   7.766   5.720   7.753 -0.1541  0.5136 -1.1003
  846MOL0     H14174   7.958   5.714   7.904  0.6798  0.4598  0.8308
  846MOL0     H14175   7.975   5.801   7.745  0.2451  0.9991  0.1116
  846MOL0     H14176   8.174   5.892   7.815  2.4470 -2.9872 -0.2552
  846MOL0     H14177   8.121   5.897   7.990  1.1276 -1.6963  0.9205
  846MOL0     H14178   8.178   5.636   7.963  0.6760 -2.2328 -1.7414
  846MOL0     H14179   8.207   5.668   7.802  3.3550 -2.4736  2.1764
  846MOL0     H14180   8.358   5.757   8.047  0.5362  0.5010 -0.0783
  846MOL0     H14181   8.379   5.853   7.892  1.5497 -0.8783 -0.1536
  846MOL0     H14182   8.562   5.718   7.931  0.6946 -1.5411 -2.0602
  846MOL0     H14183   8.469   5.657   7.787 -0.9784 -1.0859  0.0513
  846MOL0     H14184   8.450   5.550   8.066 -1.1838  1.7372 -0.5913
  846MOL0     H14185   8.387   5.476   7.921  1.4692 -0.2508 -1.7758
  846MOL0     H14186   8.583   5.363   7.998 -0.7759 -1.1925 -2.9942
  846MOL0     H14187   8.686   5.502   7.972  1.6158 -0.8068 -0.2986
  846MOL0     H14188   8.563   5.334   7.749  2.6154 -2.8954 -1.3629
  846MOL0     H14189   8.647   5.498   7.729 -1.9342  0.5346  0.1491
  846MOL0     H14190   7.731   6.061   8.013  2.0335 -1.1671 -0.0732
  846MOL0     H14191   7.484   6.020   8.034 -1.2892 -1.0247 -0.4750
  846MOL0     H14192   7.142   5.826   7.844  0.5240  1.1600  1.5154
  846MOL0     H14193   6.884   5.779   7.834  0.1598 -1.4134 -0.0703
  846MOL0     H14194   5.556   4.591   8.079  1.3381  0.4066  4.8453
  846MOL0     H14195   5.440   4.450   7.898  0.9594 -1.9653  0.8027
  846MOL0     H14196   5.336   4.220   7.572  0.1370 -2.0885 -1.8915
  846MOL0     H14197   5.199   4.139   7.379  2.4060 -0.0630  1.0753
  846MOL0     H14198   5.084   3.995   7.262 -0.0993 -1.6044 -1.0444
  846MOL0     H14199   4.944   4.011   7.189  2.8951 -2.1754 -1.0224
  846MOL0     H14200   4.825   3.866   7.376  0.0855  0.5880  0.1807
  846MOL0     H14201   4.981   3.835   7.445  0.9494  0.6672 -0.0035
  846MOL0     H14202   5.064   3.751   7.225 -0.2744 -1.0004 -0.1666
  846MOL0     H14203   4.900   3.766   7.154 -1.9452  0.7406  1.4738
  846MOL0     H14204   4.976   3.606   7.412  1.1422  0.2301 -1.4915
  846MOL0     H14205   4.810   3.647   7.343 -1.1858 -1.0932 -2.2405
  846MOL0     H14206   4.969   3.355   7.070 -2.9742 -0.4396 -0.9940
  846MOL0     H14207   4.853   4.121   7.606  0.5878  0.0004  0.6855
  846MOL0     H14208   4.960   4.284   7.915  0.3932 -1.0682  1.5424
  846MOL0     H14209   4.856   4.173   7.846 -0.5913 -0.6732  2.1264
  846MOL0     H14210   4.994   4.100   7.927 -1.8500 -0.4437  0.7241
  847MOL0     O14211   1.515   1.022   9.212 -0.1892 -0.4409  0.4971
  847MOL0     C14212   1.466   1.099   9.289  0.1215  0.0881  0.0377
  847MOL0     O14213   1.514   1.218   9.319  0.5684 -0.6076 -0.8973
  847MOL0     C14214   1.621   1.261   9.240 -0.1335 -0.2814  0.6116
  847MOL0     C14215   1.750   1.214   9.277 -0.0746 -0.6376  0.7123
  847MOL0     C14216   1.863   1.263   9.202  0.6000  0.2270 -0.0787
  847MOL0     C14217   1.847   1.352   9.093 -0.1593 -0.4155 -0.4959
  847MOL0     O14218   1.962   1.406   9.043 -0.9891 -0.2835  0.5528
  847MOL0     C14219   1.958   1.484   8.915 -0.1975  1.8101  0.1116
  847MOL0     C14220   2.091   1.513   8.846 -0.8765  0.2258 -0.1717
  847MOL0     C14221   2.084   1.654   8.769  0.2738  1.0351 -0.7013
  847MOL0     C14222   2.217   1.694   8.720 -0.3418  0.2154  0.3130
  847MOL0     C14223   2.304   1.766   8.824  0.2735 -0.3972 -0.2654
  847MOL0     C14224   2.425   1.838   8.762 -0.3061 -0.2059 -0.2343
  847MOL0     C14225   2.513   1.918   8.856 -0.3047  0.6408 -0.5822
  847MOL0     C14226   2.434   1.973   8.979  0.7505 -0.2535 -0.0612
  847MOL0     N14227   2.500   2.098   9.015  0.1424 -0.0485  0.3198
  847MOL0     C14228   2.436   2.219   9.035 -0.3491 -0.5525  0.5317
  847MOL0     C14229   2.532   2.294   9.089  0.1605 -0.5971  0.7086
  847MOL0     C14230   2.531   2.441   9.128  0.4619 -0.5051  0.4695
  847MOL0     C14231   2.441   2.529   9.042  0.2793 -0.3609  0.4708
  847MOL0     C14232   2.445   2.501   8.888  0.2812  0.2833  0.8456
  847MOL0     C14233   2.579   2.522   8.835 -0.4572  0.1117 -0.1867
  847MOL0     O14234   2.584   2.528   8.686  0.3373  0.2789  0.1169
  847MOL0     C14235   2.697   2.580   8.634 -0.1578  0.6869  0.4458
  847MOL0     C14236   2.692   2.629   8.503 -0.0446  0.2568 -0.7367
  847MOL0     C14237   2.805   2.662   8.432  0.6545 -0.7016 -0.8279
  847MOL0     C14238   2.936   2.662   8.498 -0.1534 -0.7095  0.5662
  847MOL0     C14239   3.067   2.677   8.420 -0.2553 -0.6379  0.4674
  847MOL0     O14240   3.054   2.691   8.285  0.0471 -0.0212  0.3374
  847MOL0     C14241   3.170   2.677   8.210 -0.1565  0.3539 -0.4257
  847MOL0     C14242   3.196   2.567   8.141 -0.1434  0.4050  0.0437
  847MOL0     C14243   3.310   2.557   8.062 -0.0644 -0.0048 -0.2367
  847MOL0     C14244   3.407   2.657   8.058  0.1967 -0.0268  0.1194
  847MOL0     O14245   3.523   2.633   7.987  0.2477  0.6202 -0.1933
  847MOL0     C14246   3.581   2.753   7.930  0.4015  0.2099 -0.8813
  847MOL0     C14247   3.655   2.712   7.800 -0.1636 -0.3194 -0.6066
  847MOL0     C14248   3.752   2.817   7.740 -0.0218  0.1933 -0.4654
  847MOL0     C14249   3.882   2.833   7.823  0.6676 -0.2288  0.2699
  847MOL0     C14250   3.982   2.941   7.770 -0.3713  0.7688 -0.3044
  847MOL0     C14251   4.080   2.903   7.659  0.9176 -0.7572  0.2131
  847MOL0     C14252   4.202   2.994   7.657  0.8288  0.6127  0.1643
  847MOL0     C14253   4.310   2.939   7.566 -0.1752  0.2841 -0.5690
  847MOL0    Cl14254   4.383   2.796   7.652 -0.1224  0.1575  0.1155
  847MOL0     C14255   3.380   2.771   8.135 -0.6604 -0.6829 -0.8212
  847MOL0     C14256   3.262   2.782   8.212 -0.2571  0.0647 -0.1614
  847MOL0     O14257   3.169   2.655   8.480 -0.4822 -0.2689  0.3018
  847MOL0     C14258   2.934   2.627   8.636 -0.1210  0.8391 -0.8444
  847MOL0     C14259   2.820   2.580   8.700 -0.3422  0.4629 -0.2028
  847MOL0     N14260   2.650   2.220   9.091 -0.1065  0.8000  0.6357
  847MOL0     N14261   2.628   2.099   9.057  0.0487 -0.1923 -1.1223
  847MOL0     C14262   1.715   1.408   9.071 -0.4075 -0.0119 -0.4976
  847MOL0     C14263   1.598   1.360   9.141 -0.1404  0.4991  0.2672
  847MOL0     C14264   1.344   1.055   9.356 -0.0739  0.0471 -0.4269
  847MOL0     C14265   1.267   1.158   9.413 -0.8319  0.2632  1.0332
  847MOL0     C14266   1.142   1.137   9.482 -0.9609  0.3005 -0.2856
  847MOL0     C14267   1.101   1.006   9.495 -0.6358 -0.7261 -0.1681
  847MOL0     O14268   0.995   0.979   9.585 -0.2522 -0.1322  0.1442
  847MOL0     C14269   0.893   0.943   9.499 -0.1466  0.8468  0.3814
  847MOL0     C14270   0.768   0.917   9.576  0.3664  0.2688  0.2081
  847MOL0     C14271   0.645   0.874   9.502  0.2914  0.2771 -0.5357
  847MOL0     C14272   0.581   0.977   9.406 -1.0169  0.1905  0.5243
  847MOL0     C14273   0.436   1.007   9.444 -0.1474 -0.1060 -0.3965
  847MOL0     C14274   0.319   1.017   9.477 -0.0550 -0.4525 -0.8363
  847MOL0     C14275   1.169   0.899   9.446  0.1443  0.3917  0.1471
  847MOL0     C14276   1.294   0.922   9.374  0.5465 -0.4020  0.1933
  847MOL0     C14277   1.379   0.800   9.328 -0.2864 -0.5779 -0.7901
  847MOL0     H14278   1.768   1.160   9.370  0.2267  1.7768  2.1406
  847MOL0     H14279   1.965   1.238   9.231  0.2648  0.8702  1.7713
  847MOL0     H14280   1.898   1.432   8.839  1.7034 -2.0311  0.9855
  847MOL0     H14281   1.905   1.574   8.948 -1.9369  0.5739  0.8373
  847MOL0     H14282   2.121   1.428   8.783 -0.6767  1.6743 -2.1119
  847MOL0     H14283   2.170   1.527   8.920 -1.2699 -0.1258  0.3252
  847MOL0     H14284   2.034   1.732   8.827 -2.1847 -1.7517  1.2622
  847MOL0     H14285   2.026   1.642   8.677  0.3384  1.4043 -0.7906
  847MOL0     H14286   2.278   1.609   8.690  2.7003  2.3446 -0.0800
  847MOL0     H14287   2.197   1.764   8.638 -1.7244  0.7577  1.0709
  847MOL0     H14288   2.230   1.829   8.874 -1.3618 -0.5677 -2.3356
  847MOL0     H14289   2.348   1.702   8.901  1.7342  0.2940 -0.5050
  847MOL0     H14290   2.481   1.760   8.710 -0.5287  1.5736 -3.4003
  847MOL0     H14291   2.393   1.911   8.686  0.0451  0.2895  0.0908
  847MOL0     H14292   2.585   1.984   8.805 -1.3066  0.4927 -2.2597
  847MOL0     H14293   2.579   1.848   8.908  1.8371  3.8470  1.4323
  847MOL0     H14294   2.330   1.984   8.949 -0.0472 -3.5616  1.0091
  847MOL0     H14295   2.428   1.902   9.062 -2.0345  1.4475  1.3402
  847MOL0     H14296   2.328   2.232   9.031 -0.0458  2.9286  0.9158
  847MOL0     H14297   2.514   2.439   9.236  4.1839  0.7291  1.2474
  847MOL0     H14298   2.631   2.484   9.114 -0.3590  1.4252  0.2408
  847MOL0     H14299   2.344   2.503   9.086  0.7955 -0.2597  1.7042
  847MOL0     H14300   2.450   2.637   9.056  1.1895  0.1137 -2.9195
  847MOL0     H14301   2.378   2.575   8.844 -0.1971 -1.2433 -1.0958
  847MOL0     H14302   2.406   2.403   8.859  0.2440  0.2078  1.1388
  847MOL0     H14303   2.627   2.430   8.872 -2.5555 -1.0935 -0.2847
  847MOL0     H14304   2.635   2.602   8.885 -1.5400 -0.4200  2.0228
  847MOL0     H14305   2.594   2.627   8.458 -0.6383  0.3047  0.5245
  847MOL0     H14306   2.790   2.694   8.329 -0.3964  0.7579 -0.2517
  847MOL0     H14307   3.121   2.489   8.148  1.9824 -2.0529 -2.4077
  847MOL0     H14308   3.331   2.468   8.005  2.3959  1.1759 -1.3121
  847MOL0     H14309   3.509   2.830   7.901 -0.2566  0.7558  1.9114
  847MOL0     H14310   3.637   2.791   8.016  1.1340  0.3925 -1.4295
  847MOL0     H14311   3.700   2.619   7.837  0.0249  0.5418  1.4797
  847MOL0     H14312   3.575   2.690   7.729 -2.3537  1.9568  1.0146
  847MOL0     H14313   3.777   2.794   7.636  2.4717  2.1312 -0.3906
  847MOL0     H14314   3.692   2.907   7.725 -2.0370 -1.0248 -0.0618
  847MOL0     H14315   3.923   2.732   7.821 -0.8851 -0.8655 -0.0401
  847MOL0     H14316   3.858   2.846   7.929 -0.1591 -0.6364  0.1364
  847MOL0     H14317   4.044   2.971   7.855  1.1189  2.6915 -1.9790
  847MOL0     H14318   3.925   3.026   7.731  1.3832  2.2812  0.3321
  847MOL0     H14319   4.111   2.799   7.676  0.3325 -1.1475 -0.9390
  847MOL0     H14320   4.029   2.915   7.563 -1.6479 -0.0037  1.5661
  847MOL0     H14321   4.247   3.009   7.756  3.5953 -4.0533 -0.0911
  847MOL0     H14322   4.166   3.091   7.621  0.6712  0.1407 -0.9786
  847MOL0     H14323   4.267   2.915   7.468 -1.6226  1.0663 -0.1655
  847MOL0     H14324   4.388   3.015   7.567  0.9647 -0.8616 -0.2936
  847MOL0     H14325   3.449   2.856   8.137 -0.1604 -1.0871 -0.1778
  847MOL0     H14326   3.263   2.863   8.284  2.2059 -0.9729  1.0913
  847MOL0     H14327   3.025   2.616   8.694  0.3379 -1.1559 -1.8492
  847MOL0     H14328   2.834   2.563   8.807 -3.2222 -0.1784  0.1491
  847MOL0     H14329   1.697   1.485   8.996 -0.8583  0.6745  0.2832
  847MOL0     H14330   1.506   1.413   9.119  1.3955  3.0732 -0.4264
  847MOL0     H14331   1.294   1.262   9.405 -2.4752  0.6427 -0.1651
  847MOL0     H14332   1.094   1.222   9.531  2.5893  3.0273 -1.0755
  847MOL0     H14333   0.921   0.849   9.449  0.8505 -0.0466  2.5014
  847MOL0     H14334   0.867   1.019   9.425  0.2378 -1.7952 -2.6936
  847MOL0     H14335   0.738   1.003   9.636  1.1634  0.1256  0.8367
  847MOL0     H14336   0.810   0.836   9.637 -0.8632 -1.5952 -1.2923
  847MOL0     H14337   0.574   0.850   9.582 -0.0980  1.2461 -0.5841
  847MOL0     H14338   0.666   0.781   9.447  1.2775  0.5850 -0.6955
  847MOL0     H14339   0.641   1.068   9.393 -1.2913  0.3305  0.2431
  847MOL0     H14340   0.591   0.928   9.308  1.2810 -0.7539  1.1574
  847MOL0     H14341   0.213   1.021   9.496  0.3985  3.5443  1.8796
  847MOL0     H14342   1.131   0.802   9.478 -0.4881 -0.1815 -2.0940
  847MOL0     H14343   1.385   0.795   9.219 -1.1646 -0.5895 -0.8437
  847MOL0     H14344   1.483   0.804   9.359 -0.3877 -1.2239 -0.3269
  847MOL0     H14345   1.339   0.708   9.372  0.2804 -0.6923 -0.5201
  848MOL0     O14346   6.533   8.005   8.106  0.4412 -0.3461 -0.2810
  848MOL0     C14347   6.533   8.000   7.983 -0.5764 -0.0244  0.6188
  848MOL0     O14348   6.442   7.939   7.907  0.2107  0.4219  0.3533
  848MOL0     C14349   6.328   7.887   7.954 -0.0729  1.6226  0.3119
  848MOL0     C14350   6.207   7.926   7.887 -0.3968  0.6892 -0.8299
  848MOL0     C14351   6.093   7.853   7.917 -0.1117  0.4621 -0.4887
  848MOL0     C14352   6.084   7.754   8.021 -0.8718  0.4499  0.2954
  848MOL0     O14353   5.966   7.684   8.044 -0.6959  0.6778 -0.3113
  848MOL0     C14354   5.964   7.605   8.165  0.8421 -0.7791  0.0936
  848MOL0     C14355   5.817   7.575   8.197 -0.4165 -0.2416 -0.5401
  848MOL0     C14356   5.738   7.697   8.262 -1.0324 -0.1647  0.0896
  848MOL0     C14357   5.597   7.663   8.225  0.5791 -0.3185  0.3581
  848MOL0     C14358   5.563   7.702   8.088  0.4826 -0.5455 -0.5646
  848MOL0     C14359   5.489   7.830   8.081 -0.4296  0.2661  0.2471
  848MOL0     C14360   5.484   7.901   7.942  0.7563  0.3388 -0.0031
  848MOL0     C14361   5.615   7.941   7.891  0.4190  0.7345  0.3647
  848MOL0     N14362   5.696   8.041   7.966  1.0195  0.1770 -0.4471
  848MOL0     C14363   5.813   8.019   8.033  0.3992  0.5767 -0.3695
  848MOL0     C14364   5.832   8.117   8.117  0.1878 -0.7604 -0.4678
  848MOL0     C14365   5.944   8.133   8.206  0.2904  0.8627 -0.3992
  848MOL0     C14366   6.041   8.236   8.150 -0.0755 -0.2697 -0.5994
  848MOL0     C14367   6.173   8.240   8.220  0.3914 -0.5339  0.1506
  848MOL0     C14368   6.299   8.280   8.141 -0.2607 -0.6378 -0.4401
  848MOL0     O14369   6.413   8.306   8.220 -0.7114 -0.1189 -0.0326
  848MOL0     C14370   6.532   8.342   8.149  0.3252 -0.3679 -0.1026
  848MOL0     C14371   6.634   8.375   8.235 -0.1242 -0.4583 -0.1015
  848MOL0     C14372   6.759   8.423   8.193  0.2464  0.3908 -0.3728
  848MOL0     C14373   6.778   8.439   8.054 -0.4352 -0.0316 -0.3405
  848MOL0     C14374   6.909   8.471   7.996 -0.3740 -0.2220  0.8844
  848MOL0     O14375   6.997   8.509   8.084 -0.0183 -0.2436 -0.3259
  848MOL0     C14376   7.133   8.498   8.053 -0.3280 -0.0229  0.1516
  848MOL0     C14377   7.209   8.603   8.102  0.4343  0.2720  0.0496
  848MOL0     C14378   7.345   8.601   8.073  1.4963  0.4613 -0.2170
  848MOL0     C14379   7.411   8.492   8.010  0.1250 -0.5051 -0.0256
  848MOL0     O14380   7.544   8.489   7.966 -0.1765  0.2322 -0.7114
  848MOL0     C14381   7.614   8.614   7.967 -0.3427  0.4415  0.4590
  848MOL0     C14382   7.761   8.589   7.999 -0.6374  0.6141 -0.6844
  848MOL0     C14383   7.785   8.554   8.145 -0.4805  0.3565 -0.8540
  848MOL0     C14384   7.782   8.676   8.236 -0.2491  0.1580 -0.1827
  848MOL0     C14385   7.805   8.626   8.383 -0.1405 -0.1445  0.0422
  848MOL0     C14386   7.958   8.629   8.415  0.2227 -0.1061  0.1829
  848MOL0     C14387   8.025   8.767   8.443  0.6468 -0.0438  0.9670
  848MOL0     C14388   8.176   8.767   8.430  0.3101 -0.4027 -0.5367
  848MOL0    Cl14389   8.249   8.621   8.501 -0.1953 -0.1485 -0.3269
  848MOL0     C14390   7.327   8.386   7.965 -0.0446  0.0666  0.4181
  848MOL0     C14391   7.191   8.397   7.979 -0.1365  0.8604  0.0773
  848MOL0     O14392   6.931   8.458   7.876  0.1302  0.2643 -0.2697
  848MOL0     C14393   6.678   8.406   7.964  0.2609  0.1886  0.8144
  848MOL0     C14394   6.555   8.354   8.013  0.4670  0.1965 -0.6978
  848MOL0     N14395   5.719   8.201   8.109 -0.2336 -0.2651  0.2708
  848MOL0     N14396   5.644   8.156   8.020  0.1224  0.1682  0.3996
  848MOL0     C14397   6.204   7.729   8.089 -0.5853  0.7837  0.3924
  848MOL0     C14398   6.321   7.791   8.049 -1.2895  0.6355 -0.2728
  848MOL0     C14399   6.648   8.048   7.907 -0.4848 -0.2932  0.0802
  848MOL0     C14400   6.627   8.082   7.772 -0.8077 -0.0677  0.8156
  848MOL0     C14401   6.732   8.104   7.677  0.0778 -0.6912  0.2022
  848MOL0     C14402   6.867   8.112   7.729  0.3604  0.1857  0.0115
  848MOL0     O14403   6.974   8.122   7.640  0.5442 -0.5528 -0.3828
  848MOL0     C14404   6.969   8.249   7.570 -0.2022  0.2315 -0.3725
  848MOL0     C14405   7.091   8.265   7.490  0.2124 -0.0642  0.2710
  848MOL0     C14406   7.219   8.270   7.571  0.0493 -0.6609  0.0120
  848MOL0     C14407   7.344   8.270   7.480 -0.6318 -0.4091  0.2362
  848MOL0     C14408   7.456   8.310   7.568  0.5319 -0.7398  0.1677
  848MOL0     C14409   7.548   8.341   7.643  0.3554  0.4945 -0.2610
  848MOL0     C14410   6.890   8.089   7.864 -0.1705  0.8195 -0.3917
  848MOL0     C14411   6.786   8.060   7.950 -0.1643 -0.2089 -0.3324
  848MOL0     C14412   6.819   8.030   8.103 -0.7396 -0.2590  0.5121
  848MOL0     H14413   6.214   8.013   7.823 -1.0710  3.0346  2.0717
  848MOL0     H14414   5.998   7.878   7.871 -0.1228  1.6104  0.1356
  848MOL0     H14415   6.030   7.519   8.152  0.6847 -0.8118 -0.5221
  848MOL0     H14416   6.015   7.660   8.245  1.6909 -0.3676 -0.7139
  848MOL0     H14417   5.811   7.493   8.270  2.0320  0.7363  0.8800
  848MOL0     H14418   5.792   7.532   8.100  0.4020 -1.0326 -0.4227
  848MOL0     H14419   5.770   7.798   8.234  2.2301 -0.1222  3.2306
  848MOL0     H14420   5.754   7.691   8.370 -0.8215 -0.1976  0.0568
  848MOL0     H14421   5.573   7.556   8.223 -1.6707  0.1491 -0.1815
  848MOL0     H14422   5.539   7.714   8.302 -0.4073  0.9063 -1.1242
  848MOL0     H14423   5.651   7.711   8.024 -0.3760 -2.8195 -2.1646
  848MOL0     H14424   5.511   7.617   8.043 -0.6506 -0.6770  0.9218
  848MOL0     H14425   5.387   7.803   8.112 -0.9632 -0.7520 -2.1731
  848MOL0     H14426   5.533   7.900   8.152 -0.4597 -0.7161  1.2579
  848MOL0     H14427   5.422   7.988   7.965 -0.1030 -0.8374  2.3808
  848MOL0     H14428   5.433   7.837   7.870  0.6668 -0.2112  0.5433
  848MOL0     H14429   5.667   7.844   7.889  0.9807  1.0359 -0.0023
  848MOL0     H14430   5.610   7.979   7.788  0.3105  1.0651  0.4920
  848MOL0     H14431   5.886   7.941   8.010  1.9884  1.9868 -0.2958
  848MOL0     H14432   5.906   8.159   8.306  1.3844 -0.3128  0.3619
  848MOL0     H14433   5.999   8.039   8.212 -1.2372 -0.2421 -2.3086
  848MOL0     H14434   6.060   8.226   8.042  4.2849  3.6285 -0.5162
  848MOL0     H14435   5.991   8.333   8.151  0.1538  0.0037 -4.1196
  848MOL0     H14436   6.199   8.145   8.266 -0.8548 -1.4830 -1.0356
  848MOL0     H14437   6.165   8.312   8.302 -0.6798  0.9505 -1.1847
  848MOL0     H14438   6.286   8.373   8.085 -2.7327  0.8479  2.2851
  848MOL0     H14439   6.322   8.199   8.072  1.7096 -0.9537  0.4960
  848MOL0     H14440   6.614   8.354   8.340  0.9368 -0.1529  0.1675
  848MOL0     H14441   6.849   8.439   8.251  1.8568  3.6388 -3.3866
  848MOL0     H14442   7.155   8.683   8.153  2.8284  4.0768 -2.8548
  848MOL0     H14443   7.389   8.693   8.112  0.1111  0.0105  2.6762
  848MOL0     H14444   7.605   8.657   7.867 -1.3101 -0.7757 -0.0070
  848MOL0     H14445   7.575   8.688   8.039 -1.6518 -1.3192  1.6640
  848MOL0     H14446   7.809   8.523   7.926  0.6404 -0.1407  0.7926
  848MOL0     H14447   7.815   8.682   7.981  0.7129 -0.1530 -0.6833
  848MOL0     H14448   7.702   8.491   8.179 -0.9346  1.1326 -0.4872
  848MOL0     H14449   7.876   8.494   8.156  0.5748  2.1404  0.6835
  848MOL0     H14450   7.688   8.730   8.220 -0.3814 -0.8763 -3.6036
  848MOL0     H14451   7.859   8.749   8.211 -0.0602  1.9817  4.7139
  848MOL0     H14452   7.757   8.529   8.403 -1.7975  0.4400 -0.8590
  848MOL0     H14453   7.754   8.693   8.452  2.1884 -0.1017  1.8315
  848MOL0     H14454   7.965   8.573   8.509 -0.8041 -0.6795 -0.0645
  848MOL0     H14455   8.014   8.563   8.347 -0.1227  0.1097 -0.3134
  848MOL0     H14456   7.985   8.784   8.543  0.6813 -1.9395  1.3526
  848MOL0     H14457   7.989   8.840   8.370  2.1591 -1.0915 -0.9470
  848MOL0     H14458   8.201   8.769   8.323  0.5390  0.1684 -0.4744
  848MOL0     H14459   8.217   8.859   8.473  1.0577 -1.2636  0.6616
  848MOL0     H14460   7.373   8.308   7.906 -0.5925 -0.1418  0.2563
  848MOL0     H14461   7.123   8.327   7.931 -1.8549  2.9751 -0.7016
  848MOL0     H14462   6.689   8.426   7.858  0.2164 -1.6013  0.4308
  848MOL0     H14463   6.482   8.324   7.938  0.7764 -1.2632 -0.4404
  848MOL0     H14464   6.213   7.651   8.164 -0.8702 -1.4045 -1.7253
  848MOL0     H14465   6.415   7.752   8.090 -1.3169 -0.8745 -1.5675
  848MOL0     H14466   6.527   8.084   7.731 -0.4509  2.6074 -0.1137
  848MOL0     H14467   6.707   8.107   7.571 -1.0563  0.4290  0.4823
  848MOL0     H14468   6.964   8.324   7.649 -0.5447  0.2584 -0.4215
  848MOL0     H14469   6.875   8.256   7.515 -2.2571 -0.7904  2.7992
  848MOL0     H14470   7.084   8.359   7.434 -0.4229 -0.5655 -0.5276
  848MOL0     H14471   7.084   8.182   7.418 -1.3118 -0.4723  0.8369
  848MOL0     H14472   7.219   8.189   7.644 -0.0765 -0.2428  0.4762
  848MOL0     H14473   7.228   8.359   7.633  1.0439 -0.4801 -0.3714
  848MOL0     H14474   7.354   8.169   7.439 -0.8099 -1.5301  2.7564
  848MOL0     H14475   7.338   8.337   7.394 -2.4147  0.9081  1.3036
  848MOL0     H14476   7.623   8.362   7.717  0.3979  0.8434 -0.4012
  848MOL0     H14477   6.993   8.087   7.899  0.0501 -0.9664 -1.0449
  848MOL0     H14478   6.924   8.045   8.132 -0.1036 -3.0141 -0.0915
  848MOL0     H14479   6.756   8.092   8.167 -1.1195  0.0001 -0.0930
  848MOL0     H14480   6.796   7.926   8.127 -0.3255 -1.5549 -3.7747
  849MOL0     O14481   3.380   1.345   6.652  0.4653  0.0450 -0.7949
  849MOL0     C14482   3.330   1.407   6.742  0.5284 -0.1832 -1.0502
  849MOL0     O14483   3.394   1.447   6.863 -0.1558 -0.6453  0.1546
  849MOL0     C14484   3.497   1.379   6.908 -0.2864  0.3999  0.2618
  849MOL0     C14485   3.605   1.453   6.964  0.1601 -0.0521  0.0873
  849MOL0     C14486   3.723   1.386   7.005  0.1143  0.6039  0.6861
  849MOL0     C14487   3.733   1.246   6.995 -0.2193 -0.0385 -0.0058
  849MOL0     O14488   3.850   1.196   7.037  0.2975  0.2561 -0.4791
  849MOL0     C14489   3.880   1.052   7.027 -0.4819  0.5910  0.6977
  849MOL0     C14490   4.016   1.032   7.094 -0.1817 -0.0403  0.1231
  849MOL0     C14491   4.054   0.883   7.105  0.2597 -0.4788  0.8578
  849MOL0     C14492   4.058   0.819   6.969  0.1363 -0.0727 -0.0102
  849MOL0     C14493   4.062   0.671   6.958  1.0380  0.1864  0.0924
  849MOL0     C14494   3.930   0.610   6.999  0.5573 -0.0659  0.4212
  849MOL0     C14495   3.944   0.458   6.967  0.1788 -0.4666  0.0707
  849MOL0     C14496   3.843   0.365   7.039  0.5753 -0.6341 -0.2051
  849MOL0     N14497   3.701   0.400   7.022 -1.0848  0.4431  0.2245
  849MOL0     C14498   3.637   0.407   6.899 -0.4720  0.2867 -0.3671
  849MOL0     C14499   3.511   0.444   6.933  0.2566  0.3634  0.2492
  849MOL0     C14500   3.409   0.474   6.829  0.0363 -0.0076 -0.0678
  849MOL0     C14501   3.267   0.457   6.886  0.0252  0.5562  0.7680
  849MOL0     C14502   3.155   0.449   6.779  0.0274  0.2026 -0.3164
  849MOL0     C14503   3.014   0.481   6.831 -0.3413 -0.0400 -0.3168
  849MOL0     O14504   2.922   0.491   6.718 -0.2424 -0.7343 -0.8896
  849MOL0     C14505   2.797   0.513   6.760 -0.1550 -0.1319  0.4724
  849MOL0     C14506   2.701   0.483   6.669 -0.0241  0.1856  0.1790
  849MOL0     C14507   2.567   0.505   6.692  0.1345 -0.5259  0.6139
  849MOL0     C14508   2.529   0.578   6.808  0.1022 -0.4037 -0.2725
  849MOL0     C14509   2.392   0.633   6.829  0.2276 -0.2654  0.1255
  849MOL0     O14510   2.302   0.593   6.728  0.4713 -0.2961 -0.1344
  849MOL0     C14511   2.166   0.601   6.749 -0.3520 -0.1402  0.0297
  849MOL0     C14512   2.103   0.601   6.878  0.3209  0.0504 -0.4479
  849MOL0     C14513   1.966   0.622   6.879 -0.1452  0.3062 -0.6621
  849MOL0     C14514   1.894   0.642   6.767 -0.0248 -0.2906  0.2123
  849MOL0     O14515   1.754   0.648   6.756 -0.3919 -1.1105  0.5459
  849MOL0     C14516   1.676   0.730   6.847  0.2514  0.2924  0.5433
  849MOL0     C14517   1.612   0.841   6.761 -0.6782  0.0968 -0.7779
  849MOL0     C14518   1.539   0.954   6.848 -0.3947  0.0079  1.1203
  849MOL0     C14519   1.482   1.063   6.745  0.0617 -0.2793  0.3893
  849MOL0     C14520   1.421   1.176   6.813  0.0968 -0.9492  0.7167
  849MOL0     C14521   1.390   1.296   6.713 -0.9694 -0.0377  0.2646
  849MOL0     C14522   1.340   1.424   6.775  0.3713  1.0726 -0.6111
  849MOL0     C14523   1.214   1.403   6.855 -0.0273  0.1575  0.8286
  849MOL0    Cl14524   1.088   1.344   6.748  0.1712  0.0024  0.2669
  849MOL0     C14525   1.953   0.626   6.642 -1.0684 -0.3678 -0.4152
  849MOL0     C14526   2.092   0.605   6.637  0.6162  0.3306  0.5169
  849MOL0     O14527   2.363   0.707   6.925  0.1116  0.0121 -0.1003
  849MOL0     C14528   2.630   0.614   6.906  0.1901 -0.2755 -0.0530
  849MOL0     C14529   2.763   0.584   6.883  0.2861 -0.4272  0.1078
  849MOL0     N14530   3.500   0.458   7.075  0.2850 -0.6518  0.2224
  849MOL0     N14531   3.617   0.425   7.123  0.5086 -0.0633 -0.0138
  849MOL0     C14532   3.624   1.171   6.946  0.2866  0.4447  0.9867
  849MOL0     C14533   3.505   1.236   6.899  0.5060 -0.0910  0.1050
  849MOL0     C14534   3.189   1.461   6.709 -1.2184 -0.1138  0.3989
  849MOL0     C14535   3.133   1.554   6.806 -1.0662 -0.1994  0.9948
  849MOL0     C14536   3.000   1.587   6.804 -0.2758  0.1928  0.8323
  849MOL0     C14537   2.913   1.528   6.714  0.7861  0.6780  0.0664
  849MOL0     O14538   2.777   1.544   6.725 -0.4495  0.1027  0.3688
  849MOL0     C14539   2.687   1.456   6.666 -0.0243 -0.0437 -0.1778
  849MOL0     C14540   2.542   1.498   6.697  0.2038  0.1798  0.1746
  849MOL0     C14541   2.519   1.501   6.852  0.4880  0.2738  0.6188
  849MOL0     C14542   2.409   1.594   6.882  0.5754  0.3084 -0.0193
  849MOL0     C14543   2.282   1.550   6.825  0.0096 -0.4365 -0.1052
  849MOL0     C14544   2.178   1.507   6.764  0.1943 -0.1624  0.0336
  849MOL0     C14545   2.967   1.443   6.617  0.2701  0.4375  0.2266
  849MOL0     C14546   3.104   1.422   6.604 -1.0755 -0.7448  0.1538
  849MOL0     C14547   3.143   1.347   6.481 -0.0811  0.3815 -0.6402
  849MOL0     H14548   3.603   1.562   6.963 -0.9968 -0.0283 -1.7558
  849MOL0     H14549   3.802   1.444   7.052  0.6204  1.0149 -0.6274
  849MOL0     H14550   3.808   0.986   7.075  1.1567 -2.2562 -0.5371
  849MOL0     H14551   3.886   1.029   6.920  0.0075  4.3850 -0.2537
  849MOL0     H14552   4.010   1.074   7.195 -3.3179 -0.0287  0.0359
  849MOL0     H14553   4.090   1.096   7.046  2.3316 -1.7945  1.4071
  849MOL0     H14554   3.976   0.823   7.153  1.1085 -1.0841  1.4956
  849MOL0     H14555   4.144   0.853   7.158 -0.1674 -2.0362  0.7746
  849MOL0     H14556   3.980   0.856   6.901 -1.7539 -0.9883  1.5438
  849MOL0     H14557   4.157   0.847   6.932  2.9432 -0.8785  5.8437
  849MOL0     H14558   4.092   0.638   6.858  1.8397  1.0988  0.0157
  849MOL0     H14559   4.145   0.638   7.022  1.4132  2.0612  0.6212
  849MOL0     H14560   3.902   0.629   7.104 -0.7297  2.6181 -0.3125
  849MOL0     H14561   3.848   0.644   6.935  0.4189  2.3298  1.7284
  849MOL0     H14562   4.051   0.441   6.984  0.6501 -2.5742 -3.7347
  849MOL0     H14563   3.936   0.444   6.859  1.1041  1.0187 -0.2250
  849MOL0     H14564   3.849   0.260   7.006  1.6354 -0.9752  0.9959
  849MOL0     H14565   3.858   0.362   7.147 -1.4953 -2.3878  0.1101
  849MOL0     H14566   3.682   0.390   6.802 -3.2257  0.4871 -1.7853
  849MOL0     H14567   3.433   0.577   6.799  0.3420 -0.2654 -0.7192
  849MOL0     H14568   3.418   0.398   6.751  4.8359 -2.4474  2.4279
  849MOL0     H14569   3.262   0.365   6.944 -3.8136 -1.5311 -2.3563
  849MOL0     H14570   3.246   0.540   6.953 -2.0337  0.5336  0.2016
  849MOL0     H14571   3.152   0.349   6.735  2.3269 -0.9200  1.7981
  849MOL0     H14572   3.184   0.517   6.699  1.3567 -2.3635 -2.1650
  849MOL0     H14573   3.020   0.579   6.879  1.1522 -0.6319  0.7760
  849MOL0     H14574   2.992   0.410   6.911  2.2525  1.7296  2.1770
  849MOL0     H14575   2.739   0.429   6.583 -3.1823  3.7530 -3.8820
  849MOL0     H14576   2.495   0.478   6.615 -0.2811  1.1196  0.3813
  849MOL0     H14577   2.151   0.587   6.975  0.1807 -3.0741 -0.7254
  849MOL0     H14578   1.923   0.607   6.978 -0.2068  1.5645 -0.4906
  849MOL0     H14579   1.595   0.661   6.875 -0.8620  0.7321 -1.3667
  849MOL0     H14580   1.726   0.765   6.938 -1.9185  0.4863  1.7340
  849MOL0     H14581   1.698   0.888   6.712 -1.8942 -1.0308 -4.2589
  849MOL0     H14582   1.545   0.799   6.686  0.0385 -4.2455  0.7008
  849MOL0     H14583   1.460   0.918   6.914 -1.5884  2.0947  0.9161
  849MOL0     H14584   1.611   1.000   6.916  1.5670 -1.1125 -0.0862
  849MOL0     H14585   1.422   1.033   6.658  2.4589  2.3735 -2.4014
  849MOL0     H14586   1.565   1.103   6.686 -0.6335 -0.0914 -0.4987
  849MOL0     H14587   1.493   1.212   6.887 -1.5587  4.8040  0.0165
  849MOL0     H14588   1.331   1.156   6.872  0.1663 -1.7406  0.5605
  849MOL0     H14589   1.482   1.322   6.659 -1.4450  1.2812  0.0441
  849MOL0     H14590   1.317   1.253   6.643 -0.6560 -2.3107  1.2532
  849MOL0     H14591   1.318   1.493   6.694 -1.5960  1.7837  0.4654
  849MOL0     H14592   1.413   1.473   6.841  1.5410 -1.4658  0.1141
  849MOL0     H14593   1.223   1.326   6.932  0.0584 -1.4692 -0.7189
  849MOL0     H14594   1.183   1.496   6.904 -0.9494  0.2489  0.1033
  849MOL0     H14595   1.893   0.642   6.553 -1.2837  1.1388 -0.0259
  849MOL0     H14596   2.141   0.601   6.540  0.6810  2.7970  0.3810
  849MOL0     H14597   2.604   0.679   6.989  0.1297  1.5614 -1.4398
  849MOL0     H14598   2.834   0.626   6.954  0.5100  0.4161 -0.5929
  849MOL0     H14599   3.628   1.063   6.942  2.8701  0.4639 -3.9122
  849MOL0     H14600   3.413   1.188   6.867  1.1017 -1.2924  0.1410
  849MOL0     H14601   3.192   1.586   6.892 -2.5859  2.9320  1.0018
  849MOL0     H14602   2.963   1.656   6.879 -0.7198  0.7064  0.1500
  849MOL0     H14603   2.714   1.354   6.696  3.3725  1.3921  2.1862
  849MOL0     H14604   2.697   1.469   6.557 -2.2911 -1.0195 -0.5581
  849MOL0     H14605   2.476   1.419   6.660  1.5323 -2.5341  3.1301
  849MOL0     H14606   2.511   1.589   6.644  0.5214  0.8128  1.0583
  849MOL0     H14607   2.613   1.523   6.904  1.5995  2.0823 -1.9096
  849MOL0     H14608   2.486   1.401   6.881  1.2070 -0.4261 -0.8629
  849MOL0     H14609   2.406   1.602   6.991  1.0330 -1.4489  0.1583
  849MOL0     H14610   2.431   1.694   6.844 -2.0123  0.3098 -1.7116
  849MOL0     H14611   2.092   1.466   6.717  0.4698  0.9552 -1.5351
  849MOL0     H14612   2.902   1.398   6.542 -0.6369  2.2629 -0.1332
  849MOL0     H14613   3.062   1.345   6.407 -2.6138  1.2316  1.9511
  849MOL0     H14614   3.233   1.372   6.424 -0.8232 -0.6151 -2.3420
  849MOL0     H14615   3.147   1.242   6.510 -0.3292  0.1241 -1.5050
  850MOL0     O14616   6.419   3.746   2.007 -0.2774 -0.2223 -0.2559
  850MOL0     C14617   6.330   3.830   2.009 -0.1817  0.3472  0.4899
  850MOL0     O14618   6.346   3.958   1.973 -0.3141  0.9682  0.3036
  850MOL0     C14619   6.459   4.014   1.921  0.3252  0.2843 -0.3933
  850MOL0     C14620   6.584   4.011   1.986 -0.0966 -0.2306  0.1406
  850MOL0     C14621   6.686   4.073   1.912  0.1513  0.7312  0.6631
  850MOL0     C14622   6.684   4.122   1.781  0.5309  0.2389  0.3272
  850MOL0     O14623   6.788   4.201   1.736 -0.2113  0.3863 -0.1572
  850MOL0     C14624   6.830   4.191   1.598  0.1354  0.4007  0.6171
  850MOL0     C14625   6.984   4.180   1.577 -0.2447  0.3008 -0.6860
  850MOL0     C14626   7.064   4.301   1.621 -1.0120  0.4363 -1.1919
  850MOL0     C14627   7.208   4.284   1.558 -0.2600  0.3506  0.1647
  850MOL0     C14628   7.316   4.383   1.628  0.1474 -0.3579 -0.2432
  850MOL0     C14629   7.268   4.527   1.615  0.5677 -0.5007 -0.1755
  850MOL0     C14630   7.379   4.624   1.651 -0.1188 -0.1015  0.6499
  850MOL0     C14631   7.496   4.624   1.546  0.7529 -0.4762 -0.8021
  850MOL0     N14632   7.596   4.731   1.577  0.2181  0.5048  0.0188
  850MOL0     C14633   7.675   4.750   1.688 -0.8666 -0.0868  0.4905
  850MOL0     C14634   7.710   4.879   1.689  0.0970  0.4034 -0.3967
  850MOL0     C14635   7.800   4.960   1.775  0.1036  0.4544 -0.4588
  850MOL0     C14636   7.941   4.901   1.791 -0.2255 -0.5177  0.5495
  850MOL0     C14637   8.035   5.006   1.855  0.2560 -0.0387  0.3363
  850MOL0     C14638   8.181   4.960   1.862 -0.0884  0.2085  1.2152
  850MOL0     O14639   8.184   4.854   1.959  0.2223  0.4311  0.0271
  850MOL0     C14640   8.307   4.793   1.979 -0.1278 -0.9595 -0.5972
  850MOL0     C14641   8.421   4.822   1.911 -0.2591  0.0282 -0.1861
  850MOL0     C14642   8.536   4.752   1.938 -0.7615 -0.5932 -0.5833
  850MOL0     C14643   8.544   4.654   2.026  0.2474  0.1769 -0.2147
  850MOL0     C14644   8.669   4.585   2.061 -0.6801  0.1430 -0.3577
  850MOL0     O14645   8.787   4.636   2.003  0.0602 -0.2001  0.1973
  850MOL0     C14646   8.911   4.574   2.023 -0.5939  0.6729 -0.5846
  850MOL0     C14647   8.932   4.439   2.009  0.3021  0.1310 -0.9262
  850MOL0     C14648   9.056   4.382   2.021 -0.0858  0.4504 -0.5589
  850MOL0     C14649   9.171   4.458   2.050  0.2123  0.1275  0.2212
  850MOL0     O14650   9.300   4.423   2.057 -0.4494 -0.7616 -0.0078
  850MOL0     C14651   9.329   4.282   2.039  0.3465 -0.5955 -0.4020
  850MOL0     C14652   9.486   4.267   2.034  0.5673  0.1825  1.0203
  850MOL0     C14653   9.567   4.276   2.167  0.6620  0.0479 -0.2768
  850MOL0     C14654   9.707   4.213   2.151 -0.0622 -1.0164 -0.5016
  850MOL0     C14655   9.786   4.271   2.030  1.2375  0.1737 -0.2813
  850MOL0     C14656   9.926   4.211   2.008  0.7884 -0.1168  0.3404
  850MOL0     C14657  10.011   4.270   1.892 -0.1483 -1.0898 -0.3621
  850MOL0     C14658  10.036   4.425   1.899  0.2652 -0.7350 -0.9973
  850MOL0    Cl14659  10.150   4.491   2.025  0.1858  0.7092 -0.2497
  850MOL0     C14660   9.150   4.597   2.061 -0.6420 -0.0865 -0.0357
  850MOL0     C14661   9.025   4.656   2.051 -0.0995  0.4401 -0.1584
  850MOL0     O14662   8.663   4.495   2.148 -0.4095  0.3998 -0.3087
  850MOL0     C14663   8.427   4.615   2.091  0.0617 -0.2365 -0.6502
  850MOL0     C14664   8.309   4.688   2.069  0.7314 -0.8795  0.0337
  850MOL0     N14665   7.676   4.930   1.569 -0.0712  0.9991  0.1569
  850MOL0     N14666   7.608   4.846   1.496  0.0363  0.2412  0.2536
  850MOL0     C14667   6.555   4.126   1.722 -0.5391 -0.0587 -0.4472
  850MOL0     C14668   6.447   4.075   1.793 -0.4956 -0.5836 -0.9708
  850MOL0     C14669   6.195   3.796   2.065 -0.1136  0.5198  0.2637
  850MOL0     C14670   6.106   3.901   2.090  0.3531  0.6672  0.5282
  850MOL0     C14671   5.980   3.870   2.149 -0.6873 -0.5560  0.3741
  850MOL0     C14672   5.948   3.737   2.175  0.0905 -0.1645 -0.4092
  850MOL0     O14673   5.829   3.700   2.237 -0.4134  0.0177 -0.3330
  850MOL0     C14674   5.731   3.794   2.281  0.4108  0.2836  0.5965
  850MOL0     C14675   5.609   3.718   2.333 -0.7684 -0.0154  0.2265
  850MOL0     C14676   5.507   3.815   2.400 -0.9849  0.6537  0.7001
  850MOL0     C14677   5.396   3.734   2.469 -0.1852 -0.5830 -0.3662
  850MOL0     C14678   5.291   3.712   2.378  0.2301  0.4385  0.6199
  850MOL0     C14679   5.205   3.683   2.295 -0.6229  0.0415  0.6046
  850MOL0     C14680   6.027   3.632   2.148 -0.6906  0.4783 -0.1063
  850MOL0     C14681   6.150   3.658   2.093  0.3796 -0.2285 -0.0580
  850MOL0     C14682   6.235   3.549   2.045 -0.5638 -0.1586  0.1489
  850MOL0     H14683   6.596   3.964   2.083 -3.1903  1.8239  1.6754
  850MOL0     H14684   6.784   4.075   1.959  0.5235 -0.7180 -0.0146
  850MOL0     H14685   6.795   4.101   1.547 -2.0465  2.3549 -1.5858
  850MOL0     H14686   6.795   4.283   1.550 -0.9261 -0.1840  0.2138
  850MOL0     H14687   6.994   4.156   1.470 -0.1095 -0.8216 -0.4328
  850MOL0     H14688   7.019   4.094   1.635  1.5548  2.2067  1.2248
  850MOL0     H14689   7.071   4.302   1.730  3.2999  3.4265 -1.2605
  850MOL0     H14690   7.016   4.392   1.585 -1.3200  0.6747 -0.1940
  850MOL0     H14691   7.237   4.179   1.555 -1.6408 -0.0210 -1.0283
  850MOL0     H14692   7.196   4.309   1.453  0.3638 -0.3263 -0.0751
  850MOL0     H14693   7.336   4.350   1.730  0.6093 -2.0790 -0.8532
  850MOL0     H14694   7.415   4.378   1.581  0.6297  2.7556  0.2259
  850MOL0     H14695   7.229   4.540   1.513  1.0605  1.3980 -0.1725
  850MOL0     H14696   7.181   4.552   1.675  1.6496  1.1839  0.7638
  850MOL0     H14697   7.416   4.604   1.752 -2.4458 -1.1498  1.3597
  850MOL0     H14698   7.337   4.724   1.645  2.2372  1.0686  2.0928
  850MOL0     H14699   7.544   4.526   1.542  2.2962  0.1827  0.3366
  850MOL0     H14700   7.448   4.644   1.450 -1.3120  1.8143  0.5867
  850MOL0     H14701   7.693   4.687   1.774  0.6467 -0.6508 -0.2032
  850MOL0     H14702   7.805   5.061   1.733 -0.6279 -0.1167 -1.9878
  850MOL0     H14703   7.763   4.967   1.878  2.1984 -0.0761  0.3679
  850MOL0     H14704   7.938   4.811   1.854 -2.2170  0.9170  2.6677
  850MOL0     H14705   7.973   4.872   1.690 -4.5545  4.1007 -2.6501
  850MOL0     H14706   8.002   5.012   1.959 -2.2222  2.6765 -0.4772
  850MOL0     H14707   8.023   5.101   1.802 -2.4655 -0.5981 -0.2184
  850MOL0     H14708   8.251   5.042   1.883  0.6046 -0.2813  0.8504
  850MOL0     H14709   8.197   4.913   1.765 -0.4904 -0.2071  1.3484
  850MOL0     H14710   8.418   4.905   1.841  0.1045  1.1514  1.0904
  850MOL0     H14711   8.630   4.768   1.887 -1.3074 -1.3207 -1.8776
  850MOL0     H14712   8.843   4.379   1.990  0.1364 -0.2248  0.8190
  850MOL0     H14713   9.053   4.277   1.993 -4.1137 -0.3157  1.9703
  850MOL0     H14714   9.283   4.224   2.120  1.1705 -0.9913 -0.2128
  850MOL0     H14715   9.290   4.257   1.939 -1.3212 -0.1739  0.1030
  850MOL0     H14716   9.512   4.167   1.999  2.7408  0.4247  1.7755
  850MOL0     H14717   9.523   4.341   1.963  0.8238 -0.8400  0.0668
  850MOL0     H14718   9.576   4.379   2.204 -1.9612  0.4606 -0.5464
  850MOL0     H14719   9.509   4.226   2.246  0.0023  3.2442  1.4559
  850MOL0     H14720   9.696   4.105   2.141 -2.4102 -1.2770  3.1249
  850MOL0     H14721   9.759   4.230   2.245  1.6646 -1.2464 -1.3690
  850MOL0     H14722   9.794   4.379   2.045 -0.1822  0.9393 -3.9754
  850MOL0     H14723   9.729   4.251   1.939  0.1917 -1.0137  0.5999
  850MOL0     H14724   9.972   4.230   2.106 -0.1854 -0.1269  0.8080
  850MOL0     H14725   9.920   4.102   2.001  1.2185 -0.1531  0.5127
  850MOL0     H14726   9.949   4.243   1.806 -0.0231 -2.2774 -0.1094
  850MOL0     H14727  10.096   4.201   1.896  0.2706 -0.5597  0.1242
  850MOL0     H14728  10.092   4.444   1.807  0.3909 -1.1463 -1.0083
  850MOL0     H14729   9.944   4.484   1.891  1.0086  0.4326 -1.1659
  850MOL0     H14730   9.229   4.666   2.089 -0.2294 -0.6464  0.2016
  850MOL0     H14731   9.027   4.763   2.071  0.6874 -0.1468  3.8569
  850MOL0     H14732   8.418   4.534   2.162  0.4142 -1.5282 -2.0183
  850MOL0     H14733   8.211   4.660   2.105  0.3329  3.1216  2.7588
  850MOL0     H14734   6.529   4.168   1.626 -1.8035  0.5777  0.1552
  850MOL0     H14735   6.349   4.085   1.746 -0.2744  1.9938 -1.0374
  850MOL0     H14736   6.138   4.000   2.060  5.7917 -1.0788 -0.4509
  850MOL0     H14737   5.929   3.955   2.195 -0.1656  0.4486 -0.8498
  850MOL0     H14738   5.692   3.853   2.198  1.0837 -0.8284 -0.5473
  850MOL0     H14739   5.773   3.859   2.358 -1.4353 -1.0494  2.8779
  850MOL0     H14740   5.637   3.643   2.408  2.0354 -1.0645 -1.6924
  850MOL0     H14741   5.557   3.660   2.256 -0.5343 -0.7242  0.5932
  850MOL0     H14742   5.461   3.873   2.319  1.8107  2.1831  0.0847
  850MOL0     H14743   5.552   3.890   2.466 -3.2984  3.1896 -0.4135
  850MOL0     H14744   5.433   3.635   2.497 -0.2075 -0.3920  0.3567
  850MOL0     H14745   5.362   3.778   2.563  1.1618  0.6203 -0.3907
  850MOL0     H14746   5.127   3.667   2.224 -0.7412  1.7683  0.3221
  850MOL0     H14747   5.990   3.531   2.162  3.0868 -0.8841  1.2960
  850MOL0     H14748   6.178   3.456   2.038 -0.3806 -0.2452 -0.1537
  850MOL0     H14749   6.277   3.568   1.946  1.0909  0.0747  0.8684
  850MOL0     H14750   6.318   3.532   2.114  1.5892 -0.1985 -2.3004
  851MOL0     O14751   2.033   4.493   5.074  0.4230 -0.1104  0.1428
  851MOL0     C14752   2.039   4.615   5.087 -0.3732 -0.3125  0.1514
  851MOL0     O14753   2.149   4.691   5.065  0.4333 -0.3722  0.2601
  851MOL0     C14754   2.267   4.635   5.036 -0.7263 -0.6414 -1.4580
  851MOL0     C14755   2.285   4.532   4.942 -0.1596  0.2051 -0.7668
  851MOL0     C14756   2.414   4.487   4.906  0.1031 -0.3838 -0.4771
  851MOL0     C14757   2.529   4.553   4.957 -0.3751  0.5699 -0.2163
  851MOL0     O14758   2.655   4.523   4.906 -0.0312 -0.1673  0.0100
  851MOL0     C14759   2.763   4.517   4.997  0.0088  0.1769 -0.2943
  851MOL0     C14760   2.877   4.580   4.929  0.7923 -0.3075 -0.2859
  851MOL0     C14761   2.960   4.500   4.824 -0.3577  0.5041  0.1554
  851MOL0     C14762   3.106   4.501   4.863  0.7742 -0.8716 -0.5387
  851MOL0     C14763   3.200   4.417   4.766  0.2897 -0.5336 -0.7111
  851MOL0     C14764   3.348   4.426   4.819  0.5879  0.6717  0.2111
  851MOL0     C14765   3.395   4.317   4.911 -0.2840  0.0131  0.0542
  851MOL0     C14766   3.520   4.361   4.987  0.8876 -0.4026  0.6179
  851MOL0     N14767   3.635   4.384   4.900 -1.1857  0.1188 -0.7841
  851MOL0     C14768   3.689   4.296   4.811 -0.5947 -1.0363 -0.3607
  851MOL0     C14769   3.793   4.373   4.761  0.0534 -0.4844  0.7042
  851MOL0     C14770   3.880   4.302   4.659  0.0111 -0.1616 -0.6339
  851MOL0     C14771   4.025   4.280   4.683 -0.8749 -0.0936  0.2563
  851MOL0     C14772   4.107   4.392   4.736 -0.1067 -0.4271  0.5632
  851MOL0     C14773   4.261   4.391   4.720  0.1772 -0.4516 -0.2183
  851MOL0     O14774   4.318   4.295   4.798  0.0068  0.1348  0.9001
  851MOL0     C14775   4.438   4.241   4.769 -0.4367 -0.2703 -0.5615
  851MOL0     C14776   4.455   4.112   4.802  0.1317 -0.2830  0.6215
  851MOL0     C14777   4.571   4.049   4.784 -0.1211 -0.1002  0.3541
  851MOL0     C14778   4.682   4.117   4.733 -0.6971  0.7452  0.1424
  851MOL0     C14779   4.812   4.040   4.709 -0.3671  0.6086  0.4384
  851MOL0     O14780   4.923   4.112   4.684  0.7164 -0.7901 -0.5645
  851MOL0     C14781   5.049   4.065   4.670 -0.5533 -0.9098  0.0130
  851MOL0     C14782   5.107   3.938   4.706 -0.0285  0.8415 -0.5114
  851MOL0     C14783   5.245   3.911   4.692  0.0429  0.0883  0.4401
  851MOL0     C14784   5.333   4.016   4.638 -0.7363  0.5014  0.3177
  851MOL0     O14785   5.473   3.993   4.629  0.7155  0.1560  0.0990
  851MOL0     C14786   5.530   3.869   4.678  0.4010 -0.8506  0.2457
  851MOL0     C14787   5.673   3.877   4.667 -0.3274 -0.4038  0.0384
  851MOL0     C14788   5.740   3.746   4.718  0.3095  0.2181 -0.3927
  851MOL0     C14789   5.875   3.705   4.660 -0.0927  0.2869  0.0247
  851MOL0     C14790   5.988   3.805   4.650  0.4035  0.2212 -0.1386
  851MOL0     C14791   6.126   3.746   4.615  1.1951  0.6089 -0.6309
  851MOL0     C14792   6.232   3.853   4.622 -0.2436 -0.4669 -0.4019
  851MOL0     C14793   6.364   3.809   4.558  0.0598 -0.1464 -0.6908
  851MOL0    Cl14794   6.470   3.946   4.606  0.0862  0.0234  0.0687
  851MOL0     C14795   5.276   4.140   4.608  0.2181 -0.4599  0.4078
  851MOL0     C14796   5.139   4.171   4.632 -0.6615  1.0250 -0.0343
  851MOL0     O14797   4.808   3.918   4.713  0.0240  0.5793  0.8258
  851MOL0     C14798   4.664   4.245   4.685 -0.5070  0.1615  0.0292
  851MOL0     C14799   4.539   4.313   4.706 -0.6327 -0.0276 -1.1267
  851MOL0     N14800   3.812   4.489   4.831  0.8707 -0.0607  0.0619
  851MOL0     N14801   3.709   4.500   4.904 -0.1194  0.6938  0.4696
  851MOL0     C14802   2.508   4.659   5.049  0.0647 -0.2842  0.1224
  851MOL0     C14803   2.379   4.697   5.091  0.2025  0.1327  0.3491
  851MOL0     C14804   1.916   4.690   5.128  0.5286  0.7997  0.3079
  851MOL0     C14805   1.797   4.661   5.054 -0.5869  0.5911  0.1963
  851MOL0     C14806   1.685   4.732   5.088  0.6461  0.1999 -0.0139
  851MOL0     C14807   1.681   4.831   5.187  0.0593 -0.8098  0.3985
  851MOL0     O14808   1.569   4.908   5.211  0.0881 -0.0245 -0.6302
  851MOL0     C14809   1.555   4.990   5.325 -0.1323 -0.5963  0.0847
  851MOL0     C14810   1.422   5.073   5.330  0.0501 -0.0845  0.1679
  851MOL0     C14811   1.304   4.977   5.315  0.4682  0.5741 -0.4465
  851MOL0     C14812   1.178   5.053   5.344  0.3579 -0.4181 -0.5436
  851MOL0     C14813   1.057   4.983   5.285 -0.8840 -0.6612 -0.2921
  851MOL0     C14814   0.958   4.934   5.249 -0.4830  0.7138  0.1059
  851MOL0     C14815   1.792   4.843   5.273 -0.0041 -0.0473  0.1799
  851MOL0     C14816   1.909   4.782   5.236  0.1585 -1.1223  0.2113
  851MOL0     C14817   2.028   4.813   5.329 -0.2600  0.3712  0.7634
  851MOL0     H14818   2.196   4.489   4.897  1.7616 -3.6222 -1.3004
  851MOL0     H14819   2.425   4.415   4.826  0.0565  0.3994 -1.1951
  851MOL0     H14820   2.739   4.566   5.092 -0.1579  2.0012 -1.2371
  851MOL0     H14821   2.785   4.411   5.007  1.6998  0.5178 -0.1480
  851MOL0     H14822   2.952   4.607   5.004  0.6182  0.4362 -0.3787
  851MOL0     H14823   2.850   4.680   4.895  1.0708  0.2599  1.0781
  851MOL0     H14824   2.946   4.552   4.729 -0.9197  1.3765  0.7015
  851MOL0     H14825   2.920   4.399   4.823  1.6182 -0.3289 -1.2182
  851MOL0     H14826   3.146   4.599   4.892  0.4038 -1.4533  2.1900
  851MOL0     H14827   3.094   4.444   4.956 -3.2557  0.0981 -0.2990
  851MOL0     H14828   3.169   4.313   4.754  0.9553 -0.6485 -1.5453
  851MOL0     H14829   3.188   4.464   4.667 -0.9317 -1.8224 -1.2129
  851MOL0     H14830   3.409   4.431   4.728 -0.6302 -0.3820 -0.7055
  851MOL0     H14831   3.359   4.521   4.872 -0.6503  0.1948  1.3847
  851MOL0     H14832   3.419   4.226   4.857 -2.7310  0.9406 -2.8412
  851MOL0     H14833   3.319   4.294   4.986 -0.2473  0.0311  0.0973
  851MOL0     H14834   3.504   4.459   5.033  1.2875  1.2695 -2.4938
  851MOL0     H14835   3.540   4.273   5.049  0.7117 -1.5623 -0.9147
  851MOL0     H14836   3.663   4.195   4.781  0.2922 -1.8138  1.3377
  851MOL0     H14837   3.837   4.203   4.640 -0.7759 -0.4298  2.0791
  851MOL0     H14838   3.858   4.341   4.559 -2.1268 -1.8333 -0.8905
  851MOL0     H14839   4.044   4.192   4.744  1.6269 -0.2576 -0.6264
  851MOL0     H14840   4.075   4.254   4.589  2.9306 -1.2632  2.3732
  851MOL0     H14841   4.084   4.407   4.842  1.0744  0.4889  0.7101
  851MOL0     H14842   4.080   4.477   4.673  0.2775  0.4279  1.5084
  851MOL0     H14843   4.295   4.492   4.745  0.4920 -0.4872 -0.4919
  851MOL0     H14844   4.293   4.374   4.617  0.0257 -1.2388 -0.1393
  851MOL0     H14845   4.370   4.055   4.839  0.4784 -0.6653  0.8405
  851MOL0     H14846   4.580   3.947   4.821  0.9592 -0.2689 -0.3314
  851MOL0     H14847   5.049   3.865   4.761  2.6409 -2.3001 -1.5391
  851MOL0     H14848   5.268   3.807   4.713 -1.6326 -0.6301 -0.9697
  851MOL0     H14849   5.511   3.866   4.786  1.7108  1.3603  0.6036
  851MOL0     H14850   5.486   3.784   4.625 -1.8652  1.2027 -1.4146
  851MOL0     H14851   5.699   3.908   4.566 -2.4455 -0.2791 -0.5118
  851MOL0     H14852   5.718   3.962   4.719  0.8738 -1.4684  0.8316
  851MOL0     H14853   5.752   3.768   4.824  0.2008  1.3994 -0.6096
  851MOL0     H14854   5.676   3.658   4.709  0.2719  0.0329  1.3561
  851MOL0     H14855   5.858   3.661   4.561  0.5594  1.0604 -0.4431
  851MOL0     H14856   5.913   3.620   4.718  1.2289 -0.4782 -1.8717
  851MOL0     H14857   6.002   3.852   4.748 -0.2934 -1.2025  0.6680
  851MOL0     H14858   5.945   3.878   4.580 -0.4636  0.5056  0.6820
  851MOL0     H14859   6.141   3.663   4.685  0.2274  0.0325 -1.0767
  851MOL0     H14860   6.131   3.691   4.520  0.2997 -0.5446 -0.0442
  851MOL0     H14861   6.240   3.881   4.727 -0.6430 -2.0086  0.0724
  851MOL0     H14862   6.197   3.939   4.564  1.1765  0.0774 -0.4702
  851MOL0     H14863   6.403   3.717   4.601 -0.5965 -0.0628  0.1084
  851MOL0     H14864   6.346   3.796   4.451 -0.0558  0.9493 -0.8165
  851MOL0     H14865   5.343   4.222   4.583  1.1687 -0.6856  2.1399
  851MOL0     H14866   5.111   4.274   4.612 -0.0733  1.1267 -0.3312
  851MOL0     H14867   4.748   4.289   4.632  0.6169 -0.8235  0.9582
  851MOL0     H14868   4.514   4.408   4.659  1.4542  1.8566  1.2655
  851MOL0     H14869   2.585   4.725   5.089  1.7478 -1.4487 -1.0697
  851MOL0     H14870   2.375   4.778   5.162  3.1044  0.8873 -0.2484
  851MOL0     H14871   1.781   4.581   4.982 -0.5745 -0.2476  1.0998
  851MOL0     H14872   1.593   4.714   5.033  0.8765  0.2296 -0.4124
  851MOL0     H14873   1.638   5.059   5.341 -1.0042  0.2353  1.1871
  851MOL0     H14874   1.546   4.921   5.409  1.3772 -0.5876  0.2769
  851MOL0     H14875   1.426   5.153   5.255  2.2783  0.3341  0.6527
  851MOL0     H14876   1.415   5.119   5.429 -1.9498  2.7728 -1.1529
  851MOL0     H14877   1.321   4.903   5.394  1.0114 -0.8128 -1.8146
  851MOL0     H14878   1.303   4.927   5.218 -0.6062 -0.1822 -0.0626
  851MOL0     H14879   1.155   5.073   5.449 -0.9400  0.0111 -0.8885
  851MOL0     H14880   1.186   5.152   5.299 -1.7066  1.0814  2.1332
  851MOL0     H14881   0.860   4.895   5.228 -0.4670  0.5930  0.2580
  851MOL0     H14882   1.799   4.916   5.353  3.6785  1.1701 -1.0669
  851MOL0     H14883   2.119   4.757   5.309 -0.5683  0.1002  0.0864
  851MOL0     H14884   2.053   4.918   5.345 -0.4319  0.4471  0.5443
  851MOL0     H14885   1.993   4.774   5.425  0.4890  0.2991  1.0138
  852MOL0     O14886  10.426   4.858  11.053  0.2144  0.5748  0.2702
  852MOL0     C14887  10.412   4.954  10.970  0.1676  1.4687  0.2709
  852MOL0     O14888  10.510   5.026  10.917 -0.1944 -0.0469  0.5261
  852MOL0     C14889  10.632   5.013  10.976 -0.2043  0.0041  0.1912
  852MOL0     C14890  10.661   5.064  11.101 -0.0938  0.6286  0.2798
  852MOL0     C14891  10.780   5.048  11.165  0.0325  0.6985  0.0930
  852MOL0     C14892  10.882   4.982  11.101 -0.4542 -0.5322  0.5268
  852MOL0     O14893  11.004   4.964  11.168  0.5523  0.1173 -0.1057
  852MOL0     C14894  11.052   5.072  11.248 -0.8990  0.1796  0.3855
  852MOL0     C14895  11.203   5.054  11.267  0.0186 -0.4431  0.2610
  852MOL0     C14896  11.266   5.060  11.123 -0.2798 -0.0531 -0.1086
  852MOL0     C14897  11.421   5.090  11.152  0.0222 -0.9795 -0.4287
  852MOL0     C14898  11.497   5.094  11.010  0.5297  1.1544 -0.3125
  852MOL0     C14899  11.634   5.158  11.016  0.1767 -0.2801  0.2852
  852MOL0     C14900  11.722   5.121  11.133  0.0063 -0.1640  0.0435
  852MOL0     C14901  11.749   4.967  11.151  0.5613 -0.6093  0.3012
  852MOL0     N14902  11.784   4.920  11.280  0.5356  1.1886 -0.3949
  852MOL0     C14903  11.904   4.864  11.331 -0.0983 -0.3754 -0.3058
  852MOL0     C14904  11.872   4.830  11.463  1.3904  0.0291  0.2620
  852MOL0     C14905  11.978   4.765  11.546 -0.7874  0.2844 -0.3289
  852MOL0     C14906  11.949   4.614  11.569 -0.0853 -0.8676 -0.1323
  852MOL0     C14907  12.073   4.545  11.634  0.3323 -0.4083 -0.0037
  852MOL0     C14908  12.087   4.595  11.779  1.0747 -0.4218 -0.6066
  852MOL0     O14909  12.143   4.493  11.862 -0.0335 -0.0359 -0.1434
  852MOL0     C14910  12.278   4.456  11.849  0.2279 -0.0342 -0.6766
  852MOL0     C14911  12.360   4.512  11.747 -0.2155 -0.2252  0.5912
  852MOL0     C14912  12.489   4.459  11.725  0.6339 -0.1094  1.2905
  852MOL0     C14913  12.543   4.353  11.803  0.2540 -0.1629 -0.2999
  852MOL0     C14914  12.669   4.283  11.766 -0.3599  0.1945  0.3786
  852MOL0     O14915  12.734   4.320  11.657 -0.1683  0.2550  0.8151
  852MOL0     C14916  12.866   4.269  11.640  1.2204 -0.3938 -0.2070
  852MOL0     C14917  12.875   4.140  11.593  0.0822 -0.1347  0.3513
  852MOL0     C14918  13.000   4.089  11.572 -0.0953 -0.3511  0.6795
  852MOL0     C14919  13.122   4.159  11.599  0.4366 -0.4490 -0.4108
  852MOL0     O14920  13.242   4.108  11.556  0.1626  0.1107 -0.3929
  852MOL0     C14921  13.342   4.190  11.514 -0.2514 -0.8112 -0.0237
  852MOL0     C14922  13.477   4.140  11.559  0.4721 -0.5644  0.2947
  852MOL0     C14923  13.587   4.232  11.495  1.1221 -0.0459  0.4977
  852MOL0     C14924  13.721   4.172  11.525  0.4152 -0.4532  0.1278
  852MOL0     C14925  13.780   4.221  11.659 -0.3243 -0.3342  1.4048
  852MOL0     C14926  13.908   4.144  11.704  0.1479 -0.3595  0.6429
  852MOL0     C14927  14.034   4.150  11.608  0.2695  0.2510  0.3584
  852MOL0     C14928  14.166   4.091  11.665  0.7842 -0.1869  1.0522
  852MOL0    Cl14929  14.141   3.917  11.681 -0.2847 -0.2090  0.0397
  852MOL0     C14930  13.106   4.282  11.667 -0.4034 -0.1544  0.6030
  852MOL0     C14931  12.976   4.336  11.687 -0.3510  0.7515  0.4044
  852MOL0     O14932  12.706   4.202  11.849 -0.1535  0.6172  0.8603
  852MOL0     C14933  12.469   4.314  11.910  0.2988  0.0685 -0.1244
  852MOL0     C14934  12.338   4.364  11.934  0.4984 -0.1809 -0.2373
  852MOL0     N14935  11.736   4.866  11.486 -0.2312  0.1613  0.0505
  852MOL0     N14936  11.691   4.927  11.379 -0.2621  0.0068 -0.2304
  852MOL0     C14937  10.868   4.945  10.965  0.0812 -0.4692  0.1855
  852MOL0     C14938  10.747   4.970  10.905 -0.0374  0.2646  0.7602
  852MOL0     C14939  10.269   4.997  10.937  0.4218  0.1613  0.4069
  852MOL0     C14940  10.245   5.137  10.917  0.0475 -0.2244 -0.2174
  852MOL0     C14941  10.115   5.167  10.868 -0.3956 -0.4088 -0.0442
  852MOL0     C14942  10.010   5.078  10.852 -0.8551  1.3275  0.1264
  852MOL0     O14943   9.884   5.111  10.811 -0.2448 -0.5746 -0.9102
  852MOL0     C14944   9.816   5.223  10.881 -0.2700 -0.1582  0.1072
  852MOL0     C14945   9.675   5.254  10.811 -0.1644 -0.2583 -0.1786
  852MOL0     C14946   9.594   5.353  10.894  0.0302  0.8598 -0.3140
  852MOL0     C14947   9.478   5.416  10.828  0.8597  0.0916 -0.0756
  852MOL0     C14948   9.356   5.324  10.830 -0.8977  0.0180  1.0598
  852MOL0     C14949   9.264   5.247  10.858 -1.0489  0.0530  1.0941
  852MOL0     C14950  10.039   4.941  10.878 -0.2888 -0.2631  0.6257
  852MOL0     C14951  10.162   4.899  10.929 -0.0049  0.7110  0.8061
  852MOL0     C14952  10.182   4.751  10.952  0.4402  0.1128  0.4718
  852MOL0     H14953  10.572   5.109  11.145 -1.0434  1.8232 -2.6324
  852MOL0     H14954  10.790   5.075  11.269  0.3342  2.8065 -0.4413
  852MOL0     H14955  11.036   5.170  11.203  3.5560  0.1834 -1.7430
  852MOL0     H14956  11.006   5.060  11.347  0.8078 -0.8427  1.1090
  852MOL0     H14957  11.224   4.956  11.310  0.8878 -1.2385 -1.8072
  852MOL0     H14958  11.237   5.131  11.337  0.0175 -1.2563  1.1641
  852MOL0     H14959  11.225   5.152  11.079  2.2464  0.8475 -0.7911
  852MOL0     H14960  11.250   4.981  11.049  2.3901  0.5763 -1.5018
  852MOL0     H14961  11.433   5.184  11.207 -0.1814 -1.3380  0.2338
  852MOL0     H14962  11.460   5.009  11.215  1.9997  1.0872  1.1557
  852MOL0     H14963  11.506   4.988  10.985 -2.3731  0.9459 -0.7691
  852MOL0     H14964  11.438   5.148  10.936  0.0529 -1.2884 -1.8088
  852MOL0     H14965  11.677   5.137  10.918  2.9756 -0.4004  1.4494
  852MOL0     H14966  11.612   5.264  11.023 -1.1847 -0.5048 -0.3009
  852MOL0     H14967  11.682   5.161  11.226 -1.9283 -0.3577 -0.6609
  852MOL0     H14968  11.816   5.173  11.112 -0.4555  1.0956  1.0234
  852MOL0     H14969  11.661   4.919  11.107  0.4294  0.6759 -0.9176
  852MOL0     H14970  11.835   4.935  11.091  0.8755 -2.6017  1.7093
  852MOL0     H14971  12.002   4.867  11.284 -0.1116 -2.6992 -0.6020
  852MOL0     H14972  12.071   4.770  11.490 -1.0472  1.1729 -0.6935
  852MOL0     H14973  11.994   4.815  11.643  2.0002 -1.6567  0.3253
  852MOL0     H14974  11.861   4.603  11.634  0.6461  0.9702  1.2506
  852MOL0     H14975  11.914   4.561  11.480 -1.4456  3.2595 -2.3401
  852MOL0     H14976  12.158   4.561  11.567  0.0072 -0.3187 -0.4023
  852MOL0     H14977  12.057   4.437  11.627  0.5383 -0.3279 -2.7503
  852MOL0     H14978  11.983   4.610  11.809  0.2435 -1.7362 -2.6336
  852MOL0     H14979  12.131   4.694  11.795 -2.2236  0.9483  0.8873
  852MOL0     H14980  12.338   4.602  11.691 -1.4175  0.4124  2.0256
  852MOL0     H14981  12.545   4.495  11.640 -0.5585 -0.4230  0.3417
  852MOL0     H14982  12.788   4.087  11.556  3.2531 -3.4358 -3.4421
  852MOL0     H14983  13.008   3.986  11.540  0.1636 -0.1925  0.2299
  852MOL0     H14984  13.336   4.200  11.405 -1.4405 -0.3762  0.0612
  852MOL0     H14985  13.338   4.291  11.556 -0.5807  1.0173 -3.9993
  852MOL0     H14986  13.486   4.150  11.668  0.5504  4.2404  0.0714
  852MOL0     H14987  13.490   4.035  11.532  1.7649 -0.3982  0.1713
  852MOL0     H14988  13.583   4.232  11.385  2.2645 -0.7238  0.4475
  852MOL0     H14989  13.579   4.337  11.525  1.8273 -0.5714  2.6800
  852MOL0     H14990  13.790   4.199  11.444  1.9357 -0.0648  1.4838
  852MOL0     H14991  13.721   4.062  11.520  0.7736 -0.4471 -0.0933
  852MOL0     H14992  13.701   4.202  11.733 -2.3589 -2.3995 -1.0817
  852MOL0     H14993  13.810   4.324  11.642 -1.3562 -0.4885 -2.1798
  852MOL0     H14994  13.934   4.197  11.797 -0.3243 -0.3063  0.7483
  852MOL0     H14995  13.884   4.042  11.735 -1.1155 -0.8938 -1.8362
  852MOL0     H14996  14.049   4.257  11.589  0.1559  0.4806  1.4745
  852MOL0     H14997  14.003   4.101  11.515  0.0950 -1.0328  1.0764
  852MOL0     H14998  14.247   4.116  11.596 -0.3992 -1.1682 -0.7679
  852MOL0     H14999  14.185   4.134  11.765 -0.4431  1.1404  0.7480
  852MOL0     H15000  13.191   4.338  11.707  0.0547 -0.8063  0.5634
  852MOL0     H15001  12.955   4.430  11.737 -0.0008  2.6818 -2.7435
  852MOL0     H15002  12.506   4.237  11.976 -2.5104  0.2923  1.8886
  852MOL0     H15003  12.286   4.332  12.024 -0.5554  0.2888 -0.6739
  852MOL0     H15004  10.950   4.897  10.913  1.1781 -0.9697  2.2619
  852MOL0     H15005  10.735   4.947  10.799 -1.7572  1.2410  0.7063
  852MOL0     H15006  10.316   5.218  10.926 -0.3137  0.6594 -3.7054
  852MOL0     H15007  10.088   5.266  10.835 -0.8974 -0.7102 -0.5619
  852MOL0     H15008   9.892   5.301  10.864 -1.4036  1.0492  0.4164
  852MOL0     H15009   9.797   5.206  10.987 -0.5607 -2.4516 -0.2788
  852MOL0     H15010   9.631   5.155  10.795 -0.8544 -0.0522  0.3994
  852MOL0     H15011   9.695   5.304  10.715  1.2966 -0.4612  0.0006
  852MOL0     H15012   9.668   5.429  10.921  0.2292  0.2897  0.8131
  852MOL0     H15013   9.570   5.302  10.988 -2.0279  3.2078  0.5334
  852MOL0     H15014   9.444   5.509  10.875 -2.5635 -1.8431  1.6749
  852MOL0     H15015   9.496   5.450  10.726  1.3833  0.3979  0.1174
  852MOL0     H15016   9.175   5.192  10.883 -2.1179  1.1369 -0.1352
  852MOL0     H15017   9.956   4.871  10.878 -0.2396 -0.3387 -0.6384
  852MOL0     H15018  10.272   4.710  10.906  0.2883 -0.6483  0.8424
  852MOL0     H15019  10.194   4.743  11.060 -0.6144 -0.4088  0.5655
  852MOL0     H15020  10.104   4.682  10.920  2.1999 -0.5441 -2.8436
  853MOL0     O15021   3.717   6.166   8.002 -0.1892  0.1939 -0.5402
  853MOL0     C15022   3.688   6.214   8.109 -0.1784 -0.1447 -0.6718
  853MOL0     O15023   3.766   6.295   8.184  0.4557  0.1131  0.0505
  853MOL0     C15024   3.885   6.320   8.130 -0.7437 -0.5064 -0.2851
  853MOL0     C15025   3.990   6.227   8.122  0.6069 -0.6859  0.1960
  853MOL0     C15026   4.105   6.254   8.051  0.2261  0.3658  0.3238
  853MOL0     C15027   4.131   6.377   7.997 -0.4823 -0.1200  0.1934
  853MOL0     O15028   4.249   6.406   7.939  0.3822 -0.8311 -0.5843
  853MOL0     C15029   4.282   6.544   7.926 -0.0786 -0.4340 -0.3555
  853MOL0     C15030   4.431   6.557   7.948 -0.2283  0.1979 -0.2476
  853MOL0     C15031   4.512   6.484   7.838  0.4998  0.0419  0.0415
  853MOL0     C15032   4.663   6.508   7.851  0.0947  0.6174 -0.1735
  853MOL0     C15033   4.725   6.472   7.980  0.6826  0.1328  0.7583
  853MOL0     C15034   4.875   6.447   7.969  0.6403 -0.2465  0.2207
  853MOL0     C15035   4.935   6.420   8.099 -1.2067  0.1687 -0.4670
  853MOL0     C15036   5.095   6.434   8.077  0.9549  0.1110  1.1121
  853MOL0     N15037   5.176   6.392   8.188 -0.0996  0.3142  0.6856
  853MOL0     C15038   5.211   6.472   8.293 -0.2912 -1.0090 -0.7895
  853MOL0     C15039   5.312   6.401   8.347 -0.0338  0.0908 -0.1278
  853MOL0     C15040   5.398   6.447   8.464 -0.3954 -0.0975 -0.2493
  853MOL0     C15041   5.351   6.405   8.603  0.3669  0.0250 -0.1292
  853MOL0     C15042   5.376   6.252   8.619  0.1151  0.1748  0.2453
  853MOL0     C15043   5.520   6.204   8.608 -0.0768  0.1324 -0.0969
  853MOL0     O15044   5.596   6.281   8.698  0.1239  0.3780 -0.1401
  853MOL0     C15045   5.730   6.305   8.696  0.5322 -0.5102  0.1913
  853MOL0     C15046   5.775   6.406   8.781  0.1175 -0.7755 -0.0952
  853MOL0     C15047   5.911   6.449   8.777  0.0216  0.6728  0.0939
  853MOL0     C15048   6.006   6.378   8.693 -0.1896 -0.0065 -0.4277
  853MOL0     C15049   6.150   6.406   8.716  0.2981 -0.0268  0.4789
  853MOL0     O15050   6.235   6.334   8.638 -0.3041 -0.6981 -0.4785
  853MOL0     C15051   6.364   6.367   8.653 -0.0813 -0.1029  0.6310
  853MOL0     C15052   6.411   6.500   8.627 -0.5190 -0.0810  0.1929
  853MOL0     C15053   6.553   6.523   8.639  0.8150 -0.2459 -0.3634
  853MOL0     C15054   6.648   6.427   8.645 -0.2685  0.1848 -1.0006
  853MOL0     O15055   6.784   6.462   8.651  0.3274 -0.1285  0.1929
  853MOL0     C15056   6.871   6.352   8.657 -0.1622 -0.7435  0.6950
  853MOL0     C15057   7.018   6.390   8.671  0.0926  0.3791 -0.3300
  853MOL0     C15058   7.067   6.497   8.577 -0.9758  0.1594  0.0526
  853MOL0     C15059   7.119   6.628   8.641 -0.1106  0.0967 -0.1353
  853MOL0     C15060   7.263   6.606   8.694  0.0008  0.4065 -0.6326
  853MOL0     C15061   7.312   6.740   8.734  0.4279 -0.4229  0.3942
  853MOL0     C15062   7.465   6.755   8.758 -0.4389 -0.6539  0.1453
  853MOL0     C15063   7.493   6.877   8.846  0.8787 -0.1890 -0.2424
  853MOL0    Cl15064   7.447   7.014   8.753  0.2787  0.4156  0.4172
  853MOL0     C15065   6.599   6.293   8.665  0.0762  0.8993 -0.2123
  853MOL0     C15066   6.459   6.267   8.667 -0.6051  0.0755 -0.2646
  853MOL0     O15067   6.183   6.487   8.798  0.3130 -0.5750 -0.1664
  853MOL0     C15068   5.955   6.282   8.603 -0.3207 -0.1700 -0.7712
  853MOL0     C15069   5.824   6.240   8.616  0.7188  0.3448  0.0948
  853MOL0     N15070   5.329   6.280   8.279  0.0084  0.2913 -0.6496
  853MOL0     N15071   5.237   6.269   8.194 -1.0242 -0.4447  0.6603
  853MOL0     C15072   4.029   6.473   8.004  0.2038 -0.0103 -0.9036
  853MOL0     C15073   3.904   6.451   8.072  0.3725 -0.1280  0.1029
  853MOL0     C15074   3.563   6.180   8.175 -0.3610  0.6102 -0.5860
  853MOL0     C15075   3.462   6.280   8.191  0.5350  0.6028 -0.8381
  853MOL0     C15076   3.331   6.227   8.206 -0.2298  0.0558 -0.0665
  853MOL0     C15077   3.302   6.096   8.207 -0.7912 -0.4123 -0.7127
  853MOL0     O15078   3.173   6.076   8.210  0.1487  0.1575 -0.2748
  853MOL0     C15079   3.121   5.945   8.241 -0.0366 -0.9022 -0.1136
  853MOL0     C15080   2.962   5.949   8.255 -0.5515  0.1085 -0.6048
  853MOL0     C15081   2.894   5.947   8.126 -0.3831  0.3722  0.1425
  853MOL0     C15082   2.757   5.999   8.155  0.7231  0.6135 -1.0884
  853MOL0     C15083   2.669   5.990   8.036 -0.2994 -0.1846 -0.2663
  853MOL0     C15084   2.601   5.995   7.938 -0.0853  0.4726 -0.1175
  853MOL0     C15085   3.402   6.001   8.202 -0.6992 -0.0571  0.3531
  853MOL0     C15086   3.534   6.040   8.178  0.1468  0.3775 -0.4405
  853MOL0     C15087   3.646   5.938   8.184 -0.1214 -0.1876 -0.8044
  853MOL0     H15088   3.955   6.128   8.152  0.0156 -0.1769  1.2480
  853MOL0     H15089   4.173   6.175   8.022 -2.4631 -0.8142 -3.7890
  853MOL0     H15090   4.258   6.578   7.824 -1.1384  0.6142  0.2199
  853MOL0     H15091   4.236   6.609   8.001 -2.5923 -1.1433 -1.1679
  853MOL0     H15092   4.459   6.525   8.048 -1.1779  1.5142  0.4670
  853MOL0     H15093   4.455   6.664   7.948 -2.5099  0.7828  1.0457
  853MOL0     H15094   4.491   6.540   7.746 -3.3734 -1.5595 -0.2256
  853MOL0     H15095   4.487   6.378   7.832  2.1692 -0.6454  3.1419
  853MOL0     H15096   4.709   6.452   7.770 -0.6976  0.4051 -0.4840
  853MOL0     H15097   4.680   6.614   7.832 -0.7648  0.8347  0.2351
  853MOL0     H15098   4.695   6.549   8.052 -2.8288 -0.2868 -0.0791
  853MOL0     H15099   4.671   6.385   8.018 -0.0251  0.7397  1.1756
  853MOL0     H15100   4.898   6.366   7.899  0.2734 -0.0601 -0.1154
  853MOL0     H15101   4.919   6.541   7.932 -2.8090  1.3649 -0.1178
  853MOL0     H15102   4.910   6.320   8.134 -0.5255  0.5626  1.2394
  853MOL0     H15103   4.899   6.492   8.173  0.8012 -2.2637  3.1928
  853MOL0     H15104   5.123   6.373   7.991  1.5287 -0.5111  1.7266
  853MOL0     H15105   5.119   6.538   8.054  0.6218 -0.3618 -1.7233
  853MOL0     H15106   5.181   6.572   8.322 -1.3290 -0.9415 -2.0070
  853MOL0     H15107   5.503   6.420   8.450  0.3684  1.9338  1.0086
  853MOL0     H15108   5.417   6.554   8.477  0.1120 -0.3531  1.4350
  853MOL0     H15109   5.398   6.458   8.686  0.3329 -2.7245  1.7825
  853MOL0     H15110   5.244   6.420   8.616  0.2394  0.7890 -1.8372
  853MOL0     H15111   5.300   6.189   8.570  0.1753  0.4564 -0.2215
  853MOL0     H15112   5.348   6.234   8.723 -2.0747 -0.1287 -0.3274
  853MOL0     H15113   5.559   6.206   8.506 -0.6472 -1.3433 -0.3723
  853MOL0     H15114   5.524   6.099   8.637 -1.7057 -0.4799 -1.8315
  853MOL0     H15115   5.702   6.449   8.849  0.9115  1.2337 -0.4326
  853MOL0     H15116   5.939   6.524   8.851  0.4150  1.2639 -0.6369
  853MOL0     H15117   6.342   6.584   8.620 -0.4832 -0.1658 -1.6271
  853MOL0     H15118   6.577   6.629   8.639 -1.8376  0.4588 -2.1442
  853MOL0     H15119   6.851   6.297   8.750  0.4182  0.5536  1.6186
  853MOL0     H15120   6.874   6.286   8.570  2.2896 -2.2532  1.8157
  853MOL0     H15121   7.047   6.410   8.774  2.0617 -1.2870 -0.4965
  853MOL0     H15122   7.069   6.297   8.644 -1.3754 -0.4699 -0.3183
  853MOL0     H15123   7.145   6.456   8.512 -1.9824 -2.4414  0.3628
  853MOL0     H15124   6.987   6.527   8.509 -0.4921 -0.3147 -0.7409
  853MOL0     H15125   7.051   6.662   8.719  1.7234  0.9669  1.1506
  853MOL0     H15126   7.114   6.708   8.566  0.4060  0.2309 -0.0286
  853MOL0     H15127   7.336   6.551   8.634  1.1595 -0.7480  1.7456
  853MOL0     H15128   7.245   6.545   8.782 -1.9086 -0.0298 -1.2715
  853MOL0     H15129   7.275   6.806   8.655  0.0352 -1.2314 -0.1109
  853MOL0     H15130   7.257   6.756   8.826 -1.0714 -2.4711 -0.0956
  853MOL0     H15131   7.519   6.755   8.663 -1.5755  0.4902 -0.5450
  853MOL0     H15132   7.487   6.670   8.823 -4.0913 -0.8304  1.3739
  853MOL0     H15133   7.450   6.875   8.947  0.1787 -1.0164 -0.5457
  853MOL0     H15134   7.601   6.881   8.868  0.8692  2.7814 -0.3487
  853MOL0     H15135   6.663   6.208   8.682 -2.0895 -0.6882  0.5534
  853MOL0     H15136   6.421   6.167   8.687  0.7543 -0.4068  0.0293
  853MOL0     H15137   6.018   6.248   8.522  4.3268  0.4120  2.2425
  853MOL0     H15138   5.795   6.173   8.537  0.3507  0.9535 -0.2922
  853MOL0     H15139   4.037   6.572   7.959 -2.3280 -0.1037 -1.7515
  853MOL0     H15140   3.816   6.514   8.075 -0.7484 -1.6782  1.0816
  853MOL0     H15141   3.486   6.385   8.183 -1.4423  1.1165 -0.4589
  853MOL0     H15142   3.245   6.294   8.213  0.6785  1.0634  3.3688
  853MOL0     H15143   3.169   5.923   8.337 -1.4551  0.4667  0.9498
  853MOL0     H15144   3.144   5.879   8.157 -1.6589  0.4211 -1.6836
  853MOL0     H15145   2.927   6.034   8.314 -1.9520  0.1884 -1.5062
  853MOL0     H15146   2.933   5.861   8.314  0.4378  0.3719  0.3183
  853MOL0     H15147   2.883   5.853   8.070 -0.3854 -0.4709  1.5217
  853MOL0     H15148   2.944   6.015   8.056  0.3829 -0.7904 -0.4861
  853MOL0     H15149   2.698   5.940   8.225 -1.4038  1.1326 -2.3598
  853MOL0     H15150   2.772   6.102   8.190  2.0820  0.3206 -0.7378
  853MOL0     H15151   2.549   5.993   7.844  3.2111  0.5268 -2.1089
  853MOL0     H15152   3.387   5.894   8.212 -0.5036 -0.0344  0.9068
  853MOL0     H15153   3.701   5.947   8.089 -0.2094 -0.1896 -0.8556
  853MOL0     H15154   3.709   5.950   8.273  0.0625 -1.6234 -0.7209
  853MOL0     H15155   3.609   5.836   8.172 -2.0699  0.3612  0.1786
  854MOL0     O15156   8.442   3.438  11.055  0.0678  0.1345  0.5096
  854MOL0     C15157   8.444   3.502  10.948  0.3325  0.2166  0.0793
  854MOL0     O15158   8.551   3.543  10.879  0.1024  0.0807  0.3217
  854MOL0     C15159   8.675   3.527  10.939 -0.6377 -0.4290  0.2408
  854MOL0     C15160   8.729   3.626  11.019 -0.3452  0.8728 -0.5614
  854MOL0     C15161   8.846   3.605  11.082 -0.3733 -1.0443 -0.3863
  854MOL0     C15162   8.926   3.486  11.064  0.4718 -0.1622 -0.4508
  854MOL0     O15163   9.054   3.464  11.111 -0.2760  0.1530 -0.0689
  854MOL0     C15164   9.133   3.576  11.121  0.4575 -0.0223  0.0259
  854MOL0     C15165   9.275   3.527  11.142  0.6491 -0.7403 -0.2413
  854MOL0     C15166   9.364   3.625  11.224  0.0756  0.1394 -0.0889
  854MOL0     C15167   9.433   3.739  11.144  1.2454 -0.0622  0.3232
  854MOL0     C15168   9.532   3.805  11.238 -0.3922  0.3511 -0.5711
  854MOL0     C15169   9.605   3.918  11.173 -0.0849  0.6693 -0.2180
  854MOL0     C15170   9.741   3.942  11.234  0.2589  0.2471 -0.7687
  854MOL0     C15171   9.758   3.958  11.386  0.6797 -0.0212  0.1298
  854MOL0     N15172   9.901   3.956  11.424  0.4324  0.2778  0.6095
  854MOL0     C15173   9.987   4.059  11.390  0.0358 -0.6011  0.7038
  854MOL0     C15174  10.098   4.037  11.453 -0.1404 -0.1722 -0.3042
  854MOL0     C15175  10.211   4.134  11.459  0.6421 -0.2578  0.1622
  854MOL0     C15176  10.315   4.104  11.576 -0.6327  0.5221 -0.1458
  854MOL0     C15177  10.417   3.992  11.529  0.2222 -0.4672 -0.3266
  854MOL0     C15178  10.494   4.029  11.396 -0.1646 -0.5758 -0.6493
  854MOL0     O15179  10.618   3.957  11.424  0.3627  0.3078  0.2233
  854MOL0     C15180  10.722   3.968  11.333 -0.1929 -0.4689 -1.3494
  854MOL0     C15181  10.849   3.934  11.378  0.7474 -0.3341  0.4339
  854MOL0     C15182  10.953   3.910  11.285 -0.1219 -0.8248 -0.3044
  854MOL0     C15183  10.933   3.933  11.145 -0.5335 -0.1834 -0.7536
  854MOL0     C15184  11.032   3.906  11.037  0.8783  0.3246  0.7112
  854MOL0     O15185  11.017   3.980  10.926  0.0075  0.6096  0.3907
  854MOL0     C15186  11.131   3.994  10.852  0.2287 -0.4022  0.2347
  854MOL0     C15187  11.186   4.127  10.848  0.8168 -0.0267 -0.2518
  854MOL0     C15188  11.298   4.153  10.775  0.3606 -0.0241  0.7588
  854MOL0     C15189  11.369   4.045  10.723  0.0692  0.2087 -0.1142
  854MOL0     O15190  11.484   4.086  10.660 -0.0398  0.1169  0.1155
  854MOL0     C15191  11.587   3.995  10.630 -0.1981 -0.8483 -0.0529
  854MOL0     C15192  11.689   4.056  10.541  0.0806  1.0138 -0.8998
  854MOL0     C15193  11.804   3.965  10.496  0.3548  0.5931 -0.5496
  854MOL0     C15194  11.888   4.026  10.386 -0.9328  0.1196  0.3566
  854MOL0     C15195  11.978   3.917  10.326  0.3969  0.3345 -0.1553
  854MOL0     C15196  12.105   3.980  10.270  0.5817  0.2485 -0.6055
  854MOL0     C15197  12.165   3.878  10.174  0.7275  0.5579 -0.0795
  854MOL0     C15198  12.293   3.934  10.106  0.7394 -0.3411 -0.2966
  854MOL0    Cl15199  12.379   3.831   9.981  0.5044 -0.1344  0.0029
  854MOL0     C15200  11.320   3.919  10.728  0.3363  0.0195  0.2473
  854MOL0     C15201  11.196   3.890  10.783  0.9084  0.8895 -0.4139
  854MOL0     O15202  11.125   3.834  11.062  0.2508 -0.4271 -0.1643
  854MOL0     C15203  10.806   3.963  11.102  0.0569 -0.5243  0.8846
  854MOL0     C15204  10.705   3.984  11.195  0.1486 -0.2342 -1.0727
  854MOL0     N15205  10.089   3.915  11.520  0.1342 -0.0353 -0.4166
  854MOL0     N15206   9.969   3.869  11.498 -0.0125  1.0142 -0.0522
  854MOL0     C15207   8.867   3.389  10.990  0.0766  0.4292 -0.1801
  854MOL0     C15208   8.749   3.410  10.915 -0.3217 -0.4322  0.0436
  854MOL0     C15209   8.317   3.524  10.867 -0.0301  1.0020 -0.1466
  854MOL0     C15210   8.321   3.528  10.728 -0.4072  0.3213 -0.7618
  854MOL0     C15211   8.199   3.536  10.650 -0.4905  0.6791 -0.2004
  854MOL0     C15212   8.079   3.561  10.715 -0.7198 -0.3350  0.2195
  854MOL0     O15213   7.962   3.569  10.638 -0.6937  0.4734  0.3533
  854MOL0     C15214   7.838   3.622  10.689 -0.7915 -0.0033  0.4660
  854MOL0     C15215   7.734   3.524  10.723  0.3320 -0.1292  0.3196
  854MOL0     C15216   7.773   3.440  10.850 -0.4587  0.2748 -0.2365
  854MOL0     C15217   7.705   3.305  10.866  0.9174  0.4943  0.2057
  854MOL0     C15218   7.677   3.226  10.739  0.0945 -0.4507 -0.7877
  854MOL0     C15219   7.659   3.147  10.653  0.3618  0.2041 -0.2934
  854MOL0     C15220   8.074   3.582  10.851 -0.5821  0.6054  0.1255
  854MOL0     C15221   8.194   3.560  10.922  0.7219  1.3894  0.1265
  854MOL0     C15222   8.183   3.581  11.063 -0.0810  0.1334 -0.0262
  854MOL0     H15223   8.678   3.721  11.031 -0.8195  0.4788  0.7032
  854MOL0     H15224   8.888   3.689  11.136 -0.7663 -0.6778 -0.6432
  854MOL0     H15225   9.108   3.641  11.037 -2.1770  2.0014  2.1781
  854MOL0     H15226   9.096   3.617  11.216 -2.5246 -3.7357  0.7107
  854MOL0     H15227   9.323   3.504  11.047  0.4885 -0.9650 -0.2678
  854MOL0     H15228   9.262   3.435  11.200  0.1840  0.7554  2.1966
  854MOL0     H15229   9.450   3.570  11.262 -0.8025  0.0591  1.9122
  854MOL0     H15230   9.319   3.654  11.319  2.3081 -2.6717  1.9963
  854MOL0     H15231   9.491   3.699  11.060 -0.8120  1.0972 -1.7529
  854MOL0     H15232   9.355   3.805  11.105  1.3522  0.0050  0.2203
  854MOL0     H15233   9.491   3.832  11.336  2.0466 -0.3355  0.7201
  854MOL0     H15234   9.598   3.721  11.262 -1.3109 -0.1821  0.1691
  854MOL0     H15235   9.621   3.887  11.069  1.3133  1.3935 -0.2371
  854MOL0     H15236   9.548   4.012  11.177 -1.8029 -0.3467  0.4907
  854MOL0     H15237   9.779   4.030  11.182  2.2515 -0.6726 -0.9647
  854MOL0     H15238   9.804   3.857  11.206 -0.4826 -0.0073 -1.7055
  854MOL0     H15239   9.723   4.053  11.430  1.7153  0.2218  0.4505
  854MOL0     H15240   9.703   3.888  11.450 -1.1373  4.0211  3.5659
  854MOL0     H15241   9.963   4.152  11.339  2.7751  0.0154  0.3994
  854MOL0     H15242  10.261   4.144  11.362  1.4425  0.2177  0.6238
  854MOL0     H15243  10.164   4.231  11.478 -0.9715 -0.2838 -2.9548
  854MOL0     H15244  10.377   4.194  11.585 -3.2394  2.6420 -1.9168
  854MOL0     H15245  10.259   4.084  11.668  0.3452  2.4050  0.9171
  854MOL0     H15246  10.376   3.890  11.523 -2.2387  0.4973 -1.8261
  854MOL0     H15247  10.490   3.987  11.610 -0.6854 -0.6579  0.5032
  854MOL0     H15248  10.502   4.137  11.381  0.6483 -0.7473 -1.6191
  854MOL0     H15249  10.428   3.987  11.320 -1.6044 -0.3403  0.4403
  854MOL0     H15250  10.875   3.912  11.481  1.7989 -1.0712  0.0193
  854MOL0     H15251  11.044   3.870  11.329 -1.0571 -1.8182  0.8149
  854MOL0     H15252  11.121   4.203  10.891  0.7878  1.0056 -2.0156
  854MOL0     H15253  11.330   4.254  10.751  2.3340 -0.1768  2.4285
  854MOL0     H15254  11.633   3.957  10.721  2.0738  2.8689  0.5895
  854MOL0     H15255  11.539   3.916  10.572 -3.2112  1.9818 -1.7861
  854MOL0     H15256  11.641   4.086  10.448 -1.9533 -1.2558 -0.7002
  854MOL0     H15257  11.731   4.142  10.593 -1.7452  1.1956  0.3671
  854MOL0     H15258  11.854   3.937  10.589 -1.4992 -0.6869  0.1231
  854MOL0     H15259  11.752   3.877  10.458  0.5098 -0.3641  1.3486
  854MOL0     H15260  11.943   4.113  10.424  1.4079 -1.8616  1.8893
  854MOL0     H15261  11.824   4.069  10.309  1.4237  0.2089 -1.6484
  854MOL0     H15262  11.918   3.873  10.246 -0.2006  2.1581 -0.7524
  854MOL0     H15263  11.993   3.844  10.407 -1.7390  1.4421  1.3470
  854MOL0     H15264  12.079   4.072  10.218  3.9123  0.8803 -1.3949
  854MOL0     H15265  12.183   3.999  10.345  0.5971  1.4246 -0.9005
  854MOL0     H15266  12.091   3.867  10.093  1.2510 -0.4033 -0.4417
  854MOL0     H15267  12.173   3.783  10.227 -1.0396 -0.4230 -1.4358
  854MOL0     H15268  12.271   4.027  10.053  2.0956  0.0163 -0.2827
  854MOL0     H15269  12.354   3.955  10.194  0.0492  1.8639 -0.2897
  854MOL0     H15270  11.383   3.846  10.680  2.0086  1.5141  0.0574
  854MOL0     H15271  11.172   3.784  10.792  0.2361  1.1601  1.7601
  854MOL0     H15272  10.780   3.972  10.997 -0.8764  2.0977  1.2656
  854MOL0     H15273  10.603   3.996  11.161 -0.1087  1.4278  0.1532
  854MOL0     H15274   8.927   3.299  10.996  0.6572  0.8841  4.5395
  854MOL0     H15275   8.711   3.332  10.849  2.1912 -0.9772 -0.8800
  854MOL0     H15276   8.410   3.499  10.673 -0.5370 -0.7876 -0.4261
  854MOL0     H15277   8.196   3.535  10.541 -0.3936  0.5993 -0.2025
  854MOL0     H15278   7.793   3.675  10.605  1.6327  2.5513  0.6215
  854MOL0     H15279   7.851   3.695  10.769 -0.6661 -1.2285  1.6070
  854MOL0     H15280   7.728   3.457  10.637  4.0207  0.2227 -0.3392
  854MOL0     H15281   7.638   3.572  10.747 -0.2190 -1.5063  1.0400
  854MOL0     H15282   7.755   3.508  10.934  0.5526  1.8063 -1.1906
  854MOL0     H15283   7.880   3.418  10.858 -0.7487 -0.9262  0.5917
  854MOL0     H15284   7.770   3.242  10.928  3.0488  1.2682 -1.1454
  854MOL0     H15285   7.609   3.332  10.910 -0.2581 -1.0216 -1.3154
  854MOL0     H15286   7.641   3.080  10.572 -0.8988 -0.7410  0.7338
  854MOL0     H15287   7.981   3.603  10.904 -0.5297  2.9331 -0.5945
  854MOL0     H15288   8.103   3.651  11.090  1.4729  1.5345  1.2635
  854MOL0     H15289   8.162   3.487  11.115  1.1161 -0.1180  0.0451
  854MOL0     H15290   8.275   3.628  11.101  0.0365  0.2565 -0.4644
  855MOL0     O15291   9.090   7.775   8.043  0.4201 -0.2813  0.1537
  855MOL0     C15292   9.008   7.867   8.012  0.1171  0.4589 -0.2034
  855MOL0     O15293   9.041   8.002   7.996  0.2517  0.2383  0.1271
  855MOL0     C15294   9.173   8.028   8.014 -0.3101 -0.0344 -0.6135
  855MOL0     C15295   9.258   8.010   7.904 -0.5788 -1.0530  0.4546
  855MOL0     C15296   9.384   8.073   7.906 -0.4456 -1.3381  0.0371
  855MOL0     C15297   9.429   8.138   8.020 -0.4030 -0.5467 -0.1526
  855MOL0     O15298   9.561   8.173   8.015 -0.4544 -0.5622  0.3660
  855MOL0     C15299   9.624   8.218   8.142  0.7180 -0.2848 -0.4057
  855MOL0     C15300   9.762   8.267   8.101 -0.0236  0.1556 -0.9226
  855MOL0     C15301   9.865   8.151   8.094 -0.1298  0.7675  0.4219
  855MOL0     C15302  10.001   8.180   8.142 -0.7699 -0.4129  0.3667
  855MOL0     C15303  10.108   8.063   8.110 -0.0741 -0.1017 -0.4756
  855MOL0     C15304  10.252   8.098   8.165  0.6335  0.8252  0.6120
  855MOL0     C15305  10.362   7.992   8.130 -0.3938 -0.4808  0.2849
  855MOL0     C15306  10.333   7.850   8.196  0.6573  0.2437  0.0351
  855MOL0     N15307  10.455   7.773   8.187  0.2487  0.8740 -0.1159
  855MOL0     C15308  10.458   7.655   8.119 -0.6443  0.3881  0.3209
  855MOL0     C15309  10.583   7.598   8.154  0.8700 -0.7930  0.3542
  855MOL0     C15310  10.645   7.477   8.090 -0.6432 -0.2505 -0.2581
  855MOL0     C15311  10.764   7.507   8.004 -0.7109  0.1029  0.1414
  855MOL0     C15312  10.729   7.601   7.887 -0.0291  0.0712  0.1806
  855MOL0     C15313  10.863   7.625   7.812 -1.1637 -0.8277  0.6553
  855MOL0     O15314  10.918   7.513   7.761 -0.6184 -0.2949  0.0265
  855MOL0     C15315  11.050   7.485   7.763  0.5136  0.4608  0.1818
  855MOL0     C15316  11.080   7.350   7.791  0.1043 -0.8717  0.0265
  855MOL0     C15317  11.211   7.309   7.774 -0.5593  0.4516  0.2804
  855MOL0     C15318  11.312   7.401   7.735  0.0179  0.7395 -0.2821
  855MOL0     C15319  11.457   7.357   7.724  0.5037  0.3010  0.3889
  855MOL0     O15320  11.547   7.461   7.710 -0.0613 -0.0625 -0.6890
  855MOL0     C15321  11.681   7.430   7.699 -0.0009  0.4706  0.1645
  855MOL0     C15322  11.767   7.404   7.808  0.2752  1.5819 -0.4047
  855MOL0     C15323  11.899   7.350   7.792  0.0001 -0.2611  0.4792
  855MOL0     C15324  11.950   7.337   7.665 -0.8582 -0.4261  0.1866
  855MOL0     O15325  12.080   7.305   7.625 -0.5299 -0.6385 -0.2903
  855MOL0     C15326  12.182   7.312   7.732  0.2527  0.2895  0.2128
  855MOL0     C15327  12.195   7.177   7.797  0.3461  0.6178 -0.0091
  855MOL0     C15328  12.339   7.153   7.847  0.0326 -0.2002  0.2583
  855MOL0     C15329  12.451   7.146   7.736  0.9305  0.5492 -0.0235
  855MOL0     C15330  12.584   7.084   7.786 -0.0981 -0.1463  0.6275
  855MOL0     C15331  12.692   7.038   7.676 -0.2929  0.1026 -0.5883
  855MOL0     C15332  12.759   7.165   7.611 -0.2248  0.0012  0.4759
  855MOL0     C15333  12.880   7.127   7.530  0.4011 -0.2287  0.6533
  855MOL0    Cl15334  12.817   7.041   7.378  0.0248  0.3634  0.2688
  855MOL0     C15335  11.870   7.361   7.555  0.1778 -0.1916  0.2121
  855MOL0     C15336  11.735   7.405   7.574  0.0730  0.1116  0.1558
  855MOL0     O15337  11.491   7.239   7.737 -0.0316  0.2739 -0.1623
  855MOL0     C15338  11.279   7.533   7.707  0.7754  0.1443 -0.7446
  855MOL0     C15339  11.152   7.580   7.731  1.3129  0.5512 -0.8040
  855MOL0     N15340  10.641   7.681   8.252 -0.1885  0.0175  0.0509
  855MOL0     N15341  10.559   7.779   8.269  0.0717  0.0237 -0.0174
  855MOL0     C15342   9.349   8.152   8.136  0.3478 -1.0434  0.7544
  855MOL0     C15343   9.216   8.096   8.133  0.2178 -0.3300 -0.5368
  855MOL0     C15344   8.872   7.826   7.972  0.1280  0.2091 -0.0635
  855MOL0     C15345   8.770   7.924   7.995  0.3606  0.2235 -0.0443
  855MOL0     C15346   8.648   7.883   7.973 -0.0114 -0.0759 -0.0027
  855MOL0     C15347   8.609   7.759   7.931  0.5245  0.0431 -0.3046
  855MOL0     O15348   8.480   7.737   7.902 -0.4523  1.2046 -0.0827
  855MOL0     C15349   8.361   7.801   7.929  0.1128 -0.2587  0.4865
  855MOL0     C15350   8.241   7.734   7.869  0.1799 -0.4703 -0.3470
  855MOL0     C15351   8.210   7.608   7.944 -0.0576 -0.1112 -0.3468
  855MOL0     C15352   8.087   7.544   7.888  0.3100 -0.1990 -0.7769
  855MOL0     C15353   8.119   7.477   7.763 -0.0796 -0.1591  0.0325
  855MOL0     C15354   8.130   7.419   7.661  0.1177  0.0478  0.1473
  855MOL0     C15355   8.713   7.669   7.903 -0.1025  0.2832  0.0739
  855MOL0     C15356   8.840   7.696   7.936 -0.2983  0.2049 -0.1608
  855MOL0     C15357   8.934   7.592   7.918 -0.4041  0.6010  0.2375
  855MOL0     H15358   9.219   7.983   7.807  0.4039  0.3913 -0.3915
  855MOL0     H15359   9.457   8.083   7.827 -0.0272 -0.0782  0.5484
  855MOL0     H15360   9.574   8.297   8.198  2.4105  0.1062  0.6506
  855MOL0     H15361   9.618   8.132   8.209 -0.2420  0.2435  0.1958
  855MOL0     H15362   9.797   8.343   8.172  0.0692  1.0028 -1.8569
  855MOL0     H15363   9.741   8.321   8.008 -0.0196 -0.2041 -1.1336
  855MOL0     H15364   9.879   8.100   7.998  0.3438 -1.7195  1.7097
  855MOL0     H15365   9.825   8.076   8.164  1.8312  0.8654  1.7156
  855MOL0     H15366  10.040   8.267   8.089  0.9366 -2.0582 -1.2643
  855MOL0     H15367   9.999   8.208   8.247  3.3341 -2.9410  1.3418
  855MOL0     H15368  10.083   7.966   8.153  2.0338  0.3375  1.9743
  855MOL0     H15369  10.115   8.051   8.001 -0.6373 -1.3403 -0.3895
  855MOL0     H15370  10.274   8.201   8.138 -1.5249  0.6771 -2.0461
  855MOL0     H15371  10.243   8.096   8.274 -0.8129  1.6129  0.5218
  855MOL0     H15372  10.459   8.028   8.165  0.1435 -0.9886 -0.6430
  855MOL0     H15373  10.367   7.986   8.021 -2.3151  1.0800  0.0580
  855MOL0     H15374  10.318   7.873   8.301  1.3868 -2.3683  0.8070
  855MOL0     H15375  10.253   7.792   8.149  2.3403 -0.5478 -2.0798
  855MOL0     H15376  10.379   7.625   8.052 -0.6170  0.2779  0.3376
  855MOL0     H15377  10.667   7.407   8.171  0.2468  2.3488  1.8846
  855MOL0     H15378  10.563   7.440   8.028 -0.7029  1.8563 -1.5316
  855MOL0     H15379  10.840   7.556   8.065  0.2181  0.4211 -1.2240
  855MOL0     H15380  10.802   7.408   7.976 -0.0017  0.8057 -1.5131
  855MOL0     H15381  10.693   7.699   7.921  3.5674  2.0497 -1.1845
  855MOL0     H15382  10.661   7.548   7.820  1.9304 -2.1807 -0.1452
  855MOL0     H15383  10.932   7.688   7.868 -0.1342 -2.0514  0.7915
  855MOL0     H15384  10.841   7.680   7.720 -0.2829 -1.8372 -0.1965
  855MOL0     H15385  10.999   7.287   7.824 -1.6991  1.6260  0.6480
  855MOL0     H15386  11.232   7.209   7.812 -2.2755 -0.8594 -1.9475
  855MOL0     H15387  11.719   7.419   7.904 -0.9410 -1.5524 -0.4055
  855MOL0     H15388  11.956   7.319   7.879 -3.0436 -1.0131  2.3133
  855MOL0     H15389  12.279   7.330   7.686  0.4570  0.8957  0.8591
  855MOL0     H15390  12.169   7.393   7.805  0.4756 -0.1178  0.7137
  855MOL0     H15391  12.125   7.173   7.881 -0.1064 -1.6001 -0.4281
  855MOL0     H15392  12.176   7.096   7.726 -0.8855 -0.0039  0.9788
  855MOL0     H15393  12.369   7.228   7.922 -0.4224 -0.7746  1.0372
  855MOL0     H15394  12.348   7.053   7.890  1.6213 -0.9591 -1.6917
  855MOL0     H15395  12.475   7.241   7.688  1.0672  0.2072 -0.6424
  855MOL0     H15396  12.417   7.083   7.653  1.4915 -1.2659  1.0722
  855MOL0     H15397  12.563   7.000   7.852 -2.9881 -0.4237 -0.4547
  855MOL0     H15398  12.614   7.165   7.852 -3.2843  1.9169 -0.2102
  855MOL0     H15399  12.767   6.976   7.726 -2.2579 -0.6146  1.6841
  855MOL0     H15400  12.639   6.972   7.607 -0.2109 -1.1941  0.5482
  855MOL0     H15401  12.800   7.230   7.688 -1.1830 -0.5625  1.4805
  855MOL0     H15402  12.689   7.221   7.548 -0.1928  0.8799  1.2026
  855MOL0     H15403  12.932   7.217   7.496  0.5853 -0.1909  1.0261
  855MOL0     H15404  12.943   7.059   7.588  0.6592 -1.5845 -1.1163
  855MOL0     H15405  11.907   7.349   7.454 -1.6687  1.1665 -0.6718
  855MOL0     H15406  11.660   7.416   7.495  0.5798 -1.0014 -0.5050
  855MOL0     H15407  11.359   7.598   7.671  0.7504  0.6669  0.1145
  855MOL0     H15408  11.123   7.684   7.718 -2.1157 -0.3204 -1.0459
  855MOL0     H15409   9.381   8.211   8.222 -0.4434  1.2218 -0.4298
  855MOL0     H15410   9.138   8.125   8.203  0.7742  1.4305 -0.6005
  855MOL0     H15411   8.804   8.022   8.025 -0.1645  0.3610  0.1123
  855MOL0     H15412   8.580   7.966   7.995  1.4326  1.3999 -0.8826
  855MOL0     H15413   8.368   7.905   7.895  3.1896  0.1219  1.9052
  855MOL0     H15414   8.339   7.805   8.036 -0.0875 -2.0329  0.5431
  855MOL0     H15415   8.260   7.712   7.764  0.5442 -0.9052 -0.1946
  855MOL0     H15416   8.151   7.794   7.886 -1.5545 -2.6014 -1.5936
  855MOL0     H15417   8.190   7.637   8.048  0.2771  0.9143 -0.5568
  855MOL0     H15418   8.297   7.541   7.946  0.9542  1.1726  0.1215
  855MOL0     H15419   8.059   7.453   7.944 -0.5580 -1.3328 -2.9396
  855MOL0     H15420   8.001   7.611   7.893  0.3691 -0.1033 -1.0482
  855MOL0     H15421   8.143   7.376   7.564 -1.5319 -1.4002  0.5139
  855MOL0     H15422   8.686   7.573   7.858 -0.4453  0.4728 -0.1290
  855MOL0     H15423   8.965   7.556   8.017 -0.0755 -0.0611 -0.0956
  855MOL0     H15424   8.900   7.499   7.870  2.7502 -1.5805  1.8546
  855MOL0     H15425   9.020   7.630   7.863 -0.1949  1.7512  1.3137
  856MOL0     O15426   7.901   4.956  11.139 -0.5033 -0.3021 -0.1416
  856MOL0     C15427   7.836   4.860  11.108 -0.8730  0.1802  0.2826
  856MOL0     O15428   7.876   4.734  11.132  0.7123  0.1186  0.5575
  856MOL0     C15429   7.986   4.707  11.207  0.3780  0.2981 -0.6255
  856MOL0     C15430   8.114   4.750  11.179 -0.1266 -0.3861 -0.1580
  856MOL0     C15431   8.221   4.699  11.247  0.3962  0.4061  0.7508
  856MOL0     C15432   8.214   4.594  11.340  0.5956 -0.4081 -0.4292
  856MOL0     O15433   8.330   4.548  11.384  0.2758  0.2664  0.9686
  856MOL0     C15434   8.347   4.499  11.513  0.1984  0.6634 -0.2468
  856MOL0     C15435   8.486   4.435  11.530 -0.1230  0.3976 -0.0461
  856MOL0     C15436   8.595   4.527  11.473  0.4860 -0.5473 -0.1534
  856MOL0     C15437   8.729   4.487  11.537 -0.7686  0.6550 -1.4454
  856MOL0     C15438   8.845   4.566  11.477  0.3475 -0.4930  0.2010
  856MOL0     C15439   8.971   4.496  11.513 -0.4641  0.9828  0.3083
  856MOL0     C15440   9.081   4.558  11.439 -0.2055  0.7181 -0.0957
  856MOL0     C15441   9.220   4.516  11.493  0.7506  0.2848 -0.4830
  856MOL0     N15442   9.331   4.551  11.417  0.0874  0.8162 -0.0500
  856MOL0     C15443   9.367   4.490  11.299  0.0436 -0.2135 -0.9050
  856MOL0     C15444   9.461   4.569  11.240  0.7828  0.7404 -0.1578
  856MOL0     C15445   9.542   4.528  11.113 -0.4473  0.6014 -0.7402
  856MOL0     C15446   9.673   4.456  11.160  0.3512 -0.1446  0.5922
  856MOL0     C15447   9.788   4.453  11.063 -0.1469  0.3095  0.2205
  856MOL0     C15448   9.779   4.344  10.950  0.5468 -1.1243 -0.7900
  856MOL0     O15449   9.881   4.368  10.854  0.1673 -0.4408  0.4581
  856MOL0     C15450  10.010   4.367  10.897  0.1151  0.0735  1.2827
  856MOL0     C15451  10.107   4.420  10.817  0.5894  0.4565  0.9605
  856MOL0     C15452  10.240   4.423  10.851 -0.0874  0.7745 -0.0002
  856MOL0     C15453  10.285   4.368  10.978  0.0890 -0.5144 -0.0015
  856MOL0     C15454  10.430   4.362  11.014  0.1017 -0.0162 -0.0623
  856MOL0     O15455  10.503   4.449  10.949  0.5095  0.2943 -0.0604
  856MOL0     C15456  10.629   4.475  10.997 -0.2497  0.2035 -0.1504
  856MOL0     C15457  10.659   4.597  11.054  0.4584  0.7641  0.1310
  856MOL0     C15458  10.789   4.628  11.098 -0.1693  0.2214  0.4967
  856MOL0     C15459  10.888   4.530  11.091  0.5732  0.0270  0.2587
  856MOL0     O15460  11.024   4.550  11.122  0.4493  0.3316  0.0132
  856MOL0     C15461  11.070   4.664  11.190 -0.0599  0.2880 -0.0280
  856MOL0     C15462  11.196   4.618  11.267 -0.1287 -0.5124 -0.4344
  856MOL0     C15463  11.310   4.615  11.165  0.8895  0.2185  0.3656
  856MOL0     C15464  11.443   4.579  11.240  0.3756  0.4315 -0.5315
  856MOL0     C15465  11.550   4.589  11.141  0.8559 -0.1749  0.4473
  856MOL0     C15466  11.686   4.553  11.202 -0.0403  0.4226  0.2881
  856MOL0     C15467  11.791   4.562  11.088  0.2628 -0.5763  0.2469
  856MOL0     C15468  11.943   4.564  11.125  1.4427 -0.5913 -0.4600
  856MOL0    Cl15469  11.960   4.411  11.214 -0.0702  0.2027 -0.3309
  856MOL0     C15470  10.853   4.411  11.037 -0.8684  0.0110 -0.0461
  856MOL0     C15471  10.730   4.385  10.982 -0.2043  0.1151  0.1621
  856MOL0     O15472  10.473   4.288  11.100  0.3179 -0.1011  0.6198
  856MOL0     C15473  10.192   4.308  11.062 -0.1725 -0.3386  0.3093
  856MOL0     C15474  10.058   4.312  11.022 -0.0413  0.3100  0.1734
  856MOL0     N15475   9.470   4.684  11.315 -0.3547 -0.7040  0.1420
  856MOL0     N15476   9.384   4.673  11.414  0.2176 -0.5844 -0.2194
  856MOL0     C15477   8.083   4.561  11.374 -0.5935 -0.6264 -1.3005
  856MOL0     C15478   7.974   4.616  11.310 -0.1327  0.0431 -0.6115
  856MOL0     C15479   7.706   4.882  11.039 -0.2206  0.3242  0.6589
  856MOL0     C15480   7.662   5.011  11.031 -0.2504 -0.4380 -0.0805
  856MOL0     C15481   7.532   5.047  10.994  0.4978  0.6534  0.0393
  856MOL0     C15482   7.447   4.933  10.956  1.0698 -0.9719 -0.6236
  856MOL0     O15483   7.315   4.942  10.911 -0.0173  0.6575 -0.1741
  856MOL0     C15484   7.245   5.065  10.939 -0.3803  0.1216  0.2511
  856MOL0     C15485   7.105   5.040  10.954 -0.3115 -0.4036 -0.1387
  856MOL0     C15486   7.033   4.963  10.832  0.2850 -0.1193 -0.4862
  856MOL0     C15487   7.069   5.010  10.688 -0.1538 -0.3747  0.3033
  856MOL0     C15488   6.997   5.125  10.651  0.3771 -0.0960 -0.9120
  856MOL0     C15489   6.953   5.237  10.630  0.5487  0.1928  0.0637
  856MOL0     C15490   7.496   4.806  10.955 -0.3535 -0.5540  0.3578
  856MOL0     C15491   7.628   4.770  11.001 -0.5922 -0.2579  0.1833
  856MOL0     C15492   7.646   4.620  11.008 -0.0473 -0.7765  0.7710
  856MOL0     H15493   8.130   4.823  11.100 -1.5030  1.3918  1.1321
  856MOL0     H15494   8.312   4.751  11.217 -0.6312  1.4539 -0.6673
  856MOL0     H15495   8.346   4.570  11.596 -1.7029 -1.9204  2.1381
  856MOL0     H15496   8.268   4.425  11.529 -0.7696  1.4388 -1.3097
  856MOL0     H15497   8.482   4.344  11.470 -0.1440  1.3034 -1.4601
  856MOL0     H15498   8.498   4.401  11.633  2.5544 -2.3046 -1.1222
  856MOL0     H15499   8.574   4.633  11.491  4.5519  0.9384 -2.7242
  856MOL0     H15500   8.601   4.523  11.364  1.1578  0.4543 -0.1696
  856MOL0     H15501   8.735   4.497  11.646  1.1346 -3.3640 -0.9908
  856MOL0     H15502   8.742   4.383  11.507 -1.2274 -0.5628  2.0678
  856MOL0     H15503   8.841   4.565  11.367 -0.1681 -1.6303  0.2117
  856MOL0     H15504   8.839   4.670  11.509  4.0442 -0.1402  0.1300
  856MOL0     H15505   8.989   4.494  11.621 -2.2991 -1.0349  0.6331
  856MOL0     H15506   8.965   4.388  11.495  0.8443 -0.0240  4.6280
  856MOL0     H15507   9.072   4.667  11.452  0.6915  0.4397  5.2718
  856MOL0     H15508   9.068   4.525  11.336 -1.4373 -0.1669  0.3188
  856MOL0     H15509   9.249   4.569  11.584 -1.4468  1.6628 -0.5263
  856MOL0     H15510   9.219   4.408  11.509  0.0813  0.0203 -2.1225
  856MOL0     H15511   9.337   4.396  11.255 -2.1908 -0.4676  0.9688
  856MOL0     H15512   9.485   4.461  11.048  3.7421 -0.7361 -3.4081
  856MOL0     H15513   9.562   4.609  11.044  0.9097  0.7225 -0.2254
  856MOL0     H15514   9.712   4.516  11.243  0.6557 -0.2810  0.5486
  856MOL0     H15515   9.656   4.359  11.208  2.9204 -0.5527  0.7808
  856MOL0     H15516   9.873   4.442  11.131  0.3405  0.0320 -0.4150
  856MOL0     H15517   9.797   4.547  11.008 -0.1346  0.7836  1.0239
  856MOL0     H15518   9.679   4.349  10.905  0.7592  0.7937 -1.1141
  856MOL0     H15519   9.794   4.239  10.980  4.4851 -0.2238  0.9736
  856MOL0     H15520  10.071   4.458  10.721  1.1985  0.9054  0.9026
  856MOL0     H15521  10.311   4.463  10.779  1.4533 -2.2245 -0.2991
  856MOL0     H15522  10.587   4.676  11.073 -0.0987  0.0263  1.1418
  856MOL0     H15523  10.810   4.726  11.139 -0.4496 -0.1669  1.5968
  856MOL0     H15524  11.091   4.745  11.119 -1.6990  1.0031  0.2711
  856MOL0     H15525  10.987   4.699  11.252 -1.6510 -0.8879 -1.4175
  856MOL0     H15526  11.231   4.697  11.334 -0.0764 -0.1959 -0.8308
  856MOL0     H15527  11.192   4.527  11.327  3.5388 -1.6002 -1.5352
  856MOL0     H15528  11.283   4.530  11.101 -0.1267  1.0611 -0.3626
  856MOL0     H15529  11.323   4.706  11.106 -0.8342 -0.3771 -1.0261
  856MOL0     H15530  11.450   4.476  11.277  0.6675  0.2856 -0.9872
  856MOL0     H15531  11.470   4.649  11.320  1.6402 -1.2168  0.5518
  856MOL0     H15532  11.559   4.692  11.104 -0.6211 -0.2943 -0.3119
  856MOL0     H15533  11.525   4.518  11.061  1.4017 -0.5464  0.6053
  856MOL0     H15534  11.712   4.627  11.278 -1.1800  2.6532 -1.3501
  856MOL0     H15535  11.676   4.453  11.246  2.1392 -0.3935 -0.9242
  856MOL0     H15536  11.767   4.648  11.024  0.7112 -2.2873 -2.3707
  856MOL0     H15537  11.765   4.487  11.013 -0.9323 -0.1567  0.2075
  856MOL0     H15538  11.996   4.564  11.030  0.6359 -0.6831 -0.9195
  856MOL0     H15539  11.963   4.655  11.182 -1.4506 -1.2380  1.8603
  856MOL0     H15540  10.936   4.342  11.022 -1.0177 -0.2105  0.1328
  856MOL0     H15541  10.713   4.286  10.942 -2.3763  0.8443 -0.8454
  856MOL0     H15542  10.216   4.245  11.147 -1.5302 -0.4562  0.6223
  856MOL0     H15543   9.996   4.264  11.097  1.3596 -0.7202  0.7148
  856MOL0     H15544   8.076   4.490  11.456  0.1086 -0.3118 -0.9510
  856MOL0     H15545   7.875   4.583  11.341 -0.2208 -1.4489 -2.2910
  856MOL0     H15546   7.722   5.091  11.072 -0.3594 -0.6664  0.5433
  856MOL0     H15547   7.502   5.151  11.001  1.4613  0.8535  1.7547
  856MOL0     H15548   7.258   5.135  10.856 -0.6488  0.7542  0.7415
  856MOL0     H15549   7.280   5.102  11.035 -2.5467  4.2007 -0.3038
  856MOL0     H15550   7.059   5.139  10.955  1.7132  0.7885 -4.1021
  856MOL0     H15551   7.083   4.987  11.047  0.9852 -2.3235 -0.8716
  856MOL0     H15552   6.925   4.972  10.850  0.1092 -2.5617  0.0202
  856MOL0     H15553   7.050   4.856  10.849 -2.1401 -0.1807  2.6219
  856MOL0     H15554   7.174   5.031  10.668 -0.6275  1.5197 -0.3819
  856MOL0     H15555   7.043   4.929  10.618  1.7392  0.3109 -1.2809
  856MOL0     H15556   6.894   5.326  10.625 -3.2387 -2.0888  0.5869
  856MOL0     H15557   7.434   4.729  10.911  1.9018 -2.5581  0.4695
  856MOL0     H15558   7.699   4.580  10.922  1.6633  0.7844  1.0524
  856MOL0     H15559   7.705   4.592  11.096 -0.6683  1.0973  1.8326
  856MOL0     H15560   7.552   4.563  11.002  0.5193 -1.6707  0.2542
  857MOL0     O15561   2.021   1.880   7.586  0.3485  0.1838 -0.5165
  857MOL0     C15562   1.958   1.784   7.628  0.5183 -0.9638 -0.2073
  857MOL0     O15563   2.006   1.661   7.663  0.2501  0.6728 -0.1062
  857MOL0     C15564   2.137   1.640   7.630  0.3238 -0.3397  0.0530
  857MOL0     C15565   2.229   1.598   7.733  0.7625  0.5500 -0.2160
  857MOL0     C15566   2.357   1.562   7.700  0.3913  0.7946  0.1190
  857MOL0     C15567   2.406   1.583   7.568  0.3110 -0.1039  0.2832
  857MOL0     O15568   2.531   1.569   7.526 -0.1117  0.6535  0.0692
  857MOL0     C15569   2.636   1.548   7.632  0.4521  0.5905  0.7547
  857MOL0     C15570   2.754   1.498   7.560  0.3002  0.0539  0.6310
  857MOL0     C15571   2.861   1.452   7.648 -0.0825  0.2539 -0.5190
  857MOL0     C15572   2.987   1.417   7.558 -0.3621  0.2643 -0.2390
  857MOL0     C15573   3.090   1.355   7.655 -0.6485 -0.1274 -0.3018
  857MOL0     C15574   3.177   1.453   7.727 -0.1435 -0.4409 -0.9475
  857MOL0     C15575   3.296   1.394   7.808 -0.5901 -1.8289  0.5874
  857MOL0     C15576   3.319   1.470   7.939 -0.0336  0.2191  0.0270
  857MOL0     N15577   3.426   1.403   8.019 -0.4682  0.5241  0.0228
  857MOL0     C15578   3.549   1.453   8.048  0.4489 -0.5137 -0.0845
  857MOL0     C15579   3.604   1.367   8.141 -1.1011  0.4737  0.4752
  857MOL0     C15580   3.738   1.386   8.211 -0.0939  0.0996 -0.6934
  857MOL0     C15581   3.830   1.480   8.145  0.8289 -0.1076  0.6207
  857MOL0     C15582   3.946   1.532   8.239  0.0260 -0.3549 -0.3375
  857MOL0     C15583   4.026   1.631   8.151 -0.4081  0.1565  0.1533
  857MOL0     O15584   4.133   1.690   8.220  0.0239 -0.4654 -0.0536
  857MOL0     C15585   4.155   1.828   8.231  0.0628  0.5628 -0.7067
  857MOL0     C15586   4.285   1.875   8.265  0.0355 -0.1041  0.4922
  857MOL0     C15587   4.322   2.008   8.285  0.0061  0.2940 -0.1071
  857MOL0     C15588   4.223   2.107   8.264  0.1860  0.4878  0.1955
  857MOL0     C15589   4.262   2.241   8.282  0.2502 -0.5563 -0.6350
  857MOL0     O15590   4.379   2.263   8.339  0.5366 -0.2562  0.4830
  857MOL0     C15591   4.445   2.375   8.305  0.3956  0.7124 -0.3629
  857MOL0     C15592   4.509   2.434   8.413  0.2743 -0.9226  0.2402
  857MOL0     C15593   4.590   2.549   8.390  0.0057 -0.6713 -0.5310
  857MOL0     C15594   4.613   2.595   8.266  0.1541 -0.5236 -0.2930
  857MOL0     O15595   4.683   2.712   8.259 -0.4040 -0.1118  0.1080
  857MOL0     C15596   4.658   2.802   8.151  0.3869  0.0058  0.1919
  857MOL0     C15597   4.750   2.926   8.157 -0.5674  0.2208  0.0415
  857MOL0     C15598   4.709   3.055   8.077 -0.2199  0.3736 -0.6115
  857MOL0     C15599   4.763   3.190   8.115 -0.2174  0.3366  1.0028
  857MOL0     C15600   4.685   3.318   8.077  0.5442 -0.4866  0.2537
  857MOL0     C15601   4.749   3.447   8.122  0.3971  0.1268 -0.1385
  857MOL0     C15602   4.667   3.563   8.076 -0.3254 -0.1934 -0.2826
  857MOL0     C15603   4.717   3.696   8.125 -0.9217 -0.1682  0.4429
  857MOL0    Cl15604   4.619   3.822   8.057 -0.0721  0.0508  0.2120
  857MOL0     C15605   4.551   2.536   8.156 -0.4358 -0.1298 -0.5425
  857MOL0     C15606   4.459   2.426   8.172  1.5014 -0.2382  0.1627
  857MOL0     O15607   4.187   2.328   8.240  0.0577  0.0244 -0.2320
  857MOL0     C15608   4.088   2.059   8.231  1.0254 -0.8561  0.2315
  857MOL0     C15609   4.053   1.924   8.213 -0.4018 -0.1892  0.3881
  857MOL0     N15610   3.524   1.253   8.140 -0.0542  0.0346 -0.5584
  857MOL0     N15611   3.416   1.284   8.076 -0.6125 -0.1889 -0.4723
  857MOL0     C15612   2.319   1.627   7.469  0.0366  0.8669 -0.0383
  857MOL0     C15613   2.180   1.646   7.500 -0.4094  0.1824 -0.6090
  857MOL0     C15614   1.811   1.804   7.658  0.1321 -0.3014 -0.1306
  857MOL0     C15615   1.722   1.748   7.572 -0.0135 -0.2203  0.4465
  857MOL0     C15616   1.586   1.769   7.586  0.3692  0.1898 -0.0893
  857MOL0     C15617   1.544   1.860   7.688  0.5801  0.2677  0.7520
  857MOL0     O15618   1.419   1.914   7.694  0.2151 -0.1977 -0.4915
  857MOL0     C15619   1.336   1.928   7.573  0.3751  0.3429  1.2094
  857MOL0     C15620   1.205   1.845   7.571  0.5903 -0.8373  0.4086
  857MOL0     C15621   1.229   1.698   7.574 -0.2255  0.3801 -1.0297
  857MOL0     C15622   1.090   1.631   7.583  0.6745  1.1675 -0.8469
  857MOL0     C15623   1.107   1.490   7.596  0.0845  0.1309 -0.3315
  857MOL0     C15624   1.096   1.373   7.616 -0.1420 -0.3796 -0.8070
  857MOL0     C15625   1.633   1.910   7.779 -0.2284  0.3073 -0.3824
  857MOL0     C15626   1.766   1.891   7.767 -0.7192 -0.6042 -0.4975
  857MOL0     C15627   1.868   1.948   7.863  0.2775 -0.0995 -0.3689
  857MOL0     H15628   2.193   1.596   7.835  3.0391  2.9769  0.7478
  857MOL0     H15629   2.415   1.516   7.779  2.1088  1.1362 -0.8922
  857MOL0     H15630   2.667   1.639   7.685  0.2295  1.9741 -1.3598
  857MOL0     H15631   2.594   1.467   7.692 -1.8015 -0.7179 -2.2761
  857MOL0     H15632   2.798   1.581   7.504 -2.0559  1.3677  0.6088
  857MOL0     H15633   2.731   1.420   7.485 -2.1232  1.6531 -0.4241
  857MOL0     H15634   2.833   1.367   7.711  2.5857  1.5606  2.7459
  857MOL0     H15635   2.880   1.539   7.712 -2.3250  1.5333 -1.5063
  857MOL0     H15636   2.949   1.345   7.485 -0.9203  0.3004  0.0156
  857MOL0     H15637   3.037   1.508   7.521 -1.6088  0.8928 -0.4449
  857MOL0     H15638   3.036   1.296   7.729 -0.7155  1.0913  0.6541
  857MOL0     H15639   3.159   1.292   7.599 -0.7869 -0.5763  0.0272
  857MOL0     H15640   3.211   1.530   7.657 -1.1242  0.9838  0.0770
  857MOL0     H15641   3.114   1.501   7.802 -1.4855 -0.1138 -2.2375
  857MOL0     H15642   3.385   1.408   7.746 -1.1719  2.1088  0.3271
  857MOL0     H15643   3.278   1.287   7.819  1.3224 -2.8656 -3.8932
  857MOL0     H15644   3.362   1.569   7.921  2.9117 -1.3517 -2.7336
  857MOL0     H15645   3.227   1.471   7.998 -1.3647 -3.5919 -1.6603
  857MOL0     H15646   3.579   1.550   8.007  0.2131 -0.5653 -0.3824
  857MOL0     H15647   3.716   1.421   8.313  0.6240 -2.9492  0.6203
  857MOL0     H15648   3.789   1.292   8.232 -1.4666 -0.6388 -0.5512
  857MOL0     H15649   3.881   1.442   8.056 -0.0963  0.9196 -0.3822
  857MOL0     H15650   3.786   1.576   8.116  0.1688 -0.7992 -0.7671
  857MOL0     H15651   4.011   1.449   8.268 -0.2078 -1.2964 -2.3462
  857MOL0     H15652   3.898   1.584   8.323  1.9957 -3.1110  2.7368
  857MOL0     H15653   3.961   1.711   8.117 -1.0258 -0.4352 -0.0800
  857MOL0     H15654   4.067   1.579   8.063  1.1157 -0.9708  1.4604
  857MOL0     H15655   4.359   1.799   8.289 -2.0895 -2.4968 -0.1393
  857MOL0     H15656   4.421   2.028   8.322 -0.4624  1.5271  0.5179
  857MOL0     H15657   4.472   2.412   8.512 -0.9315 -1.2088 -0.2512
  857MOL0     H15658   4.633   2.604   8.472 -1.7180  0.9987 -0.6720
  857MOL0     H15659   4.661   2.752   8.054 -0.9312  1.0117 -0.4131
  857MOL0     H15660   4.558   2.846   8.155  0.6950  0.9568 -1.6269
  857MOL0     H15661   4.757   2.958   8.262  0.3140  2.2158 -0.5839
  857MOL0     H15662   4.853   2.904   8.128 -0.0039  4.0094 -1.4555
  857MOL0     H15663   4.723   3.038   7.970 -0.7775  0.0888 -0.6431
  857MOL0     H15664   4.600   3.068   8.079 -0.2264  0.2361  0.1763
  857MOL0     H15665   4.860   3.191   8.065 -1.3087 -1.6733 -1.3835
  857MOL0     H15666   4.765   3.182   8.225  2.3736 -1.9323  0.9004
  857MOL0     H15667   4.586   3.302   8.120  1.3492 -1.3812  1.8454
  857MOL0     H15668   4.671   3.328   7.969 -0.5713  1.2263  0.5225
  857MOL0     H15669   4.752   3.441   8.231  1.5935 -0.2947 -0.1815
  857MOL0     H15670   4.853   3.449   8.088  0.5250 -1.8240  0.0619
  857MOL0     H15671   4.564   3.549   8.109 -0.8424  1.6240 -0.9866
  857MOL0     H15672   4.663   3.573   7.967 -0.2913 -1.2276 -0.3899
  857MOL0     H15673   4.729   3.710   8.233 -0.8754  0.1425  0.3979
  857MOL0     H15674   4.817   3.706   8.082 -1.3522 -0.4030 -0.6439
  857MOL0     H15675   4.563   2.571   8.054 -0.2164  0.4153 -0.3379
  857MOL0     H15676   4.409   2.388   8.083 -1.7201  0.0034  1.7237
  857MOL0     H15677   4.006   2.129   8.217  2.6987  0.8406 -1.7681
  857MOL0     H15678   3.952   1.892   8.191 -0.1112 -1.8376  1.3173
  857MOL0     H15679   2.349   1.650   7.367  0.1085  0.8956 -0.0111
  857MOL0     H15680   2.105   1.670   7.425 -0.5198 -0.1451 -0.6081
  857MOL0     H15681   1.768   1.688   7.493  2.7564  0.2602  1.5782
  857MOL0     H15682   1.523   1.724   7.510  0.1095  0.1597  0.1438
  857MOL0     H15683   1.389   1.904   7.480 -0.0910 -2.6472  1.5919
  857MOL0     H15684   1.300   2.030   7.563 -3.3164 -1.0147 -1.1083
  857MOL0     H15685   1.137   1.871   7.490  0.8899 -0.5695  0.2376
  857MOL0     H15686   1.152   1.878   7.661  1.0549  1.7459 -0.1919
  857MOL0     H15687   1.294   1.671   7.658  2.1061  1.1991 -2.4869
  857MOL0     H15688   1.287   1.677   7.484 -1.0092  2.7996 -2.2093
  857MOL0     H15689   1.034   1.654   7.674  1.0281 -0.5342 -0.1549
  857MOL0     H15690   1.027   1.661   7.498 -1.0064  0.4873  0.1198
  857MOL0     H15691   1.102   1.268   7.632  1.6317 -0.2426 -0.3263
  857MOL0     H15692   1.594   1.984   7.849 -2.2309  0.9554 -2.0812
  857MOL0     H15693   1.823   1.986   7.955  0.8172 -1.1374  0.3416
  857MOL0     H15694   1.936   1.867   7.888 -0.8826 -0.1275  3.2911
  857MOL0     H15695   1.923   2.031   7.818  1.1877  0.0624  0.9797
  858MOL0     O15696   2.315   5.245   3.355  1.0514  0.2670 -0.2287
  858MOL0     C15697   2.315   5.226   3.474 -0.5870 -0.0942 -0.4149
  858MOL0     O15698   2.427   5.184   3.544 -0.2383  0.6985  0.0528
  858MOL0     C15699   2.556   5.170   3.494  0.0659  0.2994 -0.2839
  858MOL0     C15700   2.661   5.170   3.585  0.0459 -0.0092 -0.1496
  858MOL0     C15701   2.801   5.177   3.550 -0.1079  0.0213 -0.0479
  858MOL0     C15702   2.838   5.163   3.409  1.3535 -0.1175  0.0936
  858MOL0     O15703   2.969   5.170   3.386 -0.0447  0.5328 -0.1502
  858MOL0     C15704   3.000   5.174   3.246 -0.1223 -0.2725  0.2541
  858MOL0     C15705   3.152   5.203   3.229  0.2087 -0.0881  0.7620
  858MOL0     C15706   3.241   5.106   3.302 -0.6506  0.0398  0.1555
  858MOL0     C15707   3.385   5.143   3.258  0.6802 -0.6978 -0.2227
  858MOL0     C15708   3.478   5.033   3.296 -1.0076  0.6352  0.8543
  858MOL0     C15709   3.617   5.061   3.244 -0.3273  0.4791 -0.2662
  858MOL0     C15710   3.724   4.968   3.302 -0.5033 -0.0430  0.0008
  858MOL0     C15711   3.856   5.003   3.235  0.1240 -0.3660 -0.9241
  858MOL0     N15712   3.974   4.939   3.300  0.0111 -0.3280  0.0382
  858MOL0     C15713   4.071   4.874   3.225 -0.4074  0.8200 -0.5717
  858MOL0     C15714   4.159   4.830   3.315  0.4870 -0.0551 -0.3154
  858MOL0     C15715   4.263   4.726   3.301 -0.1404  0.6406  0.2703
  858MOL0     C15716   4.279   4.637   3.428 -0.0270  0.0922  0.3597
  858MOL0     C15717   4.375   4.524   3.413 -0.1288  0.1738 -0.5842
  858MOL0     C15718   4.372   4.463   3.550 -0.6437 -0.1722 -1.6927
  858MOL0     O15719   4.447   4.341   3.559  0.2492  0.0750 -0.3495
  858MOL0     C15720   4.584   4.337   3.537  0.2973 -0.1210 -0.6322
  858MOL0     C15721   4.664   4.447   3.557  0.7681 -0.0818 -0.1207
  858MOL0     C15722   4.804   4.437   3.550 -0.4708  0.3275 -0.2052
  858MOL0     C15723   4.866   4.311   3.510  0.0430 -0.5086  0.1315
  858MOL0     C15724   5.011   4.287   3.513 -0.1669 -0.2354 -0.4693
  858MOL0     O15725   5.061   4.166   3.469 -0.4801 -0.2302 -0.3468
  858MOL0     C15726   5.198   4.148   3.462 -0.2673 -0.2161 -0.4311
  858MOL0     C15727   5.254   4.139   3.340  0.4339 -1.1703  0.6844
  858MOL0     C15728   5.392   4.124   3.331  0.6105 -0.5644  0.1724
  858MOL0     C15729   5.478   4.134   3.448  0.2616  0.5661  0.3250
  858MOL0     O15730   5.612   4.122   3.443 -0.2576 -0.1513 -0.1622
  858MOL0     C15731   5.681   4.144   3.319 -0.9515 -0.7161  0.1517
  858MOL0     C15732   5.840   4.155   3.333 -0.6829  0.1764  0.4228
  858MOL0     C15733   5.913   4.029   3.270 -0.2393 -0.2333  1.1955
  858MOL0     C15734   6.067   4.027   3.291  0.0201 -0.7209  0.2533
  858MOL0     C15735   6.132   3.920   3.198  0.0300  0.4332  0.3726
  858MOL0     C15736   6.281   3.917   3.207 -0.7752  0.2843 -0.4412
  858MOL0     C15737   6.346   4.037   3.132 -0.7043 -0.8955 -0.3120
  858MOL0     C15738   6.491   4.028   3.118  0.6466  0.2381  0.7087
  858MOL0    Cl15739   6.570   4.092   3.261 -0.0621  0.2402 -0.3009
  858MOL0     C15740   5.418   4.153   3.570  0.1809 -0.2931 -0.4000
  858MOL0     C15741   5.282   4.156   3.581  0.3055  0.6773  0.0729
  858MOL0     O15742   5.079   4.380   3.555  0.4356 -0.1279 -0.4887
  858MOL0     C15743   4.779   4.210   3.482 -0.1109 -0.5107  0.3431
  858MOL0     C15744   4.644   4.222   3.500  0.0429  0.1347 -0.1247
  858MOL0     N15745   4.114   4.886   3.437 -0.8162  0.4220 -0.4760
  858MOL0     N15746   4.011   4.963   3.432  0.4245  0.4307 -0.0420
  858MOL0     C15747   2.732   5.153   3.317  0.1598  0.0195 -0.0430
  858MOL0     C15748   2.598   5.154   3.362 -0.4179 -1.2546  0.2662
  858MOL0     C15749   2.183   5.231   3.550  0.3351  0.2542 -0.3167
  858MOL0     C15750   2.185   5.159   3.672 -0.0062  0.0611 -0.3074
  858MOL0     C15751   2.072   5.120   3.746 -0.0590  0.3208 -0.2373
  858MOL0     C15752   1.953   5.176   3.704  0.1516  0.1063 -0.1583
  858MOL0     O15753   1.828   5.147   3.757  0.3234  0.0381 -0.2981
  858MOL0     C15754   1.822   5.090   3.890  0.4763  0.0541 -0.0845
  858MOL0     C15755   1.697   5.152   3.951 -0.3579 -0.2161 -0.2824
  858MOL0     C15756   1.571   5.118   3.876 -0.3328 -0.5076  0.0912
  858MOL0     C15757   1.453   5.201   3.923  0.0099 -0.4806  0.5221
  858MOL0     C15758   1.332   5.166   3.846 -0.4801 -0.1143  0.2069
  858MOL0     C15759   1.229   5.142   3.780 -0.9854  0.5908 -0.7171
  858MOL0     C15760   1.948   5.258   3.588  0.2894 -0.2440  0.2496
  858MOL0     C15761   2.056   5.290   3.514  0.6343 -0.4910  0.6350
  858MOL0     C15762   2.044   5.374   3.388  0.9910 -0.2216  0.1995
  858MOL0     H15763   2.645   5.176   3.692 -2.5344 -1.4422 -0.3771
  858MOL0     H15764   2.872   5.191   3.631  0.9355  0.6920 -1.0571
  858MOL0     H15765   2.987   5.076   3.199 -0.5130  0.3349 -0.9347
  858MOL0     H15766   2.938   5.251   3.200 -0.0503 -0.4540 -0.1470
  858MOL0     H15767   3.176   5.303   3.266 -2.7242  0.3245  1.7157
  858MOL0     H15768   3.170   5.213   3.121  0.3313  1.1196  0.8760
  858MOL0     H15769   3.219   5.001   3.283  0.0768 -0.0165 -0.4371
  858MOL0     H15770   3.234   5.132   3.408 -0.3139  0.8609 -0.0191
  858MOL0     H15771   3.391   5.143   3.148  1.3764 -0.1642 -0.1931
  858MOL0     H15772   3.419   5.241   3.293  0.7812  0.0092 -2.1423
  858MOL0     H15773   3.475   5.035   3.405 -0.6583  1.5450  0.8484
  858MOL0     H15774   3.452   4.933   3.259 -2.2756  1.7827 -1.5728
  858MOL0     H15775   3.614   5.044   3.136  0.7408  0.5367 -0.3173
  858MOL0     H15776   3.638   5.167   3.262  1.1437  0.2388 -0.4682
  858MOL0     H15777   3.693   4.866   3.275  0.0091  0.1307 -1.2916
  858MOL0     H15778   3.744   4.983   3.409 -1.0148 -0.5305  0.1718
  858MOL0     H15779   3.850   4.985   3.127  2.3516  0.8175 -1.3168
  858MOL0     H15780   3.873   5.111   3.238 -0.8747 -0.1549 -1.9200
  858MOL0     H15781   4.073   4.842   3.121  0.7434 -1.9373  0.1895
  858MOL0     H15782   4.238   4.657   3.219  0.1950 -0.3776  1.0016
  858MOL0     H15783   4.357   4.769   3.265  1.4918 -1.3421  1.9381
  858MOL0     H15784   4.310   4.712   3.502 -1.1430  1.3737 -0.4419
  858MOL0     H15785   4.181   4.600   3.460 -0.1406  1.6925  2.0718
  858MOL0     H15786   4.474   4.561   3.387 -0.6858  0.0626 -3.1538
  858MOL0     H15787   4.348   4.449   3.338 -0.1535 -0.6061  0.1877
  858MOL0     H15788   4.265   4.445   3.565 -0.7424  2.1366  1.4372
  858MOL0     H15789   4.398   4.536   3.627 -4.5981 -1.3444  1.0773
  858MOL0     H15790   4.617   4.536   3.598 -0.2476 -2.0476  3.4225
  858MOL0     H15791   4.869   4.519   3.580  1.7519 -0.4101 -2.5699
  858MOL0     H15792   5.196   4.132   3.248  0.8183 -0.3745  0.3702
  858MOL0     H15793   5.426   4.100   3.231 -0.6014  0.5793 -0.5502
  858MOL0     H15794   5.651   4.063   3.253  1.6773 -0.3298 -1.6619
  858MOL0     H15795   5.648   4.234   3.265 -1.0081 -0.9271 -0.1655
  858MOL0     H15796   5.871   4.243   3.274 -1.0838 -0.9635 -1.5645
  858MOL0     H15797   5.867   4.169   3.438 -0.7996 -1.5684  0.6984
  858MOL0     H15798   5.888   3.935   3.319  1.5190 -1.2216  0.2883
  858MOL0     H15799   5.897   4.038   3.162  1.3610  2.1925  1.0669
  858MOL0     H15800   6.093   4.004   3.394  2.7125 -0.6249 -0.3415
  858MOL0     H15801   6.102   4.126   3.260  0.3164 -1.9073 -3.8736
  858MOL0     H15802   6.100   3.927   3.093 -0.8690 -1.3112  0.5028
  858MOL0     H15803   6.083   3.827   3.227 -1.5326  0.9898 -0.3356
  858MOL0     H15804   6.302   3.908   3.314 -2.3402 -0.2168 -0.1423
  858MOL0     H15805   6.319   3.823   3.165 -2.1692 -0.1672 -0.7446
  858MOL0     H15806   6.327   4.129   3.188 -3.0890 -0.8446 -1.0869
  858MOL0     H15807   6.301   4.043   3.032 -2.0259 -2.0696  0.1817
  858MOL0     H15808   6.518   3.922   3.124  0.2532  0.1433  0.8665
  858MOL0     H15809   6.534   4.073   3.028  0.1925 -0.7338 -0.0291
  858MOL0     H15810   5.476   4.167   3.661 -0.8719  1.7458  0.0191
  858MOL0     H15811   5.244   4.179   3.680 -0.3402  1.9179 -0.4486
  858MOL0     H15812   4.818   4.113   3.455 -1.3827 -0.7747 -0.6376
  858MOL0     H15813   4.583   4.132   3.497 -0.2172  0.3433 -2.9708
  858MOL0     H15814   2.762   5.143   3.213  0.3631 -0.2018  0.0357
  858MOL0     H15815   2.519   5.147   3.288 -1.6756 -3.0277  1.6988
  858MOL0     H15816   2.274   5.118   3.719  0.1886  2.0446  1.1831
  858MOL0     H15817   2.097   5.059   3.831  3.4385  2.2394  0.2758
  858MOL0     H15818   1.912   5.131   3.938 -0.5468  1.9318  0.3397
  858MOL0     H15819   1.815   4.981   3.891  2.2937 -0.1087 -0.8047
  858MOL0     H15820   1.705   5.261   3.950 -1.2099 -0.1080 -2.8318
  858MOL0     H15821   1.690   5.117   4.054 -1.7127  0.3911 -0.1552
  858MOL0     H15822   1.547   5.013   3.895 -1.4471  0.0454  2.1028
  858MOL0     H15823   1.589   5.141   3.771 -0.6734  1.0385  0.3591
  858MOL0     H15824   1.442   5.188   4.031  2.9823 -1.2713  0.8041
  858MOL0     H15825   1.473   5.306   3.901 -0.0240 -0.5821  0.0059
  858MOL0     H15826   1.137   5.135   3.726 -2.3639  0.3952  1.5117
  858MOL0     H15827   1.851   5.292   3.553 -0.6087 -1.6966  1.2040
  858MOL0     H15828   1.973   5.453   3.413  0.2788  0.3007 -3.0203
  858MOL0     H15829   2.143   5.408   3.355  1.4776  0.2300  1.9906
  858MOL0     H15830   2.002   5.325   3.300  1.5566 -3.3825  1.5360
  859MOL0     O15831   5.192   5.833   9.909  0.3090  0.3025 -0.1674
  859MOL0     C15832   5.137   5.771   9.826 -0.2580  0.9510  0.8675
  859MOL0     O15833   5.196   5.730   9.706 -0.0107 -0.1997 -0.3963
  859MOL0     C15834   5.326   5.753   9.685 -0.1760  0.4767  0.2568
  859MOL0     C15835   5.430   5.694   9.759  0.3782 -0.0224 -0.3906
  859MOL0     C15836   5.560   5.715   9.714  0.0195 -0.1350  1.0458
  859MOL0     C15837   5.590   5.791   9.600  0.2312  0.0568 -0.4919
  859MOL0     O15838   5.714   5.818   9.551  0.4862  0.2741 -0.2778
  859MOL0     C15839   5.827   5.736   9.574 -0.4097  0.0188  0.1943
  859MOL0     C15840   5.938   5.784   9.473  0.5843  0.3642 -0.9207
  859MOL0     C15841   5.969   5.932   9.468  0.3406 -0.7019 -0.3075
  859MOL0     C15842   6.068   5.981   9.356  1.3190  0.6220  1.1529
  859MOL0     C15843   6.214   5.996   9.379 -0.1206 -0.4629 -0.7077
  859MOL0     C15844   6.241   6.092   9.493 -0.3080  0.3136 -0.5559
  859MOL0     C15845   6.390   6.113   9.492  0.0295  0.8686  0.2872
  859MOL0     C15846   6.442   6.215   9.382 -0.4744  0.2916  0.6228
  859MOL0     N15847   6.580   6.246   9.404 -0.5003  0.6135 -0.3208
  859MOL0     C15848   6.615   6.344   9.491  0.3860  0.2486 -0.1765
  859MOL0     C15849   6.744   6.325   9.505  0.4180  0.1313 -0.2346
  859MOL0     C15850   6.829   6.409   9.591  0.2934 -0.8031  0.0435
  859MOL0     C15851   6.974   6.376   9.584  0.0959  0.0037  0.5084
  859MOL0     C15852   7.054   6.472   9.663  0.2751  0.2569 -0.0440
  859MOL0     C15853   7.203   6.450   9.670  0.4516 -0.1819  0.2348
  859MOL0     O15854   7.263   6.538   9.763 -0.5580  0.5375  0.4423
  859MOL0     C15855   7.399   6.528   9.765  0.2955  0.3997 -0.0705
  859MOL0     C15856   7.468   6.404   9.743  0.2167 -0.3153  0.3356
  859MOL0     C15857   7.608   6.401   9.739  0.0347  0.1280 -0.1705
  859MOL0     C15858   7.680   6.522   9.776  1.1174  1.0316 -0.8315
  859MOL0     C15859   7.832   6.519   9.798 -0.3496  0.9370  0.0960
  859MOL0     O15860   7.898   6.626   9.839 -0.5270 -0.5671  0.1052
  859MOL0     C15861   8.032   6.610   9.850 -0.5213 -0.8471 -0.3070
  859MOL0     C15862   8.100   6.643   9.973  0.6682  0.3314 -0.4175
  859MOL0     C15863   8.233   6.638   9.991 -0.2602 -0.2680 -0.6217
  859MOL0     C15864   8.313   6.611   9.885 -0.4266 -0.0354 -0.1207
  859MOL0     O15865   8.452   6.635   9.909 -0.3275  0.3386 -0.5283
  859MOL0     C15866   8.539   6.540   9.832 -0.5478 -0.1869 -0.5583
  859MOL0     C15867   8.676   6.537   9.892  0.4137 -0.1685  0.5338
  859MOL0     C15868   8.766   6.630   9.820 -0.2024  0.3895  0.3263
  859MOL0     C15869   8.917   6.610   9.844 -0.1605 -0.1526  0.0403
  859MOL0     C15870   8.994   6.729   9.790 -0.8849  1.2618  0.1408
  859MOL0     C15871   9.127   6.681   9.735  0.8633 -0.5356 -0.4619
  859MOL0     C15872   9.215   6.612   9.837  0.0624 -0.4391 -0.6070
  859MOL0     C15873   9.255   6.698   9.958 -0.3462  0.1312 -1.6277
  859MOL0    Cl15874   9.142   6.674  10.093  0.4349 -0.2872  0.5875
  859MOL0     C15875   8.261   6.591   9.754  0.1217  0.8817  0.0561
  859MOL0     C15876   8.123   6.585   9.740 -0.1154 -0.0010 -0.1554
  859MOL0     O15877   7.878   6.409   9.765 -1.3403 -0.4483 -0.3179
  859MOL0     C15878   7.618   6.649   9.797  0.5682  0.1510  0.0240
  859MOL0     C15879   7.473   6.643   9.794  0.1192 -0.6251 -0.2631
  859MOL0     N15880   6.789   6.229   9.423 -0.0532  0.2891 -0.1295
  859MOL0     N15881   6.690   6.170   9.366 -0.2962 -0.2212 -0.0067
  859MOL0     C15882   5.488   5.846   9.521  0.2014 -0.4025 -0.1579
  859MOL0     C15883   5.356   5.829   9.570  0.8706 -0.4971 -1.0050
  859MOL0     C15884   4.999   5.734   9.862  0.2482 -0.8504  0.0035
  859MOL0     C15885   4.953   5.719   9.998 -0.4215 -0.1003  0.2751
  859MOL0     C15886   4.821   5.677  10.024  0.4432 -0.4331  0.2124
  859MOL0     C15887   4.734   5.646   9.925 -0.2306 -0.7073  0.5011
  859MOL0     O15888   4.609   5.614   9.966  0.3585 -1.1280 -0.3209
  859MOL0     C15889   4.508   5.579   9.866  0.8053 -0.4809  0.1291
  859MOL0     C15890   4.374   5.588   9.935  0.5956  0.5062 -1.0873
  859MOL0     C15891   4.371   5.516  10.070  0.5844  0.6327  0.1713
  859MOL0     C15892   4.232   5.472  10.103  0.4278  0.0459  0.3864
  859MOL0     C15893   4.150   5.597  10.112 -0.0125 -0.4910  0.4818
  859MOL0     C15894   4.112   5.707  10.138 -0.8092  0.3369  0.4156
  859MOL0     C15895   4.774   5.664   9.792 -0.4996  1.0011 -0.2017
  859MOL0     C15896   4.899   5.711   9.760  0.0616  0.5715 -0.0500
  859MOL0     C15897   4.925   5.721   9.612 -0.2946  0.6588 -0.7853
  859MOL0     H15898   5.416   5.621   9.838  0.1694  0.3884 -0.0455
  859MOL0     H15899   5.644   5.664   9.759  1.2486 -0.2515 -1.2436
  859MOL0     H15900   5.869   5.748   9.674  0.4207  0.2270 -0.1694
  859MOL0     H15901   5.798   5.633   9.557 -0.6424  0.0918  0.1532
  859MOL0     H15902   5.895   5.757   9.376 -3.1407  1.8332  0.1482
  859MOL0     H15903   6.036   5.739   9.492 -0.0661 -0.3515  0.9419
  859MOL0     H15904   5.998   5.959   9.570  0.6406  0.3690 -0.6598
  859MOL0     H15905   5.878   5.990   9.447  0.5267  0.2078  1.1964
  859MOL0     H15906   6.053   5.914   9.271  0.7527  2.4215 -0.2174
  859MOL0     H15907   6.047   6.082   9.321  2.0577  0.5855  0.5767
  859MOL0     H15908   6.256   5.896   9.395 -0.2214 -0.3657  0.1934
  859MOL0     H15909   6.259   6.032   9.287 -0.8685  0.4798 -0.7186
  859MOL0     H15910   6.181   6.184   9.494  0.7663  1.2494  4.6630
  859MOL0     H15911   6.215   6.043   9.587  0.8833 -1.6850 -1.2084
  859MOL0     H15912   6.450   6.023   9.483  0.4900  1.1962  0.0406
  859MOL0     H15913   6.411   6.165   9.586  1.4337  1.4825 -0.3345
  859MOL0     H15914   6.426   6.176   9.281 -2.2837 -1.5933  1.5450
  859MOL0     H15915   6.382   6.306   9.389  1.8443  1.8049  1.8516
  859MOL0     H15916   6.550   6.403   9.555 -1.3749 -2.5195  0.7990
  859MOL0     H15917   6.813   6.515   9.569 -2.5778 -1.2934 -0.5869
  859MOL0     H15918   6.791   6.382   9.690 -0.8248  1.6708  0.3646
  859MOL0     H15919   6.988   6.272   9.617 -3.8805 -1.0141 -0.4514
  859MOL0     H15920   7.012   6.390   9.482 -1.8140 -1.4618 -0.4877
  859MOL0     H15921   7.017   6.471   9.766  0.9518  1.9427  0.2485
  859MOL0     H15922   7.032   6.567   9.614 -1.0710  0.3142  0.6102
  859MOL0     H15923   7.251   6.456   9.572 -1.6134 -0.3989 -0.8226
  859MOL0     H15924   7.210   6.344   9.697 -2.0580 -0.2544  0.8698
  859MOL0     H15925   7.421   6.310   9.714  2.0850 -1.7668  1.7427
  859MOL0     H15926   7.661   6.310   9.714  0.4888  0.8547 -2.0618
  859MOL0     H15927   8.036   6.662  10.058  1.8738  0.6193  0.4590
  859MOL0     H15928   8.264   6.673  10.089  0.7673  0.3915 -1.1667
  859MOL0     H15929   8.495   6.441   9.849 -2.3518  1.0738  3.3721
  859MOL0     H15930   8.543   6.563   9.725 -3.2010 -2.2881 -1.2232
  859MOL0     H15931   8.658   6.581   9.991  0.0103  1.8459 -0.3861
  859MOL0     H15932   8.709   6.433   9.882  0.5128  0.0101 -1.3438
  859MOL0     H15933   8.746   6.634   9.712 -0.7241  0.2656  0.4127
  859MOL0     H15934   8.738   6.729   9.858 -2.9590  0.0959 -0.6861
  859MOL0     H15935   8.940   6.508   9.813  0.0481 -0.4743  1.1904
  859MOL0     H15936   8.936   6.617   9.952  1.1913  1.6135 -0.2604
  859MOL0     H15937   8.997   6.805   9.868 -1.5426  1.1105  0.3253
  859MOL0     H15938   8.943   6.772   9.703 -0.6079  0.9849 -0.1583
  859MOL0     H15939   9.113   6.602   9.660  0.3750 -1.6532  0.7694
  859MOL0     H15940   9.172   6.761   9.676 -2.3501 -1.7112 -5.0532
  859MOL0     H15941   9.308   6.582   9.789  0.8829  2.8789 -1.3069
  859MOL0     H15942   9.157   6.531   9.883 -1.7171  1.7093  1.1521
  859MOL0     H15943   9.349   6.654   9.994 -1.2663 -0.5668  0.0680
  859MOL0     H15944   9.274   6.804   9.938 -0.5785  1.2827  2.9919
  859MOL0     H15945   8.314   6.562   9.664  0.3408  1.8856 -0.1505
  859MOL0     H15946   8.082   6.571   9.640  0.1346  2.2373 -0.6107
  859MOL0     H15947   7.672   6.737   9.830  2.6496 -1.4726  1.1776
  859MOL0     H15948   7.422   6.736   9.817  0.2023 -1.0029  1.5959
  859MOL0     H15949   5.511   5.905   9.433 -0.1948  2.0883  1.3129
  859MOL0     H15950   5.275   5.885   9.524  1.7860  1.7027 -0.0978
  859MOL0     H15951   5.031   5.735  10.072  0.3295  0.8357 -0.6982
  859MOL0     H15952   4.793   5.682  10.129  1.8352  0.1803  0.5793
  859MOL0     H15953   4.532   5.478   9.833  2.6667  0.2172 -0.7888
  859MOL0     H15954   4.490   5.647   9.783 -1.7609  1.4338  2.0654
  859MOL0     H15955   4.292   5.544   9.878  1.6217 -0.7541 -1.6541
  859MOL0     H15956   4.359   5.694   9.957 -2.0855  0.7140 -3.3600
  859MOL0     H15957   4.408   5.589  10.142 -0.8748  1.0885  0.4876
  859MOL0     H15958   4.438   5.429  10.074  1.2279  0.9447 -2.1693
  859MOL0     H15959   4.195   5.416  10.017 -1.8873  2.0540 -0.0509
  859MOL0     H15960   4.238   5.416  10.197 -1.8056 -1.2355 -0.1676
  859MOL0     H15961   4.083   5.810  10.139 -0.2598  0.5136 -0.4466
  859MOL0     H15962   4.699   5.639   9.716 -1.0013  0.3250  0.4940
  859MOL0     H15963   4.995   5.649   9.568  2.3512  2.0900  0.7976
  859MOL0     H15964   4.827   5.713   9.566 -0.6627  0.4070  0.0129
  859MOL0     H15965   4.969   5.819   9.588 -1.8490  0.6622 -4.0681
  860MOL0     O15966   7.300   8.221  10.255 -0.0825  0.6009  0.3434
  860MOL0     C15967   7.373   8.280  10.175  0.0539  0.1696  0.5458
  860MOL0     O15968   7.509   8.272  10.166 -0.1664  0.0770  0.3072
  860MOL0     C15969   7.588   8.194  10.254  0.6693  0.4841  0.6245
  860MOL0     C15970   7.677   8.268  10.338  0.5183  0.8880  0.0974
  860MOL0     C15971   7.769   8.194  10.416  0.0810  0.7254  0.3041
  860MOL0     C15972   7.763   8.056  10.421  0.2759 -0.4484 -0.1688
  860MOL0     O15973   7.830   7.982  10.517  0.4881  0.0195 -0.4455
  860MOL0     C15974   7.968   8.018  10.536 -1.0838  0.8599  0.5826
  860MOL0     C15975   8.054   7.888  10.536 -0.1935  0.8180 -0.4701
  860MOL0     C15976   8.202   7.908  10.510 -0.0840  0.6165  0.3905
  860MOL0     C15977   8.277   7.960  10.631  0.2425 -0.3993 -0.2298
  860MOL0     C15978   8.423   7.964  10.591  0.3187  0.4871  0.1420
  860MOL0     C15979   8.458   8.069  10.480  0.9511  0.3348  0.0143
  860MOL0     C15980   8.609   8.088  10.468  0.0541 -1.2214  0.7855
  860MOL0     C15981   8.674   8.160  10.584  0.0482  0.3161  0.4043
  860MOL0     N15982   8.803   8.216  10.543 -0.1515 -0.4311  0.1363
  860MOL0     C15983   8.913   8.152  10.519 -0.0651  1.0999 -0.6819
  860MOL0     C15984   9.007   8.250  10.486  0.8581  0.2775 -0.2115
  860MOL0     C15985   9.149   8.230  10.437  0.1317  0.3091 -0.8618
  860MOL0     C15986   9.246   8.282  10.545  0.7605  0.2425 -0.0482
  860MOL0     C15987   9.266   8.424  10.526  0.8846  0.2107  0.4699
  860MOL0     C15988   9.374   8.477  10.623 -0.7923 -0.2621  0.0650
  860MOL0     O15989   9.499   8.411  10.591  0.1056  0.5108 -0.0302
  860MOL0     C15990   9.620   8.477  10.622  0.3619  0.0425 -0.7161
  860MOL0     C15991   9.742   8.437  10.559  0.8075 -0.1953  0.5950
  860MOL0     C15992   9.862   8.491  10.596 -0.3208  0.1171  0.1333
  860MOL0     C15993   9.871   8.589  10.693  0.0618 -0.2434  0.0312
  860MOL0     C15994  10.000   8.658  10.723  0.6822  0.0772 -1.2089
  860MOL0     O15995  10.104   8.624  10.649 -0.4132 -0.0206  0.0481
  860MOL0     C15996  10.230   8.678  10.659  0.0030 -0.1236 -0.3110
  860MOL0     C15997  10.332   8.595  10.606 -1.0737  1.3639 -0.7230
  860MOL0     C15998  10.468   8.630  10.623  0.2143  0.2050 -0.0073
  860MOL0     C15999  10.501   8.741  10.701  0.1388 -0.7694  0.4683
  860MOL0     O16000  10.629   8.786  10.693  0.7268  0.2323 -0.7274
  860MOL0     C16001  10.687   8.818  10.823  0.2060 -0.6418 -0.3266
  860MOL0     C16002  10.832   8.856  10.775 -0.2083 -0.1563  0.0192
  860MOL0     C16003  10.909   8.904  10.894 -0.2538 -0.2778 -0.5672
  860MOL0     C16004  11.053   8.907  10.859  0.6058 -0.2141 -0.4083
  860MOL0     C16005  11.120   8.937  10.991 -0.3375  0.6807  0.4929
  860MOL0     C16006  11.271   8.917  10.983  0.0510  0.3714  0.1490
  860MOL0     C16007  11.343   8.963  11.114  0.3003 -0.3479 -0.6161
  860MOL0     C16008  11.479   9.032  11.094 -0.0326 -0.0640 -0.1778
  860MOL0    Cl16009  11.601   8.904  11.064 -0.2169  0.1334 -0.1084
  860MOL0     C16010  10.400   8.825  10.749 -0.3487 -0.7402 -0.5485
  860MOL0     C16011  10.265   8.796  10.733 -0.5166  0.4668  0.0967
  860MOL0     O16012  10.001   8.738  10.820  0.0783  0.2025 -0.0549
  860MOL0     C16013   9.747   8.631  10.761 -0.4999  1.2704 -0.6736
  860MOL0     C16014   9.626   8.572  10.724  0.4070  0.3147  0.2472
  860MOL0     N16015   8.943   8.371  10.490  0.1017  0.0707  0.2967
  860MOL0     N16016   8.829   8.350  10.529  0.0825  0.2701  0.1280
  860MOL0     C16017   7.673   7.989  10.344  0.3616 -0.3344  1.8500
  860MOL0     C16018   7.595   8.054  10.252  0.6351 -0.2399 -0.2435
  860MOL0     C16019   7.310   8.389  10.088  0.9288  0.2517 -0.5009
  860MOL0     C16020   7.385   8.506  10.057  0.9419  0.1523  1.0840
  860MOL0     C16021   7.328   8.609   9.982 -0.1108 -0.1272  0.3086
  860MOL0     C16022   7.195   8.607   9.932  0.4050 -0.2116  1.0309
  860MOL0     O16023   7.124   8.712   9.878  0.1067 -0.1920  0.2289
  860MOL0     C16024   7.191   8.841   9.857 -0.3127  0.4932 -0.0085
  860MOL0     C16025   7.100   8.940   9.774 -0.1269  0.2283 -0.2428
  860MOL0     C16026   6.962   8.976   9.841  0.2439  1.1694 -0.3819
  860MOL0     C16027   6.877   8.849   9.864 -1.2061 -0.4420 -0.3082
  860MOL0     C16028   6.742   8.890   9.886 -0.1625  0.6360  0.3158
  860MOL0     C16029   6.626   8.921   9.888  0.9570 -0.5279  0.3554
  860MOL0     C16030   7.122   8.491   9.955  0.6563  0.8670 -0.6603
  860MOL0     C16031   7.174   8.385  10.038  0.0477 -0.3764 -0.4286
  860MOL0     C16032   7.092   8.256  10.032 -0.3425  0.0171 -0.6896
  860MOL0     H16033   7.689   8.375  10.336 -1.8795  1.2193 -1.9057
  860MOL0     H16034   7.843   8.237  10.482  1.1649  0.0584 -0.4575
  860MOL0     H16035   8.002   8.077  10.450  1.3952  1.0988  1.6308
  860MOL0     H16036   7.984   8.082  10.623  0.3845  0.0712  0.9166
  860MOL0     H16037   8.009   7.815  10.469  0.2245 -0.5847  0.7278
  860MOL0     H16038   8.056   7.833  10.631  1.8819 -0.5322 -1.2322
  860MOL0     H16039   8.207   7.969  10.420 -0.5040 -2.1190 -1.6261
  860MOL0     H16040   8.252   7.813  10.489 -1.4287 -0.3731  1.4983
  860MOL0     H16041   8.241   8.057  10.665 -1.2823 -1.0769  0.1633
  860MOL0     H16042   8.265   7.898  10.721  0.3856  0.2743  0.2657
  860MOL0     H16043   8.492   7.983  10.674  3.0256 -1.3537 -1.5072
  860MOL0     H16044   8.459   7.867  10.555  0.8000  0.7929 -0.2175
  860MOL0     H16045   8.418   8.036  10.383 -0.0424 -2.6201  1.3114
  860MOL0     H16046   8.404   8.160  10.507 -0.4047 -0.9117  1.7000
  860MOL0     H16047   8.623   8.140  10.373  0.1442 -2.2121  0.2373
  860MOL0     H16048   8.666   7.997  10.444  0.8644 -1.4802  3.3729
  860MOL0     H16049   8.604   8.239  10.609 -0.5781 -0.4404  1.0907
  860MOL0     H16050   8.671   8.085  10.663  0.3828 -2.5569 -2.0940
  860MOL0     H16051   8.933   8.046  10.522 -2.4036  0.6436  0.2093
  860MOL0     H16052   9.166   8.122  10.429  0.0316  0.2713 -0.5686
  860MOL0     H16053   9.167   8.276  10.339  1.0720  1.3386 -0.2145
  860MOL0     H16054   9.222   8.255  10.648  0.1687  2.1522  0.3660
  860MOL0     H16055   9.345   8.238  10.529  0.5131 -0.6725  0.8485
  860MOL0     H16056   9.186   8.497  10.539  0.3082 -0.6499  2.1119
  860MOL0     H16057   9.302   8.452  10.427  0.9134  1.0567  0.7070
  860MOL0     H16058   9.355   8.457  10.728  1.2343  0.6558  0.6539
  860MOL0     H16059   9.380   8.586  10.612  1.3045 -0.3864 -0.2977
  860MOL0     H16060   9.729   8.354  10.491 -0.9157  0.6191 -0.1458
  860MOL0     H16061   9.947   8.454  10.538 -0.5340 -3.9598  2.0806
  860MOL0     H16062  10.305   8.502  10.557  1.8298  0.3945 -0.6820
  860MOL0     H16063  10.554   8.574  10.586  1.1431  2.0051 -0.7013
  860MOL0     H16064  10.630   8.895  10.875 -0.6289 -2.0514  0.9311
  860MOL0     H16065  10.694   8.729  10.886  0.1465  1.2697  2.5396
  860MOL0     H16066  10.867   8.774  10.712 -2.9923 -0.9063 -0.6923
  860MOL0     H16067  10.803   8.939  10.710  1.2654 -0.4966 -1.1074
  860MOL0     H16068  10.885   9.009  10.912 -3.4067 -1.0823  0.4172
  860MOL0     H16069  10.893   8.833  10.975 -1.8811  0.0491 -0.5733
  860MOL0     H16070  11.082   8.984  10.788  2.2512 -0.9627 -0.6154
  860MOL0     H16071  11.086   8.809  10.822  1.2086 -0.1294 -0.1090
  860MOL0     H16072  11.091   8.868  11.071 -0.5852  0.2619  0.0455
  860MOL0     H16073  11.108   9.044  11.009 -0.4734  0.8810 -0.7410
  860MOL0     H16074  11.285   8.808  10.974 -1.2315  0.1137  0.9221
  860MOL0     H16075  11.322   8.955  10.895  1.5126 -2.1429 -0.2044
  860MOL0     H16076  11.350   8.879  11.183  0.8033 -0.1312 -0.3980
  860MOL0     H16077  11.281   9.045  11.151 -0.2866 -0.7124 -0.7781
  860MOL0     H16078  11.474   9.106  11.014  1.4618  1.2554  0.8780
  860MOL0     H16079  11.502   9.083  11.188 -1.4710  1.1077 -0.4236
  860MOL0     H16080  10.426   8.922  10.790  1.6592 -1.6782  0.6223
  860MOL0     H16081  10.194   8.856  10.789 -1.0089 -0.3879  0.4009
  860MOL0     H16082   9.745   8.704  10.841 -0.2044 -2.3048  2.9329
  860MOL0     H16083   9.537   8.616  10.768  1.5615  3.4674 -0.2968
  860MOL0     H16084   7.681   7.881  10.345  0.4075 -0.3439  1.1015
  860MOL0     H16085   7.534   8.000  10.181  0.0876 -0.3589  0.3104
  860MOL0     H16086   7.492   8.515  10.072  1.1418  0.5688 -0.4844
  860MOL0     H16087   7.387   8.696   9.956 -1.2527  0.1169 -1.6658
  860MOL0     H16088   7.282   8.827   9.798  0.5063 -0.1512  1.3511
  860MOL0     H16089   7.229   8.881   9.952  1.6620 -3.3764  1.0295
  860MOL0     H16090   7.083   8.911   9.670  0.9055  1.1023 -0.6803
  860MOL0     H16091   7.148   9.038   9.768  2.0728 -0.7199  0.7042
  860MOL0     H16092   6.907   9.032   9.765 -0.6147 -0.6342 -1.1511
  860MOL0     H16093   6.970   9.028   9.937  3.5492 -0.1986  0.2112
  860MOL0     H16094   6.883   8.776   9.783  0.0460 -3.2801  2.1454
  860MOL0     H16095   6.909   8.801   9.957 -0.7555 -0.2709 -0.3758
  860MOL0     H16096   6.524   8.952   9.900  0.9169  0.5427 -2.1689
  860MOL0     H16097   7.020   8.487   9.918  0.1859  1.9454  0.4589
  860MOL0     H16098   7.009   8.266   9.962 -1.0398  0.1933  0.1427
  860MOL0     H16099   7.153   8.167  10.012  1.9746  1.3006  0.2289
  860MOL0     H16100   7.059   8.232  10.134  0.9130  2.3769  0.3498
  861MOL0     O16101   9.142   7.345   3.134 -0.1527  0.2502 -0.5407
  861MOL0     C16102   9.125   7.397   3.245 -0.3598 -0.3927  0.1126
  861MOL0     O16103   9.200   7.499   3.294 -0.2494 -0.5648 -0.2504
  861MOL0     C16104   9.324   7.534   3.239 -0.0284 -0.0632  0.2045
  861MOL0     C16105   9.353   7.676   3.229  0.5245 -1.1794  1.1923
  861MOL0     C16106   9.469   7.717   3.162 -0.0081  0.2172 -0.4803
  861MOL0     C16107   9.561   7.623   3.119  0.2594  0.3975 -0.0236
  861MOL0     O16108   9.683   7.670   3.067 -0.5460 -0.1516 -0.5571
  861MOL0     C16109   9.744   7.593   2.961  0.3763 -0.2078  0.1239
  861MOL0     C16110   9.848   7.680   2.893  0.1076 -0.3209  0.3475
  861MOL0     C16111   9.920   7.627   2.769 -0.7061 -0.0558  0.1467
  861MOL0     C16112  10.072   7.603   2.790  0.5673  0.2065 -0.0415
  861MOL0     C16113  10.141   7.552   2.657 -0.0697 -0.2920 -0.6720
  861MOL0     C16114  10.290   7.546   2.665 -0.5678  0.6149  0.5160
  861MOL0     C16115  10.323   7.531   2.515  0.4747 -0.6500  0.0909
  861MOL0     C16116  10.471   7.546   2.492 -0.5319 -0.0654  0.6762
  861MOL0     N16117  10.497   7.537   2.344 -0.3265  0.1582 -0.4659
  861MOL0     C16118  10.509   7.419   2.263  0.1385  0.0940 -0.9045
  861MOL0     C16119  10.595   7.461   2.168 -0.0388  0.1428  0.9260
  861MOL0     C16120  10.676   7.375   2.074 -0.3217 -0.4886 -0.3717
  861MOL0     C16121  10.755   7.450   1.962  0.6019  0.1642 -0.7157
  861MOL0     C16122  10.663   7.450   1.831  0.1288 -0.3601  1.1079
  861MOL0     C16123  10.741   7.480   1.700 -0.1023  0.0852 -0.2295
  861MOL0     O16124  10.844   7.385   1.660  1.1562  0.4059  0.4714
  861MOL0     C16125  10.951   7.419   1.577  0.6459 -1.0202 -0.1154
  861MOL0     C16126  10.931   7.509   1.466  0.4427 -0.0063 -0.3901
  861MOL0     C16127  11.035   7.531   1.378  0.1734  0.5786 -0.4688
  861MOL0     C16128  11.161   7.491   1.412  0.5711 -0.1370  0.2779
  861MOL0     C16129  11.271   7.533   1.327  0.1138  0.5452  0.7050
  861MOL0     O16130  11.392   7.543   1.386  0.7433 -0.0266  0.3821
  861MOL0     C16131  11.503   7.561   1.309 -0.1419 -0.1353 -0.7463
  861MOL0     C16132  11.607   7.650   1.367  0.1391 -0.4045 -0.6183
  861MOL0     C16133  11.732   7.678   1.306  0.0793 -0.5085 -0.3251
  861MOL0     C16134  11.763   7.627   1.181  0.0428  0.2023  0.7828
  861MOL0     O16135  11.880   7.676   1.124 -0.0776 -0.6178  0.6246
  861MOL0     C16136  11.940   7.614   1.006  0.3784 -0.1219  0.1801
  861MOL0     C16137  12.089   7.638   1.017 -0.6775  0.3786  0.3940
  861MOL0     C16138  12.135   7.543   1.130 -0.3336 -0.5912 -1.1864
  861MOL0     C16139  12.281   7.569   1.159 -0.6099  0.4276 -0.1460
  861MOL0     C16140  12.330   7.490   1.288  0.6568  0.3762 -0.2742
  861MOL0     C16141  12.479   7.489   1.292  0.4346  0.3749 -0.0008
  861MOL0     C16142  12.553   7.428   1.414 -0.7893  0.4853  0.0036
  861MOL0     C16143  12.697   7.393   1.384  0.3933 -0.0251 -0.4071
  861MOL0    Cl16144  12.774   7.559   1.367 -0.3581  0.0756  0.1532
  861MOL0     C16145  11.671   7.535   1.124  0.1511 -0.1476  0.4009
  861MOL0     C16146  11.543   7.504   1.186  0.0349  0.6232  0.1025
  861MOL0     O16147  11.248   7.553   1.206 -0.6004 -0.1389 -0.7029
  861MOL0     C16148  11.183   7.401   1.521 -0.1208  0.5405 -0.1968
  861MOL0     C16149  11.077   7.361   1.607 -0.1518  0.4513  0.6158
  861MOL0     N16150  10.595   7.600   2.169 -0.2860 -0.1578 -0.2410
  861MOL0     N16151  10.548   7.642   2.276  0.0267 -0.1387  0.4772
  861MOL0     C16152   9.536   7.484   3.136 -0.5494  0.0954 -0.2132
  861MOL0     C16153   9.408   7.443   3.178  0.0300  0.1324  0.0732
  861MOL0     C16154   8.991   7.394   3.306  0.8151  0.1016  0.7927
  861MOL0     C16155   8.949   7.491   3.404 -0.1345 -0.0137  0.6610
  861MOL0     C16156   8.820   7.489   3.460  0.6014 -1.2640  0.2038
  861MOL0     C16157   8.728   7.406   3.418  0.2714 -0.4522 -0.1675
  861MOL0     O16158   8.606   7.412   3.471  0.0332 -0.3680  0.2172
  861MOL0     C16159   8.559   7.302   3.545 -0.1112  0.6369 -1.1097
  861MOL0     C16160   8.417   7.329   3.605 -0.0359  0.2424 -0.1705
  861MOL0     C16161   8.364   7.238   3.724 -0.4756  0.7679  0.2400
  861MOL0     C16162   8.389   7.297   3.862 -0.0032  0.4750  0.2640
  861MOL0     C16163   8.315   7.216   3.958 -1.0689 -0.5257 -1.1414
  861MOL0     C16164   8.226   7.163   4.022  0.5821 -1.1432  1.2079
  861MOL0     C16165   8.763   7.313   3.328  0.3348  0.7653  0.5946
  861MOL0     C16166   8.893   7.295   3.269  0.2998 -0.7533  0.0722
  861MOL0     C16167   8.913   7.176   3.179  0.1426  0.0419 -0.0137
  861MOL0     H16168   9.287   7.755   3.262 -0.0641 -0.0537 -2.2574
  861MOL0     H16169   9.483   7.819   3.127  0.5474  1.0673  2.0067
  861MOL0     H16170   9.793   7.502   2.997  0.6675 -1.4963 -3.1233
  861MOL0     H16171   9.672   7.574   2.881  2.3643 -0.8974 -1.6284
  861MOL0     H16172   9.923   7.709   2.967  1.7818  0.9822 -1.7346
  861MOL0     H16173   9.792   7.769   2.864 -1.2649 -1.4434 -0.6152
  861MOL0     H16174   9.915   7.695   2.684 -0.7408 -2.0686 -1.5409
  861MOL0     H16175   9.866   7.535   2.745  0.6620 -0.9762  0.4479
  861MOL0     H16176  10.123   7.697   2.816  1.7151  0.7040 -3.6378
  861MOL0     H16177  10.083   7.528   2.869 -1.4841  1.7173  1.8051
  861MOL0     H16178  10.099   7.454   2.636  0.5886 -1.1264  1.6133
  861MOL0     H16179  10.107   7.614   2.574  1.1060 -0.1258 -1.0587
  861MOL0     H16180  10.320   7.640   2.712  0.7426  1.0192 -1.0358
  861MOL0     H16181  10.325   7.459   2.723 -3.5151 -1.0405  0.0036
  861MOL0     H16182  10.270   7.604   2.452  0.7654 -0.1124  0.4626
  861MOL0     H16183  10.294   7.430   2.485 -1.4359 -0.4022  0.9312
  861MOL0     H16184  10.494   7.641   2.540 -1.3448 -1.3440  3.8205
  861MOL0     H16185  10.532   7.470   2.542  0.8980 -0.0079 -0.8914
  861MOL0     H16186  10.492   7.314   2.284  2.0470  0.1578  1.4713
  861MOL0     H16187  10.752   7.323   2.133 -0.4168  1.9660  2.1240
  861MOL0     H16188  10.608   7.304   2.027  0.5807 -2.0836  0.6526
  861MOL0     H16189  10.773   7.551   1.999  0.8549 -0.4472  0.9652
  861MOL0     H16190  10.846   7.390   1.948  1.3373  0.2572  2.7232
  861MOL0     H16191  10.583   7.524   1.837  1.0465  0.5906  2.6132
  861MOL0     H16192  10.629   7.348   1.811  1.4948 -0.2423 -2.4254
  861MOL0     H16193  10.795   7.575   1.704  1.4229 -0.6343 -2.0786
  861MOL0     H16194  10.671   7.487   1.616 -1.9161 -0.5584  1.1639
  861MOL0     H16195  10.835   7.558   1.450 -0.3829 -0.3847  2.7041
  861MOL0     H16196  11.009   7.591   1.292  0.2078 -1.2457 -1.8139
  861MOL0     H16197  11.576   7.695   1.461  0.1999 -0.2869 -0.6546
  861MOL0     H16198  11.806   7.731   1.364  0.7834 -1.6947 -0.1108
  861MOL0     H16199  11.912   7.508   0.997 -1.6281  0.3486  0.3038
  861MOL0     H16200  11.888   7.668   0.926  1.6119 -0.4317 -0.8581
  861MOL0     H16201  12.139   7.614   0.923  0.2805 -0.7629  1.1620
  861MOL0     H16202  12.106   7.742   1.045 -0.1516  0.6393 -0.8623
  861MOL0     H16203  12.072   7.554   1.218 -0.3172  0.9657 -1.3272
  861MOL0     H16204  12.126   7.442   1.089  1.7136 -0.8008 -1.2342
  861MOL0     H16205  12.301   7.676   1.172  2.6633 -0.1846  0.7922
  861MOL0     H16206  12.346   7.537   1.076 -1.4510 -0.6019 -0.4278
  861MOL0     H16207  12.284   7.391   1.283  1.4506  0.0376 -1.1402
  861MOL0     H16208  12.284   7.533   1.377 -2.0143 -0.0611 -1.3374
  861MOL0     H16209  12.506   7.427   1.206 -0.5199  0.2491 -0.2247
  861MOL0     H16210  12.502   7.590   1.258 -2.0768  1.2280  0.5813
  861MOL0     H16211  12.502   7.334   1.435 -0.5411 -0.2029 -2.2205
  861MOL0     H16212  12.547   7.495   1.500 -1.2658 -0.8818  1.0756
  861MOL0     H16213  12.740   7.332   1.464  0.0781  3.4367  2.6110
  861MOL0     H16214  12.705   7.334   1.292 -2.0378  0.1356 -0.7991
  861MOL0     H16215  11.690   7.479   1.033  3.4150  0.4534  0.6140
  861MOL0     H16216  11.465   7.438   1.148 -1.5971  0.2314  3.7170
  861MOL0     H16217  11.284   7.381   1.556  0.0250 -0.7953 -1.2819
  861MOL0     H16218  11.107   7.293   1.687  0.5217  0.1023  0.0716
  861MOL0     H16219   9.602   7.402   3.107 -2.6436 -2.0230  0.7106
  861MOL0     H16220   9.380   7.338   3.180 -1.7129  0.5749  1.0161
  861MOL0     H16221   9.015   7.564   3.449  0.2553 -1.0975  1.9254
  861MOL0     H16222   8.804   7.575   3.523  1.3663  1.1516 -2.6397
  861MOL0     H16223   8.620   7.295   3.636  0.3372  0.2307 -1.4365
  861MOL0     H16224   8.547   7.210   3.487  3.3817 -1.2253  0.8139
  861MOL0     H16225   8.349   7.334   3.519  0.6263  0.2303 -0.6977
  861MOL0     H16226   8.424   7.430   3.645 -0.5362 -0.1974  1.0720
  861MOL0     H16227   8.411   7.140   3.710  1.9411  1.6248  1.6920
  861MOL0     H16228   8.256   7.236   3.709 -1.2436 -2.2530  4.2862
  861MOL0     H16229   8.495   7.307   3.885  0.5607  1.1289 -2.2986
  861MOL0     H16230   8.358   7.402   3.867  1.5579  0.9068  2.9817
  861MOL0     H16231   8.156   7.112   4.085  1.0419 -0.6264  2.1488
  861MOL0     H16232   8.694   7.236   3.295  0.9645  0.4517 -0.0109
  861MOL0     H16233   9.014   7.135   3.186 -0.0609 -0.6333 -0.8335
  861MOL0     H16234   8.853   7.091   3.214  3.0584 -1.9400  0.5053
  861MOL0     H16235   8.888   7.204   3.076  1.9216 -1.8631 -1.0293
  862MOL0     O16236   4.999   8.069   5.368 -0.3160 -0.1589 -0.2255
  862MOL0     C16237   4.975   8.159   5.293  0.3717  0.0648  0.3679
  862MOL0     O16238   5.026   8.290   5.299  0.4000 -0.0492  1.2881
  862MOL0     C16239   5.122   8.325   5.387 -0.1930  0.4790  0.3188
  862MOL0     C16240   5.129   8.292   5.525 -0.1742 -0.8205  0.0333
  862MOL0     C16241   5.230   8.332   5.609 -0.0230 -0.0748 -0.1445
  862MOL0     C16242   5.326   8.423   5.565  0.0012  0.6201 -0.0897
  862MOL0     O16243   5.401   8.472   5.665  0.3397  0.8226  0.1957
  862MOL0     C16244   5.532   8.512   5.638  0.1392  0.6693  0.0998
  862MOL0     C16245   5.633   8.394   5.655 -0.0575  0.2023 -0.1920
  862MOL0     C16246   5.665   8.338   5.793  0.4174  0.7919 -0.0892
  862MOL0     C16247   5.764   8.230   5.788 -0.4218  0.5713 -0.4985
  862MOL0     C16248   5.814   8.188   5.929 -1.0351  0.2994 -0.1253
  862MOL0     C16249   5.917   8.084   5.922 -0.5643 -0.2196 -0.4137
  862MOL0     C16250   5.939   8.019   6.062 -0.0894 -0.5009 -0.0864
  862MOL0     C16251   6.014   8.111   6.163 -0.4879 -0.8303 -0.7329
  862MOL0     N16252   6.151   8.138   6.106 -0.4697 -0.5300 -0.2385
  862MOL0     C16253   6.194   8.252   6.052 -0.8131 -0.4628  0.5765
  862MOL0     C16254   6.322   8.228   6.012  0.4016  0.2717  0.2832
  862MOL0     C16255   6.412   8.325   5.937  0.0126 -0.2156 -0.2955
  862MOL0     C16256   6.523   8.361   6.030 -0.0535  0.3873  0.1819
  862MOL0     C16257   6.632   8.431   5.952 -0.2358 -0.4595  0.2579
  862MOL0     C16258   6.745   8.463   6.055 -0.9135 -0.0314  0.8159
  862MOL0     O16259   6.844   8.543   5.993 -0.6892 -0.5117  0.1728
  862MOL0     C16260   6.975   8.520   6.045  0.6076  0.1292 -0.2721
  862MOL0     C16261   7.069   8.485   5.949 -0.5433 -0.0033  0.0399
  862MOL0     C16262   7.199   8.438   5.987  0.4726  0.6796 -0.0116
  862MOL0     C16263   7.234   8.432   6.120 -0.1337  0.7675 -0.4802
  862MOL0     C16264   7.367   8.375   6.161 -0.0164 -0.2800  0.4811
  862MOL0     O16265   7.455   8.354   6.060 -0.1094 -0.4553  0.0791
  862MOL0     C16266   7.586   8.308   6.084 -0.2142  0.2719 -0.2823
  862MOL0     C16267   7.621   8.188   6.011  0.0875  0.2327 -0.9371
  862MOL0     C16268   7.750   8.139   6.029  0.3507 -0.4220  0.0402
  862MOL0     C16269   7.833   8.182   6.133 -0.2538  0.7365 -0.0031
  862MOL0     O16270   7.954   8.136   6.168  0.0097 -0.0095 -0.4663
  862MOL0     C16271   8.031   8.056   6.071  0.3342  0.0568  0.9123
  862MOL0     C16272   8.166   8.023   6.127 -0.2650 -0.4410  0.0751
  862MOL0     C16273   8.269   8.131   6.116  0.7862  0.5378  0.2535
  862MOL0     C16274   8.403   8.096   6.182  0.3871 -0.5798 -0.6499
  862MOL0     C16275   8.492   8.221   6.212 -0.1996 -0.1319 -0.4867
  862MOL0     C16276   8.617   8.181   6.286 -0.0266  0.3930 -0.1206
  862MOL0     C16277   8.725   8.111   6.208  1.0025  0.4920 -0.3048
  862MOL0     C16278   8.852   8.072   6.283 -0.2217  0.5182  0.4002
  862MOL0    Cl16279   8.980   8.024   6.167 -0.1663  0.1659  0.2657
  862MOL0     C16280   7.789   8.284   6.215  0.4450  0.6405  0.2134
  862MOL0     C16281   7.670   8.357   6.183 -0.0429 -0.3131 -0.3628
  862MOL0     O16282   7.387   8.354   6.282 -0.5243  1.2462 -0.2303
  862MOL0     C16283   7.148   8.492   6.216 -0.1859 -0.4380  0.0535
  862MOL0     C16284   7.013   8.523   6.181 -0.2328 -0.4165  0.0009
  862MOL0     N16285   6.348   8.091   6.038  0.2657 -0.2453 -0.6530
  862MOL0     N16286   6.242   8.036   6.090 -1.1834  0.1688 -0.0217
  862MOL0     C16287   5.320   8.462   5.433  0.1970 -0.2535 -0.2308
  862MOL0     C16288   5.223   8.415   5.343 -0.1697 -0.6511  0.0338
  862MOL0     C16289   4.880   8.129   5.178  0.1782 -0.3095  0.2403
  862MOL0     C16290   4.891   8.204   5.059 -0.3649  0.0052 -0.1120
  862MOL0     C16291   4.807   8.177   4.954 -0.3777 -0.4264 -0.0847
  862MOL0     C16292   4.707   8.077   4.960  0.5913  0.7230 -0.1767
  862MOL0     O16293   4.625   8.044   4.855  0.4735  0.1514  0.1848
  862MOL0     C16294   4.662   8.086   4.726 -0.0869 -0.5278  0.4529
  862MOL0     C16295   4.549   8.055   4.632  0.4767 -0.4921 -0.5299
  862MOL0     C16296   4.415   8.128   4.652  0.1021 -0.0191 -1.2323
  862MOL0     C16297   4.302   8.038   4.604 -0.1175  0.4114  0.0162
  862MOL0     C16298   4.169   8.107   4.604  0.0294  0.6975 -0.0548
  862MOL0     C16299   4.067   8.168   4.590 -0.9128 -0.3417 -0.1036
  862MOL0     C16300   4.698   7.999   5.075  0.4610  0.3615 -0.4513
  862MOL0     C16301   4.779   8.020   5.187 -0.5594  0.9035  0.3467
  862MOL0     C16302   4.749   7.941   5.315  0.2401  0.4471 -0.1443
  862MOL0     H16303   5.057   8.220   5.561  0.7870 -2.2887 -0.8326
  862MOL0     H16304   5.230   8.298   5.712  1.8081 -1.3977 -0.5398
  862MOL0     H16305   5.544   8.564   5.542  1.4074 -0.5400 -0.4350
  862MOL0     H16306   5.556   8.594   5.706 -0.8657  0.6046  0.5467
  862MOL0     H16307   5.728   8.426   5.613  0.0139 -1.0547 -1.0538
  862MOL0     H16308   5.586   8.312   5.599 -1.1814  1.4675 -1.1607
  862MOL0     H16309   5.569   8.315   5.841  0.6376 -1.4865 -0.6593
  862MOL0     H16310   5.705   8.415   5.860 -0.1986 -1.3614  2.9777
  862MOL0     H16311   5.725   8.139   5.741  1.6751 -1.0452  0.6914
  862MOL0     H16312   5.849   8.256   5.724  1.2873  1.5642  2.0241
  862MOL0     H16313   5.843   8.272   5.992 -1.2309  0.1759  0.1315
  862MOL0     H16314   5.730   8.140   5.980 -1.0527  0.4886  0.0247
  862MOL0     H16315   5.904   8.009   5.843 -1.3778 -1.8498  1.1932
  862MOL0     H16316   6.005   8.139   5.888 -1.5773  0.5163 -1.9563
  862MOL0     H16317   5.997   7.930   6.034  0.7658  0.3407 -1.1166
  862MOL0     H16318   5.839   7.996   6.099 -0.3340 -0.6359 -0.8009
  862MOL0     H16319   5.967   8.208   6.181  0.6359 -0.6433  1.5305
  862MOL0     H16320   6.026   8.067   6.262 -0.5880  2.6210  0.9627
  862MOL0     H16321   6.145   8.349   6.051  2.1681  1.1996  1.1999
  862MOL0     H16322   6.452   8.284   5.844  1.5409 -1.3153  0.7697
  862MOL0     H16323   6.355   8.414   5.912 -1.2367 -0.5353  1.2482
  862MOL0     H16324   6.481   8.434   6.099 -0.5180  1.9037 -1.6023
  862MOL0     H16325   6.555   8.271   6.083 -0.9790 -0.3793 -0.5218
  862MOL0     H16326   6.598   8.528   5.913  0.2988 -0.0963  0.6885
  862MOL0     H16327   6.655   8.362   5.870 -1.9596 -1.4807  0.5760
  862MOL0     H16328   6.797   8.369   6.078  0.2411  0.8246  1.7678
  862MOL0     H16329   6.709   8.514   6.144  2.9161  0.7727  2.0728
  862MOL0     H16330   7.049   8.495   5.842  0.7030  0.3068 -0.1883
  862MOL0     H16331   7.272   8.408   5.913 -0.2937 -0.0625 -0.4990
  862MOL0     H16332   7.562   8.129   5.942 -0.6441 -1.4240  1.0005
  862MOL0     H16333   7.783   8.062   5.960  3.0717  2.8475 -2.6727
  862MOL0     H16334   7.978   7.963   6.053  1.6249 -0.0684 -3.3635
  862MOL0     H16335   8.032   8.109   5.975 -3.4978 -1.5765 -0.2078
  862MOL0     H16336   8.156   7.995   6.232  2.4463  2.3403  1.2249
  862MOL0     H16337   8.208   7.934   6.079  1.8546  0.4318  0.1815
  862MOL0     H16338   8.275   8.148   6.008 -2.0239 -1.3849 -0.3150
  862MOL0     H16339   8.218   8.217   6.161 -0.8992 -0.3451  0.1204
  862MOL0     H16340   8.463   8.026   6.124  3.6470 -1.2590  3.1350
  862MOL0     H16341   8.383   8.050   6.279  2.0520 -0.1143 -0.0527
  862MOL0     H16342   8.440   8.295   6.273  1.1376  0.9207 -0.5678
  862MOL0     H16343   8.518   8.266   6.116  1.4917 -0.7699 -0.3717
  862MOL0     H16344   8.677   8.258   6.337  0.5625 -0.2385  0.1592
  862MOL0     H16345   8.596   8.106   6.363  1.0218 -0.0175 -0.2158
  862MOL0     H16346   8.757   8.184   6.133 -0.2521  0.4681 -0.8967
  862MOL0     H16347   8.685   8.023   6.156 -1.0608  2.0320 -1.5065
  862MOL0     H16348   8.883   8.152   6.352  0.8786  0.1948  0.3073
  862MOL0     H16349   8.826   7.991   6.351 -0.4546 -0.9111 -1.3289
  862MOL0     H16350   7.853   8.310   6.298  1.9870 -2.3440  0.0831
  862MOL0     H16351   7.641   8.456   6.218  0.5362  0.4495 -1.9422
  862MOL0     H16352   7.183   8.496   6.319  1.5594  1.5374 -0.5538
  862MOL0     H16353   6.942   8.554   6.258 -0.3740  2.5445 -1.1962
  862MOL0     H16354   5.387   8.543   5.406  0.2496 -0.2230 -0.0171
  862MOL0     H16355   5.215   8.454   5.242  0.5362 -2.5988 -0.8247
  862MOL0     H16356   4.974   8.274   5.051  0.4004 -0.7556  0.9515
  862MOL0     H16357   4.815   8.230   4.860  0.8523 -1.3919 -0.5463
  862MOL0     H16358   4.753   8.036   4.692 -1.0733 -1.3023 -1.1989
  862MOL0     H16359   4.670   8.195   4.718  0.7312 -0.5392  0.9467
  862MOL0     H16360   4.540   7.946   4.628 -0.4229 -0.3985 -2.5813
  862MOL0     H16361   4.577   8.098   4.535  0.3974 -0.3674 -0.4983
  862MOL0     H16362   4.417   8.219   4.591 -2.2701 -0.7002 -2.4421
  862MOL0     H16363   4.386   8.157   4.754  1.1546  0.0341 -0.9352
  862MOL0     H16364   4.320   7.985   4.511 -0.6847  0.4142 -0.0989
  862MOL0     H16365   4.304   7.960   4.681  1.4218 -0.1835 -0.5858
  862MOL0     H16366   3.972   8.216   4.572  0.0713  1.2306 -1.3659
  862MOL0     H16367   4.619   7.924   5.068  0.7342 -0.1790  1.6613
  862MOL0     H16368   4.675   7.865   5.287  0.3851  1.0677 -2.3877
  862MOL0     H16369   4.841   7.892   5.349  0.2860  0.1256 -0.7133
  862MOL0     H16370   4.699   8.004   5.389 -2.8101 -0.8868 -0.9126
  863MOL0     O16371   3.937   0.127   1.240 -0.2478 -0.3157  0.0330
  863MOL0     C16372   3.891   0.034   1.165 -0.5417 -0.2278  0.5610
  863MOL0     O16373   3.956  -0.072   1.134 -0.1782 -0.1808 -0.1203
  863MOL0     C16374   4.090  -0.089   1.173  0.3241 -0.8883  0.4564
  863MOL0     C16375   4.194   0.011   1.174  0.8280 -0.4995 -0.2630
  863MOL0     C16376   4.325  -0.018   1.206 -0.3758 -0.3248  0.8749
  863MOL0     C16377   4.358  -0.153   1.234  0.1854  0.2468 -0.0750
  863MOL0     O16378   4.485  -0.189   1.283 -0.3032  0.2057  0.5122
  863MOL0     C16379   4.600  -0.123   1.230  0.7189 -0.2196  0.2299
  863MOL0     C16380   4.718  -0.218   1.266 -0.2946  0.1023  0.2873
  863MOL0     C16381   4.857  -0.165   1.238 -0.0208  0.3103 -0.0440
  863MOL0     C16382   4.903  -0.066   1.347  0.2696 -0.0982  0.9618
  863MOL0     C16383   5.053  -0.038   1.320  0.1377  0.0054 -0.5813
  863MOL0     C16384   5.109   0.075   1.405 -0.5565 -0.0322  0.4620
  863MOL0     C16385   5.250   0.118   1.363 -0.5915 -0.2943 -0.2646
  863MOL0     C16386   5.351   0.007   1.340  0.0048  0.2313  0.0782
  863MOL0     N16387   5.483   0.053   1.298 -0.6153  0.0155  0.3088
  863MOL0     C16388   5.546   0.157   1.359 -0.1510 -0.4800 -0.4568
  863MOL0     C16389   5.678   0.141   1.314 -0.2282 -0.5157  0.0844
  863MOL0     C16390   5.787   0.231   1.372  0.7204 -0.1511 -0.7537
  863MOL0     C16391   5.924   0.232   1.294 -0.0249 -0.5544  0.0161
  863MOL0     C16392   6.036   0.245   1.398  1.3015  0.1020 -0.2474
  863MOL0     C16393   6.173   0.282   1.338  0.1319  0.2558  0.2803
  863MOL0     O16394   6.273   0.229   1.421 -0.0964  0.3760 -0.0504
  863MOL0     C16395   6.404   0.285   1.406  0.2252 -0.6422 -0.0699
  863MOL0     C16396   6.463   0.295   1.279  0.0372  0.3224 -0.8228
  863MOL0     C16397   6.588   0.361   1.278 -0.3053 -0.2341  0.3860
  863MOL0     C16398   6.664   0.408   1.390  0.1089 -0.6276  0.4907
  863MOL0     C16399   6.789   0.488   1.387  0.4978 -0.0935  0.6535
  863MOL0     O16400   6.849   0.511   1.502 -0.4778  0.1005  0.2554
  863MOL0     C16401   6.982   0.524   1.492 -0.2954 -0.1048  0.5596
  863MOL0     C16402   7.044   0.643   1.440  0.1893 -0.4970 -0.5048
  863MOL0     C16403   7.180   0.666   1.456 -0.5156  0.1651  0.6908
  863MOL0     C16404   7.270   0.570   1.515 -1.0491 -0.3654  0.8345
  863MOL0     O16405   7.405   0.580   1.539 -0.6343 -0.4062 -0.0762
  863MOL0     C16406   7.475   0.703   1.501  0.5911 -0.5871 -0.1171
  863MOL0     C16407   7.606   0.697   1.566  0.0955  0.2928  0.8724
  863MOL0     C16408   7.692   0.572   1.517  0.1262 -0.2304 -0.9740
  863MOL0     C16409   7.837   0.576   1.577 -0.4784  0.7364  0.4718
  863MOL0     C16410   7.918   0.445   1.543 -0.4028 -0.5745  0.5466
  863MOL0     C16411   8.069   0.468   1.570  0.3081  0.6664  0.2624
  863MOL0     C16412   8.100   0.529   1.702  0.2475 -0.1127 -0.8110
  863MOL0     C16413   8.253   0.503   1.743  0.3241 -0.8123  0.2976
  863MOL0    Cl16414   8.339   0.606   1.624 -0.1294 -0.1096  0.1464
  863MOL0     C16415   7.201   0.448   1.560 -0.6362 -0.5927  0.2289
  863MOL0     C16416   7.069   0.432   1.550  0.7467  0.0313  0.5417
  863MOL0     O16417   6.822   0.529   1.277 -0.0786 -0.2220  0.4417
  863MOL0     C16418   6.594   0.405   1.510 -0.3480  0.9062  1.0046
  863MOL0     C16419   6.471   0.335   1.516  0.0868  0.3332 -0.4344
  863MOL0     N16420   5.702   0.027   1.254 -0.4603  0.5079 -0.0520
  863MOL0     N16421   5.584  -0.028   1.235  0.3274 -0.0115  0.4142
  863MOL0     C16422   4.255  -0.245   1.244  0.1537  0.0300 -1.6995
  863MOL0     C16423   4.125  -0.217   1.204 -0.1654  0.2045  0.3562
  863MOL0     C16424   3.751   0.031   1.129  0.1874  0.7706  0.0729
  863MOL0     C16425   3.685   0.151   1.113 -0.5018 -0.3732  0.0378
  863MOL0     C16426   3.549   0.162   1.078  0.2619  0.8889 -0.3852
  863MOL0     C16427   3.476   0.040   1.053 -0.4583 -0.8390  0.2341
  863MOL0     O16428   3.354   0.033   0.994 -0.2539 -0.5267 -0.3034
  863MOL0     C16429   3.284   0.157   0.955  0.3929 -0.4578  0.2108
  863MOL0     C16430   3.140   0.111   0.915  0.3757  0.7255  0.7530
  863MOL0     C16431   3.126   0.063   0.770  0.1685  0.0196  0.3027
  863MOL0     C16432   2.980   0.029   0.746  0.5912  0.0348 -0.0792
  863MOL0     C16433   2.894   0.139   0.717  0.4371 -0.2008  0.4894
  863MOL0     C16434   2.842   0.247   0.696  0.2306  0.0613  0.2153
  863MOL0     C16435   3.538  -0.080   1.076 -0.8378  0.0658  0.1346
  863MOL0     C16436   3.673  -0.084   1.113 -0.9264 -0.0940 -0.2795
  863MOL0     C16437   3.727  -0.222   1.151 -0.3518  0.1041  0.5330
  863MOL0     H16438   4.164   0.113   1.153  2.2220 -0.2280 -1.0244
  863MOL0     H16439   4.402   0.058   1.198  0.2551 -0.8654  1.6124
  863MOL0     H16440   4.592  -0.096   1.124 -1.1214  1.0216  0.6462
  863MOL0     H16441   4.625  -0.028   1.278  1.4204  0.7463 -1.9316
  863MOL0     H16442   4.708  -0.315   1.217  0.0578 -0.3231  1.0396
  863MOL0     H16443   4.720  -0.253   1.370  1.7272 -0.1540  0.1970
  863MOL0     H16444   4.865  -0.115   1.141  0.4989  2.2085  0.9093
  863MOL0     H16445   4.925  -0.250   1.238 -2.2263 -1.6072  2.3896
  863MOL0     H16446   4.845   0.025   1.330  1.3194  0.3188 -0.6813
  863MOL0     H16447   4.891  -0.113   1.445 -0.7535  0.8498  1.3032
  863MOL0     H16448   5.113  -0.128   1.334 -1.4007 -0.8898  0.6316
  863MOL0     H16449   5.070  -0.006   1.217  2.2790 -1.0009 -0.5921
  863MOL0     H16450   5.058   0.172   1.405  0.2558  0.4108  1.3479
  863MOL0     H16451   5.100   0.026   1.502 -2.1676  0.5937  0.6651
  863MOL0     H16452   5.291   0.185   1.440 -1.6375 -0.3498  0.3512
  863MOL0     H16453   5.241   0.172   1.268 -1.2598  1.4454  0.7301
  863MOL0     H16454   5.358  -0.045   1.436  3.0497 -0.0109 -0.1766
  863MOL0     H16455   5.320  -0.069   1.268  1.1541 -0.6970  0.5317
  863MOL0     H16456   5.507   0.234   1.425  0.2668  1.3280 -2.2035
  863MOL0     H16457   5.751   0.333   1.358 -1.5069 -0.8046 -0.1430
  863MOL0     H16458   5.797   0.197   1.475 -1.6655 -1.4587 -0.8945
  863MOL0     H16459   5.922   0.141   1.233  3.7109 -0.8642  0.1395
  863MOL0     H16460   5.926   0.321   1.231 -0.0534 -0.2968  0.3756
  863MOL0     H16461   6.040   0.149   1.450 -3.6758 -0.3360 -0.2082
  863MOL0     H16462   6.003   0.313   1.477 -0.9045  0.2211 -1.2019
  863MOL0     H16463   6.182   0.391   1.335  1.8431  0.1382  0.2405
  863MOL0     H16464   6.186   0.245   1.236 -2.2948 -0.8597  0.3268
  863MOL0     H16465   6.412   0.248   1.196 -3.1117 -1.5155  1.9083
  863MOL0     H16466   6.636   0.380   1.182  0.7501 -0.4274  0.8558
  863MOL0     H16467   6.988   0.727   1.400  1.9630  0.5067 -0.9947
  863MOL0     H16468   7.220   0.752   1.404 -0.7488 -0.5547 -0.7174
  863MOL0     H16469   7.481   0.717   1.393  0.5160 -0.5018 -0.1100
  863MOL0     H16470   7.415   0.784   1.545  2.2180  0.0599  1.0029
  863MOL0     H16471   7.649   0.794   1.538  0.4528 -0.3512 -0.9425
  863MOL0     H16472   7.606   0.691   1.675  2.1957  3.7019  1.2269
  863MOL0     H16473   7.648   0.473   1.533 -1.1227  0.5928  0.9681
  863MOL0     H16474   7.704   0.591   1.410  1.2487  3.0281 -0.3569
  863MOL0     H16475   7.828   0.599   1.684  0.7657  0.8714  0.5671
  863MOL0     H16476   7.890   0.660   1.531 -1.2687  1.3049  0.5875
  863MOL0     H16477   7.910   0.427   1.435 -1.6807 -2.2808  0.8985
  863MOL0     H16478   7.878   0.360   1.599  2.6624 -1.4410  1.6274
  863MOL0     H16479   8.121   0.372   1.582 -0.0541  0.4326  0.0079
  863MOL0     H16480   8.113   0.514   1.481 -0.3527 -1.4671 -1.2656
  863MOL0     H16481   8.033   0.484   1.775 -3.4554  3.3232 -1.7486
  863MOL0     H16482   8.084   0.637   1.705  0.6631 -0.0544 -0.6834
  863MOL0     H16483   8.278   0.545   1.841  2.9730  0.8536 -0.9661
  863MOL0     H16484   8.285   0.400   1.729 -2.6212 -1.7331 -0.3797
  863MOL0     H16485   7.255   0.370   1.612  1.6516  2.5181  2.8762
  863MOL0     H16486   7.022   0.348   1.599 -2.1453  0.1540 -1.7671
  863MOL0     H16487   6.636   0.444   1.602 -1.9126  1.2163  1.6331
  863MOL0     H16488   6.408   0.319   1.602 -2.8650  1.6757 -2.1700
  863MOL0     H16489   4.278  -0.345   1.280  0.5051  0.6863  0.0317
  863MOL0     H16490   4.043  -0.288   1.202 -0.4306  0.5238 -0.0889
  863MOL0     H16491   3.739   0.244   1.130 -2.1975  0.1947  2.9867
  863MOL0     H16492   3.504   0.260   1.070  0.1382  0.9897  1.2147
  863MOL0     H16493   3.340   0.212   0.879  0.2800 -0.6092  0.0191
  863MOL0     H16494   3.284   0.221   1.044 -0.2074 -0.7240  0.4122
  863MOL0     H16495   3.078   0.201   0.925 -0.1839  0.3186  1.0165
  863MOL0     H16496   3.113   0.033   0.987  0.5872  0.4842  0.5743
  863MOL0     H16497   3.186  -0.027   0.755 -0.0695 -0.7532  3.3477
  863MOL0     H16498   3.147   0.149   0.705  2.1565 -0.2487  0.5300
  863MOL0     H16499   2.971  -0.040   0.660 -2.4726  3.0063 -2.4123
  863MOL0     H16500   2.945  -0.020   0.837  0.5257  1.7181  0.8208
  863MOL0     H16501   2.797   0.338   0.664 -3.1272 -0.5290  2.6564
  863MOL0     H16502   3.481  -0.168   1.046 -0.1956 -0.3379  0.0781
  863MOL0     H16503   3.767  -0.216   1.252 -1.0496 -0.0633  0.8268
  863MOL0     H16504   3.650  -0.299   1.145 -0.3629  0.2245 -2.8435
  863MOL0     H16505   3.804  -0.257   1.082 -1.7324 -0.1015 -0.9460
  864MOL0     O16506   7.052   8.967   9.151 -0.2674 -0.1427 -0.1399
  864MOL0     C16507   7.158   8.917   9.183 -0.9648 -0.2717 -0.4578
  864MOL0     O16508   7.165   8.822   9.274 -0.6127  0.4860  0.0931
  864MOL0     C16509   7.047   8.770   9.325 -0.4126 -0.4016  0.6048
  864MOL0     C16510   6.991   8.651   9.284  0.7923  1.0024 -0.4943
  864MOL0     C16511   6.870   8.603   9.341 -0.1522  0.3135 -0.4702
  864MOL0     C16512   6.814   8.668   9.449 -0.7032  0.2582 -1.1430
  864MOL0     O16513   6.703   8.592   9.506 -0.3932 -0.4351 -0.4007
  864MOL0     C16514   6.636   8.645   9.617 -0.3442 -0.1869 -0.5336
  864MOL0     C16515   6.538   8.546   9.668  0.4141  0.3416  0.6183
  864MOL0     C16516   6.478   8.587   9.800  0.6459  0.2896 -0.4261
  864MOL0     C16517   6.381   8.474   9.840 -0.7817 -0.5850  0.1485
  864MOL0     C16518   6.311   8.491   9.972  0.1656 -1.1642 -0.6165
  864MOL0     C16519   6.224   8.624   9.988 -0.4989 -0.0356  0.4127
  864MOL0     C16520   6.184   8.650  10.128 -0.7064  0.2318 -0.3667
  864MOL0     C16521   6.113   8.786  10.148  0.7763 -0.7285  0.3622
  864MOL0     N16522   6.195   8.912  10.160  0.3082  0.1148 -0.5298
  864MOL0     C16523   6.276   8.936  10.273  0.1390 -0.0943  0.5775
  864MOL0     C16524   6.344   9.049  10.235 -0.1839  1.2703  0.1240
  864MOL0     C16525   6.418   9.147  10.319 -0.8536 -0.1590  0.0729
  864MOL0     C16526   6.569   9.103  10.330  0.5338  0.4699  0.5557
  864MOL0     C16527   6.600   9.011  10.456 -0.0367 -0.4087 -0.0964
  864MOL0     C16528   6.728   8.930  10.446  0.1035  0.3344 -0.4454
  864MOL0     O16529   6.836   9.028  10.448 -0.0454  0.0257 -0.2944
  864MOL0     C16530   6.966   8.983  10.457 -0.0289  0.5760 -0.6420
  864MOL0     C16531   7.014   8.850  10.488  0.3502 -0.5084  0.2839
  864MOL0     C16532   7.147   8.809  10.485  0.3005  0.4979  0.0295
  864MOL0     C16533   7.235   8.903  10.426 -0.1021  1.2123  0.3959
  864MOL0     C16534   7.373   8.868  10.407 -0.9071 -0.1507 -0.7161
  864MOL0     O16535   7.469   8.974  10.381  0.5047  0.6308 -0.4653
  864MOL0     C16536   7.594   8.933  10.342  0.7190 -0.5935 -0.4669
  864MOL0     C16537   7.614   8.854  10.222 -0.0916 -0.2430  0.1885
  864MOL0     C16538   7.751   8.832  10.177  1.3065 -0.0441 -0.1930
  864MOL0     C16539   7.855   8.874  10.258 -0.1173  0.1914  0.4134
  864MOL0     O16540   7.985   8.855  10.212 -1.3651 -0.3298  0.3161
  864MOL0     C16541   8.104   8.881  10.290 -0.1548 -0.0218  0.1830
  864MOL0     C16542   8.235   8.861  10.229  0.1126  0.4306  0.3499
  864MOL0     C16543   8.350   8.934  10.308 -0.4893 -0.2696 -0.1876
  864MOL0     C16544   8.476   8.947  10.219 -0.6151 -0.2288 -0.1000
  864MOL0     C16545   8.595   9.012  10.294 -0.0736  0.7027 -0.7529
  864MOL0     C16546   8.672   9.099  10.196 -0.1932 -0.2421  0.8942
  864MOL0     C16547   8.728   9.021  10.079 -0.1753  0.8127 -0.0139
  864MOL0     C16548   8.851   9.088  10.010  0.4214  0.8796 -0.4444
  864MOL0    Cl16549   8.989   9.086  10.123  0.5363  0.4164  0.0723
  864MOL0     C16550   7.826   8.949  10.374  0.2009 -0.2989  0.0152
  864MOL0     C16551   7.702   8.981  10.419 -0.3907 -0.0602 -0.0689
  864MOL0     O16552   7.404   8.749  10.397  0.2601  0.3499  0.0712
  864MOL0     C16553   7.191   9.031  10.389 -0.8003  0.5532  0.1341
  864MOL0     C16554   7.059   9.070  10.401  0.7204 -0.3662 -0.4469
  864MOL0     N16555   6.326   9.078  10.103  0.4391 -0.1793 -0.2174
  864MOL0     N16556   6.228   9.002  10.061  0.0858  0.2894  0.2682
  864MOL0     C16557   6.870   8.786   9.493 -0.6987 -0.7516 -0.8740
  864MOL0     C16558   6.993   8.836   9.429  0.3625 -0.6214 -0.3441
  864MOL0     C16559   7.276   8.961   9.102 -0.1744  1.1279  0.1313
  864MOL0     C16560   7.264   9.070   9.009  0.3164 -0.5511 -0.3441
  864MOL0     C16561   7.369   9.114   8.939 -0.3861 -0.3855  0.3573
  864MOL0     C16562   7.494   9.058   8.960 -0.2154 -0.0115  0.1177
  864MOL0     O16563   7.606   9.097   8.900 -1.1396  0.9173 -0.3631
  864MOL0     C16564   7.596   9.113   8.761  0.5297  0.6598  0.3220
  864MOL0     C16565   7.708   9.040   8.692 -0.3802 -0.4043  0.4282
  864MOL0     C16566   7.723   9.076   8.538 -0.1573  0.2914 -0.6928
  864MOL0     C16567   7.822   9.194   8.524  0.0620 -0.0812 -0.0404
  864MOL0     C16568   7.959   9.148   8.530 -0.3890  0.4905  0.0631
  864MOL0     C16569   8.073   9.114   8.544  0.0757  0.3060  0.4803
  864MOL0     C16570   7.508   8.954   9.050 -0.0824 -0.6406  0.5717
  864MOL0     C16571   7.401   8.896   9.120 -0.7382  0.0522  0.5213
  864MOL0     C16572   7.419   8.761   9.174 -0.0161  0.9452 -0.3225
  864MOL0     H16573   7.028   8.584   9.207  0.0693 -0.2679  0.2221
  864MOL0     H16574   6.828   8.515   9.293  0.9020  0.3103 -1.4431
  864MOL0     H16575   6.716   8.668   9.688 -0.7212 -0.4910 -0.0054
  864MOL0     H16576   6.590   8.739   9.585 -2.3177 -1.3240 -1.2004
  864MOL0     H16577   6.590   8.452   9.686 -0.3207 -0.2386 -0.2331
  864MOL0     H16578   6.451   8.528   9.605  0.1282  1.9474  0.5066
  864MOL0     H16579   6.415   8.676   9.790 -2.5063 -1.8334 -1.2268
  864MOL0     H16580   6.553   8.613   9.875  1.5921 -1.3457 -0.7564
  864MOL0     H16581   6.314   8.482   9.754  1.8224 -1.2115 -2.0885
  864MOL0     H16582   6.437   8.381   9.832  1.7032  0.7467  0.8879
  864MOL0     H16583   6.250   8.400   9.978  0.3908 -1.1981  1.7773
  864MOL0     H16584   6.386   8.489  10.050 -1.5434 -0.9122  1.1027
  864MOL0     H16585   6.272   8.712   9.944 -0.1479 -1.4534 -2.2586
  864MOL0     H16586   6.133   8.598   9.933  1.8130 -0.7474 -3.4676
  864MOL0     H16587   6.284   8.648  10.172 -0.6191  3.9314 -0.0885
  864MOL0     H16588   6.130   8.563  10.165  1.2402 -0.3616  1.2644
  864MOL0     H16589   6.047   8.815  10.066  3.2679 -0.6657 -1.7262
  864MOL0     H16590   6.057   8.778  10.242  0.9902  1.4152  0.7450
  864MOL0     H16591   6.271   8.882  10.367 -0.7209 -0.0956  0.5423
  864MOL0     H16592   6.415   9.248  10.276  0.5363  0.0557  0.4259
  864MOL0     H16593   6.375   9.143  10.419  2.2044 -1.1367  1.4835
  864MOL0     H16594   6.595   9.050  10.239  0.7134 -0.6141  1.2189
  864MOL0     H16595   6.625   9.197  10.329 -2.0146  2.1148 -2.3037
  864MOL0     H16596   6.526   8.934  10.479  2.7077 -2.9009  1.0644
  864MOL0     H16597   6.618   9.067  10.548  0.6964  0.8198 -0.9435
  864MOL0     H16598   6.727   8.868  10.356  1.2986 -0.1932 -0.1085
  864MOL0     H16599   6.739   8.869  10.536  3.1735 -2.1331 -2.2850
  864MOL0     H16600   6.945   8.776  10.528  0.0327  0.3969  1.4697
  864MOL0     H16601   7.173   8.707  10.513  1.5757 -0.4237 -3.8974
  864MOL0     H16602   7.535   8.820  10.156  0.4094 -3.0280  0.8746
  864MOL0     H16603   7.767   8.786  10.080  0.5563  0.4144 -0.5399
  864MOL0     H16604   8.097   8.983  10.327 -1.8743 -0.1368  0.2817
  864MOL0     H16605   8.093   8.813  10.376 -1.7614 -0.3742 -0.2515
  864MOL0     H16606   8.263   8.755  10.223  2.0270  0.8535  0.9999
  864MOL0     H16607   8.223   8.902  10.128 -1.7476  0.5354  0.5903
  864MOL0     H16608   8.326   9.041  10.316  0.8876  0.0517 -0.0506
  864MOL0     H16609   8.376   8.896  10.407 -0.0196 -1.8236 -0.8693
  864MOL0     H16610   8.462   9.011  10.131  0.6588  1.4895  0.8787
  864MOL0     H16611   8.513   8.852  10.180  1.9538 -0.6009  2.7982
  864MOL0     H16612   8.660   8.931  10.329  0.1626  0.6005 -1.4073
  864MOL0     H16613   8.552   9.065  10.379 -0.0153  0.4798 -0.5836
  864MOL0     H16614   8.602   9.176  10.162  1.3507  1.4857  1.4129
  864MOL0     H16615   8.753   9.158  10.240 -2.2155  1.8387  2.0837
  864MOL0     H16616   8.650   9.017  10.002  0.3604  1.7970 -0.6290
  864MOL0     H16617   8.746   8.919  10.114 -1.6220  1.1274  1.8138
  864MOL0     H16618   8.876   9.043   9.913 -0.2244  1.7127 -1.0198
  864MOL0     H16619   8.826   9.193   9.990  1.6534  1.0635 -1.1875
  864MOL0     H16620   7.907   8.992  10.433 -0.6311 -0.3529  1.2444
  864MOL0     H16621   7.687   9.047  10.503  0.9105  0.3751 -0.1592
  864MOL0     H16622   7.265   9.106  10.362  0.9612 -0.7384  1.1706
  864MOL0     H16623   7.020   9.168  10.377  1.8318  0.4154  0.8253
  864MOL0     H16624   6.819   8.852   9.563 -0.0589 -1.1151 -0.0436
  864MOL0     H16625   7.036   8.933   9.455 -0.3923 -0.0970 -0.9856
  864MOL0     H16626   7.171   9.126   8.998 -0.4231 -2.0236 -2.3629
  864MOL0     H16627   7.358   9.198   8.871 -1.2406 -1.0330 -0.3268
  864MOL0     H16628   7.597   9.220   8.739 -2.2247  0.6437 -0.2437
  864MOL0     H16629   7.505   9.071   8.717  0.2068  0.5037  1.1234
  864MOL0     H16630   7.686   8.934   8.708 -1.0356 -0.1933  1.0010
  864MOL0     H16631   7.798   9.065   8.749  1.5614 -3.9659 -0.7944
  864MOL0     H16632   7.625   9.106   8.501 -1.4553 -1.8950  0.7533
  864MOL0     H16633   7.758   8.994   8.475 -1.5377  0.4933 -1.7723
  864MOL0     H16634   7.823   9.246   8.428 -0.3176 -0.1545 -0.0866
  864MOL0     H16635   7.795   9.277   8.590 -1.9214  0.3248 -1.2807
  864MOL0     H16636   8.172   9.073   8.542  0.4885  1.3195 -0.5825
  864MOL0     H16637   7.603   8.901   9.055  1.3781  1.7079 -0.7025
  864MOL0     H16638   7.508   8.714   9.133 -2.0798 -0.4114 -3.6796
  864MOL0     H16639   7.433   8.777   9.282  1.7004  1.9325 -0.6526
  864MOL0     H16640   7.330   8.699   9.164 -0.3041  1.6331 -2.6895
  865MOL0     O16641   1.158   7.686   7.563 -0.2414  0.3430 -0.1208
  865MOL0     C16642   1.115   7.572   7.549 -0.4138 -1.1214  0.3693
  865MOL0     O16643   1.166   7.470   7.619 -0.3264  0.0398  0.7162
  865MOL0     C16644   1.288   7.493   7.686 -0.1669 -0.0887 -0.9028
  865MOL0     C16645   1.291   7.499   7.823 -0.3139 -1.0818  0.1096
  865MOL0     C16646   1.417   7.527   7.882 -0.0607 -0.7289 -0.6184
  865MOL0     C16647   1.537   7.532   7.807  1.0408  0.6086  0.1161
  865MOL0     O16648   1.654   7.561   7.868 -0.0838 -0.2687  0.3252
  865MOL0     C16649   1.758   7.463   7.869  0.1717 -0.2941 -0.0663
  865MOL0     C16650   1.890   7.522   7.921  0.1625  0.5031  0.5835
  865MOL0     C16651   2.015   7.445   7.892 -0.3252  0.4958  0.8347
  865MOL0     C16652   2.135   7.508   7.964  1.1847  0.2393 -0.6464
  865MOL0     C16653   2.268   7.441   7.932  0.1266  0.8225 -0.3822
  865MOL0     C16654   2.383   7.519   8.003  0.4497 -0.0217  0.4522
  865MOL0     C16655   2.518   7.467   7.948 -0.8579  0.2657  0.2224
  865MOL0     C16656   2.625   7.550   8.020 -0.3459  0.1018  0.2539
  865MOL0     N16657   2.754   7.483   8.018 -0.4193 -0.8306 -0.2552
  865MOL0     C16658   2.830   7.458   7.908  0.1988 -0.2884  0.1549
  865MOL0     C16659   2.948   7.402   7.947 -0.0845  0.2961 -0.5304
  865MOL0     C16660   3.051   7.371   7.855 -0.3918 -0.2617  0.8600
  865MOL0     C16661   3.188   7.333   7.916 -0.0752  0.2807 -0.1573
  865MOL0     C16662   3.280   7.272   7.813  0.2435 -0.8550 -0.4926
  865MOL0     C16663   3.414   7.239   7.873 -0.3760  0.1353 -0.3834
  865MOL0     O16664   3.471   7.364   7.902  0.5230 -0.2220  0.4058
  865MOL0     C16665   3.605   7.360   7.941  1.2435  0.8616  0.1176
  865MOL0     C16666   3.682   7.245   7.971  0.4557 -0.0330 -0.6611
  865MOL0     C16667   3.811   7.253   8.012  0.0938 -0.1498 -0.1976
  865MOL0     C16668   3.872   7.383   8.037  0.0091  0.2592  1.0848
  865MOL0     C16669   4.018   7.404   8.068  0.3341 -0.7847 -0.1447
  865MOL0     O16670   4.096   7.299   8.115 -0.4994 -0.3196 -0.6483
  865MOL0     C16671   4.231   7.316   8.125 -0.1051 -0.6953  0.4442
  865MOL0     C16672   4.303   7.289   8.243  0.3863 -0.0961 -0.5513
  865MOL0     C16673   4.439   7.290   8.258  0.0109 -0.9098 -0.4647
  865MOL0     C16674   4.509   7.330   8.147 -0.0457 -0.3392 -0.5549
  865MOL0     O16675   4.651   7.328   8.149 -0.0415 -0.4862  0.2241
  865MOL0     C16676   4.727   7.360   8.266  0.1109 -0.2134  0.0069
  865MOL0     C16677   4.831   7.252   8.291 -0.2749  0.1183  0.0935
  865MOL0     C16678   4.908   7.269   8.423 -0.3664  0.3690 -0.7021
  865MOL0     C16679   5.009   7.165   8.458 -0.4872  0.1677 -0.2980
  865MOL0     C16680   4.936   7.024   8.485  0.4446 -1.3984  0.1223
  865MOL0     C16681   5.036   6.945   8.566 -0.2117 -0.1848  0.0058
  865MOL0     C16682   4.990   6.805   8.609  0.0411 -0.0284  0.2107
  865MOL0     C16683   5.083   6.739   8.713 -0.4145 -0.3024  0.8379
  865MOL0    Cl16684   5.248   6.738   8.633  0.3358 -0.2062  0.0289
  865MOL0     C16685   4.448   7.353   8.028  0.5056  0.3675  0.6661
  865MOL0     C16686   4.307   7.341   8.009 -0.8994 -0.2275  0.3610
  865MOL0     O16687   4.057   7.514   8.039  0.3276 -0.2164 -0.5059
  865MOL0     C16688   3.794   7.498   8.010  0.4142 -0.2621  0.3792
  865MOL0     C16689   3.660   7.485   7.953  0.3590 -0.2064 -0.2994
  865MOL0     N16690   2.941   7.394   8.092 -1.3228 -0.4716  0.9788
  865MOL0     N16691   2.823   7.439   8.130 -0.2427  1.2021 -0.5482
  865MOL0     C16692   1.530   7.507   7.671 -0.1343  0.3776  0.3031
  865MOL0     C16693   1.410   7.491   7.609 -0.3040 -0.5980 -0.9400
  865MOL0     C16694   1.004   7.541   7.445 -0.8223 -0.3558  0.2157
  865MOL0     C16695   1.007   7.408   7.386  1.0877  0.0449  0.0146
  865MOL0     C16696   0.900   7.373   7.308  1.1133 -0.2191 -0.0341
  865MOL0     C16697   0.792   7.466   7.284  0.0790 -0.0031 -0.5276
  865MOL0     O16698   0.691   7.414   7.206  0.9829 -0.4513 -0.0582
  865MOL0     C16699   0.576   7.490   7.176 -1.1423  0.1420 -0.7571
  865MOL0     C16700   0.504   7.424   7.065  0.0874 -0.5038  0.1722
  865MOL0     C16701   0.361   7.492   7.047 -1.3267 -1.0027  0.3469
  865MOL0     C16702   0.272   7.418   6.946  0.6685  0.4498  0.6974
  865MOL0     C16703   0.168   7.495   6.881 -0.0176 -0.7207 -0.4119
  865MOL0     C16704   0.076   7.556   6.830  0.2986 -0.4231  0.2640
  865MOL0     C16705   0.796   7.592   7.342  0.5433 -0.7074 -0.2715
  865MOL0     C16706   0.894   7.628   7.425 -0.5557 -0.0545 -0.5622
  865MOL0     C16707   0.891   7.766   7.495  0.0728 -0.2522  0.0571
  865MOL0     H16708   1.200   7.482   7.880 -1.9128 -4.2433 -3.0330
  865MOL0     H16709   1.427   7.529   7.990  2.1251  0.3220 -0.7767
  865MOL0     H16710   1.741   7.391   7.950 -0.8296  0.4216  0.3828
  865MOL0     H16711   1.774   7.411   7.774  1.1312  0.1892 -0.1835
  865MOL0     H16712   1.889   7.539   8.029  1.0654 -0.3535  0.7400
  865MOL0     H16713   1.894   7.620   7.872 -1.0721 -0.1710 -0.9378
  865MOL0     H16714   2.041   7.456   7.787  2.1770  2.7457  1.5894
  865MOL0     H16715   2.012   7.342   7.930 -1.8058  1.4940  3.7453
  865MOL0     H16716   2.136   7.616   7.946  0.2877  0.3352 -0.1872
  865MOL0     H16717   2.127   7.497   8.072  0.6216 -0.1833 -0.7262
  865MOL0     H16718   2.262   7.342   7.977  1.8739  1.5396  1.6065
  865MOL0     H16719   2.289   7.431   7.825  0.5645  0.4091 -0.2572
  865MOL0     H16720   2.370   7.621   7.966 -0.3680  0.0430  0.8919
  865MOL0     H16721   2.365   7.524   8.111 -1.1377 -1.5483  0.3038
  865MOL0     H16722   2.531   7.460   7.839  1.5194 -2.4653  0.5737
  865MOL0     H16723   2.531   7.362   7.977  1.8784 -0.1921 -2.1186
  865MOL0     H16724   2.628   7.650   7.974  2.8783 -0.6887 -1.6273
  865MOL0     H16725   2.604   7.565   8.126  1.7445  1.7164  0.5011
  865MOL0     H16726   2.807   7.480   7.804  0.1888  0.5848  0.3338
  865MOL0     H16727   3.019   7.291   7.787 -3.6797  2.3057 -0.9271
  865MOL0     H16728   3.055   7.458   7.789 -1.9141 -0.8996 -0.1559
  865MOL0     H16729   3.236   7.424   7.954 -1.2765  0.7832  0.2081
  865MOL0     H16730   3.156   7.265   7.995 -1.0320 -0.1836 -0.9238
  865MOL0     H16731   3.292   7.338   7.726 -0.0506 -2.3248 -1.6794
  865MOL0     H16732   3.233   7.180   7.778  0.9493 -1.9323  1.2740
  865MOL0     H16733   3.463   7.170   7.804 -1.6941 -2.3012  0.9612
  865MOL0     H16734   3.407   7.184   7.967 -2.1047  0.5160 -0.2580
  865MOL0     H16735   3.647   7.143   7.959  1.7910 -0.5497 -0.3951
  865MOL0     H16736   3.874   7.167   8.032 -0.9025 -0.7408  0.4591
  865MOL0     H16737   4.253   7.256   8.334 -0.7535 -0.9042 -1.4382
  865MOL0     H16738   4.474   7.266   8.358  2.2942  0.5270 -0.8551
  865MOL0     H16739   4.775   7.455   8.239  1.2977 -0.6396  0.5824
  865MOL0     H16740   4.671   7.367   8.360  1.2529  0.2395  0.6663
  865MOL0     H16741   4.788   7.152   8.288  0.4239 -0.1648 -1.4784
  865MOL0     H16742   4.908   7.245   8.213  0.0600 -0.3766  0.4627
  865MOL0     H16743   4.962   7.361   8.446  0.4290 -1.0296  4.1738
  865MOL0     H16744   4.829   7.268   8.498 -0.5313  0.5623 -0.8732
  865MOL0     H16745   5.046   7.205   8.553 -4.0977 -0.5305  1.5585
  865MOL0     H16746   5.093   7.159   8.388 -0.3171  0.5421 -0.1301
  865MOL0     H16747   4.913   6.963   8.397  2.6067 -0.5011 -1.1531
  865MOL0     H16748   4.844   7.045   8.540 -1.4441 -1.2355 -2.8607
  865MOL0     H16749   5.109   6.946   8.485 -1.3144 -0.1811 -1.0198
  865MOL0     H16750   5.077   6.999   8.651  1.6813  0.4541 -1.2415
  865MOL0     H16751   4.981   6.729   8.531 -0.1188 -1.7622  1.8453
  865MOL0     H16752   4.894   6.822   8.658 -0.7647  2.0381 -1.9436
  865MOL0     H16753   5.081   6.793   8.808  1.8018  2.5709 -0.5884
  865MOL0     H16754   5.053   6.637   8.741 -2.4795  1.1157  4.4649
  865MOL0     H16755   4.502   7.367   7.936 -1.2441  1.6595 -0.2287
  865MOL0     H16756   4.259   7.354   7.912 -1.6276 -1.9205  0.4631
  865MOL0     H16757   3.831   7.600   8.019 -3.1508  1.0804  1.6715
  865MOL0     H16758   3.605   7.575   7.926 -1.4658 -1.4981 -1.0720
  865MOL0     H16759   1.618   7.508   7.607  0.3324 -0.2678  0.9274
  865MOL0     H16760   1.391   7.482   7.503 -1.9582 -0.3270 -0.6880
  865MOL0     H16761   1.094   7.344   7.397  0.5185 -1.3735 -2.8915
  865MOL0     H16762   0.895   7.271   7.271  1.5194  0.0662 -0.8897
  865MOL0     H16763   0.613   7.591   7.153  2.9689 -0.4858  2.0021
  865MOL0     H16764   0.517   7.500   7.268 -3.4206 -1.3848 -1.9766
  865MOL0     H16765   0.479   7.319   7.077  0.8276 -0.5099  2.0804
  865MOL0     H16766   0.566   7.433   6.975  1.0211 -0.2782  0.8288
  865MOL0     H16767   0.373   7.598   7.021 -0.2174 -1.5563 -1.5875
  865MOL0     H16768   0.307   7.491   7.142 -2.2133 -3.4999 -0.1164
  865MOL0     H16769   0.332   7.367   6.870  0.9781  1.1650  0.4540
  865MOL0     H16770   0.226   7.331   6.993 -0.0153 -0.4886 -1.5620
  865MOL0     H16771  -0.007   7.610   6.790  2.0515  0.8327 -1.9192
  865MOL0     H16772   0.709   7.655   7.335  2.3125  2.1725  1.4771
  865MOL0     H16773   0.917   7.768   7.601 -0.8298 -1.5640  0.3196
  865MOL0     H16774   0.962   7.837   7.449  1.1103 -1.6067 -0.4958
  865MOL0     H16775   0.790   7.808   7.490  0.4716  0.7312  0.0537
  866MOL0     O16776   8.344   0.299   6.749 -0.6153  0.7042 -0.3381
  866MOL0     C16777   8.296   0.319   6.637  0.2183  0.0395  0.3331
  866MOL0     O16778   8.361   0.388   6.539  0.6066  0.4038  0.0806
  866MOL0     C16779   8.499   0.394   6.532  0.2364  0.6211  0.6931
  866MOL0     C16780   8.548   0.475   6.426  0.4463  0.4582 -0.2730
  866MOL0     C16781   8.685   0.484   6.399 -0.9476  0.4950 -0.9521
  866MOL0     C16782   8.780   0.409   6.475  0.5665  0.0857  0.3077
  866MOL0     O16783   8.911   0.426   6.432  0.1548  0.0098 -0.0438
  866MOL0     C16784   8.986   0.302   6.421  0.1006  0.3506 -0.8384
  866MOL0     C16785   9.113   0.340   6.354 -0.7157  0.2260  1.2657
  866MOL0     C16786   9.116   0.392   6.209 -0.5727 -0.7745  0.2339
  866MOL0     C16787   9.235   0.347   6.131  0.0632 -0.6828 -0.1307
  866MOL0     C16788   9.366   0.389   6.197 -0.4211 -0.1769 -0.0242
  866MOL0     C16789   9.381   0.549   6.220 -0.4165 -0.0537  0.3417
  866MOL0     C16790   9.407   0.633   6.094 -0.1027 -0.4998  0.3010
  866MOL0     C16791   9.549   0.610   6.030 -0.4958  0.5185 -0.0028
  866MOL0     N16792   9.657   0.653   6.108 -0.8099 -0.1164 -0.0154
  866MOL0     C16793   9.690   0.784   6.149  0.1306 -1.1269  0.0238
  866MOL0     C16794   9.787   0.774   6.238 -0.2782  0.8462 -0.6016
  866MOL0     C16795   9.849   0.886   6.319  0.0142  0.4340  0.2265
  866MOL0     C16796   9.998   0.895   6.306 -0.3486  0.1921 -0.4915
  866MOL0     C16797  10.052   1.040   6.318 -0.3997  0.9159 -0.3367
  866MOL0     C16798  10.043   1.098   6.450  0.3316  0.1033 -0.5482
  866MOL0     O16799  10.071   1.241   6.445  0.1367 -0.2852 -0.5804
  866MOL0     C16800   9.971   1.328   6.419  0.1766 -0.4510 -0.0922
  866MOL0     C16801   9.834   1.298   6.435  0.5952 -1.1828 -0.1190
  866MOL0     C16802   9.746   1.402   6.427 -0.0514 -0.9027  0.1098
  866MOL0     C16803   9.780   1.537   6.395  0.2900  0.3141 -0.3551
  866MOL0     C16804   9.676   1.643   6.384  0.1376  0.6837 -1.0136
  866MOL0     O16805   9.557   1.607   6.441  0.0992 -0.0670 -0.3937
  866MOL0     C16806   9.432   1.661   6.420  0.1322  0.7127  0.8073
  866MOL0     C16807   9.390   1.708   6.295 -0.1232  0.4771  0.3283
  866MOL0     C16808   9.257   1.742   6.269 -0.4220  0.6744  0.1564
  866MOL0     C16809   9.155   1.726   6.364 -0.0028  0.5186 -0.1068
  866MOL0     O16810   9.021   1.754   6.334 -0.3398 -0.3508  0.3118
  866MOL0     C16811   8.911   1.712   6.421 -0.9474 -0.5656 -0.0448
  866MOL0     C16812   8.782   1.719   6.353 -0.1815 -0.0443 -0.0521
  866MOL0     C16813   8.680   1.717   6.461  0.7550 -0.2472 -0.0792
  866MOL0     C16814   8.554   1.652   6.408  0.0547  0.2293 -0.1729
  866MOL0     C16815   8.420   1.747   6.422 -0.6678  1.0709  0.0187
  866MOL0     C16816   8.430   1.895   6.375  0.0796  0.6037  0.2798
  866MOL0     C16817   8.295   1.959   6.335  0.4056  0.1155  0.4226
  866MOL0     C16818   8.181   1.930   6.433 -0.0824  0.1682 -0.3212
  866MOL0    Cl16819   8.046   2.040   6.397 -0.0628  0.1630 -0.7483
  866MOL0     C16820   9.201   1.671   6.487 -0.4179  0.0221 -0.0115
  866MOL0     C16821   9.331   1.637   6.515 -0.4323  1.0823 -0.0570
  866MOL0     O16822   9.693   1.743   6.318  0.0412  0.5882  1.0778
  866MOL0     C16823   9.916   1.563   6.394  0.2761 -0.9901  0.1186
  866MOL0     C16824  10.012   1.462   6.395  0.4696  0.3465 -0.0717
  866MOL0     N16825   9.820   0.637   6.258  0.5603 -1.5680  0.4775
  866MOL0     N16826   9.752   0.574   6.171  0.6106  0.2028 -0.1763
  866MOL0     C16827   8.730   0.336   6.587  0.6768  0.5124  0.8108
  866MOL0     C16828   8.589   0.324   6.611  0.0285  0.1857 -0.1261
  866MOL0     C16829   8.148   0.292   6.609 -0.1585  0.5363 -0.6848
  866MOL0     C16830   8.088   0.380   6.516  0.4845  0.3375 -0.6165
  866MOL0     C16831   7.955   0.364   6.488 -0.5240  0.1078  0.3756
  866MOL0     C16832   7.875   0.286   6.571  0.0916 -0.1249  0.5644
  866MOL0     O16833   7.739   0.293   6.556  0.0929 -0.8676  0.2263
  866MOL0     C16834   7.693   0.169   6.498  0.4223 -0.0967  0.1171
  866MOL0     C16835   7.549   0.174   6.460 -0.6113 -0.1005  0.7958
  866MOL0     C16836   7.534   0.249   6.322  0.7595  0.5161  0.3739
  866MOL0     C16837   7.389   0.258   6.270  0.3151  0.6124 -0.5249
  866MOL0     C16838   7.298   0.313   6.373 -0.4864  0.9257 -0.4842
  866MOL0     C16839   7.215   0.342   6.459  0.0345  0.2071 -1.2744
  866MOL0     C16840   7.939   0.207   6.665 -0.1089 -0.1316 -0.4621
  866MOL0     C16841   8.072   0.206   6.685 -0.0476 -0.4469 -0.3426
  866MOL0     C16842   8.127   0.105   6.788  0.0340 -0.5324  0.0172
  866MOL0     H16843   8.489   0.536   6.359  1.9875  2.2821 -0.0603
  866MOL0     H16844   8.718   0.556   6.325 -1.7850  3.2339  1.1834
  866MOL0     H16845   9.011   0.263   6.520  0.2969  4.0374  0.7178
  866MOL0     H16846   8.930   0.227   6.364  0.0559 -0.8144  0.6733
  866MOL0     H16847   9.182   0.256   6.366 -1.5205 -0.7219 -0.3485
  866MOL0     H16848   9.167   0.421   6.404  1.8912  0.1134 -1.0975
  866MOL0     H16849   9.105   0.501   6.210  2.9523 -0.2989  1.6230
  866MOL0     H16850   9.032   0.349   6.154 -0.3557 -0.5556 -0.2817
  866MOL0     H16851   9.220   0.240   6.118  1.7325 -0.9922  0.2357
  866MOL0     H16852   9.232   0.400   6.035 -1.7244  1.8740  1.2182
  866MOL0     H16853   9.383   0.333   6.289  1.6783  0.5388  0.0753
  866MOL0     H16854   9.453   0.352   6.142  1.2379 -2.4165  3.7364
  866MOL0     H16855   9.294   0.593   6.269  1.7103  3.1560  1.5373
  866MOL0     H16856   9.452   0.569   6.300 -0.5308  0.9854  0.1879
  866MOL0     H16857   9.389   0.740   6.104 -0.9606 -0.4195 -1.6545
  866MOL0     H16858   9.332   0.601   6.021  0.1178 -0.1960 -0.0586
  866MOL0     H16859   9.567   0.503   6.015 -1.7139  0.3564 -0.3893
  866MOL0     H16860   9.551   0.664   5.935  0.6738 -0.5408 -0.6157
  866MOL0     H16861   9.638   0.872   6.113 -1.4139 -1.4346  1.3724
  866MOL0     H16862   9.820   0.978   6.266  0.2373 -0.3734 -1.3536
  866MOL0     H16863   9.825   0.893   6.425  3.5529 -0.3617  1.1970
  866MOL0     H16864  10.054   0.823   6.366 -1.7906 -2.2709 -1.9321
  866MOL0     H16865  10.024   0.868   6.204  1.7102  1.3994 -0.3497
  866MOL0     H16866   9.994   1.103   6.250 -1.6460  2.7088  2.2330
  866MOL0     H16867  10.159   1.040   6.295 -0.3210  0.3888  0.0256
  866MOL0     H16868  10.119   1.049   6.511 -1.8052 -0.0505  2.1915
  866MOL0     H16869   9.947   1.066   6.493  0.3089  1.6326  0.6330
  866MOL0     H16870   9.796   1.203   6.472 -3.5264  0.1849 -0.2738
  866MOL0     H16871   9.645   1.374   6.454 -0.3309  0.2318  0.2789
  866MOL0     H16872   9.453   1.699   6.207  0.0472 -1.3939  0.6012
  866MOL0     H16873   9.226   1.765   6.168  2.1830  2.7456 -0.2896
  866MOL0     H16874   8.923   1.609   6.455 -0.2703 -0.0165  1.4643
  866MOL0     H16875   8.918   1.783   6.504  2.0932 -0.8433  0.0711
  866MOL0     H16876   8.773   1.806   6.287 -1.8732 -1.1016 -1.3115
  866MOL0     H16877   8.778   1.628   6.293 -1.8649 -2.2245  3.0699
  866MOL0     H16878   8.711   1.652   6.544 -0.3592  1.0166  1.3951
  866MOL0     H16879   8.667   1.817   6.503  0.1970 -0.0437 -0.7349
  866MOL0     H16880   8.539   1.549   6.442 -1.2521  0.6855  0.7259
  866MOL0     H16881   8.567   1.650   6.299  1.9584  0.9537  0.0086
  866MOL0     H16882   8.375   1.746   6.522 -3.2269  0.2780 -1.0695
  866MOL0     H16883   8.347   1.692   6.362 -0.0353  1.7256 -1.3869
  866MOL0     H16884   8.476   1.944   6.462 -0.2266 -0.2180  0.9214
  866MOL0     H16885   8.505   1.890   6.296  0.1016  2.3611  0.1410
  866MOL0     H16886   8.263   1.926   6.236  1.7271  1.6469 -0.5650
  866MOL0     H16887   8.310   2.067   6.327 -1.4146  0.2938 -1.8295
  866MOL0     H16888   8.163   1.823   6.418 -1.0904  0.2021  0.5624
  866MOL0     H16889   8.211   1.962   6.533 -1.8687  3.5293 -0.7241
  866MOL0     H16890   9.118   1.653   6.556  0.9023 -2.5901  1.0383
  866MOL0     H16891   9.358   1.590   6.608 -0.7779 -2.3687 -1.5595
  866MOL0     H16892   9.927   1.671   6.385 -0.5590 -0.6991  2.0703
  866MOL0     H16893  10.118   1.484   6.387  0.6380 -0.4258 -0.0524
  866MOL0     H16894   8.811   0.290   6.643  2.9037  1.2645 -1.5871
  866MOL0     H16895   8.559   0.264   6.696 -1.1957  1.2973  0.2745
  866MOL0     H16896   8.145   0.445   6.451  1.1038 -2.2150 -2.8016
  866MOL0     H16897   7.920   0.425   6.405  2.0720 -0.1093 -0.9911
  866MOL0     H16898   7.722   0.100   6.577  0.8773 -2.4136 -1.9371
  866MOL0     H16899   7.759   0.142   6.415  0.1431 -1.0973  0.2125
  866MOL0     H16900   7.483   0.219   6.535 -1.0858  1.2198 -0.3784
  866MOL0     H16901   7.520   0.069   6.446  0.4619 -0.0648 -2.5423
  866MOL0     H16902   7.585   0.182   6.252 -1.8701 -0.7472 -0.4408
  866MOL0     H16903   7.564   0.354   6.324 -2.7169  1.6334  1.0859
  866MOL0     H16904   7.393   0.334   6.192  0.0291 -0.1988 -1.3530
  866MOL0     H16905   7.356   0.160   6.233  1.6998 -0.0058 -0.2049
  866MOL0     H16906   7.144   0.363   6.536  1.9381 -0.3704  0.7401
  866MOL0     H16907   7.884   0.146   6.735  1.5351  0.2928  1.2783
  866MOL0     H16908   8.061   0.018   6.792 -2.3670  1.2221  1.2040
  866MOL0     H16909   8.222   0.060   6.760  1.3220 -0.0056  3.0674
  866MOL0     H16910   8.153   0.149   6.885  1.4419  0.3709 -0.7410
  867MOL0     O16911   8.179   4.134   5.434 -0.1501 -0.3484 -0.6559
  867MOL0     C16912   8.187   4.018   5.464 -0.2398 -0.3357  0.3781
  867MOL0     O16913   8.266   3.930   5.400 -0.6817  0.5415  0.2079
  867MOL0     C16914   8.358   3.978   5.313 -0.6181  0.2285  0.4206
  867MOL0     C16915   8.311   4.038   5.193  0.5456  0.0461 -0.2462
  867MOL0     C16916   8.400   4.075   5.100  0.4753 -0.4590  0.5016
  867MOL0     C16917   8.538   4.056   5.115  0.1754 -0.2442  0.6555
  867MOL0     O16918   8.634   4.098   5.028  0.3021 -0.1982  0.3252
  867MOL0     C16919   8.595   4.158   4.897  0.4009  0.5318 -0.7997
  867MOL0     C16920   8.720   4.221   4.828  0.3638  0.2490  0.2960
  867MOL0     C16921   8.791   4.329   4.905 -0.5478 -0.1749  0.2440
  867MOL0     C16922   8.729   4.467   4.928  0.0493  0.5678  0.1074
  867MOL0     C16923   8.821   4.571   5.002 -0.1561  1.4132  0.3735
  867MOL0     C16924   8.960   4.581   4.926  0.7521 -0.0044  0.3828
  867MOL0     C16925   8.952   4.629   4.774 -0.1615  0.5660 -0.2300
  867MOL0     C16926   9.086   4.629   4.703 -0.8573  0.2130  0.2455
  867MOL0     N16927   9.067   4.691   4.574  0.3083 -0.1093 -0.7237
  867MOL0     C16928   8.968   4.645   4.490 -0.6819  0.1700  0.3129
  867MOL0     C16929   9.005   4.700   4.366  0.3352 -0.5234 -0.2607
  867MOL0     C16930   8.916   4.686   4.248  0.1775 -0.1090 -0.7619
  867MOL0     C16931   8.859   4.821   4.202  0.2823  0.1408  0.0859
  867MOL0     C16932   8.820   4.828   4.052  0.8006 -0.2802  0.5649
  867MOL0     C16933   8.924   4.831   3.944 -0.3015 -0.5903 -0.3237
  867MOL0     O16934   8.995   4.952   3.956 -0.4188  0.2190 -0.7577
  867MOL0     C16935   9.120   4.960   4.009 -0.0820 -0.2853  0.5915
  867MOL0     C16936   9.184   4.853   4.075  0.3271 -0.1576  0.1453
  867MOL0     C16937   9.293   4.875   4.160 -0.1932  1.0114  0.4485
  867MOL0     C16938   9.347   5.004   4.178 -0.1331 -0.5589  0.1323
  867MOL0     C16939   9.458   5.025   4.279 -0.5915  0.5138  0.6295
  867MOL0     O16940   9.512   4.919   4.346  0.3996  0.3936 -0.5555
  867MOL0     C16941   9.647   4.938   4.370 -1.0602 -0.1707  0.7706
  867MOL0     C16942   9.682   4.988   4.498  0.1492 -0.4035 -0.2416
  867MOL0     C16943   9.811   5.031   4.527  0.1490  1.2618 -0.2997
  867MOL0     C16944   9.913   5.016   4.438 -0.0972 -0.5345 -0.1741
  867MOL0     O16945  10.046   5.059   4.455  0.3021 -1.0010  0.2403
  867MOL0     C16946  10.118   5.033   4.574  0.1306 -0.3352  0.8292
  867MOL0     C16947  10.269   5.008   4.544 -0.3752 -0.7612  0.1214
  867MOL0     C16948  10.345   5.139   4.526 -0.2087  0.0170 -0.4607
  867MOL0     C16949  10.487   5.121   4.460  0.2254  0.3901  0.0700
  867MOL0     C16950  10.544   5.259   4.452 -0.3969  0.6917 -0.0106
  867MOL0     C16951  10.687   5.264   4.401  0.7164 -0.1862  0.5510
  867MOL0     C16952  10.734   5.408   4.400  0.5378  0.9949 -0.0600
  867MOL0     C16953  10.806   5.443   4.531  0.1724 -0.3299  0.1626
  867MOL0    Cl16954  10.885   5.601   4.509  0.0702 -0.2208 -0.1000
  867MOL0     C16955   9.878   4.956   4.315 -0.5076  0.4965  0.0441
  867MOL0     C16956   9.750   4.920   4.279  0.0757 -0.0492  0.0485
  867MOL0     O16957   9.484   5.142   4.299 -0.5657  0.7043  0.8101
  867MOL0     C16958   9.286   5.118   4.106  0.6679  0.0411  0.4816
  867MOL0     C16959   9.172   5.092   4.025  0.3481  0.0447 -0.8635
  867MOL0     N16960   9.126   4.765   4.381 -0.1458 -0.7876  0.1220
  867MOL0     N16961   9.157   4.759   4.505  0.2107  0.8310 -0.4579
  867MOL0     C16962   8.578   3.993   5.234  0.3229  0.4136  0.1733
  867MOL0     C16963   8.490   3.942   5.330  0.7940 -0.9228 -0.7290
  867MOL0     C16964   8.100   3.968   5.574 -0.2602  0.3156  0.2147
  867MOL0     C16965   8.018   4.063   5.646 -1.1472  0.0418 -0.4686
  867MOL0     C16966   7.934   4.020   5.749 -0.8397  0.3563  0.4456
  867MOL0     C16967   7.921   3.880   5.778  0.1531 -0.4368  0.4494
  867MOL0     O16968   7.841   3.818   5.867  0.5627  0.1168  0.1064
  867MOL0     C16969   7.734   3.890   5.931  0.5536  0.1840 -0.3582
  867MOL0     C16970   7.780   3.915   6.077 -0.0384  0.2765  0.4336
  867MOL0     C16971   7.658   3.961   6.149  0.1874 -0.9903  0.2714
  867MOL0     C16972   7.676   3.969   6.304 -0.3674  0.4562  0.1585
  867MOL0     C16973   7.650   3.840   6.365  0.2816 -0.2311  0.4166
  867MOL0     C16974   7.642   3.726   6.394  1.1564  0.1822  1.0428
  867MOL0     C16975   7.995   3.793   5.699  0.3475 -0.1942 -0.5905
  867MOL0     C16976   8.073   3.831   5.593 -0.0669 -0.0076  0.2863
  867MOL0     C16977   8.128   3.720   5.508 -0.5423  0.7490 -0.3661
  867MOL0     H16978   8.206   4.065   5.183  0.8983  1.3124 -0.6985
  867MOL0     H16979   8.349   4.118   5.015  1.4320 -0.8472 -0.2931
  867MOL0     H16980   8.562   4.078   4.830 -0.7823 -0.4341  0.8585
  867MOL0     H16981   8.514   4.231   4.902  0.7397  0.7897  1.6685
  867MOL0     H16982   8.691   4.254   4.728 -0.1881  1.5227  0.8534
  867MOL0     H16983   8.792   4.140   4.812  0.3335 -0.3519  2.7985
  867MOL0     H16984   8.882   4.328   4.845  1.4185 -1.8107  3.0246
  867MOL0     H16985   8.807   4.299   5.009 -2.8513 -2.0446  0.1646
  867MOL0     H16986   8.695   4.498   4.829 -3.3198 -0.4606  0.8237
  867MOL0     H16987   8.638   4.455   4.988 -0.6796  4.0785 -0.0872
  867MOL0     H16988   8.766   4.665   5.004 -1.1553  1.0380 -2.8736
  867MOL0     H16989   8.828   4.537   5.106 -1.1196  3.1648  1.0630
  867MOL0     H16990   9.022   4.657   4.974  0.8195  0.8637 -1.0300
  867MOL0     H16991   9.024   4.492   4.932  0.9244  0.1699  1.5559
  867MOL0     H16992   8.907   4.728   4.762 -0.3281  0.6673  1.1198
  867MOL0     H16993   8.888   4.555   4.724  0.6369 -1.2063  1.2260
  867MOL0     H16994   9.164   4.679   4.761 -1.4117  0.2109  1.0013
  867MOL0     H16995   9.122   4.527   4.684 -1.0085  0.0774  0.6577
  867MOL0     H16996   8.878   4.587   4.509 -0.1833 -1.4128 -1.7945
  867MOL0     H16997   8.966   4.641   4.162  1.2779  0.3409 -0.3820
  867MOL0     H16998   8.827   4.628   4.274 -1.0268  1.7236 -0.6270
  867MOL0     H16999   8.772   4.845   4.265  2.7731  0.7378  3.6017
  867MOL0     H17000   8.929   4.901   4.225 -1.4782  1.4063  1.3909
  867MOL0     H17001   8.765   4.921   4.041  1.9705  0.8203  3.0884
  867MOL0     H17002   8.752   4.747   4.023  1.4429 -0.9415  0.8430
  867MOL0     H17003   8.887   4.821   3.841  0.8611 -0.9441 -0.7193
  867MOL0     H17004   8.994   4.748   3.959 -0.2597 -0.4220  0.4684
  867MOL0     H17005   9.148   4.751   4.073  1.7792 -0.7798  1.9976
  867MOL0     H17006   9.329   4.785   4.210 -2.6129 -0.8807 -1.0225
  867MOL0     H17007   9.603   4.995   4.572 -1.2236  3.4062 -1.8027
  867MOL0     H17008   9.839   5.068   4.625 -0.0993  0.3941  0.1044
  867MOL0     H17009  10.110   5.121   4.638 -0.8180 -0.2924  0.6583
  867MOL0     H17010  10.068   4.948   4.622  0.1962  0.3886  2.2339
  867MOL0     H17011  10.322   4.957   4.624  1.4745  1.4705  0.4391
  867MOL0     H17012  10.266   4.944   4.455 -1.8253  1.1480 -1.3052
  867MOL0     H17013  10.284   5.210   4.469 -0.9008  0.9215  1.3280
  867MOL0     H17014  10.356   5.195   4.619  0.7765  1.2396 -1.2875
  867MOL0     H17015  10.487   5.082   4.357  2.2900  0.1031  0.1376
  867MOL0     H17016  10.557   5.059   4.517 -0.1769  0.5615  0.7683
  867MOL0     H17017  10.542   5.309   4.549  2.7399 -2.1982  1.7364
  867MOL0     H17018  10.481   5.315   4.382  0.6480  1.1882 -0.5645
  867MOL0     H17019  10.752   5.202   4.463  0.4383  1.3625  2.4948
  867MOL0     H17020  10.691   5.212   4.305  2.4681 -0.4851  0.7636
  867MOL0     H17021  10.657   5.484   4.386 -0.3487  0.0344 -0.5244
  867MOL0     H17022  10.798   5.429   4.313  2.8977 -0.5493  1.1835
  867MOL0     H17023  10.742   5.444   4.620  2.1548 -0.4586  1.6754
  867MOL0     H17024  10.881   5.367   4.553 -0.3489 -0.8643  0.1192
  867MOL0     H17025   9.963   4.939   4.249 -2.5157  1.3322 -2.9605
  867MOL0     H17026   9.724   4.876   4.183  0.9505  2.2061 -1.3183
  867MOL0     H17027   9.309   5.223   4.120 -0.9477  0.1499  2.8192
  867MOL0     H17028   9.117   5.167   3.969 -0.1231  0.2532 -0.1192
  867MOL0     H17029   8.686   3.979   5.233  0.9298  4.1504 -0.1420
  867MOL0     H17030   8.534   3.901   5.421 -0.2568  1.0407  0.7240
  867MOL0     H17031   8.018   4.170   5.627 -2.3722  0.3732  1.1767
  867MOL0     H17032   7.886   4.093   5.813 -0.3510  0.8016  0.3119
  867MOL0     H17033   7.645   3.827   5.940 -0.0177  1.1500  1.0154
  867MOL0     H17034   7.699   3.976   5.873 -0.9650 -0.6718 -0.7804
  867MOL0     H17035   7.863   3.986   6.074 -1.7181  2.3712  0.8223
  867MOL0     H17036   7.804   3.820   6.125  0.9654  0.1800 -0.2475
  867MOL0     H17037   7.574   3.893   6.129  0.9739 -1.3782 -1.9684
  867MOL0     H17038   7.630   4.061   6.117 -1.4698 -1.9682 -1.5412
  867MOL0     H17039   7.775   4.006   6.332 -0.5605  1.1230 -0.0134
  867MOL0     H17040   7.608   4.043   6.347 -0.8777  0.8876 -1.3116
  867MOL0     H17041   7.629   3.625   6.428 -1.9413  0.2946  0.5304
  867MOL0     H17042   7.979   3.688   5.723  0.2210  0.0574  0.5055
  867MOL0     H17043   8.225   3.681   5.538 -2.2451 -2.7662  1.1909
  867MOL0     H17044   8.065   3.631   5.524  1.6745 -1.3683 -2.5751
  867MOL0     H17045   8.115   3.745   5.402 -0.0781 -0.1477 -0.6447
  868MOL0     O17046   7.965   8.204   3.451 -0.1015  0.3201  0.0081
  868MOL0     C17047   7.979   8.264   3.553  0.7464 -0.1832 -1.0698
  868MOL0     O17048   8.074   8.359   3.586 -0.0543  0.1308  0.6296
  868MOL0     C17049   8.200   8.361   3.534  0.3725  0.2774  0.0718
  868MOL0     C17050   8.254   8.269   3.433 -0.1288 -0.4029  0.0324
  868MOL0     C17051   8.381   8.279   3.369  0.0535 -0.2846 -0.2684
  868MOL0     C17052   8.464   8.382   3.418 -0.1527  0.3763  0.3234
  868MOL0     O17053   8.601   8.373   3.394  0.2301  0.0889  0.2468
  868MOL0     C17054   8.650   8.291   3.284  0.1780  0.0478  0.9466
  868MOL0     C17055   8.804   8.305   3.267 -0.8054  0.5924  0.2844
  868MOL0     C17056   8.860   8.443   3.239 -1.0630 -0.5071 -0.1537
  868MOL0     C17057   8.762   8.527   3.159  1.1120 -0.3827  0.9270
  868MOL0     C17058   8.822   8.656   3.103  0.0307  0.4390  0.2771
  868MOL0     C17059   8.721   8.745   3.025  0.6985  0.0961 -0.0241
  868MOL0     C17060   8.770   8.877   2.980 -1.1362 -0.5172 -0.4108
  868MOL0     C17061   8.700   8.944   2.853  0.6773  0.0465  0.3279
  868MOL0     N17062   8.768   9.066   2.826 -0.8298 -0.5811 -0.5875
  868MOL0     C17063   8.872   9.082   2.730  0.3031 -0.1227  0.2684
  868MOL0     C17064   8.900   9.222   2.738 -0.0258  0.1910 -0.7864
  868MOL0     C17065   8.993   9.302   2.654  0.4553  0.8074 -0.0705
  868MOL0     C17066   9.138   9.267   2.680  0.0299 -0.0322 -1.0088
  868MOL0     C17067   9.217   9.375   2.741  0.5254  0.4789  0.4569
  868MOL0     C17068   9.289   9.468   2.634  0.4454  0.1571  0.1626
  868MOL0     O17069   9.352   9.581   2.703 -0.2292 -0.0689  0.1281
  868MOL0     C17070   9.480   9.566   2.745  0.1519 -0.2140  0.2383
  868MOL0     C17071   9.545   9.685   2.777 -0.0272 -0.0487  1.0351
  868MOL0     C17072   9.683   9.683   2.806  0.1843 -0.3105 -0.0865
  868MOL0     C17073   9.757   9.568   2.822  0.1081  0.3178 -0.1004
  868MOL0     C17074   9.906   9.567   2.857 -0.0744  0.3426 -0.1174
  868MOL0     O17075   9.964   9.446   2.849  0.1141  0.3992  0.1721
  868MOL0     C17076  10.095   9.445   2.872 -0.2122 -0.2790 -0.1803
  868MOL0     C17077  10.182   9.466   2.759  0.2944 -0.2287  0.4718
  868MOL0     C17078  10.319   9.470   2.784 -0.1353  0.1281 -0.3052
  868MOL0     C17079  10.377   9.461   2.913  0.6808 -0.2766  0.4939
  868MOL0     O17080  10.508   9.482   2.932  0.0922 -1.0614 -0.3628
  868MOL0     C17081  10.599   9.379   2.881 -0.0174 -0.2498 -0.7594
  868MOL0     C17082  10.733   9.390   2.944  0.1972 -0.3137  0.4457
  868MOL0     C17083  10.820   9.264   2.972  0.0201  0.5564 -0.9515
  868MOL0     C17084  10.948   9.288   3.049  0.7393  0.2122  0.1762
  868MOL0     C17085  11.046   9.167   3.035  0.8219 -0.7247 -0.3243
  868MOL0     C17086  11.167   9.178   3.128  0.1444  0.3900 -0.1354
  868MOL0     C17087  11.262   9.303   3.097  0.3747  0.4440 -0.1805
  868MOL0     C17088  11.344   9.265   2.977  0.7417  0.5334  0.1447
  868MOL0    Cl17089  11.453   9.397   2.941  0.0259 -0.1575  0.0673
  868MOL0     C17090  10.290   9.442   3.020  0.1934 -0.5901  0.0515
  868MOL0     C17091  10.151   9.428   3.006  0.3972 -0.8127  0.5688
  868MOL0     O17092   9.955   9.664   2.911 -0.4714 -0.1328  0.6092
  868MOL0     C17093   9.685   9.445   2.808 -0.1863  0.1196 -0.6982
  868MOL0     C17094   9.555   9.451   2.755  0.0558  0.2886 -0.0419
  868MOL0     N17095   8.823   9.275   2.837  0.0520  0.4014 -0.1678
  868MOL0     N17096   8.754   9.184   2.896 -0.2225 -0.2725  0.1741
  868MOL0     C17097   8.416   8.479   3.505 -0.0716 -0.0453 -0.2025
  868MOL0     C17098   8.285   8.468   3.563 -0.0166 -0.2196  0.7338
  868MOL0     C17099   7.859   8.258   3.644  0.2664 -0.1498  0.3340
  868MOL0     C17100   7.835   8.370   3.727 -0.5994  0.6365 -0.0845
  868MOL0     C17101   7.724   8.390   3.805  0.0832  0.0391 -0.4002
  868MOL0     C17102   7.630   8.286   3.813 -0.0414 -0.4451 -0.2740
  868MOL0     O17103   7.518   8.283   3.892  0.1391  0.1601 -0.0841
  868MOL0     C17104   7.493   8.392   3.977 -0.8246  0.2408 -1.0125
  868MOL0     C17105   7.365   8.377   4.064  0.6494  0.6625  1.0503
  868MOL0     C17106   7.242   8.347   3.976  0.6138 -0.3161 -0.1546
  868MOL0     C17107   7.111   8.347   4.069 -0.2974 -0.2038  0.2218
  868MOL0     C17108   7.001   8.293   3.994  0.1251  0.1553  0.3865
  868MOL0     C17109   6.907   8.237   3.934 -0.5860  0.5642  0.1216
  868MOL0     C17110   7.647   8.171   3.733  0.0192  0.3476 -0.4272
  868MOL0     C17111   7.756   8.158   3.642 -0.4009 -0.5701 -0.0190
  868MOL0     C17112   7.741   8.036   3.547  0.8064 -0.2368  0.0690
  868MOL0     H17113   8.184   8.194   3.398  0.7216 -0.8816 -0.6859
  868MOL0     H17114   8.401   8.205   3.293  0.3814  0.3027 -0.7640
  868MOL0     H17115   8.628   8.186   3.307  1.4484 -0.4749 -0.1459
  868MOL0     H17116   8.594   8.318   3.194  2.7912  0.3868 -0.6678
  868MOL0     H17117   8.836   8.226   3.199 -1.1691  0.0133  0.7728
  868MOL0     H17118   8.846   8.269   3.361  2.6405  0.2270 -1.2673
  868MOL0     H17119   8.946   8.421   3.175 -0.4737 -0.1754  0.5072
  868MOL0     H17120   8.887   8.509   3.321 -0.8549  0.7446 -1.2074
  868MOL0     H17121   8.718   8.477   3.072  1.3264  0.5633  0.2568
  868MOL0     H17122   8.685   8.565   3.227  0.2884  3.6520 -1.9028
  868MOL0     H17123   8.882   8.699   3.184  1.2985 -0.5119 -0.1119
  868MOL0     H17124   8.904   8.637   3.033 -0.6916  3.2299 -1.4700
  868MOL0     H17125   8.685   8.688   2.940 -0.5198  4.4031 -2.7127
  868MOL0     H17126   8.638   8.772   3.091  2.0663 -0.0376  1.8263
  868MOL0     H17127   8.879   8.877   2.969 -0.8088 -4.3651  1.4132
  868MOL0     H17128   8.753   8.946   3.063 -1.4775 -2.7947  1.5078
  868MOL0     H17129   8.700   8.885   2.762 -3.1845 -1.3060  1.0368
  868MOL0     H17130   8.597   8.968   2.882 -0.1896 -0.1383 -2.3858
  868MOL0     H17131   8.914   9.004   2.667  0.7638 -0.3512  0.8509
  868MOL0     H17132   8.975   9.274   2.550 -1.1164  1.4507 -0.0023
  868MOL0     H17133   8.974   9.409   2.668  1.7359  1.1265 -0.5973
  868MOL0     H17134   9.147   9.183   2.749 -1.0291  0.9328  0.3597
  868MOL0     H17135   9.178   9.235   2.584  1.9980 -2.4837  0.5082
  868MOL0     H17136   9.298   9.330   2.798  0.1565 -0.8135 -0.0146
  868MOL0     H17137   9.149   9.440   2.798 -1.2197  0.8867 -1.9155
  868MOL0     H17138   9.222   9.507   2.557  1.5741  1.7516 -0.0555
  868MOL0     H17139   9.353   9.408   2.569  2.4234  0.5989  1.6195
  868MOL0     H17140   9.512   9.786   2.754  4.0958  1.7429  2.0823
  868MOL0     H17141   9.750   9.767   2.815 -2.1038  1.5539  0.3640
  868MOL0     H17142  10.145   9.491   2.660  2.1861  3.0234  0.4129
  868MOL0     H17143  10.381   9.498   2.700 -0.5363 -0.7901 -0.9341
  868MOL0     H17144  10.551   9.281   2.885 -2.3428  0.8312 -0.7379
  868MOL0     H17145  10.608   9.389   2.773 -0.4598  1.7163 -0.6518
  868MOL0     H17146  10.793   9.452   2.876  0.3220 -0.1748  0.6827
  868MOL0     H17147  10.725   9.444   3.039 -0.3075 -1.4475  1.0647
  868MOL0     H17148  10.760   9.182   3.013 -1.0640  1.4397 -0.7292
  868MOL0     H17149  10.857   9.225   2.877  0.6798 -3.7296  0.8372
  868MOL0     H17150  10.927   9.302   3.156 -0.1093  0.9155 -0.0642
  868MOL0     H17151  10.999   9.373   3.003 -1.4039 -0.3417 -3.5476
  868MOL0     H17152  11.077   9.145   2.932 -1.8484  1.5419 -1.7369
  868MOL0     H17153  10.988   9.080   3.066  1.6476 -1.0156  0.4675
  868MOL0     H17154  11.140   9.177   3.234  2.1465 -0.8987  0.4155
  868MOL0     H17155  11.220   9.083   3.113 -0.0936 -0.0851  1.7347
  868MOL0     H17156  11.321   9.339   3.182  1.3290  2.4057 -1.5982
  868MOL0     H17157  11.203   9.390   3.068  1.0044  0.7969 -0.4282
  868MOL0     H17158  11.413   9.184   3.003  2.2818  1.7104 -0.1001
  868MOL0     H17159  11.287   9.233   2.890 -1.5725  2.2361  0.9308
  868MOL0     H17160  10.344   9.429   3.112 -0.8309  1.7716  1.0785
  868MOL0     H17161  10.078   9.419   3.086  2.0548  2.3765  2.6182
  868MOL0     H17162   9.735   9.352   2.835  1.2898  1.6095  2.1116
  868MOL0     H17163   9.507   9.357   2.732 -0.6185  0.2588  1.3401
  868MOL0     H17164   8.477   8.561   3.542 -2.4003  0.2365  3.5405
  868MOL0     H17165   8.250   8.547   3.628 -0.9596 -0.9571  1.1599
  868MOL0     H17166   7.905   8.453   3.733  0.3684  0.0220 -2.0317
  868MOL0     H17167   7.722   8.479   3.868  1.4456  0.8258 -1.4197
  868MOL0     H17168   7.498   8.480   3.912  0.0075  0.1665 -1.0621
  868MOL0     H17169   7.570   8.408   4.054  0.0406  0.0040 -1.8161
  868MOL0     H17170   7.343   8.470   4.118 -2.6289  0.7902 -0.2330
  868MOL0     H17171   7.389   8.296   4.134  0.9978 -0.0785  0.0878
  868MOL0     H17172   7.235   8.243   3.942 -0.7234  0.0333 -1.0240
  868MOL0     H17173   7.237   8.414   3.891  0.2501  0.9465  0.8327
  868MOL0     H17174   7.129   8.279   4.152  1.9013 -1.5243 -1.2195
  868MOL0     H17175   7.072   8.440   4.111 -0.5571 -0.2406  0.0661
  868MOL0     H17176   6.821   8.204   3.880 -1.9650  6.8108 -2.3988
  868MOL0     H17177   7.566   8.099   3.733 -1.8977  2.3630  0.3219
  868MOL0     H17178   7.841   8.005   3.516  0.7905 -1.1352  0.9051
  868MOL0     H17179   7.689   7.952   3.594  0.4329 -0.3120 -0.4679
  868MOL0     H17180   7.684   8.067   3.459  3.6063  0.6940 -1.5509
  869MOL0     O17181   0.880  10.495   3.723  0.1852 -0.5983  0.0270
  869MOL0     C17182   0.905  10.601   3.779  0.3818 -0.2942 -0.1010
  869MOL0     O17183   1.027  10.641   3.824 -0.0483  0.0861 -0.2027
  869MOL0     C17184   1.127  10.540   3.827  0.2017  0.3289  0.5005
  869MOL0     C17185   1.104  10.396   3.839  0.8061 -0.4820  0.5530
  869MOL0     C17186   1.211  10.311   3.851 -0.7324  0.0624 -1.3793
  869MOL0     C17187   1.343  10.352   3.838 -0.1056  0.0214  0.3383
  869MOL0     O17188   1.442  10.255   3.857 -0.2570  0.5026  0.0421
  869MOL0     C17189   1.580  10.287   3.873 -0.5564 -0.1880 -0.0573
  869MOL0     C17190   1.666  10.166   3.899  0.0845 -0.0371  0.5632
  869MOL0     C17191   1.665  10.131   4.052 -0.0422  0.1164 -0.6452
  869MOL0     C17192   1.764  10.013   4.099 -0.1804  0.1292 -0.9118
  869MOL0     C17193   1.920  10.038   4.080 -0.5693 -0.3415 -0.3198
  869MOL0     C17194   2.004   9.918   4.127 -0.0826  0.1801  0.4038
  869MOL0     C17195   2.002   9.886   4.279  0.4139 -0.1447 -0.3802
  869MOL0     C17196   2.085   9.763   4.311  0.4134  0.5254  0.3328
  869MOL0     N17197   2.229   9.784   4.297  0.0007 -0.1290 -0.4682
  869MOL0     C17198   2.303   9.886   4.356 -0.3936 -0.4353  0.1270
  869MOL0     C17199   2.431   9.850   4.328 -0.2849 -0.5825  0.2637
  869MOL0     C17200   2.556   9.919   4.369 -0.0149  0.3912  0.3301
  869MOL0     C17201   2.661   9.915   4.255  0.3812  0.0980 -0.2000
  869MOL0     C17202   2.785   9.981   4.306 -0.5911  1.0610 -0.9254
  869MOL0     C17203   2.917   9.976   4.222  0.3046 -0.5395  0.0291
  869MOL0     O17204   3.031  10.034   4.290  0.2358 -0.0471 -0.1125
  869MOL0     C17205   3.149  10.045   4.224 -0.1282 -0.4509  0.3060
  869MOL0     C17206   3.233  10.143   4.263 -0.2074 -1.0487  0.0635
  869MOL0     C17207   3.359  10.151   4.207 -0.3718 -0.0279 -0.4928
  869MOL0     C17208   3.407  10.060   4.110 -0.2956  0.2170 -0.6815
  869MOL0     C17209   3.550  10.060   4.066 -0.1784  0.1967  0.4478
  869MOL0     O17210   3.634  10.132   4.136  0.1558  0.0168  0.1162
  869MOL0     C17211   3.762  10.143   4.093 -0.1252 -0.1147 -0.0517
  869MOL0     C17212   3.793  10.241   3.989 -0.4073  0.0181  0.2345
  869MOL0     C17213   3.919  10.250   3.939 -0.3732  0.2248 -0.2370
  869MOL0     C17214   4.021  10.167   3.996  0.3455  0.6534  0.2707
  869MOL0     O17215   4.152  10.161   3.963  0.0398 -0.6103  0.5611
  869MOL0     C17216   4.214  10.264   3.890 -0.7312  0.2160  0.0518
  869MOL0     C17217   4.225  10.401   3.965  0.0271  0.4670 -1.1272
  869MOL0     C17218   4.303  10.391   4.100  0.1358 -0.7468  0.1249
  869MOL0     C17219   4.278  10.510   4.197 -0.2638  0.4980  0.0039
  869MOL0     C17220   4.352  10.500   4.335 -0.1339  0.1436 -0.3869
  869MOL0     C17221   4.500  10.494   4.303 -0.7450  0.0132  0.3079
  869MOL0     C17222   4.581  10.529   4.430 -0.1722  0.2572 -0.2090
  869MOL0     C17223   4.735  10.493   4.419  0.1795 -0.1097 -1.0353
  869MOL0    Cl17224   4.804  10.551   4.269  0.0579  0.7695 -0.1043
  869MOL0     C17225   3.986  10.074   4.095 -0.5506  0.2643  0.0182
  869MOL0     C17226   3.857  10.054   4.142  0.1400 -0.2925  0.3750
  869MOL0     O17227   3.580   9.986   3.974 -0.0711 -0.2216 -0.1055
  869MOL0     C17228   3.307   9.968   4.061 -0.2917  0.0738  0.1698
  869MOL0     C17229   3.181   9.960   4.123 -0.5950  0.3781  0.3227
  869MOL0     N17230   2.425   9.729   4.265 -0.3093  0.7940  0.4057
  869MOL0     N17231   2.304   9.686   4.244 -0.5008 -1.0101 -0.7750
  869MOL0     C17232   1.360  10.484   3.811  0.2126 -0.7431 -0.0937
  869MOL0     C17233   1.262  10.580   3.818  0.2752 -0.3006 -0.6147
  869MOL0     C17234   0.778  10.673   3.810  0.3405 -0.8851 -0.6250
  869MOL0     C17235   0.660  10.641   3.735 -0.4112  0.6644  0.2206
  869MOL0     C17236   0.541  10.697   3.756  0.5299  0.0573 -0.1441
  869MOL0     C17237   0.528  10.807   3.853 -0.1454  1.3958  0.5806
  869MOL0     O17238   0.409  10.858   3.882 -0.0462  0.1032  0.0031
  869MOL0     C17239   0.319  10.894   3.780 -0.1572 -0.3098 -0.2655
  869MOL0     C17240   0.382  11.004   3.685 -0.1225  0.5798  0.6021
  869MOL0     C17241   0.259  11.075   3.611 -1.1108 -0.5305  0.5818
  869MOL0     C17242   0.294  11.173   3.503 -0.1001  0.3213  0.4413
  869MOL0     C17243   0.326  11.097   3.377  0.2365 -0.2848  0.7690
  869MOL0     C17244   0.337  11.035   3.267  0.7842 -0.6814 -0.6688
  869MOL0     C17245   0.640  10.839   3.923  0.2530  0.1112 -0.3682
  869MOL0     C17246   0.760  10.779   3.906 -0.3293 -0.3412 -0.3932
  869MOL0     C17247   0.877  10.843   3.978  1.0508 -0.0863 -0.1206
  869MOL0     H17248   1.004  10.356   3.846 -1.2928  4.1280  0.4572
  869MOL0     H17249   1.190  10.213   3.892  0.1282  0.7130  0.8147
  869MOL0     H17250   1.605  10.352   3.788  0.3030 -0.1067  0.2573
  869MOL0     H17251   1.593  10.353   3.958  0.8331 -2.4759  1.5985
  869MOL0     H17252   1.771  10.184   3.872  0.6259 -2.7230  0.5782
  869MOL0     H17253   1.634  10.087   3.830 -1.7682  1.9045 -0.9679
  869MOL0     H17254   1.565  10.101   4.085  1.7317 -1.5018  4.0340
  869MOL0     H17255   1.693  10.215   4.117  0.4994 -1.4330  1.2150
  869MOL0     H17256   1.751   9.987   4.204  1.0427 -0.0802 -0.8065
  869MOL0     H17257   1.733   9.922   4.047 -0.6726  0.7521 -1.7330
  869MOL0     H17258   1.941  10.055   3.974  0.3822  0.0627 -0.0839
  869MOL0     H17259   1.953  10.125   4.139  1.0905 -0.6835 -0.6934
  869MOL0     H17260   1.956   9.831   4.081 -1.3087  0.6979  0.6696
  869MOL0     H17261   2.109   9.935   4.099 -0.2493 -0.0954 -0.3965
  869MOL0     H17262   1.899   9.855   4.302 -0.8790  1.7690 -3.0130
  869MOL0     H17263   2.031   9.974   4.336 -2.5134  0.5754  0.1615
  869MOL0     H17264   2.080   9.725   4.414  0.0427 -1.5498 -0.4155
  869MOL0     H17265   2.062   9.671   4.257  1.5943  0.0311  0.6510
  869MOL0     H17266   2.271   9.969   4.418 -2.0187 -1.2684  0.4498
  869MOL0     H17267   2.540  10.026   4.387 -0.7118  0.9255 -2.8237
  869MOL0     H17268   2.601   9.864   4.452 -0.4548 -0.6646 -0.1184
  869MOL0     H17269   2.689   9.813   4.226  2.4867  1.4629 -3.6408
  869MOL0     H17270   2.631   9.956   4.158  2.9237  0.5281 -0.8873
  869MOL0     H17271   2.817   9.936   4.400  1.1984  1.1407 -1.4546
  869MOL0     H17272   2.767  10.084   4.336  0.9996  0.7285  1.4546
  869MOL0     H17273   2.911  10.022   4.123 -1.5418  0.8482  0.7258
  869MOL0     H17274   2.930   9.870   4.196 -0.1886 -0.6057  0.0453
  869MOL0     H17275   3.185  10.200   4.341  0.1011 -0.0807 -0.4325
  869MOL0     H17276   3.417  10.237   4.238 -1.0186 -0.4094  1.9341
  869MOL0     H17277   3.703  10.295   3.960 -2.7520 -2.3763  2.4830
  869MOL0     H17278   3.927  10.309   3.848 -0.6522  0.1891 -0.2850
  869MOL0     H17279   4.317  10.228   3.879 -1.3131 -1.3165 -0.7618
  869MOL0     H17280   4.181  10.274   3.786 -1.6627 -2.4218  0.0234
  869MOL0     H17281   4.288  10.466   3.904  2.3704 -1.0578 -0.4639
  869MOL0     H17282   4.118  10.421   3.978 -0.7969 -4.4000  2.6943
  869MOL0     H17283   4.278  10.300   4.156  1.4707 -1.3485 -0.2019
  869MOL0     H17284   4.406  10.366   4.073 -0.5031 -1.7848 -1.5171
  869MOL0     H17285   4.172  10.499   4.224 -0.4667  0.5677 -0.7277
  869MOL0     H17286   4.297  10.605   4.147 -1.1970  0.3252 -0.7061
  869MOL0     H17287   4.310  10.424   4.401  1.2419  1.0519  1.6153
  869MOL0     H17288   4.339  10.590   4.395  0.1842 -0.6876  0.9776
  869MOL0     H17289   4.541  10.401   4.262  2.3848  2.2727 -2.1371
  869MOL0     H17290   4.523  10.558   4.218 -2.8137  0.4090  0.0012
  869MOL0     H17291   4.528  10.483   4.514 -2.6518  0.6132 -1.4703
  869MOL0     H17292   4.576  10.638   4.441 -2.1146  0.2529 -0.6090
  869MOL0     H17293   4.788  10.541   4.502 -0.6133  1.0888 -1.1923
  869MOL0     H17294   4.741  10.385   4.435 -0.0947  0.3328  3.4382
  869MOL0     H17295   4.061  10.002   4.125  0.0220  0.6948 -0.3483
  869MOL0     H17296   3.837   9.981   4.220  3.6421 -1.6821  0.1456
  869MOL0     H17297   3.324   9.904   3.975 -0.3296 -2.4632  1.9342
  869MOL0     H17298   3.107   9.887   4.093 -0.6745  0.7653 -0.4679
  869MOL0     H17299   1.460  10.525   3.799 -0.2849  0.1490 -1.3802
  869MOL0     H17300   1.284  10.687   3.817 -3.0851  0.4982 -0.7920
  869MOL0     H17301   0.676  10.570   3.654  0.8545 -0.4808  1.4249
  869MOL0     H17302   0.463  10.656   3.694  0.9940 -1.0009 -0.0460
  869MOL0     H17303   0.234  10.942   3.829 -0.7466 -1.2816 -0.3031
  869MOL0     H17304   0.283  10.807   3.724 -3.2794  1.5190 -1.3617
  869MOL0     H17305   0.440  10.944   3.614 -1.1690 -0.6981  0.7967
  869MOL0     H17306   0.451  11.064   3.745  0.2733 -0.5116  1.2475
  869MOL0     H17307   0.199  11.127   3.687 -0.9427  1.2042 -0.4023
  869MOL0     H17308   0.201  10.991   3.573 -1.6124 -1.0512  2.4058
  869MOL0     H17309   0.214  11.245   3.485  0.4119  0.5662 -0.9760
  869MOL0     H17310   0.386  11.228   3.524  1.6389 -1.7816 -1.1214
  869MOL0     H17311   0.361  10.984   3.176  1.4890 -1.6761  0.0495
  869MOL0     H17312   0.631  10.923   3.992  0.5139 -0.7511  0.7504
  869MOL0     H17313   0.858  10.943   4.018  0.6987 -0.1313 -0.1751
  869MOL0     H17314   0.898  10.772   4.059  0.7345 -1.8459 -1.4968
  869MOL0     H17315   0.972  10.858   3.925  0.8965  3.0598  0.2942
  870MOL0     O17316   7.514   1.494   9.569 -0.0913 -0.1061 -0.2132
  870MOL0     C17317   7.495   1.512   9.451  0.2048 -0.4004 -0.0972
  870MOL0     O17318   7.589   1.572   9.378  0.0820  0.0255 -0.4070
  870MOL0     C17319   7.719   1.582   9.426 -0.0606 -0.4193 -0.2534
  870MOL0     C17320   7.792   1.695   9.377 -0.4236  0.6299 -0.1013
  870MOL0     C17321   7.935   1.702   9.389  0.7342 -0.1348 -0.3775
  870MOL0     C17322   8.005   1.599   9.465 -0.1958 -0.0126  0.3557
  870MOL0     O17323   8.140   1.599   9.462  0.1161 -0.4517 -0.1500
  870MOL0     C17324   8.196   1.523   9.570 -0.9917 -0.4204  0.0501
  870MOL0     C17325   8.351   1.521   9.574 -0.3848  0.0940  0.5567
  870MOL0     C17326   8.404   1.508   9.428  0.4087 -0.0263  0.4630
  870MOL0     C17327   8.552   1.522   9.427  0.0480 -0.2040  0.0597
  870MOL0     C17328   8.620   1.510   9.285 -0.2309 -1.0602 -1.0837
  870MOL0     C17329   8.558   1.386   9.210 -0.3015 -0.3196  0.1346
  870MOL0     C17330   8.610   1.371   9.068  0.1655 -0.2971  0.4033
  870MOL0     C17331   8.612   1.233   9.015  0.1569  0.4378  0.2152
  870MOL0     N17332   8.718   1.200   8.917 -0.1872 -0.4413 -0.6509
  870MOL0     C17333   8.722   1.249   8.786 -0.7880  0.3392 -0.5781
  870MOL0     C17334   8.842   1.192   8.735  0.6369  0.6300 -0.9000
  870MOL0     C17335   8.903   1.245   8.606 -0.4833  0.7936 -0.2692
  870MOL0     C17336   9.001   1.365   8.622  0.0658  0.0477  0.7399
  870MOL0     C17337   9.065   1.389   8.489  0.1334 -0.0977 -0.0974
  870MOL0     C17338   9.135   1.524   8.498  0.0903 -0.3154 -0.1466
  870MOL0     O17339   9.223   1.548   8.386 -0.1267  0.1403 -0.4008
  870MOL0     C17340   9.346   1.485   8.379  0.4084  0.0641 -0.7728
  870MOL0     C17341   9.431   1.527   8.274 -0.6226 -0.6137 -0.6502
  870MOL0     C17342   9.571   1.493   8.273  0.6116  0.4800 -0.3962
  870MOL0     C17343   9.615   1.399   8.366 -0.2408 -0.1045 -0.6353
  870MOL0     C17344   9.753   1.363   8.377 -0.1636  0.0940  1.3025
  870MOL0     O17345   9.776   1.251   8.453  0.7035  0.3660 -0.1419
  870MOL0     C17346   9.907   1.205   8.469  0.1188  0.8582 -0.0229
  870MOL0     C17347   9.968   1.212   8.600  0.7049 -0.7469  0.7961
  870MOL0     C17348  10.098   1.172   8.633 -0.5065 -0.2167  0.3369
  870MOL0     C17349  10.177   1.114   8.533 -0.4429 -0.1968  0.7612
  870MOL0     O17350  10.297   1.061   8.555  1.4302  0.6027 -0.6073
  870MOL0     C17351  10.350   1.048   8.691  0.4935 -0.1162  0.5797
  870MOL0     C17352  10.489   0.991   8.662 -0.3774 -0.1702  0.7181
  870MOL0     C17353  10.587   1.021   8.768 -0.3320  0.2183 -0.3058
  870MOL0     C17354  10.556   0.931   8.896 -0.6211 -0.0215  0.2434
  870MOL0     C17355  10.673   0.934   8.994  0.1464  0.0312 -0.0113
  870MOL0     C17356  10.674   1.053   9.088  0.1685 -1.1482  0.3751
  870MOL0     C17357  10.806   1.047   9.156 -0.1395  0.3773 -1.1733
  870MOL0     C17358  10.943   1.081   9.086  0.1150 -0.5385 -0.7457
  870MOL0    Cl17359  11.022   1.211   9.174 -0.5103  0.5426 -0.2286
  870MOL0     C17360  10.115   1.088   8.409  0.0565  1.2375  0.2900
  870MOL0     C17361   9.982   1.128   8.376 -0.0771  0.2098 -0.0925
  870MOL0     O17362   9.832   1.432   8.303  0.5128 -0.1984 -0.6233
  870MOL0     C17363   9.526   1.353   8.469 -0.3070  0.8040 -0.3138
  870MOL0     C17364   9.392   1.400   8.476 -0.5525  0.5472  0.1657
  870MOL0     N17365   8.910   1.119   8.837  0.4292  0.0026 -0.0978
  870MOL0     N17366   8.831   1.122   8.947 -0.2441 -0.3695  0.0739
  870MOL0     C17367   7.921   1.502   9.525  0.4812  0.9586 -0.7340
  870MOL0     C17368   7.786   1.492   9.504 -0.1052  1.0156  0.3628
  870MOL0     C17369   7.367   1.458   9.393 -0.9068  0.3868 -0.5250
  870MOL0     C17370   7.352   1.475   9.255 -0.2476  0.2523  0.7590
  870MOL0     C17371   7.232   1.438   9.195 -0.3886 -0.3702 -0.1068
  870MOL0     C17372   7.134   1.374   9.267 -0.0035 -0.5173  0.2279
  870MOL0     O17373   7.027   1.324   9.198 -0.3433 -0.0891 -0.5771
  870MOL0     C17374   6.917   1.264   9.272 -0.0545  0.9709 -0.4960
  870MOL0     C17375   6.825   1.354   9.364 -1.4699  0.2839 -0.3260
  870MOL0     C17376   6.714   1.269   9.435  0.0858 -0.8466 -0.5826
  870MOL0     C17377   6.611   1.224   9.335 -0.3042  0.6464  0.5206
  870MOL0     C17378   6.544   1.115   9.404 -0.1535  0.8099 -0.0909
  870MOL0     C17379   6.490   1.034   9.481 -0.1272  0.4081 -0.2715
  870MOL0     C17380   7.149   1.358   9.403 -0.4474  0.1425 -0.4842
  870MOL0     C17381   7.268   1.391   9.463  0.3207  0.0411 -0.5557
  870MOL0     C17382   7.271   1.356   9.610 -0.5102 -0.0932 -0.2600
  870MOL0     H17383   7.740   1.779   9.333 -3.6974 -1.0661  0.2214
  870MOL0     H17384   7.983   1.791   9.351 -0.2701  0.8296  0.5414
  870MOL0     H17385   8.158   1.570   9.661 -0.7767 -0.2747  0.0647
  870MOL0     H17386   8.172   1.420   9.544  1.3866 -0.5410 -2.0745
  870MOL0     H17387   8.392   1.448   9.644  0.0983  0.3748  0.5675
  870MOL0     H17388   8.374   1.622   9.611 -1.7048  1.1902 -1.4327
  870MOL0     H17389   8.356   1.586   9.367 -0.0928 -0.9814 -0.3866
  870MOL0     H17390   8.369   1.409   9.398 -0.9112 -0.1479  2.2500
  870MOL0     H17391   8.566   1.622   9.469 -2.9054  0.6493 -0.7953
  870MOL0     H17392   8.588   1.442   9.493 -1.9951 -1.5601 -0.3835
  870MOL0     H17393   8.600   1.601   9.227 -0.2771  0.5321  1.3128
  870MOL0     H17394   8.729   1.506   9.286 -0.1594  0.3366 -1.4274
  870MOL0     H17395   8.579   1.298   9.272  1.9671  1.2026  1.7327
  870MOL0     H17396   8.450   1.393   9.200 -0.0782  1.4677 -1.7633
  870MOL0     H17397   8.715   1.401   9.070  0.8592 -2.3525 -1.1150
  870MOL0     H17398   8.550   1.437   9.004 -0.8931  1.1626  2.7634
  870MOL0     H17399   8.609   1.149   9.085  1.0419 -2.4558 -2.8989
  870MOL0     H17400   8.521   1.219   8.957  1.2688 -0.1868 -1.4838
  870MOL0     H17401   8.652   1.316   8.736  1.3805  2.4219 -0.9927
  870MOL0     H17402   8.961   1.169   8.553 -2.6636  0.0533 -1.7397
  870MOL0     H17403   8.818   1.263   8.540 -1.9491 -0.6788  1.1210
  870MOL0     H17404   8.934   1.451   8.638  1.1683  1.5273 -1.9087
  870MOL0     H17405   9.061   1.346   8.711 -1.1098 -5.6100  0.7003
  870MOL0     H17406   8.985   1.386   8.415 -0.1841 -0.2298  0.2513
  870MOL0     H17407   9.138   1.310   8.467  1.3588  1.3722 -1.5547
  870MOL0     H17408   9.190   1.541   8.591  0.4290  0.9857 -0.5568
  870MOL0     H17409   9.059   1.601   8.481  0.9382  0.1009 -2.2562
  870MOL0     H17410   9.389   1.582   8.191  0.2385  0.8044 -0.1663
  870MOL0     H17411   9.641   1.523   8.195  0.2962  1.5160 -0.2886
  870MOL0     H17412   9.909   1.250   8.682  0.2037  0.0696  0.0845
  870MOL0     H17413  10.131   1.171   8.736 -0.9867 -0.6054  0.4922
  870MOL0     H17414  10.353   1.148   8.736 -2.3713  0.5983 -0.5938
  870MOL0     H17415  10.284   0.983   8.748 -0.0447 -0.4633 -0.4100
  870MOL0     H17416  10.468   0.884   8.653 -0.5784  0.0582 -2.9212
  870MOL0     H17417  10.527   1.019   8.563 -0.8803 -1.5182  0.1236
  870MOL0     H17418  10.687   1.001   8.729 -1.1415 -0.8413 -1.9919
  870MOL0     H17419  10.572   1.129   8.784 -4.0029 -0.1979 -0.0958
  870MOL0     H17420  10.536   0.830   8.858  0.8189  0.3977 -1.8288
  870MOL0     H17421  10.464   0.960   8.947 -3.1285 -1.4947 -3.0699
  870MOL0     H17422  10.767   0.942   8.939 -0.2683  3.9331 -0.4261
  870MOL0     H17423  10.666   0.841   9.052  2.1183 -0.9096 -1.1731
  870MOL0     H17424  10.664   1.142   9.026  1.6350 -0.4171  1.1373
  870MOL0     H17425  10.587   1.051   9.155 -0.8926 -1.6958 -0.9850
  870MOL0     H17426  10.820   0.943   9.189  0.5305  0.3421 -1.5349
  870MOL0     H17427  10.793   1.113   9.242 -1.4992  3.2558 -3.4460
  870MOL0     H17428  11.013   0.997   9.092  0.2889 -0.4245 -1.1166
  870MOL0     H17429  10.911   1.120   8.989  2.6145 -0.5345 -1.6339
  870MOL0     H17430  10.180   1.030   8.344 -1.7492 -1.1733  0.5065
  870MOL0     H17431   9.948   1.092   8.279 -1.8549 -2.7467  1.5056
  870MOL0     H17432   9.575   1.296   8.548  0.0208  1.9456  0.3338
  870MOL0     H17433   9.329   1.386   8.563 -1.6220  0.6767 -0.5755
  870MOL0     H17434   7.965   1.416   9.574 -0.4209  1.6975  1.5066
  870MOL0     H17435   7.726   1.415   9.551 -0.9971  0.4971 -1.5148
  870MOL0     H17436   7.421   1.525   9.188 -1.0696 -1.5745 -1.5488
  870MOL0     H17437   7.215   1.446   9.088  0.7337 -0.0485 -0.2719
  870MOL0     H17438   6.962   1.181   9.327 -0.7367 -0.7819 -2.4657
  870MOL0     H17439   6.857   1.201   9.206  2.3163 -2.6412  0.5280
  870MOL0     H17440   6.780   1.435   9.306  0.7575  2.4129  0.7683
  870MOL0     H17441   6.886   1.403   9.440  1.7089  1.2658 -3.2612
  870MOL0     H17442   6.670   1.338   9.507 -2.2627 -0.3719 -2.3614
  870MOL0     H17443   6.757   1.187   9.493  0.8175  0.3047  0.5582
  870MOL0     H17444   6.545   1.310   9.321 -0.3727  1.0156  2.7165
  870MOL0     H17445   6.645   1.184   9.239  0.2645  0.4182  0.8154
  870MOL0     H17446   6.450   0.979   9.563 -1.0502 -0.7644 -1.4666
  870MOL0     H17447   7.087   1.291   9.462  0.9093 -2.0877 -1.4442
  870MOL0     H17448   7.311   1.433   9.676  1.6574  0.1577 -1.7935
  870MOL0     H17449   7.170   1.332   9.647 -0.2500  1.3154  1.4707
  870MOL0     H17450   7.336   1.268   9.615 -0.9274 -0.6616 -3.0661
  871MOL0     O17451   2.909   3.217   2.220  0.1684 -0.0081  0.2054
  871MOL0     C17452   2.859   3.318   2.274  0.3932  0.8288  0.1958
  871MOL0     O17453   2.927   3.407   2.357 -0.5980  0.3216  0.2659
  871MOL0     C17454   3.051   3.376   2.404  0.0290  0.6399 -0.7488
  871MOL0     C17455   3.078   3.260   2.479  0.1347  0.7120  0.1511
  871MOL0     C17456   3.204   3.232   2.531  0.3292  0.0118 -0.1400
  871MOL0     C17457   3.307   3.328   2.515  0.6467  0.0215  0.6285
  871MOL0     O17458   3.421   3.297   2.567 -0.5366  0.2962 -0.3179
  871MOL0     C17459   3.542   3.356   2.521 -0.4181  0.3518 -0.1833
  871MOL0     C17460   3.665   3.268   2.555 -0.8445 -0.3859 -0.0298
  871MOL0     C17461   3.698   3.293   2.701 -1.1044  0.4602 -0.6078
  871MOL0     C17462   3.822   3.217   2.738 -0.7415 -0.9219 -0.4908
  871MOL0     C17463   3.875   3.287   2.870 -0.2202 -0.0940 -0.1961
  871MOL0     C17464   3.998   3.226   2.929  0.0001  0.0474 -0.0528
  871MOL0     C17465   4.045   3.283   3.064  0.1070 -0.5325 -0.3619
  871MOL0     C17466   4.181   3.231   3.106  0.0073  0.2744 -0.6434
  871MOL0     N17467   4.242   3.285   3.233  0.2330  0.2392  0.9524
  871MOL0     C17468   4.345   3.369   3.256 -0.4225 -0.0291  0.1211
  871MOL0     C17469   4.345   3.396   3.390 -0.8021  0.0683  0.8740
  871MOL0     C17470   4.435   3.481   3.467  0.4714 -0.6865 -0.6091
  871MOL0     C17471   4.562   3.406   3.510  0.3724 -0.1094 -0.0997
  871MOL0     C17472   4.666   3.506   3.568 -0.1890  0.2131  0.5187
  871MOL0     C17473   4.794   3.437   3.615 -0.5750 -0.1716  0.0511
  871MOL0     O17474   4.858   3.405   3.488 -0.1222 -0.1081 -0.2262
  871MOL0     C17475   4.977   3.344   3.501  0.0652 -1.4972 -0.2118
  871MOL0     C17476   5.051   3.302   3.614  0.2599 -0.8971 -0.0248
  871MOL0     C17477   5.193   3.275   3.611  0.4518 -0.2963  0.3270
  871MOL0     C17478   5.260   3.260   3.495  0.5080  0.1001  0.1504
  871MOL0     C17479   5.401   3.215   3.500 -0.6410  0.7778  0.7504
  871MOL0     O17480   5.451   3.186   3.620 -0.6577  0.2782  0.3146
  871MOL0     C17481   5.583   3.159   3.623  0.4539 -0.1635 -0.8067
  871MOL0     C17482   5.632   3.030   3.624 -0.3313 -0.1518  0.1535
  871MOL0     C17483   5.779   3.004   3.607  0.7405  0.5875 -0.2627
  871MOL0     C17484   5.866   3.115   3.610 -1.1368  0.3345  0.0563
  871MOL0     O17485   6.004   3.096   3.587  0.1016  0.1545 -0.2212
  871MOL0     C17486   6.091   3.215   3.590  0.4628  1.1890  0.3711
  871MOL0     C17487   6.233   3.163   3.559 -1.1011  0.6912  0.0461
  871MOL0     C17488   6.342   3.265   3.564 -0.8187 -0.0789 -0.2712
  871MOL0     C17489   6.330   3.373   3.464  0.1965 -0.4896  0.6444
  871MOL0     C17490   6.456   3.460   3.457 -0.8358 -0.5748 -0.4796
  871MOL0     C17491   6.426   3.573   3.363 -0.3622  0.5931 -0.0915
  871MOL0     C17492   6.547   3.669   3.342 -0.7261 -0.2368 -0.2896
  871MOL0     C17493   6.612   3.712   3.476 -0.6028  0.5754  0.6243
  871MOL0    Cl17494   6.762   3.799   3.435 -0.1455  0.3359 -0.1629
  871MOL0     C17495   5.810   3.249   3.617  0.8030  0.7285  0.4488
  871MOL0     C17496   5.672   3.263   3.624 -0.1527  0.4421 -0.1243
  871MOL0     O17497   5.465   3.224   3.398 -0.2834  0.4683  0.5814
  871MOL0     C17498   5.189   3.290   3.377  0.8854  0.1956  0.5393
  871MOL0     C17499   5.051   3.339   3.388 -0.7496 -0.0579 -0.1665
  871MOL0     N17500   4.230   3.342   3.444 -0.4547 -0.0817  0.0001
  871MOL0     N17501   4.177   3.274   3.353 -0.3060  0.1592 -0.4118
  871MOL0     C17502   3.281   3.449   2.441 -0.4963 -0.2273  0.7621
  871MOL0     C17503   3.148   3.470   2.391 -0.7994  0.9262  1.4229
  871MOL0     C17504   2.720   3.351   2.243  0.1488 -0.4083 -0.4480
  871MOL0     C17505   2.670   3.470   2.306 -0.0334  0.3964  0.0531
  871MOL0     C17506   2.541   3.515   2.289 -0.1592  0.2876 -0.7661
  871MOL0     C17507   2.449   3.444   2.218  0.0775 -0.1043 -0.6598
  871MOL0     O17508   2.325   3.500   2.215 -0.0068 -0.5599  0.2351
  871MOL0     C17509   2.229   3.463   2.126 -0.9547 -0.3396  0.7279
  871MOL0     C17510   2.103   3.558   2.127  0.2083 -0.4079  0.3286
  871MOL0     C17511   2.011   3.526   2.252  0.3612 -0.3030  0.9240
  871MOL0     C17512   1.863   3.566   2.226 -0.2960  0.7402  0.3287
  871MOL0     C17513   1.787   3.545   2.349  0.3519 -0.3794 -0.7512
  871MOL0     C17514   1.733   3.521   2.453  0.6525  0.0142  0.9076
  871MOL0     C17515   2.486   3.323   2.160 -0.3163 -1.5299  1.4786
  871MOL0     C17516   2.619   3.284   2.165 -0.3677 -0.7856  0.0056
  871MOL0     C17517   2.654   3.163   2.084 -0.2674  0.1214  0.6039
  871MOL0     H17518   3.000   3.189   2.505  1.4642 -0.9256 -0.0985
  871MOL0     H17519   3.228   3.144   2.589 -1.5393 -0.9740 -0.7932
  871MOL0     H17520   3.532   3.356   2.412 -2.1688 -0.5216 -0.0553
  871MOL0     H17521   3.573   3.448   2.571  0.9718 -0.4831  0.5600
  871MOL0     H17522   3.745   3.288   2.483 -1.1299 -1.9791 -0.8486
  871MOL0     H17523   3.640   3.163   2.532  0.8076  0.0137 -4.7593
  871MOL0     H17524   3.617   3.267   2.769 -1.3012 -0.2267 -1.0981
  871MOL0     H17525   3.721   3.397   2.725 -1.4876  0.2158  0.9457
  871MOL0     H17526   3.809   3.110   2.757  1.6039 -1.2658 -0.4609
  871MOL0     H17527   3.894   3.232   2.657  1.1294  1.3978  1.4419
  871MOL0     H17528   3.905   3.390   2.849 -1.1837  0.7883  2.3463
  871MOL0     H17529   3.793   3.293   2.942  0.3496 -2.2068  0.7211
  871MOL0     H17530   3.976   3.120   2.946 -4.1190  0.5360 -1.2724
  871MOL0     H17531   4.082   3.239   2.861 -0.0306  2.4227  0.2982
  871MOL0     H17532   3.970   3.259   3.141  0.8656 -1.3547  0.1506
  871MOL0     H17533   4.048   3.392   3.073 -4.1369 -0.3099  0.4002
  871MOL0     H17534   4.167   3.125   3.127 -3.1568  1.0091  1.8419
  871MOL0     H17535   4.244   3.244   3.018 -0.4580  1.4402 -0.8320
  871MOL0     H17536   4.415   3.398   3.178 -0.3386  0.5716  0.4184
  871MOL0     H17537   4.456   3.566   3.401 -2.5423  1.7663  1.2696
  871MOL0     H17538   4.392   3.532   3.554  1.3407  2.5842 -1.9387
  871MOL0     H17539   4.541   3.329   3.585  2.0076  1.5672  2.2475
  871MOL0     H17540   4.593   3.362   3.415  0.2981 -0.6109  0.1059
  871MOL0     H17541   4.627   3.565   3.652  2.2249 -0.4432  2.2303
  871MOL0     H17542   4.687   3.587   3.497 -0.0561  1.0518  1.4846
  871MOL0     H17543   4.777   3.344   3.671 -3.5033 -0.5137 -1.2295
  871MOL0     H17544   4.862   3.507   3.665  0.6565  0.6195 -2.5557
  871MOL0     H17545   5.008   3.296   3.713  2.5030 -0.1639  1.0598
  871MOL0     H17546   5.236   3.225   3.698  1.8837 -0.5041 -0.4709
  871MOL0     H17547   5.559   2.950   3.637  1.4053 -1.8520 -0.0954
  871MOL0     H17548   5.818   2.903   3.608 -0.7245  0.0102 -0.5011
  871MOL0     H17549   6.055   3.287   3.517  0.5712  0.3161 -0.5597
  871MOL0     H17550   6.094   3.248   3.695 -4.1391  0.2862  1.0302
  871MOL0     H17551   6.251   3.077   3.624  0.2060  2.4574  2.1339
  871MOL0     H17552   6.227   3.110   3.463 -2.0109 -3.5311  2.2033
  871MOL0     H17553   6.348   3.307   3.665  1.6272 -3.8414  1.3653
  871MOL0     H17554   6.433   3.207   3.546 -0.0063  0.5744  1.4757
  871MOL0     H17555   6.251   3.443   3.493 -0.2475 -0.4995 -0.4825
  871MOL0     H17556   6.302   3.315   3.375  3.0884 -0.9108 -0.1122
  871MOL0     H17557   6.539   3.396   3.426 -0.1511  0.4825 -0.8458
  871MOL0     H17558   6.465   3.508   3.554 -4.2545  1.8482 -1.1810
  871MOL0     H17559   6.397   3.544   3.262 -0.1591 -1.6966  0.4562
  871MOL0     H17560   6.352   3.640   3.409  1.4624  2.0688  0.8114
  871MOL0     H17561   6.517   3.755   3.282 -4.6981 -2.5594 -2.0767
  871MOL0     H17562   6.620   3.612   3.282 -0.7694 -1.2374  0.5710
  871MOL0     H17563   6.542   3.780   3.525 -0.6635  0.4140  0.7634
  871MOL0     H17564   6.636   3.624   3.537  1.6433  0.7670  0.1169
  871MOL0     H17565   5.852   3.349   3.625  0.7956  0.9920 -2.0742
  871MOL0     H17566   5.627   3.358   3.654  1.1358  0.4396  2.0043
  871MOL0     H17567   5.233   3.288   3.278  2.0896  0.1441  1.0616
  871MOL0     H17568   5.013   3.377   3.294  1.2331 -1.1495 -1.4722
  871MOL0     H17569   3.363   3.514   2.410 -0.9607 -1.1882 -2.9786
  871MOL0     H17570   3.128   3.559   2.333 -0.9859 -0.5857 -0.9591
  871MOL0     H17571   2.732   3.538   2.362  0.2671  0.9355 -0.9198
  871MOL0     H17572   2.507   3.612   2.323 -2.3735  0.2239 -2.5193
  871MOL0     H17573   2.203   3.359   2.144  1.1522 -0.6828  2.1912
  871MOL0     H17574   2.283   3.455   2.031 -0.6570  1.5459  0.7000
  871MOL0     H17575   2.043   3.548   2.036  0.1350 -0.6277  0.4002
  871MOL0     H17576   2.138   3.662   2.126  1.0107 -0.6297  2.3058
  871MOL0     H17577   2.044   3.586   2.337 -1.2712  1.3947  0.4286
  871MOL0     H17578   2.022   3.420   2.279 -0.3962 -0.3078  1.2354
  871MOL0     H17579   1.860   3.668   2.188 -1.8318  0.1377 -1.3559
  871MOL0     H17580   1.815   3.517   2.140  0.3891 -0.6134  0.6873
  871MOL0     H17581   1.668   3.495   2.534 -3.2187  1.3275 -1.5169
  871MOL0     H17582   2.414   3.275   2.095  0.8842 -0.8982 -0.3735
  871MOL0     H17583   2.680   3.199   1.984  0.0807 -0.3610  0.5144
  871MOL0     H17584   2.738   3.101   2.118 -0.0911 -1.0302 -1.7169
  871MOL0     H17585   2.571   3.092   2.071  0.8821 -0.8897 -1.9043
  872MOL0     O17586   7.883   3.267   8.309 -0.5263 -0.3457 -0.7172
  872MOL0     C17587   7.837   3.238   8.418  0.9580 -0.3708 -0.0211
  872MOL0     O17588   7.902   3.253   8.545  0.2362 -0.3698  0.5807
  872MOL0     C17589   8.038   3.277   8.534  0.1429 -0.2879 -0.2831
  872MOL0     C17590   8.118   3.169   8.516  0.4850 -0.1824  0.5425
  872MOL0     C17591   8.262   3.191   8.496 -0.7737 -0.3241  0.4644
  872MOL0     C17592   8.315   3.323   8.502  0.6842  0.2470  0.7341
  872MOL0     O17593   8.450   3.340   8.490 -0.6657  0.2195 -0.1985
  872MOL0     C17594   8.514   3.467   8.509  0.4507  0.6973  0.8096
  872MOL0     C17595   8.664   3.461   8.526 -0.4364 -0.0296  0.2759
  872MOL0     C17596   8.741   3.393   8.409  0.3460 -0.0814  0.0236
  872MOL0     C17597   8.894   3.403   8.444  0.2280 -0.5865  0.4655
  872MOL0     C17598   8.965   3.394   8.310 -0.5992 -0.1722 -0.1285
  872MOL0     C17599   9.112   3.425   8.340 -0.6827 -0.4450  0.0582
  872MOL0     C17600   9.176   3.336   8.450 -0.1053  0.4006  0.2178
  872MOL0     C17601   9.330   3.342   8.454  0.9357  0.1158  0.5922
  872MOL0     N17602   9.384   3.291   8.582  0.3995  0.5239 -0.1943
  872MOL0     C17603   9.412   3.161   8.616  0.1114  0.9578  0.1445
  872MOL0     C17604   9.458   3.168   8.745  0.7829 -0.3578  0.3790
  872MOL0     C17605   9.503   3.056   8.833  0.5609  0.6886  0.5221
  872MOL0     C17606   9.658   3.034   8.836 -0.1572  0.3715 -0.1630
  872MOL0     C17607   9.694   2.943   8.724  0.7106  0.2084 -0.1791
  872MOL0     C17608   9.837   2.919   8.680  0.6984  0.0627 -0.0255
  872MOL0     O17609   9.922   2.914   8.794  0.5736  0.0945 -0.3698
  872MOL0     C17610  10.049   2.879   8.769  0.0420 -0.2079 -0.1565
  872MOL0     C17611  10.139   2.901   8.880  1.2685 -0.0788 -0.3711
  872MOL0     C17612  10.276   2.878   8.883  0.6715  0.5912 -0.5317
  872MOL0     C17613  10.332   2.844   8.763  0.2014 -0.6001  1.7153
  872MOL0     C17614  10.473   2.822   8.735  0.5143 -0.6981  0.5049
  872MOL0     O17615  10.511   2.824   8.602 -0.4543 -0.3073  0.0431
  872MOL0     C17616  10.643   2.828   8.570 -0.8059  0.2884 -0.0179
  872MOL0     C17617  10.695   2.918   8.472 -0.3793 -0.0958  0.0954
  872MOL0     C17618  10.830   2.932   8.440  0.1391 -0.0909 -0.7306
  872MOL0     C17619  10.920   2.845   8.500  0.2746 -0.7066 -0.3030
  872MOL0     O17620  11.050   2.856   8.480  0.1311 -0.2544 -0.3990
  872MOL0     C17621  11.114   2.923   8.587 -0.8434 -0.9608 -0.2460
  872MOL0     C17622  11.261   2.916   8.554  0.4330  0.1405 -0.5173
  872MOL0     C17623  11.360   2.965   8.661  0.1657  0.1961  0.1900
  872MOL0     C17624  11.502   2.932   8.627 -0.0759 -0.0139 -0.0568
  872MOL0     C17625  11.590   2.940   8.750 -0.4219 -0.0878 -0.0930
  872MOL0     C17626  11.729   2.898   8.693  0.1240 -0.1379 -0.4970
  872MOL0     C17627  11.741   2.754   8.640 -0.3208 -0.3328 -0.4313
  872MOL0     C17628  11.881   2.708   8.629 -0.5736 -0.4156  0.6143
  872MOL0    Cl17629  11.992   2.769   8.760 -0.0846 -0.2415 -0.2206
  872MOL0     C17630  10.875   2.745   8.585  0.3347 -0.5497  0.3065
  872MOL0     C17631  10.736   2.732   8.621  0.1046 -0.4681 -0.2531
  872MOL0     O17632  10.544   2.804   8.830 -0.4770  0.4333  0.4275
  872MOL0     C17633  10.249   2.814   8.651  0.3782  0.6572 -0.2627
  872MOL0     C17634  10.111   2.834   8.654  0.7776  0.7554  0.6035
  872MOL0     N17635   9.458   3.299   8.789 -0.2363 -0.2019 -0.2798
  872MOL0     N17636   9.424   3.372   8.689 -0.1351  0.2533 -0.0502
  872MOL0     C17637   8.228   3.430   8.522 -0.2575 -0.8589  0.3888
  872MOL0     C17638   8.091   3.410   8.532  1.2843 -0.6893  0.5091
  872MOL0     C17639   7.691   3.188   8.419 -0.4972  0.4636  0.0533
  872MOL0     C17640   7.643   3.167   8.549  0.0665 -0.5824 -0.5762
  872MOL0     C17641   7.508   3.110   8.567  0.3060  0.3020 -0.8525
  872MOL0     C17642   7.423   3.080   8.460  1.2348  0.2362 -0.4529
  872MOL0     O17643   7.293   3.032   8.467  0.4470 -0.0628 -0.0758
  872MOL0     C17644   7.243   2.983   8.592  0.2407 -0.1650 -0.6722
  872MOL0     C17645   7.116   2.893   8.558 -0.1486 -0.6592  0.1285
  872MOL0     C17646   7.175   2.770   8.483 -0.4489  0.4362  0.2143
  872MOL0     C17647   7.078   2.660   8.448  1.0882  0.5044 -0.4214
  872MOL0     C17648   7.125   2.565   8.352 -0.5837 -0.1600 -0.1170
  872MOL0     C17649   7.182   2.477   8.291 -0.4937 -0.2025  0.1347
  872MOL0     C17650   7.467   3.106   8.332 -0.0877 -0.0010  0.3105
  872MOL0     C17651   7.589   3.172   8.313  0.2540 -0.6239 -0.2115
  872MOL0     C17652   7.612   3.217   8.175  0.3194 -0.6622 -0.3360
  872MOL0     H17653   8.069   3.072   8.508  0.5858 -0.5665  3.4967
  872MOL0     H17654   8.334   3.110   8.486  1.1875  1.5941 -2.8516
  872MOL0     H17655   8.492   3.544   8.435  0.4010 -0.0302  0.0641
  872MOL0     H17656   8.479   3.510   8.603  1.1869 -0.0938  1.4702
  872MOL0     H17657   8.680   3.406   8.619 -1.8646 -1.1643 -0.1140
  872MOL0     H17658   8.708   3.559   8.545 -1.9941  0.4813  1.3564
  872MOL0     H17659   8.726   3.442   8.312  0.2048  2.1840  1.1100
  872MOL0     H17660   8.710   3.289   8.394 -2.3801  0.7684 -0.7578
  872MOL0     H17661   8.919   3.495   8.497 -0.6309 -0.5132  0.7590
  872MOL0     H17662   8.918   3.317   8.507 -0.3409  0.0278  1.5599
  872MOL0     H17663   8.957   3.293   8.270  1.4157  0.7514 -3.1808
  872MOL0     H17664   8.934   3.467   8.235  2.1984  1.3072  0.0452
  872MOL0     H17665   9.171   3.422   8.248  1.4619 -0.1363  1.3688
  872MOL0     H17666   9.123   3.531   8.367  2.3018 -1.2184  2.4726
  872MOL0     H17667   9.146   3.232   8.437 -0.4967  0.7551 -2.0870
  872MOL0     H17668   9.145   3.370   8.550  0.4825 -0.7097  0.7946
  872MOL0     H17669   9.366   3.279   8.372  2.0466  2.5986 -0.9535
  872MOL0     H17670   9.372   3.443   8.443  2.2400 -0.4312  0.3602
  872MOL0     H17671   9.395   3.081   8.545 -1.9812  1.5994 -0.1353
  872MOL0     H17672   9.481   3.088   8.936  1.6187  0.1156  0.9465
  872MOL0     H17673   9.454   2.961   8.812 -1.9800  1.4845  2.2893
  872MOL0     H17674   9.719   3.125   8.836  1.0420 -0.4135 -0.0378
  872MOL0     H17675   9.675   2.969   8.922  1.2984  0.6815 -0.1836
  872MOL0     H17676   9.641   2.975   8.634 -0.0219 -0.5408 -0.0220
  872MOL0     H17677   9.664   2.839   8.733  1.2493 -0.0533 -1.2027
  872MOL0     H17678   9.860   2.996   8.606 -1.1169  0.1927 -0.5156
  872MOL0     H17679   9.833   2.825   8.625  2.8764  1.2725 -2.4678
  872MOL0     H17680  10.092   2.927   8.974 -0.0838  0.1005 -1.0781
  872MOL0     H17681  10.327   2.879   8.979 -2.9097  1.1856  1.5416
  872MOL0     H17682  10.625   2.983   8.421  1.1965  0.5539 -1.3404
  872MOL0     H17683  10.860   3.003   8.364 -0.2128  0.0967 -0.6953
  872MOL0     H17684  11.084   3.027   8.604  0.1727 -0.4770 -1.2785
  872MOL0     H17685  11.101   2.866   8.680 -1.2174  2.7176  2.1871
  872MOL0     H17686  11.281   2.810   8.535  0.0596 -0.2195  0.9809
  872MOL0     H17687  11.285   2.962   8.458  5.5697 -2.9535 -1.0912
  872MOL0     H17688  11.335   3.069   8.687  1.2068 -0.4206  4.5800
  872MOL0     H17689  11.347   2.901   8.749  0.9742 -0.2664 -0.0187
  872MOL0     H17690  11.539   3.000   8.550  0.3425 -0.9672 -0.7120
  872MOL0     H17691  11.495   2.835   8.577  1.3213  0.4828 -1.2624
  872MOL0     H17692  11.563   2.878   8.836  2.1021 -2.1212 -0.6828
  872MOL0     H17693  11.587   3.041   8.793  3.9713  0.9062 -1.6645
  872MOL0     H17694  11.777   2.958   8.616  1.5368  0.1064  0.5449
  872MOL0     H17695  11.784   2.910   8.787 -1.2106  0.7719  0.2116
  872MOL0     H17696  11.694   2.754   8.541 -2.7077  0.7212  0.6030
  872MOL0     H17697  11.685   2.682   8.701  0.5164  0.3668  1.2343
  872MOL0     H17698  11.885   2.599   8.629 -2.2783 -0.4937  0.3368
  872MOL0     H17699  11.917   2.734   8.529 -0.9889  1.2474  0.8700
  872MOL0     H17700  10.951   2.677   8.624  0.2849 -1.2922 -0.8380
  872MOL0     H17701  10.703   2.652   8.687 -2.8949  0.9333  0.1050
  872MOL0     H17702  10.295   2.768   8.564  2.4959  1.8483  0.1440
  872MOL0     H17703  10.061   2.825   8.558  2.3260 -1.6380 -0.0658
  872MOL0     H17704   8.266   3.531   8.517 -1.2047 -0.4311  1.4703
  872MOL0     H17705   8.033   3.493   8.572  1.3962 -1.5720  2.6687
  872MOL0     H17706   7.692   3.190   8.642 -1.0642  0.5013 -0.2171
  872MOL0     H17707   7.472   3.086   8.667  1.4731  0.9198 -0.2593
  872MOL0     H17708   7.219   3.058   8.668  0.0573 -1.3206  0.4435
  872MOL0     H17709   7.313   2.925   8.652  1.5110  2.8025  0.9377
  872MOL0     H17710   7.041   2.947   8.500  1.6386  2.0919  0.1669
  872MOL0     H17711   7.067   2.872   8.654  1.0495  2.1421  1.4991
  872MOL0     H17712   7.263   2.726   8.530 -0.8823 -0.7216 -0.0008
  872MOL0     H17713   7.223   2.807   8.392  2.9656  1.1672  2.1440
  872MOL0     H17714   7.053   2.593   8.531 -1.4314  0.6596 -0.9749
  872MOL0     H17715   6.985   2.705   8.411  0.2595  1.2674  2.3267
  872MOL0     H17716   7.236   2.398   8.242 -0.4942  0.3707 -0.8234
  872MOL0     H17717   7.393   3.085   8.256 -0.4621  0.2732  0.5957
  872MOL0     H17718   7.558   3.160   8.099 -0.4771 -0.1133 -0.1902
  872MOL0     H17719   7.573   3.319   8.176 -1.5669 -1.3261  1.6032
  872MOL0     H17720   7.719   3.220   8.150  0.2106  1.3799 -0.7291
  873MOL0     O17721   5.388   7.855   2.598 -0.1429  0.4574 -0.1657
  873MOL0     C17722   5.340   7.943   2.667 -0.4385  0.1689  0.1138
  873MOL0     O17723   5.393   7.971   2.790  0.2990  0.3269  0.4367
  873MOL0     C17724   5.524   7.969   2.822 -0.1630  0.3381 -0.1931
  873MOL0     C17725   5.559   8.047   2.929 -0.8028  0.2067  0.2561
  873MOL0     C17726   5.690   8.067   2.967 -0.3142 -0.4773  0.0257
  873MOL0     C17727   5.800   8.013   2.903 -0.2096 -0.6609  0.0747
  873MOL0     O17728   5.917   8.024   2.966 -0.5593 -0.1577  1.2086
  873MOL0     C17729   6.036   7.958   2.916 -0.1192 -0.2594 -0.0820
  873MOL0     C17730   6.152   8.010   2.987  0.1058 -0.2900 -0.0510
  873MOL0     C17731   6.285   7.939   2.951  0.5148 -0.1211 -0.7724
  873MOL0     C17732   6.401   8.010   3.007  0.1074  0.5012 -0.7504
  873MOL0     C17733   6.517   7.925   2.950 -0.1001 -1.0642 -0.4147
  873MOL0     C17734   6.647   7.971   3.019  0.1055  0.5533  0.1509
  873MOL0     C17735   6.767   7.908   2.949  0.4461  0.4989  0.6314
  873MOL0     C17736   6.892   7.931   3.029  0.2298  0.4607 -0.6606
  873MOL0     N17737   6.922   8.071   3.056 -0.3973  0.0529  0.4453
  873MOL0     C17738   6.979   8.154   2.957  0.0985  0.3619 -0.0663
  873MOL0     C17739   6.990   8.277   3.018 -0.3467 -0.1117  0.1480
  873MOL0     C17740   7.029   8.409   2.951  0.3842  0.4925  0.6970
  873MOL0     C17741   7.185   8.431   2.936 -0.1622  0.6825  0.8055
  873MOL0     C17742   7.235   8.579   2.955  0.0887 -0.0165  0.3710
  873MOL0     C17743   7.368   8.590   3.019 -0.3899 -0.2711  0.4051
  873MOL0     O17744   7.419   8.714   2.980  0.4683 -0.2976 -0.8670
  873MOL0     C17745   7.545   8.756   3.026  1.1304 -0.1980 -0.2528
  873MOL0     C17746   7.634   8.683   3.108  0.2884  0.0283  0.1502
  873MOL0     C17747   7.745   8.741   3.160 -0.3341 -0.1523  0.4753
  873MOL0     C17748   7.772   8.875   3.134  0.2522 -0.5565  0.6142
  873MOL0     C17749   7.890   8.937   3.201  0.0119 -0.4252 -0.0270
  873MOL0     O17750   7.943   9.052   3.141  0.0020 -0.1641 -0.1045
  873MOL0     C17751   8.064   9.105   3.185  0.6247  0.4623  0.0350
  873MOL0     C17752   8.159   9.148   3.091  1.2236  0.1953  0.0958
  873MOL0     C17753   8.285   9.203   3.131  0.8858  0.1071  0.5626
  873MOL0     C17754   8.302   9.231   3.266 -0.2012 -0.4631 -0.3523
  873MOL0     O17755   8.406   9.297   3.328  0.0746  0.2650 -0.3476
  873MOL0     C17756   8.509   9.333   3.241 -1.2572  0.0277 -0.4885
  873MOL0     C17757   8.631   9.393   3.323 -0.0213  0.1800 -0.1991
  873MOL0     C17758   8.766   9.403   3.235  0.1236  0.4022 -1.0480
  873MOL0     C17759   8.883   9.469   3.318 -0.3235 -0.0271  0.2990
  873MOL0     C17760   9.011   9.446   3.239 -0.2564  0.5864  0.6518
  873MOL0     C17761   9.132   9.438   3.325 -0.0017  0.2111  0.5418
  873MOL0     C17762   9.259   9.413   3.246 -0.4561  0.2631  0.3657
  873MOL0     C17763   9.288   9.523   3.148  0.4421  0.4995  0.5030
  873MOL0    Cl17764   9.450   9.491   3.071  0.4744  0.5949  0.0647
  873MOL0     C17765   8.208   9.187   3.360  0.4910  0.7490 -0.3764
  873MOL0     C17766   8.090   9.120   3.320  0.0574  1.1116 -0.3978
  873MOL0     O17767   7.940   8.869   3.294  0.1789 -0.2725 -0.6290
  873MOL0     C17768   7.692   8.943   3.043 -0.3053 -0.7979 -0.0395
  873MOL0     C17769   7.589   8.884   2.982  0.3270  0.1779 -0.4541
  873MOL0     N17770   6.948   8.261   3.152 -0.3503  0.9001  0.1603
  873MOL0     N17771   6.889   8.146   3.165 -0.7036  0.0950 -0.3986
  873MOL0     C17772   5.759   7.930   2.792 -0.1329 -1.1152  0.2671
  873MOL0     C17773   5.626   7.916   2.749 -0.9344  0.8277 -0.7510
  873MOL0     C17774   5.217   8.012   2.644  0.5298  0.2297  0.6835
  873MOL0     C17775   5.139   8.042   2.756  0.7411 -0.7485  0.7172
  873MOL0     C17776   5.011   8.104   2.737 -0.3622 -0.0510 -0.6066
  873MOL0     C17777   4.962   8.121   2.611 -0.1586 -0.9592 -0.2624
  873MOL0     O17778   4.832   8.166   2.603 -0.5844 -0.4276  0.1624
  873MOL0     C17779   4.767   8.195   2.479 -0.2258  0.2725 -0.0788
  873MOL0     C17780   4.643   8.278   2.520 -0.2882  0.0895  0.7144
  873MOL0     C17781   4.570   8.317   2.388  0.1566  0.2615 -0.3051
  873MOL0     C17782   4.428   8.364   2.420  0.3179  1.4423  0.6355
  873MOL0     C17783   4.426   8.492   2.469  0.6627 -0.4758 -0.3853
  873MOL0     C17784   4.416   8.606   2.489 -0.4192 -0.1282 -0.6131
  873MOL0     C17785   5.040   8.097   2.501 -0.2438  0.4211 -0.4527
  873MOL0     C17786   5.171   8.033   2.516  0.7718  0.0850 -0.6943
  873MOL0     C17787   5.244   7.989   2.396 -0.3205  0.4100 -1.0288
  873MOL0     H17788   5.475   8.090   2.983 -0.8270 -1.0655  1.2582
  873MOL0     H17789   5.711   8.119   3.061  4.0191  1.0057 -1.5257
  873MOL0     H17790   6.016   7.851   2.929  1.2087 -0.5707 -0.5127
  873MOL0     H17791   6.049   7.980   2.810  0.3872  1.6101  0.3224
  873MOL0     H17792   6.123   7.996   3.091  1.7784 -0.7350  0.3774
  873MOL0     H17793   6.145   8.119   2.975 -0.6316 -0.3161  0.0914
  873MOL0     H17794   6.291   7.946   2.842 -0.7529 -0.4691 -0.8782
  873MOL0     H17795   6.280   7.837   2.989  0.7444  0.5567  1.1875
  873MOL0     H17796   6.409   8.116   2.984  0.0915  0.6945  0.1252
  873MOL0     H17797   6.397   8.002   3.116 -1.3759 -1.2081 -0.8708
  873MOL0     H17798   6.511   7.817   2.961  1.0902 -1.0949  0.2100
  873MOL0     H17799   6.527   7.949   2.844  0.3319  4.3858  0.5505
  873MOL0     H17800   6.660   8.079   3.018 -0.4619  0.6866  2.5503
  873MOL0     H17801   6.648   7.935   3.122  0.2602 -0.1760 -0.1000
  873MOL0     H17802   6.777   7.954   2.851 -3.0150  0.7795  0.2939
  873MOL0     H17803   6.747   7.800   2.944  0.8087  0.4388  0.4324
  873MOL0     H17804   6.874   7.888   3.128 -1.9479  2.3736 -0.1438
  873MOL0     H17805   6.976   7.875   2.986  0.5759 -1.9370  2.7399
  873MOL0     H17806   7.020   8.134   2.859 -2.7650  2.4764 -1.8913
  873MOL0     H17807   6.993   8.428   2.849  2.8772 -1.3264 -0.6191
  873MOL0     H17808   7.013   8.492   3.021  2.4286 -0.5249  2.4691
  873MOL0     H17809   7.233   8.371   3.014  1.1303  0.6466  0.0166
  873MOL0     H17810   7.213   8.389   2.839 -0.5342  1.2711  0.4389
  873MOL0     H17811   7.174   8.624   3.034 -0.9280  0.1049 -0.4610
  873MOL0     H17812   7.223   8.639   2.864  3.0824 -1.0808 -0.8575
  873MOL0     H17813   7.433   8.509   2.984 -1.6602 -0.8202 -0.7834
  873MOL0     H17814   7.360   8.586   3.128 -2.3584 -0.9046  0.2629
  873MOL0     H17815   7.603   8.580   3.123 -1.6190  0.2461 -1.8659
  873MOL0     H17816   7.809   8.679   3.221 -0.5132  1.1430  2.0512
  873MOL0     H17817   8.142   9.136   2.984  1.5631  1.0476 -0.0686
  873MOL0     H17818   8.357   9.235   3.056 -1.9303  1.4932 -1.7410
  873MOL0     H17819   8.542   9.238   3.199  0.2632  0.6651 -0.7844
  873MOL0     H17820   8.490   9.397   3.153 -0.2035  0.0415 -0.7236
  873MOL0     H17821   8.601   9.494   3.352 -3.4070 -0.8334  0.2716
  873MOL0     H17822   8.645   9.334   3.414 -2.5976 -1.1077 -0.5233
  873MOL0     H17823   8.797   9.300   3.213  2.4377  0.3616  1.8636
  873MOL0     H17824   8.748   9.456   3.141  1.2065  1.8404 -0.4625
  873MOL0     H17825   8.892   9.423   3.417  2.0183 -2.2161 -0.8088
  873MOL0     H17826   8.868   9.578   3.321  2.3161  0.5160 -2.1434
  873MOL0     H17827   9.022   9.528   3.168 -1.5587  0.3160  0.0999
  873MOL0     H17828   9.004   9.346   3.196 -0.1744  0.7261  0.3085
  873MOL0     H17829   9.150   9.511   3.403  1.8672 -1.8262  2.1305
  873MOL0     H17830   9.123   9.341   3.374  1.5722 -0.9061 -1.2545
  873MOL0     H17831   9.260   9.316   3.196  0.1687 -1.8875  4.1613
  873MOL0     H17832   9.342   9.413   3.316  2.1447 -2.3414 -2.4189
  873MOL0     H17833   9.205   9.520   3.078 -0.3450 -1.1318  1.4493
  873MOL0     H17834   9.291   9.618   3.202  1.3875 -0.0173  1.4005
  873MOL0     H17835   8.226   9.203   3.466  0.7176  2.3084 -0.6195
  873MOL0     H17836   8.022   9.094   3.400  1.9522 -1.5246  0.4951
  873MOL0     H17837   7.709   9.043   3.005  0.2024 -1.0443 -0.4612
  873MOL0     H17838   7.513   8.936   2.925 -1.6092 -2.4032 -0.3920
  873MOL0     H17839   5.841   7.883   2.738  0.8728  0.4928  0.3372
  873MOL0     H17840   5.622   7.856   2.659 -3.1398 -1.2964  0.6362
  873MOL0     H17841   5.173   8.031   2.859 -0.6592 -2.0659  1.0693
  873MOL0     H17842   4.954   8.124   2.827  3.2026 -0.7543  2.0643
  873MOL0     H17843   4.736   8.099   2.435 -0.0032  0.1764 -0.0261
  873MOL0     H17844   4.830   8.258   2.417  1.5007 -0.1706  1.1416
  873MOL0     H17845   4.656   8.370   2.578 -4.0091 -0.7017  3.1213
  873MOL0     H17846   4.584   8.213   2.585  1.2715 -2.1916 -0.0053
  873MOL0     H17847   4.559   8.236   2.315  0.9141 -1.4807  1.4315
  873MOL0     H17848   4.625   8.391   2.329 -1.6757  0.8425 -1.3824
  873MOL0     H17849   4.362   8.372   2.333  0.7541  1.8398  0.3371
  873MOL0     H17850   4.375   8.297   2.488  2.3852 -0.4168  0.5498
  873MOL0     H17851   4.431   8.705   2.526  1.4098 -0.4405 -0.4618
  873MOL0     H17852   4.997   8.100   2.402  0.6063  2.1316 -0.8059
  873MOL0     H17853   5.347   8.028   2.396 -0.6916  1.4974 -2.5242
  873MOL0     H17854   5.236   7.880   2.398  1.8370  0.2059 -0.8998
  873MOL0     H17855   5.194   8.022   2.304 -0.5681 -0.1894 -1.1146
  874MOL0     O17856   7.074   8.892   6.611  0.1299 -0.5784  0.5730
  874MOL0     C17857   7.040   8.841   6.716  0.2017 -0.4681  0.8943
  874MOL0     O17858   7.126   8.764   6.784 -0.3072 -0.1976 -0.2994
  874MOL0     C17859   7.260   8.723   6.733  0.7758 -0.0173 -0.7089
  874MOL0     C17860   7.371   8.763   6.805  0.0388 -0.6077  0.0613
  874MOL0     C17861   7.498   8.740   6.757 -1.0022 -0.4799  0.3766
  874MOL0     C17862   7.513   8.681   6.629 -0.3139 -1.0306  0.5236
  874MOL0     O17863   7.635   8.657   6.581 -1.2648 -0.4343 -0.7149
  874MOL0     C17864   7.651   8.696   6.445  0.0369 -0.4330 -0.3126
  874MOL0     C17865   7.789   8.728   6.414 -0.7897 -0.3085  0.1354
  874MOL0     C17866   7.880   8.599   6.409  1.3767 -1.1522  0.8250
  874MOL0     C17867   8.005   8.617   6.494  0.4804 -0.1985  0.3973
  874MOL0     C17868   8.090   8.496   6.479  0.4010  0.4177  1.0292
  874MOL0     C17869   8.212   8.499   6.585  1.0983 -0.5295  1.2986
  874MOL0     C17870   8.323   8.594   6.543  0.1160 -0.4142  0.5797
  874MOL0     C17871   8.369   8.560   6.403  0.5545 -0.2559  0.0744
  874MOL0     N17872   8.507   8.591   6.389 -0.7493 -0.2329 -0.0340
  874MOL0     C17873   8.618   8.511   6.424  0.6048  0.3954 -1.2503
  874MOL0     C17874   8.723   8.574   6.367  0.5035 -0.0235 -0.5297
  874MOL0     C17875   8.855   8.507   6.362  0.0837 -0.4773 -0.3052
  874MOL0     C17876   8.939   8.507   6.490 -0.1101  0.2410 -0.0957
  874MOL0     C17877   9.077   8.452   6.479 -0.3474 -0.2431  0.3219
  874MOL0     C17878   9.171   8.532   6.397 -0.0444 -0.0035  0.2666
  874MOL0     O17879   9.279   8.457   6.348  0.2641  0.5510 -0.0720
  874MOL0     C17880   9.395   8.435   6.425 -0.2080  0.1432 -0.4993
  874MOL0     C17881   9.501   8.389   6.359 -0.2939 -0.1449  0.2425
  874MOL0     C17882   9.621   8.369   6.415  0.7861 -0.0720 -0.3987
  874MOL0     C17883   9.647   8.441   6.543 -0.4249  0.6446  0.7451
  874MOL0     C17884   9.781   8.455   6.600  0.4503 -0.2726  0.2377
  874MOL0     O17885   9.876   8.417   6.519  0.3084 -0.1596  0.4437
  874MOL0     C17886  10.012   8.453   6.542  0.5630 -0.0463  0.8103
  874MOL0     C17887  10.072   8.431   6.664 -0.2039  0.1501  1.5031
  874MOL0     C17888  10.211   8.452   6.675  0.1746  0.5803 -0.1327
  874MOL0     C17889  10.285   8.506   6.568 -0.0393 -0.7608 -0.4082
  874MOL0     O17890  10.419   8.534   6.570 -0.3359  0.5892  0.0355
  874MOL0     C17891  10.499   8.480   6.673 -0.3267 -0.6047  0.7842
  874MOL0     C17892  10.645   8.517   6.652 -0.0332 -0.6511 -0.0039
  874MOL0     C17893  10.707   8.425   6.547 -0.3085  0.3244  0.5871
  874MOL0     C17894  10.855   8.462   6.554  0.2098  0.5052  0.2968
  874MOL0     C17895  10.932   8.405   6.439  0.2170 -0.3330 -0.5820
  874MOL0     C17896  11.081   8.432   6.457 -0.0985 -0.0473  0.0196
  874MOL0     C17897  11.156   8.378   6.335  0.1200 -0.2696 -0.5077
  874MOL0     C17898  11.299   8.420   6.331 -1.2084  0.1973 -0.2370
  874MOL0    Cl17899  11.381   8.375   6.175  0.0202  0.3668  0.0628
  874MOL0     C17900  10.220   8.525   6.442  0.4952  0.8799  0.1790
  874MOL0     C17901  10.083   8.496   6.433  0.6855  0.1683 -0.0258
  874MOL0     O17902   9.792   8.502   6.713 -0.5102 -0.0730  0.0202
  874MOL0     C17903   9.538   8.491   6.609  0.8140 -0.7126  0.3283
  874MOL0     C17904   9.413   8.486   6.557  0.0184 -0.1900 -0.5739
  874MOL0     N17905   8.680   8.687   6.297  1.2402 -0.5311 -0.1000
  874MOL0     N17906   8.548   8.698   6.324  0.2963  0.1582  0.3036
  874MOL0     C17907   7.400   8.651   6.552 -0.4032 -0.0943 -0.4902
  874MOL0     C17908   7.271   8.664   6.608  0.0969 -0.4070 -1.4474
  874MOL0     C17909   6.913   8.888   6.786  0.1237 -0.5689  0.2176
  874MOL0     C17910   6.934   8.914   6.927 -0.2466  0.4959  0.7195
  874MOL0     C17911   6.832   8.981   6.992  0.0424 -0.5139 -1.0140
  874MOL0     C17912   6.706   9.013   6.930  1.0219 -0.0771 -0.0490
  874MOL0     O17913   6.596   9.085   6.985 -0.6684  0.2971  0.6983
  874MOL0     C17914   6.594   9.088   7.127 -0.7277  0.4635  0.4204
  874MOL0     C17915   6.451   9.079   7.184  0.7421  0.1722 -0.6190
  874MOL0     C17916   6.383   9.217   7.190  0.0868 -0.0181 -0.1979
  874MOL0     C17917   6.230   9.213   7.191 -0.0489 -0.7820 -0.6903
  874MOL0     C17918   6.186   9.179   7.059  0.3056  1.0455  0.5402
  874MOL0     C17919   6.129   9.133   6.952  0.0892 -0.5484 -0.2653
  874MOL0     C17920   6.683   8.965   6.803  0.1108 -0.0929 -0.4676
  874MOL0     C17921   6.784   8.901   6.728 -0.3702 -0.4080  0.2029
  874MOL0     C17922   6.745   8.866   6.589  0.1848 -0.0098 -0.2057
  874MOL0     H17923   7.355   8.808   6.903  0.5087  1.6094 -0.8255
  874MOL0     H17924   7.588   8.755   6.815 -1.0575 -1.8688  0.8662
  874MOL0     H17925   7.624   8.618   6.372 -0.9945  0.5832 -1.0474
  874MOL0     H17926   7.589   8.783   6.425 -0.7778 -0.7516  0.7567
  874MOL0     H17927   7.825   8.806   6.481 -2.5282  2.7238 -2.1739
  874MOL0     H17928   7.785   8.772   6.314 -2.1607  0.8842  0.6794
  874MOL0     H17929   7.903   8.582   6.303 -0.2404 -2.6675  0.6692
  874MOL0     H17930   7.819   8.514   6.440 -1.8960  0.7314  0.0316
  874MOL0     H17931   8.068   8.700   6.460 -1.7958  1.3138 -0.3927
  874MOL0     H17932   7.989   8.640   6.599 -0.7210  1.4634 -0.1045
  874MOL0     H17933   8.032   8.405   6.499  1.2617 -0.0944  1.2654
  874MOL0     H17934   8.110   8.494   6.371 -3.2746 -1.6765  0.2163
  874MOL0     H17935   8.185   8.518   6.690  0.5017 -3.0499  1.6556
  874MOL0     H17936   8.262   8.403   6.577 -1.1863 -1.6753 -0.3505
  874MOL0     H17937   8.404   8.587   6.616  0.2189 -0.3001  0.4784
  874MOL0     H17938   8.293   8.699   6.555  2.1430  0.5823 -2.1328
  874MOL0     H17939   8.365   8.452   6.384  1.0260 -0.3620  0.5412
  874MOL0     H17940   8.313   8.611   6.324  1.2955  0.7688  0.1903
  874MOL0     H17941   8.612   8.406   6.453  0.9648  0.2047 -1.8576
  874MOL0     H17942   8.836   8.404   6.331 -0.0179 -0.5756  0.0711
  874MOL0     H17943   8.907   8.563   6.284 -1.0637  0.2569 -0.5650
  874MOL0     H17944   8.944   8.612   6.520  4.3219 -0.0385  0.8693
  874MOL0     H17945   8.885   8.453   6.568  2.6538 -1.2169  0.9232
  874MOL0     H17946   9.076   8.351   6.436 -0.6580 -0.2029  0.2388
  874MOL0     H17947   9.126   8.436   6.575  1.5793  0.7200 -0.4438
  874MOL0     H17948   9.218   8.610   6.457 -0.8334  1.8009 -1.3560
  874MOL0     H17949   9.125   8.581   6.310 -0.6522  0.4729  0.8513
  874MOL0     H17950   9.482   8.346   6.261  0.9225  0.6147 -0.3612
  874MOL0     H17951   9.691   8.311   6.355  1.5521  2.9196 -2.6220
  874MOL0     H17952  10.018   8.383   6.745  0.1126  0.6836  2.0416
  874MOL0     H17953  10.244   8.418   6.773 -0.6143  1.5124  0.4831
  874MOL0     H17954  10.466   8.527   6.767  1.7239  1.7683  0.4252
  874MOL0     H17955  10.494   8.371   6.676 -2.3578 -0.5463  1.6450
  874MOL0     H17956  10.670   8.619   6.623  2.3234 -1.5802 -1.5303
  874MOL0     H17957  10.688   8.501   6.752  0.9679  1.4990 -0.0510
  874MOL0     H17958  10.690   8.318   6.563  1.5142  0.0579  0.9807
  874MOL0     H17959  10.668   8.442   6.446  1.3861 -1.8288 -0.5146
  874MOL0     H17960  10.890   8.442   6.656  1.5190  0.5985 -0.1131
  874MOL0     H17961  10.859   8.571   6.550  0.3026  0.5856  1.9178
  874MOL0     H17962  10.885   8.439   6.346 -2.3140 -1.6568  0.1134
  874MOL0     H17963  10.912   8.298   6.436  0.2517 -0.4226  1.2343
  874MOL0     H17964  11.095   8.541   6.458 -1.3147  0.1250 -0.2952
  874MOL0     H17965  11.116   8.378   6.546 -2.2123 -1.0697  0.2776
  874MOL0     H17966  11.097   8.406   6.247 -3.7764  0.0322  1.9763
  874MOL0     H17967  11.150   8.269   6.335  0.1644 -0.3503 -3.1431
  874MOL0     H17968  11.305   8.528   6.346 -0.5581  0.4450 -2.1071
  874MOL0     H17969  11.355   8.367   6.409  0.7293  3.2898  0.6513
  874MOL0     H17970  10.276   8.560   6.356  1.8036 -1.7427 -0.1362
  874MOL0     H17971  10.043   8.498   6.332 -0.6851  0.4210  0.5075
  874MOL0     H17972   9.546   8.529   6.710  0.8617 -0.1606  0.1170
  874MOL0     H17973   9.331   8.531   6.612 -0.6896  1.4068 -2.8114
  874MOL0     H17974   7.404   8.605   6.454 -1.2943  0.2105 -0.6777
  874MOL0     H17975   7.179   8.643   6.554 -0.7554  0.9005 -0.5653
  874MOL0     H17976   7.027   8.887   6.975  0.2290 -2.8715 -1.7597
  874MOL0     H17977   6.859   9.006   7.095  0.3172  1.7338 -1.5715
  874MOL0     H17978   6.642   9.177   7.169 -0.9851  1.2784 -0.9565
  874MOL0     H17979   6.646   9.000   7.168 -1.2458 -0.3441 -0.5971
  874MOL0     H17980   6.449   9.030   7.282 -2.9537 -0.4756 -0.8951
  874MOL0     H17981   6.395   9.011   7.120 -0.8011  2.9177 -2.3654
  874MOL0     H17982   6.416   9.277   7.105 -0.8415  0.0201 -0.5424
  874MOL0     H17983   6.422   9.268   7.279  0.8323  0.1981 -0.6416
  874MOL0     H17984   6.191   9.149   7.271 -0.3852 -1.1887 -1.1637
  874MOL0     H17985   6.192   9.314   7.206 -0.9672 -1.3108  0.8060
  874MOL0     H17986   6.082   9.106   6.859  0.0577  1.7038 -0.9654
  874MOL0     H17987   6.581   8.983   6.771  1.6490  3.5206 -4.2156
  874MOL0     H17988   6.723   8.957   6.532  1.4312 -0.1043 -0.8650
  874MOL0     H17989   6.832   8.816   6.544  0.7987  1.2573 -0.4751
  874MOL0     H17990   6.655   8.804   6.584 -0.0595  0.3750 -0.5842
  875MOL0     O17991   7.968   4.832   4.399  0.1415  0.5187  0.0149
  875MOL0     C17992   7.951   4.837   4.277 -0.1279 -0.4007 -0.2004
  875MOL0     O17993   8.023   4.905   4.189  0.3017 -0.2612 -0.0740
  875MOL0     C17994   8.155   4.930   4.220 -0.4826 -0.4951 -0.6450
  875MOL0     C17995   8.199   5.058   4.185 -0.2844 -0.4701 -0.6446
  875MOL0     C17996   8.333   5.097   4.203 -0.0435  0.2607 -0.1826
  875MOL0     C17997   8.431   5.004   4.244 -0.1148  0.9968 -0.0568
  875MOL0     O17998   8.570   5.017   4.257  0.6187 -0.4616 -0.1124
  875MOL0     C17999   8.607   5.158   4.251  0.0984  0.0471 -0.7316
  875MOL0     C18000   8.760   5.175   4.283  0.2581 -0.4439  0.1652
  875MOL0     C18001   8.819   5.119   4.413 -0.1350 -0.1497 -0.5874
  875MOL0     C18002   8.952   5.189   4.450  0.5295  0.4474 -1.0985
  875MOL0     C18003   9.014   5.131   4.583 -0.3234  0.4535 -0.2460
  875MOL0     C18004   9.143   5.203   4.624  0.2469  0.7874 -0.5468
  875MOL0     C18005   9.265   5.121   4.658 -0.0760 -0.6251  0.5505
  875MOL0     C18006   9.254   5.077   4.803  0.3477 -0.5074 -0.2154
  875MOL0     N18007   9.338   4.968   4.840 -0.3443 -0.6285  0.2943
  875MOL0     C18008   9.367   4.855   4.771 -0.3931  0.6454 -0.3787
  875MOL0     C18009   9.466   4.798   4.830 -0.6289  0.7636 -0.6776
  875MOL0     C18010   9.536   4.664   4.800  0.3309  0.7792 -0.2493
  875MOL0     C18011   9.673   4.679   4.737  0.4087  0.4662 -0.6196
  875MOL0     C18012   9.762   4.774   4.826  1.0640 -0.0174  0.4637
  875MOL0     C18013   9.904   4.740   4.779  0.4994  0.6274 -0.5956
  875MOL0     O18014   9.992   4.822   4.857 -0.2808 -0.4649  0.1893
  875MOL0     C18015  10.132   4.807   4.856 -0.2617 -0.8047  0.2588
  875MOL0     C18016  10.213   4.911   4.903 -0.6034  0.0386  0.4513
  875MOL0     C18017  10.359   4.900   4.900  0.1053 -0.1300  0.7084
  875MOL0     C18018  10.424   4.782   4.855  0.1021 -0.8643  0.5819
  875MOL0     C18019  10.566   4.773   4.845 -0.3621  0.1762  1.3811
  875MOL0     O18020  10.613   4.658   4.790 -0.0477 -0.0938  0.1845
  875MOL0     C18021  10.747   4.636   4.766  0.4549  0.2587 -0.2243
  875MOL0     C18022  10.784   4.577   4.650  0.1366  0.4387  0.6253
  875MOL0     C18023  10.922   4.558   4.611  0.7527 -0.2405 -0.1605
  875MOL0     C18024  11.020   4.589   4.703  0.4861  0.5813  0.0116
  875MOL0     O18025  11.149   4.571   4.660  0.4696 -0.7207  0.5747
  875MOL0     C18026  11.255   4.638   4.724  0.6183  0.1014  0.2422
  875MOL0     C18027  11.378   4.565   4.672  0.1060  0.0800  0.4690
  875MOL0     C18028  11.515   4.612   4.717  0.4599 -0.3611 -1.1658
  875MOL0     C18029  11.627   4.538   4.653 -0.6377 -0.2204  0.0003
  875MOL0     C18030  11.751   4.609   4.689 -0.0394 -0.6525 -0.3779
  875MOL0     C18031  11.864   4.533   4.621 -0.0392  0.4395  0.2525
  875MOL0     C18032  12.001   4.597   4.650 -0.2670 -0.2176 -0.0770
  875MOL0     C18033  12.116   4.515   4.600 -0.2274  0.1185  0.2372
  875MOL0    Cl18034  12.159   4.412   4.733 -0.3278  0.3676  0.1446
  875MOL0     C18035  10.981   4.644   4.826 -0.9711  0.0694  0.3492
  875MOL0     C18036  10.851   4.669   4.860  0.2366  0.4965  0.9849
  875MOL0     O18037  10.632   4.875   4.868  0.2992  0.0633 -0.3176
  875MOL0     C18038  10.341   4.691   4.801  0.3167  0.2688 -0.4331
  875MOL0     C18039  10.198   4.704   4.795 -0.3530  0.3244 -1.0048
  875MOL0     N18040   9.485   4.868   4.944  0.5626  0.4259  0.0871
  875MOL0     N18041   9.400   4.960   4.959  0.0258  0.3571  0.1969
  875MOL0     C18042   8.388   4.875   4.271 -0.2733  0.2994 -0.2267
  875MOL0     C18043   8.256   4.836   4.263  0.2845  0.1227 -0.8925
  875MOL0     C18044   7.827   4.782   4.224 -0.2314 -0.3040  0.0286
  875MOL0     C18045   7.778   4.859   4.109  0.8777 -0.1671 -0.1517
  875MOL0     C18046   7.662   4.822   4.051 -0.0855  0.2131  0.0711
  875MOL0     C18047   7.582   4.727   4.100 -0.0349  1.1320 -0.6934
  875MOL0     O18048   7.456   4.713   4.044  0.1345  0.4319 -0.2416
  875MOL0     C18049   7.365   4.635   4.113  0.1443 -0.1999  0.1370
  875MOL0     C18050   7.233   4.634   4.029 -0.2815 -0.1893 -1.0820
  875MOL0     C18051   7.244   4.536   3.914  0.2165 -0.1840  0.2156
  875MOL0     C18052   7.120   4.536   3.816 -0.6939  0.0946  0.2204
  875MOL0     C18053   7.060   4.670   3.786 -0.5366 -0.2992  0.5599
  875MOL0     C18054   6.996   4.777   3.772 -0.3828  0.1006 -0.4747
  875MOL0     C18055   7.622   4.663   4.221 -0.5731 -0.0803 -0.7242
  875MOL0     C18056   7.745   4.688   4.284 -0.8139 -0.3546  0.0168
  875MOL0     C18057   7.787   4.602   4.396  0.0045 -0.1222 -0.1155
  875MOL0     H18058   8.137   5.139   4.150  1.2662  1.2407  0.3823
  875MOL0     H18059   8.356   5.201   4.183  1.9433 -0.3917 -1.5773
  875MOL0     H18060   8.591   5.191   4.148  1.7299  0.2530 -0.9378
  875MOL0     H18061   8.548   5.216   4.323  0.7839  0.7762 -0.7454
  875MOL0     H18062   8.780   5.282   4.271  0.6721 -0.2200  2.4229
  875MOL0     H18063   8.822   5.129   4.206  2.4684 -0.5847  1.9135
  875MOL0     H18064   8.841   5.013   4.403  0.8579 -0.2136  1.5365
  875MOL0     H18065   8.756   5.144   4.499  1.0422  0.1300  0.2233
  875MOL0     H18066   9.022   5.176   4.367 -0.1927 -1.9460 -1.3975
  875MOL0     H18067   8.931   5.295   4.465 -0.9682  0.4021 -2.6374
  875MOL0     H18068   8.939   5.141   4.661 -1.5126  2.5982 -1.5659
  875MOL0     H18069   9.030   5.024   4.564  0.2073  0.6456 -0.9763
  875MOL0     H18070   9.176   5.282   4.555  2.1022 -0.0373 -0.6712
  875MOL0     H18071   9.118   5.257   4.715  0.1454 -0.1360 -0.0138
  875MOL0     H18072   9.355   5.183   4.652  0.4927 -1.1914  2.5461
  875MOL0     H18073   9.274   5.046   4.579  0.2093  0.8749 -0.8923
  875MOL0     H18074   9.271   5.163   4.868  0.2984 -1.3049  0.8734
  875MOL0     H18075   9.150   5.046   4.816  1.0675 -4.3553 -2.0732
  875MOL0     H18076   9.328   4.818   4.677  3.2673 -1.4265 -1.2844
  875MOL0     H18077   9.536   4.603   4.891  0.1741  0.8128 -0.2274
  875MOL0     H18078   9.471   4.611   4.729 -0.1152  1.4313 -0.3366
  875MOL0     H18079   9.717   4.581   4.719  0.1816  0.8235 -3.5412
  875MOL0     H18080   9.655   4.714   4.635 -1.0746 -3.5191 -1.9299
  875MOL0     H18081   9.740   4.748   4.930 -1.2032 -1.4858 -0.3129
  875MOL0     H18082   9.741   4.881   4.818  3.4196  0.4027 -1.0923
  875MOL0     H18083   9.927   4.750   4.672  2.9910 -0.1175 -0.1986
  875MOL0     H18084   9.917   4.632   4.794  1.6191  0.6853 -1.0088
  875MOL0     H18085  10.168   5.007   4.926 -1.2643 -0.4024  1.0010
  875MOL0     H18086  10.423   4.980   4.937 -0.1745 -0.1136  1.1638
  875MOL0     H18087  10.709   4.552   4.577  1.4274  2.0867 -1.3578
  875MOL0     H18088  10.965   4.518   4.520  2.9725  0.2237  0.6288
  875MOL0     H18089  11.259   4.745   4.701  0.2615  0.3240  1.1425
  875MOL0     H18090  11.258   4.623   4.833  2.1356 -1.0780  0.0675
  875MOL0     H18091  11.367   4.461   4.705  0.6136  0.3733  1.5904
  875MOL0     H18092  11.374   4.557   4.563  2.5791 -1.6429  0.4342
  875MOL0     H18093  11.522   4.719   4.695  2.0794 -0.4115 -1.0379
  875MOL0     H18094  11.529   4.593   4.824 -0.1358  0.9154 -0.8382
  875MOL0     H18095  11.601   4.536   4.547 -0.1293 -0.5663 -0.1247
  875MOL0     H18096  11.631   4.433   4.685 -1.2605  0.0699  1.0529
  875MOL0     H18097  11.759   4.621   4.798 -1.4172 -0.4388 -0.2826
  875MOL0     H18098  11.748   4.708   4.643 -2.3476 -0.4841  0.0149
  875MOL0     H18099  11.876   4.432   4.659  0.9620  0.9878  1.4438
  875MOL0     H18100  11.838   4.526   4.515 -0.8688 -1.4274  0.5427
  875MOL0     H18101  12.019   4.629   4.753  0.7196  2.7963 -1.0542
  875MOL0     H18102  11.990   4.691   4.595  2.4652 -1.5699 -3.2669
  875MOL0     H18103  12.099   4.460   4.507 -0.4388  1.3397 -0.4723
  875MOL0     H18104  12.198   4.586   4.584 -1.0729  1.3221  1.0536
  875MOL0     H18105  11.050   4.663   4.907  0.2839 -1.7670 -0.2025
  875MOL0     H18106  10.832   4.715   4.957  0.5690  1.3088  0.6687
  875MOL0     H18107  10.377   4.601   4.751  0.4474 -0.0337  0.2052
  875MOL0     H18108  10.132   4.629   4.753 -1.4774  0.3361  0.6310
  875MOL0     H18109   8.461   4.801   4.301  1.0443  1.6453  0.0514
  875MOL0     H18110   8.222   4.737   4.293  0.2180  0.3900 -0.0320
  875MOL0     H18111   7.828   4.944   4.065 -0.0024  1.5649  1.9766
  875MOL0     H18112   7.625   4.873   3.962 -1.6824  0.5202  0.8698
  875MOL0     H18113   7.350   4.679   4.211  1.2588  0.8729 -0.1526
  875MOL0     H18114   7.400   4.532   4.127  2.0804  0.4069  0.0954
  875MOL0     H18115   7.208   4.734   3.994  0.5320  0.6198  0.5850
  875MOL0     H18116   7.146   4.609   4.090 -2.2296  1.4355 -3.0207
  875MOL0     H18117   7.254   4.435   3.957 -3.5182 -1.4369 -1.4472
  875MOL0     H18118   7.338   4.557   3.862  1.7967 -0.4687  2.7612
  875MOL0     H18119   7.151   4.489   3.722 -1.1877 -1.2598  0.7059
  875MOL0     H18120   7.046   4.468   3.858 -0.4012  2.1186  4.5296
  875MOL0     H18121   6.941   4.869   3.763 -0.4764  0.0405 -0.5257
  875MOL0     H18122   7.561   4.581   4.259  0.1142 -1.5837 -2.6735
  875MOL0     H18123   7.736   4.506   4.397  2.7481 -1.7901 -2.5071
  875MOL0     H18124   7.893   4.575   4.397  0.1605  0.3681 -1.3382
  875MOL0     H18125   7.771   4.667   4.483  1.5161  1.4850 -0.9563
  876MOL0     O18126   7.742  10.263   1.575 -0.3352  0.0306  0.5182
  876MOL0     C18127   7.623  10.298   1.559 -0.2483 -0.0511 -0.1811
  876MOL0     O18128   7.586  10.406   1.483 -0.3545  0.0344 -0.1913
  876MOL0     C18129   7.698  10.479   1.451 -0.1160 -0.3894 -0.8582
  876MOL0     C18130   7.777  10.547   1.546 -0.6578  0.8546  0.8731
  876MOL0     C18131   7.890  10.613   1.507 -0.4766  0.0861  1.2089
  876MOL0     C18132   7.911  10.639   1.366  0.6888 -0.0266  0.6204
  876MOL0     O18133   8.028  10.708   1.331 -0.0148  0.0998 -0.1504
  876MOL0     C18134   8.144  10.626   1.331 -0.1361 -0.1287  0.4132
  876MOL0     C18135   8.237  10.713   1.263 -0.0233 -0.0536  0.5187
  876MOL0     C18136   8.381  10.659   1.294 -0.2137  0.1990 -0.8196
  876MOL0     C18137   8.489  10.752   1.237  0.2920  0.4187  0.0343
  876MOL0     C18138   8.633  10.717   1.289 -0.3509 -0.1371 -0.5168
  876MOL0     C18139   8.674  10.567   1.295  0.8831 -0.3812 -0.2137
  876MOL0     C18140   8.821  10.549   1.307 -0.0234  0.5653  0.1924
  876MOL0     C18141   8.864  10.403   1.342  0.0644 -0.0983  0.5003
  876MOL0     N18142   8.806  10.305   1.249 -0.1856  0.0630  0.5665
  876MOL0     C18143   8.854  10.255   1.133  0.3979  0.0667 -0.1111
  876MOL0     C18144   8.771  10.155   1.105  0.7725 -0.2558  0.0866
  876MOL0     C18145   8.792  10.058   0.990  0.3963  0.0198 -1.2357
  876MOL0     C18146   8.730  10.106   0.859 -0.8305 -0.7031  0.1652
  876MOL0     C18147   8.756  10.017   0.743 -0.0622 -0.1872  0.0680
  876MOL0     C18148   8.702  10.092   0.617  0.7684  0.1483 -1.1155
  876MOL0     O18149   8.736  10.020   0.496 -0.0457  0.1880 -1.0043
  876MOL0     C18150   8.864  10.037   0.451  0.3814  0.6177 -0.3721
  876MOL0     C18151   8.893   9.987   0.324 -0.1117  0.0493 -0.2495
  876MOL0     C18152   9.023   9.998   0.267  0.4056  0.1696 -0.3603
  876MOL0     C18153   9.124  10.070   0.329  1.1002  0.4286 -0.6153
  876MOL0     C18154   9.257  10.069   0.271 -0.1954  0.2884  0.5066
  876MOL0     O18155   9.355  10.131   0.334  0.3967 -0.4949 -0.3994
  876MOL0     C18156   9.466  10.172   0.272  0.2606 -0.0006 -0.0184
  876MOL0     C18157   9.573  10.203   0.361  0.4422  0.5886  0.6952
  876MOL0     C18158   9.697  10.248   0.311  0.0623 -0.1433 -0.2142
  876MOL0     C18159   9.708  10.287   0.173 -0.2212  0.6812  0.3174
  876MOL0     O18160   9.821  10.338   0.118  0.0117  0.1856  0.0004
  876MOL0     C18161   9.953  10.304   0.173 -0.6240  0.3953 -0.7286
  876MOL0     C18162   9.972  10.152   0.157  0.2555  0.3928 -0.0895
  876MOL0     C18163  10.121  10.122   0.127  0.1325  0.2121 -0.0702
  876MOL0     C18164  10.159   9.967   0.136  0.6275  0.0326  0.0905
  876MOL0     C18165  10.302   9.942   0.092  0.0478 -0.8180 -0.5378
  876MOL0     C18166  10.339   9.802   0.055 -0.2098 -0.5044  0.1821
  876MOL0     C18167  10.285   9.765  -0.081 -0.4579  0.2136 -1.1284
  876MOL0     C18168  10.343   9.627  -0.139  0.5006  0.0476  0.6640
  876MOL0    Cl18169  10.354   9.497  -0.016  0.0172 -0.2543 -0.7950
  876MOL0     C18170   9.598  10.264   0.084 -0.7793  0.6578 -0.1268
  876MOL0     C18171   9.477  10.204   0.133 -0.4559  1.1158 -0.8411
  876MOL0     O18172   9.268  10.004   0.165 -0.4656 -0.2771  0.5640
  876MOL0     C18173   9.096  10.130   0.454 -0.4861  0.5354 -0.7840
  876MOL0     C18174   8.967  10.113   0.510 -0.1564 -0.5745 -0.2396
  876MOL0     N18175   8.671  10.149   1.197  0.1743 -0.6973  0.6013
  876MOL0     N18176   8.691  10.239   1.290 -0.6515 -0.1266 -0.1572
  876MOL0     C18177   7.820  10.597   1.274 -0.4155  0.2929  0.7263
  876MOL0     C18178   7.724  10.503   1.314  0.7407  0.9127  0.7482
  876MOL0     C18179   7.518  10.209   1.619  0.6529  0.6658 -0.1399
  876MOL0     C18180   7.473  10.095   1.557 -0.7937  0.1031 -0.1881
  876MOL0     C18181   7.376  10.010   1.609 -0.8696  0.3809  0.4660
  876MOL0     C18182   7.308  10.040   1.725 -0.0470 -0.0840  0.3327
  876MOL0     O18183   7.215   9.953   1.761  0.0974 -0.1133 -0.3492
  876MOL0     C18184   7.125   9.966   1.877  0.0715 -1.1756 -0.4310
  876MOL0     C18185   7.058   9.834   1.902  0.5669  0.3901 -0.0077
  876MOL0     C18186   6.943   9.802   1.804  0.0242  0.3367 -0.1801
  876MOL0     C18187   7.000   9.735   1.678  0.7103 -1.1413 -0.1940
  876MOL0     C18188   6.898   9.728   1.575 -0.6116  0.2280 -0.3694
  876MOL0     C18189   6.806   9.718   1.500  0.8484 -0.3067 -0.1811
  876MOL0     C18190   7.356  10.152   1.796  0.4724  0.2000 -0.0260
  876MOL0     C18191   7.453  10.236   1.742  0.4211 -0.4670 -0.5222
  876MOL0     C18192   7.482  10.366   1.806  0.3110 -1.2913  0.2557
  876MOL0     H18193   7.758  10.538   1.653  0.7812  0.3217  1.0997
  876MOL0     H18194   7.966  10.646   1.576  1.0073  0.5674 -0.5716
  876MOL0     H18195   8.166  10.608   1.437 -1.0137 -0.2497  0.5867
  876MOL0     H18196   8.141  10.526   1.287  0.2427  0.1815 -0.3416
  876MOL0     H18197   8.224  10.818   1.287 -2.2109 -0.5839  1.8829
  876MOL0     H18198   8.218  10.707   1.155  0.5228  1.3102  0.3274
  876MOL0     H18199   8.382  10.556   1.257  0.1725  0.1124 -0.5806
  876MOL0     H18200   8.393  10.663   1.403 -1.3586 -0.9533 -0.6313
  876MOL0     H18201   8.490  10.750   1.128 -2.0777  1.1679 -0.0738
  876MOL0     H18202   8.461  10.854   1.265  0.1152 -0.3585  3.0555
  876MOL0     H18203   8.715  10.765   1.233  0.1962 -1.4033 -0.8417
  876MOL0     H18204   8.649  10.746   1.393  0.0370  0.3983 -0.7163
  876MOL0     H18205   8.628  10.509   1.376 -0.3248 -1.6571 -1.7405
  876MOL0     H18206   8.639  10.518   1.203  2.9626 -2.5598  0.0453
  876MOL0     H18207   8.851  10.623   1.381  2.2790  1.7631 -1.7941
  876MOL0     H18208   8.878  10.575   1.217  2.8876  0.5900  1.9555
  876MOL0     H18209   8.973  10.397   1.342  0.1532  1.1173  0.0754
  876MOL0     H18210   8.828  10.386   1.444  1.9481  1.1048  1.4285
  876MOL0     H18211   8.954  10.274   1.094  1.2214 -1.5684  1.0767
  876MOL0     H18212   8.897  10.032   0.979  0.0502 -1.4633 -1.2462
  876MOL0     H18213   8.752   9.962   1.023 -0.0316  1.1431  1.8871
  876MOL0     H18214   8.621  10.108   0.866 -0.8344  0.9350 -0.0223
  876MOL0     H18215   8.766  10.208   0.844 -3.2527  0.3713  1.2123
  876MOL0     H18216   8.708   9.919   0.757  0.5631 -0.6302 -0.8455
  876MOL0     H18217   8.863  10.003   0.754 -0.0072 -1.4757 -1.7623
  876MOL0     H18218   8.732  10.197   0.623  0.2493  0.1918  1.8147
  876MOL0     H18219   8.593  10.092   0.622  0.7537 -0.3175 -1.3337
  876MOL0     H18220   8.806   9.941   0.278 -1.3533 -1.2388  3.0838
  876MOL0     H18221   9.039   9.949   0.172  2.4140  2.2166 -1.1823
  876MOL0     H18222   9.551  10.204   0.467 -1.0501  0.5698  0.4041
  876MOL0     H18223   9.778  10.272   0.379  0.5020 -0.3126 -0.6690
  876MOL0     H18224  10.043  10.349   0.130  1.3061  0.3675  2.9346
  876MOL0     H18225   9.960  10.333   0.278  2.6568 -0.5922 -0.5810
  876MOL0     H18226   9.931  10.099   0.244 -2.3152  2.0543 -0.1778
  876MOL0     H18227   9.918  10.118   0.068  0.8006  0.1284 -0.3224
  876MOL0     H18228  10.151  10.153   0.026  0.1561 -0.7154 -0.3560
  876MOL0     H18229  10.171  10.187   0.199 -1.4122  3.7807 -1.9538
  876MOL0     H18230  10.096   9.920   0.060 -1.3439  0.5837  1.2997
  876MOL0     H18231  10.130   9.932   0.236  0.9213  1.7718  0.8384
  876MOL0     H18232  10.376   9.981   0.162  0.0657 -0.0167 -0.9954
  876MOL0     H18233  10.316  10.005   0.004 -0.2375 -0.7015 -0.4999
  876MOL0     H18234  10.447   9.801   0.041 -0.3115  2.0184 -1.4927
  876MOL0     H18235  10.302   9.739   0.136 -2.5278 -0.2523 -0.6070
  876MOL0     H18236  10.310   9.838  -0.158  0.8027 -0.2969 -1.2296
  876MOL0     H18237  10.176   9.756  -0.079 -0.5525  1.2627 -1.0436
  876MOL0     H18238  10.290   9.594  -0.229  0.0587  1.3344  0.4383
  876MOL0     H18239  10.447   9.639  -0.172  1.6156 -1.8607  3.1205
  876MOL0     H18240   9.610  10.288  -0.021 -2.2386  0.9126 -0.2601
  876MOL0     H18241   9.401  10.170   0.064 -0.0251 -1.1286 -0.2787
  876MOL0     H18242   9.169  10.200   0.494  1.2080  0.4265 -3.4621
  876MOL0     H18243   8.949  10.162   0.605 -0.8192 -1.4111  0.0766
  876MOL0     H18244   7.854  10.610   1.172 -1.9716  1.2885  0.3121
  876MOL0     H18245   7.674  10.452   1.232  2.1743 -0.9031  0.9188
  876MOL0     H18246   7.514  10.067   1.461 -1.3688  2.2659 -1.1185
  876MOL0     H18247   7.342   9.921   1.557 -0.2502  0.6802 -0.4913
  876MOL0     H18248   7.055  10.046   1.851  1.0171  0.1415  0.9090
  876MOL0     H18249   7.182   9.999   1.965 -2.2157 -1.4890  1.2568
  876MOL0     H18250   7.020   9.840   2.005 -0.6936  1.7378 -0.5157
  876MOL0     H18251   7.123   9.747   1.902 -0.8393 -0.6924  0.0982
  876MOL0     H18252   6.893   9.896   1.779 -0.5277  0.3933  1.1104
  876MOL0     H18253   6.882   9.725   1.852  1.4745 -1.3285 -0.8860
  876MOL0     H18254   7.088   9.787   1.638  2.2168 -3.2756  0.1140
  876MOL0     H18255   7.034   9.633   1.702  0.3479 -1.7307 -1.9886
  876MOL0     H18256   6.719   9.720   1.437  1.5180 -1.2342 -1.1808
  876MOL0     H18257   7.310  10.163   1.894  0.0629  0.0809 -0.2035
  876MOL0     H18258   7.587  10.396   1.808  0.4478 -1.7129 -0.2545
  876MOL0     H18259   7.431  10.445   1.749  1.6437 -0.3321  0.3502
  876MOL0     H18260   7.440  10.365   1.907 -0.4850 -0.1233 -0.0408
  877MOL0     O18261   1.978  10.156   5.508  0.7488  0.0584  0.0340
  877MOL0     C18262   1.981  10.205   5.619  0.2727 -0.4874  0.2207
  877MOL0     O18263   2.032  10.152   5.734  0.4681  0.0597 -0.4271
  877MOL0     C18264   2.128  10.048   5.742 -0.0378 -0.5107 -0.1321
  877MOL0     C18265   2.111   9.931   5.671 -0.6400 -0.1940  0.3385
  877MOL0     C18266   2.181   9.820   5.712 -0.8447  0.0416  0.0700
  877MOL0     C18267   2.291   9.827   5.805  0.2562  0.6097 -0.2658
  877MOL0     O18268   2.368   9.722   5.847  0.7031  1.1598 -0.5837
  877MOL0     C18269   2.492   9.693   5.784 -0.1953 -0.0873  0.3864
  877MOL0     C18270   2.466   9.637   5.645  0.0375 -0.2479 -0.0708
  877MOL0     C18271   2.593   9.601   5.564  0.5178  0.3664 -0.0879
  877MOL0     C18272   2.659   9.729   5.527  0.4313  0.7374  0.3442
  877MOL0     C18273   2.740   9.724   5.398 -0.0965 -0.0531 -0.0023
  877MOL0     C18274   2.850   9.614   5.390 -0.5582 -0.1737  0.2269
  877MOL0     C18275   2.922   9.638   5.258 -0.0340 -0.1503  0.0023
  877MOL0     C18276   3.031   9.529   5.240  0.5401 -0.8869  0.4029
  877MOL0     N18277   3.150   9.547   5.326  0.9168 -0.8271 -0.3784
  877MOL0     C18278   3.244   9.646   5.294 -0.3864  1.0324  0.0187
  877MOL0     C18279   3.335   9.636   5.392  0.0713 -0.4230  0.1711
  877MOL0     C18280   3.457   9.716   5.398  0.5431  0.1637  0.2689
  877MOL0     C18281   3.421   9.864   5.418  0.4086  0.0617 -0.2859
  877MOL0     C18282   3.543   9.945   5.453 -0.0108 -0.3156 -0.8956
  877MOL0     C18283   3.619   9.992   5.328  0.5505  0.1488  0.4085
  877MOL0     O18284   3.722  10.095   5.357  0.3818 -0.4232  0.0876
  877MOL0     C18285   3.849  10.057   5.370 -0.2267 -0.2280  0.1887
  877MOL0     C18286   3.894   9.932   5.397 -0.4250  0.1678  0.5218
  877MOL0     C18287   4.027   9.914   5.418  0.4640  0.4926 -0.1453
  877MOL0     C18288   4.122  10.013   5.405 -0.6209 -0.1652  0.8532
  877MOL0     C18289   4.272   9.990   5.416  0.0639  0.7524 -0.4542
  877MOL0     O18290   4.357  10.098   5.400  0.0370  0.2650 -0.3141
  877MOL0     C18291   4.493  10.085   5.416  0.1093 -0.0984 -0.1479
  877MOL0     C18292   4.543  10.061   5.544  0.3490  0.2876  0.3471
  877MOL0     C18293   4.680  10.049   5.569 -1.1513 -1.0568 -0.3912
  877MOL0     C18294   4.768  10.062   5.459  0.1619 -0.6839 -0.0432
  877MOL0     O18295   4.904  10.056   5.477  0.2816  0.2453 -0.0444
  877MOL0     C18296   4.991  10.034   5.370 -0.1954 -0.1754  0.1398
  877MOL0     C18297   5.124   9.987   5.428  0.4567  0.2339 -0.6056
  877MOL0     C18298   5.223   9.915   5.321  0.2563 -0.7779 -1.1066
  877MOL0     C18299   5.219   9.761   5.333 -0.5478 -0.8050 -0.4539
  877MOL0     C18300   5.080   9.702   5.324 -0.1074  0.0087  0.5710
  877MOL0     C18301   5.061   9.550   5.350  0.2773  0.1554 -0.2371
  877MOL0     C18302   4.919   9.495   5.317 -0.1121  0.4225 -0.1641
  877MOL0     C18303   4.907   9.337   5.322  0.3833  0.5882 -0.1530
  877MOL0    Cl18304   4.741   9.267   5.324 -0.2109 -0.0666 -0.2494
  877MOL0     C18305   4.722  10.081   5.330 -1.0652  0.0616 -0.7082
  877MOL0     C18306   4.585  10.091   5.313  0.1208 -0.2341  0.6497
  877MOL0     O18307   4.316   9.883   5.460 -0.0956 -0.1038  0.0836
  877MOL0     C18308   4.073  10.140   5.388  0.5898  0.2911  0.1941
  877MOL0     C18309   3.936  10.160   5.370 -1.2925  0.0022 -0.6258
  877MOL0     N18310   3.305   9.527   5.473 -0.1841  0.1223  0.5060
  877MOL0     N18311   3.192   9.476   5.443  0.4319 -0.0728  1.2228
  877MOL0     C18312   2.324   9.952   5.860  0.9114 -0.5633 -0.0758
  877MOL0     C18313   2.235  10.064   5.832 -0.5711  0.7907 -0.6022
  877MOL0     C18314   1.911  10.337   5.638 -0.2048  0.7412  0.3345
  877MOL0     C18315   1.854  10.362   5.761  0.4087  0.3458 -0.7517
  877MOL0     C18316   1.804  10.484   5.794 -0.0265 -0.1797  0.0911
  877MOL0     C18317   1.797  10.589   5.706  0.5109 -0.3950  0.2341
  877MOL0     O18318   1.772  10.720   5.741  0.4899  0.0155 -0.8222
  877MOL0     C18319   1.753  10.765   5.879 -0.4981  0.0778  0.3866
  877MOL0     C18320   1.734  10.921   5.874  1.1486  0.2411  0.4484
  877MOL0     C18321   1.603  10.961   5.810  0.2478  0.5812  0.7437
  877MOL0     C18322   1.592  11.109   5.818 -0.7168 -0.3746 -0.2976
  877MOL0     C18323   1.448  11.144   5.838 -0.7944  0.7177  0.3729
  877MOL0     C18324   1.332  11.148   5.876 -0.2167 -0.0860 -0.1675
  877MOL0     C18325   1.848  10.565   5.581 -0.4909 -0.1860  1.4778
  877MOL0     C18326   1.912  10.442   5.544  0.0903 -0.6753  0.2474
  877MOL0     C18327   1.986  10.439   5.410 -0.1586 -0.4813  0.2266
  877MOL0     H18328   2.035   9.928   5.593  1.1890  0.3645 -1.5673
  877MOL0     H18329   2.154   9.724   5.668  1.5976 -1.9337  2.5304
  877MOL0     H18330   2.558   9.780   5.776  2.8737 -2.3296 -0.7794
  877MOL0     H18331   2.554   9.615   5.830  2.2995  0.9808 -0.9879
  877MOL0     H18332   2.408   9.706   5.584 -0.2949  0.6044  1.1815
  877MOL0     H18333   2.407   9.545   5.658 -1.9788  1.3027  2.7229
  877MOL0     H18334   2.560   9.549   5.474  2.8393 -0.8515 -0.3147
  877MOL0     H18335   2.669   9.536   5.610  0.4601 -0.3436 -0.9663
  877MOL0     H18336   2.585   9.806   5.505 -2.0235 -1.7147 -0.4935
  877MOL0     H18337   2.721   9.764   5.610 -0.4037  4.6573 -0.5282
  877MOL0     H18338   2.665   9.715   5.319 -1.3804  0.1427  1.1325
  877MOL0     H18339   2.789   9.822   5.395  2.8197 -1.4222 -3.6825
  877MOL0     H18340   2.923   9.625   5.470  2.1894 -2.0308 -1.8528
  877MOL0     H18341   2.807   9.515   5.376  0.7604 -0.5566 -1.4174
  877MOL0     H18342   2.969   9.735   5.241  0.1831 -0.4279 -1.0388
  877MOL0     H18343   2.857   9.620   5.173  0.7764 -2.9848 -0.1271
  877MOL0     H18344   2.982   9.433   5.257 -1.8346  0.0965 -0.5614
  877MOL0     H18345   3.059   9.524   5.134  0.4203 -1.1298  0.3825
  877MOL0     H18346   3.249   9.713   5.210 -2.7448  1.8012  0.4051
  877MOL0     H18347   3.522   9.682   5.479  2.9849  1.0880 -1.1722
  877MOL0     H18348   3.516   9.702   5.306  1.8883 -0.5107  1.2003
  877MOL0     H18349   3.378   9.902   5.324 -1.6201 -0.7923  0.2477
  877MOL0     H18350   3.338   9.879   5.488  0.8770  0.8256  0.1072
  877MOL0     H18351   3.619   9.893   5.512  0.7752  0.1323 -1.4938
  877MOL0     H18352   3.532  10.043   5.500 -0.2691 -0.5654 -0.4374
  877MOL0     H18353   3.546  10.046   5.268  1.4055 -0.4036 -1.1793
  877MOL0     H18354   3.657   9.903   5.276  0.3468 -1.6009  3.0430
  877MOL0     H18355   3.830   9.845   5.412  0.9008 -0.3679  3.8415
  877MOL0     H18356   4.061   9.811   5.430  0.3986  0.6228  1.3718
  877MOL0     H18357   4.483  10.051   5.634  0.7138 -0.4347  0.5205
  877MOL0     H18358   4.722  10.040   5.669 -0.0569 -0.7872 -0.8109
  877MOL0     H18359   4.956   9.952   5.307  1.7643 -1.1310  0.2160
  877MOL0     H18360   5.004  10.123   5.308 -1.7400 -0.9392 -1.3662
  877MOL0     H18361   5.186  10.066   5.471  2.3861 -0.1155 -2.5711
  877MOL0     H18362   5.104   9.914   5.507 -0.3138 -1.9579 -2.7203
  877MOL0     H18363   5.196   9.956   5.223 -1.2778  2.1385  0.3735
  877MOL0     H18364   5.326   9.950   5.334  0.1784 -0.7857 -0.4362
  877MOL0     H18365   5.278   9.737   5.423  0.2528 -0.2423 -0.8205
  877MOL0     H18366   5.277   9.717   5.252  0.9182  0.7086 -0.2796
  877MOL0     H18367   5.050   9.723   5.221  0.7209 -0.1478  0.2882
  877MOL0     H18368   5.008   9.752   5.389 -0.2032  1.0882 -0.3398
  877MOL0     H18369   5.137   9.495   5.293 -0.0177 -1.0705  0.5259
  877MOL0     H18370   5.064   9.533   5.458  0.8327  1.7553  0.0255
  877MOL0     H18371   4.889   9.528   5.218 -0.2875  0.4210 -0.1111
  877MOL0     H18372   4.842   9.533   5.386  1.8850 -0.5353  2.8022
  877MOL0     H18373   4.964   9.302   5.235  0.5486  1.2616 -0.3204
  877MOL0     H18374   4.960   9.310   5.414 -3.2083 -1.7769  1.4324
  877MOL0     H18375   4.791  10.078   5.247  0.3273  1.9884  0.2830
  877MOL0     H18376   4.543  10.122   5.217 -0.6664  2.2592  1.6875
  877MOL0     H18377   4.135  10.229   5.378 -2.7144  2.6953 -0.8153
  877MOL0     H18378   3.890  10.256   5.350  0.8112  0.7942 -2.0152
  877MOL0     H18379   2.414   9.956   5.920  0.4523  2.1394  0.5793
  877MOL0     H18380   2.238  10.164   5.875 -2.0565  0.9478 -0.8141
  877MOL0     H18381   1.842  10.300   5.849  0.0746  1.2199 -0.1726
  877MOL0     H18382   1.747  10.493   5.885 -2.5494 -0.4110 -1.3652
  877MOL0     H18383   1.844  10.739   5.935  0.6994 -3.5725 -2.8348
  877MOL0     H18384   1.666  10.712   5.919 -1.3527  0.6009 -0.7334
  877MOL0     H18385   1.814  10.963   5.813  2.0215 -1.8476  0.0907
  877MOL0     H18386   1.728  10.956   5.978 -3.2218  1.1948  0.0703
  877MOL0     H18387   1.517  10.914   5.857  0.8199  2.5047  4.0426
  877MOL0     H18388   1.605  10.938   5.703 -1.5023 -1.9217  1.1744
  877MOL0     H18389   1.661  11.148   5.894  0.6082 -1.6790 -0.7545
  877MOL0     H18390   1.623  11.139   5.718  0.3339  2.2769  0.7518
  877MOL0     H18391   1.227  11.148   5.896 -0.3966  0.4038 -1.0671
  877MOL0     H18392   1.849  10.654   5.519 -1.0660 -0.7386  0.6442
  877MOL0     H18393   1.934  10.365   5.348 -0.4397 -0.8032  0.8306
  877MOL0     H18394   1.990  10.538   5.365 -1.8898  0.2453  1.5210
  877MOL0     H18395   2.082  10.390   5.427 -0.5851 -1.0913  0.9295
  878MOL0     O18396   3.943  11.252   6.235 -0.1939  0.1576  0.1623
  878MOL0     C18397   3.948  11.271   6.115 -0.9645 -0.2520 -0.1873
  878MOL0     O18398   4.059  11.314   6.053  0.2014  0.1994  0.3323
  878MOL0     C18399   4.165  11.349   6.135 -0.3602 -0.0660  0.0735
  878MOL0     C18400   4.154  11.463   6.223 -1.0345  0.6919 -1.5305
  878MOL0     C18401   4.256  11.485   6.320  0.1268  0.2864 -0.4746
  878MOL0     C18402   4.372  11.407   6.319  0.4255  0.6662 -0.1870
  878MOL0     O18403   4.460  11.431   6.423  0.6099  0.1044  0.0360
  878MOL0     C18404   4.598  11.399   6.401 -0.3924  0.0373 -0.8442
  878MOL0     C18405   4.673  11.454   6.520  0.0729 -0.2869  0.1759
  878MOL0     C18406   4.821  11.483   6.495  0.7832  0.0572  0.1230
  878MOL0     C18407   4.898  11.541   6.615  0.3508 -0.4222 -0.1117
  878MOL0     C18408   5.046  11.560   6.576  0.4840 -0.1371  0.9829
  878MOL0     C18409   5.133  11.593   6.697  0.0726  0.3271  0.0183
  878MOL0     C18410   5.272  11.623   6.652 -0.2289 -0.3319 -0.0472
  878MOL0     C18411   5.363  11.658   6.766 -0.6051  0.5113  0.6647
  878MOL0     N18412   5.510  11.651   6.738  0.1225 -0.1214 -0.6877
  878MOL0     C18413   5.571  11.705   6.624  1.4974 -0.4107 -0.3082
  878MOL0     C18414   5.702  11.687   6.643  0.5720  0.1851 -0.4446
  878MOL0     C18415   5.818  11.700   6.545  0.1044 -0.6967  0.8345
  878MOL0     C18416   5.928  11.793   6.587  0.6432  0.5522 -0.8171
  878MOL0     C18417   6.058  11.715   6.608 -0.4467  0.0981 -0.6840
  878MOL0     C18418   6.187  11.792   6.649 -0.4190 -0.0737 -0.2206
  878MOL0     O18419   6.206  11.899   6.550 -0.0174  0.1450  0.1893
  878MOL0     C18420   6.322  11.970   6.564  0.6400 -0.1121 -0.2782
  878MOL0     C18421   6.337  12.079   6.474 -0.5390  1.0893  0.0833
  878MOL0     C18422   6.430  12.180   6.495  0.1682 -0.0224 -0.0423
  878MOL0     C18423   6.529  12.166   6.599 -0.0829 -0.2422 -0.6881
  878MOL0     C18424   6.628  12.270   6.625 -0.0485 -1.1921 -0.0363
  878MOL0     O18425   6.597  12.401   6.584  0.3957  0.1207  0.5316
  878MOL0     C18426   6.693  12.495   6.582  1.0255 -0.3752  0.1108
  878MOL0     C18427   6.719  12.557   6.704 -0.6765 -0.4804  0.2418
  878MOL0     C18428   6.818  12.661   6.713  0.6517  0.6443  0.2012
  878MOL0     C18429   6.872  12.712   6.594 -0.0172  0.0324  0.6783
  878MOL0     O18430   6.959  12.824   6.605 -0.1266  0.3612 -0.5783
  878MOL0     C18431   7.077  12.821   6.516 -0.1105  0.3573  0.0515
  878MOL0     C18432   7.168  12.928   6.581 -0.2748 -0.7463 -0.6037
  878MOL0     C18433   7.301  12.960   6.509 -0.1379 -0.3367 -0.4435
  878MOL0     C18434   7.367  13.088   6.561 -0.6422 -0.0345  0.2316
  878MOL0     C18435   7.514  13.115   6.533  0.2715 -0.6517  0.6831
  878MOL0     C18436   7.541  13.175   6.389 -0.2083  0.3668 -0.5528
  878MOL0     C18437   7.680  13.228   6.384 -0.3103 -0.3992 -0.5630
  878MOL0     C18438   7.706  13.300   6.248  0.2872 -0.0987 -0.4148
  878MOL0    Cl18439   7.587  13.425   6.217 -0.4802 -0.0491 -0.2520
  878MOL0     C18440   6.843  12.642   6.475  0.7520 -0.4741  0.1473
  878MOL0     C18441   6.758  12.529   6.465  0.4158 -0.4571  0.3995
  878MOL0     O18442   6.729  12.235   6.685  0.1289  0.1810 -0.5407
  878MOL0     C18443   6.526  12.045   6.677  0.0018 -1.7812  0.3128
  878MOL0     C18444   6.425  11.956   6.662 -0.2561 -0.4676  0.1219
  878MOL0     N18445   5.720  11.625   6.763  0.5601 -0.4771 -0.1925
  878MOL0     N18446   5.603  11.603   6.823 -0.0088  0.0330 -0.7669
  878MOL0     C18447   4.396  11.320   6.209  0.6310 -0.4570 -0.5260
  878MOL0     C18448   4.286  11.281   6.131  0.1766  0.6047 -0.2625
  878MOL0     C18449   3.830  11.251   6.030 -0.6294 -0.9135 -0.7372
  878MOL0     C18450   3.832  11.321   5.908 -1.0319  0.0593  0.0706
  878MOL0     C18451   3.734  11.313   5.820 -0.7825 -0.5002  0.5214
  878MOL0     C18452   3.620  11.243   5.847 -0.5490 -0.0923  0.7475
  878MOL0     O18453   3.517  11.237   5.757  0.1555 -0.5224  0.6178
  878MOL0     C18454   3.528  11.314   5.633  0.4529  0.2896  0.0816
  878MOL0     C18455   3.475  11.455   5.661  0.1168 -0.0009  0.1547
  878MOL0     C18456   3.470  11.542   5.522  0.3239  0.7554 -0.9671
  878MOL0     C18457   3.404  11.478   5.398 -0.3138 -0.3226  0.7584
  878MOL0     C18458   3.498  11.397   5.316  0.0675 -0.9430 -1.3402
  878MOL0     C18459   3.563  11.321   5.250 -1.0034 -0.5571  1.2155
  878MOL0     C18460   3.606  11.167   5.956 -0.4705 -0.4748 -0.4301
  878MOL0     C18461   3.711  11.170   6.057  0.3621  0.4967  0.2935
  878MOL0     C18462   3.703  11.079   6.184 -0.1944 -0.6586  0.7062
  878MOL0     H18463   4.064  11.524   6.216 -2.3972 -1.0323 -0.2961
  878MOL0     H18464   4.253  11.566   6.392 -1.0358 -0.1306 -0.0350
  878MOL0     H18465   4.608  11.290   6.411  2.7713  0.3247  0.5912
  878MOL0     H18466   4.646  11.448   6.316 -1.1321  3.3073  0.4749
  878MOL0     H18467   4.660  11.390   6.608 -0.1951 -1.6651 -0.8382
  878MOL0     H18468   4.624  11.549   6.546  3.5408  2.3298 -2.0671
  878MOL0     H18469   4.820  11.552   6.410 -2.9951  1.6936  1.3263
  878MOL0     H18470   4.864  11.384   6.474 -0.1968 -0.7305  1.6176
  878MOL0     H18471   4.851  11.637   6.641 -1.6724 -1.5263  0.5630
  878MOL0     H18472   4.891  11.475   6.703  0.3290 -0.7510 -0.3599
  878MOL0     H18473   5.084  11.464   6.538  0.5267  1.0026 -2.1528
  878MOL0     H18474   5.055  11.635   6.497  0.4277 -1.1780 -0.0348
  878MOL0     H18475   5.086  11.678   6.748 -0.5352 -1.0883  1.9528
  878MOL0     H18476   5.141  11.508   6.766  0.8536  0.8687  0.6093
  878MOL0     H18477   5.268  11.693   6.568 -0.1708 -0.9954 -0.6226
  878MOL0     H18478   5.310  11.530   6.608  1.9301 -0.6307  2.2484
  878MOL0     H18479   5.333  11.755   6.807 -0.0087 -0.1830  2.9376
  878MOL0     H18480   5.341  11.590   6.849 -1.4157  0.2624  0.2611
  878MOL0     H18481   5.526  11.745   6.533  1.9668  0.5512 -0.1298
  878MOL0     H18482   5.853  11.598   6.525 -0.6470 -0.5338 -1.7409
  878MOL0     H18483   5.775  11.744   6.454 -1.6302  0.5207  2.1629
  878MOL0     H18484   5.952  11.868   6.511  1.4027  1.9285  0.7212
  878MOL0     H18485   5.906  11.858   6.672  0.4878 -1.0586  0.4169
  878MOL0     H18486   6.087  11.665   6.516  1.3514  0.0323 -0.1250
  878MOL0     H18487   6.049  11.631   6.678  0.1594 -0.5508 -1.3708
  878MOL0     H18488   6.275  11.728   6.660 -1.4511 -1.8043 -1.5197
  878MOL0     H18489   6.168  11.824   6.752 -1.4979 -2.4998  0.4164
  878MOL0     H18490   6.262  12.085   6.396 -0.0657 -0.7416 -0.5736
  878MOL0     H18491   6.435  12.269   6.433 -0.7020 -1.3337 -2.1021
  878MOL0     H18492   6.662  12.535   6.794 -1.3891  2.6854  0.6973
  878MOL0     H18493   6.842  12.711   6.806 -2.6368  0.6618  1.1585
  878MOL0     H18494   7.134  12.729   6.537  1.5756  1.7680  2.0418
  878MOL0     H18495   7.055  12.834   6.410 -0.3318  0.4143  0.1052
  878MOL0     H18496   7.123  13.028   6.581 -0.9218 -0.9628  2.0404
  878MOL0     H18497   7.202  12.898   6.681  0.2933 -1.6244 -1.0433
  878MOL0     H18498   7.364  12.870   6.511 -0.3735 -0.5036  2.0625
  878MOL0     H18499   7.286  12.980   6.402  0.6845  0.5204 -0.4156
  878MOL0     H18500   7.362  13.067   6.669  0.4999 -1.6301  0.0222
  878MOL0     H18501   7.312  13.181   6.546  1.4106  0.9392 -1.9551
  878MOL0     H18502   7.573  13.026   6.554 -3.0285 -2.8463  1.4660
  878MOL0     H18503   7.536  13.199   6.600 -3.2134 -1.9913  3.8861
  878MOL0     H18504   7.537  13.091   6.318  1.7747  0.1915 -0.5341
  878MOL0     H18505   7.466  13.245   6.353 -0.2188  0.5509 -0.1707
  878MOL0     H18506   7.759  13.152   6.384 -0.5451 -0.6448 -0.4741
  878MOL0     H18507   7.673  13.306   6.460 -1.1295  0.4683 -1.4995
  878MOL0     H18508   7.802  13.351   6.244 -1.4582  3.5140 -0.8408
  878MOL0     H18509   7.701  13.228   6.165  1.4490 -0.1965 -0.4098
  878MOL0     H18510   6.894  12.681   6.388 -1.2141 -0.7107 -1.1915
  878MOL0     H18511   6.739  12.481   6.369 -1.7408  0.7912  0.1459
  878MOL0     H18512   6.604  12.025   6.750 -0.7000 -2.3874  0.9097
  878MOL0     H18513   6.432  11.865   6.720 -0.5433  0.0619  0.9939
  878MOL0     H18514   4.490  11.268   6.188  1.2252  0.1211  0.6124
  878MOL0     H18515   4.295  11.205   6.053  1.9855  0.4383  0.0572
  878MOL0     H18516   3.912  11.386   5.875  0.6597 -1.1428  1.5724
  878MOL0     H18517   3.745  11.371   5.729  0.7812  1.4896  1.8865
  878MOL0     H18518   3.468  11.258   5.560 -2.7113  3.3242  0.0502
  878MOL0     H18519   3.625  11.304   5.585  1.6994 -1.5673  2.7737
  878MOL0     H18520   3.527  11.503   5.744 -0.8542  3.3134 -0.9908
  878MOL0     H18521   3.372  11.439   5.693  0.3164 -0.5970  0.5107
  878MOL0     H18522   3.573  11.576   5.507  2.3280 -1.2308  4.9860
  878MOL0     H18523   3.410  11.631   5.543  0.2578  0.6569 -0.7331
  878MOL0     H18524   3.326  11.410   5.432 -0.3971 -0.1095  0.9963
  878MOL0     H18525   3.369  11.558   5.332  3.4785  0.3202 -0.7021
  878MOL0     H18526   3.609  11.241   5.195 -1.2036  0.0220  0.1920
  878MOL0     H18527   3.517  11.109   5.975 -0.7233 -0.7696 -2.3698
  878MOL0     H18528   3.804  11.041   6.201 -0.6112 -2.3311 -0.3002
  878MOL0     H18529   3.665  11.138   6.267 -1.1117 -1.4540  0.8782
  878MOL0     H18530   3.632  10.996   6.171  1.1646 -1.8989  0.9442
  879MOL0     O18531   7.014   1.331   1.868  0.1133 -0.5338  0.3705
  879MOL0     C18532   6.942   1.405   1.934 -0.3166 -0.2226  0.5282
  879MOL0     O18533   6.964   1.539   1.955 -0.1771  0.1461  0.4838
  879MOL0     C18534   7.073   1.616   1.925  0.3442 -0.6735 -0.1749
  879MOL0     C18535   7.205   1.564   1.919  0.3641  0.2058  0.0967
  879MOL0     C18536   7.309   1.649   1.887 -0.0736 -0.2614 -0.6810
  879MOL0     C18537   7.284   1.783   1.852 -0.2427 -0.2587  0.8939
  879MOL0     O18538   7.378   1.867   1.793 -0.2675  0.0157  0.3068
  879MOL0     C18539   7.508   1.851   1.841 -0.0869 -0.3967 -0.2241
  879MOL0     C18540   7.579   1.980   1.817  0.5975  0.0751  0.2844
  879MOL0     C18541   7.718   1.975   1.877  0.0128 -0.9377  0.6037
  879MOL0     C18542   7.817   2.077   1.803  0.0033  0.3571  0.1558
  879MOL0     C18543   7.955   2.082   1.871 -0.4792 -0.7511  0.0870
  879MOL0     C18544   8.039   2.182   1.784  0.4652  0.0954  0.4343
  879MOL0     C18545   8.165   2.218   1.860 -0.3218 -0.1502  0.0481
  879MOL0     C18546   8.266   2.299   1.785  0.0711 -0.4419 -0.6392
  879MOL0     N18547   8.350   2.223   1.698 -0.2380  0.2913  0.5533
  879MOL0     C18548   8.327   2.174   1.571  0.2875 -0.4213 -0.2035
  879MOL0     C18549   8.432   2.100   1.537  0.1039  0.8708 -0.4283
  879MOL0     C18550   8.459   2.010   1.421  0.3730  0.5332  0.0209
  879MOL0     C18551   8.588   2.048   1.351  0.3477  0.5544 -0.2480
  879MOL0     C18552   8.632   1.931   1.257 -0.8566 -0.0557 -0.3689
  879MOL0     C18553   8.785   1.913   1.242 -0.3862 -0.3081 -0.3404
  879MOL0     O18554   8.864   2.034   1.214  0.7179 -0.4424 -0.3813
  879MOL0     C18555   8.997   2.020   1.250  0.0935 -0.2898 -0.7090
  879MOL0     C18556   9.052   2.106   1.352  0.0685 -0.4411 -0.4495
  879MOL0     C18557   9.186   2.109   1.374 -0.0997  0.7692  0.2110
  879MOL0     C18558   9.271   2.016   1.301  0.3715 -0.0681  0.3296
  879MOL0     C18559   9.415   2.029   1.310  0.2875 -0.3477  1.0888
  879MOL0     O18560   9.463   2.152   1.358 -0.2755  0.2905 -0.6086
  879MOL0     C18561   9.599   2.175   1.393  0.6737  0.6564  0.4754
  879MOL0     C18562   9.668   2.092   1.483 -0.3904  0.4564 -0.1894
  879MOL0     C18563   9.798   2.124   1.521 -0.6277 -0.6337  0.9133
  879MOL0     C18564   9.855   2.245   1.474  0.0374 -0.1511  0.1028
  879MOL0     O18565   9.986   2.283   1.499 -0.3409  0.6094 -0.1116
  879MOL0     C18566  10.083   2.185   1.544  0.2819  0.0838  0.2975
  879MOL0     C18567  10.222   2.255   1.559  0.0335 -0.2702  0.9492
  879MOL0     C18568  10.278   2.284   1.417 -1.2361 -0.4021 -0.1461
  879MOL0     C18569  10.385   2.397   1.407  0.4982  0.4778 -0.3064
  879MOL0     C18570  10.491   2.384   1.520  0.5980  0.4550 -0.0400
  879MOL0     C18571  10.599   2.489   1.492  0.0467 -0.2220  0.4956
  879MOL0     C18572  10.713   2.487   1.590  1.5631  0.1813  0.4947
  879MOL0     C18573  10.777   2.344   1.606 -0.3099  0.1531 -0.4053
  879MOL0    Cl18574  10.852   2.298   1.452  0.1429 -0.0526  0.0108
  879MOL0     C18575   9.781   2.322   1.376  0.2971 -0.0500 -0.1647
  879MOL0     C18576   9.653   2.290   1.345  0.2595 -0.2632 -0.0067
  879MOL0     O18577   9.481   1.932   1.277  0.9387  1.3389 -0.0380
  879MOL0     C18578   9.212   1.927   1.211 -0.7565 -0.1319  0.2604
  879MOL0     C18579   9.080   1.941   1.176 -0.6626 -0.2915 -0.3642
  879MOL0     N18580   8.521   2.107   1.643  0.2476 -0.8460 -0.3474
  879MOL0     N18581   8.479   2.195   1.731  0.0575  0.3132  0.1755
  879MOL0     C18582   7.159   1.838   1.872  0.2877  0.8593 -0.1978
  879MOL0     C18583   7.048   1.757   1.904 -0.4129  0.5112  0.9947
  879MOL0     C18584   6.820   1.353   1.995 -0.7731 -1.1109  0.5184
  879MOL0     C18585   6.714   1.435   2.030 -0.9691 -0.4305 -0.8226
  879MOL0     C18586   6.577   1.392   2.051  0.3172  0.6353  0.3196
  879MOL0     C18587   6.555   1.247   2.053 -1.6271  0.3192 -0.1338
  879MOL0     O18588   6.436   1.182   2.046 -0.2576  0.4220  0.6312
  879MOL0     C18589   6.318   1.260   2.003 -1.2939  0.6773 -0.1448
  879MOL0     C18590   6.242   1.181   1.901  0.1731 -0.1800 -0.3951
  879MOL0     C18591   6.179   1.050   1.948  0.2107 -0.3481 -0.3132
  879MOL0     C18592   6.063   1.074   2.051  0.0404  1.2130  0.5146
  879MOL0     C18593   5.932   1.107   1.995  0.1123  0.5796 -0.2741
  879MOL0     C18594   5.818   1.100   1.970  0.4991  0.0317  0.2937
  879MOL0     C18595   6.669   1.162   2.049  0.3477  0.6611  0.7956
  879MOL0     C18596   6.793   1.211   2.008 -0.5245 -0.5068  0.7543
  879MOL0     C18597   6.910   1.113   2.009  0.1623 -0.3506 -0.6385
  879MOL0     H18598   7.218   1.458   1.942  0.7576  0.5099  1.3528
  879MOL0     H18599   7.406   1.603   1.872  1.4528  2.7170 -0.6156
  879MOL0     H18600   7.510   1.832   1.949 -0.1200 -2.4469 -0.5303
  879MOL0     H18601   7.551   1.763   1.791 -1.7387 -1.2053 -0.2913
  879MOL0     H18602   7.523   2.062   1.862  0.7808  1.4694 -1.8800
  879MOL0     H18603   7.582   1.993   1.708  1.3781 -1.4270  0.0962
  879MOL0     H18604   7.753   1.871   1.872  0.0681 -0.9581  1.3053
  879MOL0     H18605   7.705   2.007   1.981 -2.1144  0.3545 -0.0146
  879MOL0     H18606   7.824   2.051   1.697  2.5349 -3.4756  1.0663
  879MOL0     H18607   7.769   2.176   1.798  0.2032  0.4962  0.9574
  879MOL0     H18608   7.951   2.116   1.975  1.6119 -0.9312  0.2746
  879MOL0     H18609   8.005   1.985   1.879  0.2039 -0.4555 -0.4766
  879MOL0     H18610   8.054   2.145   1.682 -3.6203 -0.8866  0.0243
  879MOL0     H18611   7.983   2.276   1.777 -2.6862 -1.7548 -1.8208
  879MOL0     H18612   8.220   2.130   1.894 -0.5680 -1.3062 -2.3333
  879MOL0     H18613   8.140   2.267   1.954  2.9372  0.5333  0.6829
  879MOL0     H18614   8.214   2.378   1.729  1.9104 -0.0724 -1.8776
  879MOL0     H18615   8.325   2.354   1.860  0.0718  0.7836 -1.5066
  879MOL0     H18616   8.239   2.188   1.509  1.0170 -1.1081 -1.4266
  879MOL0     H18617   8.461   1.909   1.462 -1.2568  0.2622 -0.5198
  879MOL0     H18618   8.373   2.009   1.354 -0.9614  0.7076  1.6740
  879MOL0     H18619   8.570   2.141   1.297  0.9413  0.3158 -0.8718
  879MOL0     H18620   8.666   2.066   1.426 -1.1097  2.6209  0.8603
  879MOL0     H18621   8.585   1.950   1.159  0.3857 -1.0961 -1.1956
  879MOL0     H18622   8.590   1.834   1.284 -0.0956  0.0807  1.4213
  879MOL0     H18623   8.817   1.844   1.163  2.0397 -1.2503  1.3450
  879MOL0     H18624   8.817   1.879   1.340 -1.0635  1.2997  0.4810
  879MOL0     H18625   8.999   2.181   1.409  3.6736  1.3815  0.7842
  879MOL0     H18626   9.232   2.178   1.445 -0.3101 -1.9721  3.2388
  879MOL0     H18627   9.627   1.997   1.516  0.3083  0.4875  0.8017
  879MOL0     H18628   9.854   2.055   1.584  3.4716  1.0848 -0.5245
  879MOL0     H18629  10.059   2.145   1.643 -0.3286 -2.5032 -0.7968
  879MOL0     H18630  10.088   2.101   1.473  1.0834 -0.3268  0.8179
  879MOL0     H18631  10.217   2.357   1.598  0.6039  1.0651 -2.1343
  879MOL0     H18632  10.284   2.192   1.623 -0.2449 -1.3810  0.1428
  879MOL0     H18633  10.332   2.192   1.389  0.8318  0.9986 -1.0097
  879MOL0     H18634  10.197   2.304   1.346 -1.4028  3.1128  0.8831
  879MOL0     H18635  10.331   2.492   1.415 -3.0841 -1.3412 -0.7041
  879MOL0     H18636  10.432   2.402   1.308 -0.7553 -1.1878 -1.0629
  879MOL0     H18637  10.525   2.280   1.518 -2.0871 -0.4868 -0.6464
  879MOL0     H18638  10.454   2.403   1.621  0.8538  3.8449 -0.4825
  879MOL0     H18639  10.641   2.476   1.391  1.2147 -0.1464  0.9625
  879MOL0     H18640  10.549   2.586   1.489  1.2219  0.4077  0.5288
  879MOL0     H18641  10.669   2.514   1.686 -2.5963 -1.5030 -0.7316
  879MOL0     H18642  10.785   2.568   1.572  0.8877  0.9752  1.2703
  879MOL0     H18643  10.860   2.347   1.678 -0.5513 -1.7449 -0.0131
  879MOL0     H18644  10.703   2.267   1.628  0.8320 -0.1729  2.9142
  879MOL0     H18645   9.832   2.400   1.320 -4.2772  2.7013 -1.0441
  879MOL0     H18646   9.595   2.356   1.281 -0.1246 -1.5719 -1.0455
  879MOL0     H18647   9.267   1.848   1.159 -0.4892 -2.1594  3.3477
  879MOL0     H18648   9.039   1.879   1.097  0.0715 -0.4324 -0.6465
  879MOL0     H18649   7.153   1.945   1.860  1.7779  0.8024 -1.6573
  879MOL0     H18650   6.949   1.798   1.925 -0.8439 -0.7606  1.5576
  879MOL0     H18651   6.732   1.541   2.024 -0.5573 -0.2827  1.9217
  879MOL0     H18652   6.498   1.467   2.053 -0.4315 -0.0494 -1.7018
  879MOL0     H18653   6.360   1.347   1.952 -0.7853  0.9014  0.6258
  879MOL0     H18654   6.275   1.291   2.098 -1.2404 -1.3094  0.5823
  879MOL0     H18655   6.311   1.165   1.817 -1.5944  2.6038 -2.5796
  879MOL0     H18656   6.168   1.247   1.856  0.2604  1.2349  1.4174
  879MOL0     H18657   6.263   0.995   1.991  0.6369  0.8212  0.3856
  879MOL0     H18658   6.142   1.005   1.855 -3.5823  0.2641  0.7119
  879MOL0     H18659   6.051   0.983   2.110  0.2595  2.8957  3.2887
  879MOL0     H18660   6.089   1.145   2.129  0.2205 -0.5623  2.1524
  879MOL0     H18661   5.714   1.102   1.945  0.8239 -0.5159 -1.1916
  879MOL0     H18662   6.654   1.058   2.074 -3.3821  0.9819  0.4970
  879MOL0     H18663   6.887   1.039   2.087  1.1634 -2.2454 -2.0432
  879MOL0     H18664   6.919   1.066   1.910 -0.1131 -0.4300 -0.6279
  879MOL0     H18665   7.001   1.162   2.044 -1.2731  1.5595  0.6416
  880MOL0     O18666  10.749  10.356   9.152 -0.2968  0.0472  0.7169
  880MOL0     C18667  10.733  10.476   9.142  0.1345 -0.5056  0.0723
  880MOL0     O18668  10.841  10.564   9.139 -0.0575  0.6006  0.0836
  880MOL0     C18669  10.960  10.509   9.088 -0.5127 -0.3873 -0.9407
  880MOL0     C18670  11.043  10.428   9.166  0.1394 -0.0852 -0.1611
  880MOL0     C18671  11.176  10.394   9.127 -0.1342  0.2653  1.0896
  880MOL0     C18672  11.216  10.434   9.000 -0.2819  0.7103 -0.4832
  880MOL0     O18673  11.349  10.410   8.962  0.6405 -0.2512 -0.1606
  880MOL0     C18674  11.381  10.265   8.943  0.5522 -0.7151 -0.1774
  880MOL0     C18675  11.496  10.257   8.843  0.1830  0.3375 -0.2770
  880MOL0     C18676  11.630  10.317   8.892  0.0834 -0.4248  0.0696
  880MOL0     C18677  11.724  10.349   8.772  0.8293  0.2421 -0.8457
  880MOL0     C18678  11.865  10.373   8.813  0.7774  0.0790 -0.8782
  880MOL0     C18679  11.958  10.420   8.696 -0.0680 -0.6369  0.9664
  880MOL0     C18680  12.101  10.415   8.742 -0.4356 -0.0054 -0.5118
  880MOL0     C18681  12.197  10.457   8.632 -0.0918 -0.8355  0.0711
  880MOL0     N18682  12.216  10.607   8.611  0.3392  0.2201 -0.2836
  880MOL0     C18683  12.122  10.706   8.609  0.3854  0.2653 -0.4438
  880MOL0     C18684  12.193  10.818   8.604 -0.0615 -0.1725 -0.3423
  880MOL0     C18685  12.144  10.956   8.565  0.4431 -0.0402  0.0610
  880MOL0     C18686  12.212  11.056   8.648 -0.5221 -0.6207  0.8514
  880MOL0     C18687  12.139  11.191   8.615 -0.7493  0.4117 -0.9889
  880MOL0     C18688  12.216  11.293   8.698 -0.1431 -0.0229 -0.5925
  880MOL0     O18689  12.127  11.409   8.729 -0.0425  0.0644  0.1063
  880MOL0     C18690  12.143  11.534   8.662 -0.0794  0.4003 -0.2731
  880MOL0     C18691  12.270  11.585   8.622  0.1901  0.1434  0.0636
  880MOL0     C18692  12.267  11.709   8.551  0.5774 -0.5058  0.0800
  880MOL0     C18693  12.151  11.778   8.531 -0.9867 -0.2943 -1.0598
  880MOL0     C18694  12.164  11.911   8.467  0.4337 -0.4337 -0.2366
  880MOL0     O18695  12.254  11.917   8.371  0.2742 -0.3330  1.1489
  880MOL0     C18696  12.251  12.017   8.277  0.3067 -0.7292  0.2886
  880MOL0     C18697  12.276  12.150   8.316 -0.6294 -0.4209  0.3211
  880MOL0     C18698  12.257  12.262   8.231 -0.0162  0.3416  0.1621
  880MOL0     C18699  12.214  12.238   8.099 -0.1973  0.0693 -0.0812
  880MOL0     O18700  12.203  12.347   8.017 -0.4495 -0.1233  0.0164
  880MOL0     C18701  12.100  12.351   7.912 -0.0184  0.5029  0.7490
  880MOL0     C18702  12.079  12.497   7.862  0.1250  0.3265 -0.0102
  880MOL0     C18703  11.979  12.506   7.750 -0.1959  0.2574 -0.1985
  880MOL0     C18704  11.960  12.646   7.698 -0.2747  1.2165  0.1116
  880MOL0     C18705  11.869  12.654   7.571 -0.1095  0.0499 -0.1049
  880MOL0     C18706  11.737  12.723   7.583 -0.0806 -0.0034 -0.3005
  880MOL0     C18707  11.649  12.704   7.448 -0.5705  0.1551  0.1160
  880MOL0     C18708  11.591  12.557   7.424  0.6371 -0.6046  0.1862
  880MOL0    Cl18709  11.538  12.477   7.569  0.2480  0.2030 -0.7156
  880MOL0     C18710  12.194  12.104   8.062 -0.1199 -0.2158 -0.1359
  880MOL0     C18711  12.214  11.995   8.147  0.6220  0.4258 -0.1764
  880MOL0     O18712  12.080  11.997   8.500  0.2576  0.1986  0.0794
  880MOL0     C18713  12.030  11.726   8.591 -0.1377 -1.1730 -0.1134
  880MOL0     C18714  12.025  11.603   8.649 -0.3134  0.8623  0.0488
  880MOL0     N18715  12.327  10.780   8.591  0.1275 -0.3255 -0.6121
  880MOL0     N18716  12.340  10.663   8.615  0.0186  0.0540  0.7582
  880MOL0     C18717  11.127  10.504   8.918  0.2575  0.4045 -0.2097
  880MOL0     C18718  11.000  10.547   8.959 -0.3651 -0.0108  0.2634
  880MOL0     C18719  10.597  10.529   9.132  0.1226  0.2508 -1.0659
  880MOL0     C18720  10.575  10.667   9.151 -0.2208  0.4478  0.2003
  880MOL0     C18721  10.449  10.727   9.161 -0.0557  0.2953 -1.1938
  880MOL0     C18722  10.335  10.645   9.160  0.1963 -0.7564 -0.0827
  880MOL0     O18723  10.222  10.712   9.178 -0.0551  0.2540 -0.1854
  880MOL0     C18724  10.096  10.647   9.186  0.0462  0.4348  0.2588
  880MOL0     C18725   9.995  10.760   9.213  0.0567  0.0837 -0.2982
  880MOL0     C18726   9.856  10.721   9.156 -0.0301 -0.1066 -0.4409
  880MOL0     C18727   9.754  10.820   9.213  0.1347 -0.8650 -0.7816
  880MOL0     C18728   9.631  10.811   9.137 -0.5448 -0.2653 -0.4777
  880MOL0     C18729   9.534  10.827   9.066  0.8411 -0.3056  0.5538
  880MOL0     C18730  10.347  10.514   9.144 -0.0935 -0.0600 -0.7967
  880MOL0     C18731  10.479  10.452   9.126  0.5149  0.1226 -0.4425
  880MOL0     C18732  10.466  10.314   9.069 -0.7795 -0.9085 -0.2818
  880MOL0     H18733  10.992  10.395   9.256 -4.3689  0.3414 -2.2724
  880MOL0     H18734  11.248  10.342   9.190 -0.3346  0.3076  1.3596
  880MOL0     H18735  11.417  10.222   9.037  0.3908  0.5896  0.5018
  880MOL0     H18736  11.293  10.210   8.910  0.8066 -0.7382 -0.8415
  880MOL0     H18737  11.458  10.299   8.749 -1.7691 -1.4243 -0.3630
  880MOL0     H18738  11.519  10.151   8.827  0.5934  0.1965  1.1092
  880MOL0     H18739  11.678  10.242   8.956  0.9224 -0.3090 -0.4019
  880MOL0     H18740  11.610  10.403   8.956  0.0565  0.3183 -0.8976
  880MOL0     H18741  11.726  10.259   8.710  0.5967 -0.0582 -0.4198
  880MOL0     H18742  11.681  10.434   8.719  0.9873  1.3001  0.6641
  880MOL0     H18743  11.876  10.444   8.895  0.0790 -0.9047  0.1000
  880MOL0     H18744  11.903  10.275   8.845  0.8333  0.8925  1.7854
  880MOL0     H18745  11.948  10.358   8.606 -1.5530 -0.5426  1.0437
  880MOL0     H18746  11.929  10.521   8.665  0.9320 -0.5866  0.1431
  880MOL0     H18747  12.110  10.310   8.772 -0.1022  0.2645  0.3763
  880MOL0     H18748  12.104  10.478   8.831 -3.3795 -1.4848  0.7784
  880MOL0     H18749  12.297  10.413   8.645  1.5281  2.3982 -0.5006
  880MOL0     H18750  12.156  10.405   8.544  4.9953 -0.8084 -2.6860
  880MOL0     H18751  12.014  10.706   8.601  0.3698  0.5730 -0.2439
  880MOL0     H18752  12.170  10.975   8.461 -1.1357 -3.5218 -1.1244
  880MOL0     H18753  12.035  10.965   8.574  0.6442  3.3135  0.2676
  880MOL0     H18754  12.197  11.039   8.755 -1.2637 -1.2910  0.6476
  880MOL0     H18755  12.319  11.068   8.627 -0.5678 -3.4461 -1.5773
  880MOL0     H18756  12.032  11.198   8.638 -0.4310  2.1472  0.1897
  880MOL0     H18757  12.145  11.216   8.509 -0.9634 -0.2503 -1.1619
  880MOL0     H18758  12.306  11.322   8.642  3.6360 -5.1302  1.9977
  880MOL0     H18759  12.245  11.246   8.792 -3.6363 -0.0578  0.5776
  880MOL0     H18760  12.363  11.531   8.630 -1.0970 -2.5301 -1.5575
  880MOL0     H18761  12.356  11.749   8.503  0.7152 -1.2627 -0.3117
  880MOL0     H18762  12.308  12.182   8.415  2.8048  0.2083 -0.8509
  880MOL0     H18763  12.293  12.358   8.268 -0.4381  0.8629 -0.7564
  880MOL0     H18764  12.129  12.288   7.828  0.0925  1.8287 -0.2381
  880MOL0     H18765  12.007  12.304   7.948  0.0576 -0.4876 -0.3023
  880MOL0     H18766  12.048  12.562   7.944 -1.7196  2.7136 -2.4039
  880MOL0     H18767  12.174  12.539   7.828  2.6990 -2.7097  2.7290
  880MOL0     H18768  12.022  12.460   7.660 -0.6663 -2.9410  1.1076
  880MOL0     H18769  11.884  12.453   7.761  1.5548 -3.2878 -0.8894
  880MOL0     H18770  12.061  12.674   7.667 -0.3979  2.3223  0.6567
  880MOL0     H18771  11.930  12.714   7.778  0.0496  1.6957 -0.1699
  880MOL0     H18772  11.848  12.551   7.540  1.7270  0.5103 -3.3300
  880MOL0     H18773  11.921  12.702   7.488 -1.3816 -0.1054 -1.0261
  880MOL0     H18774  11.679  12.692   7.670 -1.6357 -1.1752 -1.6863
  880MOL0     H18775  11.766  12.828   7.589  1.6735 -0.3626 -1.5988
  880MOL0     H18776  11.712  12.720   7.360 -1.4293 -1.4476 -0.8407
  880MOL0     H18777  11.565  12.773   7.444 -0.7088  0.0021  0.3242
  880MOL0     H18778  11.514  12.565   7.347 -0.2445 -0.9260  1.0152
  880MOL0     H18779  11.674  12.499   7.384  1.7651  0.3458  1.0753
  880MOL0     H18780  12.162  12.080   7.961 -1.2337 -0.5692  0.2926
  880MOL0     H18781  12.202  11.894   8.107  2.3503 -0.3175  1.0536
  880MOL0     H18782  11.936  11.780   8.589 -0.1835 -1.0535  2.0284
  880MOL0     H18783  11.938  11.552   8.688  1.3095 -1.8940  0.3956
  880MOL0     H18784  11.161  10.528   8.818  3.3595 -2.3428 -0.0049
  880MOL0     H18785  10.939  10.607   8.893  0.2784 -1.8487 -2.1847
  880MOL0     H18786  10.670  10.719   9.149  0.3798 -0.5736  1.1640
  880MOL0     H18787  10.447  10.835   9.170  0.2649  0.1930  0.5711
  880MOL0     H18788  10.090  10.566   9.258 -0.0583  1.0031  0.9045
  880MOL0     H18789  10.074  10.612   9.085  0.3860 -0.7182  0.5732
  880MOL0     H18790  10.032  10.853   9.170  5.5377 -1.0502  1.2278
  880MOL0     H18791   9.985  10.778   9.321 -0.0592 -0.5854 -0.1924
  880MOL0     H18792   9.836  10.621   9.196  0.6309  0.0696  0.3368
  880MOL0     H18793   9.868  10.721   9.047  0.6447  0.1771 -0.3665
  880MOL0     H18794   9.725  10.795   9.315 -2.8886 -1.8958 -1.8057
  880MOL0     H18795   9.802  10.919   9.206  2.5187 -2.0290 -2.6949
  880MOL0     H18796   9.452  10.828   8.997  0.8442 -1.1579  0.5199
  880MOL0     H18797  10.262  10.448   9.133  0.8836 -2.0057  2.0923
  880MOL0     H18798  10.368  10.287   9.026 -1.5783  0.9847  0.2541
  880MOL0     H18799  10.541  10.315   8.990 -1.1670  1.8148 -0.7214
  880MOL0     H18800  10.496  10.241   9.145  0.6634 -1.2274 -1.1154
  881MOL0     O18801   6.178   5.695   8.192 -0.2852 -0.0326  0.5703
  881MOL0     C18802   6.075   5.756   8.229 -0.6389 -0.7256 -0.3015
  881MOL0     O18803   6.070   5.895   8.249 -0.7229  0.0275  0.2786
  881MOL0     C18804   6.186   5.977   8.235 -0.4885  0.0215  0.4381
  881MOL0     C18805   6.295   5.955   8.148 -0.0570  0.3326 -0.0097
  881MOL0     C18806   6.399   6.046   8.144 -0.3756  0.0464  0.7972
  881MOL0     C18807   6.402   6.167   8.217 -0.8859 -0.1689 -0.4801
  881MOL0     O18808   6.509   6.254   8.197 -0.0531  0.2920  0.0973
  881MOL0     C18809   6.542   6.331   8.316  1.4322  0.0664  1.0198
  881MOL0     C18810   6.652   6.426   8.279  0.5055  0.1484  0.0661
  881MOL0     C18811   6.776   6.353   8.218  0.2544 -0.6299  0.3421
  881MOL0     C18812   6.904   6.433   8.205  0.2746  0.9301 -1.0551
  881MOL0     C18813   6.903   6.570   8.142  0.5563  0.3330  0.4364
  881MOL0     C18814   7.022   6.647   8.184 -0.3986 -0.0057  0.2349
  881MOL0     C18815   7.157   6.582   8.127  0.7322 -0.1450 -0.3093
  881MOL0     C18816   7.178   6.604   7.979  0.3203  0.8739  0.3906
  881MOL0     N18817   7.306   6.559   7.926  0.4473 -0.1515  0.2832
  881MOL0     C18818   7.388   6.464   7.978 -0.3567 -0.2256  0.3306
  881MOL0     C18819   7.485   6.447   7.888 -0.2438  0.9094 -0.3049
  881MOL0     C18820   7.594   6.345   7.909 -0.0087 -0.3899 -0.6268
  881MOL0     C18821   7.719   6.409   7.969 -1.8544 -0.1454  1.4168
  881MOL0     C18822   7.824   6.452   7.851  0.4414  0.6339 -1.2044
  881MOL0     C18823   7.901   6.333   7.788 -0.6764 -0.3117 -0.0554
  881MOL0     O18824   7.996   6.283   7.886  0.3457 -0.1328  0.0131
  881MOL0     C18825   8.111   6.353   7.912 -0.0668 -0.3325 -0.6242
  881MOL0     C18826   8.192   6.301   8.008 -0.5512 -0.5665  0.5717
  881MOL0     C18827   8.322   6.351   8.037  0.6272 -0.4264 -0.7319
  881MOL0     C18828   8.369   6.456   7.961  0.5835  0.2954 -0.1623
  881MOL0     C18829   8.501   6.511   7.982 -0.8134 -0.2374  0.1283
  881MOL0     O18830   8.548   6.603   7.894  0.7056  0.3656 -0.5308
  881MOL0     C18831   8.678   6.636   7.872 -0.8543  0.5254  0.4365
  881MOL0     C18832   8.793   6.568   7.935 -0.0011  0.7978  0.7427
  881MOL0     C18833   8.921   6.621   7.915 -0.1888  0.1074  0.4214
  881MOL0     C18834   8.938   6.733   7.833  0.1544  0.4069  0.0916
  881MOL0     O18835   9.057   6.796   7.808 -0.2484  0.4301 -0.8453
  881MOL0     C18836   9.164   6.777   7.901  0.0638  0.0403  0.2654
  881MOL0     C18837   9.255   6.900   7.885  0.7223 -0.7679  0.0122
  881MOL0     C18838   9.382   6.867   7.955  0.1203 -0.4370  0.0652
  881MOL0     C18839   9.480   6.984   7.973 -0.4810  0.2988  0.3901
  881MOL0     C18840   9.530   7.047   7.844 -0.0779  0.4623 -0.0291
  881MOL0     C18841   9.664   7.125   7.857 -0.2067  0.3037 -0.2158
  881MOL0     C18842   9.720   7.176   7.720  0.1104 -0.0801  0.5422
  881MOL0     C18843   9.836   7.255   7.756 -1.0000  0.2649 -0.5631
  881MOL0    Cl18844   9.969   7.146   7.813 -0.0354 -0.0394  0.3088
  881MOL0     C18845   8.832   6.796   7.767 -0.1804  0.2399 -0.1002
  881MOL0     C18846   8.706   6.750   7.789  0.1302 -0.1569  0.4166
  881MOL0     O18847   8.565   6.459   8.066 -0.0047  0.0516 -0.3403
  881MOL0     C18848   8.284   6.509   7.860 -1.1051  0.2423  0.6416
  881MOL0     C18849   8.159   6.452   7.835  0.0207 -0.3329 -0.0479
  881MOL0     N18850   7.463   6.521   7.775 -0.3142  0.2819 -0.4965
  881MOL0     N18851   7.358   6.597   7.803  0.1391  0.7350  0.4980
  881MOL0     C18852   6.286   6.189   8.302 -0.0264 -1.2914  0.1326
  881MOL0     C18853   6.187   6.098   8.306  0.0260 -0.0582 -0.1128
  881MOL0     C18854   5.956   5.673   8.262 -0.1490  0.1854  0.4596
  881MOL0     C18855   5.968   5.537   8.232  0.2288 -0.6094  0.8867
  881MOL0     C18856   5.871   5.446   8.248 -0.7140  0.6462 -0.2981
  881MOL0     C18857   5.752   5.490   8.299 -0.2861  0.4290 -0.4444
  881MOL0     O18858   5.658   5.397   8.329  0.3760 -0.3080 -0.3304
  881MOL0     C18859   5.568   5.404   8.441 -0.3420 -0.5224 -0.4814
  881MOL0     C18860   5.473   5.287   8.431 -0.1080  0.3793 -0.0204
  881MOL0     C18861   5.376   5.307   8.314  0.0380 -0.6582 -0.2953
  881MOL0     C18862   5.262   5.407   8.341 -0.1792 -0.4313 -0.1488
  881MOL0     C18863   5.164   5.361   8.433 -0.3573  0.3475 -0.7488
  881MOL0     C18864   5.076   5.331   8.511 -0.5956  0.2638  0.2858
  881MOL0     C18865   5.724   5.623   8.320 -0.3932  0.0218  0.1446
  881MOL0     C18866   5.828   5.715   8.294  0.2490 -0.5914  0.2966
  881MOL0     C18867   5.791   5.856   8.294  0.4088 -0.4574  0.1752
  881MOL0     H18868   6.302   5.866   8.087 -3.0812  1.5468 -2.4257
  881MOL0     H18869   6.486   6.042   8.080  0.0127  0.3077  1.3079
  881MOL0     H18870   6.453   6.375   8.362  1.0137 -1.4037  1.6660
  881MOL0     H18871   6.583   6.268   8.396  0.1390  0.6752  2.2050
  881MOL0     H18872   6.676   6.478   8.372 -0.2080  2.1303 -0.8003
  881MOL0     H18873   6.616   6.508   8.216 -0.8597  2.3360  3.4108
  881MOL0     H18874   6.745   6.320   8.118 -0.7329 -1.1611  0.8121
  881MOL0     H18875   6.800   6.267   8.281 -1.9251 -1.1294  0.5514
  881MOL0     H18876   6.936   6.453   8.308 -2.1435 -0.5056  0.0789
  881MOL0     H18877   6.971   6.361   8.156 -0.5181 -1.7679  1.4897
  881MOL0     H18878   6.900   6.573   8.033  2.6745 -1.1310  0.2777
  881MOL0     H18879   6.815   6.626   8.175 -0.5389 -0.6206 -0.7461
  881MOL0     H18880   7.009   6.750   8.151  1.1939  1.0408  2.6372
  881MOL0     H18881   7.017   6.649   8.293 -0.6109  0.5585  0.2159
  881MOL0     H18882   7.179   6.477   8.149  3.7058  0.2476 -0.9802
  881MOL0     H18883   7.241   6.632   8.174  1.5514 -2.0913  0.3952
  881MOL0     H18884   7.105   6.548   7.920  1.6365 -0.8089  0.2998
  881MOL0     H18885   7.184   6.712   7.962  3.3998  0.4452 -2.0357
  881MOL0     H18886   7.362   6.406   8.066 -1.6651  1.9336  1.4446
  881MOL0     H18887   7.551   6.263   7.967  1.3013 -1.6306 -1.3332
  881MOL0     H18888   7.631   6.297   7.818  3.2415  0.7502 -0.0443
  881MOL0     H18889   7.714   6.501   8.027  0.0559  0.7300  0.2755
  881MOL0     H18890   7.760   6.328   8.030  0.3305 -1.1555 -1.2071
  881MOL0     H18891   7.898   6.521   7.892  0.0937  0.4544 -0.2339
  881MOL0     H18892   7.761   6.510   7.783 -1.5608 -1.2991 -1.1319
  881MOL0     H18893   7.942   6.366   7.693  1.8182 -0.4929  0.8922
  881MOL0     H18894   7.829   6.256   7.759  1.2215 -2.8412  1.5492
  881MOL0     H18895   8.158   6.209   8.055 -0.3244 -1.3922 -0.8319
  881MOL0     H18896   8.385   6.319   8.120 -0.7657 -1.2204  0.0502
  881MOL0     H18897   8.795   6.472   7.984  0.2915  0.4936  0.1466
  881MOL0     H18898   9.008   6.571   7.955 -0.3264  0.9019  1.7709
  881MOL0     H18899   9.132   6.774   8.006  2.8069 -0.4754  1.1905
  881MOL0     H18900   9.212   6.682   7.875 -2.7907 -0.3427 -4.7861
  881MOL0     H18901   9.278   6.919   7.780  0.3084 -1.2439 -0.1675
  881MOL0     H18902   9.200   6.986   7.924  2.5160 -0.6257  2.5519
  881MOL0     H18903   9.362   6.808   8.045  0.5084 -2.3010 -0.9929
  881MOL0     H18904   9.431   6.789   7.895  1.6313 -0.9015  1.8086
  881MOL0     H18905   9.565   6.944   8.029  1.1369  0.5465 -1.7905
  881MOL0     H18906   9.430   7.057   8.038 -2.1174  0.7803 -1.3237
  881MOL0     H18907   9.451   7.115   7.809  1.9255  3.1186  0.3573
  881MOL0     H18908   9.543   6.968   7.770 -2.5356  1.9740 -2.2785
  881MOL0     H18909   9.640   7.203   7.930 -0.8766 -1.7351  1.8552
  881MOL0     H18910   9.732   7.068   7.922 -0.8200 -0.3363 -0.1273
  881MOL0     H18911   9.647   7.244   7.674 -1.5843 -0.5668  2.3832
  881MOL0     H18912   9.754   7.101   7.648  0.4458  1.0748 -0.5410
  881MOL0     H18913   9.862   7.315   7.669  1.4494 -1.1493 -0.9065
  881MOL0     H18914   9.811   7.321   7.840  0.3391 -0.1091  0.1642
  881MOL0     H18915   8.858   6.877   7.698  0.9767 -0.1884 -0.1878
  881MOL0     H18916   8.627   6.809   7.742  0.6204 -0.3726 -0.7152
  881MOL0     H18917   8.319   6.594   7.803  0.7718 -0.3945  0.7888
  881MOL0     H18918   8.102   6.497   7.753  0.4232 -0.8902 -0.6422
  881MOL0     H18919   6.275   6.278   8.364  1.3666  1.2365 -2.9681
  881MOL0     H18920   6.101   6.122   8.368 -0.1482 -0.6472 -0.1140
  881MOL0     H18921   6.061   5.487   8.209  0.0318 -0.3383 -0.6007
  881MOL0     H18922   5.897   5.341   8.237 -1.6151  0.4067 -0.2038
  881MOL0     H18923   5.505   5.493   8.434  0.6134  0.4039  1.7855
  881MOL0     H18924   5.613   5.405   8.541 -2.2689  0.0827  0.4469
  881MOL0     H18925   5.420   5.257   8.522  3.2228 -2.5712  1.2101
  881MOL0     H18926   5.539   5.204   8.401  0.5716  0.1079  2.0538
  881MOL0     H18927   5.327   5.213   8.285  1.0353 -0.8233 -1.5498
  881MOL0     H18928   5.434   5.338   8.227 -0.8353 -0.5411 -0.8561
  881MOL0     H18929   5.308   5.499   8.378  1.8912 -1.8457  1.0445
  881MOL0     H18930   5.211   5.429   8.247 -0.0898 -0.6788 -0.2583
  881MOL0     H18931   5.001   5.306   8.583 -1.5427 -1.2756 -1.1584
  881MOL0     H18932   5.626   5.668   8.335 -1.0001 -1.4894  0.8487
  881MOL0     H18933   5.854   5.921   8.355  0.2649  2.5931 -2.6365
  881MOL0     H18934   5.787   5.904   8.196  0.4491 -0.0002  0.3979
  881MOL0     H18935   5.697   5.885   8.342  1.4507  2.6190  0.5043
  882MOL0     O18936   8.550   3.605   2.312  0.5905 -0.5535  0.3710
  882MOL0     C18937   8.477   3.695   2.253  0.1577 -0.1843 -0.1641
  882MOL0     O18938   8.523   3.796   2.181  0.0331  0.0400  0.2069
  882MOL0     C18939   8.651   3.774   2.141  0.0736  1.2325 -0.0172
  882MOL0     C18940   8.766   3.778   2.222 -0.7652 -0.9108  0.0420
  882MOL0     C18941   8.892   3.766   2.172  0.3682  0.5433  0.6940
  882MOL0     C18942   8.909   3.738   2.036 -0.1042  0.2461  0.4592
  882MOL0     O18943   9.018   3.730   1.960  0.3695  0.5306 -0.2070
  882MOL0     C18944   9.145   3.772   2.005 -0.4299  0.9555  0.1594
  882MOL0     C18945   9.249   3.753   1.897  0.9411 -0.9174  0.2308
  882MOL0     C18946   9.384   3.784   1.960 -0.7891 -0.2960 -0.3471
  882MOL0     C18947   9.496   3.772   1.857  0.3430  0.2423 -0.5336
  882MOL0     C18948   9.627   3.825   1.910  0.6893 -0.0856  0.1418
  882MOL0     C18949   9.739   3.734   1.849  0.2699  0.0681  0.2624
  882MOL0     C18950   9.889   3.777   1.882  0.4264 -0.7165  0.4149
  882MOL0     C18951   9.922   3.760   2.027 -0.3122  0.6660 -0.0270
  882MOL0     N18952  10.064   3.773   2.055  0.3815  0.4130 -0.0981
  882MOL0     C18953  10.157   3.666   2.051 -0.4008 -0.1814  0.9009
  882MOL0     C18954  10.275   3.729   2.087  0.1272 -0.0916 -0.3888
  882MOL0     C18955  10.417   3.680   2.083 -0.6947  0.5163 -0.1896
  882MOL0     C18956  10.492   3.744   1.967 -0.5150  0.2099 -0.4620
  882MOL0     C18957  10.626   3.672   1.941 -0.0113  0.6900  0.3075
  882MOL0     C18958  10.689   3.727   1.813 -0.4388 -0.1585 -0.1331
  882MOL0     O18959  10.795   3.643   1.754  0.0325  0.4539  0.8936
  882MOL0     C18960  10.916   3.675   1.798 -0.8196 -0.7523 -1.4506
  882MOL0     C18961  10.990   3.769   1.724  0.6681  0.3288  0.1949
  882MOL0     C18962  11.123   3.804   1.763 -0.5356 -0.5864 -0.4001
  882MOL0     C18963  11.183   3.755   1.882 -0.3985 -0.1699  0.5577
  882MOL0     C18964  11.321   3.800   1.922  0.9259 -0.1602  0.4310
  882MOL0     O18965  11.370   3.743   2.034 -0.4450 -0.9485 -0.1726
  882MOL0     C18966  11.494   3.779   2.076 -0.5956 -0.3694 -0.1917
  882MOL0     C18967  11.611   3.725   2.020  0.0522  0.0160  0.1480
  882MOL0     C18968  11.743   3.765   2.065  0.7043  0.4030  0.3098
  882MOL0     C18969  11.759   3.868   2.161 -0.3655  0.0867  0.0606
  882MOL0     O18970  11.875   3.898   2.214 -0.1014 -0.4981  0.2590
  882MOL0     C18971  12.000   3.842   2.169  0.2987  0.2772  0.8877
  882MOL0     C18972  12.112   3.887   2.255 -0.5710 -1.0833 -0.0673
  882MOL0     C18973  12.245   3.812   2.225 -0.1289  0.2765  0.2558
  882MOL0     C18974  12.372   3.868   2.285 -0.6033  0.7918  0.3753
  882MOL0     C18975  12.487   3.766   2.246  0.1668  0.1726  1.0134
  882MOL0     C18976  12.629   3.828   2.275  0.5443 -0.2124  0.0969
  882MOL0     C18977  12.746   3.735   2.233  0.2507  0.1133 -0.3396
  882MOL0     C18978  12.875   3.815   2.192  0.2773  0.3454 -0.4658
  882MOL0    Cl18979  12.955   3.858   2.346  0.4041 -0.2112  0.3971
  882MOL0     C18980  11.641   3.926   2.215 -0.6691  1.3466 -0.2839
  882MOL0     C18981  11.515   3.880   2.170 -0.5554  0.1466  0.5823
  882MOL0     O18982  11.381   3.883   1.858 -0.3196 -0.2696  0.3003
  882MOL0     C18983  11.100   3.671   1.965 -0.9737  0.5603 -0.4043
  882MOL0     C18984  10.973   3.632   1.917 -0.2700  0.3589  0.2800
  882MOL0     N18985  10.259   3.866   2.096  0.1375 -0.2937  0.1469
  882MOL0     N18986  10.135   3.889   2.082  0.2568 -0.5992  0.3743
  882MOL0     C18987   8.795   3.733   1.958 -0.0316  0.9729  0.2454
  882MOL0     C18988   8.669   3.754   2.007 -0.9117  0.0375  0.3327
  882MOL0     C18989   8.334   3.678   2.291 -0.7442 -0.0132  0.9366
  882MOL0     C18990   8.300   3.593   2.400 -0.5438  0.5086 -0.2532
  882MOL0     C18991   8.174   3.558   2.429  0.5920  0.3390 -0.3675
  882MOL0     C18992   8.070   3.613   2.353 -0.2424 -0.1736  0.4938
  882MOL0     O18993   7.939   3.594   2.382 -0.0488 -0.3877  0.2672
  882MOL0     C18994   7.895   3.515   2.498  0.9744  0.1612  0.1883
  882MOL0     C18995   7.744   3.533   2.525  0.1635  0.3951  0.5185
  882MOL0     C18996   7.697   3.675   2.506 -0.3075  0.0168 -0.3568
  882MOL0     C18997   7.549   3.686   2.549 -0.6141 -0.4893  0.2960
  882MOL0     C18998   7.452   3.651   2.452 -0.5297 -0.2966  0.0891
  882MOL0     C18999   7.367   3.614   2.372  0.3828  0.3313  0.0834
  882MOL0     C19000   8.099   3.682   2.242  0.2802  0.2267  0.2853
  882MOL0     C19001   8.231   3.722   2.208  0.4735  0.4483 -0.3321
  882MOL0     C19002   8.254   3.801   2.085  0.7420  0.0783  0.4362
  882MOL0     H19003   8.756   3.788   2.330 -1.6186 -1.9789  0.0741
  882MOL0     H19004   8.980   3.779   2.235  1.7253 -1.8104 -0.5604
  882MOL0     H19005   9.144   3.872   2.050 -1.9712  1.1350 -0.2378
  882MOL0     H19006   9.170   3.704   2.087 -0.2934  3.7986  2.6667
  882MOL0     H19007   9.229   3.826   1.818  0.1846 -1.2682  0.0858
  882MOL0     H19008   9.257   3.649   1.864 -1.7611 -1.4041  0.9092
  882MOL0     H19009   9.402   3.713   2.041  1.2322  0.7821  0.2199
  882MOL0     H19010   9.388   3.887   1.994  2.3490 -0.1575 -0.8576
  882MOL0     H19011   9.505   3.665   1.834 -1.9583 -0.1559  0.0918
  882MOL0     H19012   9.479   3.819   1.760  1.2983 -1.5106 -1.6003
  882MOL0     H19013   9.650   3.928   1.883 -1.1080  1.2546  3.2853
  882MOL0     H19014   9.627   3.812   2.018 -1.2789 -1.1729  0.0533
  882MOL0     H19015   9.726   3.632   1.886 -0.6992  0.0906  0.0083
  882MOL0     H19016   9.720   3.727   1.741 -2.3560  1.4905  0.5445
  882MOL0     H19017   9.902   3.884   1.865  3.1317 -1.0659 -0.2203
  882MOL0     H19018   9.961   3.725   1.818  4.2274  2.1560  1.9827
  882MOL0     H19019   9.863   3.829   2.087 -2.4213 -1.6614  0.7739
  882MOL0     H19020   9.903   3.659   2.065 -1.0721  0.6332 -0.4601
  882MOL0     H19021  10.144   3.560   2.030  1.1397 -0.1102 -0.6784
  882MOL0     H19022  10.472   3.698   2.176  2.5930 -2.0705 -1.3849
  882MOL0     H19023  10.420   3.571   2.070 -0.5695  0.2869  1.5250
  882MOL0     H19024  10.438   3.741   1.872 -0.1679  0.8130 -0.6864
  882MOL0     H19025  10.513   3.850   1.983  3.1368 -0.4070 -0.3600
  882MOL0     H19026  10.613   3.563   1.945  1.6451  0.4774  2.8398
  882MOL0     H19027  10.694   3.707   2.019 -1.3731  0.9949  1.3910
  882MOL0     H19028  10.734   3.825   1.830 -0.8328 -0.0052  0.0383
  882MOL0     H19029  10.611   3.737   1.736  1.0478  0.5438 -1.6201
  882MOL0     H19030  10.939   3.805   1.635 -0.4874 -1.5207  0.0363
  882MOL0     H19031  11.183   3.872   1.702  0.8119 -1.2509  0.1453
  882MOL0     H19032  11.610   3.672   1.925  1.6115  2.0379 -1.0574
  882MOL0     H19033  11.829   3.724   2.012 -0.0782  1.5549 -2.0206
  882MOL0     H19034  12.001   3.733   2.165  0.9529  0.1862  2.5919
  882MOL0     H19035  12.014   3.879   2.067  0.0357  1.8646  1.4017
  882MOL0     H19036  12.131   3.993   2.239 -0.4241 -0.4234  3.5804
  882MOL0     H19037  12.089   3.877   2.362 -0.1939 -4.5904 -0.1899
  882MOL0     H19038  12.230   3.712   2.266  0.4551 -0.3599 -1.0326
  882MOL0     H19039  12.267   3.803   2.119  2.4162  1.4634  0.6011
  882MOL0     H19040  12.367   3.880   2.393 -0.8272 -0.1720  0.4787
  882MOL0     H19041  12.391   3.966   2.241 -1.2208  0.8527  0.2348
  882MOL0     H19042  12.481   3.755   2.138  2.2416 -0.3343  0.9084
  882MOL0     H19043  12.477   3.667   2.290 -1.1554 -1.2324 -2.1492
  882MOL0     H19044  12.631   3.929   2.236 -1.7944  0.0482  0.4813
  882MOL0     H19045  12.650   3.841   2.382  0.6685 -2.3043  0.3712
  882MOL0     H19046  12.730   3.661   2.154  0.9801 -1.5193  0.9946
  882MOL0     H19047  12.773   3.676   2.320  0.4424  0.7224  0.0208
  882MOL0     H19048  12.938   3.743   2.138 -0.8473 -0.7938 -0.2896
  882MOL0     H19049  12.854   3.903   2.130 -1.7376 -0.3897 -0.9158
  882MOL0     H19050  11.642   4.004   2.291 -2.4150  2.3368 -1.2206
  882MOL0     H19051  11.420   3.915   2.209 -2.2777 -1.2094 -2.0936
  882MOL0     H19052  11.128   3.652   2.068 -0.4556 -1.0126 -0.8160
  882MOL0     H19053  10.900   3.591   1.986 -0.1200  1.6730  1.2655
  882MOL0     H19054   8.806   3.720   1.850  1.4115  3.6049 -0.0160
  882MOL0     H19055   8.577   3.749   1.950 -1.5872  1.7529  1.2052
  882MOL0     H19056   8.377   3.547   2.462  0.4886  2.6918  0.1821
  882MOL0     H19057   8.152   3.487   2.509  1.4165 -1.8338 -1.9737
  882MOL0     H19058   7.960   3.554   2.577  1.1250  0.8691 -0.2664
  882MOL0     H19059   7.918   3.409   2.487 -3.5791 -1.0122  0.2239
  882MOL0     H19060   7.709   3.502   2.624 -0.4662 -1.6459 -0.2920
  882MOL0     H19061   7.685   3.471   2.457  1.0982  0.3371 -0.2692
  882MOL0     H19062   7.712   3.700   2.400 -3.5037  0.0702 -0.8931
  882MOL0     H19063   7.759   3.742   2.565  0.4985 -0.0539 -1.1013
  882MOL0     H19064   7.525   3.626   2.637  0.1757 -0.3481  0.6223
  882MOL0     H19065   7.535   3.790   2.580  1.2167 -0.0535 -0.2072
  882MOL0     H19066   7.303   3.585   2.291  0.7203 -1.9982  0.5854
  882MOL0     H19067   8.018   3.725   2.184  2.7358  2.7771 -1.5197
  882MOL0     H19068   8.311   3.749   2.007  0.2274 -0.3856  0.3611
  882MOL0     H19069   8.161   3.837   2.041  0.1957 -0.1703  1.3563
  882MOL0     H19070   8.307   3.894   2.103  0.0059  0.7433 -0.7190
  883MOL0     O19071   8.639   9.800   7.264  0.1610 -0.9983  0.6167
  883MOL0     C19072   8.593   9.783   7.147  0.2550 -0.8200 -0.6651
  883MOL0     O19073   8.663   9.775   7.036 -0.0312  0.2256  0.3727
  883MOL0     C19074   8.795   9.815   7.038  0.4623  0.8511 -0.2432
  883MOL0     C19075   8.894   9.719   7.012 -0.5433  0.7671  0.0020
  883MOL0     C19076   9.027   9.748   7.029  0.3654 -0.4345 -0.1610
  883MOL0     C19077   9.068   9.890   7.052  0.7206 -0.1588 -0.0440
  883MOL0     O19078   9.192   9.935   7.055 -0.5496 -0.4018 -0.0327
  883MOL0     C19079   9.306   9.864   7.003  0.0999 -0.0011  0.8252
  883MOL0     C19080   9.420   9.967   7.019 -0.3834  1.0917  0.4593
  883MOL0     C19081   9.549   9.892   6.978  0.8262  0.4471  0.7130
  883MOL0     C19082   9.678   9.955   7.031  0.1028 -0.6514 -0.1981
  883MOL0     C19083   9.803   9.909   6.956  0.3060 -0.0846  0.1531
  883MOL0     C19084   9.925   9.930   7.043 -0.2062 -0.6690  1.1206
  883MOL0     C19085  10.059   9.885   6.980 -0.0620  0.0571  0.2321
  883MOL0     C19086  10.189   9.874   7.068 -0.3223 -0.1113  0.7528
  883MOL0     N19087  10.310   9.876   6.980  1.0365 -0.3900  0.3655
  883MOL0     C19088  10.352   9.975   6.899  0.6631 -0.2012 -0.8408
  883MOL0     C19089  10.472   9.941   6.856  0.2664 -0.1048  0.5950
  883MOL0     C19090  10.565  10.018   6.767  0.5055  0.3531  0.4275
  883MOL0     C19091  10.589  10.161   6.808  0.6212  0.1600 -0.5463
  883MOL0     C19092  10.665  10.175   6.936 -0.2819  0.4788 -0.4140
  883MOL0     C19093  10.813  10.119   6.926  0.1424  0.3754 -0.0952
  883MOL0     O19094  10.881  10.191   6.823  0.2209  0.1303 -0.4682
  883MOL0     C19095  11.006  10.148   6.784 -0.6488 -0.6488 -0.2774
  883MOL0     C19096  11.076  10.234   6.695  0.9457  0.5631 -1.5396
  883MOL0     C19097  11.209  10.198   6.655  0.1221  0.1894  0.5826
  883MOL0     C19098  11.267  10.084   6.709 -0.4638 -0.0745 -0.3018
  883MOL0     C19099  11.403  10.051   6.672 -0.5621  0.5444  0.4161
  883MOL0     O19100  11.462   9.967   6.750  0.1135  0.8502 -0.0030
  883MOL0     C19101  11.593   9.917   6.741  0.4727 -0.3107  0.3452
  883MOL0     C19102  11.697   9.974   6.659 -0.4596 -0.3598  0.4289
  883MOL0     C19103  11.835   9.922   6.658  0.2318 -0.0369 -0.1164
  883MOL0     C19104  11.858   9.804   6.725 -0.1959 -0.1355 -0.5499
  883MOL0     O19105  11.969   9.731   6.721 -0.3787 -0.3385  0.8087
  883MOL0     C19106  12.013   9.706   6.583  0.3061 -0.2190 -0.0258
  883MOL0     C19107  12.150   9.633   6.587 -0.3816 -0.7372  0.3766
  883MOL0     C19108  12.135   9.493   6.650  0.9706 -0.6158  1.1972
  883MOL0     C19109  12.267   9.408   6.683 -0.2490  0.3009 -0.6375
  883MOL0     C19110  12.339   9.447   6.817 -0.3015  1.0799  0.2100
  883MOL0     C19111  12.461   9.359   6.827  0.2905 -0.7035 -0.4287
  883MOL0     C19112  12.536   9.407   6.954 -0.8820 -0.0960  0.3916
  883MOL0     C19113  12.660   9.321   6.992  0.1815 -0.5365 -0.6532
  883MOL0    Cl19114  12.632   9.144   7.024 -0.3028  0.0718  0.0433
  883MOL0     C19115  11.759   9.746   6.804  0.3761 -0.1109 -0.6437
  883MOL0     C19116  11.626   9.806   6.812 -0.5157  0.3261 -0.9286
  883MOL0     O19117  11.440  10.096   6.561  0.0582 -0.1898 -0.3438
  883MOL0     C19118  11.204  10.010   6.814 -1.4822  0.5506  0.2828
  883MOL0     C19119  11.069  10.035   6.841 -0.7492 -0.0035  0.0767
  883MOL0     N19120  10.502   9.814   6.899 -0.3084  0.0140  0.7249
  883MOL0     N19121  10.409   9.779   6.978 -0.0328  1.4055 -0.0046
  883MOL0     C19122   8.958   9.981   7.064  0.1968  0.0252 -0.0504
  883MOL0     C19123   8.826   9.943   7.064 -0.0953 -0.8357 -0.1788
  883MOL0     C19124   8.447   9.772   7.126 -0.0280 -1.4873 -0.7980
  883MOL0     C19125   8.407   9.728   7.001  0.7267  0.7139  0.5880
  883MOL0     C19126   8.272   9.705   6.972 -0.3384 -0.3352 -0.0755
  883MOL0     C19127   8.176   9.718   7.077 -0.7509  0.4194  0.0970
  883MOL0     O19128   8.040   9.681   7.062 -0.6174  0.3161 -0.3048
  883MOL0     C19129   7.980   9.709   6.946  0.1110  0.0463  0.8436
  883MOL0     C19130   7.835   9.682   6.949 -0.3121  0.4827 -0.5226
  883MOL0     C19131   7.820   9.527   6.940 -0.0160 -0.3841 -0.1060
  883MOL0     C19132   7.669   9.483   6.943  0.2083 -0.2049  0.1720
  883MOL0     C19133   7.672   9.337   6.912  0.3589  0.5350  0.2851
  883MOL0     C19134   7.689   9.227   6.875 -0.7460  1.2706 -0.2406
  883MOL0     C19135   8.215   9.768   7.196 -0.3798 -0.0171 -0.0275
  883MOL0     C19136   8.354   9.803   7.224 -0.6926 -0.4371  0.4159
  883MOL0     C19137   8.374   9.842   7.368  0.0059  1.2681 -0.4863
  883MOL0     H19138   8.874   9.616   6.982 -1.3181  0.9103  0.0114
  883MOL0     H19139   9.103   9.672   7.015  1.8398  0.6035  1.7535
  883MOL0     H19140   9.330   9.777   7.064  0.2282 -0.1600  0.5503
  883MOL0     H19141   9.300   9.839   6.897 -1.5722 -2.6990  1.4684
  883MOL0     H19142   9.435  10.010   7.118  1.0610 -1.2666  1.3298
  883MOL0     H19143   9.404  10.052   6.952 -0.4761  0.7266  0.0147
  883MOL0     H19144   9.549   9.892   6.868  0.9907 -2.3220  0.6436
  883MOL0     H19145   9.541   9.787   7.005 -1.3488 -0.0182 -1.3855
  883MOL0     H19146   9.671  10.064   7.026  0.2124 -0.6704 -0.8977
  883MOL0     H19147   9.683   9.922   7.135  0.5493  3.3917  1.2761
  883MOL0     H19148   9.800   9.802   6.933 -1.2899 -0.5510  2.2584
  883MOL0     H19149   9.817   9.967   6.864  2.0435 -3.3470 -1.8161
  883MOL0     H19150   9.928  10.036   7.070 -3.1610 -0.9464  3.0044
  883MOL0     H19151   9.917   9.883   7.141  0.2807 -1.9581  0.5663
  883MOL0     H19152  10.066   9.961   6.901 -0.5979 -0.7525 -0.6211
  883MOL0     H19153  10.039   9.786   6.938 -0.2715 -0.6575  1.9381
  883MOL0     H19154  10.201   9.947   7.148  2.5568 -0.3653  0.6801
  883MOL0     H19155  10.193   9.780   7.125  1.1998 -0.1038  0.7043
  883MOL0     H19156  10.300  10.068   6.878 -0.2167 -0.1952  1.1007
  883MOL0     H19157  10.665   9.975   6.757 -0.0638 -0.5841 -1.7499
  883MOL0     H19158  10.518  10.019   6.669 -1.2207 -0.8551  1.2021
  883MOL0     H19159  10.638  10.218   6.729 -1.4277  0.3568 -1.7480
  883MOL0     H19160  10.494  10.212   6.822  0.5322 -0.5577  1.8480
  883MOL0     H19161  10.608  10.132   7.020  0.0356 -1.5659 -1.1954
  883MOL0     H19162  10.674  10.283   6.955 -1.3363  0.6339 -0.7373
  883MOL0     H19163  10.806  10.013   6.901 -2.9344  0.8860 -1.8617
  883MOL0     H19164  10.866  10.130   7.021 -3.4931  4.5237  1.8053
  883MOL0     H19165  11.028  10.320   6.652 -1.0428  0.4515  0.3258
  883MOL0     H19166  11.246  10.259   6.573  0.7706 -2.6286 -1.3675
  883MOL0     H19167  11.672  10.066   6.608  4.3357  1.4685  0.8602
  883MOL0     H19168  11.923   9.963   6.611  0.3505 -1.7700 -1.5212
  883MOL0     H19169  11.932   9.641   6.549 -0.4565 -0.0666  1.4251
  883MOL0     H19170  12.014   9.790   6.513 -2.6171 -1.1032 -1.2599
  883MOL0     H19171  12.183   9.629   6.483 -0.5446  0.0603  0.2909
  883MOL0     H19172  12.228   9.682   6.645 -0.0441  0.1868 -0.8258
  883MOL0     H19173  12.072   9.503   6.738  0.1492 -0.3208  0.5915
  883MOL0     H19174  12.077   9.429   6.582 -0.3751 -1.2438  2.8682
  883MOL0     H19175  12.340   9.406   6.601 -0.8764 -1.0637 -1.1914
  883MOL0     H19176  12.228   9.308   6.704  2.2151 -0.8419 -1.0789
  883MOL0     H19177  12.282   9.418   6.906 -0.1599 -1.3393 -0.4060
  883MOL0     H19178  12.371   9.551   6.811 -2.7213  1.8661 -0.2137
  883MOL0     H19179  12.437   9.253   6.836  0.1840 -0.4951  2.8255
  883MOL0     H19180  12.513   9.373   6.732 -0.8798  0.9224 -0.8711
  883MOL0     H19181  12.473   9.414   7.043 -0.3082 -1.1256  0.9031
  883MOL0     H19182  12.576   9.507   6.934 -1.3481  0.3486  1.6033
  883MOL0     H19183  12.734   9.329   6.911 -0.5890 -0.4293 -1.3601
  883MOL0     H19184  12.704   9.364   7.083 -0.0733 -2.8325  0.6216
  883MOL0     H19185  11.770   9.655   6.863 -2.4030 -0.4509 -0.5252
  883MOL0     H19186  11.556   9.746   6.870  1.3307  0.1148  1.2016
  883MOL0     H19187  11.259   9.927   6.857  3.3094  2.3048 -1.7495
  883MOL0     H19188  11.022   9.969   6.913  0.1789  0.7795  1.4464
  883MOL0     H19189   8.980  10.086   7.080 -1.0892  0.1871  0.7853
  883MOL0     H19190   8.747  10.017   7.071 -0.9652 -1.5994 -1.3976
  883MOL0     H19191   8.476   9.697   6.923 -0.6020 -1.1586  0.0877
  883MOL0     H19192   8.248   9.693   6.867  1.8556  2.7513 -1.0849
  883MOL0     H19193   8.030   9.643   6.874  2.0593  0.8593  1.3826
  883MOL0     H19194   7.997   9.811   6.912 -2.8769  0.6490  0.9138
  883MOL0     H19195   7.780   9.734   6.870  0.8235  1.9601 -0.3697
  883MOL0     H19196   7.791   9.721   7.041  1.4582  1.5191 -0.0795
  883MOL0     H19197   7.883   9.475   7.013 -1.4317 -2.9386 -0.5878
  883MOL0     H19198   7.858   9.501   6.842  1.5294  1.5460 -0.0942
  883MOL0     H19199   7.624   9.484   7.042 -0.6884  0.3646 -0.2273
  883MOL0     H19200   7.607   9.533   6.868  1.3625  0.6584 -0.2305
  883MOL0     H19201   7.699   9.128   6.836 -0.2710  0.6674  1.3632
  883MOL0     H19202   8.141   9.771   7.275  0.4771  0.5268  0.7779
  883MOL0     H19203   8.391   9.950   7.371 -1.4549  1.4970  2.1369
  883MOL0     H19204   8.281   9.817   7.420 -0.1979 -1.2590 -1.8688
  883MOL0     H19205   8.452   9.785   7.420  0.1507  2.3776  0.5386
  884MOL0     O19206   4.339   7.804  10.072  0.5568  0.2821  0.6931
  884MOL0     C19207   4.364   7.916  10.109  1.1314  0.1759 -0.8211
  884MOL0     O19208   4.474   7.957  10.189  0.6586 -0.3226 -1.2034
  884MOL0     C19209   4.573   7.872  10.230 -0.4963 -0.2228  0.2995
  884MOL0     C19210   4.587   7.740  10.218 -0.4111  0.7454 -0.3056
  884MOL0     C19211   4.699   7.676  10.285 -0.0551  0.6948  0.0237
  884MOL0     C19212   4.803   7.752  10.334  0.4662 -0.0486 -0.0056
  884MOL0     O19213   4.913   7.679  10.370 -0.1117  0.1397  0.0994
  884MOL0     C19214   5.001   7.726  10.470  0.4183 -0.1410  0.3975
  884MOL0     C19215   5.083   7.608  10.509 -0.1371  0.1003  0.9484
  884MOL0     C19216   5.179   7.628  10.627  0.2847 -0.6368  0.4826
  884MOL0     C19217   5.255   7.502  10.660 -0.4288 -0.4309  0.3613
  884MOL0     C19218   5.324   7.513  10.791  0.0750 -0.4521 -0.4166
  884MOL0     C19219   5.434   7.409  10.821 -0.3461  0.5422 -0.9428
  884MOL0     C19220   5.525   7.455  10.936 -0.1088  0.3046  0.0810
  884MOL0     C19221   5.642   7.353  10.944 -1.1170  0.4928 -0.6482
  884MOL0     N19222   5.740   7.364  10.839 -0.1475 -0.0787  0.7644
  884MOL0     C19223   5.857   7.444  10.838  0.4137  0.0254  0.6504
  884MOL0     C19224   5.911   7.419  10.716 -0.3572 -0.4241 -0.5925
  884MOL0     C19225   6.040   7.488  10.664 -0.3587 -0.4028 -0.0567
  884MOL0     C19226   6.166   7.403  10.704 -0.4535  0.7759 -0.2102
  884MOL0     C19227   6.177   7.261  10.645 -0.4418  0.1642 -0.4134
  884MOL0     C19228   6.294   7.183  10.717  0.4149  0.0172 -0.0339
  884MOL0     O19229   6.320   7.073  10.627  0.6549 -0.4507  0.3059
  884MOL0     C19230   6.439   7.014  10.639 -0.9301 -0.6030  0.1597
  884MOL0     C19231   6.534   7.033  10.745 -0.2769 -0.0036  0.0779
  884MOL0     C19232   6.657   6.969  10.741  0.0187 -0.6067 -0.0207
  884MOL0     C19233   6.703   6.889  10.639 -0.0058  1.4392  0.1387
  884MOL0     C19234   6.841   6.837  10.635  0.2132 -0.0617 -0.8969
  884MOL0     O19235   6.918   6.893  10.732  0.4252 -0.7939 -0.4498
  884MOL0     C19236   7.050   6.873  10.731  0.4219 -0.0843 -0.6264
  884MOL0     C19237   7.134   6.885  10.620  0.3875 -0.5283  1.0920
  884MOL0     C19238   7.272   6.862  10.633  0.5848 -0.0143  0.8760
  884MOL0     C19239   7.340   6.840  10.756 -0.4745  0.5009  0.4650
  884MOL0     O19240   7.480   6.830  10.777 -0.1324 -0.0198  0.4999
  884MOL0     C19241   7.550   6.878  10.659 -1.3383  0.6631  0.6673
  884MOL0     C19242   7.699   6.867  10.684 -0.0256  0.3076  0.7724
  884MOL0     C19243   7.794   6.955  10.593 -0.4026  0.6537  0.2228
  884MOL0     C19244   7.941   6.944  10.627  0.4302 -0.3107  0.2568
  884MOL0     C19245   8.028   6.994  10.504 -0.2996 -0.6524 -0.5620
  884MOL0     C19246   8.179   6.971  10.507 -0.0588  0.1276  0.3953
  884MOL0     C19247   8.259   7.045  10.620  0.6718 -0.3496  0.5038
  884MOL0     C19248   8.404   7.000  10.622 -0.3114  0.0950 -0.0594
  884MOL0    Cl19249   8.464   7.096  10.751  0.1074 -0.3388 -0.3209
  884MOL0     C19250   7.259   6.837  10.868 -0.0290 -0.1302  0.4299
  884MOL0     C19251   7.120   6.849  10.854  0.4791  1.2728  0.2961
  884MOL0     O19252   6.886   6.751  10.558  0.2324  0.2064  0.1029
  884MOL0     C19253   6.610   6.865  10.533  0.4013 -0.6728 -0.2463
  884MOL0     C19254   6.481   6.929  10.538 -0.1360 -0.2377  0.0501
  884MOL0     N19255   5.837   7.333  10.637  0.0813  0.0205 -0.0217
  884MOL0     N19256   5.739   7.299  10.712 -0.4706  0.1921 -0.0678
  884MOL0     C19257   4.797   7.896  10.334  0.1032  0.1083 -0.2389
  884MOL0     C19258   4.680   7.952  10.286  0.1876 -0.3994  0.3790
  884MOL0     C19259   4.258   8.008  10.067  0.0036 -1.1561 -0.2415
  884MOL0     C19260   4.137   7.962  10.018  0.1556  0.2930  0.4093
  884MOL0     C19261   4.037   8.046   9.961 -0.7037 -0.7617 -0.2173
  884MOL0     C19262   4.056   8.190   9.963 -0.4993  0.3832  1.0296
  884MOL0     O19263   3.960   8.265   9.899 -0.1438  0.0304 -0.1206
  884MOL0     C19264   3.970   8.409   9.886 -0.1266 -0.9909  0.0218
  884MOL0     C19265   3.927   8.476  10.015 -0.0005  0.2980 -0.5905
  884MOL0     C19266   3.771   8.463  10.033  0.9296 -0.5363 -0.3844
  884MOL0     C19267   3.716   8.531  10.154 -0.6201  0.1914  0.3018
  884MOL0     C19268   3.743   8.674  10.144  0.3129 -0.4190  0.0104
  884MOL0     C19269   3.782   8.782  10.128 -0.0676 -0.0111 -1.0857
  884MOL0     C19270   4.170   8.229  10.019 -0.3863 -0.1068  0.5146
  884MOL0     C19271   4.274   8.149  10.074  0.7140  0.2049  1.0570
  884MOL0     C19272   4.389   8.225  10.148  0.1012  0.6237  0.4858
  884MOL0     H19273   4.516   7.675  10.166 -0.0360  0.9628 -1.1141
  884MOL0     H19274   4.701   7.568  10.294  0.4442  0.7819  1.0715
  884MOL0     H19275   5.069   7.808  10.445  0.5015 -0.0814  0.8140
  884MOL0     H19276   4.946   7.765  10.556  0.4302  2.5329 -0.7146
  884MOL0     H19277   5.141   7.569  10.425  0.5505 -2.7645  2.6177
  884MOL0     H19278   5.007   7.537  10.541 -1.8960 -0.0002 -2.9372
  884MOL0     H19279   5.117   7.657  10.712 -2.0198 -0.5506 -1.1453
  884MOL0     H19280   5.252   7.709  10.620  2.0987 -1.9348  2.6653
  884MOL0     H19281   5.197   7.410  10.674 -0.6573 -0.0313  2.4193
  884MOL0     H19282   5.326   7.470  10.583 -0.2994 -0.8393  0.6439
  884MOL0     H19283   5.354   7.618  10.794 -3.9067  0.8539  0.1480
  884MOL0     H19284   5.245   7.507  10.867 -0.1516  1.8786 -0.3722
  884MOL0     H19285   5.396   7.312  10.854  0.7330 -0.5485 -2.7787
  884MOL0     H19286   5.500   7.388  10.737  1.2915 -1.3212  0.7003
  884MOL0     H19287   5.467   7.438  11.027 -0.9124 -0.2097 -0.5168
  884MOL0     H19288   5.563   7.558  10.931  0.1667  0.1578 -1.1882
  884MOL0     H19289   5.682   7.376  11.043 -1.8188  0.5905 -0.3790
  884MOL0     H19290   5.594   7.254  10.942 -1.2940  0.5465  0.2921
  884MOL0     H19291   5.907   7.510  10.907  2.3858  1.8533 -2.2994
  884MOL0     H19292   6.046   7.506  10.556  0.9283 -1.0097 -0.1086
  884MOL0     H19293   6.050   7.585  10.713  1.1131  0.1315 -1.3359
  884MOL0     H19294   6.250   7.467  10.679  0.8204  0.0906  1.9983
  884MOL0     H19295   6.169   7.396  10.814  0.8557  1.8554 -0.1473
  884MOL0     H19296   6.210   7.277  10.542  1.2403  0.1756  0.0924
  884MOL0     H19297   6.084   7.206  10.660 -1.8314  2.6778  0.9227
  884MOL0     H19298   6.254   7.145  10.812  2.0052 -1.8335 -0.0508
  884MOL0     H19299   6.378   7.248  10.743 -0.3243  0.8279  0.4188
  884MOL0     H19300   6.510   7.092  10.833  1.4745  0.5712  0.2018
  884MOL0     H19301   6.716   6.993  10.829 -1.5697  2.9635  0.2228
  884MOL0     H19302   7.097   6.910  10.522  0.9799 -0.3753  0.9054
  884MOL0     H19303   7.335   6.870  10.544  1.1239 -2.2998  0.9914
  884MOL0     H19304   7.530   6.820  10.569  0.2358  0.8449  0.1682
  884MOL0     H19305   7.521   6.975  10.618  1.7129  0.5315 -2.2553
  884MOL0     H19306   7.730   6.878  10.789  0.5353  1.3860  0.5129
  884MOL0     H19307   7.720   6.762  10.663 -2.2655  0.3266 -2.2558
  884MOL0     H19308   7.780   6.923  10.489  1.1105  0.2878  0.1042
  884MOL0     H19309   7.769   7.061  10.599  1.8954  1.1915  1.1220
  884MOL0     H19310   7.976   6.847  10.663  0.7796  0.5375  2.3749
  884MOL0     H19311   7.957   7.022  10.702 -1.3006  2.0625 -1.6619
  884MOL0     H19312   8.007   7.098  10.474 -0.2208 -0.4868 -0.0444
  884MOL0     H19313   7.997   6.929  10.421 -2.1266 -1.2688  0.5629
  884MOL0     H19314   8.192   6.862  10.514 -4.6768 -0.5490  1.8135
  884MOL0     H19315   8.210   7.010  10.410 -4.4984 -0.4243 -1.4480
  884MOL0     H19316   8.212   7.012  10.713 -1.4518 -0.3322 -0.5011
  884MOL0     H19317   8.255   7.153  10.602  0.6219 -0.7450 -2.3702
  884MOL0     H19318   8.412   6.893  10.642 -1.1996 -0.2897 -1.6281
  884MOL0     H19319   8.442   7.025  10.523  2.6810  0.4933  1.0642
  884MOL0     H19320   7.310   6.818  10.961  1.3578 -1.4926 -0.5521
  884MOL0     H19321   7.061   6.850  10.945  0.6879 -5.3064  1.0150
  884MOL0     H19322   6.642   6.802  10.451  2.7808  1.3574 -0.9789
  884MOL0     H19323   6.422   6.926  10.447  0.8209  1.0749 -0.6352
  884MOL0     H19324   4.875   7.963  10.366 -0.4706  2.6044 -3.5143
  884MOL0     H19325   4.660   8.059  10.284 -0.5678 -0.5210  0.8105
  884MOL0     H19326   4.120   7.855  10.028 -0.1178  0.3449  0.4805
  884MOL0     H19327   3.950   8.001   9.913 -0.8276  0.0528 -0.7808
  884MOL0     H19328   3.900   8.432   9.804 -0.0538 -1.1242 -0.0783
  884MOL0     H19329   4.067   8.438   9.844  0.1667  0.4724  1.5964
  884MOL0     H19330   3.962   8.580  10.008  0.3269  0.1137 -2.4679
  884MOL0     H19331   3.977   8.427  10.099 -1.9124  1.2818  1.1912
  884MOL0     H19332   3.741   8.360  10.055 -0.1025 -0.0689  0.4500
  884MOL0     H19333   3.718   8.488   9.941  0.2316 -2.7134 -0.6455
  884MOL0     H19334   3.609   8.511  10.156 -1.1904  2.8610  0.0629
  884MOL0     H19335   3.764   8.493  10.245  2.0272  0.4146 -0.9016
  884MOL0     H19336   3.814   8.883  10.111 -0.5389  0.7160  1.7477
  884MOL0     H19337   4.189   8.336  10.017 -1.4192  0.0903 -1.0344
  884MOL0     H19338   4.488   8.210  10.106 -0.0222  1.9518 -0.3572
  884MOL0     H19339   4.366   8.332  10.141 -1.7962  0.1914 -0.8456
  884MOL0     H19340   4.396   8.184  10.249 -2.0923 -0.5414  0.2363
  885MOL0     O19341  10.387  10.705   6.492 -0.2144 -0.8655 -0.6557
  885MOL0     C19342  10.326  10.653   6.589 -0.0774 -0.0871  0.2612
  885MOL0     O19343  10.385  10.573   6.675 -0.7583 -0.0279 -0.1045
  885MOL0     C19344  10.521  10.601   6.713  0.6756  0.0266 -0.1953
  885MOL0     C19345  10.564  10.725   6.761  0.4310 -0.2795  0.1183
  885MOL0     C19346  10.689  10.750   6.811 -0.5882 -0.2666 -0.1447
  885MOL0     C19347  10.787  10.647   6.808  0.2134 -0.3376 -0.8119
  885MOL0     O19348  10.918  10.663   6.839  0.4370 -0.0403 -0.3988
  885MOL0     C19349  10.967  10.783   6.903  0.2751  0.4281  0.4321
  885MOL0     C19350  11.116  10.782   6.925 -0.8023  0.1439 -0.8107
  885MOL0     C19351  11.193  10.768   6.788 -0.3137  0.2310 -0.3418
  885MOL0     C19352  11.337  10.772   6.807 -0.0208  0.3282  0.4042
  885MOL0     C19353  11.413  10.773   6.671  0.0037  0.1070 -0.6724
  885MOL0     C19354  11.552  10.811   6.699 -1.0070  0.3273  0.4496
  885MOL0     C19355  11.637  10.809   6.576  0.6299  0.6754 -0.6688
  885MOL0     C19356  11.601  10.893   6.459 -0.0332 -0.5257  0.5907
  885MOL0     N19357  11.673  10.843   6.339  0.8157  0.1590  0.6692
  885MOL0     C19358  11.807  10.861   6.338  0.0628  0.0307  0.0472
  885MOL0     C19359  11.849  10.806   6.221  0.1143  0.0747 -0.0134
  885MOL0     C19360  11.984  10.783   6.170  0.1621  0.5259 -0.0700
  885MOL0     C19361  12.082  10.708   6.273  0.4126 -0.8173 -0.7140
  885MOL0     C19362  12.045  10.571   6.325 -0.0553 -0.0891  0.5524
  885MOL0     C19363  12.140  10.505   6.421  0.1770 -0.1158 -0.2990
  885MOL0     O19364  12.093  10.371   6.451 -0.8180  0.2317  0.0325
  885MOL0     C19365  12.187  10.279   6.483  0.0072  0.4050  0.7199
  885MOL0     C19366  12.150  10.147   6.446 -0.3299 -0.1594  0.2457
  885MOL0     C19367  12.232  10.037   6.484  0.6329 -0.4982  0.0576
  885MOL0     C19368  12.357  10.060   6.543 -0.5471 -0.9459 -0.0167
  885MOL0     C19369  12.456   9.955   6.569  0.2392  0.7411 -0.8548
  885MOL0     O19370  12.424   9.828   6.517  0.4810 -0.0220 -0.3167
  885MOL0     C19371  12.510   9.727   6.533 -0.4970  0.7386  0.2222
  885MOL0     C19372  12.520   9.645   6.420  1.0882 -0.1097 -0.6883
  885MOL0     C19373  12.619   9.544   6.425 -0.0473  0.0209  0.2084
  885MOL0     C19374  12.681   9.499   6.539  0.5029 -0.7186  0.0801
  885MOL0     O19375  12.762   9.388   6.535  0.0058 -0.1639 -0.3425
  885MOL0     C19376  12.842   9.360   6.421 -0.7534  0.1102 -0.0643
  885MOL0     C19377  12.988   9.340   6.465 -0.5986 -0.7760  0.3289
  885MOL0     C19378  13.043   9.451   6.545 -0.6862  0.6927 -0.0641
  885MOL0     C19379  13.185   9.420   6.612  0.2995  0.8222  0.3048
  885MOL0     C19380  13.247   9.521   6.706  0.4870  0.1979 -0.3348
  885MOL0     C19381  13.172   9.530   6.838  0.6156 -0.7132 -0.7060
  885MOL0     C19382  13.237   9.630   6.936  0.3183 -0.5234  0.0317
  885MOL0     C19383  13.128   9.686   7.033 -0.6104  0.5767 -0.4428
  885MOL0    Cl19384  13.035   9.559   7.120  0.0213 -0.5597 -0.1002
  885MOL0     C19385  12.655   9.572   6.655 -0.1224  0.5860 -0.0014
  885MOL0     C19386  12.568   9.682   6.651 -1.0658  0.1042  0.2662
  885MOL0     O19387  12.549   9.976   6.636 -0.1966  0.0998 -0.4695
  885MOL0     C19388  12.398  10.196   6.564  0.2409 -0.4617 -0.3291
  885MOL0     C19389  12.316  10.300   6.535  0.0604 -0.4417  0.0152
  885MOL0     N19390  11.732  10.761   6.154 -0.1367  0.3285  0.1919
  885MOL0     N19391  11.633  10.796   6.217  0.2837 -0.5832  0.3645
  885MOL0     C19392  10.747  10.525   6.769  0.8397  0.5273 -0.2452
  885MOL0     C19393  10.617  10.497   6.717 -0.6629 -1.2600  0.4438
  885MOL0     C19394  10.180  10.647   6.583  0.4645 -0.5428  0.1730
  885MOL0     C19395  10.119  10.624   6.713  0.3048  0.6101  0.6536
  885MOL0     C19396   9.978  10.611   6.715  0.2440 -0.3403  0.0655
  885MOL0     C19397   9.895  10.612   6.605  0.3751 -0.5737  0.9667
  885MOL0     O19398   9.761  10.581   6.631 -0.3177 -0.0258  0.2611
  885MOL0     C19399   9.678  10.591   6.514 -0.6464 -0.2070 -0.0330
  885MOL0     C19400   9.534  10.558   6.551  0.8132 -0.0948  0.4131
  885MOL0     C19401   9.437  10.558   6.428  0.5342  0.0534  0.4876
  885MOL0     C19402   9.439  10.695   6.353 -0.6907  0.4362  0.1395
  885MOL0     C19403   9.318  10.700   6.263  0.2713  0.2903 -0.1446
  885MOL0     C19404   9.208  10.701   6.219 -0.4180 -1.3974  0.0547
  885MOL0     C19405   9.956  10.659   6.482 -0.6331  0.7462 -0.3040
  885MOL0     C19406  10.097  10.662   6.464 -0.2397 -0.0734 -0.2896
  885MOL0     C19407  10.140  10.703   6.324  0.6170  0.0339  0.0888
  885MOL0     H19408  10.488  10.803   6.763 -2.6931 -3.1006 -0.1081
  885MOL0     H19409  10.709  10.850   6.848 -1.1369 -0.0176 -0.5041
  885MOL0     H19410  10.945  10.865   6.834 -1.2349  0.0005  0.3643
  885MOL0     H19411  10.911  10.793   6.997 -2.2614  0.0241 -0.9392
  885MOL0     H19412  11.146  10.703   6.995 -3.2684  0.0447  0.2418
  885MOL0     H19413  11.137  10.882   6.965 -2.7739  1.6157 -3.1978
  885MOL0     H19414  11.154  10.856   6.735 -2.3217  0.0122  0.6389
  885MOL0     H19415  11.163  10.678   6.734  0.1226  1.5727 -3.0051
  885MOL0     H19416  11.362  10.867   6.854  0.5680 -0.9256  2.7737
  885MOL0     H19417  11.370  10.682   6.860  0.9270 -0.5148 -1.5013
  885MOL0     H19418  11.407  10.671   6.632 -1.2860 -1.3251  2.8284
  885MOL0     H19419  11.357  10.846   6.612 -1.0343  1.2629  1.6096
  885MOL0     H19420  11.557  10.911   6.743  2.6526 -1.2820  4.4538
  885MOL0     H19421  11.601  10.743   6.771 -0.7885  2.2714  2.2290
  885MOL0     H19422  11.661  10.707   6.545  2.2596  0.9398 -0.3812
  885MOL0     H19423  11.734  10.847   6.610  0.2394  0.6801  0.4853
  885MOL0     H19424  11.494  10.885   6.439  0.2680 -0.6579 -1.1030
  885MOL0     H19425  11.618  11.000   6.473 -0.6468 -0.3298 -0.0997
  885MOL0     H19426  11.870  10.899   6.417 -0.5900 -1.8175  1.5393
  885MOL0     H19427  11.967  10.715   6.086 -1.9378 -1.8179  2.0585
  885MOL0     H19428  12.031  10.877   6.138  2.3853  0.4022  2.4332
  885MOL0     H19429  12.176  10.695   6.218  0.6847  2.7477 -1.3055
  885MOL0     H19430  12.096  10.775   6.358 -0.1303  1.6214 -2.4361
  885MOL0     H19431  12.050  10.502   6.239 -1.6654  0.4125  0.0199
  885MOL0     H19432  11.941  10.578   6.359 -1.3539 -1.8358 -2.5637
  885MOL0     H19433  12.147  10.557   6.517 -2.0923 -1.7864  0.8477
  885MOL0     H19434  12.238  10.494   6.373 -0.0589 -1.9395 -0.4593
  885MOL0     H19435  12.052  10.135   6.401 -0.0147 -1.4762 -0.1104
  885MOL0     H19436  12.196   9.938   6.456 -1.9110  0.7947 -1.6717
  885MOL0     H19437  12.465   9.671   6.330 -0.5442  0.1732  0.3444
  885MOL0     H19438  12.627   9.503   6.325 -0.9261 -0.4139  0.2995
  885MOL0     H19439  12.796   9.272   6.377 -1.2006  0.1430  0.3234
  885MOL0     H19440  12.842   9.434   6.340 -0.7932 -2.6571 -2.7471
  885MOL0     H19441  13.001   9.256   6.534  3.2329  1.9615  3.4446
  885MOL0     H19442  13.051   9.327   6.376 -0.5489  1.4090 -0.0043
  885MOL0     H19443  13.045   9.539   6.479 -1.1778  0.8699  0.1480
  885MOL0     H19444  12.972   9.476   6.625  0.5187  1.0795  0.9001
  885MOL0     H19445  13.258   9.404   6.532  1.6242 -0.7473  1.7546
  885MOL0     H19446  13.170   9.330   6.671  0.4837 -0.4108 -1.4507
  885MOL0     H19447  13.254   9.619   6.658  0.3209 -0.3011 -1.3891
  885MOL0     H19448  13.351   9.498   6.732  0.6289  2.3604  1.3389
  885MOL0     H19449  13.070   9.563   6.820 -0.1730 -2.1568  0.8335
  885MOL0     H19450  13.178   9.433   6.890  0.8799  0.1338  0.9157
  885MOL0     H19451  13.281   9.708   6.873 -0.9444 -0.8241 -1.2861
  885MOL0     H19452  13.311   9.573   6.992 -1.1312 -1.7947  0.7383
  885MOL0     H19453  13.182   9.745   7.108 -0.7408 -1.7379  1.6169
  885MOL0     H19454  13.052   9.746   6.981 -0.2970 -0.1853 -1.8365
  885MOL0     H19455  12.709   9.545   6.746  0.0141  0.1595 -0.2073
  885MOL0     H19456  12.561   9.733   6.747  0.1992 -0.4493  0.6689
  885MOL0     H19457  12.501  10.219   6.591 -0.1524 -1.0770  1.9128
  885MOL0     H19458  12.335  10.403   6.564  2.1098 -1.0758  1.0499
  885MOL0     H19459  10.816  10.441   6.763  0.2250  0.0603 -1.0619
  885MOL0     H19460  10.588  10.402   6.674  0.6866 -2.7093  2.5772
  885MOL0     H19461  10.185  10.618   6.799  0.6417 -0.3212  0.3409
  885MOL0     H19462   9.944  10.591   6.816  1.7738  0.6610  0.8154
  885MOL0     H19463   9.712  10.528   6.432 -1.1765  0.8476 -1.0929
  885MOL0     H19464   9.690  10.691   6.472  2.6354 -1.3235 -2.1131
  885MOL0     H19465   9.496  10.633   6.620  1.6469  0.8734 -0.1457
  885MOL0     H19466   9.541  10.460   6.598 -0.2212 -1.6845 -2.4828
  885MOL0     H19467   9.336  10.540   6.464  0.0796 -0.2306 -0.9079
  885MOL0     H19468   9.458  10.476   6.359  0.6693  0.2697  0.2692
  885MOL0     H19469   9.439  10.778   6.424  0.6971  0.6769 -0.1290
  885MOL0     H19470   9.527  10.706   6.289 -1.5909 -0.6122 -1.3544
  885MOL0     H19471   9.107  10.711   6.185  0.0914 -1.5317 -1.6000
  885MOL0     H19472   9.901  10.667   6.389 -0.7142 -0.0026 -0.3217
  885MOL0     H19473  10.175  10.806   6.331  1.4627 -0.3012  0.8936
  885MOL0     H19474  10.212  10.632   6.282 -1.9002 -0.8255 -3.1783
  885MOL0     H19475  10.067  10.711   6.243  0.0873  1.5149  0.6715
  886MOL0     O19476   3.437   8.897   2.368  0.5638 -0.0590  0.0106
  886MOL0     C19477   3.361   8.825   2.316  0.7517  1.0715  0.4448
  886MOL0     O19478   3.384   8.688   2.276  0.3271 -0.0263 -0.0711
  886MOL0     C19479   3.489   8.633   2.340 -0.0932 -0.7744 -0.3883
  886MOL0     C19480   3.498   8.618   2.476  0.1478 -0.0241 -0.8151
  886MOL0     C19481   3.614   8.559   2.536  0.2732  0.1724 -0.3569
  886MOL0     C19482   3.724   8.518   2.456  0.7004 -0.9583  0.5459
  886MOL0     O19483   3.830   8.455   2.512  0.0763 -0.2139 -0.8433
  886MOL0     C19484   3.948   8.433   2.440  0.4995 -0.1866  0.2306
  886MOL0     C19485   4.044   8.384   2.549 -0.5764 -0.1101 -0.4686
  886MOL0     C19486   4.091   8.498   2.645 -0.2298 -0.3543  0.2206
  886MOL0     C19487   4.192   8.447   2.749  0.0155  0.1662  0.2044
  886MOL0     C19488   4.216   8.549   2.857 -0.0933 -0.2963  0.0452
  886MOL0     C19489   4.333   8.495   2.943  0.0303 -0.3456  0.2081
  886MOL0     C19490   4.325   8.559   3.084 -0.8629  0.1812 -0.3899
  886MOL0     C19491   4.433   8.493   3.174 -0.4448 -0.2691 -0.2421
  886MOL0     N19492   4.566   8.547   3.174 -0.3549 -0.0048 -0.2903
  886MOL0     C19493   4.627   8.614   3.275 -0.0574  0.0429  0.5301
  886MOL0     C19494   4.751   8.641   3.231  0.0572  0.3395 -0.0700
  886MOL0     C19495   4.839   8.740   3.294 -0.1081  0.0927 -0.8714
  886MOL0     C19496   4.985   8.692   3.282  0.0949 -0.7828  0.2577
  886MOL0     C19497   5.063   8.774   3.384  0.0065  0.2710  1.4180
  886MOL0     C19498   5.207   8.738   3.376  0.0247 -0.1684 -0.1645
  886MOL0     O19499   5.261   8.803   3.493 -0.2112 -0.7090 -0.2203
  886MOL0     C19500   5.401   8.827   3.505  0.1046  0.7958  0.4164
  886MOL0     C19501   5.487   8.731   3.452  0.0829  0.3869 -0.2375
  886MOL0     C19502   5.625   8.747   3.450  0.0132 -0.0360  0.5561
  886MOL0     C19503   5.684   8.854   3.510  0.2491 -0.1902 -1.1428
  886MOL0     C19504   5.832   8.873   3.516 -0.6549  0.0987 -0.9908
  886MOL0     O19505   5.909   8.786   3.453  0.3124 -0.2541 -0.2866
  886MOL0     C19506   6.038   8.813   3.418  1.1474  0.1506  0.9083
  886MOL0     C19507   6.093   8.936   3.361  1.0359 -0.2668 -0.8548
  886MOL0     C19508   6.226   8.941   3.322 -0.2537 -0.3540 -0.7344
  886MOL0     C19509   6.309   8.827   3.325 -0.3220  0.0535  0.5681
  886MOL0     O19510   6.438   8.833   3.282  0.8531 -0.2336 -0.1189
  886MOL0     C19511   6.540   8.750   3.353  0.3879  0.4355 -0.2256
  886MOL0     C19512   6.662   8.829   3.316 -0.7511 -0.5402  0.5214
  886MOL0     C19513   6.781   8.766   3.396 -0.6346 -0.6810  0.8840
  886MOL0     C19514   6.918   8.845   3.382 -0.6008 -0.3046 -0.3883
  886MOL0     C19515   7.032   8.774   3.452 -0.1926  0.5215  0.4945
  886MOL0     C19516   7.165   8.858   3.474  0.6128 -0.2818  0.6678
  886MOL0     C19517   7.238   8.898   3.345  0.2665 -0.4047 -0.7018
  886MOL0     C19518   7.356   8.978   3.382  0.2729  0.2675  0.2956
  886MOL0    Cl19519   7.332   9.149   3.424 -0.1595  0.2292  0.2301
  886MOL0     C19520   6.252   8.707   3.369 -0.5466 -0.6779 -0.6102
  886MOL0     C19521   6.117   8.704   3.417 -0.3928  0.4641  0.1291
  886MOL0     O19522   5.880   8.980   3.565  0.6215 -0.3845  0.0559
  886MOL0     C19523   5.601   8.946   3.570 -0.3375 -1.2326  0.3581
  886MOL0     C19524   5.458   8.928   3.571 -0.4867  0.4097 -0.3218
  886MOL0     N19525   4.775   8.577   3.116 -0.6238  0.3618 -0.4297
  886MOL0     N19526   4.664   8.513   3.084  0.4293  0.0739 -0.6917
  886MOL0     C19527   3.713   8.534   2.319  0.7078  0.4127 -0.2522
  886MOL0     C19528   3.598   8.594   2.258 -0.2485 -0.4838  0.1862
  886MOL0     C19529   3.220   8.869   2.315  0.0270 -0.0475  0.2412
  886MOL0     C19530   3.113   8.775   2.287  0.6296 -0.1859  0.2543
  886MOL0     C19531   2.976   8.816   2.285 -0.6727  0.0605 -0.9642
  886MOL0     C19532   2.939   8.951   2.309  0.0954  0.7319  0.1768
  886MOL0     O19533   2.807   8.974   2.287 -0.4510  0.5212 -1.0462
  886MOL0     C19534   2.750   9.100   2.286  0.1334 -0.1324  0.0477
  886MOL0     C19535   2.704   9.134   2.429  0.0308  0.6356  0.7734
  886MOL0     C19536   2.644   9.274   2.448 -0.2170 -0.8072 -0.6787
  886MOL0     C19537   2.501   9.314   2.385 -0.8634  0.5157  0.5200
  886MOL0     C19538   2.403   9.204   2.381 -0.1544  0.0179  0.3329
  886MOL0     C19539   2.336   9.107   2.404 -0.3571 -0.5209  0.2884
  886MOL0     C19540   3.046   9.036   2.346 -0.5832 -0.3927  0.4168
  886MOL0     C19541   3.183   8.998   2.348  0.1555 -0.8995 -0.1379
  886MOL0     C19542   3.278   9.113   2.384  0.6452  0.6417 -0.0745
  886MOL0     H19543   3.421   8.656   2.542  0.2064 -0.9903 -0.1606
  886MOL0     H19544   3.608   8.557   2.644 -0.4534  1.3262 -0.3560
  886MOL0     H19545   3.935   8.354   2.366  0.0060  0.5999 -0.5511
  886MOL0     H19546   3.971   8.525   2.384 -3.6813  0.0889 -1.4304
  886MOL0     H19547   4.135   8.354   2.495 -0.2905 -1.7223  0.8251
  886MOL0     H19548   4.002   8.298   2.603  2.4845 -0.8486  0.9477
  886MOL0     H19549   4.004   8.551   2.685  0.2951  0.2066  0.6313
  886MOL0     H19550   4.145   8.573   2.585  2.2209 -1.0079  1.5069
  886MOL0     H19551   4.142   8.358   2.787 -0.3744 -0.1305 -0.9610
  886MOL0     H19552   4.287   8.415   2.708  0.0583  2.9853 -2.2686
  886MOL0     H19553   4.233   8.653   2.827 -0.4479  0.2844  1.7325
  886MOL0     H19554   4.127   8.552   2.921  0.6322 -0.5983  1.0945
  886MOL0     H19555   4.329   8.386   2.951 -1.1616 -0.4508 -1.4683
  886MOL0     H19556   4.429   8.500   2.891 -0.2999  0.4282 -0.3374
  886MOL0     H19557   4.227   8.533   3.124 -1.3990 -0.1086 -1.8176
  886MOL0     H19558   4.350   8.666   3.078  0.4806  0.1413  2.7141
  886MOL0     H19559   4.403   8.508   3.278  0.0365  0.9083 -0.2561
  886MOL0     H19560   4.440   8.386   3.152  0.8176 -0.2220 -0.1296
  886MOL0     H19561   4.576   8.650   3.364  3.0327  0.3463  2.3016
  886MOL0     H19562   4.824   8.838   3.247 -0.9656 -0.4831 -1.8280
  886MOL0     H19563   4.806   8.743   3.398 -0.7117  0.7860 -1.0717
  886MOL0     H19564   4.987   8.586   3.311  1.7045 -0.4948  1.2674
  886MOL0     H19565   5.009   8.714   3.178 -2.2767 -0.1859 -0.2330
  886MOL0     H19566   5.027   8.749   3.485 -0.6601 -1.4524  0.7787
  886MOL0     H19567   5.057   8.882   3.365  1.0593  0.0430 -0.4439
  886MOL0     H19568   5.252   8.786   3.288 -0.1576  0.3794  0.0317
  886MOL0     H19569   5.236   8.634   3.368 -1.0635 -0.3600 -2.7968
  886MOL0     H19570   5.454   8.647   3.392 -0.1636  0.0940  0.2987
  886MOL0     H19571   5.682   8.677   3.389  1.3687  0.0331  1.6901
  886MOL0     H19572   6.025   9.021   3.360 -0.1244 -1.0572  1.6237
  886MOL0     H19573   6.263   9.032   3.276 -1.3751  0.6141  0.2019
  886MOL0     H19574   6.521   8.756   3.460 -1.1935  0.6336 -0.4803
  886MOL0     H19575   6.553   8.644   3.330  0.9576  0.4547  0.0221
  886MOL0     H19576   6.683   8.812   3.210 -2.6661 -0.9346  0.1708
  886MOL0     H19577   6.658   8.936   3.340  2.7805  0.2582 -1.7188
  886MOL0     H19578   6.766   8.762   3.504  0.9304 -1.0217  1.1137
  886MOL0     H19579   6.807   8.664   3.366  3.4560  0.0540  1.2462
  886MOL0     H19580   6.913   8.947   3.421 -0.5228 -0.8495  1.1195
  886MOL0     H19581   6.941   8.840   3.276 -2.7279 -0.0318 -0.9173
  886MOL0     H19582   7.060   8.693   3.384 -1.1933  1.0410 -0.5783
  886MOL0     H19583   6.999   8.737   3.550 -0.3732  0.0849  0.2710
  886MOL0     H19584   7.141   8.946   3.534 -1.4218 -0.5740  0.3450
  886MOL0     H19585   7.232   8.802   3.540  0.6299  1.2175  1.9554
  886MOL0     H19586   7.172   8.958   3.281  1.9492  2.5390  0.0891
  886MOL0     H19587   7.261   8.804   3.296 -1.7175 -1.3872  0.1531
  886MOL0     H19588   7.415   8.934   3.463  2.0798  1.5481 -0.2428
  886MOL0     H19589   7.429   8.985   3.300  2.2807 -0.7442  1.9033
  886MOL0     H19590   6.318   8.622   3.378  1.5317  1.0607  2.5773
  886MOL0     H19591   6.099   8.608   3.464 -0.4554  1.0717  1.3824
  886MOL0     H19592   5.644   9.033   3.621 -1.4118  1.0905 -2.4297
  886MOL0     H19593   5.395   8.997   3.627 -2.6785 -2.2185  0.6285
  886MOL0     H19594   3.794   8.505   2.252 -0.0330  0.5764 -1.2443
  886MOL0     H19595   3.607   8.618   2.153  0.6073  2.9900  0.9258
  886MOL0     H19596   3.123   8.670   2.261 -0.6542 -0.8202  2.1018
  886MOL0     H19597   2.901   8.739   2.271  0.3941 -1.6457  1.8867
  886MOL0     H19598   2.669   9.104   2.212  0.9763 -2.3214 -1.0722
  886MOL0     H19599   2.824   9.177   2.262  0.6469  0.2355  2.5541
  886MOL0     H19600   2.791   9.133   2.496 -1.1101  1.8583  2.3639
  886MOL0     H19601   2.631   9.064   2.470  1.0309  0.2914  2.0340
  886MOL0     H19602   2.707   9.358   2.417 -2.6704  2.1675  1.7647
  886MOL0     H19603   2.633   9.285   2.556 -0.7495  1.7989 -0.9306
  886MOL0     H19604   2.454   9.387   2.452 -1.8854 -0.2543  0.6551
  886MOL0     H19605   2.516   9.348   2.282  1.1588  1.2726  1.0062
  886MOL0     H19606   2.281   9.018   2.425 -0.6913 -1.0822 -2.5254
  886MOL0     H19607   3.034   9.143   2.360  3.4200  0.3560 -0.5083
  886MOL0     H19608   3.320   9.106   2.485 -0.3156  0.7414  0.3498
  886MOL0     H19609   3.352   9.126   2.305 -0.5214  5.2805 -0.7160
  886MOL0     H19610   3.229   9.211   2.377  2.5082  1.4770 -3.1506
  887MOL0     O19611   0.118   8.413   0.868  0.1805  0.2280  0.5450
  887MOL0     C19612   0.056   8.432   0.974  0.5707 -0.3922  1.1505
  887MOL0     O19613   0.094   8.512   1.072  0.3801 -0.1195  0.2919
  887MOL0     C19614   0.223   8.552   1.066  0.2287 -0.1271  0.3565
  887MOL0     C19615   0.301   8.501   1.170  0.1112  0.6194 -0.2545
  887MOL0     C19616   0.430   8.543   1.183  0.0300  0.4434 -0.8776
  887MOL0     C19617   0.484   8.656   1.115 -0.2456 -0.2243  1.0922
  887MOL0     O19618   0.610   8.691   1.133  0.5864 -0.1840 -0.2488
  887MOL0     C19619   0.641   8.829   1.098  0.7605 -0.5049 -0.5513
  887MOL0     C19620   0.768   8.857   1.177 -1.5391 -0.4179  0.2725
  887MOL0     C19621   0.740   8.846   1.337  0.4726 -0.3645  0.6941
  887MOL0     C19622   0.846   8.888   1.439 -0.0519  1.2049  0.2356
  887MOL0     C19623   0.954   8.779   1.434 -0.1827 -0.2025  0.2219
  887MOL0     C19624   1.084   8.821   1.511  0.6596  0.3754 -0.9566
  887MOL0     C19625   1.146   8.710   1.594 -0.1691  1.4151 -0.5498
  887MOL0     C19626   1.194   8.583   1.509  0.2435  0.0737  0.1867
  887MOL0     N19627   1.340   8.580   1.542 -0.7815 -0.3115 -0.0583
  887MOL0     C19628   1.448   8.648   1.483  0.7890  0.1820  0.2421
  887MOL0     C19629   1.556   8.584   1.533 -0.0404 -0.7069  0.9239
  887MOL0     C19630   1.697   8.594   1.483 -0.3641  0.7352 -0.6148
  887MOL0     C19631   1.748   8.483   1.392 -0.1689  0.5556  0.4983
  887MOL0     C19632   1.812   8.363   1.472  0.5262 -0.1292  0.7748
  887MOL0     C19633   1.941   8.416   1.534  0.4146  0.6342  0.3938
  887MOL0     O19634   2.041   8.420   1.434 -0.5047 -0.0940  0.1032
  887MOL0     C19635   2.167   8.459   1.465  0.2460  0.6685 -0.3233
  887MOL0     C19636   2.260   8.437   1.364  0.1110 -0.3579  0.1906
  887MOL0     C19637   2.399   8.449   1.384  0.0739  0.0188  0.4304
  887MOL0     C19638   2.437   8.486   1.515 -0.3877  0.0697  0.4057
  887MOL0     C19639   2.581   8.490   1.557  0.0209  0.7676  0.0431
  887MOL0     O19640   2.662   8.437   1.467 -0.0941 -0.0524  0.3973
  887MOL0     C19641   2.793   8.409   1.504  0.5755  0.8943  0.5074
  887MOL0     C19642   2.849   8.293   1.465  0.3197  0.7962 -0.0528
  887MOL0     C19643   2.974   8.256   1.507 -0.5846  0.4257  0.7621
  887MOL0     C19644   3.064   8.346   1.579 -0.0885 -0.4376 -0.0553
  887MOL0     O19645   3.193   8.318   1.620 -0.6439 -0.0237 -0.8045
  887MOL0     C19646   3.232   8.182   1.607  0.7121  0.0753 -0.6626
  887MOL0     C19647   3.368   8.169   1.663  0.1132 -0.5157  0.0419
  887MOL0     C19648   3.484   8.244   1.591 -0.8840  0.1699 -0.0412
  887MOL0     C19649   3.509   8.171   1.455  0.6426 -0.2793 -0.7956
  887MOL0     C19650   3.647   8.143   1.403 -1.2825 -0.1120  0.0755
  887MOL0     C19651   3.659   8.098   1.256  0.0302 -0.0129 -0.1041
  887MOL0     C19652   3.796   8.129   1.201 -0.4285 -0.0472  0.5673
  887MOL0     C19653   3.814   8.068   1.065  0.0881  0.1085  0.7702
  887MOL0    Cl19654   3.970   8.101   0.993 -0.1903 -0.1968 -0.4734
  887MOL0     C19655   3.012   8.472   1.596  0.8130  0.2115 -0.0202
  887MOL0     C19656   2.877   8.506   1.561  0.7897  0.2418  0.7339
  887MOL0     O19657   2.604   8.506   1.679  0.1267 -0.3885  0.5332
  887MOL0     C19658   2.347   8.505   1.615  0.3613 -1.0729 -0.3128
  887MOL0     C19659   2.207   8.494   1.598 -0.1125  0.0392  0.0293
  887MOL0     N19660   1.520   8.482   1.619  0.7461  0.3896 -0.8190
  887MOL0     N19661   1.392   8.482   1.628  0.2547 -0.6225 -0.0477
  887MOL0     C19662   0.407   8.701   1.006 -0.3816  0.0752 -0.1215
  887MOL0     C19663   0.276   8.650   0.979 -0.1391 -0.0245  0.2910
  887MOL0     C19664  -0.085   8.395   0.977 -0.0933  0.2745  0.4391
  887MOL0     C19665  -0.175   8.435   0.881 -0.5094  0.1608 -0.0144
  887MOL0     C19666  -0.304   8.377   0.874 -0.0190 -0.0680  0.2010
  887MOL0     C19667  -0.352   8.295   0.976  0.1531 -0.8840  0.1374
  887MOL0     O19668  -0.476   8.244   0.983  0.0387  0.7771  1.0453
  887MOL0     C19669  -0.587   8.286   0.895 -0.2615  1.2542 -0.0433
  887MOL0     C19670  -0.655   8.418   0.942 -0.2295  0.6437 -0.1000
  887MOL0     C19671  -0.767   8.438   0.839  0.3760  0.2394 -0.4995
  887MOL0     C19672  -0.876   8.525   0.901 -0.1026 -0.2678  0.0622
  887MOL0     C19673  -0.812   8.649   0.945  0.8853  0.5332  0.0840
  887MOL0     C19674  -0.760   8.749   0.991  0.5796  1.3763  0.0067
  887MOL0     C19675  -0.270   8.269   1.078 -0.1841  0.0753 -0.3829
  887MOL0     C19676  -0.136   8.317   1.080  0.0976  0.4007 -0.7231
  887MOL0     C19677  -0.051   8.282   1.202 -0.0358 -0.1774 -0.1764
  887MOL0     H19678   0.271   8.419   1.233  1.9184  0.1979  0.1267
  887MOL0     H19679   0.490   8.486   1.254 -0.1061 -1.5899 -2.3102
  887MOL0     H19680   0.657   8.836   0.990 -2.7588 -2.9407 -1.4158
  887MOL0     H19681   0.558   8.894   1.127 -0.5153 -0.8739 -3.1334
  887MOL0     H19682   0.793   8.959   1.147 -0.1235 -0.6467  0.5970
  887MOL0     H19683   0.836   8.778   1.145 -1.0882 -0.5244  1.4282
  887MOL0     H19684   0.699   8.747   1.359 -1.1716  0.1286  0.0336
  887MOL0     H19685   0.666   8.925   1.352 -0.6562 -0.3992 -3.4663
  887MOL0     H19686   0.888   8.983   1.406 -1.5659  1.9754  0.4377
  887MOL0     H19687   0.806   8.901   1.540  0.8483  2.8005  0.4145
  887MOL0     H19688   0.915   8.682   1.467 -3.5951  0.5309 -1.2874
  887MOL0     H19689   0.983   8.772   1.329  0.6054 -2.5270  0.5286
  887MOL0     H19690   1.161   8.860   1.443  1.1673  1.4106  0.1835
  887MOL0     H19691   1.054   8.905   1.574  0.7758 -0.7700  0.6900
  887MOL0     H19692   1.070   8.673   1.664  1.1900 -1.1072 -0.2758
  887MOL0     H19693   1.230   8.756   1.645 -0.8230  2.5046 -0.4238
  887MOL0     H19694   1.143   8.493   1.544  0.9307 -0.6658 -0.6821
  887MOL0     H19695   1.176   8.595   1.402 -4.2268 -1.8734  0.4965
  887MOL0     H19696   1.441   8.727   1.409  0.4399  1.6539  1.7942
  887MOL0     H19697   1.723   8.693   1.444  2.6444  1.0842  1.8912
  887MOL0     H19698   1.755   8.589   1.575 -1.1577 -0.7328 -0.1683
  887MOL0     H19699   1.665   8.440   1.335 -0.2480  1.8759 -0.4366
  887MOL0     H19700   1.829   8.516   1.326 -0.2572 -0.6796 -0.2516
  887MOL0     H19701   1.839   8.295   1.390  2.6243  0.8692  0.5643
  887MOL0     H19702   1.752   8.313   1.548  0.2704 -2.6993 -0.9902
  887MOL0     H19703   1.977   8.344   1.609  0.7003 -0.3726 -0.6784
  887MOL0     H19704   1.933   8.512   1.586  4.4553  2.1797 -1.3683
  887MOL0     H19705   2.227   8.412   1.264  2.0884 -0.4634 -0.4971
  887MOL0     H19706   2.472   8.429   1.306  1.1236 -2.0413  1.8439
  887MOL0     H19707   2.789   8.219   1.412  1.2668  1.3028 -1.9260
  887MOL0     H19708   3.005   8.154   1.488 -1.0623 -0.0467  2.3873
  887MOL0     H19709   3.165   8.114   1.662  0.5901  0.4228 -0.3748
  887MOL0     H19710   3.228   8.151   1.502 -1.8452 -1.3921 -0.2153
  887MOL0     H19711   3.358   8.194   1.769  1.5413  1.1705 -0.1747
  887MOL0     H19712   3.378   8.060   1.671 -1.1505 -0.5187  2.9219
  887MOL0     H19713   3.451   8.344   1.562 -4.3860 -0.9347 -0.2599
  887MOL0     H19714   3.574   8.237   1.654 -1.6742 -3.3987  0.9399
  887MOL0     H19715   3.454   8.225   1.377  2.3734  2.9913  0.0966
  887MOL0     H19716   3.459   8.074   1.466 -2.1625  1.3490  2.4720
  887MOL0     H19717   3.696   8.067   1.465  0.9934 -0.6965 -2.2568
  887MOL0     H19718   3.707   8.233   1.416  0.6370 -1.1479 -1.1874
  887MOL0     H19719   3.632   7.993   1.248 -2.3525  0.5853 -0.8337
  887MOL0     H19720   3.581   8.148   1.198 -0.7638  0.1358  1.0483
  887MOL0     H19721   3.868   8.085   1.271 -0.6164 -1.4111 -0.0642
  887MOL0     H19722   3.819   8.235   1.189  0.6627 -0.3498 -0.2140
  887MOL0     H19723   3.787   7.962   1.070 -0.5915  0.2068 -0.3666
  887MOL0     H19724   3.742   8.113   0.996  0.8303 -0.9932 -0.7702
  887MOL0     H19725   3.086   8.540   1.636  0.6366  1.9066 -2.3390
  887MOL0     H19726   2.842   8.608   1.569 -1.2491 -0.2674 -0.7122
  887MOL0     H19727   2.374   8.543   1.713  0.1755 -0.0330 -0.6420
  887MOL0     H19728   2.131   8.509   1.674 -3.2872 -4.1006 -1.8693
  887MOL0     H19729   0.446   8.767   0.930 -1.0990  1.2659  0.5146
  887MOL0     H19730   0.220   8.677   0.891 -0.3716  0.1263  0.4851
  887MOL0     H19731  -0.148   8.490   0.792 -1.5443  0.1941 -0.3237
  887MOL0     H19732  -0.370   8.407   0.793 -0.7048  2.5174  1.5809
  887MOL0     H19733  -0.666   8.211   0.898  1.7553 -1.0056 -0.2986
  887MOL0     H19734  -0.550   8.298   0.793 -0.3456  0.6995 -0.1403
  887MOL0     H19735  -0.575   8.493   0.929 -0.6182  1.6595  2.6815
  887MOL0     H19736  -0.685   8.413   1.047 -0.4319  2.6876 -0.0147
  887MOL0     H19737  -0.812   8.343   0.808  1.1888  0.6047 -3.0481
  887MOL0     H19738  -0.728   8.474   0.744  1.3597 -1.1738 -0.6663
  887MOL0     H19739  -0.957   8.546   0.830 -0.6384 -1.8362  0.1721
  887MOL0     H19740  -0.917   8.465   0.983 -1.1720 -0.3311 -0.4992
  887MOL0     H19741  -0.712   8.827   1.047 -0.3383  1.4915  0.6467
  887MOL0     H19742  -0.315   8.213   1.160  1.1365 -0.6869 -0.1397
  887MOL0     H19743  -0.107   8.235   1.282 -0.7727 -0.7781 -1.0263
  887MOL0     H19744   0.023   8.205   1.177  0.2027 -0.3134  0.9122
  887MOL0     H19745   0.000   8.371   1.241  1.4057 -0.6537 -0.9096
  888MOL0     O19746   2.065   8.036   7.690 -0.2256  1.0249 -0.1594
  888MOL0     C19747   2.008   7.928   7.665  0.1794 -0.6001 -0.0698
  888MOL0     O19748   2.064   7.803   7.674  0.0219 -0.3688 -0.0469
  888MOL0     C19749   2.201   7.782   7.695 -0.3215  0.5694 -0.0219
  888MOL0     C19750   2.294   7.883   7.743  0.2872  0.1712  0.5214
  888MOL0     C19751   2.428   7.853   7.731 -0.0837 -0.1075 -0.3011
  888MOL0     C19752   2.481   7.727   7.693  0.1606  0.4644  0.1014
  888MOL0     O19753   2.610   7.694   7.676 -0.0855  0.1520 -0.2621
  888MOL0     C19754   2.691   7.782   7.593  0.3611 -0.3943  0.0036
  888MOL0     C19755   2.802   7.844   7.680  0.2788  0.2629  0.9298
  888MOL0     C19756   2.916   7.750   7.733  0.0076  0.1106  0.3235
  888MOL0     C19757   3.046   7.815   7.690  0.6173 -0.3701 -0.3542
  888MOL0     C19758   3.159   7.741   7.742 -0.2620  0.1917 -0.5757
  888MOL0     C19759   3.172   7.780   7.898  0.6653 -0.1642 -0.1114
  888MOL0     C19760   3.319   7.795   7.939  0.9189  0.0401  0.2789
  888MOL0     C19761   3.319   7.798   8.093  0.5996  0.3766  0.5943
  888MOL0     N19762   3.450   7.802   8.157 -0.2859 -1.0141  0.3537
  888MOL0     C19763   3.513   7.692   8.216 -0.5104  0.8531  0.7900
  888MOL0     C19764   3.637   7.728   8.260  0.9109  0.8695 -0.6545
  888MOL0     C19765   3.737   7.647   8.343  0.1418  0.0672 -0.3209
  888MOL0     C19766   3.877   7.688   8.324  0.1104  0.1336 -0.9687
  888MOL0     C19767   3.963   7.591   8.408  0.5314 -0.4682  0.3106
  888MOL0     C19768   4.109   7.642   8.381  0.0590 -0.2398 -0.1399
  888MOL0     O19769   4.183   7.570   8.483 -0.3556  0.6653 -0.7079
  888MOL0     C19770   4.319   7.575   8.466  0.1004  0.3004 -0.2528
  888MOL0     C19771   4.394   7.620   8.357  0.5753 -0.2723  0.7427
  888MOL0     C19772   4.530   7.634   8.363  0.4107  0.1953 -0.9537
  888MOL0     C19773   4.603   7.603   8.481 -0.3846 -0.8396  0.1869
  888MOL0     C19774   4.748   7.635   8.491  0.4179  0.2252 -0.5848
  888MOL0     O19775   4.812   7.562   8.595 -0.4578  0.0101  0.4299
  888MOL0     C19776   4.949   7.583   8.627  0.2081 -0.2777 -0.4035
  888MOL0     C19777   5.019   7.701   8.613 -0.8518  0.3464  0.3005
  888MOL0     C19778   5.154   7.707   8.667 -0.2731  0.6528  0.1687
  888MOL0     C19779   5.213   7.608   8.730 -0.0404  0.5834  0.3325
  888MOL0     O19780   5.342   7.621   8.770 -0.4322 -0.2771 -0.3531
  888MOL0     C19781   5.368   7.591   8.905 -0.4241  0.1828 -0.3096
  888MOL0     C19782   5.512   7.639   8.958  0.3171  0.6233  1.0235
  888MOL0     C19783   5.515   7.789   8.983  0.6406  0.1530  0.3673
  888MOL0     C19784   5.662   7.834   9.038 -0.3899 -0.2059  0.8372
  888MOL0     C19785   5.664   7.949   9.137  0.4897  0.5279  0.4670
  888MOL0     C19786   5.810   8.008   9.149  0.4508  0.8010  0.0670
  888MOL0     C19787   5.908   7.926   9.231 -0.1462  0.7333 -0.6843
  888MOL0     C19788   5.917   7.972   9.379 -0.4253  0.6285 -0.3101
  888MOL0    Cl19789   5.761   7.936   9.453 -0.2954 -0.2575  0.0446
  888MOL0     C19790   5.141   7.488   8.746 -0.7915  0.3939 -0.5193
  888MOL0     C19791   5.012   7.473   8.697  0.6379  0.8316  0.6202
  888MOL0     O19792   4.805   7.713   8.419 -0.4101  0.0341  0.2284
  888MOL0     C19793   4.529   7.544   8.591  0.8883 -0.0555  0.6544
  888MOL0     C19794   4.389   7.526   8.580 -0.1494 -0.1311 -0.4032
  888MOL0     N19795   3.652   7.856   8.215 -0.6151 -0.2272 -0.1882
  888MOL0     N19796   3.544   7.902   8.149 -0.1228 -0.2401  0.0451
  888MOL0     C19797   2.388   7.630   7.650 -0.2007 -0.3404 -0.8006
  888MOL0     C19798   2.248   7.658   7.646  0.6312  0.3920 -0.9441
  888MOL0     C19799   1.869   7.949   7.627  1.0931  0.2327  0.3555
  888MOL0     C19800   1.765   7.854   7.665 -0.0167  1.1072  0.1331
  888MOL0     C19801   1.635   7.859   7.623  0.3362  1.0001  0.3253
  888MOL0     C19802   1.596   7.970   7.543 -1.0570  0.8772 -0.4323
  888MOL0     O19803   1.469   7.998   7.515 -1.1771  0.1766 -0.7275
  888MOL0     C19804   1.361   7.933   7.589 -0.3450  0.2747 -0.3222
  888MOL0     C19805   1.337   7.983   7.732 -0.2458  0.6586 -0.1115
  888MOL0     C19806   1.214   7.923   7.812  0.0189 -1.1157  0.0404
  888MOL0     C19807   1.201   7.991   7.960  1.1561  0.2725  0.1561
  888MOL0     C19808   1.324   7.994   8.039  0.0205  0.0615 -0.5035
  888MOL0     C19809   1.429   7.996   8.097 -0.6154 -0.8219  0.8944
  888MOL0     C19810   1.692   8.065   7.510 -0.1719 -0.8830 -0.0949
  888MOL0     C19811   1.826   8.059   7.552  0.5689  0.4202 -2.0251
  888MOL0     C19812   1.914   8.168   7.486 -0.9274 -0.1710 -0.4962
  888MOL0     H19813   2.265   7.981   7.782 -2.9795 -0.1329 -0.7996
  888MOL0     H19814   2.498   7.930   7.759 -2.5437  1.1959  2.9436
  888MOL0     H19815   2.748   7.723   7.520  0.7316 -1.3976  1.0751
  888MOL0     H19816   2.628   7.853   7.540 -1.2327 -3.7810 -3.1089
  888MOL0     H19817   2.748   7.880   7.767  1.5481  3.4303  0.5291
  888MOL0     H19818   2.836   7.934   7.628 -1.0416  0.4320  0.3181
  888MOL0     H19819   2.916   7.649   7.691  4.6179  0.2488 -0.5205
  888MOL0     H19820   2.904   7.750   7.841 -0.6515  0.4169  0.2586
  888MOL0     H19821   3.049   7.806   7.581  1.9637 -1.6192 -0.2447
  888MOL0     H19822   3.050   7.922   7.716 -2.2372  0.6826 -3.4642
  888MOL0     H19823   3.153   7.632   7.730 -1.8188  0.0831  0.9382
  888MOL0     H19824   3.252   7.768   7.690  0.6230 -0.8390  0.4183
  888MOL0     H19825   3.124   7.875   7.921  0.5513  0.0343 -1.1094
  888MOL0     H19826   3.124   7.705   7.961 -0.6874  2.5124  2.2402
  888MOL0     H19827   3.354   7.892   7.902 -0.2532 -0.4718 -2.4767
  888MOL0     H19828   3.384   7.712   7.908 -1.3344 -1.4169 -0.8007
  888MOL0     H19829   3.263   7.882   8.135 -2.2820  0.0634 -2.2233
  888MOL0     H19830   3.258   7.710   8.115 -0.7875  0.7766 -1.3529
  888MOL0     H19831   3.465   7.595   8.222 -1.8689  0.6886 -5.3517
  888MOL0     H19832   3.708   7.663   8.447  1.2470 -1.0967  0.1894
  888MOL0     H19833   3.732   7.541   8.317  2.3513 -0.3886  0.8884
  888MOL0     H19834   3.908   7.690   8.219 -0.5057  0.6322 -1.1417
  888MOL0     H19835   3.869   7.790   8.363 -0.6718 -1.3744  3.3182
  888MOL0     H19836   3.945   7.491   8.369  2.4543 -0.8807  0.3752
  888MOL0     H19837   3.935   7.598   8.513  2.1648  0.4583  0.7139
  888MOL0     H19838   4.119   7.749   8.404  0.5266 -0.5835  1.3547
  888MOL0     H19839   4.137   7.610   8.281 -0.5473  2.7948 -1.4019
  888MOL0     H19840   4.358   7.648   8.258  1.6935 -3.1182 -0.5633
  888MOL0     H19841   4.598   7.674   8.288  1.5172 -0.8805 -0.5635
  888MOL0     H19842   4.981   7.787   8.560 -1.7295 -0.6802 -0.7917
  888MOL0     H19843   5.202   7.804   8.665  0.2270  0.4031 -0.5234
  888MOL0     H19844   5.289   7.638   8.965 -2.3109 -2.2575 -0.7404
  888MOL0     H19845   5.354   7.485   8.924  1.5900 -0.0090  0.3081
  888MOL0     H19846   5.541   7.583   9.047  2.2294  2.2046  1.4783
  888MOL0     H19847   5.579   7.613   8.875 -3.8428 -4.2456 -1.3574
  888MOL0     H19848   5.506   7.847   8.891  2.1259 -1.7850 -1.0919
  888MOL0     H19849   5.432   7.821   9.047 -0.5381  1.0592 -1.5373
  888MOL0     H19850   5.715   7.877   8.952  1.6632 -0.7090  1.7930
  888MOL0     H19851   5.719   7.745   9.067  0.4794 -1.2431 -3.3461
  888MOL0     H19852   5.625   7.908   9.231 -0.1059  1.6128  0.7061
  888MOL0     H19853   5.588   8.026   9.122  2.0955  1.7622 -1.9476
  888MOL0     H19854   5.845   8.032   9.049  0.8557 -0.8927 -0.2323
  888MOL0     H19855   5.795   8.099   9.209 -0.0691 -0.5726  2.1374
  888MOL0     H19856   6.004   7.936   9.181 -0.4337  0.5331 -1.2936
  888MOL0     H19857   5.890   7.818   9.228 -0.7586  0.8357 -0.8962
  888MOL0     H19858   6.001   7.915   9.419  0.5176  1.3702 -1.1722
  888MOL0     H19859   5.955   8.075   9.385  0.5193  0.4651 -2.6018
  888MOL0     H19860   5.193   7.412   8.803  1.2743  2.0815  0.0044
  888MOL0     H19861   4.956   7.382   8.716  0.4776  0.7713 -0.1013
  888MOL0     H19862   4.586   7.518   8.679 -0.8474  1.7472  2.4139
  888MOL0     H19863   4.330   7.483   8.660  0.2423  0.3811  0.1671
  888MOL0     H19864   2.430   7.536   7.618  0.4093 -0.8441  1.3223
  888MOL0     H19865   2.173   7.589   7.608 -0.7083  0.9592  0.5560
  888MOL0     H19866   1.777   7.764   7.725 -4.6181  1.1860  1.6152
  888MOL0     H19867   1.568   7.779   7.653  2.1926 -1.2882 -1.2658
  888MOL0     H19868   1.370   7.825   7.580 -0.2178  0.2810 -0.2615
  888MOL0     H19869   1.269   7.953   7.532  0.1288  1.0585 -0.8263
  888MOL0     H19870   1.337   8.091   7.717 -0.8704  0.3260 -3.0390
  888MOL0     H19871   1.423   7.953   7.793  0.3813 -0.2809 -1.3994
  888MOL0     H19872   1.220   7.814   7.815  0.1202 -1.1489  3.8392
  888MOL0     H19873   1.121   7.945   7.759  0.3966 -1.2330 -0.6779
  888MOL0     H19874   1.161   8.092   7.944 -1.6592 -0.8277 -0.4755
  888MOL0     H19875   1.130   7.930   8.017  1.3927 -2.4999 -2.2769
  888MOL0     H19876   1.522   8.007   8.149 -0.5362 -0.5958  0.7066
  888MOL0     H19877   1.649   8.145   7.451  1.1156  0.8035  1.1472
  888MOL0     H19878   1.961   8.217   7.571 -0.5815  0.9819 -1.3346
  888MOL0     H19879   1.993   8.130   7.421  1.6676  0.9113  1.8483
  888MOL0     H19880   1.858   8.242   7.429 -1.3311 -1.7744 -2.3030
  889MOL0     O19881   2.995   3.609   7.521  0.1331 -0.0570 -0.1824
  889MOL0     C19882   2.936   3.504   7.518  0.3270  0.5469 -0.6815
  889MOL0     O19883   2.980   3.393   7.448 -0.1046 -0.6710  0.0490
  889MOL0     C19884   3.090   3.402   7.361 -0.3205 -0.8787 -0.3143
  889MOL0     C19885   3.191   3.313   7.362  0.2048  0.2640 -0.4517
  889MOL0     C19886   3.304   3.328   7.264 -0.1576 -0.5871  0.1257
  889MOL0     C19887   3.308   3.421   7.164 -0.4151 -0.5737 -0.0726
  889MOL0     O19888   3.417   3.446   7.092 -0.3014 -0.1358  0.5740
  889MOL0     C19889   3.546   3.398   7.127  0.4042  0.1873 -0.2622
  889MOL0     C19890   3.649   3.416   7.014 -0.3845 -0.3905  0.0345
  889MOL0     C19891   3.788   3.359   7.055 -0.0041 -0.2590  0.2761
  889MOL0     C19892   3.856   3.329   6.922 -0.2712  0.1482 -0.3566
  889MOL0     C19893   4.001   3.282   6.945  0.1245  0.7316  0.2406
  889MOL0     C19894   4.051   3.197   6.829 -0.3084  0.6428  0.6403
  889MOL0     C19895   4.201   3.166   6.835 -0.1057  1.0586 -0.3470
  889MOL0     C19896   4.258   3.085   6.723  0.7018  0.6124 -0.0941
  889MOL0     N19897   4.381   3.022   6.749  0.1761 -0.0674  0.1294
  889MOL0     C19898   4.502   3.054   6.696 -0.8952 -0.0744  0.6213
  889MOL0     C19899   4.596   2.978   6.756 -0.3949 -0.2088 -0.1263
  889MOL0     C19900   4.746   2.984   6.747  0.1862  0.6666  0.1942
  889MOL0     C19901   4.812   3.116   6.786 -1.3881  0.8546  0.4496
  889MOL0     C19902   4.938   3.150   6.696  0.3257  0.2925  0.0734
  889MOL0     C19903   5.041   3.038   6.704  0.2945 -0.1644  0.3359
  889MOL0     O19904   5.082   3.032   6.840 -0.5666  0.3078 -0.5303
  889MOL0     C19905   5.204   3.092   6.874 -0.3996  0.2377  0.6398
  889MOL0     C19906   5.319   3.022   6.867 -1.3813 -0.3882  0.3067
  889MOL0     C19907   5.437   3.084   6.899  1.0992  0.2864 -0.7363
  889MOL0     C19908   5.440   3.213   6.946 -0.5699 -0.2125 -0.0172
  889MOL0     C19909   5.573   3.277   6.971  0.4495 -0.0906 -0.4740
  889MOL0     O19910   5.580   3.413   6.973  0.6204  0.4039 -0.2788
  889MOL0     C19911   5.701   3.481   6.983  0.1612 -0.0033 -0.1716
  889MOL0     C19912   5.714   3.578   7.082  0.6515 -0.1196 -0.3088
  889MOL0     C19913   5.827   3.641   7.107 -0.4355 -0.4765 -0.4967
  889MOL0     C19914   5.943   3.607   7.030 -0.3706  0.2175 -0.0451
  889MOL0     O19915   6.069   3.656   7.057 -0.4936  1.5535  0.1852
  889MOL0     C19916   6.096   3.754   7.154 -0.3837 -0.2038  0.5191
  889MOL0     C19917   6.229   3.809   7.109 -0.1628 -0.4118 -0.5085
  889MOL0     C19918   6.310   3.878   7.217  0.7802 -0.4292  0.3445
  889MOL0     C19919   6.421   3.966   7.154  0.1054 -0.4551 -0.0926
  889MOL0     C19920   6.473   4.069   7.255  0.4364  0.3357  0.4874
  889MOL0     C19921   6.622   4.106   7.222  0.0845  0.6864  0.4820
  889MOL0     C19922   6.673   4.204   7.323 -0.5037  0.1170  0.3865
  889MOL0     C19923   6.829   4.196   7.337 -0.2252  0.0254 -0.1702
  889MOL0    Cl19924   6.927   4.207   7.178  0.1603  0.5234 -0.6350
  889MOL0     C19925   5.925   3.505   6.933  1.2388  0.0897  1.0896
  889MOL0     C19926   5.801   3.447   6.899 -0.2502 -0.4039 -0.4419
  889MOL0     O19927   5.668   3.201   6.994  0.0454  0.3194  0.3930
  889MOL0     C19928   5.326   3.290   6.960 -0.0469 -0.1944 -0.1415
  889MOL0     C19929   5.205   3.227   6.916 -0.3157 -0.3694  0.6310
  889MOL0     N19930   4.531   2.894   6.843 -0.0971 -0.0945  0.3150
  889MOL0     N19931   4.406   2.914   6.833  0.0755 -0.1590 -0.4123
  889MOL0     C19932   3.198   3.510   7.163  0.5216 -0.1900 -1.1989
  889MOL0     C19933   3.089   3.504   7.260 -0.6301  0.6727 -0.1599
  889MOL0     C19934   2.815   3.495   7.609 -0.3316  0.0921  0.4453
  889MOL0     C19935   2.738   3.611   7.614 -0.2738  0.3864 -0.3503
  889MOL0     C19936   2.615   3.614   7.689  0.7659  0.1966 -0.2500
  889MOL0     C19937   2.561   3.503   7.758 -0.2791 -0.2931  0.1188
  889MOL0     O19938   2.453   3.493   7.830  0.0266 -0.4280  1.1211
  889MOL0     C19939   2.357   3.601   7.827  0.1321  0.5622  0.0807
  889MOL0     C19940   2.249   3.559   7.927 -0.4077 -0.4676  0.1073
  889MOL0     C19941   2.115   3.630   7.902 -0.3008 -0.0124 -0.4351
  889MOL0     C19942   2.021   3.574   8.010  0.7777 -0.5920 -0.5454
  889MOL0     C19943   1.909   3.664   8.027  0.2093 -0.1988 -0.2710
  889MOL0     C19944   1.813   3.737   8.023  0.3137  0.5858 -0.6039
  889MOL0     C19945   2.637   3.387   7.741 -0.4089  0.3307 -0.2897
  889MOL0     C19946   2.761   3.381   7.669  0.0436 -0.2670 -0.3720
  889MOL0     C19947   2.824   3.240   7.648  0.8270  0.2831  0.5526
  889MOL0     H19948   3.190   3.242   7.443 -0.6832  0.4856 -0.2589
  889MOL0     H19949   3.386   3.257   7.273  1.8165  1.7875  2.5824
  889MOL0     H19950   3.590   3.455   7.210 -2.2851 -0.6568  1.8958
  889MOL0     H19951   3.541   3.290   7.147 -1.7139  0.4289  0.7278
  889MOL0     H19952   3.653   3.522   6.990 -0.4496 -0.6726 -1.3347
  889MOL0     H19953   3.605   3.368   6.925 -1.3957 -1.5354  1.1113
  889MOL0     H19954   3.775   3.267   7.112  0.1739 -0.5066 -0.0817
  889MOL0     H19955   3.845   3.428   7.119 -2.3270 -0.4258  2.7099
  889MOL0     H19956   3.797   3.251   6.873 -0.6858  0.8760 -1.0353
  889MOL0     H19957   3.863   3.422   6.864  0.6777  2.7108  3.4742
  889MOL0     H19958   4.065   3.371   6.955  0.6344  0.7736 -2.6117
  889MOL0     H19959   4.013   3.223   7.036 -2.9950  1.0601  0.9727
  889MOL0     H19960   3.977   3.117   6.815  0.6598 -0.0580 -0.8441
  889MOL0     H19961   4.032   3.256   6.739 -1.5656 -0.6078  0.0376
  889MOL0     H19962   4.220   3.116   6.931 -0.4801  2.2645  0.3711
  889MOL0     H19963   4.256   3.261   6.842  2.3763 -0.0904 -2.3419
  889MOL0     H19964   4.188   3.001   6.719  0.2478  0.8351  2.1066
  889MOL0     H19965   4.261   3.140   6.628 -2.4886  0.6121 -0.3064
  889MOL0     H19966   4.521   3.142   6.635 -0.8165  0.0045  0.7583
  889MOL0     H19967   4.778   2.912   6.822 -1.2845 -0.1939  0.0503
  889MOL0     H19968   4.772   2.955   6.645 -0.9180  0.2804 -0.0002
  889MOL0     H19969   4.741   3.199   6.777 -0.5257  1.5461 -0.1280
  889MOL0     H19970   4.837   3.123   6.892 -0.6686  0.9518  0.2774
  889MOL0     H19971   4.989   3.243   6.722 -1.4908  0.6733  2.7122
  889MOL0     H19972   4.899   3.153   6.594 -0.3920 -1.9573  0.2265
  889MOL0     H19973   5.121   3.078   6.641 -2.1096 -0.0957 -2.9344
  889MOL0     H19974   5.006   2.942   6.664  1.7178 -0.2646 -0.7386
  889MOL0     H19975   5.332   2.924   6.823 -0.5323  2.0356 -5.7993
  889MOL0     H19976   5.531   3.037   6.873  1.2743  0.9899 -1.4290
  889MOL0     H19977   5.627   3.609   7.139 -0.7753  1.4274 -3.1342
  889MOL0     H19978   5.830   3.714   7.188  1.1076 -0.7415 -0.2798
  889MOL0     H19979   6.018   3.831   7.154 -0.8657 -0.6237 -1.8772
  889MOL0     H19980   6.096   3.720   7.258  0.3744  0.6245  0.8104
  889MOL0     H19981   6.292   3.737   7.056  1.0812 -0.2622  0.7019
  889MOL0     H19982   6.197   3.880   7.032 -2.9023  1.2980  1.9468
  889MOL0     H19983   6.246   3.942   7.279 -0.6065  0.9124 -2.3268
  889MOL0     H19984   6.362   3.809   7.285  1.2880  1.8816  2.4417
  889MOL0     H19985   6.410   4.012   7.056  1.1606 -0.8021 -0.3982
  889MOL0     H19986   6.509   3.901   7.141 -0.4125 -1.2699  0.3530
  889MOL0     H19987   6.476   4.013   7.349 -0.0278 -1.0415 -0.2875
  889MOL0     H19988   6.405   4.155   7.261  3.2098  2.8765 -1.4494
  889MOL0     H19989   6.680   4.013   7.212 -0.9668  0.0108  0.4631
  889MOL0     H19990   6.626   4.151   7.122 -1.3095  5.1515  2.1870
  889MOL0     H19991   6.628   4.173   7.418  0.6550 -2.3191  0.2120
  889MOL0     H19992   6.648   4.309   7.302  3.1194  0.9322 -0.4230
  889MOL0     H19993   6.862   4.272   7.408  1.5557  0.2491 -1.1555
  889MOL0     H19994   6.853   4.097   7.378  1.0281  1.5850  3.1762
  889MOL0     H19995   6.015   3.487   6.874 -0.1398  2.6184 -2.0351
  889MOL0     H19996   5.787   3.374   6.820 -1.2763 -1.3865  0.6142
  889MOL0     H19997   5.336   3.396   6.981  2.3429 -0.3979 -0.0684
  889MOL0     H19998   5.106   3.272   6.923 -0.1597 -0.0002  0.4942
  889MOL0     H19999   3.211   3.588   7.088  2.8428 -1.2208 -1.9636
  889MOL0     H20000   3.008   3.576   7.263 -1.5975 -0.3751 -0.3323
  889MOL0     H20001   2.761   3.706   7.566  2.9520 -0.0099  0.1667
  889MOL0     H20002   2.566   3.710   7.700  0.5884  0.1202 -0.3664
  889MOL0     H20003   2.322   3.614   7.724 -0.3825  2.1133  0.4344
  889MOL0     H20004   2.394   3.701   7.848  0.8926  0.5310 -1.0259
  889MOL0     H20005   2.286   3.566   8.030  2.9972  2.5247 -1.1180
  889MOL0     H20006   2.230   3.453   7.909  0.7164 -0.2424 -3.0338
  889MOL0     H20007   2.071   3.594   7.809 -1.1253  0.9764 -0.4390
  889MOL0     H20008   2.109   3.740   7.900 -1.4688 -0.0522 -0.0581
  889MOL0     H20009   1.978   3.477   7.984 -0.8583 -0.7324  2.2413
  889MOL0     H20010   2.077   3.560   8.103  1.2728  2.3868 -0.2888
  889MOL0     H20011   1.733   3.809   8.022  0.3265  0.5988 -0.8337
  889MOL0     H20012   2.595   3.298   7.787  0.2110 -0.5620 -1.4021
  889MOL0     H20013   2.825   3.205   7.545  1.0985  0.2958  0.5508
  889MOL0     H20014   2.929   3.249   7.680  2.3535 -2.4816 -3.0068
  889MOL0     H20015   2.778   3.160   7.707  3.0218 -2.2753 -0.9383
  890MOL0     O20016   7.633   8.998   4.865 -0.0320  0.4755  0.4586
  890MOL0     C20017   7.576   8.911   4.803  1.1800 -0.2393 -0.1270
  890MOL0     O20018   7.610   8.865   4.683 -0.2439  0.4830 -0.2476
  890MOL0     C20019   7.694   8.932   4.601  1.2270  0.0872 -0.9928
  890MOL0     C20020   7.718   9.077   4.597 -0.2986  0.4001 -0.9490
  890MOL0     C20021   7.806   9.128   4.507  0.1302 -0.3829  0.0899
  890MOL0     C20022   7.866   9.046   4.404 -0.6039 -1.2044 -0.0957
  890MOL0     O20023   7.935   9.101   4.294 -0.1269  0.1310  0.1432
  890MOL0     C20024   7.933   9.241   4.290 -0.9863 -0.9050  0.6060
  890MOL0     C20025   7.997   9.284   4.161  0.8497  0.3775  0.2351
  890MOL0     C20026   7.948   9.202   4.038  0.0060 -0.3423 -0.0624
  890MOL0     C20027   8.009   9.244   3.906  0.4352 -0.0581  0.0471
  890MOL0     C20028   8.151   9.173   3.903  0.5466 -0.5462  0.1427
  890MOL0     C20029   8.227   9.226   3.784  0.6776 -0.2445  0.2528
  890MOL0     C20030   8.369   9.228   3.820  0.4389 -0.7255  0.7135
  890MOL0     C20031   8.439   9.313   3.716  0.6339 -0.0939  1.2955
  890MOL0     N20032   8.582   9.342   3.748 -0.8634 -0.3155  0.6052
  890MOL0     C20033   8.682   9.248   3.753  0.0311 -0.3434  0.5497
  890MOL0     C20034   8.795   9.320   3.787 -0.2529 -0.0692  0.4173
  890MOL0     C20035   8.919   9.259   3.844 -0.1892 -0.7025  0.2129
  890MOL0     C20036   9.051   9.351   3.840 -0.4075 -0.6566  0.6552
  890MOL0     C20037   9.121   9.344   3.699  0.1235  0.5119  0.8723
  890MOL0     C20038   9.229   9.449   3.705  1.2801  0.1944 -0.2634
  890MOL0     O20039   9.329   9.413   3.791  0.4175 -0.6343 -0.4566
  890MOL0     C20040   9.423   9.312   3.768  0.9034 -0.1004  0.1144
  890MOL0     C20041   9.508   9.280   3.872  0.5956 -0.8856 -0.3241
  890MOL0     C20042   9.594   9.172   3.868 -0.4051 -0.0313 -0.2631
  890MOL0     C20043   9.608   9.095   3.750 -0.5391  0.2003  0.2653
  890MOL0     C20044   9.716   8.996   3.735  0.1899 -0.1835 -0.3120
  890MOL0     O20045   9.714   8.929   3.612  0.3103  0.7338  0.4052
  890MOL0     C20046   9.812   8.836   3.595  0.1135  0.0004 -0.0616
  890MOL0     C20047   9.803   8.715   3.665 -0.7029 -0.2961  0.7444
  890MOL0     C20048   9.921   8.634   3.650  0.3215  0.3444 -0.7955
  890MOL0     C20049  10.033   8.674   3.573 -0.1707  0.5397  0.3238
  890MOL0     O20050  10.130   8.580   3.575 -0.0416 -0.5667  0.2705
  890MOL0     C20051  10.262   8.615   3.533  0.3871 -1.0082 -0.6576
  890MOL0     C20052  10.344   8.492   3.538 -0.1702  0.0273  0.0186
  890MOL0     C20053  10.486   8.516   3.501 -0.2184  0.2265  0.4710
  890MOL0     C20054  10.571   8.390   3.490 -0.0332  0.2450  0.3085
  890MOL0     C20055  10.602   8.319   3.623  0.0025 -0.1199 -0.5195
  890MOL0     C20056  10.613   8.168   3.631 -0.0028 -0.1748  0.1826
  890MOL0     C20057  10.663   8.119   3.767 -0.1043 -0.5012 -0.0616
  890MOL0     C20058  10.620   7.978   3.808  0.5593  0.8140  0.0103
  890MOL0    Cl20059  10.457   7.992   3.857 -0.0326  0.0859 -0.1918
  890MOL0     C20060  10.026   8.796   3.504  0.2417  0.7140 -0.5717
  890MOL0     C20061   9.912   8.880   3.504 -0.3747 -0.7165 -0.3120
  890MOL0     O20062   9.806   8.986   3.824  0.2521  0.3498  0.4430
  890MOL0     C20063   9.535   9.138   3.640  0.5065  0.4930 -0.0057
  890MOL0     C20064   9.437   9.228   3.659 -0.1788 -0.5219 -0.0892
  890MOL0     N20065   8.767   9.456   3.792  0.9659 -0.0488  0.0111
  890MOL0     N20066   8.638   9.462   3.772 -0.1957 -0.1966  0.2363
  890MOL0     C20067   7.833   8.915   4.404  0.4077  0.0648  0.1333
  890MOL0     C20068   7.754   8.850   4.503  1.3087  0.0546 -0.6277
  890MOL0     C20069   7.460   8.850   4.868  0.7916  1.0238 -0.5837
  890MOL0     C20070   7.367   8.786   4.787 -0.0625  0.4153 -0.0113
  890MOL0     C20071   7.241   8.741   4.833  0.0712 -0.1063  0.2700
  890MOL0     C20072   7.205   8.746   4.965  0.4774  0.5699  0.1319
  890MOL0     O20073   7.095   8.710   5.032  0.3477  0.4236  0.5870
  890MOL0     C20074   6.977   8.669   4.951 -0.4489 -0.5265  0.4558
  890MOL0     C20075   6.974   8.518   4.907 -0.2303 -0.3038 -0.2104
  890MOL0     C20076   6.981   8.415   5.029  0.1169 -1.0536  0.5201
  890MOL0     C20077   6.892   8.440   5.152  0.2126 -0.2153 -0.6444
  890MOL0     C20078   6.752   8.452   5.111 -0.4788 -0.3391  0.1086
  890MOL0     C20079   6.631   8.456   5.097 -0.8853 -0.0076 -0.5306
  890MOL0     C20080   7.304   8.805   5.049  0.1527  0.8321  0.0896
  890MOL0     C20081   7.422   8.854   5.005 -1.1281  0.3647  0.5041
  890MOL0     C20082   7.513   8.911   5.112  1.2537 -0.4095  0.2851
  890MOL0     H20083   7.687   9.149   4.673  1.3403 -1.6384  1.8793
  890MOL0     H20084   7.822   9.236   4.512  0.2104 -0.4405  1.3852
  890MOL0     H20085   7.829   9.274   4.302 -1.2001 -1.0665 -0.6582
  890MOL0     H20086   7.986   9.295   4.369 -3.4871  4.2954 -0.7876
  890MOL0     H20087   8.104   9.264   4.170  0.7430  0.0958  0.9051
  890MOL0     H20088   7.988   9.392   4.150 -1.8605  0.5565  2.9941
  890MOL0     H20089   7.841   9.224   4.028 -0.1792  0.6733  3.1303
  890MOL0     H20090   7.949   9.093   4.037  1.6133 -0.3486 -0.1993
  890MOL0     H20091   7.955   9.200   3.822  0.4384 -1.1335  0.5837
  890MOL0     H20092   8.009   9.353   3.898 -1.4483 -0.1549 -2.2743
  890MOL0     H20093   8.201   9.198   3.997 -1.0094 -0.0367  0.8726
  890MOL0     H20094   8.148   9.064   3.903  0.8237 -0.5568 -0.5063
  890MOL0     H20095   8.207   9.161   3.698 -0.2579 -2.9090  2.3417
  890MOL0     H20096   8.187   9.327   3.765 -0.7867 -0.8063  0.2123
  890MOL0     H20097   8.399   9.123   3.827 -0.5568 -1.0048  0.8374
  890MOL0     H20098   8.384   9.262   3.923  2.1033 -0.3586  0.3851
  890MOL0     H20099   8.441   9.268   3.616  0.5374  1.1696  0.7071
  890MOL0     H20100   8.379   9.404   3.705 -2.5712 -2.1899 -0.0510
  890MOL0     H20101   8.675   9.140   3.752  0.3745 -0.3731 -0.9494
  890MOL0     H20102   8.902   9.224   3.946  0.3441 -0.4983  0.3806
  890MOL0     H20103   8.944   9.170   3.786  2.9216  0.6269 -0.7485
  890MOL0     H20104   9.018   9.455   3.848 -1.6111 -0.7958 -1.6494
  890MOL0     H20105   9.117   9.330   3.925  2.2363  2.7002 -0.2873
  890MOL0     H20106   9.049   9.365   3.619 -0.3142  1.4111  1.4847
  890MOL0     H20107   9.167   9.247   3.682  0.0082  0.3219  1.6073
  890MOL0     H20108   9.182   9.546   3.728 -1.4818 -1.4250  1.4675
  890MOL0     H20109   9.261   9.472   3.603 -2.1558  0.1867 -1.4699
  890MOL0     H20110   9.500   9.344   3.960  1.4722 -2.0663  0.6400
  890MOL0     H20111   9.647   9.146   3.959  0.0164 -1.2700 -0.8394
  890MOL0     H20112   9.724   8.700   3.738 -1.5308  1.3672  0.2580
  890MOL0     H20113   9.958   8.540   3.690  4.6700  1.6254 -1.2715
  890MOL0     H20114  10.274   8.670   3.439  0.9868  2.5548  1.3473
  890MOL0     H20115  10.301   8.675   3.616  1.8273 -1.9662 -0.5952
  890MOL0     H20116  10.339   8.446   3.638  1.2398  0.7523  0.4460
  890MOL0     H20117  10.301   8.418   3.470  0.9352 -0.1218 -0.5451
  890MOL0     H20118  10.481   8.561   3.402 -1.4271  0.4081  0.5996
  890MOL0     H20119  10.529   8.593   3.565 -0.1849  2.0517 -1.6138
  890MOL0     H20120  10.660   8.413   3.432 -1.0868  0.3887 -1.3221
  890MOL0     H20121  10.533   8.305   3.432  1.7037  0.0949 -0.6708
  890MOL0     H20122  10.525   8.345   3.697  1.3575  2.2307  0.1689
  890MOL0     H20123  10.698   8.346   3.668 -0.8091 -1.6043  2.3322
  890MOL0     H20124  10.516   8.123   3.608  2.3194 -4.7074 -2.1292
  890MOL0     H20125  10.689   8.136   3.559 -0.2669 -0.7000  0.1329
  890MOL0     H20126  10.632   8.182   3.851  0.3705 -1.0103  0.5153
  890MOL0     H20127  10.773   8.124   3.761 -0.2235  1.4455 -1.4224
  890MOL0     H20128  10.614   7.910   3.722  0.0107  1.2778 -0.3240
  890MOL0     H20129  10.685   7.935   3.884  0.1429 -3.1526 -1.6034
  890MOL0     H20130  10.108   8.829   3.441  0.4518 -0.0194 -0.6868
  890MOL0     H20131   9.901   8.973   3.449 -1.1748  0.8054  2.2453
  890MOL0     H20132   9.548   9.120   3.534  1.4175  1.3792 -0.0523
  890MOL0     H20133   9.379   9.258   3.572  0.3468 -2.4133 -1.1307
  890MOL0     H20134   7.877   8.852   4.327 -2.7111 -3.6560  1.0799
  890MOL0     H20135   7.723   8.746   4.503 -0.0380  0.4291  0.2111
  890MOL0     H20136   7.394   8.765   4.684  0.7390  0.4342  0.1881
  890MOL0     H20137   7.177   8.686   4.764  1.0208  0.3731 -1.0263
  890MOL0     H20138   6.975   8.722   4.855  0.0580 -0.8227  0.2746
  890MOL0     H20139   6.886   8.697   5.005 -0.2035  1.2223  0.0457
  890MOL0     H20140   7.054   8.496   4.836  2.8770 -1.4282  3.3567
  890MOL0     H20141   6.879   8.505   4.854 -1.5269 -0.9913  2.1502
  890MOL0     H20142   7.089   8.408   5.046  1.0102 -1.4718 -3.9275
  890MOL0     H20143   6.946   8.320   4.987 -1.1676  0.1245 -1.2547
  890MOL0     H20144   6.906   8.361   5.227  0.9653 -1.2476 -1.8334
  890MOL0     H20145   6.921   8.533   5.202 -1.1490  1.5550 -2.9636
  890MOL0     H20146   6.525   8.448   5.083 -1.0353 -0.5059  0.7244
  890MOL0     H20147   7.285   8.812   5.156 -1.8881  1.6989 -0.2766
  890MOL0     H20148   7.519   9.020   5.100  1.7874 -0.3660  0.8618
  890MOL0     H20149   7.484   8.894   5.216  0.1092 -0.4869 -0.0372
  890MOL0     H20150   7.614   8.873   5.096  2.1019  1.0778  1.7590
  891MOL0     O20151   8.219   2.446   0.558 -0.1488 -0.8341  0.5859
  891MOL0     C20152   8.164   2.348   0.606  0.8480 -0.0450 -0.3028
  891MOL0     O20153   8.208   2.220   0.589  0.1953  0.4113 -0.3146
  891MOL0     C20154   8.328   2.206   0.527 -0.9832 -0.8680  0.8502
  891MOL0     C20155   8.329   2.117   0.421  0.5023  0.2575  0.2907
  891MOL0     C20156   8.442   2.084   0.348 -0.8276 -0.6323  0.0366
  891MOL0     C20157   8.571   2.127   0.400 -0.0037  0.4964  0.9334
  891MOL0     O20158   8.666   2.083   0.314  0.4405  0.8495 -0.1225
  891MOL0     C20159   8.801   2.074   0.362  0.3877  1.2347 -0.2342
  891MOL0     C20160   8.865   1.943   0.312  0.0273  0.9410  0.8814
  891MOL0     C20161   8.905   1.954   0.170 -0.1463  0.0034 -0.6071
  891MOL0     C20162   8.978   1.823   0.133 -0.4173  0.3690  0.4009
  891MOL0     C20163   8.980   1.803  -0.015  0.6257  0.2291  0.4879
  891MOL0     C20164   9.017   1.664  -0.062 -0.6719 -0.3476  1.2146
  891MOL0     C20165   9.164   1.657  -0.056  0.0541 -0.7348  0.1289
  891MOL0     C20166   9.230   1.716  -0.183  1.1173  0.3146  0.5430
  891MOL0     N20167   9.371   1.682  -0.207  1.2867 -0.5839 -0.3391
  891MOL0     C20168   9.423   1.552  -0.227 -0.1460  0.7162 -0.4233
  891MOL0     C20169   9.554   1.574  -0.245 -0.9583  0.3298 -0.5759
  891MOL0     C20170   9.671   1.475  -0.274 -0.1811 -0.5131 -0.3038
  891MOL0     C20171   9.719   1.416  -0.135 -0.3357  0.5825  0.3318
  891MOL0     C20172   9.854   1.474  -0.106 -0.0536  0.2703 -0.2962
  891MOL0     C20173   9.894   1.434   0.039  0.5135 -0.4115 -0.0688
  891MOL0     O20174   9.925   1.300   0.052  0.0648  0.1149 -0.3010
  891MOL0     C20175  10.050   1.261   0.080 -0.1826  0.0086  0.4283
  891MOL0     C20176  10.153   1.341   0.130  0.1055  0.0804 -0.4655
  891MOL0     C20177  10.277   1.296   0.161  0.0325 -0.1220 -0.4672
  891MOL0     C20178  10.307   1.154   0.141 -0.9776 -0.0800  0.2355
  891MOL0     C20179  10.444   1.099   0.162 -0.8490  0.3311 -0.7817
  891MOL0     O20180  10.473   0.980   0.104 -0.2919 -0.2153 -0.2763
  891MOL0     C20181  10.603   0.938   0.090  0.1309  0.7189 -0.1996
  891MOL0     C20182  10.668   0.879   0.195 -0.2147 -0.1371 -0.3045
  891MOL0     C20183  10.803   0.825   0.176 -1.0285 -0.8401 -0.4997
  891MOL0     C20184  10.872   0.847   0.055  0.2160 -0.3653 -0.4093
  891MOL0     O20185  11.001   0.810   0.029 -0.1066  0.1510  0.9405
  891MOL0     C20186  10.994   0.667  -0.014  0.0299  0.2810  0.8922
  891MOL0     C20187  11.133   0.612  -0.030  1.0831 -0.0075 -0.2057
  891MOL0     C20188  11.132   0.464  -0.056  0.3921  0.2659  0.4121
  891MOL0     C20189  11.270   0.400  -0.093 -0.2061 -0.4610 -1.2991
  891MOL0     C20190  11.273   0.254  -0.137  0.2043 -1.0529  0.3580
  891MOL0     C20191  11.416   0.189  -0.124 -0.0375  0.4909 -0.3726
  891MOL0     C20192  11.419   0.059  -0.202 -0.1689 -0.1861 -0.2180
  891MOL0     C20193  11.498  -0.050  -0.136 -0.0171 -0.0717  0.3452
  891MOL0    Cl20194  11.419  -0.094   0.013 -0.1294 -0.2772  0.0999
  891MOL0     C20195  10.811   0.918  -0.043  0.5407  0.2196  0.1925
  891MOL0     C20196  10.677   0.954  -0.033 -0.2736  0.0376  1.0728
  891MOL0     O20197  10.520   1.148   0.254  0.9532  0.2291  0.3293
  891MOL0     C20198  10.212   1.070   0.083 -0.0341  0.5307  0.0967
  891MOL0     C20199  10.083   1.128   0.055  0.0041 -0.5390 -1.4334
  891MOL0     N20200   9.579   1.709  -0.226  0.5736  0.3638  0.1941
  891MOL0     N20201   9.465   1.768  -0.213  0.2565 -0.2271  0.0869
  891MOL0     C20202   8.575   2.205   0.517  0.1442 -0.6754 -0.2434
  891MOL0     C20203   8.457   2.243   0.583  0.4863 -0.3415 -0.2788
  891MOL0     C20204   8.035   2.376   0.682  0.7627 -0.7439 -0.3402
  891MOL0     C20205   7.985   2.272   0.769 -0.5006 -0.1739  0.7017
  891MOL0     C20206   7.876   2.286   0.855 -0.9457 -0.8946 -1.0167
  891MOL0     C20207   7.788   2.399   0.828  0.2063 -0.0247  0.7368
  891MOL0     O20208   7.675   2.426   0.902 -0.2381 -0.0631 -0.1949
  891MOL0     C20209   7.620   2.328   0.998 -0.1463 -0.6219 -0.6117
  891MOL0     C20210   7.502   2.400   1.059 -0.2745 -0.0374  0.0653
  891MOL0     C20211   7.536   2.527   1.137 -0.5206  0.2763  0.1584
  891MOL0     C20212   7.627   2.499   1.264 -0.4424 -0.7501  1.0922
  891MOL0     C20213   7.768   2.502   1.232  0.3299  0.0479 -0.2569
  891MOL0     C20214   7.890   2.513   1.243  0.5818 -0.4956 -0.7623
  891MOL0     C20215   7.830   2.499   0.738 -0.3378  0.6413  0.0036
  891MOL0     C20216   7.953   2.493   0.667 -0.7540  0.0426 -0.2037
  891MOL0     C20217   7.979   2.607   0.573  0.5491  0.0320 -0.1429
  891MOL0     H20218   8.247   2.054   0.388 -0.7460  1.0404  1.7511
  891MOL0     H20219   8.430   2.028   0.256 -1.0027 -3.1734  1.5242
  891MOL0     H20220   8.859   2.158   0.323  3.0965 -1.8230 -3.4866
  891MOL0     H20221   8.800   2.059   0.470 -1.7724 -1.9510 -0.5371
  891MOL0     H20222   8.810   1.848   0.316  1.9312 -0.2525  0.1683
  891MOL0     H20223   8.953   1.922   0.373  1.2078 -0.8261 -1.3001
  891MOL0     H20224   8.978   2.033   0.152 -0.8678  0.6012 -0.9650
  891MOL0     H20225   8.816   1.968   0.109 -1.5707  0.0630  1.3980
  891MOL0     H20226   9.079   1.833   0.173 -0.8839  0.8621  1.5048
  891MOL0     H20227   8.932   1.737   0.182  0.7600  0.5689  1.9233
  891MOL0     H20228   8.882   1.832  -0.053  1.2092  0.4094 -0.9509
  891MOL0     H20229   9.046   1.871  -0.069 -0.1313  0.0647 -0.6905
  891MOL0     H20230   8.969   1.591   0.004 -0.3769  0.7159  2.6624
  891MOL0     H20231   8.983   1.639  -0.163  1.6456  0.6931  0.1011
  891MOL0     H20232   9.187   1.550  -0.056  0.0630 -0.9479  4.7666
  891MOL0     H20233   9.210   1.696   0.036 -2.1184  0.2817  0.8311
  891MOL0     H20234   9.189   1.675  -0.275  3.1365 -0.5723 -0.0095
  891MOL0     H20235   9.209   1.823  -0.178  0.6552  0.3760 -1.8483
  891MOL0     H20236   9.374   1.455  -0.222  0.6703  0.3461  1.7349
  891MOL0     H20237   9.641   1.401  -0.349 -2.0746  0.1821 -0.2866
  891MOL0     H20238   9.749   1.533  -0.324  1.5760 -1.0379  1.6591
  891MOL0     H20239   9.639   1.429  -0.062 -1.4670 -0.7032 -0.6374
  891MOL0     H20240   9.734   1.308  -0.137  0.2102  0.6591  0.0356
  891MOL0     H20241   9.852   1.584  -0.109 -0.5209  0.2472 -0.9652
  891MOL0     H20242   9.934   1.436  -0.170  0.2437  0.4863 -0.0594
  891MOL0     H20243   9.816   1.456   0.112 -0.2618 -0.2080 -0.9369
  891MOL0     H20244   9.970   1.508   0.065 -0.7275  1.5889 -1.8067
  891MOL0     H20245  10.136   1.447   0.145 -0.9600  0.0411 -1.2684
  891MOL0     H20246  10.343   1.371   0.203  0.9211 -1.3865  0.4573
  891MOL0     H20247  10.619   0.876   0.292 -0.7950 -2.2663 -0.6219
  891MOL0     H20248  10.862   0.791   0.261  0.6873  1.8977 -0.4830
  891MOL0     H20249  10.942   0.611   0.064 -2.9419 -0.0369 -1.1463
  891MOL0     H20250  10.937   0.659  -0.107  1.0830 -1.4286  0.3429
  891MOL0     H20251  11.183   0.660  -0.115  2.9183  1.3798  1.5513
  891MOL0     H20252  11.182   0.637   0.064 -0.9596  1.6398  0.4959
  891MOL0     H20253  11.085   0.409   0.026 -0.3008  1.3131  0.7338
  891MOL0     H20254  11.063   0.436  -0.136  1.7510 -1.7270 -0.1318
  891MOL0     H20255  11.322   0.401   0.004  0.1075  2.5110 -1.4077
  891MOL0     H20256  11.329   0.463  -0.160  1.1612 -0.9986 -0.6375
  891MOL0     H20257  11.242   0.243  -0.241  0.3493 -0.4279  0.2462
  891MOL0     H20258  11.203   0.201  -0.071 -0.5618 -0.4218  0.0655
  891MOL0     H20259  11.496   0.247  -0.170  0.7337 -1.2406 -1.3025
  891MOL0     H20260  11.425   0.168  -0.017 -1.5862  0.7529 -0.1587
  891MOL0     H20261  11.462   0.084  -0.300  0.6031 -1.2949 -0.1750
  891MOL0     H20262  11.317   0.025  -0.223  0.0680 -1.7254  0.9397
  891MOL0     H20263  11.493  -0.135  -0.204  3.1000  1.0662 -1.4932
  891MOL0     H20264  11.606  -0.031  -0.133 -0.1644  1.3059 -1.7063
  891MOL0     H20265  10.875   0.942  -0.127  2.7633 -2.1070  1.1058
  891MOL0     H20266  10.633   1.002  -0.120  0.6424  0.8450  1.0450
  891MOL0     H20267  10.237   0.968   0.053  1.3945  0.4117  1.5498
  891MOL0     H20268  10.011   1.065   0.005 -0.8027  1.6612 -3.1979
  891MOL0     H20269   8.673   2.238   0.548  0.0721  0.9226 -1.5498
  891MOL0     H20270   8.448   2.302   0.674 -4.0473  0.1211 -0.8258
  891MOL0     H20271   8.048   2.185   0.758 -1.8340 -0.9513 -1.4849
  891MOL0     H20272   7.857   2.219   0.938 -0.9658  1.2550  0.8381
  891MOL0     H20273   7.690   2.300   1.077 -1.7149  0.7189  1.3679
  891MOL0     H20274   7.589   2.232   0.956  0.0286 -0.9555  0.0109
  891MOL0     H20275   7.452   2.329   1.125  0.7727  1.8480  3.0515
  891MOL0     H20276   7.440   2.420   0.971 -0.9314  4.9628  1.3550
  891MOL0     H20277   7.439   2.571   1.162 -1.1722 -1.5852  1.0946
  891MOL0     H20278   7.589   2.602   1.076  0.1316  0.0024  0.3777
  891MOL0     H20279   7.619   2.591   1.322 -2.9202 -0.0471 -0.2328
  891MOL0     H20280   7.589   2.417   1.324 -1.8959 -0.2070  0.9484
  891MOL0     H20281   7.993   2.533   1.262  1.0624  0.2522 -3.7754
  891MOL0     H20282   7.762   2.581   0.717 -1.2921  0.1059  0.9439
  891MOL0     H20283   7.892   2.665   0.541  0.6947  0.2899 -0.0809
  891MOL0     H20284   8.058   2.674   0.609  0.5550  0.8790 -1.6480
  891MOL0     H20285   8.007   2.568   0.475 -5.7482 -0.3116 -2.2208
  892MOL0     O20286   8.667   0.631   9.607 -0.2111 -0.1575 -0.6209
  892MOL0     C20287   8.663   0.618   9.728  0.5928 -0.1804 -0.6325
  892MOL0     O20288   8.762   0.613   9.814  1.1906 -0.2015  0.0254
  892MOL0     C20289   8.887   0.643   9.775 -0.2189  1.3764 -0.6995
  892MOL0     C20290   8.921   0.764   9.714 -1.0343  0.0735 -0.4094
  892MOL0     C20291   9.050   0.786   9.670  0.5650  0.8700  0.0889
  892MOL0     C20292   9.149   0.686   9.673 -0.2179 -0.6729  0.7569
  892MOL0     O20293   9.274   0.708   9.624 -0.5067 -0.1405  0.3478
  892MOL0     C20294   9.380   0.691   9.727  0.3832  0.2555 -1.1200
  892MOL0     C20295   9.509   0.675   9.651  0.2038  0.8808 -0.3297
  892MOL0     C20296   9.535   0.804   9.559 -0.5868 -0.4041 -0.1484
  892MOL0     C20297   9.672   0.873   9.589  0.4740  0.3904 -0.5353
  892MOL0     C20298   9.785   0.773   9.569 -0.2636 -0.1788  0.8945
  892MOL0     C20299   9.915   0.858   9.559  0.4382  0.0173 -0.8953
  892MOL0     C20300  10.034   0.769   9.572  0.0163  0.4950  0.7247
  892MOL0     C20301  10.159   0.842   9.577  0.1638  0.3793 -0.4304
  892MOL0     N20302  10.284   0.759   9.574 -0.0018  0.1562  0.3404
  892MOL0     C20303  10.337   0.704   9.459 -1.0421 -0.4994 -0.9290
  892MOL0     C20304  10.456   0.647   9.506  0.0283 -0.5881 -0.1877
  892MOL0     C20305  10.554   0.564   9.420  0.9646 -0.8833 -0.4166
  892MOL0     C20306  10.650   0.665   9.353 -0.4489 -0.2160 -0.2481
  892MOL0     C20307  10.752   0.597   9.274 -0.0971  0.0135  0.0591
  892MOL0     C20308  10.873   0.562   9.364 -0.2525 -0.2713  0.2819
  892MOL0     O20309  10.952   0.678   9.400  0.0758  0.2709 -0.5427
  892MOL0     C20310  11.052   0.726   9.319  0.1726  0.8214  0.1692
  892MOL0     C20311  11.133   0.826   9.374  0.0008  0.4574 -0.4524
  892MOL0     C20312  11.241   0.878   9.296 -0.9265  1.0398  0.0549
  892MOL0     C20313  11.272   0.832   9.162 -0.2329 -0.1454 -0.4909
  892MOL0     C20314  11.382   0.892   9.090  0.8740 -0.0916 -0.1125
  892MOL0     O20315  11.473   0.960   9.165 -0.1363  0.5096 -0.7282
  892MOL0     C20316  11.587   1.021   9.114 -0.1517  0.4848 -1.1962
  892MOL0     C20317  11.665   0.958   9.023  0.4185 -0.5191  0.2298
  892MOL0     C20318  11.781   1.014   8.967  0.4758  0.0185 -0.7623
  892MOL0     C20319  11.811   1.145   9.003  0.5070 -1.2180 -0.8517
  892MOL0     O20320  11.926   1.213   8.955  0.3049  0.4703 -0.4765
  892MOL0     C20321  11.979   1.339   9.005 -0.3616  0.3990 -0.0780
  892MOL0     C20322  12.097   1.362   8.927  0.0547 -0.1252  0.7117
  892MOL0     C20323  12.173   1.487   8.962  0.1157 -0.5091  0.4468
  892MOL0     C20324  12.303   1.493   8.884 -0.4001 -0.2493 -0.2527
  892MOL0     C20325  12.386   1.617   8.928 -0.1436 -0.0434 -0.4411
  892MOL0     C20326  12.516   1.622   8.847 -0.5063 -0.0668 -0.0721
  892MOL0     C20327  12.634   1.701   8.917  0.3100  0.0202  0.8629
  892MOL0     C20328  12.769   1.642   8.886 -0.0278  0.2357  0.4026
  892MOL0    Cl20329  12.819   1.655   8.712  0.2490  0.5870  0.6023
  892MOL0     C20330  11.732   1.210   9.100  0.4449  0.0941  0.4133
  892MOL0     C20331  11.624   1.149   9.154 -0.0470 -0.5796 -0.2870
  892MOL0     O20332  11.387   0.873   8.969  0.1505  0.1310  0.6171
  892MOL0     C20333  11.190   0.730   9.111  0.6539  0.3119 -0.6360
  892MOL0     C20334  11.080   0.675   9.186  0.5046  0.4426  0.3767
  892MOL0     N20335  10.448   0.654   9.646 -0.2065  0.1366  0.2627
  892MOL0     N20336  10.355   0.731   9.681 -0.4729  0.0842 -0.0753
  892MOL0     C20337   9.108   0.557   9.720 -0.5721  0.3552 -0.2704
  892MOL0     C20338   8.984   0.536   9.781 -0.6364  0.3327  0.0024
  892MOL0     C20339   8.528   0.588   9.787 -0.1384 -0.4204 -0.1461
  892MOL0     C20340   8.526   0.492   9.891 -0.0546 -0.1751  0.7590
  892MOL0     C20341   8.404   0.448   9.942 -0.3189 -0.3758 -0.1023
  892MOL0     C20342   8.282   0.491   9.897 -0.1709 -0.4255  0.3445
  892MOL0     O20343   8.164   0.439   9.949 -0.8598 -0.3153 -0.2138
  892MOL0     C20344   8.073   0.539  10.012  0.1787  0.4601 -0.1836
  892MOL0     C20345   7.944   0.462  10.054 -0.4952  0.2261  0.1535
  892MOL0     C20346   7.872   0.404   9.937 -0.5040 -0.0472  0.4912
  892MOL0     C20347   7.729   0.369   9.973 -0.3366 -0.2406  0.5237
  892MOL0     C20348   7.653   0.492  10.005  0.2784 -0.7322 -0.2342
  892MOL0     C20349   7.589   0.583  10.057  0.0428 -0.2452  0.1966
  892MOL0     C20350   8.287   0.593   9.797 -0.2029  0.4188 -0.5196
  892MOL0     C20351   8.401   0.633   9.743 -0.5717 -0.4730  0.5988
  892MOL0     C20352   8.382   0.750   9.639  0.6032 -0.1922 -0.3957
  892MOL0     H20353   8.846   0.841   9.702 -0.7948  0.3228 -0.3022
  892MOL0     H20354   9.086   0.882   9.635  0.3548  1.6559  1.8915
  892MOL0     H20355   9.394   0.780   9.789 -1.1205 -0.8218  0.9156
  892MOL0     H20356   9.366   0.604   9.793  0.8786  0.3899 -0.8353
  892MOL0     H20357   9.511   0.581   9.593  1.8314 -0.1506  1.2897
  892MOL0     H20358   9.582   0.657   9.730  0.0915 -1.4314 -0.6604
  892MOL0     H20359   9.455   0.877   9.571 -2.2801 -2.1205 -0.5241
  892MOL0     H20360   9.524   0.779   9.453 -0.7555  0.5746 -0.3665
  892MOL0     H20361   9.696   0.949   9.513  1.3171  1.5566  0.8508
  892MOL0     H20362   9.668   0.923   9.686  0.2188 -2.1767  0.8707
  892MOL0     H20363   9.776   0.724   9.666 -0.3397  3.3922  2.8841
  892MOL0     H20364   9.771   0.695   9.493 -1.8786  0.1044  0.8674
  892MOL0     H20365   9.919   0.910   9.463 -0.6568 -1.3260 -1.7004
  892MOL0     H20366   9.923   0.923   9.647 -0.3048 -0.8877 -0.1315
  892MOL0     H20367  10.041   0.703   9.485 -1.7267  3.0789 -1.5226
  892MOL0     H20368  10.007   0.708   9.659 -0.6934  1.1424  0.9736
  892MOL0     H20369  10.159   0.913   9.494 -0.3132  0.6104 -0.2398
  892MOL0     H20370  10.165   0.900   9.670 -1.0892  0.4626 -0.3884
  892MOL0     H20371  10.298   0.698   9.358  1.2256 -0.0621 -1.9045
  892MOL0     H20372  10.623   0.501   9.477  1.1320  0.8654  1.4348
  892MOL0     H20373  10.504   0.503   9.344 -0.6010 -1.8371  1.3102
  892MOL0     H20374  10.596   0.732   9.285 -0.9893 -0.3290  0.0669
  892MOL0     H20375  10.703   0.724   9.429  1.0367 -2.9773  0.9928
  892MOL0     H20376  10.788   0.660   9.192  0.7359  0.3525  0.6740
  892MOL0     H20377  10.716   0.502   9.233 -0.1511  0.9639 -2.2847
  892MOL0     H20378  10.939   0.490   9.315 -0.5056 -0.9825  0.9696
  892MOL0     H20379  10.838   0.503   9.449  0.6079 -2.5886 -0.8939
  892MOL0     H20380  11.107   0.856   9.475  1.0798  1.9997 -0.5952
  892MOL0     H20381  11.294   0.967   9.328  0.3387 -0.8320  3.7136
  892MOL0     H20382  11.644   0.855   8.994  0.7491 -1.7572  3.8191
  892MOL0     H20383  11.826   0.955   8.888 -2.5712 -1.9378 -1.2025
  892MOL0     H20384  11.910   1.420   8.978  0.0185  0.8131  0.1723
  892MOL0     H20385  11.999   1.345   9.112 -1.5999 -0.3990  0.2117
  892MOL0     H20386  12.155   1.270   8.938  0.1097 -0.6624 -2.8140
  892MOL0     H20387  12.067   1.369   8.822  2.1936  3.3251  0.1452
  892MOL0     H20388  12.107   1.573   8.945  2.2659  1.8172  2.8878
  892MOL0     H20389  12.193   1.486   9.069  0.0744  1.4834  0.5170
  892MOL0     H20390  12.296   1.494   8.775 -1.5433  0.0531 -0.1888
  892MOL0     H20391  12.362   1.405   8.910  1.1488  1.2697  1.6834
  892MOL0     H20392  12.413   1.606   9.033  3.1922 -1.0904 -1.2938
  892MOL0     H20393  12.328   1.707   8.907 -0.3220 -0.4058 -1.6116
  892MOL0     H20394  12.545   1.517   8.831 -0.1068 -0.3908  2.3205
  892MOL0     H20395  12.499   1.660   8.746 -0.4263  1.5608  0.5099
  892MOL0     H20396  12.610   1.700   9.024 -0.7330 -0.1600  0.6370
  892MOL0     H20397  12.628   1.803   8.878  0.9165  0.3920  1.6821
  892MOL0     H20398  12.846   1.698   8.940  0.4233 -0.0175  0.0335
  892MOL0     H20399  12.785   1.541   8.924 -0.0800 -0.0707 -0.3631
  892MOL0     H20400  11.756   1.311   9.131 -4.4410  1.3663  0.9725
  892MOL0     H20401  11.572   1.205   9.232 -0.0968  1.6483 -1.8317
  892MOL0     H20402  11.199   0.700   9.007  1.1838 -2.1127  0.0449
  892MOL0     H20403  11.015   0.596   9.150  2.6437 -1.3855  0.3302
  892MOL0     H20404   9.184   0.480   9.724  0.6361  1.5215  0.0180
  892MOL0     H20405   8.959   0.440   9.826 -0.3341  0.3255  0.1516
  892MOL0     H20406   8.621   0.467   9.936  0.9140  1.8533 -0.0229
  892MOL0     H20407   8.393   0.373  10.020 -1.9294  0.9872  1.0477
  892MOL0     H20408   8.057   0.617   9.936 -0.4706  0.2244 -0.2980
  892MOL0     H20409   8.115   0.588  10.100 -1.4070 -1.0484  1.4715
  892MOL0     H20410   7.876   0.524  10.113 -1.9728 -1.7368  0.6133
  892MOL0     H20411   7.973   0.373  10.110  0.0678 -0.9127 -1.8484
  892MOL0     H20412   7.919   0.309   9.910  0.9339  1.4246 -2.7013
  892MOL0     H20413   7.879   0.467   9.848 -0.3405 -1.0033 -0.1892
  892MOL0     H20414   7.688   0.324   9.883  0.5483  0.1882 -0.1107
  892MOL0     H20415   7.734   0.303  10.060  2.6068  0.0848  0.7106
  892MOL0     H20416   7.536   0.662  10.108 -0.3277  0.4266 -1.1914
  892MOL0     H20417   8.200   0.639   9.752 -0.1348  3.6290  2.1663
  892MOL0     H20418   8.310   0.727   9.559 -1.0205 -3.0087  1.6443
  892MOL0     H20419   8.354   0.837   9.699 -0.3983 -0.6638 -0.1409
  892MOL0     H20420   8.478   0.771   9.592  1.5411 -0.2544  1.4129
  893MOL0     O20421   2.486   5.081   4.110 -0.0393  0.2266  0.5479
  893MOL0     C20422   2.415   4.982   4.100 -0.7971 -0.4536  0.7833
  893MOL0     O20423   2.452   4.867   4.030 -0.3799 -0.1996  0.8594
  893MOL0     C20424   2.569   4.872   3.958 -0.0627  0.5159  0.3944
  893MOL0     C20425   2.696   4.910   4.001  0.0000 -0.3345  0.2773
  893MOL0     C20426   2.797   4.929   3.909 -0.5053 -0.1410  0.5013
  893MOL0     C20427   2.783   4.899   3.764 -0.1877  0.1159  0.9805
  893MOL0     O20428   2.893   4.922   3.687  0.6589  0.2176  0.3874
  893MOL0     C20429   2.911   4.841   3.576  0.3757  0.7191  0.8821
  893MOL0     C20430   3.059   4.849   3.533  0.6187  0.5468  0.5429
  893MOL0     C20431   3.167   4.792   3.622 -0.0653 -0.0456 -0.6158
  893MOL0     C20432   3.307   4.815   3.555 -0.4563  0.1522 -0.8587
  893MOL0     C20433   3.417   4.746   3.640  0.0985 -0.9216 -0.1972
  893MOL0     C20434   3.555   4.803   3.606 -0.0906 -0.1727 -0.2249
  893MOL0     C20435   3.663   4.732   3.684  0.4254 -0.4869  0.1636
  893MOL0     C20436   3.798   4.779   3.635  0.1115  0.0834  0.1551
  893MOL0     N20437   3.901   4.701   3.699  0.1478  0.2111  0.2197
  893MOL0     C20438   3.937   4.715   3.831 -0.9688 -0.2072 -0.7166
  893MOL0     C20439   4.026   4.619   3.856 -0.9068 -0.1010  0.2612
  893MOL0     C20440   4.102   4.606   3.991 -0.2451 -0.2588  0.9021
  893MOL0     C20441   4.244   4.653   4.011  0.2128 -0.0702 -0.9346
  893MOL0     C20442   4.339   4.582   3.918 -0.8963  0.8054  0.1318
  893MOL0     C20443   4.478   4.635   3.919 -0.6908  0.3479 -1.0378
  893MOL0     O20444   4.525   4.633   4.056  0.0849  0.1599  0.0600
  893MOL0     C20445   4.647   4.685   4.085 -0.5009 -1.1772  0.0191
  893MOL0     C20446   4.694   4.667   4.207 -0.3044 -0.8946 -0.0558
  893MOL0     C20447   4.825   4.712   4.236 -0.3673 -0.1890 -0.8125
  893MOL0     C20448   4.901   4.790   4.155 -1.0215 -0.3936 -0.6996
  893MOL0     C20449   5.028   4.852   4.206  0.8182  0.0584  0.0756
  893MOL0     O20450   5.101   4.938   4.130  0.2251  0.8592  0.2018
  893MOL0     C20451   5.214   4.996   4.179  0.8493  0.0875  1.2165
  893MOL0     C20452   5.210   5.129   4.220  0.2964  1.1291 -0.1580
  893MOL0     C20453   5.326   5.201   4.241  0.1541  0.3974  0.3533
  893MOL0     C20454   5.452   5.137   4.224  0.1313 -0.6834 -0.6016
  893MOL0     O20455   5.554   5.222   4.243 -1.1021  0.0492 -0.0267
  893MOL0     C20456   5.688   5.163   4.264  0.5637 -0.0909  0.7190
  893MOL0     C20457   5.780   5.278   4.269  0.0678  0.5902 -0.1002
  893MOL0     C20458   5.922   5.243   4.309 -0.0708  0.4064 -0.1137
  893MOL0     C20459   6.014   5.364   4.301 -1.6059  0.1978  0.4764
  893MOL0     C20460   6.156   5.315   4.291 -0.3310  0.3835 -0.3750
  893MOL0     C20461   6.244   5.430   4.258  0.2058 -0.5366 -0.1513
  893MOL0     C20462   6.398   5.381   4.259 -0.1901  0.4939  1.1501
  893MOL0     C20463   6.496   5.497   4.219 -0.3003  0.4334  0.0268
  893MOL0    Cl20464   6.471   5.540   4.036 -0.4006  0.4164  0.2087
  893MOL0     C20465   5.457   4.999   4.192 -0.1105 -0.4894  0.3440
  893MOL0     C20466   5.330   4.936   4.163 -0.6524  0.0857 -0.4224
  893MOL0     O20467   5.068   4.812   4.312 -0.1436 -0.1173  0.2270
  893MOL0     C20468   4.842   4.818   4.029  0.8942 -0.2897  0.2593
  893MOL0     C20469   4.728   4.754   3.991  0.1473  0.1952  0.9243
  893MOL0     N20470   4.058   4.553   3.737 -0.1767 -0.2314 -0.3388
  893MOL0     N20471   3.987   4.609   3.646  0.7030  0.8590  0.4728
  893MOL0     C20472   2.657   4.860   3.719 -0.7787  0.1096 -1.1893
  893MOL0     C20473   2.554   4.847   3.819 -0.1023  0.9015  0.4279
  893MOL0     C20474   2.277   4.995   4.136 -0.1552 -0.2445 -0.2547
  893MOL0     C20475   2.243   5.070   4.253 -0.8283 -0.5327  0.0595
  893MOL0     C20476   2.115   5.080   4.299  0.5765 -0.0100 -0.6698
  893MOL0     C20477   2.008   5.023   4.227  0.1917  1.1627  0.5472
  893MOL0     O20478   1.872   5.022   4.266 -0.6835  0.3181  0.4115
  893MOL0     C20479   1.829   5.133   4.344 -0.2177 -0.1719  0.4228
  893MOL0     C20480   1.683   5.150   4.345 -0.2667  0.4675  0.3922
  893MOL0     C20481   1.622   5.070   4.461  0.5193  0.9379 -0.7374
  893MOL0     C20482   1.469   5.101   4.472 -0.2422  0.4574 -0.3793
  893MOL0     C20483   1.401   5.069   4.351 -0.4656  0.2558 -0.3731
  893MOL0     C20484   1.352   5.020   4.248  0.5292  0.7668  0.2132
  893MOL0     C20485   2.038   4.944   4.116  0.7132  0.1561  0.7832
  893MOL0     C20486   2.169   4.932   4.063 -0.1996  0.1505 -0.3527
  893MOL0     C20487   2.178   4.846   3.945  0.4646 -0.2003 -0.7880
  893MOL0     H20488   2.718   4.949   4.100  0.9244  0.6987 -0.3106
  893MOL0     H20489   2.893   4.971   3.938  0.6941 -2.0012 -0.5598
  893MOL0     H20490   2.896   4.739   3.612  2.1617 -0.4498 -1.3754
  893MOL0     H20491   2.850   4.864   3.487  0.2699  0.7229  0.9559
  893MOL0     H20492   3.087   4.953   3.509  1.0150  0.4076  0.3947
  893MOL0     H20493   3.059   4.790   3.441 -0.7099  0.1979  0.7479
  893MOL0     H20494   3.147   4.685   3.625 -0.3829 -0.0189 -1.3825
  893MOL0     H20495   3.161   4.824   3.726 -1.4321 -2.3059  0.0693
  893MOL0     H20496   3.305   4.780   3.451  1.7589  0.7230 -1.1395
  893MOL0     H20497   3.324   4.923   3.563 -3.4084  0.6191  0.5866
  893MOL0     H20498   3.405   4.775   3.745  1.3949  0.8305 -0.4716
  893MOL0     H20499   3.414   4.637   3.636  2.3773 -1.0724  0.7033
  893MOL0     H20500   3.586   4.789   3.502  0.8794  0.6043 -0.0485
  893MOL0     H20501   3.566   4.908   3.633  3.5050 -0.8557  1.6041
  893MOL0     H20502   3.666   4.624   3.665  1.2553 -0.6538  1.1423
  893MOL0     H20503   3.646   4.751   3.791 -1.3230  0.5580 -0.2693
  893MOL0     H20504   3.808   4.761   3.527  0.7900  0.2264  0.1882
  893MOL0     H20505   3.804   4.886   3.653 -2.8701  0.7016 -1.8304
  893MOL0     H20506   3.887   4.772   3.908 -2.3973 -2.4129  0.0863
  893MOL0     H20507   4.036   4.649   4.068 -0.9309  0.2226  0.0562
  893MOL0     H20508   4.105   4.500   4.016  1.6272 -0.4039  0.2139
  893MOL0     H20509   4.248   4.762   4.001  1.4412 -0.3257 -5.2393
  893MOL0     H20510   4.271   4.637   4.116 -0.2614  1.2730 -0.5880
  893MOL0     H20511   4.312   4.584   3.813 -2.4299 -2.1285  0.3722
  893MOL0     H20512   4.343   4.476   3.948  0.1265  0.9885  0.6936
  893MOL0     H20513   4.470   4.739   3.888  2.1033  1.9644  2.8374
  893MOL0     H20514   4.542   4.581   3.848  0.4062  0.6930 -0.3418
  893MOL0     H20515   4.626   4.616   4.275 -1.0868  0.7889  0.4792
  893MOL0     H20516   4.868   4.671   4.326 -0.7697 -0.8147 -0.9032
  893MOL0     H20517   5.113   5.178   4.227 -0.2754 -0.1159  0.9994
  893MOL0     H20518   5.321   5.306   4.264  1.5933  0.5566  0.0597
  893MOL0     H20519   5.681   5.107   4.358  0.0263 -1.6591 -0.2225
  893MOL0     H20520   5.709   5.101   4.177 -2.4985  3.2382 -2.7447
  893MOL0     H20521   5.782   5.324   4.170  0.8684  0.7978  0.0043
  893MOL0     H20522   5.748   5.339   4.354  2.6297  0.0940  1.3321
  893MOL0     H20523   5.924   5.209   4.413 -0.3199 -1.2855 -0.6330
  893MOL0     H20524   5.964   5.166   4.244  0.7473 -0.1652  1.0570
  893MOL0     H20525   6.010   5.427   4.391  0.0419  1.4289 -0.2635
  893MOL0     H20526   5.997   5.425   4.211  0.1369 -0.5137 -0.3783
  893MOL0     H20527   6.165   5.237   4.215  0.2892  0.2790 -0.2013
  893MOL0     H20528   6.179   5.269   4.387 -1.9615 -0.6951 -0.4759
  893MOL0     H20529   6.216   5.473   4.161  0.8743  0.8970  0.2763
  893MOL0     H20530   6.235   5.504   4.337 -2.3214 -1.6437  0.6881
  893MOL0     H20531   6.409   5.302   4.185  1.1211  0.9251  0.8645
  893MOL0     H20532   6.427   5.342   4.356  0.0680 -2.1603  0.0898
  893MOL0     H20533   6.490   5.579   4.291 -1.9415  2.4167 -2.1763
  893MOL0     H20534   6.587   5.440   4.237 -0.7230 -0.6655 -1.1223
  893MOL0     H20535   5.552   4.950   4.176  0.9571  0.2667  3.5050
  893MOL0     H20536   5.328   4.831   4.136  3.0775  0.2556 -1.8369
  893MOL0     H20537   4.894   4.880   3.958  0.4092  0.7514  0.7919
  893MOL0     H20538   4.699   4.776   3.889  0.6818 -0.1620  0.6875
  893MOL0     H20539   2.634   4.859   3.613  0.4421  3.7472 -1.6189
  893MOL0     H20540   2.453   4.834   3.783  0.3748  0.1274 -0.6940
  893MOL0     H20541   2.318   5.127   4.306 -1.1388  2.2365 -2.2558
  893MOL0     H20542   2.092   5.136   4.389 -2.1757 -1.0040 -0.6622
  893MOL0     H20543   1.880   5.220   4.302  1.1061  0.0314  2.3211
  893MOL0     H20544   1.861   5.119   4.447 -0.4553 -4.1576  0.1271
  893MOL0     H20545   1.638   5.127   4.248 -3.3945  2.6857  1.1416
  893MOL0     H20546   1.671   5.257   4.365 -1.1754  0.4278  0.1309
  893MOL0     H20547   1.661   5.097   4.560  0.6105  0.1240 -0.5436
  893MOL0     H20548   1.636   4.963   4.442 -0.5488  0.9587 -1.7392
  893MOL0     H20549   1.429   5.040   4.554 -1.8459 -2.3742 -3.0662
  893MOL0     H20550   1.447   5.207   4.486  0.1992  0.3896  1.0734
  893MOL0     H20551   1.309   4.967   4.165  0.8745  1.0637 -0.1583
  893MOL0     H20552   1.953   4.894   4.069  0.6363  1.8499 -0.9935
  893MOL0     H20553   2.080   4.841   3.896  0.0275 -1.4733  0.1514
  893MOL0     H20554   2.244   4.894   3.872  0.4882  1.1997  0.1141
  893MOL0     H20555   2.222   4.749   3.970 -0.5017 -0.1910  1.1461
  894MOL0     O20556   1.734   8.432   4.433  0.1822 -0.0508 -0.4097
  894MOL0     C20557   1.749   8.508   4.535 -0.4066 -0.2719 -1.0231
  894MOL0     O20558   1.851   8.593   4.553 -0.6994  0.4603 -0.2576
  894MOL0     C20559   1.968   8.589   4.474 -0.1753 -0.1324 -0.0480
  894MOL0     C20560   2.062   8.699   4.486 -0.0246 -0.7856  0.1717
  894MOL0     C20561   2.182   8.690   4.424  0.2133 -0.4906  0.2571
  894MOL0     C20562   2.221   8.582   4.345 -0.7474  0.0267 -0.0753
  894MOL0     O20563   2.341   8.579   4.287  0.1181  0.3832  0.1450
  894MOL0     C20564   2.365   8.518   4.158 -0.1279 -0.4177 -0.1809
  894MOL0     C20565   2.510   8.522   4.118 -0.1781  0.9205  0.1403
  894MOL0     C20566   2.596   8.444   4.217  0.1477 -0.0462 -0.4664
  894MOL0     C20567   2.739   8.440   4.159  0.1990  0.0852  0.0564
  894MOL0     C20568   2.836   8.565   4.180  1.2076  0.8275  0.2781
  894MOL0     C20569   2.879   8.592   4.323  0.7097  0.8847 -0.9833
  894MOL0     C20570   2.997   8.687   4.322  0.3818  0.5201 -0.2744
  894MOL0     C20571   3.129   8.622   4.289  0.9247  0.4099  0.4439
  894MOL0     N20572   3.238   8.719   4.267 -0.4113  0.4096  0.2753
  894MOL0     C20573   3.291   8.797   4.369 -0.1256  0.4035 -0.0240
  894MOL0     C20574   3.372   8.878   4.300  0.6391  0.0700 -0.4314
  894MOL0     C20575   3.463   8.978   4.370  0.6257 -0.5121  0.1086
  894MOL0     C20576   3.587   8.899   4.430  0.2615 -0.4987  0.0481
  894MOL0     C20577   3.682   8.846   4.326 -0.7249  0.0477 -0.8559
  894MOL0     C20578   3.771   8.962   4.276  0.9516  1.5287 -0.5372
  894MOL0     O20579   3.908   8.925   4.247  0.1894  0.3549  0.2574
  894MOL0     C20580   3.991   9.030   4.253  0.0583  0.2951 -0.9810
  894MOL0     C20581   3.985   9.138   4.162  0.9806 -0.3637 -0.5088
  894MOL0     C20582   4.079   9.237   4.173  0.1945 -0.9219 -0.0440
  894MOL0     C20583   4.187   9.230   4.269 -0.2432 -0.1743  0.4510
  894MOL0     C20584   4.283   9.342   4.268 -0.0204  0.3223  1.0533
  894MOL0     O20585   4.353   9.346   4.382 -0.0973  0.3606  0.6130
  894MOL0     C20586   4.460   9.425   4.381  0.0920  0.1061  0.0548
  894MOL0     C20587   4.463   9.561   4.406  0.0017 -0.5093 -0.8466
  894MOL0     C20588   4.580   9.636   4.382 -0.2063  0.2609 -0.9257
  894MOL0     C20589   4.691   9.587   4.320  0.1901 -0.1782 -0.0814
  894MOL0     O20590   4.796   9.664   4.293 -0.2733 -0.6855  0.3032
  894MOL0     C20591   4.923   9.607   4.328 -0.5227 -0.5719 -0.4411
  894MOL0     C20592   5.026   9.724   4.336 -0.6496  0.2527 -0.7142
  894MOL0     C20593   5.168   9.674   4.371  0.1307 -0.7692  0.0534
  894MOL0     C20594   5.268   9.789   4.382  0.8445 -0.2595  0.1529
  894MOL0     C20595   5.411   9.743   4.362 -0.0400 -0.2206  0.2954
  894MOL0     C20596   5.502   9.854   4.411 -0.5112  0.4693 -0.1228
  894MOL0     C20597   5.641   9.794   4.444  1.0618 -0.2614 -0.1614
  894MOL0     C20598   5.742   9.907   4.483 -0.3201  0.9143  0.9358
  894MOL0    Cl20599   5.864   9.826   4.568  0.2890  0.0132  0.0534
  894MOL0     C20600   4.691   9.448   4.296  0.6462 -0.1916  0.4088
  894MOL0     C20601   4.575   9.370   4.324 -0.5924  0.1512  0.2884
  894MOL0     O20602   4.300   9.412   4.173  0.5875 -0.2281  0.3354
  894MOL0     C20603   4.192   9.121   4.356  0.7210 -0.2358 -0.4286
  894MOL0     C20604   4.098   9.017   4.341 -0.2575 -0.1260 -0.7397
  894MOL0     N20605   3.370   8.840   4.166 -0.1526 -0.2734  0.2305
  894MOL0     N20606   3.280   8.753   4.145 -0.9758  0.4087 -0.1797
  894MOL0     C20607   2.140   8.468   4.337 -0.5040 -0.4191  0.0265
  894MOL0     C20608   2.015   8.479   4.395 -0.2919 -0.2455  0.0938
  894MOL0     C20609   1.656   8.483   4.657  0.5062 -0.1395  1.0463
  894MOL0     C20610   1.702   8.499   4.788  0.2781 -0.2255 -0.0381
  894MOL0     C20611   1.618   8.509   4.904 -0.0067  0.5549  0.5396
  894MOL0     C20612   1.483   8.470   4.889 -0.4273  0.2840 -0.4613
  894MOL0     O20613   1.407   8.468   5.004  0.2008  0.1095 -0.5055
  894MOL0     C20614   1.266   8.465   5.000  0.3583 -0.7733 -0.8286
  894MOL0     C20615   1.189   8.594   4.977 -0.1846 -0.0745 -0.7234
  894MOL0     C20616   1.040   8.582   5.009  0.6282  0.0743 -0.2137
  894MOL0     C20617   0.966   8.713   5.009  0.8241  0.7515  0.2124
  894MOL0     C20618   0.825   8.696   5.054  0.0580  0.0647  0.3832
  894MOL0     C20619   0.709   8.705   5.077 -0.4025  0.3571  0.1367
  894MOL0     C20620   1.444   8.447   4.755  0.2062  0.6099 -0.0523
  894MOL0     C20621   1.520   8.453   4.642  0.1592 -0.8920  0.2111
  894MOL0     C20622   1.454   8.444   4.511 -0.8346  0.4395  0.0573
  894MOL0     H20623   2.043   8.781   4.553 -0.8642 -3.1966  3.1126
  894MOL0     H20624   2.240   8.779   4.445  0.2083 -0.7225  1.2963
  894MOL0     H20625   2.328   8.415   4.155  1.9649 -1.3564  2.4999
  894MOL0     H20626   2.310   8.577   4.084  0.4712 -1.1194 -1.2187
  894MOL0     H20627   2.538   8.628   4.108 -0.0503  1.2047  2.6769
  894MOL0     H20628   2.520   8.482   4.017 -0.2240  2.1145 -0.3600
  894MOL0     H20629   2.564   8.340   4.227 -0.2428  0.1208  0.0812
  894MOL0     H20630   2.606   8.493   4.314  0.2083 -2.0891  0.6138
  894MOL0     H20631   2.786   8.349   4.197 -0.2318  0.5922  1.8585
  894MOL0     H20632   2.719   8.417   4.054 -2.7039 -2.5750  1.0392
  894MOL0     H20633   2.921   8.546   4.115  1.5847 -2.3486  1.4973
  894MOL0     H20634   2.793   8.659   4.144  2.6341  0.3909 -2.9095
  894MOL0     H20635   2.798   8.629   4.387 -0.0759  1.5005 -2.2852
  894MOL0     H20636   2.915   8.501   4.372  1.3680  0.2609 -2.5632
  894MOL0     H20637   2.994   8.725   4.425  0.6025  1.4746 -0.6057
  894MOL0     H20638   2.977   8.775   4.259  0.4622  1.5267  1.0503
  894MOL0     H20639   3.167   8.559   4.370  0.0036 -0.1219  0.4843
  894MOL0     H20640   3.118   8.547   4.209  0.3688  0.8805  0.0746
  894MOL0     H20641   3.280   8.797   4.477 -0.1856  3.2802  0.0614
  894MOL0     H20642   3.504   9.053   4.302  0.5951  1.7146  2.4057
  894MOL0     H20643   3.408   9.023   4.453 -0.7211 -2.6933  0.4700
  894MOL0     H20644   3.640   8.972   4.491  0.6768 -1.3983  0.7897
  894MOL0     H20645   3.548   8.812   4.483 -1.1374 -1.5746 -2.5522
  894MOL0     H20646   3.632   8.788   4.248  0.8162 -0.9707 -1.1318
  894MOL0     H20647   3.741   8.771   4.379  0.1851  0.7938 -0.7853
  894MOL0     H20648   3.769   9.041   4.352  1.1580  0.0111  1.1056
  894MOL0     H20649   3.713   8.985   4.186 -2.6676 -4.4499 -0.2782
  894MOL0     H20650   3.914   9.157   4.082  0.6662 -0.4461 -0.2516
  894MOL0     H20651   4.069   9.315   4.098  0.0152 -2.8127 -2.1034
  894MOL0     H20652   4.373   9.609   4.444  1.0749  0.8234  0.0497
  894MOL0     H20653   4.577   9.741   4.407  1.7669  0.2378 -0.4641
  894MOL0     H20654   4.896   9.556   4.421  0.2206 -2.4645 -1.2048
  894MOL0     H20655   4.966   9.537   4.255  2.7004 -0.2033  0.9314
  894MOL0     H20656   5.023   9.767   4.236 -2.4856 -0.1240 -0.8658
  894MOL0     H20657   4.997   9.802   4.408 -1.3797 -2.0645  1.6740
  894MOL0     H20658   5.165   9.615   4.463  0.1940 -2.7044 -1.1304
  894MOL0     H20659   5.200   9.604   4.294 -0.5339 -0.6904 -0.3024
  894MOL0     H20660   5.255   9.829   4.482  2.5724  0.5175  0.0993
  894MOL0     H20661   5.252   9.869   4.310 -2.2001 -0.9784 -0.1074
  894MOL0     H20662   5.432   9.713   4.259 -1.9662 -0.6161 -0.0313
  894MOL0     H20663   5.412   9.660   4.433 -4.2610  0.7983  1.8654
  894MOL0     H20664   5.519   9.928   4.332  0.0856  0.3142 -0.1411
  894MOL0     H20665   5.459   9.902   4.499 -0.6580 -1.1400  0.7156
  894MOL0     H20666   5.675   9.729   4.363 -1.7748 -1.9119 -0.1840
  894MOL0     H20667   5.626   9.730   4.531  2.1674 -0.0885  0.1693
  894MOL0     H20668   5.789   9.952   4.395 -0.3730 -0.9554 -0.1114
  894MOL0     H20669   5.696   9.985   4.544  1.3229  1.5293  1.4213
  894MOL0     H20670   4.774   9.402   4.242  0.1135  1.1894 -1.7182
  894MOL0     H20671   4.581   9.262   4.308  1.2080  0.3354 -0.4774
  894MOL0     H20672   4.272   9.111   4.429  2.6195 -1.8929 -2.6076
  894MOL0     H20673   4.110   8.925   4.398  2.6356  0.2907 -0.5197
  894MOL0     H20674   2.162   8.380   4.278 -2.8392  0.1766 -1.8651
  894MOL0     H20675   1.958   8.389   4.374  0.4339 -0.1206 -2.8689
  894MOL0     H20676   1.810   8.507   4.793  0.4948 -2.4289 -0.1360
  894MOL0     H20677   1.667   8.533   4.998 -2.2791 -2.2925  2.6149
  894MOL0     H20678   1.227   8.423   5.092  0.4496 -3.2374 -1.8461
  894MOL0     H20679   1.238   8.379   4.938 -0.4985 -1.0155 -0.1223
  894MOL0     H20680   1.207   8.623   4.873  0.7135 -1.5347 -1.0089
  894MOL0     H20681   1.221   8.676   5.042 -3.8510  1.0574 -0.1193
  894MOL0     H20682   1.018   8.527   5.101  0.2500  0.9561  0.2360
  894MOL0     H20683   1.008   8.512   4.930  4.0281 -2.9017  0.7984
  894MOL0     H20684   1.016   8.789   5.070  1.2150 -0.5704  1.5819
  894MOL0     H20685   0.964   8.740   4.903  0.9916 -4.5916 -1.4458
  894MOL0     H20686   0.603   8.709   5.093 -0.6980 -2.8624 -0.3089
  894MOL0     H20687   1.349   8.397   4.741  2.8038 -5.0655  0.0142
  894MOL0     H20688   1.489   8.361   4.450  0.3900 -0.7091  2.2154
  894MOL0     H20689   1.346   8.443   4.529 -0.8625  2.1689  0.1836
  894MOL0     H20690   1.486   8.533   4.457  3.0380 -0.7829  0.0382
  895MOL0     O20691   9.003  11.153   1.549 -0.5262  0.1077 -0.0281
  895MOL0     C20692   8.983  11.076   1.641  0.9620 -0.4702 -0.8840
  895MOL0     O20693   9.064  11.041   1.743 -1.3284  0.4901 -0.6002
  895MOL0     C20694   9.197  11.072   1.730 -0.1880 -0.2752 -0.1854
  895MOL0     C20695   9.270  11.032   1.619 -0.3139 -0.5922  0.7702
  895MOL0     C20696   9.409  11.047   1.614  0.2008 -0.3403 -0.1603
  895MOL0     C20697   9.466  11.117   1.722 -0.2514 -0.0364  0.4349
  895MOL0     O20698   9.603  11.133   1.726  0.2575 -0.0186 -0.4583
  895MOL0     C20699   9.697  11.108   1.614 -0.0103  0.4253 -0.6619
  895MOL0     C20700   9.828  11.155   1.653 -0.3382  0.2461 -0.3679
  895MOL0     C20701   9.905  11.212   1.533 -0.1958 -0.1656 -0.1476
  895MOL0     C20702  10.050  11.240   1.547  0.5584  0.6170 -0.2310
  895MOL0     C20703  10.081  11.368   1.628 -0.1071  0.2966 -0.0250
  895MOL0     C20704  10.228  11.401   1.621 -0.3072 -0.4870  0.1316
  895MOL0     C20705  10.249  11.531   1.695 -0.0224 -0.0552  0.0339
  895MOL0     C20706  10.204  11.650   1.610 -0.5679  0.4651  0.5632
  895MOL0     N20707  10.234  11.778   1.684 -0.2565  0.6080  0.0023
  895MOL0     C20708  10.368  11.803   1.727 -0.0656  0.5799 -0.7449
  895MOL0     C20709  10.362  11.919   1.803 -0.5583  0.5726  0.1619
  895MOL0     C20710  10.466  11.999   1.876  0.6989 -0.2818 -0.0363
  895MOL0     C20711  10.560  11.908   1.958 -0.3415  0.5282  0.4977
  895MOL0     C20712  10.673  11.988   2.023 -0.3427  0.2929 -0.5861
  895MOL0     C20713  10.774  11.893   2.089  0.7856  0.6551  0.1420
  895MOL0     O20714  10.904  11.957   2.097 -0.1586 -0.3399  0.2929
  895MOL0     C20715  11.015  11.884   2.120  0.0950 -0.8186  0.4979
  895MOL0     C20716  11.145  11.959   2.117  0.1268 -0.5666  1.0234
  895MOL0     C20717  11.255  11.891   2.153 -0.0946 -0.5492 -0.4491
  895MOL0     C20718  11.266  11.757   2.174  0.0881 -0.5190 -0.2747
  895MOL0     C20719  11.395  11.687   2.198  0.0047 -0.3728 -0.2089
  895MOL0     O20720  11.505  11.738   2.136  0.4542  0.2008  0.7922
  895MOL0     C20721  11.621  11.710   2.188 -0.1481 -0.4494 -0.1216
  895MOL0     C20722  11.715  11.635   2.121 -0.6350 -0.4649 -0.2936
  895MOL0     C20723  11.847  11.613   2.170  0.2921  0.5446  0.3871
  895MOL0     C20724  11.877  11.650   2.300 -0.0879  0.8441  0.0220
  895MOL0     O20725  11.985  11.610   2.368 -0.1649 -0.3063 -0.1848
  895MOL0     C20726  12.103  11.632   2.286 -0.2542  0.5337 -0.0750
  895MOL0     C20727  12.230  11.631   2.370 -0.4436  0.7106 -0.5794
  895MOL0     C20728  12.270  11.491   2.426  0.2467  0.0139 -0.6124
  895MOL0     C20729  12.386  11.510   2.528  0.0352 -0.9921  0.6664
  895MOL0     C20730  12.456  11.376   2.546  0.8553  0.0735  0.3735
  895MOL0     C20731  12.577  11.381   2.644 -0.3253  0.4481  1.0077
  895MOL0     C20732  12.651  11.246   2.661 -0.2788 -0.6631 -0.3702
  895MOL0     C20733  12.772  11.255   2.746  0.1235  0.0181 -0.9104
  895MOL0    Cl20734  12.891  11.366   2.667 -0.3797  0.3127  0.2839
  895MOL0     C20735  11.782  11.722   2.364 -0.0286  0.0682 -1.1794
  895MOL0     C20736  11.663  11.763   2.310 -0.6272 -0.5232 -0.1102
  895MOL0     O20737  11.393  11.590   2.275 -0.6618  0.3037 -0.1803
  895MOL0     C20738  11.144  11.685   2.172  0.2388 -0.1729  0.2651
  895MOL0     C20739  11.023  11.747   2.142 -0.0885 -0.0140 -0.9063
  895MOL0     N20740  10.225  11.951   1.795 -0.3101  0.4279 -0.3460
  895MOL0     N20741  10.153  11.878   1.721 -0.1571 -0.1296 -0.0012
  895MOL0     C20742   9.396  11.153   1.837  0.4054 -0.4910  0.3355
  895MOL0     C20743   9.261  11.127   1.839  0.2594  0.1059  0.2627
  895MOL0     C20744   8.844  11.034   1.670  0.2571 -0.3243 -0.6543
  895MOL0     C20745   8.792  11.008   1.802  0.1790  0.0714 -0.5482
  895MOL0     C20746   8.665  10.954   1.832  0.5505 -0.4982  0.0138
  895MOL0     C20747   8.581  10.924   1.730 -1.0380 -0.4388 -0.1143
  895MOL0     O20748   8.459  10.867   1.733  0.6036  0.7163  0.0743
  895MOL0     C20749   8.395  10.853   1.860  0.1034 -0.5073  0.3485
  895MOL0     C20750   8.242  10.839   1.841 -0.2007  0.6713  0.1230
  895MOL0     C20751   8.168  10.955   1.770 -0.5589 -0.2862 -0.4382
  895MOL0     C20752   8.053  10.901   1.689  0.1098  0.3861 -0.2997
  895MOL0     C20753   7.941  10.852   1.767 -0.0115 -0.4727  0.1625
  895MOL0     C20754   7.840  10.815   1.824  0.0108 -0.5876  0.2292
  895MOL0     C20755   8.624  10.951   1.594 -0.7123 -0.3987  0.1489
  895MOL0     C20756   8.752  10.994   1.565 -0.8363 -0.3571  1.1786
  895MOL0     C20757   8.795  11.019   1.420  0.1111  0.6216 -0.5823
  895MOL0     H20758   9.221  10.981   1.536  2.2075 -0.1671 -1.1208
  895MOL0     H20759   9.470  11.015   1.530  1.1782  1.4573 -0.1779
  895MOL0     H20760   9.689  11.002   1.590 -4.5648  0.4426 -0.1226
  895MOL0     H20761   9.664  11.167   1.528 -1.0492 -1.4614 -1.6286
  895MOL0     H20762   9.883  11.067   1.687 -0.0804  0.1279 -1.0778
  895MOL0     H20763   9.822  11.228   1.735  1.3069  2.4279 -2.0693
  895MOL0     H20764   9.852  11.304   1.505 -1.0246 -1.5184 -3.4740
  895MOL0     H20765   9.892  11.146   1.447 -1.3621  0.7028 -0.6752
  895MOL0     H20766  10.111  11.159   1.589  1.3224  1.8863  1.2288
  895MOL0     H20767  10.085  11.253   1.444  1.9080 -0.6806  0.0291
  895MOL0     H20768  10.012  11.445   1.591 -2.2265 -1.8967 -0.8494
  895MOL0     H20769  10.052  11.349   1.732  1.3346 -0.8207  0.1980
  895MOL0     H20770  10.298  11.326   1.660 -0.8132 -1.0897 -0.1101
  895MOL0     H20771  10.257  11.428   1.520  1.5880  1.4283  1.0978
  895MOL0     H20772  10.358  11.531   1.704  0.1012 -0.3814 -1.2149
  895MOL0     H20773  10.195  11.534   1.790 -0.0487 -0.5909  0.0361
  895MOL0     H20774  10.251  11.653   1.511 -2.2039  1.3030 -0.2267
  895MOL0     H20775  10.095  11.655   1.602 -0.5573  1.1390  0.7663
  895MOL0     H20776  10.455  11.738   1.715 -2.6069 -3.1451 -0.6859
  895MOL0     H20777  10.526  12.063   1.810 -1.3007  1.4116 -0.2965
  895MOL0     H20778  10.420  12.061   1.954 -0.6541  0.6926 -1.5529
  895MOL0     H20779  10.509  11.849   2.035 -0.6793 -1.3168 -1.0766
  895MOL0     H20780  10.591  11.842   1.878  1.4446 -0.7418  2.1469
  895MOL0     H20781  10.643  12.061   2.099  0.2387  1.7139 -1.6577
  895MOL0     H20782  10.723  12.053   1.950 -0.0539 -0.1358 -0.7709
  895MOL0     H20783  10.792  11.805   2.027  0.0775 -0.4059  1.4020
  895MOL0     H20784  10.733  11.864   2.186 -0.1366  2.4211  0.3257
  895MOL0     H20785  11.147  12.067   2.103 -0.3296 -0.4437  1.8202
  895MOL0     H20786  11.347  11.944   2.174 -0.2934  0.2312 -1.4649
  895MOL0     H20787  11.690  11.591   2.025  2.7424  0.3661 -1.6989
  895MOL0     H20788  11.905  11.548   2.105 -2.1284 -1.4787  0.0762
  895MOL0     H20789  12.103  11.561   2.203  0.9682  2.4909 -1.8692
  895MOL0     H20790  12.101  11.726   2.229 -0.4443 -1.0626 -2.9029
  895MOL0     H20791  12.314  11.672   2.313 -0.9699  0.7212 -1.3612
  895MOL0     H20792  12.214  11.691   2.460 -0.4870 -0.3311  0.1213
  895MOL0     H20793  12.184  11.467   2.489  1.1169 -1.4415  0.0709
  895MOL0     H20794  12.280  11.406   2.357 -1.4231  0.4287 -1.4341
  895MOL0     H20795  12.350  11.553   2.622 -0.7145  0.1907 -0.1368
  895MOL0     H20796  12.464  11.575   2.486 -1.7299  1.0385  0.3412
  895MOL0     H20797  12.496  11.340   2.451  0.2391 -1.7194  0.7514
  895MOL0     H20798  12.381  11.315   2.597  1.5160 -1.5124 -0.4574
  895MOL0     H20799  12.644  11.463   2.616 -0.9562  1.5085  2.4397
  895MOL0     H20800  12.542  11.413   2.743 -1.1438 -1.4036  1.3588
  895MOL0     H20801  12.666  11.201   2.562 -4.0365 -2.5850 -0.2537
  895MOL0     H20802  12.571  11.184   2.703 -1.0378  1.6545  1.8232
  895MOL0     H20803  12.744  11.308   2.838 -2.6015  2.1846 -2.8022
  895MOL0     H20804  12.815  11.157   2.767  0.3995  0.5053  1.0084
  895MOL0     H20805  11.809  11.747   2.467 -0.5938 -1.0101 -0.7545
  895MOL0     H20806  11.592  11.811   2.377 -3.3782 -2.2823 -1.5519
  895MOL0     H20807  11.146  11.578   2.190 -3.3567 -0.3704  0.1617
  895MOL0     H20808  10.936  11.683   2.147  1.0148 -1.4512  2.2809
  895MOL0     H20809   9.431  11.199   1.929  0.1140 -0.5327  0.4693
  895MOL0     H20810   9.191  11.146   1.920  1.0618  4.4697  0.1341
  895MOL0     H20811   8.856  11.036   1.885 -0.1925  0.2286 -0.3129
  895MOL0     H20812   8.645  10.953   1.939 -0.1978 -2.3323 -0.1093
  895MOL0     H20813   8.413  10.940   1.923  0.8834 -0.6982  0.4015
  895MOL0     H20814   8.427  10.762   1.910 -1.6441 -1.5788 -0.3846
  895MOL0     H20815   8.200  10.821   1.940  4.4691 -2.6693  1.8133
  895MOL0     H20816   8.216  10.753   1.778  0.0030  1.2678 -0.8038
  895MOL0     H20817   8.237  11.016   1.711  0.4972  1.1005  2.0742
  895MOL0     H20818   8.141  11.021   1.853  2.3573 -0.0722  0.4167
  895MOL0     H20819   8.024  10.976   1.615 -0.5139 -0.6346 -1.1352
  895MOL0     H20820   8.077  10.815   1.625 -0.5446 -0.0127 -0.0229
  895MOL0     H20821   7.766  10.796   1.899  2.3840  0.1690  2.9340
  895MOL0     H20822   8.557  10.943   1.510 -1.1797 -0.0282  0.4803
  895MOL0     H20823   8.788  11.124   1.392 -1.6312  0.5546 -0.5498
  895MOL0     H20824   8.890  10.974   1.392 -0.5355  0.9376 -3.7218
  895MOL0     H20825   8.724  10.962   1.359 -1.8018 -0.7027  2.6506
  896MOL0     O20826   3.704   5.952   0.531 -0.1686  0.0967 -0.1918
  896MOL0     C20827   3.609   5.967   0.610 -0.2233  0.3330 -0.4619
  896MOL0     O20828   3.616   5.933   0.735 -0.2017  0.3939 -0.7153
  896MOL0     C20829   3.730   5.883   0.800 -0.7250  0.4874  0.0604
  896MOL0     C20830   3.711   5.768   0.882 -1.1395  0.6759  0.2110
  896MOL0     C20831   3.817   5.710   0.945 -0.5694  0.1093  0.0614
  896MOL0     C20832   3.949   5.758   0.933 -0.1773 -0.8373  0.1552
  896MOL0     O20833   4.057   5.698   0.982 -0.4017  0.2189 -0.5883
  896MOL0     C20834   4.184   5.752   0.977 -0.6709  0.1810  0.5633
  896MOL0     C20835   4.290   5.653   1.019 -0.1260 -0.3572 -0.5239
  896MOL0     C20836   4.296   5.608   1.165  0.0999  0.2744 -0.1072
  896MOL0     C20837   4.407   5.505   1.192 -0.7758  0.2619  0.4054
  896MOL0     C20838   4.544   5.576   1.218  0.0090 -0.5566  0.6105
  896MOL0     C20839   4.661   5.473   1.236  0.4538 -0.5756 -0.6942
  896MOL0     C20840   4.795   5.536   1.187 -0.0727  0.4061  0.3489
  896MOL0     C20841   4.898   5.428   1.223 -0.4556 -0.6659  0.0653
  896MOL0     N20842   5.031   5.492   1.202  0.2749  0.0501  0.4940
  896MOL0     C20843   5.110   5.478   1.084  0.4083  0.5645  0.2985
  896MOL0     C20844   5.212   5.555   1.112 -0.0829 -0.0047 -0.4398
  896MOL0     C20845   5.339   5.579   1.032  0.3817  1.0624  0.4012
  896MOL0     C20846   5.452   5.494   1.087 -0.3427 -0.3226 -0.6022
  896MOL0     C20847   5.501   5.515   1.227 -0.0832 -0.9540  0.1641
  896MOL0     C20848   5.547   5.656   1.259 -0.9483 -0.6162 -0.1661
  896MOL0     O20849   5.661   5.692   1.180  0.3568  0.6005 -0.2782
  896MOL0     C20850   5.710   5.819   1.198  0.4581 -0.2189 -0.4521
  896MOL0     C20851   5.654   5.930   1.264 -0.5020  0.5571  0.1409
  896MOL0     C20852   5.724   6.049   1.283  0.2850 -0.2437 -0.2339
  896MOL0     C20853   5.847   6.071   1.229 -0.0348 -0.4231 -0.9119
  896MOL0     C20854   5.918   6.188   1.284  0.6065 -0.0215 -0.5723
  896MOL0     O20855   6.049   6.175   1.299 -0.2039  0.2841  0.4372
  896MOL0     C20856   6.119   6.270   1.374  0.5027 -0.1494  0.6394
  896MOL0     C20857   6.052   6.355   1.463 -0.7003 -0.1288 -0.7095
  896MOL0     C20858   6.135   6.449   1.528 -0.4008 -0.4305 -0.1967
  896MOL0     C20859   6.274   6.461   1.508 -0.4422  0.0565  0.0070
  896MOL0     O20860   6.347   6.556   1.586 -0.0864  0.6586  0.2528
  896MOL0     C20861   6.478   6.517   1.619 -0.0521  0.0096  0.7588
  896MOL0     C20862   6.546   6.608   1.721  0.4109  0.7847 -0.0881
  896MOL0     C20863   6.685   6.553   1.762 -0.0719 -0.3281 -1.2578
  896MOL0     C20864   6.748   6.646   1.863  0.0226  0.3444  0.0661
  896MOL0     C20865   6.891   6.613   1.903  0.5344 -0.7661 -0.2933
  896MOL0     C20866   6.993   6.617   1.781 -0.5507 -0.3704  0.0161
  896MOL0     C20867   7.030   6.763   1.740  0.5494 -0.0103 -0.6526
  896MOL0     C20868   7.116   6.775   1.620 -0.5777 -0.1131  0.6321
  896MOL0    Cl20869   7.269   6.682   1.632 -0.0975  0.0545  0.3802
  896MOL0     C20870   6.338   6.372   1.418 -0.6868  0.4201 -0.6368
  896MOL0     C20871   6.259   6.281   1.355  0.7515  0.2668 -0.0454
  896MOL0     O20872   5.855   6.289   1.285 -0.0735  0.9723  0.2077
  896MOL0     C20873   5.898   5.969   1.145 -0.0631  0.4837  0.4978
  896MOL0     C20874   5.827   5.846   1.132  0.2774  0.5626  0.8631
  896MOL0     N20875   5.194   5.618   1.241  0.2418  0.0927  0.7030
  896MOL0     N20876   5.087   5.581   1.292  0.5292  0.3455  0.0109
  896MOL0     C20877   3.965   5.882   0.861 -0.0974  0.5809 -0.0856
  896MOL0     C20878   3.860   5.947   0.792  1.1744  0.3937 -0.2260
  896MOL0     C20879   3.486   6.020   0.560 -0.0625  0.4883 -0.1686
  896MOL0     C20880   3.366   5.969   0.621 -0.1263  0.0438 -0.3675
  896MOL0     C20881   3.245   6.011   0.565  0.0921  0.8216  0.4709
  896MOL0     C20882   3.244   6.099   0.460  0.6261  0.1080 -0.1797
  896MOL0     O20883   3.132   6.130   0.389 -0.1334  0.0488 -0.0082
  896MOL0     C20884   3.009   6.056   0.418  0.4119  0.6550  0.7841
  896MOL0     C20885   2.905   6.100   0.318 -0.6454 -0.4664 -0.4412
  896MOL0     C20886   2.771   6.047   0.345  0.9769 -0.4044 -0.8017
  896MOL0     C20887   2.741   5.907   0.319 -0.0376  0.0661  0.9105
  896MOL0     C20888   2.605   5.873   0.357 -0.5152 -0.1464  0.4714
  896MOL0     C20889   2.490   5.845   0.383  0.5444  0.8540 -0.4595
  896MOL0     C20890   3.355   6.134   0.392  0.4575 -0.5304 -0.4732
  896MOL0     C20891   3.476   6.114   0.454 -0.3294  0.8125  0.4098
  896MOL0     C20892   3.609   6.169   0.388 -0.4366 -0.7466  0.0270
  896MOL0     H20893   3.613   5.724   0.893 -1.3903  0.6194 -1.9047
  896MOL0     H20894   3.797   5.618   1.000 -2.9145  1.7725  2.2801
  896MOL0     H20895   4.211   5.774   0.873  0.2007 -0.1397  0.7187
  896MOL0     H20896   4.182   5.835   1.048 -2.5484  0.2288  0.5181
  896MOL0     H20897   4.382   5.708   0.999 -0.0290  0.3785  1.7318
  896MOL0     H20898   4.279   5.570   0.948 -0.3604 -1.7932  1.1269
  896MOL0     H20899   4.197   5.566   1.182 -0.0776 -1.5452 -4.5160
  896MOL0     H20900   4.310   5.694   1.231 -2.2539 -0.1952  1.1192
  896MOL0     H20901   4.382   5.440   1.276  2.2448  4.1189  4.8302
  896MOL0     H20902   4.422   5.434   1.111  0.2737  0.4500  0.4180
  896MOL0     H20903   4.564   5.640   1.132 -0.7035  1.3454  1.7940
  896MOL0     H20904   4.526   5.640   1.305  0.5045  1.2692 -0.5723
  896MOL0     H20905   4.671   5.459   1.344 -1.3825  0.5494 -0.3399
  896MOL0     H20906   4.626   5.377   1.195 -3.3607  0.1673  0.3883
  896MOL0     H20907   4.832   5.625   1.240  0.7375  0.2959 -0.0075
  896MOL0     H20908   4.789   5.560   1.080 -1.4369 -1.1387  0.0434
  896MOL0     H20909   4.888   5.413   1.331 -0.1650 -1.4858 -0.0109
  896MOL0     H20910   4.892   5.331   1.173 -2.1427 -0.1456 -0.7989
  896MOL0     H20911   5.090   5.410   1.002  0.9748 -0.2441  0.8269
  896MOL0     H20912   5.312   5.545   0.932 -1.8346 -2.6004  2.0350
  896MOL0     H20913   5.370   5.684   1.025 -0.5542  1.4411  1.6290
  896MOL0     H20914   5.428   5.388   1.079  2.4447 -0.9971 -0.7032
  896MOL0     H20915   5.537   5.500   1.019  1.6870 -2.3674  1.6108
  896MOL0     H20916   5.584   5.444   1.236  0.8377  0.1132  0.2982
  896MOL0     H20917   5.428   5.488   1.304  1.2927 -1.5033  1.3110
  896MOL0     H20918   5.576   5.667   1.364 -1.6111 -0.4292 -0.0028
  896MOL0     H20919   5.470   5.730   1.235  0.5547  1.0823  0.0145
  896MOL0     H20920   5.556   5.912   1.307  0.0734 -0.4518  1.0679
  896MOL0     H20921   5.693   6.131   1.346  0.0054 -0.0800 -0.5805
  896MOL0     H20922   5.949   6.340   1.494 -0.7609 -1.3586 -1.4320
  896MOL0     H20923   6.088   6.521   1.594 -0.6147  1.1506 -1.9871
  896MOL0     H20924   6.491   6.415   1.655  2.1263  0.7946  2.3684
  896MOL0     H20925   6.538   6.541   1.531  1.5912  1.1829  2.1349
  896MOL0     H20926   6.556   6.711   1.688  1.8482  0.7774  0.2686
  896MOL0     H20927   6.479   6.605   1.808 -0.4548 -0.1054 -0.7549
  896MOL0     H20928   6.664   6.453   1.801 -0.3351  1.0621  2.6332
  896MOL0     H20929   6.740   6.540   1.668  2.7598 -0.0304  0.2424
  896MOL0     H20930   6.701   6.643   1.961  3.4841 -0.7207  1.8473
  896MOL0     H20931   6.752   6.741   1.808  0.1378  1.1774  1.4647
  896MOL0     H20932   6.892   6.507   1.933 -1.1524 -1.2933 -1.9059
  896MOL0     H20933   6.921   6.672   1.990 -3.7486 -1.6546  2.1121
  896MOL0     H20934   7.081   6.554   1.798  0.4419  1.0629  0.4002
  896MOL0     H20935   6.937   6.571   1.699 -2.5108  0.3382  0.8955
  896MOL0     H20936   7.082   6.804   1.827  0.7359 -2.0860  0.2801
  896MOL0     H20937   6.932   6.808   1.723 -0.8393 -3.3682 -2.4147
  896MOL0     H20938   7.052   6.746   1.536 -0.5709  2.7454 -0.4722
  896MOL0     H20939   7.140   6.879   1.600 -2.1117  0.1010 -0.1870
  896MOL0     H20940   6.445   6.375   1.404 -0.0234  0.3262  3.1794
  896MOL0     H20941   6.305   6.204   1.295  0.3932  0.0930 -0.1006
  896MOL0     H20942   5.991   5.980   1.090  0.5565 -1.6689  1.0286
  896MOL0     H20943   5.868   5.771   1.065  1.2862  1.9903 -0.1731
  896MOL0     H20944   4.054   5.942   0.847 -1.0218  1.2904 -4.5374
  896MOL0     H20945   3.878   6.036   0.733  1.7219  0.2741 -0.2519
  896MOL0     H20946   3.369   5.889   0.695 -1.3681 -0.7486 -1.1405
  896MOL0     H20947   3.158   5.975   0.618  1.2267 -0.3925  1.6112
  896MOL0     H20948   2.960   6.082   0.513 -1.2404 -0.4424  0.2718
  896MOL0     H20949   3.025   5.948   0.421  2.9877  0.9308 -0.3989
  896MOL0     H20950   2.941   6.063   0.221 -0.0297 -0.0249 -0.3824
  896MOL0     H20951   2.907   6.208   0.305 -0.0203 -0.5676 -1.2703
  896MOL0     H20952   2.700   6.103   0.285 -0.3054  0.1938  1.1704
  896MOL0     H20953   2.758   6.062   0.453  2.2405 -1.0340 -0.5401
  896MOL0     H20954   2.753   5.892   0.211 -0.5749 -0.8241  0.9695
  896MOL0     H20955   2.814   5.847   0.374 -0.8267 -1.5160  0.2841
  896MOL0     H20956   2.387   5.820   0.400 -0.5118  2.4493 -3.7628
  896MOL0     H20957   3.353   6.186   0.296  0.3103 -0.0580 -0.2207
  896MOL0     H20958   3.693   6.184   0.457  1.0723 -0.7867 -1.7398
  896MOL0     H20959   3.633   6.102   0.306 -0.4938 -0.5489 -0.1521
  896MOL0     H20960   3.593   6.267   0.341  1.2519 -0.5175 -0.1297
  897MOL0     O20961   7.961   0.472   3.822 -0.1865  0.4362 -0.3666
  897MOL0     C20962   7.977   0.399   3.919 -0.9285 -0.4676 -0.2035
  897MOL0     O20963   8.088   0.390   3.993 -0.6920  0.0509  0.4399
  897MOL0     C20964   8.198   0.435   3.921 -0.4300 -0.6310 -0.4588
  897MOL0     C20965   8.245   0.360   3.810  0.8412  0.6348 -0.4452
  897MOL0     C20966   8.356   0.401   3.734 -0.0254  0.8525 -0.4449
  897MOL0     C20967   8.428   0.518   3.770 -0.0347  0.2682 -0.4244
  897MOL0     O20968   8.543   0.563   3.704 -0.3157 -0.0915 -0.9643
  897MOL0     C20969   8.574   0.518   3.574 -0.3066  0.3922  0.0622
  897MOL0     C20970   8.690   0.592   3.520 -0.0280 -0.7069 -0.1614
  897MOL0     C20971   8.727   0.538   3.382 -0.3982 -0.1298 -0.2158
  897MOL0     C20972   8.614   0.542   3.275 -0.4971 -0.0196  0.2348
  897MOL0     C20973   8.658   0.518   3.128 -0.1237 -0.5296  0.7971
  897MOL0     C20974   8.550   0.486   3.028  0.1243  0.9050 -0.4132
  897MOL0     C20975   8.597   0.521   2.886  0.3937  0.5355 -0.1025
  897MOL0     C20976   8.535   0.429   2.788  0.0157 -0.1413  0.2914
  897MOL0     N20977   8.618   0.308   2.766 -0.3005  0.1959  0.0213
  897MOL0     C20978   8.722   0.315   2.676  0.1728  0.0499  0.1982
  897MOL0     C20979   8.784   0.197   2.685 -0.2643  1.0033  0.7966
  897MOL0     C20980   8.880   0.123   2.593 -0.0972 -0.0327  0.3047
  897MOL0     C20981   9.014   0.103   2.664  0.4106  1.0094 -0.6108
  897MOL0     C20982   9.094   0.022   2.566  0.7521  0.1530  1.1767
  897MOL0     C20983   9.241   0.002   2.622  0.0559  0.6946  0.1080
  897MOL0     O20984   9.285   0.118   2.685 -0.7076 -0.1826 -0.5975
  897MOL0     C20985   9.416   0.134   2.720  0.3719 -0.4476 -0.3008
  897MOL0     C20986   9.518   0.039   2.702 -0.6600 -0.6736 -0.0741
  897MOL0     C20987   9.644   0.063   2.767  0.1016  0.3226 -0.0874
  897MOL0     C20988   9.667   0.164   2.854 -0.1691  0.3608 -0.4981
  897MOL0     C20989   9.789   0.175   2.927 -0.8006  0.7681 -0.3541
  897MOL0     O20990   9.889   0.094   2.887 -0.3009 -0.2361  0.3138
  897MOL0     C20991  10.015   0.112   2.939 -0.1045 -0.6880  0.4368
  897MOL0     C20992  10.124   0.141   2.850 -0.1867  0.1428 -0.1812
  897MOL0     C20993  10.248   0.172   2.898 -0.3203 -0.5722  0.4046
  897MOL0     C20994  10.284   0.163   3.028 -1.0399  0.2292 -0.4109
  897MOL0     O20995  10.416   0.198   3.066  0.2423 -0.2032 -0.5736
  897MOL0     C20996  10.481   0.093   3.137  0.3190  0.0764  0.2582
  897MOL0     C20997  10.632   0.095   3.138 -0.2250  0.6744 -0.0014
  897MOL0     C20998  10.681   0.090   2.993 -0.4470  0.4968  0.0121
  897MOL0     C20999  10.836   0.082   2.998  0.6509 -0.2392  0.4714
  897MOL0     C21000  10.885   0.053   2.857  0.0760 -0.3282  1.5977
  897MOL0     C21001  11.025   0.111   2.836 -0.2923  0.0456 -0.4945
  897MOL0     C21002  11.064   0.114   2.691  0.0068 -0.2087  0.9712
  897MOL0     C21003  11.096  -0.013   2.609 -0.3266 -0.5300  0.7125
  897MOL0    Cl21004  11.245  -0.087   2.685  0.0602 -0.1983 -0.2424
  897MOL0     C21005  10.189   0.119   3.115 -0.0760  0.6852 -0.2800
  897MOL0     C21006  10.055   0.091   3.077 -0.0211 -0.4969 -0.0557
  897MOL0     O21007   9.795   0.254   3.022  0.3352  0.4373 -0.4647
  897MOL0     C21008   9.555   0.248   2.882  1.2830 -0.5914 -0.0674
  897MOL0     C21009   9.438   0.236   2.807  0.5392  0.0987 -0.1014
  897MOL0     N21010   8.702   0.117   2.764  0.5146  1.0347 -0.1922
  897MOL0     N21011   8.600   0.182   2.814  0.2857  0.7171 -0.3389
  897MOL0     C21012   8.380   0.595   3.877 -0.8617 -0.1746  0.5278
  897MOL0     C21013   8.263   0.559   3.945  0.1004  0.5256  0.2630
  897MOL0     C21014   7.855   0.330   3.963  0.6216  0.3360  0.1424
  897MOL0     C21015   7.834   0.305   4.101  0.7234 -0.1604  0.8357
  897MOL0     C21016   7.724   0.235   4.150 -0.3808 -0.2935  0.1048
  897MOL0     C21017   7.617   0.190   4.076 -0.9617  0.3217  0.8870
  897MOL0     O21018   7.525   0.101   4.116  0.6207 -0.2628 -0.9057
  897MOL0     C21019   7.483   0.087   4.260 -0.3803 -0.6776 -0.2096
  897MOL0     C21020   7.364  -0.008   4.277  0.5647 -0.2155  0.5015
  897MOL0     C21021   7.244   0.060   4.210 -0.4980 -0.2347  0.1258
  897MOL0     C21022   7.129  -0.040   4.205  0.3406 -0.1041 -0.7482
  897MOL0     C21023   6.997   0.020   4.183  0.3087 -0.1538  0.6418
  897MOL0     C21024   6.883   0.068   4.186  0.0030 -0.0599 -0.1639
  897MOL0     C21025   7.623   0.224   3.941  0.9554  0.4590 -0.4616
  897MOL0     C21026   7.741   0.290   3.880 -0.1838  0.6714 -0.6975
  897MOL0     C21027   7.736   0.303   3.733 -0.7266 -0.3974  0.3134
  897MOL0     H21028   8.184   0.279   3.773  1.8797  0.4375 -1.8135
  897MOL0     H21029   8.391   0.342   3.651 -1.9364  0.3016 -0.9159
  897MOL0     H21030   8.595   0.410   3.574  1.1843  0.6417  1.5034
  897MOL0     H21031   8.487   0.538   3.512 -1.6074  0.3458  1.8059
  897MOL0     H21032   8.771   0.581   3.593 -0.7372  0.5280  0.8496
  897MOL0     H21033   8.663   0.698   3.510  1.4583 -0.3725 -1.0021
  897MOL0     H21034   8.772   0.438   3.381  0.4205  0.2407 -1.6892
  897MOL0     H21035   8.815   0.598   3.357 -1.4772  0.8106 -1.9369
  897MOL0     H21036   8.546   0.460   3.299 -0.4440 -0.4393 -0.9750
  897MOL0     H21037   8.561   0.637   3.280  1.3057  1.0286  0.3521
  897MOL0     H21038   8.708   0.608   3.089 -0.1527 -0.9737 -0.2973
  897MOL0     H21039   8.738   0.444   3.137  0.5416  0.3457  2.4513
  897MOL0     H21040   8.534   0.378   3.032 -1.3975  1.0276 -1.9613
  897MOL0     H21041   8.466   0.548   3.062  0.2353  1.1973 -0.6659
  897MOL0     H21042   8.706   0.512   2.885  0.2313 -2.9553 -0.4532
  897MOL0     H21043   8.564   0.621   2.859  2.5663  0.8543 -1.9570
  897MOL0     H21044   8.435   0.398   2.821  0.1157 -0.1302  0.6125
  897MOL0     H21045   8.513   0.481   2.695  1.6018  0.5765  0.3015
  897MOL0     H21046   8.748   0.402   2.616  2.1268  2.1562  3.7821
  897MOL0     H21047   8.827   0.034   2.558  0.2334 -0.0976 -0.0465
  897MOL0     H21048   8.916   0.175   2.503  2.0119 -1.1032  0.4637
  897MOL0     H21049   9.056   0.202   2.681 -0.8785  1.7133 -1.3679
  897MOL0     H21050   9.009   0.059   2.765  0.4460  0.6605 -0.7585
  897MOL0     H21051   9.097   0.066   2.466  0.6845 -0.9317  0.6717
  897MOL0     H21052   9.039  -0.072   2.556 -1.1642  1.4235 -1.1981
  897MOL0     H21053   9.312  -0.025   2.543 -0.2362  1.1296 -0.3097
  897MOL0     H21054   9.245  -0.083   2.691 -2.5981  0.1137 -0.3256
  897MOL0     H21055   9.497  -0.051   2.646 -4.3470 -0.3116  0.4791
  897MOL0     H21056   9.716  -0.016   2.746  0.3462  0.2846  0.8797
  897MOL0     H21057  10.115   0.139   2.742 -0.8487 -3.3616 -0.1792
  897MOL0     H21058  10.318   0.202   2.822 -1.2360  1.4695  0.3087
  897MOL0     H21059  10.439   0.089   3.238  0.9272 -0.6125  0.4887
  897MOL0     H21060  10.449  -0.003   3.096 -2.5493  1.1156 -0.2083
  897MOL0     H21061  10.679   0.184   3.181  0.5906 -0.8855  2.5449
  897MOL0     H21062  10.671   0.005   3.188  2.0745  0.8719 -1.2597
  897MOL0     H21063  10.636  -0.001   2.953 -0.6871  0.7193 -0.2212
  897MOL0     H21064  10.653   0.178   2.935  0.3196  0.5367 -0.3067
  897MOL0     H21065  10.865  -0.002   3.062  2.0271  0.4914  0.8424
  897MOL0     H21066  10.884   0.174   3.031 -0.4545 -0.1566  1.9156
  897MOL0     H21067  10.815   0.100   2.787  0.6240 -1.5496  0.1924
  897MOL0     H21068  10.891  -0.052   2.829 -0.8137  0.2251 -0.9158
  897MOL0     H21069  11.019   0.217   2.862  1.0360  0.2750 -1.0560
  897MOL0     H21070  11.102   0.066   2.898  1.3496  1.1770 -1.6357
  897MOL0     H21071  11.159   0.167   2.685  1.5443 -2.8215  0.2863
  897MOL0     H21072  10.994   0.180   2.639  2.0955  1.3223 -0.0207
  897MOL0     H21073  11.007  -0.077   2.608 -0.3390 -0.5704 -1.3343
  897MOL0     H21074  11.115   0.010   2.503 -3.4866 -1.1516 -0.1020
  897MOL0     H21075  10.218   0.108   3.219  0.4728 -1.2634 -0.5901
  897MOL0     H21076   9.987   0.057   3.154 -0.0660 -0.7405 -0.2017
  897MOL0     H21077   9.570   0.332   2.950  0.9857 -0.8574  0.3291
  897MOL0     H21078   9.359   0.308   2.826  0.2154 -0.0603 -0.8228
  897MOL0     H21079   8.420   0.694   3.894 -4.3385  1.8602 -1.7662
  897MOL0     H21080   8.234   0.630   4.022  0.5907  0.8324  0.1720
  897MOL0     H21081   7.908   0.338   4.172  2.8223 -0.1422 -1.2285
  897MOL0     H21082   7.717   0.209   4.256 -1.6495  1.6610  0.5446
  897MOL0     H21083   7.461   0.184   4.304  1.7691 -0.5048  0.5988
  897MOL0     H21084   7.568   0.036   4.307  0.5686  1.9532  1.1428
  897MOL0     H21085   7.353  -0.031   4.384  1.7285 -1.8555  0.3080
  897MOL0     H21086   7.385  -0.104   4.228  0.1651  0.8277 -1.8083
  897MOL0     H21087   7.273   0.086   4.108 -0.5582 -1.0416 -0.1049
  897MOL0     H21088   7.214   0.152   4.262  0.1085  0.9982 -1.5929
  897MOL0     H21089   7.147  -0.111   4.124  1.3365  1.0799 -1.5972
  897MOL0     H21090   7.133  -0.093   4.302 -0.5852  1.8100  0.3860
  897MOL0     H21091   6.792   0.125   4.177  1.1920  1.6065 -2.8257
  897MOL0     H21092   7.544   0.199   3.871 -0.6011  3.2454  0.1565
  897MOL0     H21093   7.770   0.399   3.693 -0.5750 -0.6338 -0.1387
  897MOL0     H21094   7.788   0.217   3.689 -2.5594 -0.8126 -1.1723
  897MOL0     H21095   7.633   0.301   3.696 -0.8901  0.5820  0.6962
  898MOL0     O21096   6.070   3.918   1.615  0.6608  0.2051 -0.5704
  898MOL0     C21097   6.011   3.924   1.510  0.1918  0.9293  0.0441
  898MOL0     O21098   6.061   3.976   1.390  0.1527  0.0800 -0.0001
  898MOL0     C21099   6.188   4.033   1.376 -1.3460  0.4023 -0.6182
  898MOL0     C21100   6.302   3.978   1.438 -0.0995  0.8054  0.9464
  898MOL0     C21101   6.428   4.032   1.424 -0.6490 -0.8279  0.0761
  898MOL0     C21102   6.450   4.146   1.342  0.9792  0.4212 -0.8057
  898MOL0     O21103   6.579   4.185   1.332 -0.5964 -0.6805 -0.4205
  898MOL0     C21104   6.604   4.326   1.335 -0.2063 -0.3675 -0.2346
  898MOL0     C21105   6.746   4.335   1.276  1.0038  0.4020 -0.0197
  898MOL0     C21106   6.807   4.475   1.298 -0.4780  0.0496 -0.1713
  898MOL0     C21107   6.936   4.481   1.208 -0.8971 -0.1956 -0.0111
  898MOL0     C21108   7.003   4.611   1.235  0.3993  0.8185 -0.0437
  898MOL0     C21109   7.145   4.632   1.184  0.5200  0.4378  0.3514
  898MOL0     C21110   7.186   4.778   1.210 -0.4232  0.0610  1.0028
  898MOL0     C21111   7.305   4.819   1.124  0.5817 -0.2921  1.8544
  898MOL0     N21112   7.358   4.954   1.158 -0.2003  0.2555  0.5736
  898MOL0     C21113   7.487   4.977   1.202  0.2415 -1.2023 -0.4893
  898MOL0     C21114   7.488   5.114   1.210  0.0140  0.6377 -0.2401
  898MOL0     C21115   7.593   5.189   1.283 -0.7855 -0.7791 -0.5362
  898MOL0     C21116   7.657   5.301   1.201  0.8017  0.7335 -0.7802
  898MOL0     C21117   7.764   5.375   1.290  0.2358  1.1660 -0.3025
  898MOL0     C21118   7.831   5.480   1.205 -0.7539  0.1105  0.2665
  898MOL0     O21119   7.885   5.428   1.086  0.4354  0.5264 -0.0270
  898MOL0     C21120   7.996   5.339   1.090  0.1918  0.1372  0.4693
  898MOL0     C21121   8.082   5.323   1.196  0.0504  0.1209 -0.4105
  898MOL0     C21122   8.188   5.246   1.189 -0.2712  0.4004  0.7594
  898MOL0     C21123   8.236   5.191   1.060  0.6666 -0.9421 -0.3353
  898MOL0     C21124   8.371   5.126   1.053 -0.9667  0.3281 -0.8315
  898MOL0     O21125   8.448   5.099   1.163  0.1276  0.2384  0.2012
  898MOL0     C21126   8.556   5.013   1.140  0.9742 -0.1496  0.4602
  898MOL0     C21127   8.538   4.881   1.091  0.0839 -0.1036 -0.2971
  898MOL0     C21128   8.648   4.793   1.076 -0.3457 -0.4303  0.0537
  898MOL0     C21129   8.778   4.825   1.112 -0.1031  0.0784  0.3697
  898MOL0     O21130   8.876   4.736   1.092 -0.2973  0.3242  0.1406
  898MOL0     C21131   9.015   4.779   1.121 -0.4202  0.2279  0.2147
  898MOL0     C21132   9.109   4.670   1.061 -0.1858 -0.5987 -0.0404
  898MOL0     C21133   9.249   4.686   1.131 -0.4651 -0.8633 -1.2203
  898MOL0     C21134   9.337   4.574   1.078 -0.1155 -0.2049  0.5909
  898MOL0     C21135   9.479   4.578   1.122  0.4829  0.3256 -0.0485
  898MOL0     C21136   9.562   4.486   1.024 -0.1096 -0.7809 -0.5710
  898MOL0     C21137   9.685   4.434   1.094 -0.6666  0.0470  0.2746
  898MOL0     C21138   9.762   4.330   1.014  0.0980  0.5165 -0.5695
  898MOL0    Cl21139   9.766   4.383   0.848 -0.0984 -0.1060 -0.4358
  898MOL0     C21140   8.793   4.951   1.169 -0.5472  0.0116 -1.6284
  898MOL0     C21141   8.688   5.042   1.184 -0.3428  0.1980  0.1140
  898MOL0     O21142   8.399   5.092   0.940 -0.6600 -0.1420  0.3232
  898MOL0     C21143   8.160   5.216   0.952 -0.0688 -0.2187  0.3590
  898MOL0     C21144   8.032   5.280   0.965  0.1405  0.0688  0.2058
  898MOL0     N21145   7.369   5.173   1.162  0.1571  0.2201  0.4987
  898MOL0     N21146   7.295   5.067   1.138 -0.0976 -0.0205 -0.0923
  898MOL0     C21147   6.337   4.203   1.285  0.1832 -1.1243  0.4635
  898MOL0     C21148   6.200   4.150   1.304 -0.6228 -0.6995 -0.2406
  898MOL0     C21149   5.866   3.869   1.511 -0.1173  0.7124 -0.4904
  898MOL0     C21150   5.798   3.872   1.391 -0.1829 -0.4169  0.8180
  898MOL0     C21151   5.669   3.822   1.379  0.0954 -0.2666  0.0426
  898MOL0     C21152   5.604   3.770   1.490 -0.7940  0.4665 -0.5365
  898MOL0     O21153   5.477   3.730   1.469  0.1332  0.0662 -0.7577
  898MOL0     C21154   5.390   3.682   1.581  0.6735 -0.7169 -0.0224
  898MOL0     C21155   5.267   3.611   1.526 -1.0447  0.4069 -0.2454
  898MOL0     C21156   5.178   3.566   1.638  0.8081 -0.5369 -0.1509
  898MOL0     C21157   5.046   3.498   1.605  0.2002  0.6705 -0.6801
  898MOL0     C21158   5.065   3.371   1.535 -1.1102  0.7472  0.1431
  898MOL0     C21159   5.081   3.254   1.488  0.2326 -0.1424 -0.2176
  898MOL0     C21160   5.668   3.757   1.609  0.0649 -0.6449 -0.6344
  898MOL0     C21161   5.798   3.807   1.625 -0.0268  0.0696  0.6392
  898MOL0     C21162   5.868   3.776   1.755  0.1254 -0.8940  0.2780
  898MOL0     H21163   6.312   3.881   1.485  3.3906  0.1374 -0.8195
  898MOL0     H21164   6.497   3.977   1.487 -2.0680  0.3243  2.7886
  898MOL0     H21165   6.542   4.392   1.275  0.5170 -0.6134 -1.2712
  898MOL0     H21166   6.610   4.360   1.439  2.0943  0.3197 -0.5447
  898MOL0     H21167   6.740   4.310   1.170 -4.3823 -1.7441  0.5138
  898MOL0     H21168   6.813   4.261   1.322 -0.5075 -0.9087  0.1504
  898MOL0     H21169   6.834   4.495   1.402  1.9483 -1.6732 -0.3904
  898MOL0     H21170   6.738   4.556   1.271  2.1047  1.7091 -2.2165
  898MOL0     H21171   7.004   4.401   1.237  1.7622  1.9973  0.2400
  898MOL0     H21172   6.901   4.477   1.105 -0.8815 -0.7526  0.0030
  898MOL0     H21173   6.940   4.691   1.192  0.1980  0.9839  0.5472
  898MOL0     H21174   7.006   4.630   1.343 -0.5432  0.5889  0.0352
  898MOL0     H21175   7.210   4.564   1.240 -0.1667 -2.1811 -1.8081
  898MOL0     H21176   7.152   4.609   1.077 -0.7292  1.0695  0.1193
  898MOL0     H21177   7.195   4.791   1.318 -0.7669 -2.7526  1.4491
  898MOL0     H21178   7.101   4.836   1.171 -1.7309 -0.6953  2.6026
  898MOL0     H21179   7.384   4.745   1.132 -0.3831 -1.9634 -1.8867
  898MOL0     H21180   7.277   4.811   1.019  1.3130  0.9970  1.5399
  898MOL0     H21181   7.555   4.909   1.253 -0.1014  1.5757  4.2449
  898MOL0     H21182   7.554   5.230   1.377  1.6441  0.9664 -0.1911
  898MOL0     H21183   7.674   5.121   1.311  1.5927  2.6012  1.4785
  898MOL0     H21184   7.702   5.257   1.112  1.5756  2.4228 -1.2531
  898MOL0     H21185   7.581   5.372   1.166  0.9225  0.4820 -1.5869
  898MOL0     H21186   7.835   5.298   1.319 -1.3089  0.4086  1.7797
  898MOL0     H21187   7.723   5.435   1.372  4.5900  1.1387  2.2107
  898MOL0     H21188   7.914   5.535   1.251 -0.4170  1.3244 -1.6768
  898MOL0     H21189   7.757   5.554   1.174  0.0752 -0.4800 -3.6679
  898MOL0     H21190   8.079   5.372   1.292 -1.0005 -0.7557  0.0345
  898MOL0     H21191   8.255   5.238   1.274 -1.4064  0.7344  1.7144
  898MOL0     H21192   8.438   4.849   1.063 -1.3414  3.6988 -0.0799
  898MOL0     H21193   8.634   4.696   1.029  0.3310 -2.0248  2.8885
  898MOL0     H21194   9.034   4.876   1.074 -2.1833  0.0059 -1.0567
  898MOL0     H21195   9.038   4.782   1.228  3.6148  1.1032 -0.4884
  898MOL0     H21196   9.075   4.569   1.087  1.7531 -1.4837 -0.7867
  898MOL0     H21197   9.108   4.683   0.953  1.6197 -0.1412 -0.0264
  898MOL0     H21198   9.300   4.780   1.111  1.2358 -1.0245  1.8238
  898MOL0     H21199   9.235   4.676   1.239 -1.0774  0.4532 -1.1611
  898MOL0     H21200   9.338   4.572   0.969 -1.8428 -1.9520  0.5548
  898MOL0     H21201   9.294   4.483   1.122 -3.7185  0.8985 -0.3352
  898MOL0     H21202   9.498   4.547   1.226  3.2904 -1.3328 -0.9270
  898MOL0     H21203   9.517   4.677   1.099  0.3624  0.0364 -1.5513
  898MOL0     H21204   9.491   4.408   0.996 -1.6615 -0.0000  0.9549
  898MOL0     H21205   9.585   4.539   0.931  0.7333  0.0989  0.1189
  898MOL0     H21206   9.642   4.386   1.183 -0.9258 -0.7722 -0.2867
  898MOL0     H21207   9.755   4.514   1.119 -1.7645  1.3910 -0.7561
  898MOL0     H21208   9.864   4.311   1.049  0.3754  2.0217 -0.4981
  898MOL0     H21209   9.717   4.230   1.023 -0.6502  0.9949  1.7408
  898MOL0     H21210   8.888   4.991   1.204 -0.2787 -1.1413 -0.9850
  898MOL0     H21211   8.706   5.135   1.236 -0.5122 -1.0674  2.5827
  898MOL0     H21212   8.190   5.172   0.857 -3.5817 -3.1598  0.3960
  898MOL0     H21213   7.969   5.307   0.881 -0.8867 -2.7462 -0.0338
  898MOL0     H21214   6.359   4.286   1.219  0.6287 -0.8519  0.9407
  898MOL0     H21215   6.118   4.190   1.244 -1.5346  1.2861  2.1858
  898MOL0     H21216   5.850   3.911   1.305  3.2213  0.8151  3.2084
  898MOL0     H21217   5.615   3.820   1.285  0.4540  1.1160 -0.2174
  898MOL0     H21218   5.361   3.767   1.644 -0.5632 -0.9239 -0.3045
  898MOL0     H21219   5.446   3.610   1.642 -0.4238 -3.0210 -1.5653
  898MOL0     H21220   5.292   3.521   1.469 -2.1827  0.0865 -0.2442
  898MOL0     H21221   5.221   3.679   1.453 -1.1014  0.5782 -0.0507
  898MOL0     H21222   5.153   3.656   1.695 -0.0085 -1.4541  0.9775
  898MOL0     H21223   5.234   3.512   1.715  0.6572  0.0147  0.3563
  898MOL0     H21224   4.996   3.479   1.700 -0.3994  0.3816 -1.0491
  898MOL0     H21225   4.987   3.574   1.552 -3.6699 -1.8574 -0.3870
  898MOL0     H21226   5.106   3.161   1.442 -1.8707 -1.3102  0.8311
  898MOL0     H21227   5.619   3.709   1.693 -0.2036  1.6415  0.5818
  898MOL0     H21228   5.916   3.678   1.747  2.2175 -0.0103  1.0786
  898MOL0     H21229   5.945   3.851   1.776  2.1878 -2.3633 -1.6193
  898MOL0     H21230   5.803   3.773   1.843 -4.2444 -2.2758 -2.6710
  899MOL0     O21231   2.589   0.268   7.148  0.2349  0.1146  0.6593
  899MOL0     C21232   2.504   0.208   7.075 -1.1299 -0.9018  0.7313
  899MOL0     O21233   2.535   0.125   6.974 -0.0236 -0.7323 -0.1694
  899MOL0     C21234   2.663   0.108   6.940  0.1966  0.3072 -0.3004
  899MOL0     C21235   2.740   0.038   7.025 -0.1775 -0.1542  0.3017
  899MOL0     C21236   2.877   0.016   6.986  0.4550 -0.1192  0.0092
  899MOL0     C21237   2.923   0.061   6.864  0.4164 -0.4575 -0.7484
  899MOL0     O21238   3.055   0.042   6.816 -0.4930 -0.0909  0.2299
  899MOL0     C21239   3.141  -0.046   6.892 -0.9069 -0.4578 -0.3204
  899MOL0     C21240   3.265  -0.050   6.813 -0.6035  0.3794  0.6139
  899MOL0     C21241   3.344   0.081   6.800 -0.1049 -0.1411  0.4420
  899MOL0     C21242   3.448   0.061   6.692  0.5499 -0.1627 -0.6546
  899MOL0     C21243   3.579   0.012   6.758  0.5800 -0.0097  0.2702
  899MOL0     C21244   3.676  -0.057   6.654 -0.2116  0.3709  0.2984
  899MOL0     C21245   3.702   0.018   6.525  0.0567  0.3342  0.4322
  899MOL0     C21246   3.771   0.163   6.537  0.3675  0.7600  0.0277
  899MOL0     N21247   3.893   0.158   6.607 -0.4480  0.2761 -0.7089
  899MOL0     C21248   4.005   0.084   6.565 -0.8806  0.5186  0.3444
  899MOL0     C21249   4.107   0.102   6.650 -0.1354 -0.5814 -0.4399
  899MOL0     C21250   4.238   0.026   6.639  0.1872  0.2986 -0.4518
  899MOL0     C21251   4.241  -0.050   6.771  0.0058 -0.3190  1.2247
  899MOL0     C21252   4.350  -0.154   6.775 -0.3367  0.3787 -0.1397
  899MOL0     C21253   4.489  -0.099   6.750  0.6581  1.0765  0.0860
  899MOL0     O21254   4.586  -0.202   6.749 -0.7068  0.3496 -0.5854
  899MOL0     C21255   4.713  -0.174   6.800  0.2166  0.4362 -0.3655
  899MOL0     C21256   4.762  -0.045   6.839  0.4781 -0.7058  0.0629
  899MOL0     C21257   4.894  -0.034   6.881 -0.7545 -0.0484 -0.2347
  899MOL0     C21258   4.978  -0.145   6.902  0.7373 -0.0363  0.3143
  899MOL0     C21259   5.111  -0.126   6.957 -0.7063  0.6884  0.1238
  899MOL0     O21260   5.141  -0.004   7.001  0.1320 -0.2257 -0.3139
  899MOL0     C21261   5.258   0.032   7.064  0.0380 -0.0022  0.2956
  899MOL0     C21262   5.245   0.062   7.198 -0.0679 -0.0887 -0.0470
  899MOL0     C21263   5.344   0.124   7.267 -0.0973 -0.5925 -0.1493
  899MOL0     C21264   5.467   0.162   7.208 -0.3917  0.9267  0.4472
  899MOL0     O21265   5.559   0.231   7.286  0.1694 -0.4132 -0.4168
  899MOL0     C21266   5.695   0.237   7.245 -0.2878 -0.3085 -0.6948
  899MOL0     C21267   5.757   0.344   7.336 -0.2412 -0.5048  0.2841
  899MOL0     C21268   5.907   0.350   7.304  0.0783  0.5345 -0.2370
  899MOL0     C21269   6.006   0.400   7.403  0.1319  0.5789 -0.2691
  899MOL0     C21270   6.153   0.380   7.366  0.3327  0.6980 -0.0296
  899MOL0     C21271   6.241   0.440   7.475 -0.4920 -0.8871 -0.2525
  899MOL0     C21272   6.385   0.428   7.432  0.3672  0.2612  0.2221
  899MOL0     C21273   6.476   0.524   7.519  0.2867 -1.0289  1.3079
  899MOL0    Cl21274   6.641   0.507   7.452 -0.0273  0.3366  0.3505
  899MOL0     C21275   5.482   0.132   7.065 -0.0459 -0.8729 -0.4598
  899MOL0     C21276   5.377   0.062   6.998  0.3007  0.1148  0.2031
  899MOL0     O21277   5.187  -0.226   6.955  0.6390 -0.5602 -0.0086
  899MOL0     C21278   4.922  -0.267   6.862 -0.2335  0.4833 -0.9466
  899MOL0     C21279   4.795  -0.280   6.816  0.8988 -0.0287 -0.2195
  899MOL0     N21280   4.055   0.186   6.751 -0.5510 -0.4276  0.0510
  899MOL0     N21281   3.932   0.220   6.719  0.4763 -0.0980 -0.7640
  899MOL0     C21282   2.837   0.132   6.779  0.5105  0.2762 -0.0438
  899MOL0     C21283   2.706   0.157   6.818  0.0703  0.8910  0.0812
  899MOL0     C21284   2.357   0.244   7.098 -0.0379  0.2237  0.1763
  899MOL0     C21285   2.316   0.297   7.224  0.2235  0.2946 -0.6751
  899MOL0     C21286   2.185   0.336   7.258 -0.4127 -0.0565  0.2198
  899MOL0     C21287   2.081   0.323   7.168 -0.6880 -0.0559 -0.3561
  899MOL0     O21288   1.950   0.355   7.188  0.5579  0.1823 -0.8776
  899MOL0     C21289   1.921   0.435   7.311 -1.1056  0.2882  0.6084
  899MOL0     C21290   1.779   0.482   7.299  0.3664  0.1467  0.3958
  899MOL0     C21291   1.736   0.563   7.423 -0.5661  0.4354 -0.6812
  899MOL0     C21292   1.591   0.595   7.443 -0.0180  0.6287 -0.2308
  899MOL0     C21293   1.547   0.669   7.324 -0.0078 -0.0248  0.1184
  899MOL0     C21294   1.512   0.745   7.239 -0.4758  0.0889  0.2965
  899MOL0     C21295   2.119   0.273   7.046  0.3920 -0.5262  0.3204
  899MOL0     C21296   2.252   0.243   7.003 -0.6555  0.0588  0.5055
  899MOL0     C21297   2.268   0.228   6.858 -0.1853 -0.1234 -0.8713
  899MOL0     H21298   2.696   0.012   7.120 -1.8858 -1.9612 -0.8860
  899MOL0     H21299   2.948  -0.037   7.049 -0.1802 -1.5039 -0.3957
  899MOL0     H21300   3.159   0.000   6.990 -0.7773 -1.9593  0.3936
  899MOL0     H21301   3.117  -0.153   6.892  1.8637 -1.1714 -1.1948
  899MOL0     H21302   3.231  -0.081   6.714 -4.2373 -0.4204  1.9308
  899MOL0     H21303   3.343  -0.115   6.854 -0.2530  0.3181 -0.1361
  899MOL0     H21304   3.381   0.093   6.902  1.0286  0.0684  0.0202
  899MOL0     H21305   3.287   0.169   6.769  1.3511  0.2602 -1.2851
  899MOL0     H21306   3.421  -0.002   6.608  1.8431 -0.9034 -0.5314
  899MOL0     H21307   3.465   0.159   6.646  0.5857 -0.7358 -1.8883
  899MOL0     H21308   3.625   0.098   6.806  0.4265 -0.2310  0.8287
  899MOL0     H21309   3.560  -0.040   6.852 -3.5994  2.3791  0.9716
  899MOL0     H21310   3.768  -0.077   6.710 -0.5593  0.9501  1.0887
  899MOL0     H21311   3.632  -0.151   6.620 -1.6344  1.1853 -0.2060
  899MOL0     H21312   3.611   0.028   6.464 -0.4021 -0.4173  0.9842
  899MOL0     H21313   3.766  -0.042   6.461  3.5221  2.5786  1.5147
  899MOL0     H21314   3.797   0.201   6.438 -1.5514 -1.9338 -1.6757
  899MOL0     H21315   3.702   0.236   6.581 -1.8324 -1.7009  0.9338
  899MOL0     H21316   4.002   0.022   6.476 -0.1405  2.6683 -1.2361
  899MOL0     H21317   4.235  -0.045   6.556 -0.4590 -0.2951  0.0648
  899MOL0     H21318   4.327   0.089   6.628  1.1994 -0.7208  1.3593
  899MOL0     H21319   4.262   0.021   6.853  2.5358 -1.1033  1.3584
  899MOL0     H21320   4.147  -0.100   6.795 -0.4459  0.5394  1.3177
  899MOL0     H21321   4.326  -0.236   6.707  0.4978 -1.5523  1.7524
  899MOL0     H21322   4.348  -0.187   6.880  0.5737 -1.4381 -0.6397
  899MOL0     H21323   4.516  -0.023   6.824 -0.0173  0.3255  1.1388
  899MOL0     H21324   4.489  -0.045   6.654  1.5975 -2.1269 -1.8754
  899MOL0     H21325   4.719   0.054   6.828  2.1826 -0.2004 -3.3444
  899MOL0     H21326   4.931   0.067   6.896  2.1507 -1.0702  0.1038
  899MOL0     H21327   5.156   0.036   7.253  1.8297  0.6852  3.7019
  899MOL0     H21328   5.323   0.138   7.373 -0.8183 -0.2206 -0.3329
  899MOL0     H21329   5.744   0.143   7.271 -0.5553 -0.0891  0.6561
  899MOL0     H21330   5.700   0.260   7.138 -3.1193 -2.9389 -1.5063
  899MOL0     H21331   5.710   0.442   7.319 -0.5246 -0.3892  1.6179
  899MOL0     H21332   5.758   0.326   7.444  1.7024  4.2414  1.3401
  899MOL0     H21333   5.937   0.246   7.290  0.9894  0.5800  1.1251
  899MOL0     H21334   5.921   0.405   7.211  2.1699 -0.3080 -0.4732
  899MOL0     H21335   5.991   0.355   7.502 -1.5971 -0.8538 -1.1423
  899MOL0     H21336   5.981   0.506   7.407  0.2648  0.6353 -0.9001
  899MOL0     H21337   6.194   0.423   7.274  1.1580 -1.2447 -0.6268
  899MOL0     H21338   6.182   0.274   7.368 -2.1644 -0.0384  2.0294
  899MOL0     H21339   6.220   0.547   7.479  4.1239  0.1881  0.9757
  899MOL0     H21340   6.226   0.397   7.575 -1.8691 -2.2541 -0.9944
  899MOL0     H21341   6.386   0.459   7.327 -3.3286  2.4969  0.6788
  899MOL0     H21342   6.424   0.326   7.440  0.2363  0.2733  1.1347
  899MOL0     H21343   6.440   0.626   7.504  1.4226 -0.3058  3.1047
  899MOL0     H21344   6.468   0.497   7.625 -0.6771 -1.6035  1.0909
  899MOL0     H21345   5.567   0.171   7.010  0.1567 -1.2289 -0.3995
  899MOL0     H21346   5.375   0.045   6.891  0.2250 -1.8191  0.4860
  899MOL0     H21347   4.998  -0.345   6.869  2.6467  3.2607  3.3306
  899MOL0     H21348   4.753  -0.375   6.784  0.0847  0.3870 -0.4156
  899MOL0     H21349   2.860   0.146   6.674  1.2045 -0.0309  0.0593
  899MOL0     H21350   2.643   0.210   6.747  2.7433  1.7671 -1.8071
  899MOL0     H21351   2.380   0.304   7.311 -1.7914  0.5619  0.8452
  899MOL0     H21352   2.169   0.356   7.364  2.9800  0.9543  0.6571
  899MOL0     H21353   1.978   0.528   7.317 -2.0125  0.9114 -0.1000
  899MOL0     H21354   1.942   0.381   7.404  1.9261 -1.6437 -1.0321
  899MOL0     H21355   1.708   0.400   7.281 -2.3140  2.3059  0.4108
  899MOL0     H21356   1.768   0.552   7.215 -1.4424  0.9739  1.2560
  899MOL0     H21357   1.787   0.660   7.425 -1.9328  1.2310 -2.0578
  899MOL0     H21358   1.765   0.514   7.517 -1.2756  0.0341 -0.6623
  899MOL0     H21359   1.522   0.510   7.450  0.3292 -0.1949 -4.1328
  899MOL0     H21360   1.586   0.655   7.534  0.6002  1.4863 -0.7482
  899MOL0     H21361   1.482   0.821   7.169  1.4588  0.5570 -0.0673
  899MOL0     H21362   2.046   0.260   6.967  1.9006 -0.3154 -1.1439
  899MOL0     H21363   2.262   0.122   6.832  2.1778 -0.2028 -1.3616
  899MOL0     H21364   2.192   0.283   6.803 -2.0019 -2.2749 -0.6546
  899MOL0     H21365   2.369   0.258   6.826  1.3210 -2.6008  1.1395
  900MOL0     O21366   3.292   0.778   1.972  0.8560 -0.0985  0.6164
  900MOL0     C21367   3.242   0.693   2.044  0.9944  0.3391 -0.4006
  900MOL0     O21368   3.304   0.619   2.136  0.1651 -0.0910  0.0172
  900MOL0     C21369   3.437   0.646   2.170 -0.2405 -1.1002 -0.2500
  900MOL0     C21370   3.491   0.774   2.184  0.0376 -0.1302 -0.0112
  900MOL0     C21371   3.614   0.806   2.251  0.0027 -0.4320 -0.6027
  900MOL0     C21372   3.680   0.700   2.313  0.6286 -0.9060 -0.4085
  900MOL0     O21373   3.806   0.707   2.368  0.0073  0.1306  0.3866
  900MOL0     C21374   3.818   0.613   2.476 -0.2182 -0.4771 -0.0257
  900MOL0     C21375   3.928   0.511   2.429 -0.2390 -0.1672  0.3090
  900MOL0     C21376   4.054   0.531   2.513  0.0416 -0.1633  0.5488
  900MOL0     C21377   4.164   0.452   2.441 -0.1325 -0.2816  0.0690
  900MOL0     C21378   4.297   0.468   2.494  0.1730 -0.3164 -0.2711
  900MOL0     C21379   4.359   0.604   2.457  0.3519  0.1217 -0.1341
  900MOL0     C21380   4.493   0.612   2.532  0.0206 -0.0905 -0.4198
  900MOL0     C21381   4.555   0.757   2.525  0.3686  0.1900 -0.2048
  900MOL0     N21382   4.680   0.771   2.592 -0.6942  0.7707 -0.4436
  900MOL0     C21383   4.747   0.677   2.666 -0.9712  0.5077 -0.3716
  900MOL0     C21384   4.857   0.745   2.705 -0.6330  0.7294  0.1535
  900MOL0     C21385   4.966   0.683   2.802  0.1041  0.3071  0.2331
  900MOL0     C21386   5.104   0.695   2.749 -1.3266 -0.0511 -0.3748
  900MOL0     C21387   5.206   0.668   2.859  0.3779 -0.9826 -1.4966
  900MOL0     C21388   5.243   0.805   2.933  0.4316 -0.5020 -0.1996
  900MOL0     O21389   5.232   0.776   3.075  0.0253 -0.1185 -0.1489
  900MOL0     C21390   5.132   0.827   3.163 -0.1005  0.8760  0.4877
  900MOL0     C21391   5.145   0.787   3.293  0.2738 -0.0224 -0.0080
  900MOL0     C21392   5.061   0.832   3.396 -0.0853 -0.1662  0.1228
  900MOL0     C21393   4.946   0.905   3.358  0.4223  0.3751 -0.7753
  900MOL0     C21394   4.852   0.947   3.459  0.6431  0.1145  0.6585
  900MOL0     O21395   4.796   1.062   3.454  0.5087 -0.5430  0.5250
  900MOL0     C21396   4.701   1.090   3.545 -0.3282  0.2957 -0.5757
  900MOL0     C21397   4.572   1.087   3.503  0.5109  0.0911  0.1993
  900MOL0     C21398   4.468   1.104   3.590 -0.6833  0.6250 -0.2290
  900MOL0     C21399   4.485   1.135   3.722 -0.6624 -0.6438  0.0129
  900MOL0     O21400   4.381   1.151   3.805 -0.7310  0.9333 -0.2161
  900MOL0     C21401   4.260   1.195   3.756  0.6276  0.8535 -0.3204
  900MOL0     C21402   4.157   1.188   3.882 -0.4996  0.0901  0.2430
  900MOL0     C21403   4.016   1.186   3.812  0.3818 -0.5134 -1.1841
  900MOL0     C21404   3.904   1.228   3.910 -0.2996  0.0521  0.7676
  900MOL0     C21405   3.770   1.199   3.841 -0.2782  0.3650  0.7511
  900MOL0     C21406   3.718   1.062   3.872  0.0925  0.2984  0.4932
  900MOL0     C21407   3.597   1.024   3.788  0.2260  0.0272  0.0860
  900MOL0     C21408   3.553   0.886   3.827  0.3892 -0.1172  0.2720
  900MOL0    Cl21409   3.398   0.848   3.744  0.1503 -0.2928 -0.0012
  900MOL0     C21410   4.613   1.145   3.773  0.3362  0.3551  0.8108
  900MOL0     C21411   4.722   1.124   3.685  0.1519  0.0136 -0.1057
  900MOL0     O21412   4.844   0.865   3.550  0.7113 -0.3817  0.2229
  900MOL0     C21413   4.928   0.935   3.222 -0.2630  1.2011 -0.1069
  900MOL0     C21414   5.022   0.900   3.126  1.2594  0.2700 -0.7204
  900MOL0     N21415   4.845   0.883   2.679  0.4494 -0.4229 -0.0391
  900MOL0     N21416   4.743   0.887   2.596 -0.3446  0.2000  0.3091
  900MOL0     C21417   3.626   0.566   2.285 -0.4123 -0.4772  0.4159
  900MOL0     C21418   3.511   0.540   2.212 -0.8829  0.3919  0.1518
  900MOL0     C21419   3.101   0.667   2.031  0.1721 -0.4954  0.1075
  900MOL0     C21420   3.048   0.558   2.103 -0.3600 -0.8038 -0.6233
  900MOL0     C21421   2.910   0.524   2.107 -0.6065 -0.9022  0.3089
  900MOL0     C21422   2.818   0.611   2.051  0.5917  0.2085 -0.6129
  900MOL0     O21423   2.687   0.565   2.050  0.2521  0.1438  0.9807
  900MOL0     C21424   2.593   0.653   1.983  0.0507 -0.5782 -0.6331
  900MOL0     C21425   2.448   0.602   2.006 -0.7390 -0.6579  0.0295
  900MOL0     C21426   2.434   0.461   1.945  0.5390  0.8166  0.1848
  900MOL0     C21427   2.289   0.430   1.923  0.0787  0.0196 -0.8563
  900MOL0     C21428   2.256   0.304   1.855 -0.0711  0.2764 -0.7522
  900MOL0     C21429   2.223   0.205   1.796 -0.9927  0.2964 -0.9626
  900MOL0     C21430   2.870   0.722   1.983 -0.3468  0.2529  0.2779
  900MOL0     C21431   3.010   0.753   1.969  0.1794  0.4770  0.7567
  900MOL0     C21432   3.050   0.884   1.900 -0.0039 -0.8740  0.2957
  900MOL0     H21433   3.433   0.860   2.152 -2.5822 -2.7640 -3.1107
  900MOL0     H21434   3.643   0.910   2.259  0.0915 -0.3770 -1.4972
  900MOL0     H21435   3.854   0.661   2.566 -0.7869 -1.2778  0.6501
  900MOL0     H21436   3.723   0.567   2.506 -1.1336 -0.2564 -2.3456
  900MOL0     H21437   3.957   0.527   2.325  1.0398  2.1591  0.9573
  900MOL0     H21438   3.893   0.408   2.444 -1.7061  0.1482 -0.6372
  900MOL0     H21439   4.034   0.493   2.613 -0.8757  2.8646  1.6188
  900MOL0     H21440   4.078   0.636   2.527 -2.4187  0.3487  1.4764
  900MOL0     H21441   4.135   0.347   2.445  1.1414 -0.6873 -0.5180
  900MOL0     H21442   4.168   0.482   2.335  3.7639  1.0745  0.4220
  900MOL0     H21443   4.293   0.462   2.603  2.8033  0.0679 -0.0880
  900MOL0     H21444   4.360   0.385   2.460  0.8356  0.0636  0.0210
  900MOL0     H21445   4.385   0.605   2.350  0.1310  1.8005 -0.2056
  900MOL0     H21446   4.295   0.689   2.482 -0.0637 -0.1977 -0.1055
  900MOL0     H21447   4.556   0.541   2.478 -0.5000 -0.6941 -0.2350
  900MOL0     H21448   4.487   0.576   2.635  0.2153 -0.6241 -0.5913
  900MOL0     H21449   4.560   0.794   2.422  0.8354  1.9654  0.4141
  900MOL0     H21450   4.484   0.813   2.586  0.8430 -0.9425  1.4441
  900MOL0     H21451   4.727   0.571   2.677  3.0205 -0.3489  0.5083
  900MOL0     H21452   4.959   0.727   2.902  0.7268 -2.0295  1.3744
  900MOL0     H21453   4.952   0.575   2.807  0.1998  0.0352 -3.0364
  900MOL0     H21454   5.130   0.621   2.673 -1.7831  0.3738 -0.9587
  900MOL0     H21455   5.129   0.792   2.704  0.0392  0.3665  1.1567
  900MOL0     H21456   5.298   0.624   2.821  1.4282  1.5900 -2.1823
  900MOL0     H21457   5.163   0.599   2.932  1.4307 -0.7290 -0.6241
  900MOL0     H21458   5.179   0.891   2.911  1.7767  1.0026  1.4396
  900MOL0     H21459   5.344   0.838   2.908 -0.0361  1.3100  0.1079
  900MOL0     H21460   5.238   0.735   3.314  0.2175  0.2418  0.9822
  900MOL0     H21461   5.076   0.803   3.500 -0.2275  3.1799  1.2176
  900MOL0     H21462   4.546   1.074   3.398  0.4741 -0.0899  0.2303
  900MOL0     H21463   4.373   1.098   3.539  0.1617  1.2386 -1.9553
  900MOL0     H21464   4.275   1.298   3.722  2.9311  1.2013  1.4596
  900MOL0     H21465   4.216   1.126   3.684 -1.0393  1.3748  0.1555
  900MOL0     H21466   4.174   1.099   3.943 -1.1437  1.0185  1.8317
  900MOL0     H21467   4.161   1.276   3.946 -1.7683  1.9022 -2.0338
  900MOL0     H21468   4.018   1.250   3.723  2.9170 -0.2920 -1.0562
  900MOL0     H21469   4.000   1.080   3.792 -1.1220 -0.8126  1.2429
  900MOL0     H21470   3.900   1.334   3.936  2.2806 -0.5890  4.5810
  900MOL0     H21471   3.924   1.175   4.004  1.6652  0.0217  0.3780
  900MOL0     H21472   3.784   1.217   3.734 -3.9321  1.3363  0.3013
  900MOL0     H21473   3.693   1.273   3.865 -1.7122 -1.0597  0.7283
  900MOL0     H21474   3.796   0.988   3.854 -1.0225 -1.1000  1.1053
  900MOL0     H21475   3.692   1.056   3.978 -1.3607 -0.0456  0.1476
  900MOL0     H21476   3.614   1.042   3.682 -2.8899  1.7077 -0.2428
  900MOL0     H21477   3.509   1.081   3.821 -1.1197 -0.6354 -2.1533
  900MOL0     H21478   3.632   0.811   3.816  0.4841  0.2174 -1.7653
  900MOL0     H21479   3.532   0.887   3.934 -2.5790 -0.9101 -0.2095
  900MOL0     H21480   4.642   1.168   3.875  0.2152  0.9529  0.7144
  900MOL0     H21481   4.824   1.117   3.722  0.0372 -1.8774 -0.0348
  900MOL0     H21482   4.834   0.976   3.187 -1.5932 -2.7462 -1.6719
  900MOL0     H21483   4.996   0.914   3.021  1.6877 -0.5116 -0.9332
  900MOL0     H21484   3.681   0.480   2.321  0.1070  0.2724  1.4812
  900MOL0     H21485   3.483   0.436   2.200 -2.5239  0.7336  0.7153
  900MOL0     H21486   3.112   0.491   2.160 -1.0511  0.6917  2.1012
  900MOL0     H21487   2.879   0.431   2.154  0.4043 -1.5180 -0.2101
  900MOL0     H21488   2.612   0.661   1.876 -0.0043 -3.8595 -0.9947
  900MOL0     H21489   2.598   0.754   2.024 -3.7532 -0.5438  0.1012
  900MOL0     H21490   2.396   0.687   1.961  1.5431  2.1822  2.3284
  900MOL0     H21491   2.428   0.610   2.113 -2.9696  2.8650 -0.4814
  900MOL0     H21492   2.472   0.385   2.014 -0.7602 -1.6905 -1.6964
  900MOL0     H21493   2.480   0.450   1.847  0.2605 -0.9917  0.2281
  900MOL0     H21494   2.226   0.436   2.012 -0.3687 -1.0186 -1.0976
  900MOL0     H21495   2.246   0.513   1.866  0.1927 -0.1059 -1.1262
  900MOL0     H21496   2.193   0.117   1.742  0.8454 -3.3879  3.2688
  900MOL0     H21497   2.796   0.783   1.932 -0.4701 -0.9223 -0.9949
  900MOL0     H21498   3.130   0.886   1.825  1.6647  3.5457  1.8132
  900MOL0     H21499   2.963   0.925   1.848  0.9152  0.6877 -0.0888
  900MOL0     H21500   3.093   0.946   1.979 -0.2953 -0.0616 -0.1636
  901MOL0     O21501   5.645   6.715  10.891 -0.1667  0.8144 -0.0867
  901MOL0     C21502   5.619   6.801  10.808 -0.0753 -0.3388  0.5611
  901MOL0     O21503   5.702   6.828  10.703  0.2166  0.1330 -0.4790
  901MOL0     C21504   5.823   6.765  10.704 -0.9160 -0.8114  0.2788
  901MOL0     C21505   5.930   6.838  10.754 -0.2535  0.9942 -0.2501
  901MOL0     C21506   6.058   6.781  10.762  1.0007  0.4943  0.1635
  901MOL0     C21507   6.086   6.659  10.705  0.3722  1.0344  0.5810
  901MOL0     O21508   6.206   6.596  10.713 -0.1320  0.1780 -0.5445
  901MOL0     C21509   6.319   6.673  10.680 -0.0016 -0.6611 -0.4847
  901MOL0     C21510   6.437   6.582  10.666  0.2520 -0.2147  0.5267
  901MOL0     C21511   6.487   6.539  10.810 -0.1782  0.0037 -0.0466
  901MOL0     C21512   6.609   6.445  10.786  0.5052  0.2347 -0.2083
  901MOL0     C21513   6.735   6.508  10.731 -0.2044  0.4225 -0.3756
  901MOL0     C21514   6.837   6.393  10.709  0.0198 -0.0424  0.0171
  901MOL0     C21515   6.948   6.437  10.618  0.1028  0.0740 -0.5181
  901MOL0     C21516   7.072   6.343  10.617 -0.4975  0.4113  0.6661
  901MOL0     N21517   7.153   6.355  10.743 -0.1384 -0.0027  0.0245
  901MOL0     C21518   7.221   6.459  10.792  0.1361 -0.7296  0.7020
  901MOL0     C21519   7.322   6.408  10.868  0.2015 -0.7286 -0.1726
  901MOL0     C21520   7.428   6.488  10.927 -1.2990 -0.2867  0.2276
  901MOL0     C21521   7.571   6.434  10.883  0.2771 -1.1301 -0.3280
  901MOL0     C21522   7.678   6.537  10.936 -0.3428  0.2207  0.6143
  901MOL0     C21523   7.815   6.508  10.859 -0.2067 -0.9472 -0.6230
  901MOL0     O21524   7.914   6.604  10.896  0.1537 -0.1325  0.4547
  901MOL0     C21525   8.045   6.594  10.869 -0.3596  0.0709  0.3842
  901MOL0     C21526   8.126   6.709  10.886  0.2546  0.3427 -0.3459
  901MOL0     C21527   8.260   6.709  10.841  0.0885  0.0137 -0.1256
  901MOL0     C21528   8.317   6.584  10.793  0.2125  0.0559 -0.0871
  901MOL0     C21529   8.464   6.567  10.748  0.1392 -0.2995 -0.3252
  901MOL0     O21530   8.539   6.679  10.739  0.0958 -0.0679  0.0218
  901MOL0     C21531   8.666   6.694  10.669  0.2094 -0.2898  0.1729
  901MOL0     C21532   8.743   6.588  10.619  0.7320  0.4196 -0.2704
  901MOL0     C21533   8.872   6.600  10.561 -0.9067  0.0866 -0.6611
  901MOL0     C21534   8.927   6.727  10.541 -0.2680 -0.4952  0.4557
  901MOL0     O21535   9.046   6.765  10.486  0.2479 -0.4038 -0.2093
  901MOL0     C21536   9.136   6.666  10.424 -0.1022 -1.1876 -0.6912
  901MOL0     C21537   9.234   6.626  10.544 -0.0704 -0.1059  0.3489
  901MOL0     C21538   9.310   6.743  10.607  0.9087  0.3291  0.1816
  901MOL0     C21539   9.420   6.827  10.537 -0.6466 -0.5798 -0.4284
  901MOL0     C21540   9.499   6.921  10.623  0.3636 -0.2938 -0.3326
  901MOL0     C21541   9.627   6.969  10.556 -0.7477 -0.7212  0.2700
  901MOL0     C21542   9.715   7.065  10.639 -0.4254 -0.2260  0.4434
  901MOL0     C21543   9.863   7.051  10.587  0.0379 -0.7784 -0.3455
  901MOL0    Cl21544   9.936   7.214  10.562  0.1765 -0.1218 -0.1457
  901MOL0     C21545   8.852   6.840  10.581 -0.7985 -0.0681 -0.6995
  901MOL0     C21546   8.729   6.820  10.655 -0.7417 -0.8012 -0.9363
  901MOL0     O21547   8.495   6.453  10.720  0.2815 -0.2461  0.9005
  901MOL0     C21548   8.230   6.473  10.768 -0.9292 -0.9389  0.2603
  901MOL0     C21549   8.096   6.478  10.803 -0.1842 -0.2578 -0.0792
  901MOL0     N21550   7.295   6.276  10.881  0.1991  0.0391 -0.2816
  901MOL0     N21551   7.202   6.242  10.795  0.0971 -0.2779 -0.2039
  901MOL0     C21552   5.975   6.580  10.663 -0.6519  0.4985  0.1452
  901MOL0     C21553   5.848   6.634  10.663 -0.3750 -0.2263  0.2040
  901MOL0     C21554   5.497   6.880  10.807 -0.1468  0.3566  0.2274
  901MOL0     C21555   5.500   6.991  10.727 -0.8626 -0.1673 -0.1839
  901MOL0     C21556   5.388   7.078  10.711  0.7742  1.4290 -0.4864
  901MOL0     C21557   5.267   7.041  10.784 -0.7018 -0.8625  0.1214
  901MOL0     O21558   5.160   7.130  10.770  0.2581  0.3910  0.3022
  901MOL0     C21559   5.061   7.139  10.873  0.6625 -0.5310  0.6810
  901MOL0     C21560   4.944   7.036  10.836  0.0029 -0.2114  0.4174
  901MOL0     C21561   4.892   7.063  10.693  0.2083 -0.0013  0.4401
  901MOL0     C21562   4.762   6.990  10.661  0.2168  1.5682 -0.2429
  901MOL0     C21563   4.650   7.042  10.733  0.0918 -0.0808 -0.2512
  901MOL0     C21564   4.563   7.087  10.803 -0.9158 -0.0188  0.3779
  901MOL0     C21565   5.272   6.923  10.866 -0.1833  0.1250  0.0520
  901MOL0     C21566   5.382   6.848  10.883  0.2241  0.1513 -0.2200
  901MOL0     C21567   5.364   6.726  10.969  0.4288 -0.4066 -0.7838
  901MOL0     H21568   5.923   6.941  10.785  1.7951  1.1588 -0.2194
  901MOL0     H21569   6.136   6.836  10.813 -0.0714  0.6552  1.7024
  901MOL0     H21570   6.293   6.728  10.589  0.1304  1.6843  0.8344
  901MOL0     H21571   6.331   6.746  10.761 -3.2340 -0.4922 -0.0259
  901MOL0     H21572   6.518   6.624  10.607  0.1016  1.7118  1.6088
  901MOL0     H21573   6.408   6.493  10.609  0.9262  0.5000 -0.9912
  901MOL0     H21574   6.415   6.485  10.872  2.8971 -2.0865  2.0181
  901MOL0     H21575   6.530   6.627  10.857  2.8247  0.6124 -3.4936
  901MOL0     H21576   6.624   6.385  10.876 -4.3737 -4.3163 -1.8929
  901MOL0     H21577   6.565   6.380  10.710 -1.0735  3.0953 -1.9182
  901MOL0     H21578   6.721   6.552  10.632 -1.9757  2.4608  0.6939
  901MOL0     H21579   6.773   6.583  10.801 -1.1895  0.8394 -0.2782
  901MOL0     H21580   6.875   6.355  10.805 -0.2236  1.3409  0.6867
  901MOL0     H21581   6.785   6.305  10.671 -0.4410  0.4894 -0.5852
  901MOL0     H21582   6.971   6.539  10.649  0.4334  0.3886 -1.7177
  901MOL0     H21583   6.914   6.448  10.514  0.1953  0.3500 -0.5207
  901MOL0     H21584   7.032   6.244  10.594 -1.6958  0.8339  0.8477
  901MOL0     H21585   7.128   6.359  10.524  0.4727 -0.0348  1.1591
  901MOL0     H21586   7.207   6.563  10.764  1.0083 -0.6840  0.3990
  901MOL0     H21587   7.420   6.592  10.895  0.8806 -0.2160 -0.2183
  901MOL0     H21588   7.414   6.491  11.036 -2.5881  0.7322  0.0554
  901MOL0     H21589   7.573   6.333  10.925 -3.9698 -1.1907  0.2701
  901MOL0     H21590   7.573   6.437  10.774 -1.2916 -0.8305 -0.3796
  901MOL0     H21591   7.684   6.516  11.044 -1.0088  1.8532  1.0017
  901MOL0     H21592   7.646   6.640  10.917 -1.5563 -0.2952 -0.2559
  901MOL0     H21593   7.806   6.519  10.750  1.7491  2.8132 -0.5626
  901MOL0     H21594   7.856   6.409  10.883  3.6005  0.8644  1.1677
  901MOL0     H21595   8.072   6.797  10.920  1.0253  1.0205 -0.8403
  901MOL0     H21596   8.314   6.802  10.851 -1.3407  0.7746  1.0258
  901MOL0     H21597   8.707   6.487  10.635 -0.0549  0.6201 -0.7214
  901MOL0     H21598   8.926   6.509  10.539 -0.1254 -0.1314  1.8535
  901MOL0     H21599   9.089   6.583  10.371  2.3043 -2.4051 -1.0856
  901MOL0     H21600   9.187   6.722  10.345 -0.7290 -0.2653 -0.4609
  901MOL0     H21601   9.170   6.586  10.623  1.4559 -0.9056  1.2405
  901MOL0     H21602   9.294   6.545  10.500 -2.1108  0.0556 -3.0796
  901MOL0     H21603   9.246   6.815  10.658  0.4319  1.4239 -1.8735
  901MOL0     H21604   9.360   6.698  10.693  1.5220 -1.4831 -1.0607
  901MOL0     H21605   9.374   6.881  10.454 -3.2161 -0.6478  0.8524
  901MOL0     H21606   9.487   6.753  10.493  1.2029  1.1351 -0.6662
  901MOL0     H21607   9.515   6.873  10.720 -0.5493 -0.3086 -0.1741
  901MOL0     H21608   9.435   7.008  10.645 -1.5996 -1.0754 -2.5161
  901MOL0     H21609   9.683   6.876  10.539  0.1293  0.2254 -2.3648
  901MOL0     H21610   9.608   7.024  10.464  2.6128  0.8211  0.3833
  901MOL0     H21611   9.714   7.036  10.744  0.1362  0.6472  0.6976
  901MOL0     H21612   9.688   7.170  10.631  0.9899  0.0322 -2.2840
  901MOL0     H21613   9.922   7.000  10.663 -1.2200  0.9416  1.9081
  901MOL0     H21614   9.859   7.005  10.488  0.9385 -1.0122 -0.2799
  901MOL0     H21615   8.895   6.937  10.559 -0.5838  0.1395  0.5587
  901MOL0     H21616   8.675   6.909  10.684 -0.4615 -0.7939 -0.4348
  901MOL0     H21617   8.269   6.381  10.727 -1.5328 -1.2989  0.4890
  901MOL0     H21618   8.032   6.391  10.788  1.3129 -1.1123 -1.9387
  901MOL0     H21619   5.986   6.478  10.629 -3.0871 -0.4262  1.8693
  901MOL0     H21620   5.763   6.572  10.635 -0.4827 -0.4515  1.0088
  901MOL0     H21621   5.587   7.021  10.669 -0.5712 -0.0579  0.3060
  901MOL0     H21622   5.400   7.158  10.638 -0.1064 -0.0266 -2.3073
  901MOL0     H21623   5.022   7.241  10.884 -1.5758 -1.1084 -1.0666
  901MOL0     H21624   5.093   7.110  10.973  0.1227  1.9807  1.6600
  901MOL0     H21625   4.871   7.058  10.914  0.6084 -0.8065  1.1701
  901MOL0     H21626   4.974   6.933  10.855  0.6443 -0.0972  0.0541
  901MOL0     H21627   4.968   7.037  10.617 -0.1926 -1.6552  0.5665
  901MOL0     H21628   4.879   7.170  10.676  0.0411 -0.3553 -2.1116
  901MOL0     H21629   4.752   6.991  10.552  1.8758  0.3576 -0.4485
  901MOL0     H21630   4.774   6.887  10.695 -0.8060  1.5856  0.1930
  901MOL0     H21631   4.482   7.107  10.870  0.1688 -1.2246  2.1065
  901MOL0     H21632   5.186   6.903  10.930 -0.8233  1.3902 -0.3855
  901MOL0     H21633   5.258   6.700  10.964 -0.2356  2.0818 -0.8150
  901MOL0     H21634   5.432   6.642  10.956  3.1787  1.6455 -0.5561
  901MOL0     H21635   5.385   6.749  11.074  2.4228 -1.4356 -0.9138
  902MOL0     O21636  10.646   6.295  11.100  0.9488  0.0373  0.4827
  902MOL0     C21637  10.619   6.403  11.040 -0.1327  0.5541  0.1165
  902MOL0     O21638  10.717   6.488  10.995 -0.7146  0.2766 -1.0799
  902MOL0     C21639  10.852   6.494  11.041  1.2688 -0.2206  0.3318
  902MOL0     C21640  10.950   6.535  10.952  0.2222 -0.0331 -0.6886
  902MOL0     C21641  11.084   6.540  10.996  0.4826  0.2243 -0.0885
  902MOL0     C21642  11.129   6.513  11.126  0.4985  0.3024 -0.0317
  902MOL0     O21643  11.268   6.526  11.155  0.4124  0.0045 -0.6802
  902MOL0     C21644  11.317   6.502  11.294 -0.5302 -1.0777 -0.1701
  902MOL0     C21645  11.470   6.548  11.307  0.1700 -0.8194 -0.5114
  902MOL0     C21646  11.562   6.476  11.213  0.6790  0.0472 -0.2422
  902MOL0     C21647  11.695   6.539  11.223 -0.3774 -0.2699 -0.0328
  902MOL0     C21648  11.809   6.453  11.169  0.2974  0.0070  0.3837
  902MOL0     C21649  11.933   6.541  11.159  0.4208  0.5882  0.2452
  902MOL0     C21650  12.056   6.452  11.128  0.1969 -0.6647 -0.5205
  902MOL0     C21651  12.054   6.369  11.008 -1.1571  0.0879  0.6646
  902MOL0     N21652  12.190   6.321  10.983  0.0949  0.6585 -0.1282
  902MOL0     C21653  12.296   6.391  10.933 -0.0133 -0.3924  0.3946
  902MOL0     C21654  12.387   6.297  10.902  0.1916 -0.5399  0.5296
  902MOL0     C21655  12.520   6.326  10.834 -0.0916 -0.2314 -1.0468
  902MOL0     C21656  12.632   6.278  10.927 -0.6440  0.3031  0.8519
  902MOL0     C21657  12.776   6.293  10.864  0.7671  0.0175  0.4103
  902MOL0     C21658  12.877   6.237  10.957 -0.5325 -0.1743 -0.0137
  902MOL0     O21659  12.997   6.202  10.884  0.2779 -0.0617 -0.2138
  902MOL0     C21660  13.103   6.147  10.944 -0.7498  0.6747  1.0191
  902MOL0     C21661  13.131   6.130  11.076 -0.5885 -0.1016  0.3689
  902MOL0     C21662  13.251   6.081  11.129  0.2012  0.2474 -0.0302
  902MOL0     C21663  13.349   6.038  11.038 -0.8181 -0.0792 -0.0393
  902MOL0     C21664  13.464   5.964  11.088  0.3584 -0.3557 -0.2531
  902MOL0     O21665  13.590   5.997  11.037  0.6567  0.6429 -0.3215
  902MOL0     C21666  13.695   5.908  11.041  0.4861  0.0998  0.1103
  902MOL0     C21667  13.702   5.793  11.118 -0.2520 -0.9119  0.6350
  902MOL0     C21668  13.815   5.705  11.101  0.1039 -0.0309  0.4562
  902MOL0     C21669  13.915   5.731  11.006 -0.0226  0.2939  1.2609
  902MOL0     O21670  14.017   5.636  10.988  0.1060 -0.3058 -0.3444
  902MOL0     C21671  14.115   5.653  10.882 -0.0605 -0.0491  0.1389
  902MOL0     C21672  14.207   5.534  10.890  0.2918  0.0307  0.2036
  902MOL0     C21673  14.292   5.540  11.023  0.1258 -0.3635 -0.0439
  902MOL0     C21674  14.392   5.422  11.016 -0.4943 -0.0743  0.2544
  902MOL0     C21675  14.494   5.413  11.130 -0.1369  0.2964  0.2018
  902MOL0     C21676  14.607   5.315  11.098  0.0673 -0.0645  0.1975
  902MOL0     C21677  14.728   5.368  11.186  0.5909  0.3040 -0.5725
  902MOL0     C21678  14.848   5.277  11.170  0.4549  0.5315  0.2890
  902MOL0    Cl21679  14.806   5.113  11.218  0.2121 -0.0077  0.0509
  902MOL0     C21680  13.914   5.854  10.943 -0.6191 -0.3758  1.1541
  902MOL0     C21681  13.796   5.935  10.949 -0.1025  0.4672  0.0811
  902MOL0     O21682  13.441   5.892  11.187 -0.4428 -0.2942 -0.6021
  902MOL0     C21683  13.329   6.059  10.900 -0.0162  0.2743 -0.0676
  902MOL0     C21684  13.209   6.125  10.853 -1.0474  0.0272 -0.4603
  902MOL0     N21685  12.343   6.169  10.935 -0.1160 -0.2423 -0.1305
  902MOL0     N21686  12.221   6.188  10.976 -0.7041  0.1737 -0.5033
  902MOL0     C21687  11.029   6.464  11.209 -0.3250  0.1803 -0.6851
  902MOL0     C21688  10.891   6.449  11.171 -0.5640 -0.3554 -0.1674
  902MOL0     C21689  10.483   6.430  10.994  0.0336  0.4641 -0.1523
  902MOL0     C21690  10.460   6.554  10.931  0.3097 -0.2340  0.3869
  902MOL0     C21691  10.334   6.606  10.895 -0.0779  0.0193 -0.8404
  902MOL0     C21692  10.221   6.519  10.907  0.7287 -0.4033 -0.3659
  902MOL0     O21693  10.087   6.555  10.873  0.7546 -0.5256 -0.2180
  902MOL0     C21694  10.066   6.685  10.813  0.6847 -0.5780  1.0642
  902MOL0     C21695   9.915   6.703  10.783 -0.1243  0.1067  0.0273
  902MOL0     C21696   9.831   6.711  10.916  0.4367  0.6481 -0.0485
  902MOL0     C21697   9.681   6.701  10.898  0.2231  0.2511 -0.1511
  902MOL0     C21698   9.620   6.585  10.810  0.1768  0.0177 -0.8421
  902MOL0     C21699   9.555   6.500  10.749 -0.1969 -0.1297  0.6700
  902MOL0     C21700  10.236   6.395  10.966  0.0746 -0.0296  0.2308
  902MOL0     C21701  10.369   6.343  11.012  0.2674 -0.5777 -0.1093
  902MOL0     C21702  10.372   6.207  11.083  0.2348  0.4194 -0.4884
  902MOL0     H21703  10.915   6.544  10.850 -0.2481 -0.2190 -0.5488
  902MOL0     H21704  11.164   6.568  10.928  3.0111 -0.0088  2.5910
  902MOL0     H21705  11.252   6.562  11.359  1.0230  0.8214 -0.3125
  902MOL0     H21706  11.301   6.396  11.318 -0.0118 -1.8746 -2.9749
  902MOL0     H21707  11.500   6.529  11.410 -1.0443  0.9011  0.2095
  902MOL0     H21708  11.477   6.656  11.292 -1.8830 -0.3153  1.6003
  902MOL0     H21709  11.527   6.491  11.111 -0.1453 -0.5928 -0.0590
  902MOL0     H21710  11.562   6.369  11.235  1.4696  0.3778  1.5184
  902MOL0     H21711  11.693   6.635  11.170  0.7931  1.0736  2.2096
  902MOL0     H21712  11.712   6.555  11.329 -4.4011 -2.5117  1.1403
  902MOL0     H21713  11.822   6.371  11.240  1.2818 -0.1558  0.0301
  902MOL0     H21714  11.788   6.406  11.072  2.0805  0.8808 -0.4803
  902MOL0     H21715  11.924   6.612  11.076 -0.7866 -1.1380 -1.1617
  902MOL0     H21716  11.937   6.597  11.254  1.5480  2.6481 -0.9253
  902MOL0     H21717  12.074   6.384  11.211 -1.0171  1.2244  1.3679
  902MOL0     H21718  12.139   6.524  11.128  0.5019 -1.0050 -1.0987
  902MOL0     H21719  11.978   6.290  11.014 -0.9571 -0.2839 -1.1612
  902MOL0     H21720  12.023   6.429  10.922  1.6044  0.7833  0.0631
  902MOL0     H21721  12.307   6.498  10.920 -2.2896 -0.2655 -1.3245
  902MOL0     H21722  12.537   6.271  10.741  0.6795 -1.3987 -0.2456
  902MOL0     H21723  12.537   6.430  10.805 -0.9248  0.2844  0.2283
  902MOL0     H21724  12.633   6.328  11.024  1.1455  0.6720  0.6908
  902MOL0     H21725  12.615   6.172  10.947  0.5181 -0.3817 -1.3921
  902MOL0     H21726  12.793   6.398  10.840 -1.5684  0.2454 -0.5275
  902MOL0     H21727  12.775   6.237  10.770 -3.3013  1.7567 -0.8249
  902MOL0     H21728  12.842   6.149  11.011 -2.1733  0.4616  0.0018
  902MOL0     H21729  12.898   6.309  11.036  0.2625 -2.8561  2.3829
  902MOL0     H21730  13.060   6.163  11.151  0.6572  0.8508  1.1668
  902MOL0     H21731  13.272   6.085  11.235  1.5553 -4.3462  0.0788
  902MOL0     H21732  13.633   5.760  11.196  0.8521 -1.2999  1.4849
  902MOL0     H21733  13.804   5.609  11.150 -3.1554  0.5235  1.0626
  902MOL0     H21734  14.063   5.641  10.786 -0.8861 -2.1325  0.7898
  902MOL0     H21735  14.165   5.750  10.891 -1.1734  0.7904 -1.9439
  902MOL0     H21736  14.158   5.438  10.876 -1.0970  0.6312  0.7779
  902MOL0     H21737  14.262   5.535  10.796 -0.2592  0.3330 -0.1200
  902MOL0     H21738  14.344   5.636  11.034 -2.7501  1.0219  3.1093
  902MOL0     H21739  14.216   5.523  11.099 -2.8439  1.3024 -2.4176
  902MOL0     H21740  14.450   5.422  10.924  0.5800  1.2492  0.8952
  902MOL0     H21741  14.329   5.332  11.008 -1.3675  0.6740 -1.7472
  902MOL0     H21742  14.453   5.382  11.226 -1.2308 -1.4843 -0.7726
  902MOL0     H21743  14.546   5.509  11.143  4.5552 -1.7513 -1.0463
  902MOL0     H21744  14.580   5.214  11.129  0.4652  0.1148  1.1742
  902MOL0     H21745  14.638   5.305  10.993  0.6048 -5.2310  0.5750
  902MOL0     H21746  14.697   5.383  11.290  0.5155  0.5659 -0.6325
  902MOL0     H21747  14.759   5.466  11.150 -0.0811  0.6012 -0.3665
  902MOL0     H21748  14.872   5.278  11.064 -0.7215  0.3235  0.0080
  902MOL0     H21749  14.939   5.307  11.221  1.5976 -0.6408 -0.9765
  902MOL0     H21750  13.996   5.892  10.884 -1.9986  0.0743 -0.5767
  902MOL0     H21751  13.797   6.031  10.898 -2.1502 -0.8857 -2.7625
  902MOL0     H21752  13.394   6.015  10.825 -0.2305  0.1746 -0.1958
  902MOL0     H21753  13.196   6.144  10.747 -0.3371 -4.4135 -1.5545
  902MOL0     H21754  11.062   6.449  11.311  1.2423  1.9711 -0.8658
  902MOL0     H21755  10.818   6.420  11.246  1.6270  0.2071  2.3301
  902MOL0     H21756  10.539   6.626  10.913 -3.3833  3.4944 -3.2387
  902MOL0     H21757  10.322   6.707  10.858 -2.5790  0.3050  0.5427
  902MOL0     H21758  10.123   6.695  10.721 -1.2714  0.1557 -0.1226
  902MOL0     H21759  10.104   6.764  10.879  1.7929  1.0518 -1.3926
  902MOL0     H21760   9.888   6.622  10.715 -0.5247  2.2859 -2.5701
  902MOL0     H21761   9.910   6.798  10.730  0.5023 -1.6190 -3.3798
  902MOL0     H21762   9.846   6.804  10.972  0.0359  0.7752 -0.1500
  902MOL0     H21763   9.869   6.632  10.981 -1.1025  1.1488  1.5426
  902MOL0     H21764   9.648   6.683  11.001  0.4334 -3.8910 -0.6173
  902MOL0     H21765   9.645   6.800  10.867 -2.3751 -0.1043  1.4283
  902MOL0     H21766   9.513   6.420  10.692 -0.5974  2.0686 -2.3907
  902MOL0     H21767  10.159   6.321  10.987  0.8191 -0.7660  0.4013
  902MOL0     H21768  10.277   6.154  11.090 -0.4653  1.4563 -1.6899
  902MOL0     H21769  10.431   6.140  11.020 -0.1885 -2.1598  1.6986
  902MOL0     H21770  10.409   6.215  11.185 -0.3291 -2.5337  0.0260
  903MOL0     O21771   7.268   0.156   7.895  0.3257 -0.3038  0.4870
  903MOL0     C21772   7.223   0.059   7.942 -0.6185  0.2251 -0.3308
  903MOL0     O21773   7.297  -0.046   7.981  0.2989  0.0996 -0.9378
  903MOL0     C21774   7.423  -0.012   8.023  0.0789  0.6667  0.4507
  903MOL0     C21775   7.437   0.068   8.141  0.1696 -0.3803  0.4650
  903MOL0     C21776   7.563   0.103   8.190 -0.5048 -0.0286 -0.4667
  903MOL0     C21777   7.672   0.052   8.121 -0.3151  0.5320  0.0767
  903MOL0     O21778   7.794   0.082   8.175 -0.0206  0.3715 -0.3670
  903MOL0     C21779   7.859   0.172   8.093 -0.1114  0.3870 -0.4771
  903MOL0     C21780   7.998   0.195   8.161  0.1617  0.8424  0.2831
  903MOL0     C21781   8.104   0.250   8.061  0.3576  0.9377 -0.6973
  903MOL0     C21782   8.205   0.341   8.137  0.2543  0.2422  0.3294
  903MOL0     C21783   8.338   0.369   8.052  0.2978 -0.2070 -0.7480
  903MOL0     C21784   8.320   0.482   7.952  0.3282  0.3923 -0.0154
  903MOL0     C21785   8.455   0.520   7.895 -0.8225  0.3734 -0.3574
  903MOL0     C21786   8.441   0.626   7.781  0.2095 -0.4892 -0.3682
  903MOL0     N21787   8.573   0.681   7.757 -0.1932  0.1221 -0.3259
  903MOL0     C21788   8.597   0.753   7.642  0.7411  0.8761  0.4860
  903MOL0     C21789   8.706   0.817   7.665  1.0545  0.8459 -0.2977
  903MOL0     C21790   8.753   0.925   7.575  0.8218  0.5143 -0.3255
  903MOL0     C21791   8.895   0.973   7.592 -0.6693 -0.2623  0.6774
  903MOL0     C21792   8.994   0.856   7.565  0.5117 -0.2010  0.5140
  903MOL0     C21793   9.141   0.895   7.541  0.1819  0.2390  1.0547
  903MOL0     O21794   9.190   0.966   7.660  0.6438 -0.2153  0.0171
  903MOL0     C21795   9.318   0.996   7.680 -0.2383 -0.2970  0.2885
  903MOL0     C21796   9.419   0.958   7.595 -0.3928  0.3863 -0.1089
  903MOL0     C21797   9.556   0.999   7.623 -0.2938 -0.0724 -1.1483
  903MOL0     C21798   9.581   1.097   7.723 -0.6459  0.3975  0.2054
  903MOL0     C21799   9.712   1.165   7.739 -0.1097 -0.2129  0.2454
  903MOL0     O21800   9.731   1.239   7.852 -0.3702  0.3166 -0.2202
  903MOL0     C21801   9.853   1.303   7.872  0.1201 -0.8112 -0.2453
  903MOL0     C21802   9.944   1.358   7.781  0.1728 -0.2655 -0.5414
  903MOL0     C21803  10.067   1.416   7.816 -0.3161  0.1366 -0.3941
  903MOL0     C21804  10.108   1.409   7.950  0.4994 -0.6930  0.3379
  903MOL0     O21805  10.228   1.449   8.000  0.0878 -0.3925 -0.3420
  903MOL0     C21806  10.315   1.510   7.903 -0.3517 -0.4928 -0.7937
  903MOL0     C21807  10.447   1.545   7.973  0.4785 -0.3400 -0.6024
  903MOL0     C21808  10.435   1.661   8.079  0.5080  0.2772  0.3159
  903MOL0     C21809  10.555   1.701   8.155 -0.3633 -0.1974 -1.0010
  903MOL0     C21810  10.530   1.814   8.268  0.3090  0.1982 -0.3515
  903MOL0     C21811  10.649   1.834   8.365  0.8942 -0.1146  0.9328
  903MOL0     C21812  10.636   1.943   8.468 -1.0589  0.9243  0.6173
  903MOL0     C21813  10.755   1.943   8.566  0.4835 -0.3832  0.1155
  903MOL0    Cl21814  10.904   1.989   8.489 -0.3350  0.0075  0.1560
  903MOL0     C21815  10.017   1.352   8.039  0.0662 -0.5119 -0.0838
  903MOL0     C21816   9.893   1.308   8.003  1.1107  0.0477  0.4064
  903MOL0     O21817   9.799   1.144   7.656 -0.3593  0.0161 -0.1535
  903MOL0     C21818   9.478   1.134   7.805 -0.0167  0.0488 -0.6139
  903MOL0     C21819   9.347   1.091   7.782  0.3997  0.1159  0.2378
  903MOL0     N21820   8.765   0.767   7.781 -0.3098  0.1237 -0.0543
  903MOL0     N21821   8.688   0.686   7.836  0.7570  0.0768  0.0483
  903MOL0     C21822   7.660  -0.030   8.005 -0.2140  0.3389  0.6035
  903MOL0     C21823   7.534  -0.059   7.953  0.2428 -0.0161 -0.2863
  903MOL0     C21824   7.075   0.048   7.969 -0.1076 -0.1459  0.4942
  903MOL0     C21825   7.032  -0.045   8.069  0.6221 -0.0499  0.2632
  903MOL0     C21826   6.898  -0.061   8.099  0.0502  0.3634 -0.1209
  903MOL0     C21827   6.795   0.005   8.033 -0.2149 -0.7330 -0.1946
  903MOL0     O21828   6.666  -0.017   8.068  0.8373 -0.5407  0.0875
  903MOL0     C21829   6.563   0.046   7.989 -0.1266  0.4938 -0.2013
  903MOL0     C21830   6.535  -0.034   7.868 -0.0760  0.4777  0.1350
  903MOL0     C21831   6.502  -0.179   7.898 -0.3924 -0.2917 -0.4277
  903MOL0     C21832   6.360  -0.197   7.924  0.8469 -0.3227 -0.2846
  903MOL0     C21833   6.324  -0.335   7.930 -0.4413 -0.2519 -0.1386
  903MOL0     C21834   6.323  -0.455   7.952  0.4191  0.1758 -0.3961
  903MOL0     C21835   6.836   0.093   7.926  0.4826  0.1734 -0.1272
  903MOL0     C21836   6.970   0.111   7.895 -1.0127  0.5173  0.1947
  903MOL0     C21837   6.995   0.203   7.776  0.4194 -0.7390  0.2346
  903MOL0     H21838   7.341   0.091   8.185 -1.3117 -1.9008 -1.7098
  903MOL0     H21839   7.572   0.170   8.275 -0.0872 -0.6682 -0.0005
  903MOL0     H21840   7.871   0.123   7.996  0.0411 -0.0109 -0.2580
  903MOL0     H21841   7.811   0.268   8.070 -2.2887 -0.8975 -1.5576
  903MOL0     H21842   8.033   0.102   8.206 -0.8091  1.3386  2.1698
  903MOL0     H21843   7.991   0.264   8.246  2.4874  0.9310  0.4566
  903MOL0     H21844   8.065   0.300   7.972  1.3116  2.3593 -0.3503
  903MOL0     H21845   8.156   0.161   8.023  0.2531 -0.0573  1.3300
  903MOL0     H21846   8.149   0.428   8.170 -1.2582 -0.1587 -1.0410
  903MOL0     H21847   8.230   0.294   8.233  0.2997 -0.3448  0.0378
  903MOL0     H21848   8.407   0.400   8.132 -2.0581  1.9583  0.6251
  903MOL0     H21849   8.370   0.276   8.006 -2.1671 -1.3908 -0.2468
  903MOL0     H21850   8.262   0.445   7.867  0.3282 -5.2595  2.0226
  903MOL0     H21851   8.271   0.568   7.998  0.5818 -0.0616  1.1329
  903MOL0     H21852   8.510   0.430   7.864  0.4049  1.0798 -0.3150
  903MOL0     H21853   8.511   0.559   7.980  0.4819 -1.0036 -0.5326
  903MOL0     H21854   8.394   0.589   7.690  1.5071  0.3942 -1.4427
  903MOL0     H21855   8.372   0.705   7.813  0.9462 -0.7347  2.0550
  903MOL0     H21856   8.525   0.764   7.562  0.8281 -1.5002  0.0069
  903MOL0     H21857   8.730   0.902   7.470 -1.1873 -1.5954  0.4983
  903MOL0     H21858   8.690   1.010   7.601  0.0554  0.3256 -1.4607
  903MOL0     H21859   8.909   1.061   7.529 -2.7110 -0.2334  0.1816
  903MOL0     H21860   8.914   1.007   7.694  1.5428  1.1303 -0.1263
  903MOL0     H21861   8.956   0.790   7.486  1.6496  0.3947 -0.5551
  903MOL0     H21862   8.989   0.791   7.653  0.4569 -0.1939  0.5165
  903MOL0     H21863   9.148   0.963   7.456 -0.0361 -2.3112 -1.1168
  903MOL0     H21864   9.200   0.807   7.516  2.7993  2.0271  0.4557
  903MOL0     H21865   9.402   0.896   7.507  1.0977 -2.6452  1.5619
  903MOL0     H21866   9.634   0.959   7.560 -1.0226 -0.3863 -1.8751
  903MOL0     H21867   9.898   1.370   7.684 -0.5984  0.3927 -0.1076
  903MOL0     H21868  10.136   1.447   7.738 -1.4356  0.4117 -1.3018
  903MOL0     H21869  10.342   1.447   7.817  0.6616  0.4490 -1.1941
  903MOL0     H21870  10.267   1.602   7.870  1.5734  0.9641  0.2595
  903MOL0     H21871  10.463   1.457   8.036 -2.7467  0.2593  1.3039
  903MOL0     H21872  10.527   1.564   7.901  0.9255 -1.6934 -0.4834
  903MOL0     H21873  10.397   1.744   8.019  0.4256 -1.2720 -1.9148
  903MOL0     H21874  10.351   1.636   8.144  0.1274 -0.0462 -0.2880
  903MOL0     H21875  10.629   1.749   8.091  2.2847 -1.2208  1.1192
  903MOL0     H21876  10.597   1.609   8.196  0.6954  0.4332 -0.6361
  903MOL0     H21877  10.445   1.780   8.329  0.9924 -0.2269  0.3803
  903MOL0     H21878  10.521   1.911   8.218 -0.6837  0.3615  0.1224
  903MOL0     H21879  10.672   1.736   8.408  0.1967 -1.2759 -1.1849
  903MOL0     H21880  10.736   1.868   8.309  0.4591  0.8491  0.8355
  903MOL0     H21881  10.544   1.923   8.524 -0.9065  0.1342  0.6087
  903MOL0     H21882  10.629   2.043   8.424  1.8257 -0.1242 -2.7194
  903MOL0     H21883  10.726   2.015   8.644  2.0911 -2.4499  2.8174
  903MOL0     H21884  10.772   1.857   8.631  1.9875 -0.9074 -0.9341
  903MOL0     H21885  10.050   1.358   8.142  1.9050  2.9921 -0.7235
  903MOL0     H21886   9.821   1.280   8.079  3.1060  1.4107  2.9394
  903MOL0     H21887   9.491   1.204   7.887 -0.3135  1.4966 -1.7781
  903MOL0     H21888   9.261   1.118   7.842 -0.5534 -0.8281 -0.6660
  903MOL0     H21889   7.747  -0.086   7.974  0.9892 -1.5354  6.1152
  903MOL0     H21890   7.522  -0.123   7.866  1.1866  0.6764 -0.9591
  903MOL0     H21891   7.103  -0.093   8.136 -1.0355 -2.6389  0.2971
  903MOL0     H21892   6.873  -0.128   8.181  0.9643 -0.0354 -0.1563
  903MOL0     H21893   6.586   0.149   7.962 -0.5915  1.1442  1.7470
  903MOL0     H21894   6.476   0.050   8.055  0.1612 -1.4077  0.3522
  903MOL0     H21895   6.628  -0.038   7.810 -1.2318 -1.4615 -1.7234
  903MOL0     H21896   6.468   0.022   7.803 -0.9291  2.0750  2.2624
  903MOL0     H21897   6.567  -0.224   7.973  0.9264 -1.0077 -1.9451
  903MOL0     H21898   6.514  -0.235   7.805 -0.6742 -0.2752 -0.4747
  903MOL0     H21899   6.327  -0.151   8.018 -1.2043 -1.9467 -0.1235
  903MOL0     H21900   6.294  -0.157   7.847 -1.8115 -0.0645  1.9910
  903MOL0     H21901   6.306  -0.560   7.969 -1.7176  0.0835 -2.5537
  903MOL0     H21902   6.761   0.144   7.866  1.5083  2.1833  0.2461
  903MOL0     H21903   6.903   0.246   7.736 -0.8391 -0.9886  2.6627
  903MOL0     H21904   7.054   0.289   7.808 -1.2619 -0.1191  1.8672
  903MOL0     H21905   7.053   0.142   7.706  0.9824  0.6487 -0.5409
  904MOL0     O21906   9.264  10.845   1.016 -0.4869 -0.3861 -0.4466
  904MOL0     C21907   9.234  10.929   1.099  0.1495 -0.1313  0.4871
  904MOL0     O21908   9.315  10.985   1.195  0.0111 -0.5719  0.1126
  904MOL0     C21909   9.434  10.930   1.233 -0.0526  0.3989 -0.1366
  904MOL0     C21910   9.448  10.814   1.305  0.1041 -0.7284 -0.4502
  904MOL0     C21911   9.568  10.782   1.364 -0.3896  0.3962  0.2546
  904MOL0     C21912   9.683  10.860   1.341  0.5003 -0.2107 -0.3969
  904MOL0     O21913   9.806  10.830   1.391  0.4448  0.3329  0.0798
  904MOL0     C21914   9.926  10.856   1.312  0.4980  0.5582 -0.5850
  904MOL0     C21915  10.039  10.766   1.367 -0.4948 -0.0548 -0.4355
  904MOL0     C21916  10.054  10.786   1.520 -0.4617  0.2549 -0.4893
  904MOL0     C21917  10.181  10.712   1.557 -0.2977  0.3942 -0.3437
  904MOL0     C21918  10.221  10.731   1.700  0.1349 -0.5627 -0.7298
  904MOL0     C21919  10.337  10.633   1.732 -0.4317  0.2055 -0.7100
  904MOL0     C21920  10.413  10.691   1.852  0.8157  0.1837  0.3288
  904MOL0     C21921  10.464  10.838   1.831 -0.0747 -0.0113 -0.6412
  904MOL0     N21922  10.555  10.886   1.725  0.7899  0.3984 -0.1700
  904MOL0     C21923  10.658  10.970   1.747 -0.3494  0.5516 -0.4948
  904MOL0     C21924  10.703  10.995   1.621  0.1796 -0.2157  0.5688
  904MOL0     C21925  10.815  11.087   1.582 -0.2916  0.2957 -0.4316
  904MOL0     C21926  10.957  11.059   1.619 -0.1867  0.9135  0.9587
  904MOL0     C21927  11.014  10.927   1.573  0.6109 -0.5419 -0.0816
  904MOL0     C21928  11.169  10.916   1.607  0.3538 -0.6135  0.1307
  904MOL0     O21929  11.192  10.904   1.752  0.1118  0.4692  0.1434
  904MOL0     C21930  11.321  10.890   1.793  0.7144  0.7560  0.2454
  904MOL0     C21931  11.341  10.900   1.927  0.4471  0.0900  0.4701
  904MOL0     C21932  11.467  10.896   1.986 -1.1161 -0.4215  0.5003
  904MOL0     C21933  11.580  10.874   1.901  0.1559  0.3941 -0.2993
  904MOL0     C21934  11.722  10.865   1.956  0.2414 -0.0638  0.1089
  904MOL0     O21935  11.817  10.794   1.883 -0.2311 -0.2587  0.1564
  904MOL0     C21936  11.948  10.801   1.934 -0.9011 -0.2394 -0.2231
  904MOL0     C21937  12.022  10.917   1.926 -0.1814  0.3641 -0.3846
  904MOL0     C21938  12.151  10.914   1.981 -0.0947 -0.1733  0.2929
  904MOL0     C21939  12.204  10.807   2.049  0.5004  0.2944 -0.0149
  904MOL0     O21940  12.335  10.806   2.091  0.0006  0.1129  0.5267
  904MOL0     C21941  12.402  10.934   2.099  0.1337  0.1322  0.3245
  904MOL0     C21942  12.535  10.920   2.170  0.4683  0.3268 -0.1679
  904MOL0     C21943  12.630  10.833   2.092  0.2892  0.0738 -1.0213
  904MOL0     C21944  12.740  10.777   2.181 -0.5301 -0.6589  1.1426
  904MOL0     C21945  12.857  10.705   2.096  0.4109 -0.3380 -0.6360
  904MOL0     C21946  12.963  10.676   2.208  0.3632 -0.0764 -0.5549
  904MOL0     C21947  13.095  10.631   2.159 -0.8151  0.0345  0.0081
  904MOL0     C21948  13.171  10.736   2.088  0.0025  0.6112  0.3829
  904MOL0    Cl21949  13.243  10.837   2.230  0.4166 -0.0627  0.1144
  904MOL0     C21950  12.125  10.695   2.075 -0.8716 -0.0653 -0.0342
  904MOL0     C21951  12.000  10.696   2.007  0.2219  0.1765 -0.5345
  904MOL0     O21952  11.735  10.906   2.066  0.3198 -0.2288 -0.5684
  904MOL0     C21953  11.566  10.863   1.765  0.0735  0.0404  0.2614
  904MOL0     C21954  11.437  10.876   1.712  0.3113  0.5727 -0.7070
  904MOL0     N21955  10.627  10.930   1.525  0.1919 -0.0520 -0.3788
  904MOL0     N21956  10.538  10.862   1.595 -1.1314 -0.2324  0.0079
  904MOL0     C21957   9.664  10.977   1.262  0.6790 -0.2215 -0.2381
  904MOL0     C21958   9.540  11.013   1.213 -1.0506 -0.5357 -1.3812
  904MOL0     C21959   9.104  10.980   1.098  0.2844  0.9744  0.1954
  904MOL0     C21960   9.007  10.902   1.038 -0.0406 -0.2609  0.1810
  904MOL0     C21961   8.869  10.946   1.037 -1.0440  0.2575 -0.1765
  904MOL0     C21962   8.832  11.068   1.088 -0.1417  0.8934 -0.2592
  904MOL0     O21963   8.700  11.115   1.071  0.0278  0.2181 -1.2028
  904MOL0     C21964   8.669  11.250   1.121  1.0106  0.8324  0.6011
  904MOL0     C21965   8.530  11.289   1.077  1.0015 -0.3249  0.4130
  904MOL0     C21966   8.426  11.188   1.129  0.2798 -0.6700 -0.7085
  904MOL0     C21967   8.444  11.159   1.282  0.0816  0.6145  0.0701
  904MOL0     C21968   8.329  11.101   1.342  0.3946 -0.2993 -0.4185
  904MOL0     C21969   8.225  11.065   1.393  0.4361  0.0349 -0.2257
  904MOL0     C21970   8.931  11.147   1.139 -0.3437 -0.9162 -0.3046
  904MOL0     C21971   9.064  11.102   1.150 -0.8731 -0.4337 -0.1907
  904MOL0     C21972   9.154  11.196   1.225  0.2203  0.0910  0.5180
  904MOL0     H21973   9.365  10.748   1.328  0.1966 -0.7217 -0.0901
  904MOL0     H21974   9.583  10.690   1.419 -0.0026  0.7934  0.8298
  904MOL0     H21975   9.915  10.850   1.203  0.4243  3.8196 -0.8669
  904MOL0     H21976   9.964  10.957   1.331  1.3393  0.3356 -1.0157
  904MOL0     H21977  10.134  10.794   1.319  0.6802 -0.9735  1.2512
  904MOL0     H21978  10.028  10.663   1.331 -0.6485 -0.1388 -0.1533
  904MOL0     H21979   9.969  10.745   1.576  0.0640  0.9990  0.9102
  904MOL0     H21980  10.058  10.891   1.551  1.4512 -0.4207  1.9531
  904MOL0     H21981  10.165  10.606   1.533  0.0139  0.6512 -1.7614
  904MOL0     H21982  10.274  10.741   1.507  0.0668 -1.1580 -0.6231
  904MOL0     H21983  10.259  10.834   1.705 -1.1765 -0.1073  1.1440
  904MOL0     H21984  10.135  10.718   1.767  0.6684  1.7917  0.5315
  904MOL0     H21985  10.305  10.532   1.759  0.9664 -0.0608  0.0535
  904MOL0     H21986  10.414  10.632   1.655  0.2627  0.1411 -0.0272
  904MOL0     H21987  10.503  10.633   1.875 -0.0469 -0.7563  1.3943
  904MOL0     H21988  10.350  10.668   1.938 -0.0125 -0.7583 -0.4944
  904MOL0     H21989  10.374  10.897   1.848 -1.3723 -1.8754 -0.6622
  904MOL0     H21990  10.528  10.855   1.918 -0.6425 -3.7647  0.7085
  904MOL0     H21991  10.696  11.015   1.838 -2.9182  1.4081  0.2351
  904MOL0     H21992  10.811  11.099   1.473  2.0118 -2.4302 -0.9279
  904MOL0     H21993  10.788  11.177   1.638 -0.8040  0.5411 -1.0592
  904MOL0     H21994  11.016  11.136   1.568 -2.1339  0.1302 -2.8289
  904MOL0     H21995  10.963  11.070   1.727 -1.6707  2.1129  0.9542
  904MOL0     H21996  11.018  10.929   1.464 -2.3636  1.9137 -0.2871
  904MOL0     H21997  10.955  10.846   1.618  0.6877 -0.4011  0.2811
  904MOL0     H21998  11.219  11.002   1.562 -3.5280  0.8557 -1.9448
  904MOL0     H21999  11.197  10.826   1.553 -1.4241  0.6330 -3.1930
  904MOL0     H22000  11.252  10.911   1.988  0.1028 -0.1909  0.0250
  904MOL0     H22001  11.493  10.912   2.090 -1.6293 -1.4084  0.7859
  904MOL0     H22002  11.977  10.997   1.868 -0.5170  2.3839  2.4790
  904MOL0     H22003  12.201  11.010   1.981  2.4551 -1.3356 -2.0621
  904MOL0     H22004  12.415  10.983   2.002  1.6268 -0.3501  0.2484
  904MOL0     H22005  12.335  10.999   2.156 -1.3149 -0.9266 -0.1359
  904MOL0     H22006  12.570  11.023   2.175  0.2007  0.3861  0.6720
  904MOL0     H22007  12.520  10.881   2.272  0.0652 -0.9964 -0.7102
  904MOL0     H22008  12.575  10.747   2.052 -0.2840  0.1376 -0.3916
  904MOL0     H22009  12.672  10.899   2.015  1.3807  2.1680  1.2247
  904MOL0     H22010  12.689  10.710   2.252 -1.2759 -0.6335  0.6415
  904MOL0     H22011  12.785  10.859   2.238  3.6961 -3.1049  1.7500
  904MOL0     H22012  12.900  10.773   2.021  2.2614  0.2980  0.9209
  904MOL0     H22013  12.828  10.610   2.051 -0.1623 -0.0557 -0.8785
  904MOL0     H22014  12.979  10.759   2.277  2.8293 -0.4665 -0.5856
  904MOL0     H22015  12.933  10.593   2.273  0.4126 -0.6587 -1.2586
  904MOL0     H22016  13.089  10.546   2.092  3.5940  0.8538 -1.7907
  904MOL0     H22017  13.150  10.594   2.246  0.1123  1.3201 -0.0004
  904MOL0     H22018  13.261  10.699   2.039  1.0705  2.3353  0.9127
  904MOL0     H22019  13.109  10.786   2.013 -0.0913 -0.8276 -0.5379
  904MOL0     H22020  12.169  10.600   2.104 -0.5477  0.2191  0.4229
  904MOL0     H22021  11.953  10.599   1.988 -0.4955  0.2743  0.6379
  904MOL0     H22022  11.659  10.851   1.711 -0.9383  0.7447 -1.7518
  904MOL0     H22023  11.435  10.867   1.604 -1.6658 -2.4011 -0.5422
  904MOL0     H22024   9.740  11.049   1.236  1.1356 -1.0255 -1.2120
  904MOL0     H22025   9.528  11.110   1.165  0.8635  0.6771  0.4403
  904MOL0     H22026   9.031  10.808   0.990 -1.8216 -1.0272  0.6901
  904MOL0     H22027   8.791  10.883   0.996  0.6227 -2.5395  0.6849
  904MOL0     H22028   8.734  11.319   1.066  0.0626 -1.1527 -3.3391
  904MOL0     H22029   8.687  11.274   1.227  2.5047  0.3570  0.4776
  904MOL0     H22030   8.527  11.297   0.968  4.3240  0.4309  0.2782
  904MOL0     H22031   8.505  11.386   1.121 -0.0316  0.4663 -1.7422
  904MOL0     H22032   8.434  11.096   1.070  0.6587  0.1210 -1.9148
  904MOL0     H22033   8.329  11.236   1.115 -0.6896 -2.3356 -0.0368
  904MOL0     H22034   8.528  11.092   1.299  0.9662  1.7147  0.1437
  904MOL0     H22035   8.478  11.245   1.341 -0.4915  0.9258 -0.0363
  904MOL0     H22036   8.132  11.039   1.439 -0.9456  0.1595 -2.7954
  904MOL0     H22037   8.908  11.242   1.187  0.0676  0.0725 -1.9782
  904MOL0     H22038   9.183  11.144   1.317 -0.3684  0.9686  1.2184
  904MOL0     H22039   9.241  11.211   1.160 -0.0266 -0.4628  0.0467
  904MOL0     H22040   9.105  11.289   1.255 -1.5840 -0.1561 -1.4495
  905MOL0     O22041   4.975   9.951   5.063  0.7280 -0.5843  0.5820
  905MOL0     C22042   4.944   9.862   4.986  0.1739  0.6457 -0.3822
  905MOL0     O22043   5.029   9.808   4.890  0.0345 -0.7571 -0.5623
  905MOL0     C22044   5.157   9.855   4.881  0.6788 -0.2283  0.4746
  905MOL0     C22045   5.261   9.810   4.963 -0.3547  0.2772  0.5140
  905MOL0     C22046   5.394   9.870   4.934  0.2260  0.2851 -0.5557
  905MOL0     C22047   5.408   9.975   4.844  0.0669  0.4735  0.5906
  905MOL0     O22048   5.536  10.010   4.825  0.7308  0.1605  0.7350
  905MOL0     C22049   5.557  10.139   4.772 -0.1189  0.0845  0.1285
  905MOL0     C22050   5.688  10.177   4.846 -0.1896  0.2940 -0.1824
  905MOL0     C22051   5.806  10.081   4.801  0.1680 -0.1102 -0.0072
  905MOL0     C22052   5.939  10.127   4.870 -0.2579  0.4057  0.0051
  905MOL0     C22053   6.051  10.022   4.852 -0.2012 -0.9589 -1.0919
  905MOL0     C22054   6.164  10.069   4.938 -0.6382  0.3014  0.1367
  905MOL0     C22055   6.298  10.002   4.913 -0.2986 -0.0248  1.2602
  905MOL0     C22056   6.365  10.059   4.790 -0.3021 -0.2945  0.0074
  905MOL0     N22057   6.442  10.180   4.816 -0.0000 -0.0959 -1.0188
  905MOL0     C22058   6.561  10.181   4.884  0.7872  0.5537 -0.3666
  905MOL0     C22059   6.598  10.305   4.865 -0.1423 -0.1212 -0.2786
  905MOL0     C22060   6.730  10.355   4.921 -1.0146  0.3488 -0.2467
  905MOL0     C22061   6.791  10.474   4.844  0.4217 -0.5029  0.0459
  905MOL0     C22062   6.892  10.540   4.930 -0.0617 -0.6437 -0.5601
  905MOL0     C22063   6.971  10.649   4.859  0.0025 -1.3991  0.0890
  905MOL0     O22064   7.102  10.600   4.846  0.4679 -0.5001 -0.1887
  905MOL0     C22065   7.216  10.671   4.806  0.2348 -0.7975 -0.1903
  905MOL0     C22066   7.207  10.805   4.773  0.0235  1.1607 -0.3968
  905MOL0     C22067   7.319  10.882   4.746  0.0858  0.2340 -0.4508
  905MOL0     C22068   7.448  10.828   4.759  0.2635 -0.5174  0.3931
  905MOL0     C22069   7.568  10.920   4.759 -0.4653 -0.7681  0.3067
  905MOL0     O22070   7.683  10.865   4.715 -1.2150 -0.7161 -0.0548
  905MOL0     C22071   7.799  10.933   4.721 -0.5265  0.8424  0.1411
  905MOL0     C22072   7.856  10.998   4.837 -0.2825  0.1032  0.1033
  905MOL0     C22073   7.985  11.052   4.841 -0.4812 -0.2468  0.5490
  905MOL0     C22074   8.061  11.020   4.728 -0.1637  0.1041  0.6011
  905MOL0     O22075   8.199  11.039   4.740  0.2692  0.2154  0.2456
  905MOL0     C22076   8.260  11.123   4.637  0.9644  0.3775 -0.6790
  905MOL0     C22077   8.382  11.185   4.691 -0.1482  0.3772  0.5501
  905MOL0     C22078   8.366  11.262   4.816 -0.7346 -0.7632 -0.3289
  905MOL0     C22079   8.283  11.388   4.800 -0.5204  0.9268 -0.0525
  905MOL0     C22080   8.301  11.480   4.923 -0.0173  0.1563 -0.4973
  905MOL0     C22081   8.221  11.610   4.903  0.4102  0.8741  0.2246
  905MOL0     C22082   8.073  11.576   4.915 -0.0298 -0.2651  0.2972
  905MOL0     C22083   7.990  11.704   4.924  0.4931 -0.1147 -0.2406
  905MOL0    Cl22084   8.038  11.825   4.793  0.3292 -0.1396 -0.2518
  905MOL0     C22085   8.008  10.965   4.613  0.0294 -0.4412  0.1949
  905MOL0     C22086   7.877  10.926   4.608  0.0183 -0.4182 -0.8024
  905MOL0     O22087   7.557  11.035   4.802 -0.3877 -0.0229  0.6023
  905MOL0     C22088   7.457  10.693   4.772  0.4952  0.3162  1.1474
  905MOL0     C22089   7.344  10.610   4.794 -0.1534 -0.5560  0.2538
  905MOL0     N22090   6.508  10.381   4.801  0.8689 -0.5153  0.7309
  905MOL0     N22091   6.408  10.303   4.772 -0.8138  0.1047  0.2567
  905MOL0     C22092   5.301  10.015   4.773  0.1987 -0.4780 -0.3822
  905MOL0     C22093   5.171   9.955   4.787 -0.3258 -0.5886 -0.2342
  905MOL0     C22094   4.805   9.815   4.988 -0.2849 -0.8089  0.2130
  905MOL0     C22095   4.746   9.796   5.116  1.1657  0.0752 -0.4045
  905MOL0     C22096   4.607   9.752   5.129  0.0850  0.6414  0.4631
  905MOL0     C22097   4.536   9.719   5.016 -0.8090 -0.1209  0.3078
  905MOL0     O22098   4.409   9.680   5.020  0.7392  0.9415  0.7347
  905MOL0     C22099   4.315   9.772   4.973  1.1601  0.4207 -0.8231
  905MOL0     C22100   4.194   9.694   4.913  0.7012  0.5136 -0.6340
  905MOL0     C22101   4.091   9.645   5.017  0.8727 -0.4784 -0.1843
  905MOL0     C22102   3.977   9.574   4.941 -0.0487 -0.2117  0.5951
  905MOL0     C22103   3.850   9.570   5.024 -0.6649  0.6683  0.8697
  905MOL0     C22104   3.757   9.534   5.088  0.0877 -0.2375 -0.0120
  905MOL0     C22105   4.600   9.725   4.892  0.8617 -1.1002 -0.1822
  905MOL0     C22106   4.729   9.787   4.874  0.4098  0.3973  0.1187
  905MOL0     C22107   4.776   9.807   4.739  0.1091 -0.0894  0.4182
  905MOL0     H22108   5.242   9.737   5.040 -3.6183 -0.4882 -0.8644
  905MOL0     H22109   5.472   9.842   5.004  0.2409  2.1125  0.2340
  905MOL0     H22110   5.563  10.131   4.663 -4.8737 -2.9993 -0.1920
  905MOL0     H22111   5.473  10.205   4.792 -1.1580 -0.9970 -0.5424
  905MOL0     H22112   5.677  10.172   4.955  1.0621  0.8704 -0.0221
  905MOL0     H22113   5.715  10.281   4.830 -1.8825  0.5942 -1.3075
  905MOL0     H22114   5.816  10.082   4.692  0.4680 -0.6628  0.0095
  905MOL0     H22115   5.783   9.977   4.828 -0.9747  0.0482 -0.3326
  905MOL0     H22116   5.977  10.218   4.822  0.4865 -0.0204 -0.2284
  905MOL0     H22117   5.921  10.147   4.976  1.7867  1.2028  0.2486
  905MOL0     H22118   6.018   9.922   4.880 -1.7308 -0.7983 -2.1951
  905MOL0     H22119   6.081  10.026   4.747 -0.5674  0.1751 -1.1685
  905MOL0     H22120   6.190  10.174   4.923  1.9432 -0.5772 -2.3841
  905MOL0     H22121   6.141  10.058   5.045  2.2586  2.5201  1.1452
  905MOL0     H22122   6.276   9.896   4.898  1.8713 -0.6013  1.7310
  905MOL0     H22123   6.356  10.023   5.004 -0.3555  0.1996  1.2457
  905MOL0     H22124   6.436   9.991   4.741  2.1042  0.6661  1.9569
  905MOL0     H22125   6.289  10.096   4.720  0.0827 -1.1671 -0.8952
  905MOL0     H22126   6.604  10.095   4.932 -2.1611 -1.6465 -1.3622
  905MOL0     H22127   6.707  10.380   5.025 -2.5109  1.2324 -0.7494
  905MOL0     H22128   6.801  10.274   4.906  1.9300  2.9517 -1.2963
  905MOL0     H22129   6.844  10.435   4.756  2.0472 -1.3806  1.3400
  905MOL0     H22130   6.720  10.548   4.807  1.0675  0.7055  1.1428
  905MOL0     H22131   6.952  10.459   4.973  0.7018 -0.0158 -0.4092
  905MOL0     H22132   6.836  10.589   5.010  2.4263  0.9601  0.3139
  905MOL0     H22133   6.981  10.740   4.918 -0.3622 -0.1850 -1.6380
  905MOL0     H22134   6.922  10.688   4.769  2.1239  4.1527  0.9195
  905MOL0     H22135   7.106  10.843   4.764 -0.3765  0.1326 -0.4066
  905MOL0     H22136   7.308  10.987   4.725  1.7251  0.1225 -2.1226
  905MOL0     H22137   7.803  11.005   4.932  0.1357  2.6240  0.2390
  905MOL0     H22138   8.021  11.101   4.931 -1.1862  0.6900  0.3359
  905MOL0     H22139   8.279  11.065   4.546 -1.1143  0.1400 -1.0017
  905MOL0     H22140   8.192  11.204   4.610  1.5833  1.0930 -0.1495
  905MOL0     H22141   8.450  11.103   4.718 -0.0782  0.4452  0.5773
  905MOL0     H22142   8.425  11.247   4.612 -1.0529  2.2945  1.5098
  905MOL0     H22143   8.328  11.190   4.890 -0.3525  0.4769  1.1149
  905MOL0     H22144   8.469  11.281   4.848 -0.2102 -0.4866 -2.0861
  905MOL0     H22145   8.182  11.350   4.785  0.0023 -1.2888  1.5927
  905MOL0     H22146   8.305  11.443   4.708 -1.2808  2.7688  0.8122
  905MOL0     H22147   8.409  11.493   4.934  0.2189 -2.6876  1.7920
  905MOL0     H22148   8.260  11.442   5.017  0.0517 -1.0473 -0.9420
  905MOL0     H22149   8.252  11.673   4.987 -0.5861  0.2245  1.1141
  905MOL0     H22150   8.231  11.662   4.807 -0.3450 -0.6467 -0.7190
  905MOL0     H22151   8.060  11.507   4.999 -0.7825  1.6679  1.8565
  905MOL0     H22152   8.038  11.529   4.823  3.6049 -0.4838 -1.1106
  905MOL0     H22153   7.888  11.668   4.913  0.0442  0.7300  1.0120
  905MOL0     H22154   7.999  11.756   5.019 -0.5121  2.5687 -1.5108
  905MOL0     H22155   8.085  10.933   4.544 -0.4956  0.3735 -0.8059
  905MOL0     H22156   7.844  10.882   4.514  0.8890 -2.0868 -0.3679
  905MOL0     H22157   7.559  10.656   4.772  0.6661  0.7613  2.1153
  905MOL0     H22158   7.362  10.504   4.808  0.3242 -0.6577 -1.0345
  905MOL0     H22159   5.310  10.087   4.692 -1.5020 -0.3767 -0.5201
  905MOL0     H22160   5.086   9.993   4.732  0.4162  2.7232  0.6416
  905MOL0     H22161   4.801   9.810   5.208 -0.1611 -0.0950  0.4415
  905MOL0     H22162   4.561   9.739   5.226 -0.4426  0.4451  0.1905
  905MOL0     H22163   4.350   9.833   4.889 -3.7227  1.9396 -2.0845
  905MOL0     H22164   4.280   9.835   5.055  0.7324 -1.1093  0.2295
  905MOL0     H22165   4.227   9.609   4.852  0.0073 -0.6663  0.5778
  905MOL0     H22166   4.137   9.763   4.851 -1.6286  3.3005  4.0220
  905MOL0     H22167   4.038   9.725   5.071 -1.5068 -2.7945  1.1886
  905MOL0     H22168   4.134   9.583   5.096  1.3869  1.6720  1.3171
  905MOL0     H22169   3.958   9.604   4.838  1.3929  1.9312  0.8743
  905MOL0     H22170   4.017   9.472   4.934  1.4693  0.4902 -3.2691
  905MOL0     H22171   3.680   9.494   5.150  0.5001 -0.9140  0.0764
  905MOL0     H22172   4.553   9.691   4.800 -0.4283  0.3064 -0.0833
  905MOL0     H22173   4.691   9.810   4.670 -1.0197 -2.9034  1.5455
  905MOL0     H22174   4.818   9.907   4.727  3.5042 -1.0887  2.4617
  905MOL0     H22175   4.856   9.734   4.723  0.1094  0.0515 -0.2493
  906MOL0     O22176   1.494   5.623  10.049  0.1520 -0.5804  0.0586
  906MOL0     C22177   1.503   5.688   9.942  0.6327  0.4200 -0.1576
  906MOL0     O22178   1.597   5.687   9.848  0.0878  0.9869 -0.2914
  906MOL0     C22179   1.726   5.662   9.887  0.4042  0.3869  0.3950
  906MOL0     C22180   1.808   5.725   9.983  0.1591  0.5983  0.0722
  906MOL0     C22181   1.940   5.685  10.010  0.6204 -0.4384  0.3438
  906MOL0     C22182   1.987   5.564   9.954 -0.5283  0.0777  0.1017
  906MOL0     O22183   2.110   5.516   9.974  0.6510 -0.5342  0.2583
  906MOL0     C22184   2.211   5.610  10.028  0.0376 -0.3044  0.9814
  906MOL0     C22185   2.341   5.544   9.994  0.1816 -0.5382 -0.5917
  906MOL0     C22186   2.461   5.622  10.051 -0.5804  0.3519  0.3282
  906MOL0     C22187   2.588   5.541  10.038 -0.9640 -0.9410  0.6445
  906MOL0     C22188   2.709   5.629  10.063 -0.3178 -1.0039 -0.6379
  906MOL0     C22189   2.828   5.553  10.113 -0.4835  0.3544 -0.5302
  906MOL0     C22190   2.952   5.647  10.114 -0.3441  0.1896  0.5305
  906MOL0     C22191   3.069   5.579  10.188  0.1305 -0.1491  0.9402
  906MOL0     N22192   3.097   5.453  10.115 -0.0403 -0.0054 -0.4704
  906MOL0     C22193   3.166   5.435   9.999 -0.1129  0.7653 -0.8152
  906MOL0     C22194   3.171   5.302   9.993  0.8713  0.8255  0.6223
  906MOL0     C22195   3.243   5.231   9.880  1.3477  0.4741 -0.1690
  906MOL0     C22196   3.385   5.268   9.872 -0.0216 -0.4895 -0.0086
  906MOL0     C22197   3.458   5.187   9.767 -0.9758  0.8095  0.8430
  906MOL0     C22198   3.601   5.228   9.725 -0.4526  0.3081 -0.3710
  906MOL0     O22199   3.695   5.234   9.831  0.4459  0.4862  0.1120
  906MOL0     C22200   3.831   5.217   9.794  0.0035 -0.6361  0.1488
  906MOL0     C22201   3.928   5.219   9.901 -0.1550 -0.4690  0.3456
  906MOL0     C22202   4.070   5.215   9.869 -0.0521 -0.0700  0.1278
  906MOL0     C22203   4.121   5.228   9.739 -0.0709  0.2350  0.0005
  906MOL0     C22204   4.268   5.230   9.715  0.1324  1.2119 -0.3772
  906MOL0     O22205   4.307   5.204   9.586  0.0733 -0.0190 -0.6456
  906MOL0     C22206   4.437   5.230   9.546 -0.1720  0.0313  0.2391
  906MOL0     C22207   4.478   5.361   9.532  0.4083 -0.0686  0.4809
  906MOL0     C22208   4.605   5.396   9.487 -0.6919  0.2312 -0.0607
  906MOL0     C22209   4.692   5.287   9.458  0.1793 -1.0882 -0.6505
  906MOL0     O22210   4.819   5.316   9.413 -0.2477 -0.2344  0.1739
  906MOL0     C22211   4.819   5.396   9.293  0.1785 -0.9260  0.4336
  906MOL0     C22212   4.971   5.397   9.240 -0.0766 -0.0699 -0.8368
  906MOL0     C22213   5.059   5.468   9.340 -0.2432 -0.7714 -0.1530
  906MOL0     C22214   5.212   5.449   9.315  0.4254 -0.2424  1.2640
  906MOL0     C22215   5.290   5.480   9.444  0.0786 -0.5003  0.4757
  906MOL0     C22216   5.441   5.485   9.433  0.0569 -0.5255 -0.0773
  906MOL0     C22217   5.499   5.562   9.307 -0.8324 -0.5443 -1.1104
  906MOL0     C22218   5.531   5.492   9.180 -1.2480 -0.0511  0.0720
  906MOL0    Cl22219   5.687   5.394   9.200  0.2167  0.3321  0.1126
  906MOL0     C22220   4.645   5.161   9.455 -0.5995  0.0111 -0.2175
  906MOL0     C22221   4.517   5.133   9.501 -0.0626 -0.3552  0.9030
  906MOL0     O22222   4.341   5.263   9.811 -0.7286  0.2634 -0.8529
  906MOL0     C22223   4.027   5.232   9.634 -0.6999 -0.1535 -0.5565
  906MOL0     C22224   3.883   5.231   9.661 -0.1496 -0.2112 -0.7537
  906MOL0     N22225   3.110   5.235  10.093 -0.2945  0.1151  0.2439
  906MOL0     N22226   3.067   5.327  10.166  0.7694 -0.3434 -0.5973
  906MOL0     C22227   1.910   5.496   9.856  0.5915  0.4146 -0.0598
  906MOL0     C22228   1.778   5.545   9.823  0.3353  0.1067  0.0002
  906MOL0     C22229   1.401   5.790   9.908 -0.3213 -0.9197  0.8371
  906MOL0     C22230   1.437   5.910   9.837 -0.4583 -0.7881 -0.7800
  906MOL0     C22231   1.352   6.015   9.810  0.0907  0.4168  0.8692
  906MOL0     C22232   1.216   5.996   9.822  0.2204 -0.0079  0.0242
  906MOL0     O22233   1.133   6.102   9.772 -0.8959  0.3798  0.3882
  906MOL0     C22234   1.094   6.084   9.633 -0.0151 -0.1056  0.0127
  906MOL0     C22235   0.948   6.048   9.616 -0.2638 -0.1704  0.3215
  906MOL0     C22236   0.864   6.144   9.693 -0.0814 -1.0938 -1.1005
  906MOL0     C22237   0.714   6.122   9.667  0.1045  0.3327 -0.2045
  906MOL0     C22238   0.687   6.152   9.525 -0.5032  0.2594  0.1527
  906MOL0     C22239   0.669   6.178   9.409  0.1264  0.0038 -0.7132
  906MOL0     C22240   1.165   5.879   9.885 -0.2514 -0.0275  0.1495
  906MOL0     C22241   1.259   5.777   9.927  0.3125 -0.3273  0.1830
  906MOL0     C22242   1.208   5.655   9.997 -0.3938  0.1189 -0.3528
  906MOL0     H22243   1.762   5.799  10.048  0.5833 -0.8170  2.0647
  906MOL0     H22244   1.988   5.747  10.085  1.1019  2.9086 -2.4349
  906MOL0     H22245   2.218   5.711   9.988  1.2184 -0.8992 -0.3939
  906MOL0     H22246   2.179   5.605  10.133 -2.4775 -2.3491  0.2170
  906MOL0     H22247   2.352   5.541   9.885  0.0474 -0.4836 -0.6074
  906MOL0     H22248   2.337   5.444  10.038  0.4919  0.1034  0.9258
  906MOL0     H22249   2.438   5.628  10.158 -1.4083 -0.5204  0.2137
  906MOL0     H22250   2.461   5.724  10.012  0.9813  0.4833  0.6311
  906MOL0     H22251   2.595   5.463  10.114  1.0909 -1.9753 -0.5337
  906MOL0     H22252   2.599   5.493   9.940  0.6191 -0.8582  0.7488
  906MOL0     H22253   2.736   5.675   9.968 -1.0901  1.4038  0.2431
  906MOL0     H22254   2.694   5.700  10.145  3.0014  0.8656 -1.4780
  906MOL0     H22255   2.811   5.519  10.216 -1.0118 -1.5117 -1.1989
  906MOL0     H22256   2.833   5.462  10.053 -1.4570  1.1709 -1.9183
  906MOL0     H22257   2.922   5.745  10.154  0.9032  0.7304  0.1865
  906MOL0     H22258   2.985   5.659  10.011  1.2558  0.1476  1.0195
  906MOL0     H22259   3.157   5.645  10.187 -2.0343  2.9489  0.2680
  906MOL0     H22260   3.036   5.568  10.292 -1.3713 -0.5085  0.4444
  906MOL0     H22261   3.202   5.517   9.938  0.0046  0.4965 -1.1078
  906MOL0     H22262   3.232   5.123   9.887 -0.4193  0.6854  0.8773
  906MOL0     H22263   3.192   5.256   9.786 -0.5011  0.9856  0.9335
  906MOL0     H22264   3.395   5.376   9.854  0.5054 -0.2499  1.5671
  906MOL0     H22265   3.427   5.254   9.972  0.7946  2.6151  0.2049
  906MOL0     H22266   3.397   5.202   9.678  0.8659 -0.1140 -0.6353
  906MOL0     H22267   3.463   5.083   9.801  0.8053  0.2832 -0.8644
  906MOL0     H22268   3.604   5.329   9.683  3.6801  1.0225  1.1107
  906MOL0     H22269   3.629   5.156   9.648 -0.1738 -0.8236  0.7563
  906MOL0     H22270   3.908   5.219  10.007  0.3001  0.3511  0.4473
  906MOL0     H22271   4.134   5.217   9.957  0.9828  1.5569 -0.6070
  906MOL0     H22272   4.401   5.434   9.555  0.7630  1.7714 -3.4317
  906MOL0     H22273   4.640   5.498   9.478 -1.2299  1.0405  4.4709
  906MOL0     H22274   4.754   5.364   9.211  1.8774 -1.4368 -0.7991
  906MOL0     H22275   4.806   5.501   9.318  1.4381 -1.2566  2.7469
  906MOL0     H22276   5.003   5.292   9.243  1.6066  0.4151 -0.2541
  906MOL0     H22277   4.989   5.434   9.139  2.2514  0.1865 -0.3952
  906MOL0     H22278   5.038   5.575   9.332  1.2264 -0.5187 -1.0059
  906MOL0     H22279   5.038   5.432   9.442 -2.0448  0.4856 -0.0256
  906MOL0     H22280   5.242   5.506   9.227  4.0360 -1.9304  1.1944
  906MOL0     H22281   5.241   5.347   9.289 -0.4248 -0.6555  1.8774
  906MOL0     H22282   5.261   5.418   9.529 -0.5023  4.0160  3.9429
  906MOL0     H22283   5.262   5.580   9.479  2.8941  0.3679  0.5279
  906MOL0     H22284   5.477   5.522   9.530 -1.1685  0.8208 -0.1145
  906MOL0     H22285   5.482   5.384   9.428 -1.8358 -1.3467  0.0333
  906MOL0     H22286   5.592   5.611   9.338 -2.1730  1.4733 -0.0262
  906MOL0     H22287   5.437   5.652   9.306  1.8092  1.8689  4.4509
  906MOL0     H22288   5.450   5.427   9.146 -1.1323  0.5028 -1.3170
  906MOL0     H22289   5.541   5.562   9.097 -1.3172  0.3975  0.4344
  906MOL0     H22290   4.701   5.076   9.418 -0.9271 -0.4354  0.2907
  906MOL0     H22291   4.482   5.032   9.484  1.4075 -0.6939 -0.3404
  906MOL0     H22292   4.060   5.227   9.530 -2.0178 -0.1188 -1.0026
  906MOL0     H22293   3.813   5.224   9.578 -0.1752  1.9605 -0.9665
  906MOL0     H22294   1.948   5.404   9.813  0.4102 -0.3746  1.4164
  906MOL0     H22295   1.725   5.487   9.748  0.0888 -1.5015  1.3438
  906MOL0     H22296   1.540   5.932   9.808 -0.1162 -0.4084  0.6400
  906MOL0     H22297   1.391   6.107   9.768  2.1391 -1.3427 -1.4098
  906MOL0     H22298   1.167   6.016   9.587 -0.0901 -0.9463  1.0777
  906MOL0     H22299   1.117   6.181   9.589  5.0212 -0.2233  1.7110
  906MOL0     H22300   0.934   5.948   9.659 -0.6541  0.5694  2.0198
  906MOL0     H22301   0.920   6.050   9.510  1.4054 -3.6527 -0.3215
  906MOL0     H22302   0.891   6.249   9.679  0.0621 -1.2229 -1.8168
  906MOL0     H22303   0.885   6.128   9.799  0.9667 -2.0608 -1.4354
  906MOL0     H22304   0.677   6.021   9.686 -0.4116  0.1370 -2.0542
  906MOL0     H22305   0.651   6.189   9.726 -1.7377 -1.4423 -0.0586
  906MOL0     H22306   0.657   6.216   9.309 -0.1334  1.8659 -0.0166
  906MOL0     H22307   1.060   5.867   9.908 -0.0009  0.9135  1.8941
  906MOL0     H22308   1.219   5.658  10.106 -2.2744 -0.4391 -0.1255
  906MOL0     H22309   1.100   5.649   9.983 -0.3011 -0.0516 -1.0295
  906MOL0     H22310   1.262   5.567   9.959 -0.7179  0.8502 -2.6722
  907MOL0     O22311   0.249   6.856   8.398  0.0967 -0.4272  0.1276
  907MOL0     C22312   0.133   6.859   8.444 -0.8519 -0.5512 -0.0738
  907MOL0     O22313   0.063   6.744   8.487 -0.0120 -0.0500  0.6469
  907MOL0     C22314   0.137   6.627   8.480  0.2255  0.0514  0.3217
  907MOL0     C22315   0.222   6.594   8.587  0.5551  0.0078 -0.1581
  907MOL0     C22316   0.310   6.493   8.587  0.3515  0.0065  0.3210
  907MOL0     C22317   0.328   6.415   8.473  0.3090  0.4019  0.2017
  907MOL0     O22318   0.428   6.320   8.458 -0.3447 -0.5541 -0.5142
  907MOL0     C22319   0.525   6.293   8.569 -0.4434  0.2779  0.5557
  907MOL0     C22320   0.655   6.371   8.557 -0.9325 -0.6165  0.5576
  907MOL0     C22321   0.775   6.332   8.648  0.6041 -0.6374 -1.5798
  907MOL0     C22322   0.794   6.183   8.656 -0.6177 -0.0022 -0.0358
  907MOL0     C22323   0.924   6.161   8.736  0.7202 -0.1930 -0.0012
  907MOL0     C22324   1.058   6.209   8.667  0.2548 -0.0769  0.1863
  907MOL0     C22325   1.188   6.200   8.749  0.7261  0.9047 -0.0651
  907MOL0     C22326   1.294   6.216   8.642 -0.7952  0.4125 -0.3644
  907MOL0     N22327   1.431   6.178   8.690  0.1088  0.4245  0.0664
  907MOL0     C22328   1.463   6.100   8.799 -0.5452  0.1932  0.2754
  907MOL0     C22329   1.598   6.121   8.809  0.0769  1.1608  0.1215
  907MOL0     C22330   1.689   6.047   8.898  0.3008 -0.6639 -0.1418
  907MOL0     C22331   1.746   6.151   8.996  0.0568  0.0193  0.5755
  907MOL0     C22332   1.846   6.095   9.094 -0.0537 -0.8662  0.3319
  907MOL0     C22333   1.873   6.188   9.215  0.2095  0.1851 -1.3270
  907MOL0     O22334   1.964   6.119   9.307  0.0027  0.1296  0.3113
  907MOL0     C22335   2.100   6.122   9.271 -0.1866  0.8818 -0.4387
  907MOL0     C22336   2.168   6.230   9.232 -0.0179 -0.0300  0.1067
  907MOL0     C22337   2.295   6.222   9.175  0.1526 -0.1991 -0.7939
  907MOL0     C22338   2.370   6.105   9.159 -0.4044  0.2504 -0.2396
  907MOL0     C22339   2.510   6.103   9.117  0.6957 -0.1329 -0.3579
  907MOL0     O22340   2.560   6.228   9.080 -0.5942  0.5263 -0.0289
  907MOL0     C22341   2.695   6.246   9.083 -0.2284  0.0152  0.5079
  907MOL0     C22342   2.760   6.323   9.179 -0.5376  0.3872 -0.1203
  907MOL0     C22343   2.895   6.336   9.185 -0.9642  0.5038  0.1744
  907MOL0     C22344   2.977   6.277   9.084 -0.0453  0.0968 -0.7224
  907MOL0     O22345   3.115   6.286   9.096 -0.2738  0.4527 -1.2183
  907MOL0     C22346   3.189   6.202   8.999  0.0378  0.0590 -0.2759
  907MOL0     C22347   3.332   6.180   9.062  0.3782  1.1311  0.4253
  907MOL0     C22348   3.410   6.311   9.088 -0.3594 -0.1455  0.6671
  907MOL0     C22349   3.429   6.400   8.957  0.0109  0.5388 -1.2018
  907MOL0     C22350   3.510   6.517   8.995  0.2048 -0.5195  0.0388
  907MOL0     C22351   3.426   6.621   9.078 -0.6014 -0.8470  1.1385
  907MOL0     C22352   3.474   6.763   9.045 -0.1763  0.3297  0.1770
  907MOL0     C22353   3.422   6.868   9.129 -0.3867  0.1011  0.0565
  907MOL0    Cl22354   3.240   6.886   9.095 -0.5278  0.0201  0.0329
  907MOL0     C22355   2.915   6.213   8.980  0.0716  0.5567  0.1821
  907MOL0     C22356   2.777   6.191   8.977 -0.3212 -0.4947 -0.2752
  907MOL0     O22357   2.576   6.004   9.134  0.1016 -0.2914 -0.2809
  907MOL0     C22358   2.296   5.995   9.204 -0.1624 -0.2494  0.0972
  907MOL0     C22359   2.171   6.000   9.256 -0.2610 -0.5577 -0.7808
  907MOL0     N22360   1.645   6.206   8.704  0.6323  0.0819 -0.4869
  907MOL0     N22361   1.540   6.245   8.646 -0.1782  0.3812 -0.1279
  907MOL0     C22362   0.232   6.437   8.367  0.1263 -0.2613 -0.1667
  907MOL0     C22363   0.133   6.542   8.370 -0.4548  0.3167  0.0338
  907MOL0     C22364   0.058   6.986   8.461 -0.6010  1.1812 -0.2555
  907MOL0     C22365  -0.079   6.977   8.456  0.0255  0.2270  0.0425
  907MOL0     C22366  -0.151   7.089   8.446  0.5595  0.2656 -0.0953
  907MOL0     C22367  -0.102   7.215   8.448 -0.4570 -0.9267  0.4860
  907MOL0     O22368  -0.186   7.322   8.457 -0.5550 -0.5206 -0.0978
  907MOL0     C22369  -0.140   7.459   8.427 -0.5027  0.9605  0.7301
  907MOL0     C22370  -0.100   7.541   8.546 -0.5694 -0.0258 -1.0302
  907MOL0     C22371  -0.222   7.590   8.626  0.0338  0.0102  0.4593
  907MOL0     C22372  -0.173   7.713   8.710  0.6616 -1.1811  0.6132
  907MOL0     C22373  -0.278   7.779   8.794  0.2071 -0.4370  0.1195
  907MOL0     C22374  -0.371   7.843   8.847  0.6964 -0.3181  0.2108
  907MOL0     C22375   0.039   7.231   8.456  0.5660 -0.2026  0.2731
  907MOL0     C22376   0.121   7.115   8.467 -0.5140  0.2908  0.6424
  907MOL0     C22377   0.267   7.127   8.467  0.2705  0.8801 -0.0289
  907MOL0     H22378   0.221   6.663   8.671  0.8232  0.7876 -0.7764
  907MOL0     H22379   0.375   6.478   8.673  0.5199 -1.1533  0.0118
  907MOL0     H22380   0.474   6.302   8.665 -2.4417  2.0933 -0.5941
  907MOL0     H22381   0.548   6.187   8.560  0.4945  0.1890  3.0162
  907MOL0     H22382   0.635   6.478   8.566  2.5557  0.2353 -0.4717
  907MOL0     H22383   0.698   6.360   8.457  0.0320  0.6231  0.8219
  907MOL0     H22384   0.766   6.379   8.747  0.1275 -0.1819 -1.8347
  907MOL0     H22385   0.853   6.387   8.594  0.5562 -0.5851 -1.5962
  907MOL0     H22386   0.704   6.153   8.711 -0.4849  1.3383  0.9671
  907MOL0     H22387   0.787   6.131   8.560 -2.9891  0.9163 -0.4442
  907MOL0     H22388   0.906   6.215   8.829  0.2612  1.1895 -0.8588
  907MOL0     H22389   0.926   6.054   8.760 -1.1117 -0.9181 -2.6409
  907MOL0     H22390   1.065   6.149   8.575  0.6486  1.9777 -1.1975
  907MOL0     H22391   1.045   6.309   8.624  0.4212 -1.1597 -2.6603
  907MOL0     H22392   1.193   6.096   8.782 -0.2183  1.2688  1.3368
  907MOL0     H22393   1.206   6.263   8.837 -0.7383 -1.7429  2.3235
  907MOL0     H22394   1.265   6.151   8.559 -0.2272  0.7817 -0.8553
  907MOL0     H22395   1.303   6.316   8.600  2.9409  0.4062  0.1253
  907MOL0     H22396   1.410   6.028   8.862  2.0796 -2.2676 -0.1171
  907MOL0     H22397   1.630   5.969   8.947 -1.7371 -1.4589 -3.5727
  907MOL0     H22398   1.769   5.993   8.846  2.3128 -0.3705  2.3847
  907MOL0     H22399   1.796   6.225   8.933 -0.9103  1.4040  1.3825
  907MOL0     H22400   1.662   6.208   9.036  0.0166  1.6133 -1.6126
  907MOL0     H22401   1.934   6.060   9.040 -0.1989  1.2696 -1.4469
  907MOL0     H22402   1.794   6.007   9.132 -1.0050 -1.9398 -3.0755
  907MOL0     H22403   1.785   6.218   9.273  0.5950  1.0235 -1.1663
  907MOL0     H22404   1.920   6.281   9.181  1.6534 -0.5105 -1.3212
  907MOL0     H22405   2.131   6.332   9.237  3.8094  1.5540 -0.4787
  907MOL0     H22406   2.339   6.317   9.145 -2.7670  0.0998 -5.0576
  907MOL0     H22407   2.704   6.380   9.253 -0.0134  1.7863 -0.7751
  907MOL0     H22408   2.949   6.402   9.253 -1.4348  1.1171 -0.0390
  907MOL0     H22409   3.133   6.108   8.995  0.7321 -0.4883  1.7093
  907MOL0     H22410   3.199   6.261   8.907  2.8343 -0.1311 -0.1741
  907MOL0     H22411   3.320   6.115   9.148 -1.5217 -1.6843 -1.7779
  907MOL0     H22412   3.385   6.126   8.983 -2.7589  0.8343 -1.6700
  907MOL0     H22413   3.364   6.375   9.164  0.1779  1.8778 -0.6442
  907MOL0     H22414   3.502   6.274   9.134 -0.2119 -0.5514  0.0543
  907MOL0     H22415   3.344   6.431   8.896 -0.2480  0.4074 -0.9105
  907MOL0     H22416   3.484   6.335   8.887 -2.0994 -3.2479  0.3915
  907MOL0     H22417   3.553   6.572   8.911 -2.4041  4.1060  1.3976
  907MOL0     H22418   3.598   6.487   9.053 -0.9594 -1.1417  1.5550
  907MOL0     H22419   3.323   6.616   9.042 -0.0968 -1.6003 -0.2994
  907MOL0     H22420   3.442   6.600   9.184 -0.1320 -0.2361  1.1908
  907MOL0     H22421   3.433   6.785   8.946  0.8397  0.7548 -0.1610
  907MOL0     H22422   3.582   6.774   9.034 -0.1001  0.2993  0.8344
  907MOL0     H22423   3.434   6.847   9.235  0.9668  2.2712  0.3885
  907MOL0     H22424   3.473   6.961   9.104 -2.3632  1.2613  0.1361
  907MOL0     H22425   2.978   6.169   8.904  2.4074  0.5479  1.9998
  907MOL0     H22426   2.736   6.131   8.897  0.1717 -0.4417 -0.5683
  907MOL0     H22427   2.342   5.897   9.194  1.2466  0.4887 -0.9728
  907MOL0     H22428   2.122   5.907   9.282  0.3286 -0.9569 -1.0819
  907MOL0     H22429   0.264   6.376   8.283  0.0047 -0.5303 -0.0180
  907MOL0     H22430   0.068   6.554   8.284  0.2667 -2.7192 -1.0719
  907MOL0     H22431  -0.136   6.886   8.475 -0.5359  0.4914 -0.3718
  907MOL0     H22432  -0.260   7.086   8.441  0.5936  0.7183 -1.3769
  907MOL0     H22433  -0.211   7.506   8.359 -0.3941 -1.2587 -1.0089
  907MOL0     H22434  -0.050   7.448   8.365 -0.2641 -1.1537  1.3718
  907MOL0     H22435  -0.034   7.625   8.524 -0.1987 -0.2334 -0.7294
  907MOL0     H22436  -0.033   7.475   8.603  1.5864  1.1981 -2.0055
  907MOL0     H22437  -0.263   7.508   8.685 -0.6989 -0.0468 -0.1040
  907MOL0     H22438  -0.306   7.624   8.564  0.4380 -1.5525 -1.0365
  907MOL0     H22439  -0.089   7.686   8.775  0.0602 -0.6329  1.6555
  907MOL0     H22440  -0.142   7.787   8.636  0.9440 -2.7438 -0.9042
  907MOL0     H22441  -0.452   7.881   8.905  2.0566  0.8838  1.4027
  907MOL0     H22442   0.094   7.324   8.462 -0.1953  0.2195  0.8264
  907MOL0     H22443   0.307   7.091   8.371 -1.9333  2.2751 -1.5528
  907MOL0     H22444   0.304   7.229   8.473  0.5597  0.7018  1.9795
  907MOL0     H22445   0.316   7.073   8.549  0.9836  1.9548  0.2749
  908MOL0     O22446   9.426   6.956   4.045  0.4289 -0.6461  0.3269
  908MOL0     C22447   9.361   7.058   4.027  0.8663 -0.2162  0.0554
  908MOL0     O22448   9.401   7.184   3.983 -0.1050  0.4953 -0.4047
  908MOL0     C22449   9.536   7.220   3.977 -0.2844 -0.1930 -0.9113
  908MOL0     C22450   9.572   7.329   3.901  0.4575 -0.3871 -0.3508
  908MOL0     C22451   9.706   7.368   3.885  0.7784  0.0502  0.1828
  908MOL0     C22452   9.807   7.298   3.939 -0.5730 -0.8258  0.2473
  908MOL0     O22453   9.929   7.334   3.888  0.1615  0.4366  0.2242
  908MOL0     C22454  10.033   7.253   3.938  0.0601  1.4740 -0.5563
  908MOL0     C22455  10.165   7.302   3.877 -1.2150  0.6557 -0.4328
  908MOL0     C22456  10.286   7.242   3.940  0.2625  0.9400  0.6729
  908MOL0     C22457  10.413   7.286   3.867 -0.1680  0.0269 -0.6652
  908MOL0     C22458  10.545   7.251   3.940  0.7684 -0.1197 -0.1560
  908MOL0     C22459  10.557   7.099   3.986 -0.4531 -0.0663  0.2775
  908MOL0     C22460  10.711   7.076   4.014  0.1724 -0.5945 -0.2301
  908MOL0     C22461  10.748   6.931   4.004 -1.0654  0.5350 -0.0798
  908MOL0     N22462  10.691   6.848   4.100  0.6552  0.8878 -0.4328
  908MOL0     C22463  10.561   6.806   4.102 -0.3320  0.0298  0.3073
  908MOL0     C22464  10.548   6.742   4.223  0.4085 -0.1357  0.2209
  908MOL0     C22465  10.420   6.662   4.243 -0.0190 -0.0149 -0.3408
  908MOL0     C22466  10.311   6.734   4.316  0.7772  0.3044  0.1322
  908MOL0     C22467  10.221   6.820   4.222 -0.2455  0.4425 -0.2278
  908MOL0     C22468  10.121   6.902   4.304  0.2974 -0.8111 -0.1507
  908MOL0     O22469  10.019   6.955   4.211  0.4940  0.8648  0.3008
  908MOL0     C22470   9.899   6.883   4.213 -0.0707 -0.1543 -0.6623
  908MOL0     C22471   9.870   6.761   4.153  0.1096 -0.8772  0.2904
  908MOL0     C22472   9.738   6.712   4.161  0.5438  0.7028 -0.8284
  908MOL0     C22473   9.642   6.769   4.245 -0.1424  0.3193  0.0265
  908MOL0     C22474   9.515   6.701   4.255  0.0333  0.0719 -0.6510
  908MOL0     O22475   9.433   6.745   4.353  0.1128  0.2041  0.1657
  908MOL0     C22476   9.302   6.689   4.362 -1.1181 -0.3791  0.0251
  908MOL0     C22477   9.277   6.622   4.478  0.2514 -0.4649 -0.0791
  908MOL0     C22478   9.158   6.555   4.488  0.1241 -0.5573  0.0982
  908MOL0     C22479   9.062   6.562   4.386 -0.5562  0.7258  1.1260
  908MOL0     O22480   8.952   6.480   4.404 -0.8890  0.3623 -0.1549
  908MOL0     C22481   8.831   6.538   4.348 -0.2867 -0.3699  0.1542
  908MOL0     C22482   8.690   6.537   4.414  0.2194  0.3190 -0.2107
  908MOL0     C22483   8.569   6.589   4.326 -0.1047  0.1477  0.4722
  908MOL0     C22484   8.430   6.538   4.383 -0.3833  0.0171 -0.0608
  908MOL0     C22485   8.311   6.568   4.288 -0.4343 -0.4282 -0.1893
  908MOL0     C22486   8.192   6.480   4.311  0.2939  0.5988  0.7484
  908MOL0     C22487   8.124   6.497   4.443  0.0036 -0.2143 -0.1426
  908MOL0     C22488   8.003   6.414   4.433 -0.0139  0.1088 -0.0903
  908MOL0    Cl22489   7.903   6.425   4.579  0.1191  0.0598 -0.0822
  908MOL0     C22490   9.090   6.631   4.265 -0.2850  0.4802 -0.4000
  908MOL0     C22491   9.202   6.709   4.265 -0.2903 -0.4413 -0.3618
  908MOL0     O22492   9.490   6.602   4.182  0.3381  0.1385 -0.3881
  908MOL0     C22493   9.678   6.887   4.315  0.0125 -0.9171  0.5769
  908MOL0     C22494   9.800   6.946   4.287  0.1831  0.0522  0.5541
  908MOL0     N22495  10.660   6.753   4.293 -0.0617 -0.0293  0.2541
  908MOL0     N22496  10.751   6.814   4.222 -0.4009 -0.0736  0.6287
  908MOL0     C22497   9.778   7.181   4.016  0.1929 -0.2389 -0.7804
  908MOL0     C22498   9.643   7.146   4.039  0.1058  0.2778 -0.4079
  908MOL0     C22499   9.223   7.056   4.056  0.5679 -1.0944 -0.2777
  908MOL0     C22500   9.175   7.154   4.149  0.1339 -0.0611  0.2484
  908MOL0     C22501   9.041   7.154   4.194  0.2985  0.4112 -0.3743
  908MOL0     C22502   8.952   7.059   4.139 -0.0205 -0.3702  0.0708
  908MOL0     O22503   8.820   7.060   4.159  0.0491  0.3933 -1.0595
  908MOL0     C22504   8.754   7.170   4.229  0.7827  0.0418  0.5430
  908MOL0     C22505   8.597   7.158   4.216  0.5411  0.5931 -0.4176
  908MOL0     C22506   8.534   7.019   4.264 -0.2307 -0.4215  0.1325
  908MOL0     C22507   8.574   6.980   4.408 -0.3957 -0.6700  0.5278
  908MOL0     C22508   8.550   7.081   4.516  0.2090  0.7273 -0.8873
  908MOL0     C22509   8.535   7.162   4.610 -1.0270  0.3699 -0.0387
  908MOL0     C22510   9.004   6.958   4.059  0.4608  0.0193  0.2056
  908MOL0     C22511   9.132   6.962   4.007  0.1899  0.7857  0.3392
  908MOL0     C22512   9.168   6.857   3.902 -1.0296  0.4137 -0.0315
  908MOL0     H22513   9.491   7.384   3.855  1.0863  0.4832 -0.4351
  908MOL0     H22514   9.722   7.455   3.822 -0.7391  1.0660  1.1146
  908MOL0     H22515  10.035   7.260   4.048  0.0469  0.7772 -0.5047
  908MOL0     H22516  10.027   7.145   3.917  2.2707  0.8888  1.3534
  908MOL0     H22517  10.176   7.411   3.878  1.1312  0.5040 -1.7248
  908MOL0     H22518  10.170   7.287   3.768  2.0569  3.4959 -0.8436
  908MOL0     H22519  10.275   7.134   3.921 -3.2415  1.3281 -0.2423
  908MOL0     H22520  10.285   7.258   4.048  1.4581  1.6303  0.6003
  908MOL0     H22521  10.421   7.239   3.768 -3.4069  0.0663 -1.0436
  908MOL0     H22522  10.418   7.395   3.856  2.2823 -0.0162 -0.6752
  908MOL0     H22523  10.624   7.279   3.869 -0.4536  1.4238 -0.9615
  908MOL0     H22524  10.556   7.307   4.034 -1.1941  0.5602 -0.2867
  908MOL0     H22525  10.498   7.077   4.075 -3.5204 -2.6039 -2.1727
  908MOL0     H22526  10.514   7.053   3.897  1.0059  1.7163 -1.4575
  908MOL0     H22527  10.727   7.126   4.110  0.6543  2.9204 -1.9789
  908MOL0     H22528  10.769   7.128   3.937 -0.2706 -0.9754 -0.8307
  908MOL0     H22529  10.714   6.886   3.910 -0.6877 -2.8098  1.2433
  908MOL0     H22530  10.858   6.927   4.009 -0.9418  0.0714 -2.2255
  908MOL0     H22531  10.486   6.810   4.024  0.7869 -1.9129 -0.9222
  908MOL0     H22532  10.390   6.623   4.145  0.8926 -0.0102 -0.6360
  908MOL0     H22533  10.435   6.581   4.314 -5.0181  0.0520  1.1487
  908MOL0     H22534  10.254   6.659   4.372 -1.9917  4.1062  3.0364
  908MOL0     H22535  10.357   6.802   4.388  2.0226 -0.7063  0.3339
  908MOL0     H22536  10.174   6.752   4.150  1.5866 -2.1094  0.8244
  908MOL0     H22537  10.284   6.892   4.169 -0.4874 -0.6893 -2.1554
  908MOL0     H22538  10.179   6.982   4.352 -2.2476  2.2072 -1.7402
  908MOL0     H22539  10.065   6.843   4.377 -0.3004 -1.1223 -0.8518
  908MOL0     H22540   9.943   6.719   4.084 -0.2589  1.2937 -1.5460
  908MOL0     H22541   9.704   6.624   4.107  1.9647 -1.5124  1.6603
  908MOL0     H22542   9.344   6.609   4.562 -0.8915 -0.1405  0.9069
  908MOL0     H22543   9.136   6.510   4.584 -0.3846  2.0987  1.3230
  908MOL0     H22544   8.850   6.646   4.344 -0.5049 -0.2534  1.7481
  908MOL0     H22545   8.822   6.505   4.244 -1.2849 -0.4268  0.2540
  908MOL0     H22546   8.661   6.432   4.430 -1.9453  0.6563 -1.4717
  908MOL0     H22547   8.694   6.581   4.514 -3.1919 -0.6175  0.4594
  908MOL0     H22548   8.567   6.698   4.324 -0.1821  0.1419 -1.4328
  908MOL0     H22549   8.583   6.558   4.222  2.7794  1.1337  0.4780
  908MOL0     H22550   8.401   6.594   4.473 -2.6241  2.0463 -1.8748
  908MOL0     H22551   8.436   6.431   4.405 -0.6000  0.5360  2.9943
  908MOL0     H22552   8.337   6.543   4.184  1.2507 -3.3113  0.8301
  908MOL0     H22553   8.286   6.674   4.278 -0.6038 -0.1821  2.3570
  908MOL0     H22554   8.113   6.496   4.236 -0.1448 -0.5978  0.9261
  908MOL0     H22555   8.231   6.379   4.299  1.7858  1.4500 -3.2224
  908MOL0     H22556   8.106   6.604   4.448  3.6702  0.4766  1.6863
  908MOL0     H22557   8.179   6.452   4.526 -0.5700 -2.3860 -0.8687
  908MOL0     H22558   7.941   6.440   4.347  1.3649 -1.0515 -1.5184
  908MOL0     H22559   8.034   6.309   4.430  2.5134  0.7987 -1.6719
  908MOL0     H22560   9.031   6.627   4.174 -0.4297 -1.4285 -0.2682
  908MOL0     H22561   9.227   6.787   4.193  1.4808  0.4163  1.0995
  908MOL0     H22562   9.601   6.937   4.374  0.0395  1.1089 -0.9926
  908MOL0     H22563   9.835   7.034   4.339 -1.3640  0.9936  0.0729
  908MOL0     H22564   9.854   7.114   4.054  2.6028  0.1794 -4.3325
  908MOL0     H22565   9.626   7.058   4.100 -0.8442  1.1958  0.7035
  908MOL0     H22566   9.236   7.231   4.195  0.6571  1.4385 -2.6932
  908MOL0     H22567   9.000   7.221   4.269 -0.4115 -0.1942 -0.2125
  908MOL0     H22568   8.786   7.269   4.197  0.8645 -0.1756 -0.0547
  908MOL0     H22569   8.777   7.154   4.335 -1.0213  0.3671  1.0115
  908MOL0     H22570   8.572   7.161   4.109  0.2134 -1.2337 -0.4375
  908MOL0     H22571   8.547   7.237   4.273 -1.8458 -0.9441 -0.2392
  908MOL0     H22572   8.550   6.929   4.203  2.0044 -0.8022  1.1886
  908MOL0     H22573   8.425   7.025   4.257 -0.1875  2.6470  0.9544
  908MOL0     H22574   8.523   6.892   4.449 -0.3166 -0.1831  1.6810
  908MOL0     H22575   8.681   6.959   4.396 -0.3657  0.6816 -2.7873
  908MOL0     H22576   8.529   7.226   4.696 -1.0704  1.3131 -0.7243
  908MOL0     H22577   8.942   6.873   4.033  1.0599 -1.0049  2.0002
  908MOL0     H22578   9.077   6.842   3.842 -1.7354  3.0123  0.2940
  908MOL0     H22579   9.250   6.885   3.836  0.1148  1.0443  1.5979
  908MOL0     H22580   9.195   6.761   3.947  2.7687  1.2881 -0.1564
  909MOL0     O22581   8.851  10.379   4.527 -0.0500 -0.5541  0.2649
  909MOL0     C22582   8.746  10.351   4.586  0.2292  0.5567 -0.3391
  909MOL0     O22583   8.726  10.226   4.648 -0.3591 -0.6630 -0.1705
  909MOL0     C22584   8.823  10.131   4.658 -0.2519 -1.2371  0.5824
  909MOL0     C22585   8.879  10.091   4.775  0.5586 -0.3003 -0.1393
  909MOL0     C22586   8.965   9.976   4.785 -0.4613  0.5206  0.3677
  909MOL0     C22587   9.022   9.925   4.666  0.4096 -0.1073  0.2468
  909MOL0     O22588   9.106   9.818   4.665 -0.2597 -0.5546  0.1107
  909MOL0     C22589   9.050   9.688   4.706  0.4018 -0.2030  0.8486
  909MOL0     C22590   9.142   9.602   4.630 -0.1314  0.3922  0.6271
  909MOL0     C22591   9.291   9.617   4.671  0.1433 -0.1954  0.1833
  909MOL0     C22592   9.380   9.589   4.551  0.2907 -0.4814 -0.1980
  909MOL0     C22593   9.529   9.605   4.584 -0.3791  0.5120  0.0308
  909MOL0     C22594   9.593   9.512   4.691  0.4238  0.6995 -1.0749
  909MOL0     C22595   9.580   9.362   4.669 -0.1039 -0.5569  0.5969
  909MOL0     C22596   9.629   9.259   4.772 -0.2374  0.3359  0.4212
  909MOL0     N22597   9.777   9.264   4.771  0.4514 -0.0427 -0.7974
  909MOL0     C22598   9.855   9.365   4.819 -0.0179  0.4207  0.9464
  909MOL0     C22599   9.978   9.308   4.809  0.2760 -0.2505  0.4540
  909MOL0     C22600  10.115   9.369   4.860 -0.0376 -0.0341 -0.4231
  909MOL0     C22601  10.174   9.470   4.751  0.1939  0.0906  0.0362
  909MOL0     C22602  10.330   9.466   4.745 -0.3871  0.1080 -0.3948
  909MOL0     C22603  10.394   9.521   4.874 -0.4115 -1.2592 -0.1184
  909MOL0     O22604  10.408   9.447   4.999  0.4960 -0.3361 -0.3246
  909MOL0     C22605  10.494   9.342   5.008 -0.7221 -0.2669  0.3610
  909MOL0     C22606  10.502   9.262   5.126  1.0733  0.0556  0.2347
  909MOL0     C22607  10.578   9.147   5.135  0.6016  0.2773  0.0938
  909MOL0     C22608  10.650   9.102   5.030 -0.1532 -0.3975  0.5450
  909MOL0     C22609  10.732   8.984   5.043 -0.2099  0.5869  0.6980
  909MOL0     O22610  10.772   8.917   4.927 -0.5041  0.4217 -0.1898
  909MOL0     C22611  10.839   8.801   4.923  0.3391 -0.1630 -1.0343
  909MOL0     C22612  10.924   8.782   4.811 -0.3787  0.9040  0.3629
  909MOL0     C22613  11.006   8.660   4.809 -0.0060  0.3756 -0.1171
  909MOL0     C22614  11.001   8.565   4.907 -0.6704  0.1523  0.3909
  909MOL0     O22615  11.065   8.445   4.881  0.1923 -0.4985  0.0306
  909MOL0     C22616  11.166   8.404   4.963 -0.5666  0.4647 -0.9952
  909MOL0     C22617  11.236   8.286   4.900 -0.0739 -0.1746  0.1209
  909MOL0     C22618  11.374   8.253   4.974 -0.2344  0.8450  0.2777
  909MOL0     C22619  11.447   8.148   4.893 -0.3801  0.1201 -0.2347
  909MOL0     C22620  11.575   8.103   4.969 -0.8028  1.0269  0.4349
  909MOL0     C22621  11.649   7.990   4.889 -0.5035 -0.0646  0.0958
  909MOL0     C22622  11.784   7.943   4.953  0.2541  0.6595 -0.4923
  909MOL0     C22623  11.901   7.980   4.875 -0.0622  0.3100  0.4986
  909MOL0    Cl22624  11.950   8.150   4.881 -0.0750  0.1997  0.3394
  909MOL0     C22625  10.902   8.586   5.001 -0.6893 -0.2608 -0.1777
  909MOL0     C22626  10.828   8.701   5.022 -0.4178  0.0523 -0.4236
  909MOL0     O22627  10.770   8.949   5.153 -0.8800  0.2198 -0.0813
  909MOL0     C22628  10.655   9.181   4.907  0.3586  0.0310  0.9604
  909MOL0     C22629  10.574   9.291   4.902  0.1995 -0.8834 -0.5254
  909MOL0     N22630   9.959   9.175   4.777 -0.3119  0.5145  0.0499
  909MOL0     N22631   9.846   9.155   4.738  0.1801  0.6349  0.1000
  909MOL0     C22632   8.954   9.953   4.550 -0.4953 -0.7359  0.6096
  909MOL0     C22633   8.868  10.063   4.538  0.4397 -0.1189 -0.9901
  909MOL0     C22634   8.628  10.444   4.602  0.5110 -0.0089 -0.1410
  909MOL0     C22635   8.495  10.386   4.612 -0.2634  0.1023 -0.1079
  909MOL0     C22636   8.385  10.476   4.630  0.8166  0.0763  0.1477
  909MOL0     C22637   8.399  10.613   4.643  0.6092 -0.0526  0.1906
  909MOL0     O22638   8.287  10.695   4.660  1.0579  0.9025 -0.3778
  909MOL0     C22639   8.146  10.639   4.662  0.1156 -0.2035 -0.3426
  909MOL0     C22640   8.083  10.589   4.533  0.3266 -0.3785 -0.2994
  909MOL0     C22641   7.961  10.490   4.561  0.5530 -0.3597 -0.5867
  909MOL0     C22642   7.841  10.576   4.607  0.9074  0.6386 -0.3565
  909MOL0     C22643   7.732  10.483   4.635 -0.0343 -0.4091  0.8040
  909MOL0     C22644   7.644  10.404   4.665 -0.4462 -0.3601  0.2235
  909MOL0     C22645   8.529  10.669   4.638  0.3864 -0.3189  0.0164
  909MOL0     C22646   8.642  10.589   4.611 -0.8185 -0.5814  0.6262
  909MOL0     C22647   8.775  10.658   4.599  0.2842 -0.1476 -0.5123
  909MOL0     H22648   8.840  10.134   4.867  0.9898  1.6856 -0.8279
  909MOL0     H22649   8.995   9.934   4.881 -1.0147  0.3169  0.4551
  909MOL0     H22650   9.052   9.675   4.815 -0.0516  3.2109  1.3749
  909MOL0     H22651   8.950   9.673   4.664  0.9951 -0.9322 -0.3864
  909MOL0     H22652   9.133   9.621   4.522  0.8594 -0.9987  0.2581
  909MOL0     H22653   9.108   9.499   4.644 -0.1902  0.1012 -1.3584
  909MOL0     H22654   9.317   9.557   4.759  1.7149  0.5078  0.2353
  909MOL0     H22655   9.313   9.718   4.706 -0.9895  1.2361 -2.9127
  909MOL0     H22656   9.349   9.494   4.507 -2.3454  0.1550  0.0735
  909MOL0     H22657   9.361   9.653   4.465 -2.4004 -3.9607 -2.4863
  909MOL0     H22658   9.589   9.603   4.493 -0.2667 -0.8193  0.1109
  909MOL0     H22659   9.547   9.710   4.610  5.3165  0.0283 -0.6832
  909MOL0     H22660   9.698   9.538   4.702  0.8866 -1.3539 -0.2683
  909MOL0     H22661   9.553   9.545   4.787  0.1438  1.1496 -1.3404
  909MOL0     H22662   9.637   9.337   4.579  1.1372 -2.0573  1.7537
  909MOL0     H22663   9.476   9.329   4.659 -0.3321 -0.4244  2.3304
  909MOL0     H22664   9.608   9.273   4.878  0.9929 -1.8181  0.9999
  909MOL0     H22665   9.605   9.157   4.744  1.8380  0.3701 -1.8938
  909MOL0     H22666   9.842   9.466   4.857  0.4443 -0.2072  2.9064
  909MOL0     H22667  10.088   9.415   4.955 -0.8894 -0.1651 -0.5978
  909MOL0     H22668  10.193   9.295   4.881  1.2955  0.1464 -4.0436
  909MOL0     H22669  10.131   9.443   4.654  0.9951  4.3009 -1.7107
  909MOL0     H22670  10.136   9.572   4.762  2.6415  0.9529  1.0885
  909MOL0     H22671  10.349   9.537   4.664 -3.3531  2.0164  0.4299
  909MOL0     H22672  10.374   9.366   4.739  0.4321  0.4225  0.1562
  909MOL0     H22673  10.343   9.612   4.908  2.6203 -0.0443  1.5567
  909MOL0     H22674  10.496   9.555   4.851 -0.4860 -0.6973  0.3640
  909MOL0     H22675  10.448   9.296   5.214  2.1470 -3.1186  2.2792
  909MOL0     H22676  10.565   9.082   5.221  1.0651  0.4863  0.3274
  909MOL0     H22677  10.926   8.840   4.719 -1.1832 -0.3293 -0.4731
  909MOL0     H22678  11.069   8.634   4.724 -0.2518  0.3421 -0.2884
  909MOL0     H22679  11.240   8.484   4.973 -0.7323  0.4455  0.7822
  909MOL0     H22680  11.128   8.371   5.060 -1.3279  0.3902 -1.3121
  909MOL0     H22681  11.170   8.199   4.906 -1.3569  0.6041 -1.7922
  909MOL0     H22682  11.259   8.307   4.795  1.9702  0.9488  0.7295
  909MOL0     H22683  11.444   8.337   4.969 -1.2325  1.6319 -2.1143
  909MOL0     H22684  11.364   8.229   5.081 -2.5393 -1.0476 -0.2742
  909MOL0     H22685  11.484   8.193   4.801  0.2600  5.0142  2.1172
  909MOL0     H22686  11.378   8.063   4.892  0.4853 -0.5954 -0.1550
  909MOL0     H22687  11.552   8.068   5.070  2.5502  2.3490  1.7880
  909MOL0     H22688  11.643   8.187   4.987 -0.2303  1.0129 -1.4500
  909MOL0     H22689  11.581   7.905   4.896  0.0110 -0.3473  2.5671
  909MOL0     H22690  11.658   8.031   4.788  1.1120  2.4079  1.1388
  909MOL0     H22691  11.766   7.839   4.982 -0.5402  1.8191  3.9152
  909MOL0     H22692  11.793   7.991   5.051 -1.5427 -3.4893  1.9746
  909MOL0     H22693  11.980   7.923   4.924  0.2721  2.8176  3.1291
  909MOL0     H22694  11.888   7.939   4.775 -0.8301 -4.4584  2.2902
  909MOL0     H22695  10.897   8.507   5.075  0.5838 -0.5901 -0.4205
  909MOL0     H22696  10.759   8.720   5.103  1.2791  0.2541  1.0520
  909MOL0     H22697  10.720   9.154   4.824  0.2838  4.8489 -0.9981
  909MOL0     H22698  10.565   9.339   4.806 -2.3046  2.0765  1.0154
  909MOL0     H22699   8.995   9.907   4.461  0.6956  1.2783  0.0514
  909MOL0     H22700   8.818  10.084   4.443 -0.2681  2.2753 -0.1540
  909MOL0     H22701   8.492  10.279   4.596  2.0638  0.1799 -1.4161
  909MOL0     H22702   8.288  10.426   4.626  1.5744 -1.3675 -1.8808
  909MOL0     H22703   8.087  10.729   4.685  0.2229 -0.3763  0.6585
  909MOL0     H22704   8.140  10.563   4.741 -0.8221 -1.0905 -1.2539
  909MOL0     H22705   8.155  10.535   4.472 -0.9854 -0.7154 -1.5990
  909MOL0     H22706   8.047  10.679   4.482  0.4196 -0.1856 -0.0293
  909MOL0     H22707   7.994  10.421   4.639 -0.1538 -3.0241 -2.5061
  909MOL0     H22708   7.941  10.436   4.468 -0.1490  0.3944 -0.8896
  909MOL0     H22709   7.862  10.633   4.698 -0.0065 -0.9014  0.8815
  909MOL0     H22710   7.807  10.647   4.532 -1.8889  1.6139  1.6546
  909MOL0     H22711   7.574  10.330   4.700 -1.1434  0.9313  1.6481
  909MOL0     H22712   8.540  10.775   4.656  1.3433  0.1600 -2.7941
  909MOL0     H22713   8.817  10.659   4.498 -0.0544  1.3174 -0.6518
  909MOL0     H22714   8.764  10.762   4.628  2.0579 -0.8577  3.3483
  909MOL0     H22715   8.852  10.618   4.667  0.1296 -0.7887 -0.7029
  910MOL0     O22716   4.110   7.586   4.966  0.0348  0.2416  0.1659
  910MOL0     C22717   4.107   7.655   4.864  0.3399  0.0482  0.3820
  910MOL0     O22718   4.204   7.655   4.769 -0.2254  0.2650  0.9349
  910MOL0     C22719   4.329   7.600   4.797 -1.4615  0.1042 -0.0383
  910MOL0     C22720   4.351   7.464   4.820 -0.5154 -0.4007 -0.3449
  910MOL0     C22721   4.484   7.416   4.832 -0.4142 -0.7227 -0.4357
  910MOL0     C22722   4.593   7.502   4.832 -0.0421  0.1137 -0.8780
  910MOL0     O22723   4.723   7.465   4.846 -0.1016  0.8660  0.0792
  910MOL0     C22724   4.766   7.327   4.866  0.3011  0.3375 -0.3360
  910MOL0     C22725   4.917   7.339   4.900 -1.0340 -0.8115 -0.0724
  910MOL0     C22726   4.976   7.194   4.917  0.4101 -0.6534  0.2049
  910MOL0     C22727   5.122   7.205   4.954 -0.2076 -0.0068 -0.1354
  910MOL0     C22728   5.199   7.224   4.824 -0.0311 -0.4516  0.3955
  910MOL0     C22729   5.342   7.242   4.861 -0.7985 -0.1502 -0.2776
  910MOL0     C22730   5.430   7.237   4.741  0.2016  0.6582  0.0556
  910MOL0     C22731   5.577   7.235   4.773  0.2138  0.7476  0.0311
  910MOL0     N22732   5.662   7.231   4.650  0.2726  0.3562  0.3642
  910MOL0     C22733   5.745   7.127   4.600  0.1375 -0.1020 -0.3287
  910MOL0     C22734   5.808   7.182   4.493 -0.5215 -0.1517  0.7103
  910MOL0     C22735   5.908   7.111   4.398  0.3550 -0.1842  1.1995
  910MOL0     C22736   6.053   7.136   4.450 -0.9357  0.4019 -0.3775
  910MOL0     C22737   6.157   7.057   4.361 -0.2246 -0.3298 -0.5788
  910MOL0     C22738   6.164   7.105   4.211  0.0265  0.1805 -0.2550
  910MOL0     O22739   6.283   7.075   4.143  0.1750  0.3705  0.7718
  910MOL0     C22740   6.404   7.135   4.177 -0.7003 -0.1910 -0.0619
  910MOL0     C22741   6.420   7.260   4.243  0.9756 -0.0547  0.1447
  910MOL0     C22742   6.554   7.301   4.280  0.3078 -0.2111  0.0317
  910MOL0     C22743   6.676   7.232   4.242 -0.1346 -0.0933  0.1530
  910MOL0     C22744   6.812   7.280   4.273  0.5969 -0.1373 -0.2603
  910MOL0     O22745   6.827   7.401   4.311  0.2746  0.5011 -0.8580
  910MOL0     C22746   6.941   7.431   4.377  0.0625  0.3987  0.4088
  910MOL0     C22747   6.954   7.391   4.507 -0.2757  0.4127  0.5584
  910MOL0     C22748   7.076   7.417   4.584 -0.3597  0.7667  0.4323
  910MOL0     C22749   7.177   7.495   4.525 -1.1169  0.5260  0.1596
  910MOL0     O22750   7.301   7.527   4.579 -0.6537 -0.2462 -0.1161
  910MOL0     C22751   7.286   7.589   4.709  0.0281 -0.3332  0.2769
  910MOL0     C22752   7.415   7.656   4.745  0.1712 -0.0923  0.5459
  910MOL0     C22753   7.439   7.784   4.670  0.5333  0.3391 -0.3014
  910MOL0     C22754   7.566   7.847   4.718  0.1712  0.3345 -0.0128
  910MOL0     C22755   7.610   7.956   4.617 -0.1601 -0.2221 -0.4720
  910MOL0     C22756   7.729   8.028   4.670 -1.0155 -1.3039 -0.3161
  910MOL0     C22757   7.793   8.140   4.584  0.3661  1.0826  0.4155
  910MOL0     C22758   7.931   8.170   4.636 -0.0605 -0.2193 -0.5496
  910MOL0    Cl22759   7.906   8.260   4.796  0.0568 -0.0419  0.0023
  910MOL0     C22760   7.149   7.543   4.400 -0.7981 -0.5609 -0.4180
  910MOL0     C22761   7.038   7.502   4.324  0.3050 -0.3662  0.2794
  910MOL0     O22762   6.902   7.195   4.263  0.2349  1.2184 -0.1682
  910MOL0     C22763   6.653   7.107   4.178 -0.0157  0.0049  0.5040
  910MOL0     C22764   6.528   7.063   4.152  0.5480 -0.4014  0.1408
  910MOL0     N22765   5.760   7.314   4.480 -0.5299  1.2185 -0.2762
  910MOL0     N22766   5.672   7.338   4.569  0.2799  0.1537 -0.4392
  910MOL0     C22767   4.568   7.641   4.819 -0.5732  1.6313 -0.0368
  910MOL0     C22768   4.437   7.686   4.792  0.1641  0.5090  0.3262
  910MOL0     C22769   3.983   7.732   4.828  1.1674  0.9488  0.2840
  910MOL0     C22770   3.985   7.800   4.703  0.9318  0.1637 -0.3522
  910MOL0     C22771   3.869   7.863   4.654 -0.0989  0.1554 -0.3518
  910MOL0     C22772   3.748   7.855   4.719 -0.6075  0.2778 -0.1484
  910MOL0     O22773   3.632   7.902   4.663  0.7092 -0.5255 -0.2571
  910MOL0     C22774   3.500   7.861   4.705  0.2134  0.2337  0.0537
  910MOL0     C22775   3.474   7.730   4.641  0.2426 -0.9570  0.2341
  910MOL0     C22776   3.345   7.658   4.689 -0.3840  0.0792  0.0184
  910MOL0     C22777   3.211   7.729   4.680  0.3257  0.4411 -0.0340
  910MOL0     C22778   3.182   7.778   4.545  0.4544 -0.5222 -0.0313
  910MOL0     C22779   3.160   7.828   4.437  0.5228  0.2391 -0.0711
  910MOL0     C22780   3.753   7.798   4.844 -0.7218  0.7535 -0.8288
  910MOL0     C22781   3.868   7.745   4.907  0.3152  0.2724  0.6876
  910MOL0     C22782   3.840   7.678   5.039 -0.4331 -0.5238  0.8291
  910MOL0     H22783   4.270   7.397   4.847 -0.2290 -0.7038 -0.2320
  910MOL0     H22784   4.496   7.315   4.871 -1.8483 -0.2444  1.3905
  910MOL0     H22785   4.719   7.288   4.957  0.5114  1.4894  0.2745
  910MOL0     H22786   4.742   7.265   4.778 -0.4875  0.1307  0.0112
  910MOL0     H22787   4.945   7.405   4.982  3.9735 -1.7977 -0.6528
  910MOL0     H22788   4.969   7.385   4.816 -0.6346 -0.1529  0.5268
  910MOL0     H22789   4.962   7.141   4.823 -2.7184  0.6412 -0.2042
  910MOL0     H22790   4.915   7.129   4.981  0.3130 -0.4415  0.3318
  910MOL0     H22791   5.153   7.285   5.022  0.3236 -0.1470 -0.2077
  910MOL0     H22792   5.153   7.112   5.003 -1.0725 -1.0832 -1.5305
  910MOL0     H22793   5.179   7.145   4.752  1.3600  0.6173 -1.2231
  910MOL0     H22794   5.173   7.313   4.765  0.6542 -0.3114  0.2928
  910MOL0     H22795   5.337   7.339   4.913  0.0394  0.4691 -1.3170
  910MOL0     H22796   5.374   7.165   4.932  0.2062 -1.0001 -1.6166
  910MOL0     H22797   5.408   7.319   4.671 -0.6010  0.5496  0.1754
  910MOL0     H22798   5.411   7.142   4.690 -0.2039  1.1594 -0.7636
  910MOL0     H22799   5.609   7.325   4.828 -2.9623  1.8900  0.2550
  910MOL0     H22800   5.600   7.146   4.832  1.7184 -0.1887 -1.8762
  910MOL0     H22801   5.759   7.028   4.642 -1.7353  0.5674  2.1262
  910MOL0     H22802   5.879   7.005   4.402 -2.0756  0.4373  1.5601
  910MOL0     H22803   5.898   7.146   4.295 -0.2755 -1.5659  0.7717
  910MOL0     H22804   6.068   7.244   4.451 -3.2873  0.7912  0.3202
  910MOL0     H22805   6.055   7.099   4.553 -1.7426 -0.3840 -0.6277
  910MOL0     H22806   6.136   6.950   4.370 -0.8543 -0.1650  0.0031
  910MOL0     H22807   6.253   7.078   4.408  0.0915  2.8410 -2.4122
  910MOL0     H22808   6.153   7.214   4.212 -0.2980  0.1733  1.8293
  910MOL0     H22809   6.079   7.068   4.154  0.5230 -0.8795 -0.3241
  910MOL0     H22810   6.329   7.315   4.265 -0.9275 -1.7204 -2.8368
  910MOL0     H22811   6.566   7.399   4.325 -2.2424  0.1784  0.0309
  910MOL0     H22812   6.871   7.332   4.544 -0.4224 -0.4334 -1.0445
  910MOL0     H22813   7.094   7.374   4.682  3.3025 -2.3221 -1.3247
  910MOL0     H22814   7.205   7.663   4.712  0.3024  0.2019 -2.8025
  910MOL0     H22815   7.261   7.508   4.778  0.5722 -1.7829 -1.1938
  910MOL0     H22816   7.425   7.662   4.854  2.7995 -2.3688  0.5504
  910MOL0     H22817   7.500   7.591   4.722  1.3435  1.6507 -0.2790
  910MOL0     H22818   7.442   7.757   4.564 -0.9803 -1.4804  0.0733
  910MOL0     H22819   7.368   7.864   4.693 -0.2491 -0.1327 -1.0352
  910MOL0     H22820   7.642   7.772   4.741  1.2479  1.1871 -0.6120
  910MOL0     H22821   7.536   7.903   4.807  2.0728  0.9877  0.2740
  910MOL0     H22822   7.529   8.024   4.588  0.4814  0.8351  0.1699
  910MOL0     H22823   7.630   7.907   4.521  0.2975 -1.5055  0.2599
  910MOL0     H22824   7.711   8.077   4.766  2.7186  0.3074 -0.2417
  910MOL0     H22825   7.804   7.951   4.691 -2.6120 -2.6879  0.5850
  910MOL0     H22826   7.733   8.231   4.585 -1.5280 -0.0931  1.8522
  910MOL0     H22827   7.802   8.108   4.480 -1.2324  2.1904 -0.0997
  910MOL0     H22828   7.998   8.086   4.656  2.7978  1.7343 -1.2764
  910MOL0     H22829   7.976   8.241   4.566 -1.1467  2.2552  1.1139
  910MOL0     H22830   7.223   7.608   4.355 -1.6636  0.8266  0.0764
  910MOL0     H22831   7.020   7.535   4.222 -1.2004  3.4034  1.6133
  910MOL0     H22832   6.744   7.050   4.165  1.7151  2.2751  1.9942
  910MOL0     H22833   6.505   6.965   4.112 -0.2707 -0.5907  1.0350
  910MOL0     H22834   4.645   7.717   4.828  1.1430 -0.0291 -0.1436
  910MOL0     H22835   4.424   7.792   4.771 -0.5719  0.1090 -1.4892
  910MOL0     H22836   4.082   7.803   4.653  1.0445  0.5739 -0.1127
  910MOL0     H22837   3.881   7.907   4.555  1.9219 -0.1077 -0.2704
  910MOL0     H22838   3.423   7.935   4.682  2.4527  2.9056  0.7202
  910MOL0     H22839   3.490   7.842   4.812 -1.0105 -0.5852 -0.1842
  910MOL0     H22840   3.560   7.663   4.649  0.7052 -0.8210 -2.6735
  910MOL0     H22841   3.465   7.754   4.535  0.4220  0.8998  0.6139
  910MOL0     H22842   3.365   7.618   4.788  0.1046 -1.4634 -0.6735
  910MOL0     H22843   3.336   7.572   4.622 -1.3686 -0.0020  0.2323
  910MOL0     H22844   3.134   7.655   4.703  2.3454 -0.8591  3.2451
  910MOL0     H22845   3.196   7.799   4.763 -0.5304 -0.7055  0.7951
  910MOL0     H22846   3.144   7.877   4.343  1.5546 -0.7074 -0.7787
  910MOL0     H22847   3.664   7.794   4.906 -0.1302 -0.0775 -0.0154
  910MOL0     H22848   3.930   7.672   5.101  0.3739 -1.3245 -0.3798
  910MOL0     H22849   3.764   7.738   5.090  0.6839  1.3894  0.3505
  910MOL0     H22850   3.812   7.574   5.020 -3.7235  0.3061  0.5869
  911MOL0     O22851   5.085   3.807   3.992 -0.5332 -0.4609 -0.6939
  911MOL0     C22852   5.037   3.861   3.891  0.6102 -0.3964  0.1417
  911MOL0     O22853   5.111   3.928   3.798 -0.0296 -0.2298 -0.4705
  911MOL0     C22854   5.245   3.934   3.817  0.0458 -0.2670  0.1543
  911MOL0     C22855   5.306   4.014   3.914  0.2377 -0.1750  0.2951
  911MOL0     C22856   5.444   4.010   3.942 -0.6273  1.4683  0.8663
  911MOL0     C22857   5.531   3.925   3.864 -0.5573  0.0342 -0.4297
  911MOL0     O22858   5.672   3.911   3.871  0.5219 -0.8539  0.5326
  911MOL0     C22859   5.751   4.028   3.908  0.2106 -0.3047  0.4422
  911MOL0     C22860   5.785   4.097   3.778 -0.3930 -0.0766 -1.1106
  911MOL0     C22861   5.830   4.248   3.796  0.4990 -0.0260 -0.0542
  911MOL0     C22862   5.978   4.241   3.827 -0.4580  0.6894  0.4496
  911MOL0     C22863   6.016   4.355   3.924  0.2092 -0.0477  1.3519
  911MOL0     C22864   6.151   4.363   3.969 -0.4652  0.2721 -0.2391
  911MOL0     C22865   6.168   4.472   4.079  0.4127  0.4070 -0.1626
  911MOL0     C22866   6.312   4.463   4.125 -0.1061  0.6008  0.3403
  911MOL0     N22867   6.409   4.521   4.031 -0.1258 -0.1595  0.3064
  911MOL0     C22868   6.406   4.643   3.962  0.4520  0.5784 -0.2342
  911MOL0     C22869   6.506   4.637   3.873  0.6010 -0.2675  0.5268
  911MOL0     C22870   6.539   4.754   3.783  0.8411  0.6378  0.0543
  911MOL0     C22871   6.473   4.728   3.642  0.1189  0.0078  0.1408
  911MOL0     C22872   6.519   4.601   3.555  0.0553 -0.6193  0.3289
  911MOL0     C22873   6.677   4.574   3.566 -0.0537 -0.2789  0.4630
  911MOL0     O22874   6.703   4.480   3.457  0.7588 -0.4802  0.4192
  911MOL0     C22875   6.836   4.454   3.420 -0.2035  0.1426 -0.1358
  911MOL0     C22876   6.945   4.517   3.474  0.3819  1.3122  0.2996
  911MOL0     C22877   7.069   4.507   3.417 -0.7135  0.4083 -0.3108
  911MOL0     C22878   7.094   4.428   3.304  0.1627 -0.3361 -0.4908
  911MOL0     C22879   7.223   4.419   3.247 -0.4174 -0.5236  0.4594
  911MOL0     O22880   7.330   4.450   3.324  0.9836  0.2896 -0.9309
  911MOL0     C22881   7.452   4.391   3.302  0.6303 -0.0506 -0.2162
  911MOL0     C22882   7.567   4.470   3.345 -0.0168 -0.1184  0.9599
  911MOL0     C22883   7.691   4.418   3.314  0.1576 -0.6812 -0.0276
  911MOL0     C22884   7.697   4.292   3.258 -0.2356  0.8779 -0.5349
  911MOL0     O22885   7.828   4.252   3.236  0.4884 -0.0768 -0.0059
  911MOL0     C22886   7.854   4.113   3.264 -0.5048  0.1389 -0.3524
  911MOL0     C22887   7.991   4.065   3.211 -0.0597  0.3551  0.4297
  911MOL0     C22888   8.115   4.155   3.239 -0.4979  0.3769  0.3529
  911MOL0     C22889   8.247   4.098   3.184  0.2614  0.5941  0.1799
  911MOL0     C22890   8.232   4.085   3.036  0.5778  0.0244 -0.9568
  911MOL0     C22891   8.363   4.046   2.972  0.2107  0.4487  0.4152
  911MOL0     C22892   8.481   4.147   2.976  0.4206 -0.5299  0.0447
  911MOL0     C22893   8.457   4.295   2.949  0.4464  0.4262  1.1398
  911MOL0    Cl22894   8.361   4.303   2.785  0.2250  0.2815 -0.0704
  911MOL0     C22895   7.584   4.213   3.222  0.2413 -0.3490  0.8150
  911MOL0     C22896   7.462   4.269   3.234  0.1166 -0.1929 -0.4643
  911MOL0     O22897   7.231   4.383   3.126  0.4064 -0.2758 -1.1842
  911MOL0     C22898   6.983   4.369   3.239  0.3841 -0.4133  0.2163
  911MOL0     C22899   6.854   4.382   3.301  0.4550 -0.1179  0.0615
  911MOL0     N22900   6.553   4.512   3.877  0.5476  0.1816  0.2967
  911MOL0     N22901   6.497   4.438   3.966 -0.5248  0.0299 -0.2440
  911MOL0     C22902   5.467   3.837   3.781 -0.0952 -0.7494 -0.4681
  911MOL0     C22903   5.330   3.842   3.758  1.1054  0.2305  0.2494
  911MOL0     C22904   4.887   3.851   3.879 -1.0786  0.4177 -1.0968
  911MOL0     C22905   4.814   3.821   3.997 -0.2457 -0.4078  0.1993
  911MOL0     C22906   4.676   3.822   3.998  0.7698 -0.8589  0.9358
  911MOL0     C22907   4.604   3.817   3.873 -1.1688 -1.0365 -0.7533
  911MOL0     O22908   4.467   3.804   3.884 -0.1779  0.3481  0.6833
  911MOL0     C22909   4.399   3.748   3.768 -0.0952 -0.2010 -0.5842
  911MOL0     C22910   4.250   3.707   3.797 -0.6381  0.5816  0.5701
  911MOL0     C22911   4.239   3.620   3.922 -0.6107 -0.4109  0.5790
  911MOL0     C22912   4.295   3.481   3.898 -0.0044  0.1639 -0.3723
  911MOL0     C22913   4.200   3.391   3.830  0.2677 -0.4286  0.9505
  911MOL0     C22914   4.141   3.300   3.769 -0.2620  0.7002 -0.6558
  911MOL0     C22915   4.676   3.833   3.756  0.9326  0.7464 -0.2671
  911MOL0     C22916   4.815   3.852   3.757 -0.4318  0.1477 -0.4799
  911MOL0     C22917   4.884   3.875   3.630  0.2184  0.5461  0.8628
  911MOL0     H22918   5.253   4.060   3.996  0.9015 -0.1179  0.6932
  911MOL0     H22919   5.480   4.057   4.033  0.2923  0.1804  1.2025
  911MOL0     H22920   5.692   4.092   3.974 -2.2182  0.9273 -2.6979
  911MOL0     H22921   5.845   3.999   3.956  3.7639  3.1555 -3.5603
  911MOL0     H22922   5.698   4.094   3.711 -1.1755  0.5459 -0.1563
  911MOL0     H22923   5.866   4.049   3.722 -0.3294 -0.6335 -0.5409
  911MOL0     H22924   5.764   4.307   3.860 -0.3292  0.4326 -1.2856
  911MOL0     H22925   5.811   4.299   3.701 -1.1794  0.6320  0.5885
  911MOL0     H22926   6.000   4.145   3.875 -1.4199  0.2189 -0.0382
  911MOL0     H22927   6.047   4.250   3.743 -0.1803  2.7773  0.8557
  911MOL0     H22928   5.985   4.446   3.872 -1.6289 -1.1117  0.4900
  911MOL0     H22929   5.951   4.348   4.012 -0.7646  1.9267  0.8293
  911MOL0     H22930   6.195   4.269   4.003 -1.2803  0.4115  1.2619
  911MOL0     H22931   6.217   4.384   3.884 -0.2328  1.6079  0.2477
  911MOL0     H22932   6.098   4.461   4.163  1.9993  1.1806  1.3236
  911MOL0     H22933   6.154   4.574   4.042  1.4126  0.6370  0.0604
  911MOL0     H22934   6.329   4.515   4.220 -0.1293  0.2417  0.5441
  911MOL0     H22935   6.333   4.356   4.136  0.3219  0.4517 -1.5956
  911MOL0     H22936   6.338   4.725   3.986  0.7482  0.3578  1.4642
  911MOL0     H22937   6.502   4.847   3.827 -0.8874 -0.0616  0.1503
  911MOL0     H22938   6.647   4.772   3.777  0.8122  0.8428  0.1278
  911MOL0     H22939   6.365   4.711   3.644  0.2074 -0.6113 -0.0711
  911MOL0     H22940   6.487   4.823   3.589 -1.2811  0.1508  0.0070
  911MOL0     H22941   6.492   4.617   3.451 -0.6903  0.8520  0.7310
  911MOL0     H22942   6.474   4.506   3.587 -1.2265 -1.0892 -2.5643
  911MOL0     H22943   6.699   4.537   3.667 -2.2932  0.6189  1.3377
  911MOL0     H22944   6.738   4.663   3.550 -2.1302  1.0755 -0.1977
  911MOL0     H22945   6.932   4.563   3.571  1.3051 -1.1464  1.6780
  911MOL0     H22946   7.146   4.558   3.474 -0.0722 -1.6302  0.7652
  911MOL0     H22947   7.546   4.567   3.390 -0.3418 -0.1888  0.9675
  911MOL0     H22948   7.772   4.484   3.344 -1.9564  1.3212  1.6361
  911MOL0     H22949   7.856   4.091   3.371  2.1318 -3.5578 -0.9831
  911MOL0     H22950   7.781   4.040   3.228 -0.3808 -1.7262  2.8171
  911MOL0     H22951   8.016   3.966   3.251 -0.2450  0.8442  1.7836
  911MOL0     H22952   7.977   4.064   3.102 -0.0549 -2.3689  0.3695
  911MOL0     H22953   8.098   4.254   3.196  0.4632  0.9861  1.3362
  911MOL0     H22954   8.122   4.170   3.347  0.0361 -0.1464  0.3972
  911MOL0     H22955   8.265   4.000   3.229  2.1323  0.5323 -0.6043
  911MOL0     H22956   8.341   4.150   3.203  1.3903 -0.6050 -1.7731
  911MOL0     H22957   8.186   4.177   2.999  0.5975  0.2175 -0.5079
  911MOL0     H22958   8.164   3.999   3.028  0.6480  0.0976 -2.6587
  911MOL0     H22959   8.397   3.950   3.012  1.5153  0.6717 -0.1171
  911MOL0     H22960   8.349   4.019   2.867  1.2275 -4.2495  1.2694
  911MOL0     H22961   8.553   4.109   2.903  1.1249 -1.0299  0.9875
  911MOL0     H22962   8.537   4.135   3.069  0.7334  2.2334  0.3110
  911MOL0     H22963   8.395   4.342   3.026  1.4324 -0.9096  2.8112
  911MOL0     H22964   8.553   4.349   2.942  1.0430 -0.6734  0.6445
  911MOL0     H22965   7.595   4.123   3.161  0.6259  0.0435  0.2905
  911MOL0     H22966   7.378   4.210   3.198 -0.7587  0.2227  0.8397
  911MOL0     H22967   6.987   4.306   3.151 -3.5153 -1.8163  0.8572
  911MOL0     H22968   6.769   4.339   3.249  2.5015 -3.3308 -0.9620
  911MOL0     H22969   5.521   3.753   3.737 -1.1223 -1.6287 -0.0807
  911MOL0     H22970   5.285   3.770   3.691  0.2773 -0.1227  1.1614
  911MOL0     H22971   4.867   3.807   4.091 -0.0664  0.1991  0.1962
  911MOL0     H22972   4.623   3.798   4.089  1.4227  0.3256  1.6423
  911MOL0     H22973   4.445   3.666   3.711  1.2091 -0.8537  1.3237
  911MOL0     H22974   4.385   3.835   3.703 -1.5692  0.5716  0.7145
  911MOL0     H22975   4.213   3.658   3.707 -0.8655  0.0979  0.9200
  911MOL0     H22976   4.193   3.798   3.819 -1.5804 -0.1898  1.4261
  911MOL0     H22977   4.141   3.612   3.968 -1.1082 -1.1485 -0.5720
  911MOL0     H22978   4.301   3.677   3.992 -0.0257  0.2203 -0.4191
  911MOL0     H22979   4.390   3.497   3.846  0.6748  1.2632  1.1180
  911MOL0     H22980   4.334   3.433   3.988  0.3421 -0.2204 -0.7271
  911MOL0     H22981   4.086   3.230   3.710  0.3275 -0.0559 -0.3267
  911MOL0     H22982   4.631   3.825   3.658  1.0447  0.1210 -0.2727
  911MOL0     H22983   4.824   3.861   3.540  0.0367 -2.2289  1.3118
  911MOL0     H22984   4.912   3.980   3.622  1.2155  0.2283 -0.0438
  911MOL0     H22985   4.976   3.815   3.630  1.1869  1.9276 -1.4341
  912MOL0     O22986   6.241   4.961   2.210  0.5045  0.2481  0.4352
  912MOL0     C22987   6.160   5.052   2.230  0.5280  0.0141 -0.0342
  912MOL0     O22988   6.197   5.177   2.250 -0.2660  0.7396  0.3766
  912MOL0     C22989   6.327   5.213   2.218 -0.3850  0.2923  0.2006
  912MOL0     C22990   6.398   5.176   2.103  0.2287 -0.2843  0.8321
  912MOL0     C22991   6.529   5.237   2.072  0.9291  0.5165  0.2698
  912MOL0     C22992   6.579   5.327   2.163 -0.0002  0.9448 -0.3144
  912MOL0     O22993   6.700   5.385   2.135  0.7314  0.0862  0.0285
  912MOL0     C22994   6.824   5.312   2.163  0.8518 -0.1838  0.0255
  912MOL0     C22995   6.938   5.414   2.146 -0.3947  0.0391 -0.4644
  912MOL0     C22996   7.081   5.355   2.158  0.5589  0.2661  0.0656
  912MOL0     C22997   7.105   5.261   2.284  0.1936 -0.9876  0.1327
  912MOL0     C22998   7.067   5.115   2.280 -0.4966  1.0368  0.1355
  912MOL0     C22999   7.072   5.024   2.154 -0.5967 -0.6861  0.0652
  912MOL0     C23000   7.053   4.871   2.174 -0.4005  0.4070  0.7613
  912MOL0     C23001   7.071   4.795   2.042  0.7393  0.1433 -0.1628
  912MOL0     N23002   7.213   4.791   1.996  0.3739 -0.1992 -0.4017
  912MOL0     C23003   7.304   4.714   2.065 -0.6251 -0.0909  0.7639
  912MOL0     C23004   7.420   4.750   2.010 -0.1161  0.1859  0.3174
  912MOL0     C23005   7.557   4.690   2.045  0.5700 -0.4302  0.4729
  912MOL0     C23006   7.585   4.737   2.192 -0.2670  0.1264  0.2198
  912MOL0     C23007   7.680   4.641   2.264 -0.3209  0.1360  0.0426
  912MOL0     C23008   7.795   4.591   2.184 -0.4649  0.3598 -0.5318
  912MOL0     O23009   7.889   4.532   2.276  1.3560 -0.5705 -0.4137
  912MOL0     C23010   8.003   4.478   2.235 -0.3530 -0.3770  0.4734
  912MOL0     C23011   8.106   4.455   2.325  0.0685 -0.4825  1.3637
  912MOL0     C23012   8.210   4.381   2.284  0.6093  0.2709 -0.4311
  912MOL0     C23013   8.230   4.340   2.151  0.3265  0.0514 -0.3303
  912MOL0     C23014   8.350   4.272   2.106  0.5452 -0.1994  0.1606
  912MOL0     O23015   8.396   4.300   1.985 -0.1043  0.0323 -0.2878
  912MOL0     C23016   8.517   4.243   1.937 -0.3670  0.3202 -0.6410
  912MOL0     C23017   8.584   4.128   1.986 -0.3281 -0.0859 -0.0913
  912MOL0     C23018   8.703   4.081   1.926  0.1645  0.1349  0.1572
  912MOL0     C23019   8.753   4.144   1.806 -0.8644 -0.0780 -0.3248
  912MOL0     O23020   8.876   4.125   1.751 -0.7740 -0.4828 -0.2054
  912MOL0     C23021   8.938   4.003   1.764  0.1743  0.4843 -0.0496
  912MOL0     C23022   9.046   3.979   1.654  0.1193 -0.5416  0.3905
  912MOL0     C23023   9.152   4.081   1.685 -0.1733  0.7970 -0.0035
  912MOL0     C23024   9.259   4.085   1.581  0.3427 -0.7448 -0.0869
  912MOL0     C23025   9.362   4.188   1.602 -0.6215 -0.1087 -0.5508
  912MOL0     C23026   9.488   4.157   1.506  1.0464  0.5229  0.7292
  912MOL0     C23027   9.601   4.258   1.500 -0.2044  0.0619 -0.3226
  912MOL0     C23028   9.673   4.248   1.641 -0.3652  0.4467 -0.1359
  912MOL0    Cl23029   9.732   4.073   1.667 -0.0661 -0.2554 -0.0065
  912MOL0     C23030   8.687   4.268   1.765  0.4423  0.0572 -0.7027
  912MOL0     C23031   8.567   4.309   1.820 -0.6984  0.8285 -0.0879
  912MOL0     O23032   8.401   4.193   2.192  0.0646  0.1200  0.5216
  912MOL0     C23033   8.133   4.375   2.061 -1.2002 -0.1719 -0.7390
  912MOL0     C23034   8.018   4.430   2.105  0.2136  0.2602  0.7420
  912MOL0     N23035   7.401   4.849   1.923  0.0471 -1.1101  0.2755
  912MOL0     N23036   7.273   4.874   1.905  0.1107  0.3763 -1.0599
  912MOL0     C23037   6.519   5.353   2.280  0.2509  0.4951 -1.1101
  912MOL0     C23038   6.397   5.294   2.311  0.9558  0.1984  0.1149
  912MOL0     C23039   6.016   5.013   2.252 -0.1120  0.0272 -0.2196
  912MOL0     C23040   5.925   5.114   2.291 -0.0452  0.4054 -0.1438
  912MOL0     C23041   5.791   5.084   2.317 -0.9859 -0.4129  0.0227
  912MOL0     C23042   5.728   4.959   2.306 -0.2467 -0.0990  0.0870
  912MOL0     O23043   5.592   4.956   2.331 -0.4089 -0.6204 -0.1258
  912MOL0     C23044   5.510   4.835   2.303 -0.2585 -0.1762 -0.1305
  912MOL0     C23045   5.377   4.858   2.376 -0.2717  0.9811 -0.1873
  912MOL0     C23046   5.286   4.967   2.315 -0.7047  0.0708  0.1591
  912MOL0     C23047   5.146   4.973   2.368 -0.0657  0.2891  0.0525
  912MOL0     C23048   5.074   4.855   2.323  1.2182 -0.2530 -0.1757
  912MOL0     C23049   5.007   4.765   2.280  0.6154 -0.0046 -0.0399
  912MOL0     C23050   5.815   4.858   2.266  0.0902  0.4328 -0.0399
  912MOL0     C23051   5.955   4.877   2.241  0.6808 -1.0424 -0.2761
  912MOL0     C23052   6.037   4.770   2.175  0.4341 -0.2372 -0.3619
  912MOL0     H23053   6.353   5.119   2.022 -0.5509  2.8526 -1.1268
  912MOL0     H23054   6.579   5.219   1.977  1.2301  2.5932 -0.0224
  912MOL0     H23055   6.823   5.273   2.265  4.7769  0.1574  0.3229
  912MOL0     H23056   6.836   5.234   2.088  1.8980 -0.0628  0.0587
  912MOL0     H23057   6.926   5.487   2.227  1.7003  1.5526 -1.4157
  912MOL0     H23058   6.941   5.469   2.052 -0.3992 -1.9917 -1.7236
  912MOL0     H23059   7.157   5.433   2.161 -0.9648  1.8454 -0.8486
  912MOL0     H23060   7.104   5.290   2.073  2.6512  0.5323  0.3871
  912MOL0     H23061   7.213   5.252   2.300  0.5869 -2.7845 -2.8600
  912MOL0     H23062   7.065   5.306   2.376  0.9589 -2.6238  1.3091
  912MOL0     H23063   7.127   5.069   2.360 -1.3685  0.2170  0.3394
  912MOL0     H23064   6.966   5.106   2.322 -1.3931  5.4278 -0.6429
  912MOL0     H23065   7.003   5.056   2.076 -0.2629  0.1041  0.0781
  912MOL0     H23066   7.170   5.051   2.114 -0.2618  2.6086  2.6086
  912MOL0     H23067   6.952   4.862   2.214  0.0647  0.5557  2.0294
  912MOL0     H23068   7.115   4.824   2.251 -1.4334  0.2340  1.5153
  912MOL0     H23069   7.039   4.695   2.074  1.6539 -0.7614 -1.9401
  912MOL0     H23070   6.999   4.827   1.965  1.5608 -0.1314 -1.0700
  912MOL0     H23071   7.293   4.635   2.138  0.0633 -1.2939 -0.3778
  912MOL0     H23072   7.551   4.582   2.033 -3.3806 -0.4046  0.9522
  912MOL0     H23073   7.641   4.731   1.988 -0.5341  0.3983 -0.6147
  912MOL0     H23074   7.637   4.832   2.184  2.0847 -1.2067 -1.4375
  912MOL0     H23075   7.497   4.755   2.255 -1.7982  1.3989 -2.1110
  912MOL0     H23076   7.631   4.551   2.303  2.0526 -0.5844  1.5623
  912MOL0     H23077   7.712   4.698   2.352 -2.2430  1.5965 -0.1359
  912MOL0     H23078   7.851   4.674   2.140  0.6375 -0.6678 -1.1134
  912MOL0     H23079   7.753   4.523   2.109 -3.8014 -0.4686  1.8317
  912MOL0     H23080   8.094   4.483   2.429 -1.3328 -0.4914  1.2314
  912MOL0     H23081   8.284   4.359   2.361  1.5627 -1.4235 -1.7381
  912MOL0     H23082   8.541   4.062   2.061 -0.9426 -1.2860 -1.4539
  912MOL0     H23083   8.757   4.004   1.981  0.9980 -0.2878 -1.2020
  912MOL0     H23084   8.982   3.992   1.864 -1.6063 -0.2431  0.6863
  912MOL0     H23085   8.858   3.930   1.747 -0.1890  0.9017 -0.1496
  912MOL0     H23086   9.087   3.878   1.662  3.0142  0.5875  0.8005
  912MOL0     H23087   9.002   4.000   1.556  0.3019 -0.6872  0.2765
  912MOL0     H23088   9.111   4.181   1.703  0.4946  1.2863 -1.1029
  912MOL0     H23089   9.210   4.052   1.773  3.1205  0.1171 -2.2025
  912MOL0     H23090   9.220   4.094   1.479  2.9286  1.6572 -1.0188
  912MOL0     H23091   9.312   3.989   1.585 -0.6970 -1.3778 -0.9954
  912MOL0     H23092   9.388   4.180   1.708  0.4383  0.9463 -0.7084
  912MOL0     H23093   9.313   4.284   1.583 -1.0265 -0.9402 -4.6341
  912MOL0     H23094   9.521   4.057   1.535  0.6778  0.3182  0.4543
  912MOL0     H23095   9.444   4.149   1.406  1.6872  1.6902  0.3333
  912MOL0     H23096   9.568   4.358   1.472  3.2496  0.9533 -1.7135
  912MOL0     H23097   9.685   4.235   1.434 -0.1551 -0.7651  0.0227
  912MOL0     H23098   9.756   4.320   1.643  0.3068 -0.3122 -0.1601
  912MOL0     H23099   9.615   4.276   1.730  1.2788 -1.8234  1.7802
  912MOL0     H23100   8.745   4.320   1.690  2.4510 -0.1730  0.5934
  912MOL0     H23101   8.513   4.392   1.774 -0.6729  0.2810 -1.1512
  912MOL0     H23102   8.147   4.357   1.955  1.7770 -2.2284 -0.1172
  912MOL0     H23103   7.943   4.442   2.027  0.5024 -0.7121  0.3062
  912MOL0     H23104   6.575   5.402   2.359 -1.1838 -0.2776  0.4542
  912MOL0     H23105   6.344   5.324   2.401 -0.3793  0.7680 -0.8319
  912MOL0     H23106   5.958   5.217   2.291 -1.6521  1.0358 -2.7464
  912MOL0     H23107   5.731   5.165   2.356 -0.7137 -0.8112  1.2919
  912MOL0     H23108   5.561   4.747   2.344 -2.7064 -1.5631  0.0818
  912MOL0     H23109   5.501   4.832   2.194  2.6173  1.4805 -0.5358
  912MOL0     H23110   5.399   4.885   2.480 -2.4603  0.6342  0.4255
  912MOL0     H23111   5.324   4.762   2.376  1.8531 -0.2585  0.1483
  912MOL0     H23112   5.289   4.962   2.206  0.2347  3.0371 -0.0195
  912MOL0     H23113   5.327   5.068   2.325  1.1721 -0.6516  0.1261
  912MOL0     H23114   5.146   4.992   2.476  0.7552  0.7658 -0.0242
  912MOL0     H23115   5.091   5.063   2.340 -2.4310 -0.0003  3.1885
  912MOL0     H23116   4.949   4.688   2.233 -1.9713  0.1221  2.6565
  912MOL0     H23117   5.775   4.758   2.253 -0.6091  0.9738 -2.6503
  912MOL0     H23118   6.059   4.803   2.073  0.6750  2.3032  0.4479
  912MOL0     H23119   6.127   4.746   2.231 -0.0710 -2.7200 -0.4710
  912MOL0     H23120   5.987   4.672   2.168  1.8196 -0.9469 -0.5774
  913MOL0     O23121  11.046   5.384   0.596 -0.1094 -0.5220  0.0698
  913MOL0     C23122  10.951   5.314   0.620  0.0165 -0.6918 -0.5607
  913MOL0     O23123  10.958   5.183   0.657  0.1347 -0.2262 -0.1533
  913MOL0     C23124  11.082   5.134   0.681 -1.1245  1.1187  1.0467
  913MOL0     C23125  11.166   5.181   0.786  0.6286 -0.1547 -0.2055
  913MOL0     C23126  11.290   5.123   0.812 -0.5659  0.1442 -0.2881
  913MOL0     C23127  11.341   5.033   0.722  0.6934 -0.6819  0.0352
  913MOL0     O23128  11.479   5.010   0.722  0.5858 -0.0226 -0.0229
  913MOL0     C23129  11.538   4.885   0.706  0.0344  0.1142  0.3120
  913MOL0     C23130  11.671   4.872   0.792 -0.2443 -0.8026  0.5251
  913MOL0     C23131  11.749   4.749   0.758 -0.1880  0.5782 -0.5317
  913MOL0     C23132  11.862   4.727   0.860  0.1706 -0.1827  0.0757
  913MOL0     C23133  11.914   4.580   0.847  0.4079 -1.0008  0.2488
  913MOL0     C23134  12.041   4.550   0.930  0.7646 -0.2169 -0.3050
  913MOL0     C23135  12.022   4.403   0.993 -0.4294  0.2676 -0.2683
  913MOL0     C23136  12.167   4.353   1.039  0.5123 -0.2833  0.0799
  913MOL0     N23137  12.219   4.434   1.147  0.5087 -0.7183  0.4604
  913MOL0     C23138  12.201   4.425   1.285  0.1273 -0.5617  0.1996
  913MOL0     C23139  12.283   4.523   1.339 -0.8309 -0.2818  0.0540
  913MOL0     C23140  12.333   4.529   1.477 -0.4250  0.1293 -0.2587
  913MOL0     C23141  12.249   4.611   1.581  0.2677 -0.5680 -0.6222
  913MOL0     C23142  12.239   4.756   1.544  0.6300 -0.4407 -0.2672
  913MOL0     C23143  12.379   4.832   1.551  0.2408 -0.1521  0.2527
  913MOL0     O23144  12.443   4.799   1.677  0.3635  0.2118 -0.0357
  913MOL0     C23145  12.559   4.870   1.710 -0.4234  0.2523 -0.2315
  913MOL0     C23146  12.627   4.836   1.823  0.6080 -0.1666 -0.6669
  913MOL0     C23147  12.743   4.907   1.858  0.1790 -0.5437  0.4687
  913MOL0     C23148  12.793   5.005   1.778 -0.5943  0.1713  0.5265
  913MOL0     C23149  12.919   5.087   1.813 -0.5467 -0.3060  0.5574
  913MOL0     O23150  12.966   5.155   1.702 -0.2124 -0.7145 -0.0424
  913MOL0     C23151  13.086   5.220   1.713  0.5726 -0.0027  0.7479
  913MOL0     C23152  13.114   5.321   1.806 -0.2705 -0.9241 -0.6626
  913MOL0     C23153  13.239   5.379   1.809 -0.1813  0.6735  0.0025
  913MOL0     C23154  13.342   5.343   1.717  0.0584  0.2436 -0.6810
  913MOL0     O23155  13.466   5.401   1.744  0.1718 -0.1920 -0.8513
  913MOL0     C23156  13.571   5.374   1.644  0.4099  0.1914 -0.1020
  913MOL0     C23157  13.690   5.456   1.690  0.2017  0.1530 -0.1961
  913MOL0     C23158  13.775   5.383   1.798 -0.3610  0.7688 -0.1691
  913MOL0     C23159  13.878   5.475   1.870 -0.9417  0.2165 -0.1856
  913MOL0     C23160  14.019   5.413   1.890  0.0920  1.0697 -1.1570
  913MOL0     C23161  14.104   5.519   1.967 -0.1145 -0.3100 -0.4205
  913MOL0     C23162  14.255   5.481   1.998 -0.0562 -0.4163 -0.0516
  913MOL0     C23163  14.338   5.432   1.882 -0.0473  0.0549  0.3562
  913MOL0    Cl23164  14.383   5.567   1.769 -0.2953 -0.3848 -0.1944
  913MOL0     C23165  13.310   5.238   1.621 -0.0779 -1.0084  0.0740
  913MOL0     C23166  13.184   5.184   1.617  0.2998 -0.9800  0.6830
  913MOL0     O23167  12.954   5.099   1.932 -0.1121  0.2963  0.4543
  913MOL0     C23168  12.720   5.040   1.663 -0.8216  0.2453  0.5000
  913MOL0     C23169  12.609   4.973   1.625 -0.1781 -0.2438 -0.3152
  913MOL0     N23170  12.329   4.599   1.231 -0.1262 -0.2848 -0.2987
  913MOL0     N23171  12.303   4.542   1.120 -0.0677  0.5241 -0.6362
  913MOL0     C23172  11.265   4.978   0.621  0.5949  1.0621  0.4458
  913MOL0     C23173  11.131   5.024   0.608 -0.4730  0.1395  1.2308
  913MOL0     C23174  10.810   5.369   0.602 -0.2231 -0.7228 -0.6036
  913MOL0     C23175  10.708   5.291   0.641 -0.3459  0.2832 -0.7781
  913MOL0     C23176  10.575   5.329   0.626 -0.3062 -0.2372 -0.7610
  913MOL0     C23177  10.539   5.464   0.585  0.5216 -0.1900 -0.5108
  913MOL0     O23178  10.403   5.486   0.570  0.7748  0.6597 -0.3024
  913MOL0     C23179  10.369   5.590   0.486  1.5921 -0.4232  0.0800
  913MOL0     C23180  10.357   5.711   0.570 -0.5360 -0.5447  0.8304
  913MOL0     C23181  10.348   5.839   0.489 -0.6272  0.1229  0.5701
  913MOL0     C23182  10.300   5.949   0.581  0.3216 -0.3706  0.0552
  913MOL0     C23183  10.275   6.067   0.498  0.0659 -0.4751  0.5590
  913MOL0     C23184  10.270   6.168   0.431  0.0802  0.2748  0.5018
  913MOL0     C23185  10.641   5.542   0.534 -1.0261 -0.1414 -0.7738
  913MOL0     C23186  10.779   5.501   0.549 -0.0867  0.0560 -0.3922
  913MOL0     C23187  10.891   5.597   0.505  0.4877 -0.3103  0.6748
  913MOL0     H23188  11.134   5.259   0.855  1.7077  1.4437 -1.4441
  913MOL0     H23189  11.351   5.174   0.886  1.3521  0.0028 -1.6923
  913MOL0     H23190  11.466   4.808   0.736 -0.4867  0.6258  0.3997
  913MOL0     H23191  11.564   4.875   0.600  2.4345 -2.7106  1.0414
  913MOL0     H23192  11.646   4.862   0.898  2.4645  0.5675  1.3936
  913MOL0     H23193  11.736   4.960   0.786 -1.5415  0.1553  0.1888
  913MOL0     H23194  11.797   4.758   0.660  1.9847 -0.7091  0.3410
  913MOL0     H23195  11.680   4.664   0.758  2.2129 -1.5110  0.8617
  913MOL0     H23196  11.941   4.801   0.845  0.7293 -0.2275  2.4097
  913MOL0     H23197  11.828   4.738   0.963  2.3401  0.7325  0.7406
  913MOL0     H23198  11.829   4.521   0.883 -1.2652  0.7581 -0.6572
  913MOL0     H23199  11.940   4.562   0.743  4.6198  1.4667  0.6476
  913MOL0     H23200  12.127   4.567   0.864  1.9507 -1.3036  0.8978
  913MOL0     H23201  12.057   4.618   1.015  0.8666 -1.5424  0.7744
  913MOL0     H23202  11.974   4.324   0.935  1.2524 -1.6543  0.8390
  913MOL0     H23203  11.956   4.409   1.080  0.6192 -1.5622  0.7106
  913MOL0     H23204  12.150   4.253   1.079 -2.3280 -1.1557 -2.8626
  913MOL0     H23205  12.235   4.339   0.954 -1.5663 -1.9036 -1.4256
  913MOL0     H23206  12.144   4.358   1.348 -0.7012  0.3510  0.4624
  913MOL0     H23207  12.342   4.430   1.522  1.3527  1.3507  2.3580
  913MOL0     H23208  12.431   4.579   1.475 -1.2725  1.8909  0.5246
  913MOL0     H23209  12.144   4.582   1.576  0.0951  0.2281 -2.5919
  913MOL0     H23210  12.294   4.601   1.680  0.7746 -0.9647 -0.8835
  913MOL0     H23211  12.160   4.808   1.600 -2.8317 -2.2855 -2.9996
  913MOL0     H23212  12.201   4.769   1.443  1.2063  2.7112 -0.1723
  913MOL0     H23213  12.359   4.939   1.554  2.1951  0.2589 -0.5308
  913MOL0     H23214  12.447   4.803   1.471  1.0719  0.6210  0.6564
  913MOL0     H23215  12.588   4.755   1.883 -0.3024 -0.7072 -1.9366
  913MOL0     H23216  12.793   4.884   1.951 -0.1841  1.0549  1.0995
  913MOL0     H23217  13.039   5.344   1.881  0.6361 -0.6754  0.1810
  913MOL0     H23218  13.256   5.456   1.883 -0.2634  0.7293 -0.0363
  913MOL0     H23219  13.598   5.268   1.646  1.0739  0.3155 -1.2984
  913MOL0     H23220  13.539   5.410   1.546 -0.7549  2.1182  0.9196
  913MOL0     H23221  13.752   5.477   1.602  0.7078 -2.2775 -0.5034
  913MOL0     H23222  13.656   5.550   1.734 -1.8919 -0.2651 -0.8486
  913MOL0     H23223  13.712   5.334   1.872  0.8050  0.1736  0.4587
  913MOL0     H23224  13.833   5.302   1.752  1.6538  1.4896  0.9611
  913MOL0     H23225  13.838   5.498   1.969 -2.6400 -0.1692 -0.7360
  913MOL0     H23226  13.897   5.563   1.808 -2.5704  0.5798 -0.2162
  913MOL0     H23227  14.072   5.389   1.798  1.6070  2.4686 -0.7023
  913MOL0     H23228  14.008   5.324   1.952 -1.6943  0.8027 -1.8014
  913MOL0     H23229  14.101   5.609   1.905  0.4517 -1.9803 -3.0329
  913MOL0     H23230  14.056   5.542   2.063 -1.1369  0.3107 -1.0562
  913MOL0     H23231  14.254   5.403   2.075  0.0386  1.4420  1.9338
  913MOL0     H23232  14.308   5.568   2.038 -0.4090  0.1395 -0.7822
  913MOL0     H23233  14.430   5.380   1.911  0.0997 -0.9715 -1.7782
  913MOL0     H23234  14.293   5.356   1.819  2.7775 -1.5442  0.0938
  913MOL0     H23235  13.391   5.208   1.557  0.6087 -0.1199  0.4993
  913MOL0     H23236  13.175   5.112   1.536 -2.7338  0.1040 -0.0826
  913MOL0     H23237  12.752   5.126   1.606  3.8127 -1.9995 -0.7674
  913MOL0     H23238  12.563   5.008   1.533 -2.9616  1.9921  1.7222
  913MOL0     H23239  11.320   4.904   0.565  1.7988 -1.3587  4.4293
  913MOL0     H23240  11.063   4.988   0.531  0.7648 -1.1142  0.6846
  913MOL0     H23241  10.727   5.191   0.677 -0.0510  0.5015 -0.3174
  913MOL0     H23242  10.497   5.256   0.645  2.9938 -4.8422 -2.8143
  913MOL0     H23243  10.265   5.578   0.455  1.3324 -1.5208  1.3329
  913MOL0     H23244  10.432   5.604   0.397  1.2938  1.2760  0.1064
  913MOL0     H23245  10.449   5.716   0.629  0.3726  0.6384 -0.6135
  913MOL0     H23246  10.274   5.704   0.640 -1.7988  1.2091 -0.4082
  913MOL0     H23247  10.267   5.834   0.415  0.8040  3.4235 -1.4257
  913MOL0     H23248  10.438   5.876   0.439 -0.8714  0.6349  0.5085
  913MOL0     H23249  10.209   5.922   0.634 -0.7197  1.2873 -0.8201
  913MOL0     H23250  10.373   5.966   0.661 -2.1746 -1.3548  2.6851
  913MOL0     H23251  10.278   6.261   0.379 -4.3033  0.6528  0.1328
  913MOL0     H23252  10.627   5.638   0.486  1.0575 -0.1272 -1.4465
  913MOL0     H23253  10.946   5.550   0.424 -0.1180  1.2315 -0.6952
  913MOL0     H23254  10.858   5.688   0.454  2.6518  0.1487  0.0010
  913MOL0     H23255  10.957   5.617   0.590 -1.1672  0.5777  1.8327
  914MOL0     O23256  10.305   9.996   1.500 -0.1306  0.3319  0.7159
  914MOL0     C23257  10.258  10.048   1.399 -0.2824  0.3105  0.3712
  914MOL0     O23258  10.297  10.165   1.347 -0.4171  0.3508 -0.0266
  914MOL0     C23259  10.390  10.233   1.418  0.4227 -0.6614 -0.0378
  914MOL0     C23260  10.512  10.262   1.357  0.2580  0.4688  0.3428
  914MOL0     C23261  10.613  10.320   1.428 -0.4943  0.4925  0.3992
  914MOL0     C23262  10.599  10.349   1.562  0.6825  0.3137 -0.5030
  914MOL0     O23263  10.713  10.392   1.625  0.2335  0.1287  0.3127
  914MOL0     C23264  10.688  10.512   1.705  0.2082  0.6237 -0.3434
  914MOL0     C23265  10.823  10.558   1.754  0.1769  0.6024 -1.2854
  914MOL0     C23266  10.814  10.650   1.876  0.6039 -1.1467  0.2662
  914MOL0     C23267  10.958  10.670   1.937 -0.1643 -0.0630 -0.5878
  914MOL0     C23268  10.953  10.752   2.069  0.5052  0.2542  0.3627
  914MOL0     C23269  10.938  10.906   2.042 -0.1118  0.0168 -0.0785
  914MOL0     C23270  10.966  10.980   2.166  0.3523 -0.2942 -0.1307
  914MOL0     C23271  10.917  11.129   2.163 -0.6120 -0.3011  0.9315
  914MOL0     N23272  10.973  11.218   2.059 -0.5706  0.6113 -0.2776
  914MOL0     C23273  11.088  11.291   2.052 -0.1988 -0.1541 -0.0085
  914MOL0     C23274  11.096  11.335   1.922 -0.0528 -0.2611 -0.0378
  914MOL0     C23275  11.219  11.391   1.858 -0.0466  0.3589  0.1054
  914MOL0     C23276  11.265  11.322   1.725  0.0961 -0.3257  0.2455
  914MOL0     C23277  11.406  11.346   1.676  0.0603  0.4761 -1.3594
  914MOL0     C23278  11.509  11.295   1.778 -0.5022 -0.7222 -0.2024
  914MOL0     O23279  11.629  11.317   1.711 -0.1243  0.2922 -0.0393
  914MOL0     C23280  11.742  11.284   1.778  0.6086 -0.5667 -0.0539
  914MOL0     C23281  11.746  11.267   1.919 -1.0539  0.0083 -0.2778
  914MOL0     C23282  11.871  11.258   1.981 -0.1300 -0.1111  0.8628
  914MOL0     C23283  11.987  11.279   1.907  0.0699 -0.5868 -0.5953
  914MOL0     C23284  12.114  11.279   1.974 -0.6202 -0.3169  0.2293
  914MOL0     O23285  12.223  11.304   1.903 -0.7903 -0.5809  0.2943
  914MOL0     C23286  12.347  11.292   1.964  0.1439  0.2579 -0.5848
  914MOL0     C23287  12.446  11.219   1.899  0.5256  0.6218  0.2758
  914MOL0     C23288  12.580  11.212   1.946  0.0546  0.0051 -0.5124
  914MOL0     C23289  12.611  11.273   2.064  0.2280  0.7867 -0.2297
  914MOL0     O23290  12.738  11.281   2.118 -0.4043  0.1582  0.7799
  914MOL0     C23291  12.833  11.187   2.070 -0.5596  0.1804  1.0291
  914MOL0     C23292  12.959  11.216   2.158  1.0379  0.2747  0.1501
  914MOL0     C23293  12.921  11.185   2.304 -0.0123  0.5099  0.2047
  914MOL0     C23294  13.045  11.154   2.395 -0.4613  0.0790 -0.2042
  914MOL0     C23295  13.159  11.259   2.388  0.2969  0.2991 -0.2327
  914MOL0     C23296  13.269  11.237   2.494  0.1782 -0.1523  0.2644
  914MOL0     C23297  13.390  11.321   2.452  1.2434  0.5394  1.1712
  914MOL0     C23298  13.502  11.317   2.558 -0.2580 -0.4271 -0.3822
  914MOL0    Cl23299  13.648  11.397   2.497 -0.2698  0.0744 -0.0799
  914MOL0     C23300  12.507  11.349   2.135  0.2739 -0.0567 -0.3730
  914MOL0     C23301  12.377  11.355   2.084  0.0503  0.0104  0.7328
  914MOL0     O23302  12.112  11.244   2.094 -0.5888 -0.3272 -0.7783
  914MOL0     C23303  11.979  11.296   1.766 -0.1775 -0.4505 -0.5337
  914MOL0     C23304  11.859  11.292   1.707  0.1973  0.4153 -0.0577
  914MOL0     N23305  10.982  11.295   1.855  0.8396 -0.6251 -0.3599
  914MOL0     N23306  10.905  11.242   1.942 -0.0254 -0.0604  0.0208
  914MOL0     C23307  10.475  10.329   1.623 -0.5179 -0.6050  0.3854
  914MOL0     C23308  10.364  10.278   1.549 -0.4020  0.8905 -0.3105
  914MOL0     C23309  10.126  10.002   1.339 -0.4703 -0.9097 -0.2600
  914MOL0     C23310  10.091  10.065   1.216 -0.7005  0.9998 -0.3377
  914MOL0     C23311   9.984  10.015   1.137 -0.7264  0.1277 -0.0142
  914MOL0     C23312   9.903   9.920   1.187 -0.1573  0.2167 -0.6190
  914MOL0     O23313   9.787   9.889   1.122  0.4513  0.0000 -0.4624
  914MOL0     C23314   9.679   9.954   1.185 -0.3895  0.3966  0.0509
  914MOL0     C23315   9.565   9.969   1.082  0.0011 -0.7378  0.2704
  914MOL0     C23316   9.432  10.018   1.137  0.2363 -0.6656  0.5856
  914MOL0     C23317   9.352   9.925   1.223 -0.1766  0.3164  0.0169
  914MOL0     C23318   9.219   9.976   1.264  0.1812 -0.1693  0.0618
  914MOL0     C23319   9.119  10.026   1.299 -0.1383 -0.1497  0.4338
  914MOL0     C23320   9.934   9.861   1.310 -0.1504  0.7268  0.0260
  914MOL0     C23321  10.047   9.893   1.383 -0.1137 -0.6441 -0.5854
  914MOL0     C23322  10.085   9.814   1.514  1.0666 -0.6135  0.3259
  914MOL0     H23323  10.521  10.244   1.250 -1.7298 -0.0424  0.2204
  914MOL0     H23324  10.704  10.325   1.370 -2.0516 -1.5537 -2.4921
  914MOL0     H23325  10.649  10.593   1.643  0.3537  0.2576 -0.9191
  914MOL0     H23326  10.618  10.480   1.783  1.0941 -3.4688 -0.9952
  914MOL0     H23327  10.875  10.615   1.677  2.2114 -1.3339 -1.4370
  914MOL0     H23328  10.876  10.466   1.782  2.1306  2.0886  0.1443
  914MOL0     H23329  10.753  10.616   1.959  1.1448  0.4630  1.3687
  914MOL0     H23330  10.772  10.745   1.841  2.4601 -0.4260 -0.1620
  914MOL0     H23331  10.989  10.568   1.962 -2.0180 -0.4326  0.3775
  914MOL0     H23332  11.034  10.717   1.874  0.7464  0.2933  0.7315
  914MOL0     H23333  10.867  10.721   2.130 -1.1940  1.8650 -1.0817
  914MOL0     H23334  11.047  10.733   2.120  0.1947 -3.1748 -0.1021
  914MOL0     H23335  11.008  10.932   1.962  0.9601  0.2595  0.9073
  914MOL0     H23336  10.835  10.925   2.013 -0.1353 -2.5561 -2.0740
  914MOL0     H23337  11.072  10.976   2.192 -0.2536 -0.2211  2.5782
  914MOL0     H23338  10.922  10.922   2.248 -0.2042  0.6645  0.2606
  914MOL0     H23339  10.808  11.129   2.154 -0.5051  1.2683 -1.1280
  914MOL0     H23340  10.946  11.169   2.260 -1.9016 -0.0204  1.2244
  914MOL0     H23341  11.165  11.301   2.128  1.0927 -0.0849 -1.2918
  914MOL0     H23342  11.210  11.498   1.834  1.6557  0.6904  0.7562
  914MOL0     H23343  11.300  11.376   1.931 -0.4795  0.4189  0.6033
  914MOL0     H23344  11.271  11.214   1.739  0.5906 -0.1724  1.3144
  914MOL0     H23345  11.207  11.353   1.637  0.9200 -2.3215 -1.0758
  914MOL0     H23346  11.428  11.452   1.660  1.9385  0.0909 -1.5347
  914MOL0     H23347  11.413  11.294   1.580 -3.0627  0.2938 -1.6030
  914MOL0     H23348  11.491  11.193   1.814 -0.2976 -0.7518 -0.1869
  914MOL0     H23349  11.506  11.360   1.866  2.1460 -3.1726  1.8793
  914MOL0     H23350  11.660  11.268   1.984 -1.7316  1.2229 -1.1425
  914MOL0     H23351  11.867  11.244   2.088  1.5907 -0.8987  0.8543
  914MOL0     H23352  12.426  11.156   1.813  0.0562 -0.3897  1.0941
  914MOL0     H23353  12.652  11.159   1.884  0.3967 -1.1690  0.8374
  914MOL0     H23354  12.795  11.084   2.067 -1.3258  0.4112 -2.8599
  914MOL0     H23355  12.862  11.201   1.965  0.2315  1.4100  1.3911
  914MOL0     H23356  13.036  11.143   2.130  0.1233 -0.6264 -0.0979
  914MOL0     H23357  13.004  11.315   2.145  2.6026 -0.2524  1.3262
  914MOL0     H23358  12.873  11.275   2.344 -1.4247 -0.7560  1.5265
  914MOL0     H23359  12.852  11.101   2.298 -0.8844  1.3342 -2.7457
  914MOL0     H23360  13.083  11.054   2.374 -0.2566 -0.0979  0.9385
  914MOL0     H23361  13.016  11.151   2.500  1.0039  2.7962  0.3741
  914MOL0     H23362  13.120  11.361   2.392  0.9675  0.6044 -1.1295
  914MOL0     H23363  13.208  11.253   2.291 -2.2472  0.1125 -1.5890
  914MOL0     H23364  13.235  11.271   2.592 -3.6360  0.2295 -1.0293
  914MOL0     H23365  13.298  11.131   2.498 -0.8485 -0.4773 -0.4180
  914MOL0     H23366  13.364  11.424   2.424  0.7143 -0.3385 -1.9422
  914MOL0     H23367  13.417  11.275   2.357  0.6395 -0.6602  1.5637
  914MOL0     H23368  13.466  11.366   2.649 -1.0252 -0.2461 -0.7710
  914MOL0     H23369  13.521  11.213   2.585 -1.4042 -0.1813  1.5699
  914MOL0     H23370  12.523  11.401   2.230 -0.2322  0.7409 -0.7130
  914MOL0     H23371  12.304  11.416   2.135  1.1134  0.3848  1.8534
  914MOL0     H23372  12.067  11.313   1.705 -0.0202 -0.0769 -0.2042
  914MOL0     H23373  11.867  11.316   1.602  0.9422 -0.1673 -0.1372
  914MOL0     H23374  10.467  10.366   1.725  1.3446 -0.3045  0.4399
  914MOL0     H23375  10.264  10.259   1.587 -0.0637  0.3525  0.3346
  914MOL0     H23376  10.159  10.134   1.169 -2.9812  3.2292 -0.5435
  914MOL0     H23377   9.983  10.067   1.042  1.7043 -0.1090 -0.2381
  914MOL0     H23378   9.701  10.056   1.217 -0.8888  0.3190  0.6707
  914MOL0     H23379   9.643   9.893   1.268 -1.8296  0.8965 -0.1776
  914MOL0     H23380   9.550   9.868   1.041 -0.3859 -1.6109  2.4211
  914MOL0     H23381   9.606  10.039   1.009  1.5921 -1.1288  0.7449
  914MOL0     H23382   9.380  10.042   1.044  0.3469  2.4222  1.1947
  914MOL0     H23383   9.449  10.105   1.201  0.6420  2.0569 -2.9079
  914MOL0     H23384   9.340   9.829   1.172  0.1785  1.0339 -1.4524
  914MOL0     H23385   9.402   9.916   1.320  0.3400  1.8078 -0.0855
  914MOL0     H23386   9.044  10.085   1.347 -3.2564 -1.7293 -2.0843
  914MOL0     H23387   9.874   9.781   1.352  0.4498  1.9333  3.4947
  914MOL0     H23388  10.095   9.885   1.597 -1.8167  1.3976 -0.8796
  914MOL0     H23389  10.010   9.740   1.543 -0.8705 -1.3324 -5.2968
  914MOL0     H23390  10.177   9.758   1.495  0.1674 -1.4011 -2.1232
  915MOL0     O23391   0.700   6.934   3.773  0.4906  0.2960 -0.5137
  915MOL0     C23392   0.692   6.935   3.649 -0.5509 -0.3905  0.7072
  915MOL0     O23393   0.795   6.900   3.565  0.2340  0.1784  0.2010
  915MOL0     C23394   0.911   6.836   3.598  0.5758  0.9370  0.4416
  915MOL0     C23395   1.015   6.866   3.517  0.0984 -1.0602  0.6116
  915MOL0     C23396   1.139   6.800   3.540 -0.3034 -0.0179 -0.0369
  915MOL0     C23397   1.149   6.701   3.634 -0.0564 -0.1912  0.2442
  915MOL0     O23398   1.263   6.628   3.657 -0.3243 -0.3560  0.5970
  915MOL0     C23399   1.392   6.692   3.644  0.1627 -1.0456 -0.4536
  915MOL0     C23400   1.464   6.637   3.754 -0.1222 -0.1070 -0.3558
  915MOL0     C23401   1.600   6.698   3.781  0.7701 -0.6178  1.2407
  915MOL0     C23402   1.703   6.649   3.680 -0.9762 -0.0736  0.1908
  915MOL0     C23403   1.836   6.723   3.714  0.3083  1.0015  0.2889
  915MOL0     C23404   1.938   6.697   3.596  0.0406 -0.5531 -0.6902
  915MOL0     C23405   2.081   6.770   3.604 -0.7198  0.3922  0.0514
  915MOL0     C23406   2.175   6.716   3.715  0.2899  0.4971  0.4702
  915MOL0     N23407   2.315   6.756   3.701  0.2059 -0.4638 -0.6621
  915MOL0     C23408   2.427   6.674   3.679  1.0034  0.5554 -0.2206
  915MOL0     C23409   2.532   6.754   3.659 -0.3095  0.4220 -1.1323
  915MOL0     C23410   2.672   6.703   3.648  0.9580  0.5401 -0.4923
  915MOL0     C23411   2.776   6.783   3.735 -0.4441  0.0457 -0.4969
  915MOL0     C23412   2.909   6.703   3.730  1.6449 -0.2021 -0.4773
  915MOL0     C23413   3.021   6.761   3.806  0.3200  0.5380 -0.0564
  915MOL0     O23414   3.134   6.684   3.772  0.1611 -0.3184 -0.4638
  915MOL0     C23415   3.259   6.736   3.775 -0.6642 -0.4153 -0.1605
  915MOL0     C23416   3.346   6.686   3.674 -0.1217  0.8995 -0.2297
  915MOL0     C23417   3.475   6.734   3.666 -0.1213 -0.2011  0.2473
  915MOL0     C23418   3.522   6.837   3.747  0.0787 -0.4986  0.0066
  915MOL0     C23419   3.657   6.883   3.737  0.2240 -0.3193 -0.0846
  915MOL0     O23420   3.743   6.806   3.655 -0.7545  0.5766  0.0781
  915MOL0     C23421   3.875   6.829   3.656 -0.3097 -0.0329  0.0701
  915MOL0     C23422   3.947   6.810   3.769  0.0633  0.6602 -0.2144
  915MOL0     C23423   4.084   6.803   3.770  0.4763 -0.5715 -0.5508
  915MOL0     C23424   4.160   6.825   3.658  0.0694  0.9294 -0.2869
  915MOL0     O23425   4.298   6.810   3.650 -0.6314 -0.5578  0.3222
  915MOL0     C23426   4.372   6.824   3.776  0.4293 -0.4102  0.1250
  915MOL0     C23427   4.518   6.805   3.735  0.3240  0.9154  0.1008
  915MOL0     C23428   4.561   6.925   3.649 -0.4297  0.3753 -0.1717
  915MOL0     C23429   4.651   7.013   3.729  0.4386  0.2358  0.4151
  915MOL0     C23430   4.688   7.139   3.651  0.4458 -0.5670 -0.1659
  915MOL0     C23431   4.787   7.108   3.540  0.2621  0.1129 -0.3441
  915MOL0     C23432   4.825   7.245   3.487  0.0808 -1.3682 -0.4153
  915MOL0     C23433   4.934   7.229   3.379 -0.5825  0.1116  0.6586
  915MOL0    Cl23434   4.959   7.380   3.292  0.1392  0.1552  0.1103
  915MOL0     C23435   4.087   6.843   3.538 -0.0720 -0.2626  0.8403
  915MOL0     C23436   3.947   6.849   3.534 -0.1480 -0.1316  0.6954
  915MOL0     O23437   3.694   6.974   3.810 -0.2717  0.6203  0.0311
  915MOL0     C23438   3.435   6.899   3.843 -0.1571 -0.3493  1.1257
  915MOL0     C23439   3.304   6.844   3.868  0.2905  0.3306 -0.5142
  915MOL0     N23440   2.485   6.886   3.677 -0.5362 -0.6896  0.5150
  915MOL0     N23441   2.360   6.889   3.698  1.0181  0.8547 -0.3265
  915MOL0     C23442   1.042   6.667   3.713 -0.3734 -0.0247 -0.0946
  915MOL0     C23443   0.924   6.733   3.695  0.4780  0.2154 -0.4203
  915MOL0     C23444   0.575   7.003   3.592  0.2153  0.9644 -0.0037
  915MOL0     C23445   0.533   7.125   3.644 -0.0901 -0.3540  0.1595
  915MOL0     C23446   0.429   7.199   3.585 -0.5704  0.4222 -0.4727
  915MOL0     C23447   0.356   7.143   3.480 -1.0024 -0.7030  0.0839
  915MOL0     O23448   0.248   7.203   3.411  0.3533 -0.7362  0.0652
  915MOL0     C23449   0.233   7.342   3.427  0.2384 -0.4206  1.0889
  915MOL0     C23450   0.352   7.430   3.364 -0.3208  0.0859  0.2834
  915MOL0     C23451   0.361   7.437   3.204  0.9708 -0.3647 -0.4944
  915MOL0     C23452   0.475   7.521   3.145 -0.0506  0.3684 -0.5917
  915MOL0     C23453   0.435   7.570   3.014  1.0159 -0.1092 -0.3301
  915MOL0     C23454   0.420   7.612   2.897 -0.1598  0.7408  0.3251
  915MOL0     C23455   0.402   7.022   3.429 -0.3698 -1.1182 -0.1771
  915MOL0     C23456   0.509   6.948   3.480 -0.1082 -0.6062 -0.1149
  915MOL0     C23457   0.539   6.815   3.414  0.5833 -0.1051  0.0822
  915MOL0     H23458   0.999   6.946   3.445 -2.1274 -0.5909  1.5453
  915MOL0     H23459   1.226   6.830   3.483 -0.0580  3.2226  1.8115
  915MOL0     H23460   1.441   6.670   3.549 -0.0389 -0.8472 -0.6070
  915MOL0     H23461   1.394   6.801   3.643  2.0596 -1.0138 -2.9168
  915MOL0     H23462   1.472   6.529   3.741 -0.1940 -0.2608  0.7407
  915MOL0     H23463   1.410   6.648   3.849  2.0044  0.5276  0.8420
  915MOL0     H23464   1.638   6.680   3.882  1.1998  1.0776  1.4114
  915MOL0     H23465   1.589   6.805   3.763  2.5992 -0.5607  0.2831
  915MOL0     H23466   1.717   6.542   3.698 -1.5112 -0.3818 -1.1236
  915MOL0     H23467   1.684   6.660   3.573 -2.1570  0.7625  0.4625
  915MOL0     H23468   1.824   6.831   3.727  0.1933  0.8771  1.2901
  915MOL0     H23469   1.883   6.695   3.808  0.4957  2.1741  0.5629
  915MOL0     H23470   1.956   6.589   3.602 -2.4769 -0.9309  1.5137
  915MOL0     H23471   1.888   6.721   3.502  1.5143  1.6301 -0.9948
  915MOL0     H23472   2.061   6.877   3.618  1.4635  0.6975  1.3183
  915MOL0     H23473   2.126   6.746   3.508 -1.6934  1.5935 -0.7340
  915MOL0     H23474   2.139   6.752   3.812 -1.3238  0.6500 -0.1553
  915MOL0     H23475   2.173   6.607   3.716 -1.2056  0.5027  1.2631
  915MOL0     H23476   2.413   6.567   3.671  2.0917  0.4253 -0.5448
  915MOL0     H23477   2.668   6.612   3.708 -1.3204  0.5547 -0.5131
  915MOL0     H23478   2.696   6.684   3.543 -0.0748 -0.0369 -0.6433
  915MOL0     H23479   2.795   6.878   3.685  0.8121  0.7675  1.2430
  915MOL0     H23480   2.749   6.798   3.840  2.7288  0.0810  0.4210
  915MOL0     H23481   2.945   6.684   3.629 -0.4092 -1.7896 -0.9905
  915MOL0     H23482   2.885   6.605   3.773  0.5414  0.0017 -0.5984
  915MOL0     H23483   2.997   6.763   3.913 -1.9420 -1.0697 -0.4641
  915MOL0     H23484   3.041   6.862   3.767 -2.1073 -0.9437 -6.4157
  915MOL0     H23485   3.314   6.607   3.606  1.4177  0.5528 -0.5743
  915MOL0     H23486   3.542   6.690   3.593  0.4019  1.0373 -0.0506
  915MOL0     H23487   3.899   6.787   3.864 -0.3303  0.7791 -0.3834
  915MOL0     H23488   4.133   6.772   3.862 -0.8638  0.3467  0.5374
  915MOL0     H23489   4.341   6.914   3.829 -0.6198 -1.4259  1.2902
  915MOL0     H23490   4.345   6.744   3.846 -0.2785  0.7677  1.2451
  915MOL0     H23491   4.576   6.786   3.826 -2.8229  0.2096  2.0875
  915MOL0     H23492   4.521   6.712   3.677 -1.3044  1.5625 -1.0846
  915MOL0     H23493   4.626   6.879   3.574  1.4659 -0.5009  1.8928
  915MOL0     H23494   4.479   6.979   3.600 -1.7450 -1.1058  0.3178
  915MOL0     H23495   4.741   6.953   3.739 -0.9327 -2.1462 -0.5815
  915MOL0     H23496   4.603   7.040   3.824  0.7613  1.5387  0.2309
  915MOL0     H23497   4.740   7.194   3.730  2.8397 -1.1083 -1.2757
  915MOL0     H23498   4.596   7.188   3.617 -0.0663  1.6020  3.7463
  915MOL0     H23499   4.881   7.060   3.570  0.8690  1.1816 -0.4760
  915MOL0     H23500   4.736   7.049   3.464 -0.3881  0.9613 -0.5854
  915MOL0     H23501   4.844   7.313   3.571 -0.7370 -3.2833  1.3875
  915MOL0     H23502   4.740   7.288   3.434  1.2226 -0.5000 -1.6213
  915MOL0     H23503   5.030   7.202   3.423  0.2818 -2.0748 -2.2786
  915MOL0     H23504   4.902   7.155   3.306  1.0604  1.2854 -1.3617
  915MOL0     H23505   4.140   6.861   3.446  1.3166 -0.0730  1.6510
  915MOL0     H23506   3.908   6.872   3.435  1.6672 -0.2286 -0.0852
  915MOL0     H23507   3.468   6.983   3.903  2.4318 -0.4515 -0.0420
  915MOL0     H23508   3.236   6.873   3.947  1.2513 -3.4538  1.9939
  915MOL0     H23509   1.043   6.583   3.782  0.5926 -1.9532 -2.3022
  915MOL0     H23510   0.837   6.690   3.744  1.8350  0.0786  2.0644
  915MOL0     H23511   0.581   7.162   3.734 -1.1725 -1.9745  1.4530
  915MOL0     H23512   0.407   7.293   3.636  2.0615  1.2208 -0.6654
  915MOL0     H23513   0.223   7.361   3.534  1.5587 -0.3594  1.2124
  915MOL0     H23514   0.135   7.380   3.395  1.4904  1.4916 -0.7595
  915MOL0     H23515   0.448   7.391   3.399 -1.6068  0.0476  4.3216
  915MOL0     H23516   0.331   7.528   3.406  0.1477 -0.1978  1.2170
  915MOL0     H23517   0.265   7.475   3.168  0.8792 -0.9906 -0.9281
  915MOL0     H23518   0.368   7.340   3.152  0.5196 -1.7900  1.9447
  915MOL0     H23519   0.491   7.606   3.212  0.4193  0.7479 -1.1718
  915MOL0     H23520   0.572   7.473   3.136 -1.6477 -3.5876  0.9518
  915MOL0     H23521   0.403   7.669   2.808 -2.0456 -0.4865 -0.1511
  915MOL0     H23522   0.354   6.964   3.350  2.5233 -2.2918 -1.2256
  915MOL0     H23523   0.470   6.805   3.331  0.7832  1.4614 -0.3177
  915MOL0     H23524   0.639   6.831   3.371 -0.0293  0.1349 -1.3075
  915MOL0     H23525   0.542   6.728   3.479  0.0784 -1.0736 -1.1531
  916MOL0     O23526   9.596   6.224   7.064  0.3389 -0.1266 -0.4178
  916MOL0     C23527   9.485   6.278   7.091 -0.1784 -0.6992  0.1733
  916MOL0     O23528   9.449   6.404   7.048 -0.1192  0.1372  0.4152
  916MOL0     C23529   9.515   6.493   6.966 -0.8513 -0.4503 -0.3584
  916MOL0     C23530   9.614   6.461   6.872 -0.7633 -0.2180 -0.5354
  916MOL0     C23531   9.661   6.562   6.783  0.2632  0.8174  0.2803
  916MOL0     C23532   9.616   6.697   6.797 -0.1220  0.0947  0.4927
  916MOL0     O23533   9.663   6.805   6.722  0.2645 -0.3184  0.3313
  916MOL0     C23534   9.713   6.792   6.590  0.0438  0.3405  0.3451
  916MOL0     C23535   9.827   6.900   6.559  0.2839  0.6946 -0.3072
  916MOL0     C23536   9.799   7.033   6.622 -1.0252  0.0257 -0.0383
  916MOL0     C23537   9.920   7.126   6.585  1.1401  0.2754  0.3450
  916MOL0     C23538  10.062   7.069   6.617 -0.3036 -0.2257 -0.2188
  916MOL0     C23539  10.157   7.188   6.652 -0.4403  0.3501 -0.1793
  916MOL0     C23540  10.303   7.138   6.697 -0.2299  0.3148  0.1601
  916MOL0     C23541  10.287   7.068   6.840 -0.5086 -0.0227  0.5684
  916MOL0     N23542  10.407   7.049   6.924 -0.6711  0.0604  0.5591
  916MOL0     C23543  10.531   7.118   6.907  0.4474  0.4417  0.0305
  916MOL0     C23544  10.599   7.068   7.013  0.2601  0.5289 -0.9683
  916MOL0     C23545  10.722   7.128   7.077  0.3097  0.0310  0.0518
  916MOL0     C23546  10.844   7.060   7.022 -1.0792 -0.4909  0.7987
  916MOL0     C23547  10.964   7.147   7.063  0.9611  0.4382 -0.5684
  916MOL0     C23548  11.087   7.060   7.043  0.7793 -0.4161 -1.0267
  916MOL0     O23549  11.135   7.104   6.922  0.3176 -0.0410 -0.1345
  916MOL0     C23550  11.270   7.089   6.905 -0.6585 -0.4309 -0.2188
  916MOL0     C23551  11.319   7.123   6.780  0.7750 -0.2046  0.1171
  916MOL0     C23552  11.456   7.129   6.756  0.1877  0.8199  0.6634
  916MOL0     C23553  11.547   7.088   6.853 -0.3930  1.0060 -0.1472
  916MOL0     C23554  11.689   7.086   6.823 -0.4724  0.3243 -0.3425
  916MOL0     O23555  11.775   7.074   6.931 -0.1894 -0.8320 -0.6941
  916MOL0     C23556  11.912   7.058   6.912  0.7945  0.1884 -0.6035
  916MOL0     C23557  12.005   7.156   6.961  0.7473  0.1555  0.3297
  916MOL0     C23558  12.144   7.138   6.947  0.2129 -0.2870  0.5109
  916MOL0     C23559  12.200   7.029   6.893 -0.5714  0.3729 -0.2995
  916MOL0     O23560  12.338   7.000   6.887  0.0229  0.1365 -0.4545
  916MOL0     C23561  12.429   7.110   6.882  0.1364 -1.1231 -0.5059
  916MOL0     C23562  12.558   7.066   6.815 -0.1364  0.0764  0.3396
  916MOL0     C23563  12.650   7.186   6.777 -0.4123  0.7495  0.3215
  916MOL0     C23564  12.740   7.248   6.890  0.1390  0.1294 -0.3691
  916MOL0     C23565  12.867   7.163   6.906  0.8800 -0.1022 -0.1952
  916MOL0     C23566  12.963   7.213   7.019  0.0160  0.5807  0.5361
  916MOL0     C23567  13.087   7.127   6.997  0.0400  0.4675  0.1369
  916MOL0     C23568  13.194   7.151   7.092 -0.2691  0.5571  0.1252
  916MOL0    Cl23569  13.136   7.120   7.258  0.0962 -0.4414 -0.2525
  916MOL0     C23570  12.109   6.927   6.857  0.0503 -0.8772 -0.0048
  916MOL0     C23571  11.970   6.947   6.867 -1.2383  1.0506 -0.0826
  916MOL0     O23572  11.732   7.098   6.709  0.4896  0.0666 -0.7156
  916MOL0     C23573  11.502   7.041   6.972  0.1772 -0.4535 -0.8076
  916MOL0     C23574  11.366   7.035   6.997  0.3959  0.4408  0.4075
  916MOL0     N23575  10.538   6.957   7.074 -0.3250  0.7658 -0.1280
  916MOL0     N23576  10.418   6.956   7.020 -0.0045 -0.1889  0.0176
  916MOL0     C23577   9.529   6.731   6.902  0.6039 -0.5362  0.4760
  916MOL0     C23578   9.476   6.630   6.980 -0.4868  0.1258 -0.5020
  916MOL0     C23579   9.382   6.186   7.152 -0.3053  0.6103  0.1914
  916MOL0     C23580   9.417   6.047   7.164 -0.4272  0.4693 -0.1803
  916MOL0     C23581   9.341   5.952   7.226  0.3290 -0.0869 -0.3079
  916MOL0     C23582   9.228   5.989   7.291  0.8461 -0.2178  0.0220
  916MOL0     O23583   9.163   5.894   7.368 -0.3295  0.3238 -0.3127
  916MOL0     C23584   9.253   5.830   7.468  0.1654 -0.1709  0.2327
  916MOL0     C23585   9.183   5.767   7.583 -0.0112 -0.8191 -0.4247
  916MOL0     C23586   9.110   5.871   7.668 -0.3912  0.2714 -0.2283
  916MOL0     C23587   9.199   5.950   7.759 -0.4799  0.6443 -0.3213
  916MOL0     C23588   9.289   5.872   7.852 -0.2138 -0.6886 -0.0752
  916MOL0     C23589   9.367   5.822   7.926 -0.0697 -0.0419  0.1331
  916MOL0     C23590   9.173   6.118   7.266  0.4049  1.0476 -0.0969
  916MOL0     C23591   9.253   6.217   7.199 -0.4348  0.0026  0.1799
  916MOL0     C23592   9.181   6.353   7.188  0.4905  0.4981  0.2582
  916MOL0     H23593   9.654   6.360   6.876 -1.9122 -0.6540  0.3368
  916MOL0     H23594   9.732   6.520   6.713  2.6085  2.1463  1.7496
  916MOL0     H23595   9.737   6.686   6.580 -0.1933  0.0696  2.2168
  916MOL0     H23596   9.623   6.812   6.531 -0.9169 -2.5746  0.6977
  916MOL0     H23597   9.825   6.897   6.450 -1.4361  2.0927 -0.3547
  916MOL0     H23598   9.914   6.850   6.602 -1.5284  0.0064  2.8835
  916MOL0     H23599   9.779   7.020   6.729  0.0861  1.6654  0.4057
  916MOL0     H23600   9.706   7.068   6.576 -0.6723  0.0022 -0.7834
  916MOL0     H23601   9.915   7.142   6.477  0.7091  1.4255  0.5178
  916MOL0     H23602   9.900   7.224   6.630 -1.3808  0.0921 -0.1876
  916MOL0     H23603  10.064   6.991   6.694 -0.0746  0.2884  0.2980
  916MOL0     H23604  10.103   7.023   6.526 -0.5016 -0.8230 -0.0095
  916MOL0     H23605  10.159   7.247   6.560 -2.1067 -0.3295 -0.6756
  916MOL0     H23606  10.106   7.236   6.736 -0.3540 -0.4563  0.3461
  916MOL0     H23607  10.365   7.227   6.707 -0.9374  0.6076  2.2936
  916MOL0     H23608  10.352   7.079   6.619 -0.7702 -2.4446  1.7744
  916MOL0     H23609  10.227   7.140   6.897  0.8961  0.5329  1.3888
  916MOL0     H23610  10.229   6.977   6.823 -0.9409  0.5220 -1.1682
  916MOL0     H23611  10.550   7.206   6.846  0.4357 -0.1969 -0.9069
  916MOL0     H23612  10.717   7.235   7.057 -0.7474  0.5013  2.4600
  916MOL0     H23613  10.711   7.112   7.185  0.6656  0.5512  0.1700
  916MOL0     H23614  10.857   6.959   7.063 -0.6761 -1.2431 -1.0770
  916MOL0     H23615  10.848   7.046   6.914  2.9587  0.4013  0.6724
  916MOL0     H23616  10.959   7.174   7.169  1.9683 -0.6176 -0.2304
  916MOL0     H23617  10.959   7.233   6.995  1.7519 -0.9364 -2.4704
  916MOL0     H23618  11.072   6.952   7.046 -1.2382 -0.1604  0.5041
  916MOL0     H23619  11.159   7.072   7.125 -0.1750 -0.8128 -0.1075
  916MOL0     H23620  11.254   7.158   6.700 -1.0208 -3.5433 -0.0547
  916MOL0     H23621  11.491   7.165   6.660 -2.7379  2.8131  0.2297
  916MOL0     H23622  11.955   7.237   7.012  0.6483 -1.1809  2.4959
  916MOL0     H23623  12.208   7.222   6.973 -2.0486  2.1581 -1.4095
  916MOL0     H23624  12.383   7.186   6.818  3.9145  1.3948 -0.5445
  916MOL0     H23625  12.450   7.155   6.980 -1.3260  0.5876 -0.9249
  916MOL0     H23626  12.613   7.002   6.884 -2.2821 -2.1453  0.1374
  916MOL0     H23627  12.524   7.012   6.726  0.1073  2.0195 -0.9808
  916MOL0     H23628  12.720   7.146   6.703  0.2946  1.5612  0.5391
  916MOL0     H23629  12.588   7.260   6.726 -0.0678 -0.7631 -2.4648
  916MOL0     H23630  12.695   7.271   6.987 -0.7214 -1.7902 -0.2676
  916MOL0     H23631  12.779   7.344   6.853  2.0225 -0.0112  1.1292
  916MOL0     H23632  12.916   7.165   6.807 -1.3972  0.6266 -1.3752
  916MOL0     H23633  12.854   7.057   6.929  2.6412 -0.3459 -0.1554
  916MOL0     H23634  12.987   7.319   7.011  0.7379  0.5683  2.1956
  916MOL0     H23635  12.917   7.191   7.115  0.7434 -2.2834  0.3154
  916MOL0     H23636  13.123   7.142   6.895 -1.7621  1.8238 -0.3567
  916MOL0     H23637  13.054   7.023   7.010  0.0459  0.5722  1.0140
  916MOL0     H23638  13.277   7.083   7.067 -2.9973 -2.6753 -0.8301
  916MOL0     H23639  13.221   7.256   7.079 -1.1855  0.6357 -1.3844
  916MOL0     H23640  12.150   6.836   6.813  0.3234  0.5947 -3.0811
  916MOL0     H23641  11.907   6.867   6.829 -0.3343  0.8393 -1.1909
  916MOL0     H23642  11.566   6.987   7.040  0.7912  0.6683 -0.4640
  916MOL0     H23643  11.338   7.005   7.097  2.2267  2.0698  1.4880
  916MOL0     H23644   9.521   6.835   6.933  3.3312 -0.1107  0.0857
  916MOL0     H23645   9.406   6.639   7.062 -0.5231 -4.6103  0.2673
  916MOL0     H23646   9.514   6.012   7.130 -0.0692  0.4623  0.8244
  916MOL0     H23647   9.373   5.849   7.235 -0.4579 -0.2776  0.5073
  916MOL0     H23648   9.334   5.895   7.503  2.8827 -3.4509  0.6068
  916MOL0     H23649   9.306   5.749   7.416 -1.8648 -1.2920 -0.1863
  916MOL0     H23650   9.259   5.725   7.650  1.6133  2.7077  0.1759
  916MOL0     H23651   9.126   5.684   7.541 -0.0833 -1.4282  0.8351
  916MOL0     H23652   9.032   5.815   7.721 -1.6582 -0.1547 -2.4204
  916MOL0     H23653   9.050   5.940   7.608 -1.6694 -0.6566 -0.0592
  916MOL0     H23654   9.256   6.007   7.685  0.8965 -0.0810  0.1444
  916MOL0     H23655   9.144   6.011   7.831  0.8276  0.6500  0.7043
  916MOL0     H23656   9.444   5.780   7.987 -1.2071 -2.3867  0.0513
  916MOL0     H23657   9.073   6.131   7.306 -0.4358  2.4486 -2.4658
  916MOL0     H23658   9.106   6.358   7.267 -3.3660 -2.0472 -2.7969
  916MOL0     H23659   9.246   6.441   7.188 -0.0876  0.9387  0.9446
  916MOL0     H23660   9.117   6.366   7.100 -0.6227 -1.4478  0.7275
  917MOL0     O23661   2.944   4.434   9.101  0.4382  0.1120 -0.4155
  917MOL0     C23662   2.880   4.364   9.181 -0.5441 -0.3394 -0.5673
  917MOL0     O23663   2.908   4.241   9.221  0.3780 -0.1477  0.5326
  917MOL0     C23664   3.034   4.189   9.188  0.2667  0.3229  0.1724
  917MOL0     C23665   3.027   4.055   9.157  0.5829 -0.8336  0.2059
  917MOL0     C23666   3.144   3.984   9.119 -0.4889  0.9916 -0.0116
  917MOL0     C23667   3.271   4.045   9.120  0.3130 -0.4399 -0.1527
  917MOL0     O23668   3.384   3.971   9.118 -0.1903 -0.0420  0.1894
  917MOL0     C23669   3.506   4.030   9.069  0.3524 -0.2666 -0.0651
  917MOL0     C23670   3.596   3.908   9.042 -0.1480 -0.2124  0.2198
  917MOL0     C23671   3.731   3.957   8.969  0.1226 -0.2712  0.0734
  917MOL0     C23672   3.822   3.841   8.951  0.8183  0.2995  1.2709
  917MOL0     C23673   3.946   3.893   8.895  0.8839 -0.4193 -0.4452
  917MOL0     C23674   4.045   3.774   8.884 -0.4310 -0.2308  0.1596
  917MOL0     C23675   4.177   3.808   8.826  0.2525 -0.1820  0.5444
  917MOL0     C23676   4.251   3.914   8.906  0.1946 -0.5949 -0.0351
  917MOL0     N23677   4.389   3.931   8.860 -0.0254 -0.0353 -0.1010
  917MOL0     C23678   4.495   3.855   8.894  0.0125  0.4840  0.0191
  917MOL0     C23679   4.593   3.875   8.799 -0.4043 -0.1446  0.4090
  917MOL0     C23680   4.717   3.802   8.779 -0.4837 -0.2797 -0.7777
  917MOL0     C23681   4.847   3.862   8.842  0.4323 -0.3190 -0.4983
  917MOL0     C23682   4.962   3.782   8.787 -0.5765 -0.8253 -0.8354
  917MOL0     C23683   5.080   3.831   8.879 -0.2147 -0.1091  0.7483
  917MOL0     O23684   5.206   3.803   8.810  0.6423 -0.2152  0.2043
  917MOL0     C23685   5.323   3.840   8.871 -0.6164 -0.1445 -0.1351
  917MOL0     C23686   5.443   3.824   8.797 -1.2466  0.4652 -0.0132
  917MOL0     C23687   5.569   3.847   8.846  0.2489  0.3312  0.0594
  917MOL0     C23688   5.590   3.885   8.981  0.3982  1.5622  0.2233
  917MOL0     C23689   5.721   3.884   9.045 -0.0428 -0.2210  0.1351
  917MOL0     O23690   5.824   3.856   8.959 -0.4175 -0.1384  0.0238
  917MOL0     C23691   5.948   3.822   8.998  0.1224  0.4488 -0.1533
  917MOL0     C23692   6.055   3.894   8.943  0.0034  0.2722 -0.2511
  917MOL0     C23693   6.187   3.868   8.981  0.2153 -1.0863  0.0062
  917MOL0     C23694   6.215   3.783   9.089  0.5775 -0.2689  0.8469
  917MOL0     O23695   6.339   3.749   9.136 -0.2705  0.6583 -0.0003
  917MOL0     C23696   6.457   3.808   9.086 -0.2170  0.0193 -0.2579
  917MOL0     C23697   6.491   3.949   9.140  0.0110 -0.2146  0.3039
  917MOL0     C23698   6.633   3.990   9.093 -0.0619 -0.0547  0.2449
  917MOL0     C23699   6.701   4.096   9.182  0.4685 -0.1655 -0.8365
  917MOL0     C23700   6.852   4.111   9.154  0.3489 -0.8704  0.0509
  917MOL0     C23701   6.906   4.246   9.212 -0.0319 -0.1749 -0.5063
  917MOL0     C23702   7.059   4.237   9.248  0.6769  0.3887 -0.4362
  917MOL0     C23703   7.123   4.371   9.245 -0.1486 -0.2590 -0.2888
  917MOL0    Cl23704   7.163   4.419   9.076  0.3662 -0.0114  0.0667
  917MOL0     C23705   6.107   3.711   9.143 -0.1532 -0.1583 -0.0718
  917MOL0     C23706   5.977   3.740   9.109  0.8125  0.5495  0.4987
  917MOL0     O23707   5.725   3.907   9.169 -0.2242  0.3926  0.1050
  917MOL0     C23708   5.471   3.888   9.062 -0.7404  0.3225 -0.1756
  917MOL0     C23709   5.343   3.861   9.007  0.0775  0.1238 -0.0238
  917MOL0     N23710   4.542   3.961   8.708 -0.1265  0.4161 -0.2631
  917MOL0     N23711   4.428   4.002   8.748  0.1378  0.2730 -0.1665
  917MOL0     C23712   3.274   4.185   9.151  0.4747  0.0856  0.8357
  917MOL0     C23713   3.156   4.256   9.176  0.5851 -0.1025 -0.5020
  917MOL0     C23714   2.742   4.414   9.226 -0.0774  0.6485  0.2160
  917MOL0     C23715   2.701   4.527   9.157 -0.2582 -0.5032 -0.2748
  917MOL0     C23716   2.575   4.572   9.185  1.0157  0.2969  0.1653
  917MOL0     C23717   2.495   4.515   9.284  0.6598 -0.6308 -0.5825
  917MOL0     O23718   2.379   4.582   9.311  0.2327 -0.0632 -0.2448
  917MOL0     C23719   2.278   4.512   9.382  0.3419  0.5008  0.9465
  917MOL0     C23720   2.155   4.605   9.380 -1.2263  0.1486 -0.0969
  917MOL0     C23721   2.050   4.545   9.465  0.6465 -0.1502 -1.3351
  917MOL0     C23722   1.909   4.595   9.428  0.0721  0.0506  0.0982
  917MOL0     C23723   1.891   4.743   9.443 -0.5935  0.0517 -0.0871
  917MOL0     C23724   1.896   4.862   9.437  0.0595 -0.8214 -0.1277
  917MOL0     C23725   2.540   4.410   9.351 -0.2071 -0.2101  0.1744
  917MOL0     C23726   2.667   4.355   9.325 -0.2974 -0.0004 -0.3210
  917MOL0     C23727   2.692   4.226   9.397 -0.5105  0.0450  0.2301
  917MOL0     H23728   2.931   4.004   9.154  0.4079 -0.4724 -1.4692
  917MOL0     H23729   3.147   3.877   9.105  0.7908  0.8853  0.9063
  917MOL0     H23730   3.485   4.080   8.974  0.9247  0.4466  0.1768
  917MOL0     H23731   3.546   4.105   9.136  2.1599 -0.2531 -1.1054
  917MOL0     H23732   3.551   3.827   8.983 -1.5048  0.8920 -0.3173
  917MOL0     H23733   3.626   3.862   9.136 -0.7103 -0.1779  0.4191
  917MOL0     H23734   3.779   4.029   9.035 -0.0215  0.1727 -0.3013
  917MOL0     H23735   3.714   4.009   8.874  2.4651  1.3658  0.4640
  917MOL0     H23736   3.826   3.792   9.049 -1.4814 -0.6549  0.9573
  917MOL0     H23737   3.775   3.767   8.886 -1.5077  0.3347  2.7924
  917MOL0     H23738   3.930   3.938   8.796  0.7452 -1.7707 -1.0697
  917MOL0     H23739   3.988   3.966   8.965  0.4223 -1.2808  0.7618
  917MOL0     H23740   4.067   3.740   8.985  0.0242 -0.4738 -0.0150
  917MOL0     H23741   4.002   3.689   8.830 -1.9714  0.4886  0.2136
  917MOL0     H23742   4.169   3.856   8.728  1.0182 -2.3100 -0.6067
  917MOL0     H23743   4.240   3.719   8.823  1.3234  0.5821 -1.4253
  917MOL0     H23744   4.203   4.012   8.897  1.7171  0.2517  0.7312
  917MOL0     H23745   4.250   3.883   9.011 -0.2184 -0.1338  0.1001
  917MOL0     H23746   4.497   3.786   8.978 -1.4574 -1.9539 -1.7945
  917MOL0     H23747   4.702   3.699   8.811  1.1054  0.2437  1.9659
  917MOL0     H23748   4.733   3.800   8.671 -0.8284  0.2699 -0.8443
  917MOL0     H23749   4.848   3.967   8.812 -3.1981  0.3292  1.0678
  917MOL0     H23750   4.847   3.860   8.951 -2.2218 -0.8712 -0.4217
  917MOL0     H23751   4.975   3.802   8.681 -0.6807 -0.7492 -0.8335
  917MOL0     H23752   4.952   3.675   8.810  3.2631 -0.4935  4.3887
  917MOL0     H23753   5.075   3.773   8.971  3.9290 -0.8182  0.7234
  917MOL0     H23754   5.075   3.937   8.907 -0.4073 -0.2281  1.1637
  917MOL0     H23755   5.415   3.805   8.693 -2.7682 -2.5836  0.8355
  917MOL0     H23756   5.652   3.827   8.779  1.5043 -0.1019  1.6810
  917MOL0     H23757   6.035   3.962   8.861  0.9762 -0.4236 -1.0989
  917MOL0     H23758   6.273   3.913   8.933 -1.1362 -0.8414 -2.3284
  917MOL0     H23759   6.543   3.756   9.130  1.5742  2.8284 -0.2091
  917MOL0     H23760   6.466   3.793   8.978  0.8043 -0.1472 -0.1546
  917MOL0     H23761   6.416   4.016   9.097 -1.0805 -1.9432 -0.5618
  917MOL0     H23762   6.485   3.950   9.249 -1.7139  2.2293  0.2685
  917MOL0     H23763   6.696   3.901   9.081 -0.5156 -0.3233 -0.2225
  917MOL0     H23764   6.628   4.006   8.985 -2.1493 -1.1799  0.1073
  917MOL0     H23765   6.702   4.050   9.281 -0.4906 -3.1105 -2.1046
  917MOL0     H23766   6.642   4.189   9.183  0.3876 -0.2123 -1.2436
  917MOL0     H23767   6.871   4.109   9.046  1.3179 -4.9762  0.1182
  917MOL0     H23768   6.895   4.020   9.198  0.5575 -1.1278 -0.6747
  917MOL0     H23769   6.877   4.324   9.140 -2.8695  0.8509  1.5615
  917MOL0     H23770   6.850   4.270   9.303 -0.2348 -2.8080  0.1503
  917MOL0     H23771   7.113   4.178   9.175 -0.1925 -1.6221  0.4675
  917MOL0     H23772   7.075   4.184   9.343  1.6146 -1.0437 -1.3685
  917MOL0     H23773   7.053   4.443   9.288  1.0728  1.5633 -1.2587
  917MOL0     H23774   7.220   4.366   9.295  0.0475  0.6013 -0.5750
  917MOL0     H23775   6.126   3.643   9.225  0.7732 -0.8516 -0.8426
  917MOL0     H23776   5.897   3.684   9.157 -1.2911  0.2269 -3.0288
  917MOL0     H23777   5.486   3.905   9.168 -0.2381  2.8027 -0.5976
  917MOL0     H23778   5.262   3.857   9.080 -0.6832  0.1998 -0.8571
  917MOL0     H23779   3.362   4.248   9.151  0.4323  0.3074 -2.1703
  917MOL0     H23780   3.146   4.361   9.201 -1.1524 -0.5377  0.7874
  917MOL0     H23781   2.754   4.581   9.079 -1.3447 -0.9210 -1.3303
  917MOL0     H23782   2.537   4.654   9.125 -1.3617 -0.3495  0.6604
  917MOL0     H23783   2.310   4.477   9.481  0.2542  1.3448  1.2748
  917MOL0     H23784   2.253   4.424   9.322 -2.1060 -0.5523  3.3078
  917MOL0     H23785   2.131   4.605   9.273 -0.4929 -0.7125 -0.2708
  917MOL0     H23786   2.176   4.710   9.405 -0.8257  0.5183 -1.8318
  917MOL0     H23787   2.069   4.582   9.566 -3.2889  0.1802 -0.5753
  917MOL0     H23788   2.059   4.437   9.472 -0.8777 -0.1723  1.6840
  917MOL0     H23789   1.886   4.565   9.325  2.7660  1.6591 -1.1031
  917MOL0     H23790   1.833   4.561   9.498 -0.4693  3.3718  1.2963
  917MOL0     H23791   1.898   4.969   9.446  1.4639 -0.8552  0.2439
  917MOL0     H23792   2.469   4.368   9.422 -3.1433 -0.3590 -2.5836
  917MOL0     H23793   2.794   4.207   9.429  0.3800  4.4193  0.6122
  917MOL0     H23794   2.635   4.228   9.490  0.3639  1.9573  0.7606
  917MOL0     H23795   2.653   4.146   9.332  0.0498  0.8585 -1.1492
  918MOL0     O23796   1.213   3.690   3.771  0.1696 -0.1115 -0.0501
  918MOL0     C23797   1.137   3.603   3.718 -0.4689 -1.2139  0.5571
  918MOL0     O23798   1.172   3.503   3.637 -0.1291  0.2128  0.1051
  918MOL0     C23799   1.301   3.495   3.602 -0.6523 -0.9535  0.9414
  918MOL0     C23800   1.374   3.379   3.643  0.9623 -0.1198  0.1577
  918MOL0     C23801   1.512   3.374   3.626 -0.2709  0.4317 -0.3656
  918MOL0     C23802   1.586   3.472   3.561  0.4917  0.1378 -0.9666
  918MOL0     O23803   1.721   3.462   3.553 -0.6281 -0.1542 -0.2197
  918MOL0     C23804   1.792   3.569   3.489 -0.6024 -0.0500 -0.5501
  918MOL0     C23805   1.907   3.519   3.409 -0.1304 -0.5675 -0.3563
  918MOL0     C23806   2.036   3.463   3.486  0.1624 -0.5872  0.6329
  918MOL0     C23807   2.138   3.384   3.403  0.6442  0.6414 -0.1065
  918MOL0     C23808   2.243   3.319   3.504 -0.0077  0.0697  0.3753
  918MOL0     C23809   2.356   3.228   3.448  1.1355  0.1428  0.5045
  918MOL0     C23810   2.455   3.166   3.549  0.2467  0.3336 -0.0532
  918MOL0     C23811   2.530   3.048   3.492  0.0789  0.0496  0.2975
  918MOL0     N23812   2.649   2.999   3.571 -0.0123  0.7292 -0.5931
  918MOL0     C23813   2.654   2.908   3.666  0.6943  0.0192 -0.3765
  918MOL0     C23814   2.785   2.905   3.708 -0.3924 -0.3246  0.3557
  918MOL0     C23815   2.844   2.811   3.804 -0.1959  0.7106  0.1867
  918MOL0     C23816   2.996   2.814   3.817  0.7032 -0.3424  0.2170
  918MOL0     C23817   3.056   2.713   3.921 -0.0509 -0.7021  0.3244
  918MOL0     C23818   3.205   2.746   3.951 -0.1572  0.0800 -0.7581
  918MOL0     O23819   3.264   2.629   4.012  0.0716 -0.2195 -0.3595
  918MOL0     C23820   3.402   2.633   4.027  0.0925 -0.2918  0.0954
  918MOL0     C23821   3.449   2.533   4.110  0.8192  0.9975  0.3694
  918MOL0     C23822   3.584   2.520   4.138 -0.3391  0.5034  0.8088
  918MOL0     C23823   3.676   2.609   4.092  0.4521  0.3843  0.6125
  918MOL0     C23824   3.821   2.593   4.115 -0.2318 -0.6682  0.5902
  918MOL0     O23825   3.900   2.694   4.067 -0.5761  0.0192  0.2255
  918MOL0     C23826   4.034   2.660   4.062  0.1346  0.1683 -0.3836
  918MOL0     C23827   4.122   2.716   4.160  0.0398  0.5615 -0.3762
  918MOL0     C23828   4.258   2.690   4.163 -0.2947  0.2532 -0.6535
  918MOL0     C23829   4.318   2.607   4.068  0.9456 -0.1670  0.4312
  918MOL0     O23830   4.446   2.578   4.074 -0.2457  0.0260 -0.0432
  918MOL0     C23831   4.508   2.481   3.992 -0.5610  0.0837  0.5623
  918MOL0     C23832   4.665   2.496   3.994  0.0055  0.2496  1.2037
  918MOL0     C23833   4.708   2.640   3.942  0.0014 -0.4102  0.0677
  918MOL0     C23834   4.853   2.663   3.914  0.5821  0.2171 -0.0919
  918MOL0     C23835   4.883   2.812   3.887 -0.4305 -0.0719 -0.2179
  918MOL0     C23836   4.870   2.850   3.744 -0.1153  0.7777  0.9138
  918MOL0     C23837   4.898   2.995   3.707  0.1848 -0.3269  0.0741
  918MOL0     C23838   4.843   3.027   3.567 -0.2128  0.3720 -0.3435
  918MOL0    Cl23839   4.676   3.091   3.589 -0.0117  0.0770  0.1730
  918MOL0     C23840   4.233   2.556   3.971  0.7963  0.0262 -0.5113
  918MOL0     C23841   4.099   2.581   3.960  0.2116  0.2794  0.1984
  918MOL0     O23842   3.856   2.481   4.147 -0.7967  0.2384 -0.7364
  918MOL0     C23843   3.627   2.713   4.012  0.7698 -0.5048 -0.4695
  918MOL0     C23844   3.492   2.726   3.982 -0.9302 -0.7389  0.4725
  918MOL0     N23845   2.855   2.997   3.626  0.1627 -0.3564 -0.1355
  918MOL0     N23846   2.770   3.049   3.550 -0.4013  0.3877 -0.4579
  918MOL0     C23847   1.516   3.580   3.516 -0.0331 -0.1671  0.4400
  918MOL0     C23848   1.372   3.600   3.535 -0.0302  0.8123  0.0316
  918MOL0     C23849   0.993   3.611   3.764 -0.0688  0.4762  0.7549
  918MOL0     C23850   0.930   3.480   3.785  0.1335 -0.1244  0.3916
  918MOL0     C23851   0.806   3.463   3.840  0.0477 -0.5166  0.0805
  918MOL0     C23852   0.730   3.580   3.868 -0.1701 -0.5232 -0.5366
  918MOL0     O23853   0.607   3.587   3.930 -0.7350  0.5782  0.1743
  918MOL0     C23854   0.527   3.475   3.932 -0.4620  0.3975  0.5193
  918MOL0     C23855   0.428   3.499   3.814 -0.0348  0.2754  0.4134
  918MOL0     C23856   0.349   3.374   3.785  0.1142 -0.0289 -0.0541
  918MOL0     C23857   0.278   3.390   3.648  0.0619  0.6734  0.8765
  918MOL0     C23858   0.194   3.267   3.614 -0.7701 -0.1884  0.1037
  918MOL0     C23859   0.130   3.169   3.578 -0.3832  0.0937  0.7862
  918MOL0     C23860   0.787   3.708   3.837  0.6678  0.1213  0.6601
  918MOL0     C23861   0.916   3.722   3.783 -0.7026 -0.5336 -0.5232
  918MOL0     C23862   0.959   3.863   3.748 -0.6486  0.0676  0.0716
  918MOL0     H23863   1.316   3.313   3.706 -1.6875  2.7583  1.0366
  918MOL0     H23864   1.573   3.299   3.675  0.2619  1.6741  0.9814
  918MOL0     H23865   1.738   3.610   3.403  1.0090  1.6230 -0.8092
  918MOL0     H23866   1.821   3.641   3.566 -4.2957 -0.1360  1.1739
  918MOL0     H23867   1.932   3.604   3.345 -1.2714  0.4085  0.4516
  918MOL0     H23868   1.861   3.440   3.348 -0.6068 -1.1950  0.7897
  918MOL0     H23869   1.996   3.391   3.558  0.8133 -1.6639 -0.0647
  918MOL0     H23870   2.076   3.548   3.543 -1.8095  0.4165  0.6192
  918MOL0     H23871   2.080   3.319   3.337 -0.3253  0.0405  1.2919
  918MOL0     H23872   2.188   3.454   3.335  2.8084 -1.0575 -0.3722
  918MOL0     H23873   2.287   3.396   3.567  0.6939  1.7365 -2.0165
  918MOL0     H23874   2.186   3.252   3.568 -0.4953 -0.2463 -0.3743
  918MOL0     H23875   2.301   3.152   3.391  0.4148  1.4983 -0.6752
  918MOL0     H23876   2.406   3.280   3.366 -1.2215 -0.8799 -1.7235
  918MOL0     H23877   2.421   3.131   3.647  0.2540 -0.9610 -0.4926
  918MOL0     H23878   2.527   3.246   3.568  0.9554 -0.7521  2.2731
  918MOL0     H23879   2.456   2.968   3.482  1.0599 -0.6913 -1.3772
  918MOL0     H23880   2.552   3.071   3.387 -4.4248  0.9117 -0.6773
  918MOL0     H23881   2.576   2.841   3.700  0.7433 -1.4876 -2.9565
  918MOL0     H23882   2.792   2.815   3.901  0.6090  0.1534  0.6481
  918MOL0     H23883   2.826   2.713   3.759  0.8711  0.2645  0.7025
  918MOL0     H23884   3.024   2.782   3.716 -2.3771  2.0106 -1.5545
  918MOL0     H23885   3.028   2.918   3.831  4.8720 -1.1941 -1.4042
  918MOL0     H23886   3.030   2.611   3.892 -0.1899 -0.4070 -0.6305
  918MOL0     H23887   3.003   2.725   4.016 -0.1828  2.8075 -0.0723
  918MOL0     H23888   3.207   2.835   4.014 -1.7495 -1.0814  1.0207
  918MOL0     H23889   3.257   2.768   3.857  1.2690  1.1984  0.2423
  918MOL0     H23890   3.375   2.469   4.158 -0.3939  1.0168 -1.3636
  918MOL0     H23891   3.622   2.432   4.187  1.4005  1.0091  0.4382
  918MOL0     H23892   4.076   2.767   4.244  2.4878  1.2475  0.6267
  918MOL0     H23893   4.319   2.732   4.243 -1.3775 -1.9095  1.4296
  918MOL0     H23894   4.473   2.379   4.009 -0.9847 -0.3920 -2.4642
  918MOL0     H23895   4.467   2.508   3.894 -3.1473 -0.4363  1.4229
  918MOL0     H23896   4.710   2.475   4.092 -0.6745  1.9218  1.9350
  918MOL0     H23897   4.708   2.419   3.931 -1.3944  0.1029  0.3969
  918MOL0     H23898   4.644   2.665   3.857 -0.8252  2.0081  1.3144
  918MOL0     H23899   4.679   2.705   4.025 -0.3681  1.0375 -1.1374
  918MOL0     H23900   4.873   2.609   3.821  1.6391 -1.6359  1.1516
  918MOL0     H23901   4.911   2.613   3.992 -1.6309 -2.1786  0.1532
  918MOL0     H23902   4.987   2.826   3.918 -0.9606 -0.4217  1.8633
  918MOL0     H23903   4.825   2.879   3.951  0.8211 -0.7008  1.6648
  918MOL0     H23904   4.931   2.781   3.685 -1.9708  0.7295 -1.0471
  918MOL0     H23905   4.770   2.830   3.706 -0.2006 -0.0512  1.5485
  918MOL0     H23906   5.005   3.020   3.704 -0.4736  2.7336 -1.5084
  918MOL0     H23907   4.855   3.057   3.786 -1.2158 -0.1954 -0.7688
  918MOL0     H23908   4.905   3.105   3.521 -0.0096  2.5247  3.2431
  918MOL0     H23909   4.831   2.938   3.505  2.9787 -0.4425  0.0344
  918MOL0     H23910   4.280   2.485   3.903  2.2105 -1.2111  1.6317
  918MOL0     H23911   4.047   2.534   3.877 -3.4085 -1.9720  3.4581
  918MOL0     H23912   3.698   2.782   3.969  1.1446  0.1057  1.0710
  918MOL0     H23913   3.465   2.810   3.919  1.7983  1.1362  1.6213
  918MOL0     H23914   1.563   3.665   3.466 -0.4357 -0.6784 -0.8497
  918MOL0     H23915   1.307   3.682   3.505 -2.2122  0.1886  2.5818
  918MOL0     H23916   0.994   3.394   3.763  0.6317  0.8465 -2.4178
  918MOL0     H23917   0.773   3.365   3.872 -0.0168 -0.3343  0.5756
  918MOL0     H23918   0.466   3.476   4.023  0.8004  3.7835  1.4672
  918MOL0     H23919   0.580   3.382   3.909 -2.1454 -0.4543 -0.0720
  918MOL0     H23920   0.480   3.535   3.725 -0.7579 -0.7003 -0.4216
  918MOL0     H23921   0.358   3.580   3.839 -0.0519  0.8459 -1.3696
  918MOL0     H23922   0.281   3.350   3.867 -2.0897 -0.6504 -1.9674
  918MOL0     H23923   0.414   3.286   3.786 -1.1279 -0.9950  1.7156
  918MOL0     H23924   0.219   3.481   3.660 -0.0674  0.7643 -0.3177
  918MOL0     H23925   0.338   3.395   3.557 -0.2448  0.3557  0.6522
  918MOL0     H23926   0.062   3.092   3.547  0.9089  0.2230 -2.8808
  918MOL0     H23927   0.715   3.788   3.842 -0.4535 -0.9378  2.0840
  918MOL0     H23928   1.050   3.894   3.801  1.3352 -2.0401 -1.8802
  918MOL0     H23929   0.980   3.876   3.642 -0.5346  2.4846  0.3287
  918MOL0     H23930   0.878   3.934   3.770 -0.4838  0.7831 -1.5282
  919MOL0     O23931  10.163   8.285   8.503 -0.0639  0.4124 -0.0933
  919MOL0     C23932  10.178   8.356   8.603  0.0601 -0.1440  0.4869
  919MOL0     O23933  10.305   8.379   8.662 -0.3718 -0.7179  0.6427
  919MOL0     C23934  10.416   8.314   8.625 -0.3098  0.2706  0.1348
  919MOL0     C23935  10.452   8.285   8.493  0.6194 -0.7190  0.1277
  919MOL0     C23936  10.586   8.251   8.468  0.4513 -0.1671 -0.1443
  919MOL0     C23937  10.679   8.240   8.573  0.7672  0.0762  0.5731
  919MOL0     O23938  10.805   8.207   8.531 -0.1420 -0.8162 -0.2972
  919MOL0     C23939  10.899   8.126   8.616 -0.1076 -0.7588 -0.6775
  919MOL0     C23940  11.032   8.113   8.547 -0.0858 -0.3098  0.5828
  919MOL0     C23941  11.102   8.238   8.511 -0.7377 -0.3242 -0.0266
  919MOL0     C23942  11.191   8.218   8.395 -0.6765 -0.6894 -0.3844
  919MOL0     C23943  11.299   8.119   8.426 -0.2308  0.1001 -0.4074
  919MOL0     C23944  11.428   8.134   8.332  0.7094  0.9823 -0.8080
  919MOL0     C23945  11.561   8.080   8.396 -0.4848 -0.1682  0.1000
  919MOL0     C23946  11.579   7.942   8.325  0.1091  0.5515  1.0968
  919MOL0     N23947  11.665   7.848   8.392  0.9732  0.1605  0.1585
  919MOL0     C23948  11.626   7.785   8.508  0.0130 -0.6263  0.1577
  919MOL0     C23949  11.731   7.702   8.524 -0.3483 -0.2324 -0.0695
  919MOL0     C23950  11.747   7.596   8.632 -0.5275 -0.7792 -0.0690
  919MOL0     C23951  11.630   7.492   8.610 -0.6346 -0.3097  0.3768
  919MOL0     C23952  11.595   7.423   8.745  0.4000 -0.6710 -0.1459
  919MOL0     C23953  11.718   7.343   8.797 -0.5291  0.1700 -0.2879
  919MOL0     O23954  11.762   7.244   8.699 -0.5238 -0.2703  0.0764
  919MOL0     C23955  11.890   7.197   8.712 -0.2547  0.3792  1.1913
  919MOL0     C23956  11.960   7.193   8.831 -0.1667  0.4943  0.1996
  919MOL0     C23957  12.083   7.136   8.842 -0.3810 -0.2199  0.2275
  919MOL0     C23958  12.141   7.069   8.728 -0.4512 -0.4223  1.0828
  919MOL0     C23959  12.268   6.995   8.732  0.6507  0.2196  0.5492
  919MOL0     O23960  12.299   6.924   8.624  0.7023  0.2382  0.9282
  919MOL0     C23961  12.411   6.853   8.619 -0.4580 -0.1074 -0.4399
  919MOL0     C23962  12.524   6.909   8.561  0.2251  0.0005  0.9472
  919MOL0     C23963  12.642   6.839   8.553 -0.0512  0.2337  0.5095
  919MOL0     C23964  12.661   6.712   8.614  0.1644 -0.0454  0.4915
  919MOL0     O23965  12.782   6.643   8.607  0.1933 -0.3231  0.1543
  919MOL0     C23966  12.897   6.677   8.689 -0.3505  0.0366 -0.1248
  919MOL0     C23967  13.016   6.590   8.653  0.2604 -0.6847  0.4142
  919MOL0     C23968  13.141   6.635   8.719 -0.2665  0.7369 -0.1980
  919MOL0     C23969  13.270   6.563   8.656 -0.2147  0.3277  0.0530
  919MOL0     C23970  13.389   6.640   8.695  0.2665  0.3429  0.1656
  919MOL0     C23971  13.521   6.559   8.649  0.8377 -0.1493  0.1439
  919MOL0     C23972  13.549   6.574   8.497 -0.2665  0.4299 -0.5177
  919MOL0     C23973  13.617   6.710   8.453 -0.3939 -0.1863  0.0817
  919MOL0    Cl23974  13.777   6.713   8.522  0.2825  0.6259  0.0106
  919MOL0     C23975  12.547   6.658   8.682  0.1828 -0.1079 -0.1081
  919MOL0     C23976  12.425   6.728   8.679 -0.1037 -0.6147  0.0433
  919MOL0     O23977  12.329   7.001   8.837 -0.1805 -0.0283  0.1694
  919MOL0     C23978  12.070   7.084   8.608  0.2084  0.7092 -0.1960
  919MOL0     C23979  11.942   7.137   8.595  0.2413 -0.5924  0.5100
  919MOL0     N23980  11.828   7.716   8.429 -0.6057 -0.4451 -0.6207
  919MOL0     N23981  11.786   7.805   8.345  0.1630  0.2423  0.8415
  919MOL0     C23982  10.638   8.252   8.706 -0.6310 -0.5598 -0.1793
  919MOL0     C23983  10.512   8.297   8.727  0.2241  0.2213  0.0562
  919MOL0     C23984  10.060   8.409   8.663  0.8921 -0.2533  0.3657
  919MOL0     C23985  10.068   8.416   8.802 -0.1508 -0.1960 -0.4997
  919MOL0     C23986   9.955   8.442   8.885  0.0279  0.4978 -0.1497
  919MOL0     C23987   9.831   8.463   8.821  0.5199 -0.1691  0.1843
  919MOL0     O23988   9.724   8.482   8.902  0.3527 -0.3371  0.0783
  919MOL0     C23989   9.592   8.475   8.844 -0.6271  0.2680  0.3309
  919MOL0     C23990   9.486   8.462   8.952 -0.6051 -0.5654 -0.2922
  919MOL0     C23991   9.349   8.499   8.905  0.0633  0.5481 -0.5250
  919MOL0     C23992   9.244   8.458   9.007 -0.2078 -0.2016 -0.2616
  919MOL0     C23993   9.109   8.464   8.950  0.0052  0.5020  0.5154
  919MOL0     C23994   8.998   8.472   8.908  1.1146  0.2442 -0.2425
  919MOL0     C23995   9.830   8.468   8.676  0.5594 -0.0619 -0.1039
  919MOL0     C23996   9.938   8.443   8.600  0.4120 -0.5143  0.0901
  919MOL0     C23997   9.925   8.451   8.448  0.4621 -0.9020  0.5908
  919MOL0     H23998  10.383   8.305   8.411  2.0517  0.2692 -0.9000
  919MOL0     H23999  10.619   8.226   8.368 -4.6733 -0.3253 -2.0761
  919MOL0     H24000  10.913   8.170   8.715  2.4932 -1.2804 -0.7420
  919MOL0     H24001  10.861   8.028   8.647 -0.1040  0.3975  3.6499
  919MOL0     H24002  10.994   8.060   8.460 -0.8502 -1.6730  1.7055
  919MOL0     H24003  11.091   8.044   8.608 -1.0309 -0.7999  0.9663
  919MOL0     H24004  11.159   8.274   8.597  0.0041 -0.5973 -0.3884
  919MOL0     H24005  11.030   8.317   8.488  0.1564  0.8712  1.1676
  919MOL0     H24006  11.135   8.192   8.305  0.6787 -1.6137 -0.9963
  919MOL0     H24007  11.233   8.317   8.373 -0.0503 -1.0591 -0.8908
  919MOL0     H24008  11.337   8.132   8.528 -1.1375  1.9659 -0.2619
  919MOL0     H24009  11.253   8.021   8.417 -3.1274  1.2423  0.8736
  919MOL0     H24010  11.411   8.087   8.235 -0.1297 -0.3791 -0.0227
  919MOL0     H24011  11.442   8.242   8.317 -0.2364  0.9866 -1.8591
  919MOL0     H24012  11.550   8.070   8.504 -1.0625 -1.5149 -0.0570
  919MOL0     H24013  11.652   8.139   8.381  0.9038 -1.9090  1.3174
  919MOL0     H24014  11.484   7.891   8.306  0.2864  1.0339 -1.5454
  919MOL0     H24015  11.640   7.967   8.237  2.9250 -0.8763  2.4979
  919MOL0     H24016  11.537   7.793   8.569 -0.8357 -0.5567 -1.0495
  919MOL0     H24017  11.842   7.541   8.631 -0.8820 -1.4221  0.8634
  919MOL0     H24018  11.737   7.655   8.723  0.7702 -2.3265  1.1369
  919MOL0     H24019  11.544   7.539   8.562  0.3427 -0.0297 -1.1662
  919MOL0     H24020  11.652   7.414   8.537 -3.7259 -0.3474 -0.6773
  919MOL0     H24021  11.509   7.356   8.738 -1.2458  1.2868  0.1813
  919MOL0     H24022  11.566   7.501   8.816  1.2963  0.3392 -0.8500
  919MOL0     H24023  11.682   7.296   8.889 -0.8525  1.2637  0.1554
  919MOL0     H24024  11.798   7.408   8.832 -2.2939  1.2412  1.9933
  919MOL0     H24025  11.918   7.234   8.922  1.1264  1.9370  0.1860
  919MOL0     H24026  12.133   7.136   8.939  1.2713  1.5627 -0.5383
  919MOL0     H24027  12.518   7.009   8.519 -3.5101  0.0109  1.1528
  919MOL0     H24028  12.722   6.887   8.498 -1.3622  2.2876  0.2594
  919MOL0     H24029  12.912   6.785   8.694 -1.7303  0.1976  2.0606
  919MOL0     H24030  12.874   6.635   8.788 -1.3408 -3.0846 -1.5567
  919MOL0     H24031  12.991   6.489   8.684  2.5108 -1.3717  0.2278
  919MOL0     H24032  13.028   6.596   8.544  0.1435 -0.5468  0.4091
  919MOL0     H24033  13.154   6.743   8.705 -0.1520  0.9280  1.1902
  919MOL0     H24034  13.133   6.627   8.828 -0.5828  1.0708 -0.1945
  919MOL0     H24035  13.261   6.542   8.549 -0.9177 -2.2151  0.5255
  919MOL0     H24036  13.278   6.462   8.699  1.6866  0.6864  0.6275
  919MOL0     H24037  13.394   6.671   8.800  1.7501  1.2867 -0.1554
  919MOL0     H24038  13.395   6.738   8.647 -2.2668  0.6998  0.4477
  919MOL0     H24039  13.602   6.607   8.704  0.1935  5.0878 -2.8032
  919MOL0     H24040  13.500   6.454   8.670 -3.9431  0.5944  0.2888
  919MOL0     H24041  13.451   6.576   8.447  0.0537 -0.5001 -1.2100
  919MOL0     H24042  13.610   6.491   8.460 -1.2670 -0.4472 -0.2342
  919MOL0     H24043  13.633   6.704   8.345 -1.2093 -1.3289  0.0049
  919MOL0     H24044  13.568   6.803   8.483 -1.7101  0.4197 -3.3986
  919MOL0     H24045  12.544   6.564   8.738 -1.3786 -0.0213 -0.0027
  919MOL0     H24046  12.333   6.692   8.723 -0.0074 -0.8288  0.0704
  919MOL0     H24047  12.116   7.036   8.522 -0.7963 -1.1660  0.2570
  919MOL0     H24048  11.895   7.148   8.497  2.7288 -0.7967 -0.7946
  919MOL0     H24049  10.705   8.241   8.791 -1.0798 -0.0158  0.2577
  919MOL0     H24050  10.480   8.315   8.829  1.2716 -2.5243  0.9595
  919MOL0     H24051  10.157   8.383   8.855 -1.0949  0.7045  1.7562
  919MOL0     H24052   9.955   8.442   8.994 -1.9869 -2.5105 -0.0199
  919MOL0     H24053   9.581   8.397   8.769 -0.0552  1.2076 -0.7667
  919MOL0     H24054   9.581   8.559   8.775  2.8033  0.1929 -0.4669
  919MOL0     H24055   9.513   8.529   9.034 -0.9591 -0.9425  0.1371
  919MOL0     H24056   9.499   8.362   8.995 -1.4810  0.1626  1.8004
  919MOL0     H24057   9.329   8.449   8.810  1.7597 -0.5128 -0.3552
  919MOL0     H24058   9.347   8.607   8.888  2.9552  1.5001  3.6603
  919MOL0     H24059   9.257   8.356   9.044 -1.0743 -1.1593 -2.3758
  919MOL0     H24060   9.244   8.522   9.095  0.6829 -0.8834  0.2513
  919MOL0     H24061   8.897   8.488   8.876  1.6091  1.2393 -1.4001
  919MOL0     H24062   9.738   8.488   8.622 -0.6341  0.1497  1.8767
  919MOL0     H24063   9.841   8.509   8.408  1.6602 -0.9217 -2.1811
  919MOL0     H24064  10.012   8.499   8.402  0.8305 -2.1575 -0.0735
  919MOL0     H24065   9.910   8.350   8.409 -0.4913 -0.7731  0.5958
  920MOL0     O24066   1.782   0.445   0.470  0.3050  0.6055  0.5286
  920MOL0     C24067   1.686   0.466   0.403  0.2844  0.4039  0.5409
  920MOL0     O24068   1.656   0.391   0.290 -0.2608  0.2128 -0.7062
  920MOL0     C24069   1.717   0.282   0.247 -0.1586  0.4479  0.2756
  920MOL0     C24070   1.855   0.257   0.268 -0.3264 -0.9882  0.9699
  920MOL0     C24071   1.900   0.137   0.221  0.6506  0.2561 -0.1728
  920MOL0     C24072   1.832   0.042   0.152 -0.0020  1.0967  0.1147
  920MOL0     O24073   1.899  -0.071   0.111 -0.3120 -0.3882  0.3247
  920MOL0     C24074   1.829  -0.195   0.098 -0.1923 -0.6832  0.0746
  920MOL0     C24075   1.824  -0.283   0.224 -0.4288 -0.4856  0.6074
  920MOL0     C24076   1.965  -0.343   0.238  0.1243  0.2065 -1.3850
  920MOL0     C24077   1.964  -0.470   0.325  0.2994 -0.2966 -0.3006
  920MOL0     C24078   2.084  -0.566   0.307  0.2043  0.0553  0.0701
  920MOL0     C24079   2.089  -0.663   0.423  0.1052  1.1500  0.0220
  920MOL0     C24080   2.199  -0.771   0.442 -0.4517  0.2550 -0.2286
  920MOL0     C24081   2.334  -0.708   0.466  0.0875  0.4077  0.0715
  920MOL0     N24082   2.432  -0.810   0.478  0.2680  1.1340 -0.0922
  920MOL0     C24083   2.453  -0.899   0.585 -0.1168  0.2952  0.6015
  920MOL0     C24084   2.559  -0.977   0.549  0.8373 -0.8715  0.0197
  920MOL0     C24085   2.617  -1.087   0.631  0.1519  0.3799  0.2781
  920MOL0     C24086   2.768  -1.088   0.602  0.2796  0.8915  0.1275
  920MOL0     C24087   2.814  -1.220   0.666 -0.3737  0.5212 -0.7108
  920MOL0     C24088   2.975  -1.224   0.667 -0.0258 -0.5286 -0.0835
  920MOL0     O24089   3.022  -1.318   0.763 -0.1061 -0.8237  0.3807
  920MOL0     C24090   3.151  -1.303   0.801  0.4265  0.2201 -0.4368
  920MOL0     C24091   3.251  -1.229   0.726 -0.0169  0.3008  0.1600
  920MOL0     C24092   3.380  -1.222   0.774 -0.4722 -0.0084 -0.4329
  920MOL0     C24093   3.425  -1.288   0.889 -0.7923 -0.0076 -0.3526
  920MOL0     C24094   3.563  -1.287   0.938 -0.7729  1.0322  0.2914
  920MOL0     O24095   3.608  -1.406   0.988 -0.3058  0.3489  0.2960
  920MOL0     C24096   3.736  -1.406   1.034 -0.0082 -0.2197 -0.1141
  920MOL0     C24097   3.842  -1.444   0.952  0.2176 -0.0127  0.4071
  920MOL0     C24098   3.971  -1.450   1.004  0.5668  0.7516 -0.2428
  920MOL0     C24099   3.998  -1.414   1.137  0.1193 -0.2943 -0.8979
  920MOL0     O24100   4.121  -1.431   1.198 -0.1140 -0.0513  0.2016
  920MOL0     C24101   4.221  -1.518   1.144  0.2764 -0.2845 -0.0059
  920MOL0     C24102   4.353  -1.472   1.194  0.3808  0.1948 -0.7277
  920MOL0     C24103   4.470  -1.569   1.151 -0.0318 -0.3042 -0.3640
  920MOL0     C24104   4.609  -1.506   1.169 -0.1497 -0.2669  0.5828
  920MOL0     C24105   4.706  -1.604   1.099 -0.6495 -0.0078  0.6954
  920MOL0     C24106   4.852  -1.596   1.140 -0.5180 -0.8285 -0.2129
  920MOL0     C24107   4.962  -1.641   1.043  0.3140  0.5312 -0.8590
  920MOL0     C24108   5.087  -1.701   1.101  0.8142  0.0823 -1.0793
  920MOL0    Cl24109   5.071  -1.833   1.226  0.2755 -0.2583  0.4504
  920MOL0     C24110   3.891  -1.375   1.218 -0.3821  0.1517 -0.3987
  920MOL0     C24111   3.761  -1.370   1.168 -0.4872 -0.2418  0.5559
  920MOL0     O24112   3.636  -1.195   0.902  0.0453  0.0596  0.4647
  920MOL0     C24113   3.332  -1.368   0.956 -0.2487  0.1685 -0.2202
  920MOL0     C24114   3.198  -1.381   0.909  1.0709 -0.7886  0.5832
  920MOL0     N24115   2.597  -0.937   0.425 -0.2086 -0.4386 -0.0425
  920MOL0     N24116   2.517  -0.845   0.383  0.3133 -0.1658 -0.8572
  920MOL0     C24117   1.695   0.074   0.124 -0.1266  0.3646 -0.5389
  920MOL0     C24118   1.637   0.187   0.177 -0.1294 -0.1581  0.2335
  920MOL0     C24119   1.590   0.577   0.427  0.0589  0.7726 -0.1007
  920MOL0     C24120   1.491   0.606   0.340  1.1446  0.3328 -0.7994
  920MOL0     C24121   1.384   0.686   0.387  0.0717  0.0556  0.4735
  920MOL0     C24122   1.376   0.749   0.507  0.1028 -0.5181 -0.6672
  920MOL0     O24123   1.271   0.832   0.548 -0.2249 -0.0599  0.3420
  920MOL0     C24124   1.259   0.885   0.681  0.1200  0.1220  0.0382
  920MOL0     C24125   1.217   0.787   0.794 -0.0447 -0.0318  0.6589
  920MOL0     C24126   1.102   0.693   0.741  0.4930 -0.5917  0.5470
  920MOL0     C24127   0.985   0.764   0.672  0.0702 -0.3286  0.8215
  920MOL0     C24128   0.873   0.676   0.644  0.5124  0.6895  0.2406
  920MOL0     C24129   0.774   0.614   0.608  0.4065 -0.5492  0.3332
  920MOL0     C24130   1.490   0.735   0.579 -0.1529  0.4148  0.1320
  920MOL0     C24131   1.589   0.647   0.551 -0.0509  0.0726 -0.1654
  920MOL0     C24132   1.687   0.618   0.664 -0.1779 -0.0597  0.4338
  920MOL0     H24133   1.929   0.328   0.303  1.7270 -2.7550  0.4244
  920MOL0     H24134   1.999   0.100   0.242  0.1242 -1.9375 -1.2266
  920MOL0     H24135   1.732  -0.174   0.053  1.1991  1.5031 -2.1732
  920MOL0     H24136   1.890  -0.242   0.021 -1.2102  0.6866 -1.6683
  920MOL0     H24137   1.756  -0.368   0.213  0.7516 -1.6146  1.6409
  920MOL0     H24138   1.796  -0.227   0.313 -1.9322 -1.6268  0.8926
  920MOL0     H24139   2.025  -0.263   0.280  1.6841 -1.7985  0.4086
  920MOL0     H24140   2.013  -0.369   0.143  4.2146  1.1533  0.2412
  920MOL0     H24141   1.955  -0.432   0.427  0.3129 -1.7644  0.2803
  920MOL0     H24142   1.866  -0.519   0.318 -0.6881  1.7121 -1.5202
  920MOL0     H24143   2.077  -0.627   0.217  1.5232 -0.1266  0.0708
  920MOL0     H24144   2.181  -0.515   0.295  1.4065 -2.3100 -0.8191
  920MOL0     H24145   2.109  -0.604   0.513  2.7548 -0.5214  0.6559
  920MOL0     H24146   1.992  -0.712   0.432  0.7028 -0.4329 -1.4960
  920MOL0     H24147   2.216  -0.830   0.352  2.8688  0.5174  0.1260
  920MOL0     H24148   2.178  -0.830   0.531  0.3362 -1.5238 -1.1826
  920MOL0     H24149   2.366  -0.650   0.379 -2.5329 -1.4441 -2.2777
  920MOL0     H24150   2.332  -0.643   0.554 -0.4035  1.5099 -0.7409
  920MOL0     H24151   2.405  -0.901   0.683 -1.8704 -2.6109 -0.1870
  920MOL0     H24152   2.606  -1.058   0.736  0.1872 -2.0744  1.0028
  920MOL0     H24153   2.562  -1.181   0.623 -0.4252  0.6419  1.0546
  920MOL0     H24154   2.778  -1.082   0.493 -0.1865  2.0173  0.1289
  920MOL0     H24155   2.821  -1.004   0.649 -0.3322  0.1417  2.2879
  920MOL0     H24156   2.777  -1.298   0.599 -0.5795  0.4325 -0.4914
  920MOL0     H24157   2.778  -1.253   0.763  1.9495 -1.7394 -0.5137
  920MOL0     H24158   3.000  -1.119   0.685  0.8017 -0.5396 -1.1222
  920MOL0     H24159   3.013  -1.256   0.570  1.2288 -2.2610  0.9230
  920MOL0     H24160   3.224  -1.174   0.636 -3.2229  0.7360  1.2695
  920MOL0     H24161   3.454  -1.162   0.722  1.1524 -1.4472  0.1316
  920MOL0     H24162   3.838  -1.486   0.851  0.1899 -0.4011  0.5668
  920MOL0     H24163   4.052  -1.482   0.940 -0.6966 -1.0583 -1.0199
  920MOL0     H24164   4.191  -1.618   1.176  0.4850 -0.9285 -1.7436
  920MOL0     H24165   4.220  -1.513   1.035  1.0730  1.6163  0.0272
  920MOL0     H24166   4.363  -1.371   1.153 -2.9976  0.2236 -1.8187
  920MOL0     H24167   4.342  -1.460   1.302  0.1143 -2.1721 -0.4382
  920MOL0     H24168   4.472  -1.667   1.198  0.0713  0.4613  1.3019
  920MOL0     H24169   4.446  -1.597   1.048 -1.7373  2.3370 -0.7799
  920MOL0     H24170   4.622  -1.486   1.276 -0.1599  4.6471 -0.1234
  920MOL0     H24171   4.622  -1.407   1.125 -0.0137 -1.6203 -2.6834
  920MOL0     H24172   4.694  -1.589   0.991  0.0049  0.3666  0.6696
  920MOL0     H24173   4.675  -1.705   1.125 -0.5870  0.2430  1.7673
  920MOL0     H24174   4.865  -1.488   1.151 -1.8361 -0.3980 -2.2500
  920MOL0     H24175   4.854  -1.638   1.241 -0.9842 -0.2292  0.0528
  920MOL0     H24176   5.001  -1.560   0.982  3.6109  0.6937  1.1950
  920MOL0     H24177   4.920  -1.720   0.980  1.1955  0.5412 -1.4866
  920MOL0     H24178   5.159  -1.723   1.022  1.4081  2.9198 -1.4442
  920MOL0     H24179   5.131  -1.617   1.156  0.2059 -0.4525  0.2700
  920MOL0     H24180   3.897  -1.341   1.321 -0.1840  1.9688 -0.9871
  920MOL0     H24181   3.687  -1.325   1.234 -0.3356  0.0949  0.5000
  920MOL0     H24182   3.358  -1.434   1.038 -2.5084 -0.3545  0.1201
  920MOL0     H24183   3.116  -1.436   0.953 -0.5545  0.6278 -0.5115
  920MOL0     H24184   1.637   0.002   0.067  0.0875 -0.9185  0.8084
  920MOL0     H24185   1.530   0.203   0.171 -0.2158 -0.9088 -0.3877
  920MOL0     H24186   1.487   0.563   0.241 -3.4471 -0.7167 -0.4073
  920MOL0     H24187   1.294   0.716   0.334  1.3613  3.7130  0.0784
  920MOL0     H24188   1.189   0.969   0.680 -1.3378 -1.0593 -0.0425
  920MOL0     H24189   1.350   0.931   0.720  1.3201 -0.7081 -1.6342
  920MOL0     H24190   1.186   0.848   0.879  3.5278 -0.2028  2.2398
  920MOL0     H24191   1.295   0.720   0.829  1.0812 -0.6041 -2.5853
  920MOL0     H24192   1.054   0.635   0.820 -0.8129 -1.8369 -1.0975
  920MOL0     H24193   1.152   0.628   0.669  3.7118  1.5846  0.6381
  920MOL0     H24194   0.960   0.851   0.733  0.2806  1.4319 -1.4509
  920MOL0     H24195   1.008   0.813   0.577 -1.1558  0.2781  0.8245
  920MOL0     H24196   0.693   0.550   0.582 -0.4811  1.2484 -1.6082
  920MOL0     H24197   1.484   0.781   0.678 -1.6343  2.9638 -1.0424
  920MOL0     H24198   1.665   0.680   0.751  1.6172  1.3055 -0.0511
  920MOL0     H24199   1.679   0.511   0.685 -0.5561  0.1544  1.4334
  920MOL0     H24200   1.789   0.643   0.635  0.2284 -0.2510  1.6152
  921MOL0     O24201   8.294  10.080   9.084 -0.2274  0.5923 -0.0781
  921MOL0     C24202   8.261  10.199   9.085 -0.6806  0.2707 -0.6561
  921MOL0     O24203   8.345  10.307   9.125 -0.0644  0.2573  0.6185
  921MOL0     C24204   8.481  10.305   9.143 -0.2989  0.3035  0.0646
  921MOL0     C24205   8.547  10.435   9.149  0.0641  0.2031 -0.2556
  921MOL0     C24206   8.687  10.437   9.147 -0.0044  0.3212 -0.2777
  921MOL0     C24207   8.773  10.323   9.144  1.0858  0.4214  0.1561
  921MOL0     O24208   8.906  10.358   9.133 -0.3526  0.5992 -0.3784
  921MOL0     C24209   9.000  10.254   9.168  0.2834 -0.6306  0.0879
  921MOL0     C24210   9.132  10.328   9.182  0.4491  0.8142 -0.0403
  921MOL0     C24211   9.207  10.324   9.047  0.1536  0.3137 -0.8408
  921MOL0     C24212   9.360  10.349   9.058  1.0279  0.2681 -0.0101
  921MOL0     C24213   9.438  10.348   8.928  0.3449  0.1668 -0.5506
  921MOL0     C24214   9.588  10.371   8.961  0.7053 -0.1914  0.2132
  921MOL0     C24215   9.682  10.371   8.844 -0.4449 -0.4524 -0.0042
  921MOL0     C24216   9.827  10.420   8.871  0.4145  0.0720  0.4407
  921MOL0     N24217   9.898  10.336   8.972 -0.0423 -0.5042  0.9370
  921MOL0     C24218   9.873  10.203   8.985 -0.1484 -0.8573 -0.7933
  921MOL0     C24219   9.969  10.160   9.077  0.1076  0.0665  1.0281
  921MOL0     C24220   9.978  10.032   9.143  0.1254  0.7538 -0.0706
  921MOL0     C24221   9.850  10.006   9.225 -0.0882  0.3850 -0.5556
  921MOL0     C24222   9.840   9.861   9.281  0.3654  1.2210  0.4038
  921MOL0     C24223   9.702   9.827   9.333  0.0609 -0.3736  0.1399
  921MOL0     O24224   9.618   9.833   9.223  0.6969 -0.0101 -0.0972
  921MOL0     C24225   9.482   9.859   9.236 -0.9165 -0.2602 -0.4812
  921MOL0     C24226   9.409   9.875   9.356 -0.1652  0.7453  0.6139
  921MOL0     C24227   9.270   9.886   9.354  0.4767 -0.4839 -0.1481
  921MOL0     C24228   9.192   9.891   9.235 -1.0488  0.0466 -0.1824
  921MOL0     C24229   9.045   9.886   9.239  0.3912  0.4883 -0.6707
  921MOL0     O24230   8.984   9.879   9.365  0.8303  0.1492  0.0608
  921MOL0     C24231   8.846   9.860   9.375 -0.1190  0.1273  0.0714
  921MOL0     C24232   8.777   9.784   9.280 -0.0938 -0.2958 -0.5001
  921MOL0     C24233   8.641   9.771   9.296  0.2590  0.7901  0.1683
  921MOL0     C24234   8.571   9.832   9.400 -0.2256  0.2201 -0.6095
  921MOL0     O24235   8.433   9.808   9.403 -0.3276  0.0067  0.2359
  921MOL0     C24236   8.344   9.880   9.491 -0.0236  0.3605  0.2539
  921MOL0     C24237   8.316  10.011   9.430 -0.1297  0.1672 -0.2608
  921MOL0     C24238   8.197  10.080   9.506  0.0598  0.8668 -0.8205
  921MOL0     C24239   8.081  10.039   9.428 -0.0819 -0.4132 -0.4229
  921MOL0     C24240   7.969  10.125   9.476  0.6972  0.2148  0.1733
  921MOL0     C24241   7.837  10.086   9.411 -0.6663 -0.5424 -0.0315
  921MOL0     C24242   7.722  10.197   9.425  0.2135  0.9718 -0.3566
  921MOL0     C24243   7.581  10.160   9.360  0.5082 -0.0517  0.2545
  921MOL0    Cl24244   7.581  10.132   9.185  0.2268 -0.0272 -0.3813
  921MOL0     C24245   8.640   9.916   9.496 -0.2786  0.0142  0.5033
  921MOL0     C24246   8.784   9.926   9.478 -0.3439 -0.2928 -0.0695
  921MOL0     O24247   8.995   9.897   9.127 -0.2638  0.2652 -0.0806
  921MOL0     C24248   9.269   9.879   9.112 -0.1117 -0.4685 -0.0494
  921MOL0     C24249   9.410   9.868   9.112 -0.4651 -0.6662 -0.2889
  921MOL0     N24250  10.050  10.269   9.100  0.2161 -0.2005  0.7865
  921MOL0     N24251  10.000  10.377   9.052 -0.2594 -0.2078  0.3712
  921MOL0     C24252   8.708  10.201   9.150  0.3132  0.5200  0.2496
  921MOL0     C24253   8.564  10.200   9.155  0.1336  0.2899 -0.3317
  921MOL0     C24254   8.122  10.235   9.036  0.5231  0.2153  0.1222
  921MOL0     C24255   8.086  10.368   9.020 -0.1175 -0.4192  0.7047
  921MOL0     C24256   7.965  10.402   8.972  0.3117  0.0664 -0.1658
  921MOL0     C24257   7.863  10.309   8.929 -0.2125  0.1857 -0.3775
  921MOL0     O24258   7.740  10.349   8.887  0.1094  0.3255  1.1136
  921MOL0     C24259   7.728  10.481   8.826 -0.2051  0.0258 -0.5954
  921MOL0     C24260   7.588  10.481   8.770  0.2171 -0.0702 -0.5493
  921MOL0     C24261   7.550  10.370   8.670  0.4712 -0.2461  0.2991
  921MOL0     C24262   7.660  10.350   8.563  0.3090 -0.2561 -0.7828
  921MOL0     C24263   7.677  10.457   8.468 -0.4810  0.2567 -0.7054
  921MOL0     C24264   7.694  10.543   8.382  0.1057  0.5391  0.3196
  921MOL0     C24265   7.886  10.178   8.960  0.9463 -0.6285 -1.0547
  921MOL0     C24266   8.020  10.139   8.997  0.2153  0.2522 -0.8623
  921MOL0     C24267   8.041   9.990   9.016  0.8494 -0.6792 -0.1111
  921MOL0     H24268   8.489  10.525   9.133 -1.9275 -0.6889  1.4688
  921MOL0     H24269   8.730  10.536   9.139 -1.8369  1.0128 -2.6829
  921MOL0     H24270   8.965  10.209   9.262  4.5436 -0.8545  1.8218
  921MOL0     H24271   9.006  10.168   9.100  2.0880  0.6414 -1.4760
  921MOL0     H24272   9.196  10.282   9.258 -2.8315 -1.8110  1.3864
  921MOL0     H24273   9.113  10.431   9.215  0.1520  0.5794  0.5302
  921MOL0     H24274   9.164  10.396   8.976  0.4993  1.1412 -0.2158
  921MOL0     H24275   9.196  10.226   8.999 -2.0041  0.8597 -1.5542
  921MOL0     H24276   9.377  10.444   9.109  3.1927 -0.6327  1.1120
  921MOL0     H24277   9.414  10.275   9.118 -1.0142 -0.6296  0.7762
  921MOL0     H24278   9.431  10.256   8.869 -0.8061  0.1121 -0.3616
  921MOL0     H24279   9.406  10.435   8.871  2.5288  1.6394  0.3317
  921MOL0     H24280   9.590  10.467   9.014 -3.2038  0.0268  0.2647
  921MOL0     H24281   9.623  10.295   9.031  1.0051  1.6965  2.2670
  921MOL0     H24282   9.641  10.438   8.767  0.4444 -0.7126 -0.7248
  921MOL0     H24283   9.676  10.272   8.799 -3.9000  0.6284 -2.3302
  921MOL0     H24284   9.883  10.422   8.777  2.2107  2.5347  1.4703
  921MOL0     H24285   9.829  10.524   8.905  0.6528  1.4263 -3.2496
  921MOL0     H24286   9.791  10.140   8.952 -0.8963  0.5413 -1.6891
  921MOL0     H24287   9.991   9.969   9.054  0.2565  0.1234  0.3902
  921MOL0     H24288  10.064  10.030   9.210  0.5260  0.9733 -0.5673
  921MOL0     H24289   9.843  10.080   9.306 -3.8149  1.0445 -1.3123
  921MOL0     H24290   9.762  10.013   9.161  1.2418 -2.8121 -3.0473
  921MOL0     H24291   9.912   9.856   9.364  1.3055 -0.7421 -0.4640
  921MOL0     H24292   9.867   9.782   9.210  0.4430  0.6272  1.0873
  921MOL0     H24293   9.667   9.901   9.406 -0.2588 -0.9125  0.5418
  921MOL0     H24294   9.701   9.726   9.376 -1.5854 -0.8576 -0.9377
  921MOL0     H24295   9.460   9.870   9.451  0.1799 -3.1820  0.3554
  921MOL0     H24296   9.225   9.894   9.452  0.9656 -1.7952  0.2078
  921MOL0     H24297   8.832   9.740   9.198 -2.2085  1.3152 -2.9068
  921MOL0     H24298   8.583   9.707   9.230  0.8524  3.0751 -2.7743
  921MOL0     H24299   8.254   9.818   9.506  0.5825 -0.2204  1.6668
  921MOL0     H24300   8.385   9.890   9.592  0.2957 -2.1247  0.4424
  921MOL0     H24301   8.401  10.079   9.437 -0.6331  0.6524  2.1300
  921MOL0     H24302   8.300  10.005   9.322 -1.4489 -1.9853 -0.0074
  921MOL0     H24303   8.192  10.041   9.608  1.3097 -1.7767 -1.6603
  921MOL0     H24304   8.204  10.189   9.511  3.2159  0.7707 -1.0951
  921MOL0     H24305   8.047   9.935   9.431 -0.4716 -0.3075 -1.0571
  921MOL0     H24306   8.097  10.058   9.321  1.0615 -0.9045 -0.3571
  921MOL0     H24307   7.990  10.230   9.453  0.6129 -0.4023 -3.1437
  921MOL0     H24308   7.957  10.104   9.583  0.6142 -3.8403 -0.4653
  921MOL0     H24309   7.856  10.071   9.304 -1.5017 -2.1713  0.0222
  921MOL0     H24310   7.813   9.995   9.467  0.1670  0.7983  2.7232
  921MOL0     H24311   7.754  10.292   9.382  1.2001  0.8044 -0.0237
  921MOL0     H24312   7.709  10.216   9.532 -0.2648  0.6063 -0.3426
  921MOL0     H24313   7.542  10.069   9.407 -1.1605  0.5252  0.0514
  921MOL0     H24314   7.513  10.242   9.383 -0.8351 -1.1080  0.1913
  921MOL0     H24315   8.588   9.970   9.574 -0.0542  1.4252 -0.2919
  921MOL0     H24316   8.842   9.999   9.534  1.6472 -1.7546 -0.1193
  921MOL0     H24317   9.223   9.878   9.013 -1.5193 -0.6363  0.5739
  921MOL0     H24318   9.475   9.869   9.026  1.9688 -0.3439  1.4530
  921MOL0     H24319   8.752  10.102   9.151  1.8484  1.1528 -0.6789
  921MOL0     H24320   8.518  10.101   9.159  2.7248 -1.0563 -1.2471
  921MOL0     H24321   8.159  10.446   9.041 -1.4147  0.5107  1.9006
  921MOL0     H24322   7.936  10.505   8.952 -2.3879 -0.0936  2.2261
  921MOL0     H24323   7.803  10.493   8.746  0.1397 -0.2604 -0.3168
  921MOL0     H24324   7.745  10.564   8.896  3.3499 -0.7361 -0.3537
  921MOL0     H24325   7.573  10.567   8.704  2.1226  1.1736  0.5553
  921MOL0     H24326   7.505  10.494   8.841 -2.0848  2.1587 -3.3521
  921MOL0     H24327   7.455  10.398   8.624  0.5056 -1.1662 -0.3624
  921MOL0     H24328   7.536  10.276   8.725  0.1997  0.8970  2.2747
  921MOL0     H24329   7.752  10.328   8.618 -0.4319  0.0270  0.6019
  921MOL0     H24330   7.636  10.262   8.502  2.5859 -1.9226  0.5843
  921MOL0     H24331   7.710  10.629   8.319 -1.4056 -0.4529 -1.5125
  921MOL0     H24332   7.808  10.103   8.956  0.7575 -0.4343 -1.0883
  921MOL0     H24333   7.954   9.932   8.982  0.7177 -0.5507  0.0035
  921MOL0     H24334   8.130   9.954   8.963  0.0981 -1.7701 -0.6834
  921MOL0     H24335   8.063   9.970   9.121 -0.5132 -2.0835 -0.0518
  922MOL0     O24336   0.392   1.685   9.920  0.0406  0.2376  0.1815
  922MOL0     C24337   0.466   1.739   9.842 -0.2995 -0.3513 -0.0093
  922MOL0     O24338   0.426   1.820   9.743 -0.5865  0.2026  0.0020
  922MOL0     C24339   0.298   1.871   9.746 -0.1653 -0.1208  0.1411
  922MOL0     C24340   0.182   1.790   9.766 -0.5732 -0.1792  0.3486
  922MOL0     C24341   0.053   1.839   9.735 -0.3776 -0.2318  0.2459
  922MOL0     C24342   0.039   1.969   9.678  0.1841  0.3324  0.2339
  922MOL0     O24343  -0.070   2.021   9.626  0.6816  0.9294 -0.2900
  922MOL0     C24344  -0.182   1.940   9.651  0.1567  0.6500  0.4201
  922MOL0     C24345  -0.308   1.996   9.583 -0.3168 -0.2366 -0.0694
  922MOL0     C24346  -0.346   2.139   9.624 -1.8394 -0.3514  0.1465
  922MOL0     C24347  -0.480   2.187   9.564 -0.3166 -0.4523  0.3218
  922MOL0     C24348  -0.531   2.312   9.622  0.4851 -0.7001  0.1405
  922MOL0     C24349  -0.606   2.288   9.756  0.3454  0.3038 -0.3849
  922MOL0     C24350  -0.651   2.425   9.822 -0.6623  0.3103  0.6803
  922MOL0     C24351  -0.533   2.512   9.866  0.2196  0.1179  0.1651
  922MOL0     N24352  -0.443   2.440   9.953 -0.5709  0.1057 -0.0744
  922MOL0     C24353  -0.327   2.365   9.908  0.1182 -0.2179 -0.3122
  922MOL0     C24354  -0.294   2.283  10.006 -0.1965  0.2769 -1.1893
  922MOL0     C24355  -0.174   2.186  10.000 -1.2911  0.2925  0.6254
  922MOL0     C24356  -0.044   2.245  10.058 -0.3828 -0.3378  0.0329
  922MOL0     C24357   0.078   2.150  10.030  0.0861 -0.1998 -0.1688
  922MOL0     C24358   0.204   2.213  10.094 -0.1297 -0.0169 -0.4540
  922MOL0     O24359   0.205   2.197  10.235 -0.2849 -0.0331 -0.7519
  922MOL0     C24360   0.318   2.230  10.307 -0.5259  0.2031 -0.0584
  922MOL0     C24361   0.430   2.295  10.245 -0.3408 -0.0563 -0.6247
  922MOL0     C24362   0.551   2.321  10.323  0.0827  0.0696  0.7033
  922MOL0     C24363   0.556   2.290  10.459  0.2157  0.6454  0.2977
  922MOL0     C24364   0.682   2.308  10.534 -0.1702 -0.2855  0.0948
  922MOL0     O24365   0.670   2.307  10.677 -0.0584  0.0646  0.5545
  922MOL0     C24366   0.779   2.359  10.748  0.2177 -0.2437 -0.7664
  922MOL0     C24367   0.841   2.478  10.708  0.3050 -1.0375 -0.0575
  922MOL0     C24368   0.938   2.534  10.784  0.7028 -0.7761  0.4016
  922MOL0     C24369   0.998   2.464  10.892  0.6306 -0.4013 -0.3944
  922MOL0     O24370   1.104   2.518  10.963  0.5233  0.0618  0.5528
  922MOL0     C24371   1.216   2.427  10.981 -0.0875  0.4239  0.2523
  922MOL0     C24372   1.278   2.384  10.856 -0.0971  0.4089  0.6972
  922MOL0     C24373   1.312   2.497  10.759  0.0928 -0.7518 -0.4469
  922MOL0     C24374   1.428   2.591  10.809  0.6114 -0.0497  0.3532
  922MOL0     C24375   1.471   2.702  10.711  1.1904 -0.8406  0.0467
  922MOL0     C24376   1.608   2.767  10.730 -0.1188  0.4504  0.2846
  922MOL0     C24377   1.599   2.889  10.825  0.6108 -0.1625 -0.4781
  922MOL0     C24378   1.736   2.958  10.821 -0.6212  0.3136 -0.7289
  922MOL0    Cl24379   1.881   2.850  10.848  0.1101 -0.2415 -0.2644
  922MOL0     C24380   0.931   2.348  10.939  0.2778 -0.1251  0.3784
  922MOL0     C24381   0.827   2.293  10.862  0.0121 -0.8596  0.0327
  922MOL0     O24382   0.788   2.329  10.471 -0.3508 -0.2225  0.2215
  922MOL0     C24383   0.443   2.238  10.517  1.1252 -0.3726 -0.5074
  922MOL0     C24384   0.331   2.210  10.437  1.0597 -0.4780 -0.4507
  922MOL0     N24385  -0.380   2.304  10.111  0.8318 -0.2478 -0.1100
  922MOL0     N24386  -0.472   2.393  10.077 -0.5444  0.1950  0.3148
  922MOL0     C24387   0.158   2.044   9.655  0.1294 -1.0360  0.7566
  922MOL0     C24388   0.283   2.000   9.690 -0.1101 -0.5955 -0.5171
  922MOL0     C24389   0.615   1.726   9.846  0.6168  0.1923  0.9581
  922MOL0     C24390   0.694   1.830   9.789 -0.3900 -1.2619 -0.5387
  922MOL0     C24391   0.832   1.810   9.765 -0.4941 -0.3660  0.0960
  922MOL0     C24392   0.894   1.697   9.808  0.4266  0.1520  0.6459
  922MOL0     O24393   1.030   1.679   9.792  0.0359 -0.0623  0.0549
  922MOL0     C24394   1.106   1.787   9.720  0.4323  0.5826 -0.3100
  922MOL0     C24395   1.251   1.738   9.712 -0.1294  0.2226  0.6701
  922MOL0     C24396   1.344   1.848   9.666 -0.6870 -0.1476 -0.4975
  922MOL0     C24397   1.415   1.933   9.786  0.0163  0.0820  0.3580
  922MOL0     C24398   1.322   1.981   9.889  0.1446 -0.0035  0.2050
  922MOL0     C24399   1.257   2.024   9.986  0.3045  0.1185  0.0299
  922MOL0     C24400   0.824   1.602   9.880 -0.0943 -1.0349  0.2111
  922MOL0     C24401   0.678   1.615   9.889 -0.0555 -0.2895 -0.0610
  922MOL0     C24402   0.618   1.500   9.968 -0.1922  0.6804 -0.1013
  922MOL0     H24403   0.190   1.685   9.791 -0.1473 -1.4295 -4.0936
  922MOL0     H24404  -0.033   1.777   9.755 -0.2234  0.0728  2.0618
  922MOL0     H24405  -0.156   1.844   9.607  0.7238  0.6943  0.6560
  922MOL0     H24406  -0.207   1.925   9.757 -0.3269  2.6229  0.6362
  922MOL0     H24407  -0.391   1.937   9.622 -0.8998 -0.6566 -1.8606
  922MOL0     H24408  -0.308   1.973   9.476 -2.1200  0.0733 -0.1618
  922MOL0     H24409  -0.269   2.205   9.585 -3.1199  0.8886 -0.3849
  922MOL0     H24410  -0.348   2.139   9.734  1.3011 -3.6289  0.4120
  922MOL0     H24411  -0.472   2.190   9.455  2.1998 -3.4242  0.2865
  922MOL0     H24412  -0.556   2.109   9.577  1.0893 -1.5598  2.3414
  922MOL0     H24413  -0.445   2.379   9.630 -0.5416  0.6871 -0.0681
  922MOL0     H24414  -0.606   2.355   9.555 -0.3235 -2.4124 -0.1003
  922MOL0     H24415  -0.694   2.226   9.739  0.0504  0.3605  0.8527
  922MOL0     H24416  -0.551   2.224   9.826 -2.0410 -1.3411  0.0857
  922MOL0     H24417  -0.720   2.400   9.904 -0.5481 -0.1902  0.6297
  922MOL0     H24418  -0.707   2.480   9.746 -0.1463 -1.3992 -1.0332
  922MOL0     H24419  -0.483   2.545   9.774  0.4039 -0.0617  0.2015
  922MOL0     H24420  -0.568   2.601   9.920 -4.1894 -0.8719 -0.6633
  922MOL0     H24421  -0.269   2.361   9.816  1.4879 -3.2810  0.5751
  922MOL0     H24422  -0.193   2.086  10.039 -0.5536 -0.8388 -1.7086
  922MOL0     H24423  -0.146   2.161   9.897  3.0341  1.4406  1.3423
  922MOL0     H24424  -0.018   2.342  10.014  1.9564 -0.8192  0.2365
  922MOL0     H24425  -0.056   2.269  10.164  4.7893  2.9424  0.1885
  922MOL0     H24426   0.084   2.141   9.921 -1.4841 -2.2141 -0.1408
  922MOL0     H24427   0.063   2.048  10.068 -0.5106  0.7183  2.2529
  922MOL0     H24428   0.210   2.318  10.067  1.2862 -0.3496 -1.5275
  922MOL0     H24429   0.289   2.152  10.064  0.3600  0.3380  0.1786
  922MOL0     H24430   0.429   2.337  10.144 -1.6110  1.6253  0.0462
  922MOL0     H24431   0.636   2.363  10.271 -1.2052 -1.3266 -2.7808
  922MOL0     H24432   0.807   2.526  10.618 -4.3057 -0.5655  1.6988
  922MOL0     H24433   0.988   2.629  10.767  2.2085 -1.9277 -2.3182
  922MOL0     H24434   1.285   2.472  11.052  0.5936  0.2091 -0.2666
  922MOL0     H24435   1.188   2.335  11.034  0.6078 -0.8855 -1.5503
  922MOL0     H24436   1.373   2.334  10.876  0.5490  1.2601 -0.1717
  922MOL0     H24437   1.214   2.307  10.812 -0.6638  1.3116 -0.0695
  922MOL0     H24438   1.336   2.464  10.658  1.9952 -0.1224 -0.2438
  922MOL0     H24439   1.220   2.556  10.751 -0.1182 -1.1433 -0.9329
  922MOL0     H24440   1.514   2.523  10.813  1.4674  0.7258 -2.4601
  922MOL0     H24441   1.400   2.631  10.907 -1.2235  0.3368 -0.2884
  922MOL0     H24442   1.396   2.779  10.728 -1.7601 -3.0573 -1.9137
  922MOL0     H24443   1.461   2.670  10.607 -0.0774 -2.1294  0.5296
  922MOL0     H24444   1.681   2.693  10.764  0.6469  1.9786  2.1859
  922MOL0     H24445   1.641   2.796  10.629  1.0676 -1.1682  0.1709
  922MOL0     H24446   1.564   2.864  10.926 -1.9072 -0.8917 -1.4503
  922MOL0     H24447   1.522   2.962  10.797  1.3877  1.1336  0.6404
  922MOL0     H24448   1.744   3.017  10.729 -2.9297 -0.1931 -1.3091
  922MOL0     H24449   1.753   3.026  10.905  0.6424  1.7857 -2.0959
  922MOL0     H24450   0.960   2.307  11.035 -1.2259  0.6464  1.1947
  922MOL0     H24451   0.772   2.208  10.900 -3.6525  0.2619 -2.2122
  922MOL0     H24452   0.436   2.214  10.622 -0.4600  0.3340 -0.4119
  922MOL0     H24453   0.241   2.174  10.486  1.6395  0.4545  1.4049
  922MOL0     H24454   0.151   2.139   9.604  0.6572 -2.2106 -1.6446
  922MOL0     H24455   0.365   2.069   9.669 -1.1732  0.8522 -0.1210
  922MOL0     H24456   0.645   1.919   9.752 -0.6532 -2.0574 -2.2304
  922MOL0     H24457   0.896   1.883   9.718 -0.3623 -0.5189  0.0358
  922MOL0     H24458   1.098   1.886   9.767  1.1336  0.2472  0.5346
  922MOL0     H24459   1.063   1.788   9.619 -0.3242 -2.3709 -0.1026
  922MOL0     H24460   1.259   1.661   9.634 -1.3006 -0.2838  1.0273
  922MOL0     H24461   1.280   1.701   9.811  0.0672 -2.0916 -0.1706
  922MOL0     H24462   1.281   1.919   9.610 -1.7906 -1.2555 -0.7043
  922MOL0     H24463   1.422   1.822   9.594 -0.6429 -1.5832  0.0492
  922MOL0     H24464   1.501   1.882   9.830  1.3400  3.3431  1.8829
  922MOL0     H24465   1.465   2.022   9.746  1.4468 -1.4750 -1.4498
  922MOL0     H24466   1.200   2.049  10.073  3.4065 -0.0612  2.2919
  922MOL0     H24467   0.872   1.508   9.907  0.9138 -0.3211  0.9593
  922MOL0     H24468   0.692   1.428  10.005 -0.0384  0.8230 -0.1291
  922MOL0     H24469   0.567   1.531  10.060  1.1027  0.6727  0.6503
  922MOL0     H24470   0.538   1.450   9.912  1.1847 -0.9960 -0.6621
  923MOL0     O24471   6.625   2.147   9.511 -0.5272 -0.9937  0.5830
  923MOL0     C24472   6.532   2.202   9.452  0.8058 -0.5162  0.0573
  923MOL0     O24473   6.542   2.324   9.377  0.2050 -0.2489 -0.1722
  923MOL0     C24474   6.664   2.383   9.363 -0.6759 -0.2382  0.4155
  923MOL0     C24475   6.757   2.320   9.288 -0.3118  0.0395 -0.9539
  923MOL0     C24476   6.891   2.376   9.277 -0.3350 -0.6504 -0.8406
  923MOL0     C24477   6.927   2.496   9.344 -0.1963 -0.3276 -0.0876
  923MOL0     O24478   7.056   2.561   9.339  0.8166 -0.5633 -0.0326
  923MOL0     C24479   7.139   2.529   9.222 -0.6641 -0.0093 -0.3859
  923MOL0     C24480   7.262   2.615   9.209  0.7830  0.5992 -0.3585
  923MOL0     C24481   7.355   2.606   9.322 -0.2250 -0.5845 -0.1011
  923MOL0     C24482   7.480   2.700   9.290  0.1469  0.3617 -0.6731
  923MOL0     C24483   7.574   2.683   9.407  0.2212 -0.2645 -0.5147
  923MOL0     C24484   7.713   2.732   9.381 -0.2524 -0.5420  0.1592
  923MOL0     C24485   7.777   2.753   9.514  0.0856 -0.1082  0.5180
  923MOL0     C24486   7.928   2.780   9.504  0.2805 -0.2601  0.1271
  923MOL0     N24487   8.016   2.667   9.466 -0.5067 -0.3639  0.4371
  923MOL0     C24488   8.074   2.581   9.554  0.1334  0.5686 -0.2778
  923MOL0     C24489   8.157   2.508   9.482  0.0605 -0.0005 -0.2031
  923MOL0     C24490   8.244   2.398   9.533  1.3774  0.1090 -0.0776
  923MOL0     C24491   8.383   2.405   9.470  0.1010  0.6086 -0.3462
  923MOL0     C24492   8.445   2.266   9.487 -0.1645  0.3795  0.9423
  923MOL0     C24493   8.592   2.265   9.465 -0.2093 -0.7360 -0.0626
  923MOL0     O24494   8.625   2.322   9.331 -0.0199 -0.0279 -0.0558
  923MOL0     C24495   8.764   2.316   9.301  0.7108 -0.5945  0.9805
  923MOL0     C24496   8.792   2.355   9.173  0.9712  0.7249 -0.5060
  923MOL0     C24497   8.921   2.358   9.130  0.7253  0.6869  0.0970
  923MOL0     C24498   9.031   2.326   9.210 -0.7015  0.6295  0.9481
  923MOL0     C24499   9.166   2.310   9.152 -0.0237 -0.0232 -0.8093
  923MOL0     O24500   9.179   2.276   9.021  0.1340  0.1650 -0.6074
  923MOL0     C24501   9.309   2.272   8.969 -0.7765 -1.1047 -0.0311
  923MOL0     C24502   9.424   2.343   9.011 -0.9426  0.4805 -1.1177
  923MOL0     C24503   9.546   2.345   8.942 -0.2793 -0.4399 -0.0356
  923MOL0     C24504   9.562   2.256   8.840 -0.3479  0.0461  0.6395
  923MOL0     O24505   9.683   2.254   8.768 -0.2920 -0.5784  0.4946
  923MOL0     C24506   9.710   2.158   8.664  0.0423 -0.4832 -0.0882
  923MOL0     C24507   9.855   2.164   8.622 -0.9009 -0.0233  0.2386
  923MOL0     C24508   9.956   2.146   8.742 -0.0697 -0.0027  0.7640
  923MOL0     C24509  10.095   2.134   8.681 -0.4199 -0.8999  0.4499
  923MOL0     C24510  10.189   2.064   8.779  0.3228  0.0412 -0.1499
  923MOL0     C24511  10.326   2.048   8.717 -0.0748  0.3176  0.0097
  923MOL0     C24512  10.433   2.011   8.822  0.0570 -0.6975  0.5199
  923MOL0     C24513  10.402   1.869   8.881 -0.4075  0.1019  0.6182
  923MOL0    Cl24514  10.537   1.824   8.979  0.2848  0.0003 -0.0214
  923MOL0     C24515   9.446   2.178   8.798 -0.2046 -0.0680 -0.8878
  923MOL0     C24516   9.323   2.192   8.857 -0.3302 -0.8009  0.0316
  923MOL0     O24517   9.262   2.296   9.234 -0.2742 -0.2471 -0.1574
  923MOL0     C24518   8.999   2.288   9.342 -0.1207  0.2149  0.0498
  923MOL0     C24519   8.864   2.285   9.389  0.0616  0.9493  0.2543
  923MOL0     N24520   8.140   2.541   9.347 -0.3205  0.1631 -0.4957
  923MOL0     N24521   8.059   2.642   9.342  0.0439 -0.3200 -0.5984
  923MOL0     C24522   6.822   2.558   9.419  0.0907  0.4705  0.2802
  923MOL0     C24523   6.700   2.497   9.432 -0.2033  0.6173 -0.9013
  923MOL0     C24524   6.404   2.144   9.465  0.6966 -0.3537  0.4128
  923MOL0     C24525   6.396   2.000   9.447  0.3123 -0.7369  0.8087
  923MOL0     C24526   6.269   1.939   9.454  0.1387 -0.2437 -1.0053
  923MOL0     C24527   6.152   2.015   9.489 -0.0426  0.1436 -0.3249
  923MOL0     O24528   6.038   1.939   9.492 -0.4411  0.3392 -0.3129
  923MOL0     C24529   5.917   2.010   9.486 -0.1022 -0.3145 -1.1431
  923MOL0     C24530   5.820   1.912   9.428  0.7958 -0.4511  0.2492
  923MOL0     C24531   5.682   1.972   9.433 -0.5708 -0.0383 -0.2836
  923MOL0     C24532   5.572   1.876   9.383 -0.5574  0.3228 -0.1526
  923MOL0     C24533   5.445   1.948   9.381  0.4832 -0.3691 -0.1250
  923MOL0     C24534   5.333   1.996   9.383  0.4171 -0.1134 -0.6508
  923MOL0     C24535   6.160   2.154   9.510 -0.0112 -0.0732 -0.8201
  923MOL0     C24536   6.282   2.221   9.506  0.1083  0.4715  0.0603
  923MOL0     C24537   6.291   2.364   9.562 -0.1136  0.4838  0.0502
  923MOL0     H24538   6.736   2.225   9.241  1.0535 -1.2532  0.8977
  923MOL0     H24539   6.965   2.328   9.214  1.4970 -0.2848  0.8909
  923MOL0     H24540   7.166   2.424   9.229 -2.9327 -0.6268  0.1389
  923MOL0     H24541   7.068   2.537   9.139  0.1878  0.3641 -1.0849
  923MOL0     H24542   7.225   2.714   9.179 -0.5806 -0.0839 -1.0324
  923MOL0     H24543   7.313   2.585   9.117 -2.0879  2.6389 -2.8193
  923MOL0     H24544   7.387   2.503   9.337  1.0275 -0.0322  1.3080
  923MOL0     H24545   7.313   2.642   9.416  1.0912  0.1477  0.2326
  923MOL0     H24546   7.528   2.661   9.200 -1.4667 -2.1560 -0.5398
  923MOL0     H24547   7.451   2.805   9.280 -1.9234 -0.2209 -1.3054
  923MOL0     H24548   7.527   2.744   9.484 -1.3349 -0.3454 -1.3495
  923MOL0     H24549   7.576   2.576   9.427  1.6808 -0.6130 -2.1822
  923MOL0     H24550   7.766   2.668   9.310 -0.7276  1.5744 -2.2085
  923MOL0     H24551   7.705   2.827   9.328 -2.0603 -1.2936 -1.0180
  923MOL0     H24552   7.771   2.661   9.573  2.0968 -0.6157 -0.0050
  923MOL0     H24553   7.725   2.828   9.575 -0.1471 -0.0928  0.3043
  923MOL0     H24554   7.949   2.863   9.437  0.0589  1.3247  1.9421
  923MOL0     H24555   7.958   2.809   9.605 -1.0449 -1.6712  0.9838
  923MOL0     H24556   8.047   2.564   9.658 -1.0522 -1.3341 -0.8522
  923MOL0     H24557   8.265   2.404   9.640 -1.5893  1.9348  0.5382
  923MOL0     H24558   8.192   2.308   9.499 -1.4784  2.7239 -3.3731
  923MOL0     H24559   8.385   2.445   9.368 -1.0878  0.3550 -0.4920
  923MOL0     H24560   8.432   2.479   9.533 -1.9739 -0.0868  2.2732
  923MOL0     H24561   8.397   2.207   9.408  2.0012 -0.5040  0.2343
  923MOL0     H24562   8.427   2.219   9.585  0.0810  0.6369  1.1102
  923MOL0     H24563   8.621   2.159   9.469 -0.5181 -0.9106 -1.5530
  923MOL0     H24564   8.626   2.321   9.552  0.7242 -1.7557  0.2618
  923MOL0     H24565   8.707   2.384   9.111 -1.6404 -1.1255  1.9396
  923MOL0     H24566   8.938   2.384   9.026 -0.0797 -2.8090 -1.0240
  923MOL0     H24567   9.432   2.416   9.090  2.3603 -1.8142  0.8857
  923MOL0     H24568   9.627   2.407   8.981 -0.9931  0.6492 -0.2463
  923MOL0     H24569   9.692   2.059   8.706  3.8401 -1.3917 -0.2094
  923MOL0     H24570   9.652   2.171   8.573 -2.4250 -0.5950  1.3861
  923MOL0     H24571   9.887   2.091   8.546  0.7032  0.3292  0.5401
  923MOL0     H24572   9.865   2.266   8.584 -0.6355  1.8392  4.7307
  923MOL0     H24573   9.955   2.235   8.806  1.7643  0.4882  0.1986
  923MOL0     H24574   9.925   2.059   8.800 -0.4060 -0.0764  0.4760
  923MOL0     H24575  10.134   2.237   8.674 -1.9009 -0.3005  0.6398
  923MOL0     H24576  10.092   2.083   8.585  0.0698  0.7493 -0.4988
  923MOL0     H24577  10.144   1.965   8.794 -1.9880  1.3848  2.8801
  923MOL0     H24578  10.200   2.125   8.869  2.8770  1.0760 -1.0794
  923MOL0     H24579  10.319   1.964   8.647  0.3597 -2.5536  3.1397
  923MOL0     H24580  10.347   2.145   8.670  1.2611 -0.8673 -1.9997
  923MOL0     H24581  10.418   2.094   8.891 -0.0284  0.3610 -0.7269
  923MOL0     H24582  10.533   2.004   8.777  0.0644  1.2780  0.1606
  923MOL0     H24583  10.312   1.871   8.944 -1.0445 -1.3478 -0.1863
  923MOL0     H24584  10.388   1.801   8.796  0.5850  0.6521  0.0115
  923MOL0     H24585   9.449   2.118   8.707  0.1608  0.9606 -1.5719
  923MOL0     H24586   9.240   2.131   8.824 -0.7153  0.2712 -1.0505
  923MOL0     H24587   9.082   2.260   9.406  0.1617 -0.0012 -0.4063
  923MOL0     H24588   8.837   2.242   9.485  0.9987 -1.4601 -0.4998
  923MOL0     H24589   6.843   2.651   9.473 -0.4165  0.5106  0.4147
  923MOL0     H24590   6.615   2.549   9.474 -0.0907  1.2108 -1.3900
  923MOL0     H24591   6.487   1.945   9.425 -0.7595 -1.8872 -1.0340
  923MOL0     H24592   6.263   1.832   9.438  2.7933 -0.8275  1.1376
  923MOL0     H24593   5.933   2.106   9.436  1.8740  0.3303  0.5659
  923MOL0     H24594   5.885   2.031   9.589  2.1056 -1.6920 -0.1044
  923MOL0     H24595   5.815   1.818   9.484  1.2221  0.1383  1.3149
  923MOL0     H24596   5.852   1.893   9.326 -0.9315  1.4351 -0.7157
  923MOL0     H24597   5.672   2.064   9.374 -0.5374 -0.0950 -0.3772
  923MOL0     H24598   5.661   1.991   9.539 -1.9499 -3.2915  0.1417
  923MOL0     H24599   5.582   1.838   9.281 -1.7981  2.7214 -1.2337
  923MOL0     H24600   5.578   1.787   9.447  3.7147 -0.0764 -0.8090
  923MOL0     H24601   5.239   2.046   9.370 -0.7588 -2.1481 -0.3895
  923MOL0     H24602   6.072   2.215   9.528  0.3339 -0.2595  2.0545
  923MOL0     H24603   6.247   2.371   9.662 -1.5933  0.3285 -0.5549
  923MOL0     H24604   6.398   2.388   9.567  0.3553 -0.4755 -3.2984
  923MOL0     H24605   6.251   2.442   9.496  1.5577  0.1545 -1.4152
  924MOL0     O24606   1.230   8.485   9.376 -0.2114 -0.3681  0.2364
  924MOL0     C24607   1.236   8.459   9.261 -0.5132 -0.3718 -0.3544
  924MOL0     O24608   1.150   8.498   9.170 -0.5658 -0.3880  0.0172
  924MOL0     C24609   1.047   8.580   9.200  0.4781 -0.8894  0.0100
  924MOL0     C24610   1.075   8.715   9.231  0.4148 -0.3160 -0.1881
  924MOL0     C24611   0.966   8.805   9.261  0.6113  0.6338 -0.7774
  924MOL0     C24612   0.841   8.747   9.278 -0.0958 -0.3126  0.4984
  924MOL0     O24613   0.738   8.802   9.337  0.4044 -0.6670  0.8650
  924MOL0     C24614   0.750   8.925   9.418  0.5699 -0.0971  0.5613
  924MOL0     C24615   0.833   8.900   9.546 -0.1067 -1.2038 -0.3546
  924MOL0     C24616   0.848   9.026   9.624 -0.6813 -0.3592 -0.6644
  924MOL0     C24617   0.908   8.993   9.770 -0.1639  0.2465 -0.0805
  924MOL0     C24618   0.798   8.941   9.860  0.0543  0.8284  0.6023
  924MOL0     C24619   0.861   8.903   9.998  0.3851  0.2081 -0.2589
  924MOL0     C24620   0.764   8.840  10.097  0.7197  0.3257  1.5041
  924MOL0     C24621   0.658   8.936  10.146  0.3865 -0.5164 -0.4415
  924MOL0     N24622   0.690   8.998  10.276 -0.5452  0.0598  0.4034
  924MOL0     C24623   0.816   9.056  10.315 -0.4032  1.0394 -0.1815
  924MOL0     C24624   0.797   9.098  10.438 -0.0118  0.6697  0.2517
  924MOL0     C24625   0.913   9.151  10.522 -0.0758 -0.4337  0.2632
  924MOL0     C24626   0.920   9.116  10.669 -0.7316 -1.4927  0.7249
  924MOL0     C24627   0.960   8.971  10.691  0.1656 -0.0646 -0.4782
  924MOL0     C24628   1.005   8.955  10.831  0.9296  1.0326 -0.5350
  924MOL0     O24629   1.037   8.818  10.867 -0.1648  0.3451  0.2290
  924MOL0     C24630   1.144   8.755  10.807 -0.0801 -1.1408 -0.0192
  924MOL0     C24631   1.135   8.625  10.787  0.1122 -0.2637  0.3638
  924MOL0     C24632   1.225   8.545  10.713 -0.2369 -0.2627  0.5696
  924MOL0     C24633   1.329   8.610  10.649  0.2141  0.5461  0.3830
  924MOL0     C24634   1.418   8.527  10.556 -0.1538  0.3122 -0.3002
  924MOL0     O24635   1.514   8.589  10.484  0.1777 -0.0232  0.6243
  924MOL0     C24636   1.586   8.511  10.403 -1.2439 -0.3120  0.4956
  924MOL0     C24637   1.537   8.426  10.297  0.4116 -0.3063  0.2173
  924MOL0     C24638   1.618   8.377  10.198  0.1181  0.2655 -0.1476
  924MOL0     C24639   1.759   8.399  10.205  0.8368  0.5187 -0.5129
  924MOL0     O24640   1.824   8.390  10.088  0.4145  0.7856  0.4041
  924MOL0     C24641   1.861   8.248  10.060 -0.5364 -0.2092 -0.2980
  924MOL0     C24642   2.005   8.233  10.048  0.1074 -0.8485  0.4168
  924MOL0     C24643   2.029   8.103   9.967  0.4724  0.1304  0.1092
  924MOL0     C24644   2.187   8.087   9.955  0.0955 -0.3588 -0.2091
  924MOL0     C24645   2.216   7.962   9.877 -0.5221 -0.0550 -0.4321
  924MOL0     C24646   2.363   7.918   9.891  0.3299  0.5853  0.2924
  924MOL0     C24647   2.383   7.784   9.819  0.1064 -0.3851 -0.4315
  924MOL0     C24648   2.520   7.733   9.867 -0.3761 -0.7672 -0.6751
  924MOL0    Cl24649   2.642   7.843   9.807  0.0766  0.0561  0.3363
  924MOL0     C24650   1.818   8.482  10.304 -0.7446  0.9150  0.3902
  924MOL0     C24651   1.730   8.534  10.400 -0.8442  0.1081  0.1153
  924MOL0     O24652   1.402   8.403  10.563  0.6534 -0.2488  0.4018
  924MOL0     C24653   1.344   8.747  10.664 -0.4783 -1.1929  0.2827
  924MOL0     C24654   1.254   8.824  10.740  0.6199  0.0372 -0.2114
  924MOL0     N24655   0.666   9.064  10.474 -0.2640 -1.2294 -0.5868
  924MOL0     N24656   0.604   9.006  10.381  0.5997 -0.4290 -0.1083
  924MOL0     C24657   0.815   8.610   9.255  0.4177 -0.9539 -0.4480
  924MOL0     C24658   0.920   8.531   9.199  0.6794  1.2360 -0.3350
  924MOL0     C24659   1.355   8.378   9.207 -0.4464 -0.0506 -0.7720
  924MOL0     C24660   1.375   8.242   9.259  0.4702  0.3643 -0.0938
  924MOL0     C24661   1.478   8.157   9.194  0.4355  0.1338 -0.4260
  924MOL0     C24662   1.560   8.207   9.089  0.4176  0.0215  0.3417
  924MOL0     O24663   1.658   8.133   9.030 -0.4640  0.0795 -0.0302
  924MOL0     C24664   1.702   8.159   8.902  0.0594  0.3242 -0.3896
  924MOL0     C24665   1.828   8.233   8.916 -1.0863  0.3494  0.1258
  924MOL0     C24666   1.888   8.271   8.772 -0.0866  0.1387 -0.4857
  924MOL0     C24667   2.009   8.370   8.791 -0.1778  0.0347  0.7579
  924MOL0     C24668   2.131   8.289   8.814 -0.2689 -0.0287  0.3002
  924MOL0     C24669   2.237   8.226   8.834 -0.7332  0.6149 -0.0252
  924MOL0     C24670   1.536   8.338   9.053 -0.0722 -0.0888  0.1287
  924MOL0     C24671   1.441   8.427   9.107  0.9582 -0.2756  0.0968
  924MOL0     C24672   1.434   8.571   9.054 -0.5216 -0.8027  0.0356
  924MOL0     H24673   1.173   8.761   9.218  0.9865 -1.6567 -0.8485
  924MOL0     H24674   0.981   8.906   9.297  0.8378 -0.4064  2.3475
  924MOL0     H24675   0.794   9.010   9.365 -1.4814 -0.3389 -1.7191
  924MOL0     H24676   0.652   8.964   9.446  1.2450  0.6233  2.0124
  924MOL0     H24677   0.931   8.859   9.521  0.2199 -0.2491 -0.6902
  924MOL0     H24678   0.775   8.824   9.599 -2.8869  0.0169 -1.4368
  924MOL0     H24679   0.748   9.070   9.628 -1.8356 -2.8538  1.6828
  924MOL0     H24680   0.922   9.088   9.573  0.8646 -1.1138  0.5768
  924MOL0     H24681   0.992   8.927   9.749  0.0882  0.7827 -0.8087
  924MOL0     H24682   0.943   9.091   9.804  1.2063  0.6423 -2.4078
  924MOL0     H24683   0.721   9.018   9.867 -0.7538  0.0280  0.6627
  924MOL0     H24684   0.742   8.862   9.808  0.5480  0.7952  0.1094
  924MOL0     H24685   0.950   8.840   9.986  1.3247  1.7626 -1.9114
  924MOL0     H24686   0.895   8.991  10.054 -0.8588 -1.0567  2.6844
  924MOL0     H24687   0.820   8.794  10.179  1.0112 -0.4375  0.8924
  924MOL0     H24688   0.714   8.756  10.047 -0.0735  2.4748 -1.6331
  924MOL0     H24689   0.653   9.022  10.080  1.4350 -1.0384 -1.2266
  924MOL0     H24690   0.556   8.895  10.147  0.3319 -0.4050  1.6046
  924MOL0     H24691   0.907   9.083  10.264  0.0893  0.5712  0.4375
  924MOL0     H24692   1.006   9.114  10.477 -1.5016 -0.7669 -2.6264
  924MOL0     H24693   0.900   9.259  10.505  0.7635 -0.5489 -1.3613
  924MOL0     H24694   0.994   9.182  10.716  0.2866 -3.3855  1.9023
  924MOL0     H24695   0.820   9.136  10.708 -1.1947  0.6009 -1.2762
  924MOL0     H24696   1.029   8.933  10.615 -2.4192 -1.8890 -2.0990
  924MOL0     H24697   0.863   8.924  10.673 -1.0081  2.8123 -2.4134
  924MOL0     H24698   0.919   8.987  10.891 -1.3975 -5.4742  0.4100
  924MOL0     H24699   1.090   9.018  10.857  1.5286  0.8465 -1.9371
  924MOL0     H24700   1.057   8.578  10.846  1.1158 -0.6948  1.3752
  924MOL0     H24701   1.200   8.440  10.704  0.3549 -0.5228  1.7127
  924MOL0     H24702   1.431   8.403  10.291  0.1134  1.1763 -0.6057
  924MOL0     H24703   1.573   8.322  10.116 -1.7513 -1.0933  1.6824
  924MOL0     H24704   1.815   8.182  10.134 -1.3339 -0.2945 -0.8581
  924MOL0     H24705   1.813   8.220   9.965 -2.4584 -2.8797  1.3356
  924MOL0     H24706   2.038   8.326  10.001  1.6338  0.1995  3.2928
  924MOL0     H24707   2.057   8.216  10.143  0.7658  1.4562  0.5224
  924MOL0     H24708   1.992   8.012  10.015 -3.1660  1.1416 -0.5073
  924MOL0     H24709   1.977   8.105   9.871  2.8114  1.5898 -1.2353
  924MOL0     H24710   2.239   8.086  10.052  1.6825 -0.4742 -1.0349
  924MOL0     H24711   2.227   8.177   9.909  0.6034  1.9251  4.1434
  924MOL0     H24712   2.202   7.976   9.769  0.7695  1.5401 -0.4331
  924MOL0     H24713   2.146   7.885   9.908  0.0938 -0.0813  0.9379
  924MOL0     H24714   2.436   7.989   9.852  0.7915 -0.3696 -0.6514
  924MOL0     H24715   2.385   7.896   9.995  0.9387 -3.7244 -0.5394
  924MOL0     H24716   2.385   7.803   9.711 -0.6297 -1.6180 -0.6816
  924MOL0     H24717   2.305   7.713   9.848 -0.1171 -0.0876 -0.2973
  924MOL0     H24718   2.516   7.740   9.976 -1.3382 -0.0201 -0.7480
  924MOL0     H24719   2.528   7.633   9.823 -0.0897 -0.6617 -0.8629
  924MOL0     H24720   1.920   8.519  10.304 -1.3733  2.7561  1.4881
  924MOL0     H24721   1.772   8.609  10.468 -1.9243 -1.4788  2.6856
  924MOL0     H24722   1.429   8.798  10.621 -0.1578 -0.6180  1.5602
  924MOL0     H24723   1.267   8.931  10.748  0.1576  0.2079 -1.4731
  924MOL0     H24724   0.715   8.567   9.262  0.1126 -0.1417  0.2362
  924MOL0     H24725   0.892   8.433   9.163 -5.5527  2.9611 -1.3545
  924MOL0     H24726   1.305   8.219   9.338  0.4832 -1.2294 -0.5184
  924MOL0     H24727   1.497   8.054   9.220  0.2943  0.1958 -0.0792
  924MOL0     H24728   1.626   8.207   8.839  0.4695  3.4922  1.3560
  924MOL0     H24729   1.722   8.063   8.854  0.9462  0.2379  0.1354
  924MOL0     H24730   1.909   8.170   8.954 -0.7030 -1.0892 -2.7949
  924MOL0     H24731   1.827   8.314   8.989  1.6162  1.0186 -0.4807
  924MOL0     H24732   1.815   8.324   8.710  0.6255  2.2173  0.3287
  924MOL0     H24733   1.903   8.177   8.719 -1.3075 -1.8157  2.3680
  924MOL0     H24734   2.026   8.422   8.697  1.3745  1.0464  1.5612
  924MOL0     H24735   1.971   8.444   8.862 -3.3786  1.1237 -1.8577
  924MOL0     H24736   2.320   8.162   8.854 -0.3584  1.2196  0.3937
  924MOL0     H24737   1.610   8.363   8.977  0.0145 -4.3674 -1.4680
  924MOL0     H24738   1.526   8.593   8.998  0.8290  1.9148  3.0214
  924MOL0     H24739   1.351   8.580   8.984 -0.0381 -1.0427 -0.5783
  924MOL0     H24740   1.424   8.641   9.137  2.2125 -2.0303  1.5553
  925MOL0     O24741   2.152   9.270   5.006 -1.0046 -0.6912  0.0746
  925MOL0     C24742   2.144   9.311   4.888  0.0854 -0.4919  0.8502
  925MOL0     O24743   2.026   9.333   4.814 -0.7226  0.3244 -0.3295
  925MOL0     C24744   1.912   9.355   4.881 -0.1285 -0.2867 -0.0683
  925MOL0     C24745   1.796   9.299   4.826 -0.2989 -0.3872  0.4954
  925MOL0     C24746   1.675   9.311   4.887 -0.4778  0.2000 -0.7602
  925MOL0     C24747   1.668   9.379   5.011  0.6149  0.1851  0.8903
  925MOL0     O24748   1.547   9.378   5.079  0.2087  0.3850  0.7282
  925MOL0     C24749   1.506   9.494   5.157 -0.0880  0.8189  0.8348
  925MOL0     C24750   1.366   9.477   5.219 -0.1507  0.2381 -0.3160
  925MOL0     C24751   1.346   9.572   5.335  1.0311 -0.4326 -0.8861
  925MOL0     C24752   1.209   9.640   5.339  0.0143 -0.1015 -0.9098
  925MOL0     C24753   1.180   9.718   5.469  0.4882  0.1936 -0.1228
  925MOL0     C24754   1.034   9.738   5.488 -0.3559  0.6371  0.8316
  925MOL0     C24755   1.001   9.840   5.594  0.1048 -0.3473  0.2551
  925MOL0     C24756   0.853   9.829   5.644  0.3618 -0.1229 -0.1210
  925MOL0     N24757   0.743   9.891   5.566  0.4043 -0.6117 -0.1934
  925MOL0     C24758   0.667   9.992   5.601  0.1180  0.3385 -0.4748
  925MOL0     C24759   0.574   9.999   5.508  0.7104 -0.0436  0.7764
  925MOL0     C24760   0.466  10.096   5.513  0.6072  0.2338  0.2951
  925MOL0     C24761   0.333  10.025   5.545 -0.6489  0.3475 -0.1862
  925MOL0     C24762   0.324   9.947   5.678 -0.0503 -0.2535 -0.6073
  925MOL0     C24763   0.190   9.873   5.674 -0.0298  0.0016  0.3468
  925MOL0     O24764   0.075   9.947   5.628 -0.0953  0.1759  0.2762
  925MOL0     C24765  -0.050   9.910   5.660  0.2566  0.0940 -0.1767
  925MOL0     C24766  -0.136   9.862   5.562 -0.5836 -0.7271 -0.5875
  925MOL0     C24767  -0.268   9.848   5.596 -0.1512  0.3841  1.2464
  925MOL0     C24768  -0.319   9.861   5.728 -0.0177  0.1317 -0.2133
  925MOL0     C24769  -0.457   9.825   5.762  0.0432  0.0004 -0.6928
  925MOL0     O24770  -0.500   9.830   5.893 -0.0103  0.6512  0.5884
  925MOL0     C24771  -0.627   9.798   5.925  0.1978 -0.7202  0.1621
  925MOL0     C24772  -0.729   9.897   5.918 -0.5798 -0.5653 -0.1946
  925MOL0     C24773  -0.857   9.875   5.971  0.3408  0.1700 -0.8388
  925MOL0     C24774  -0.894   9.746   6.004 -0.3641  0.8671  0.6314
  925MOL0     O24775  -1.015   9.698   6.048  0.5454 -0.2868  0.2433
  925MOL0     C24776  -1.122   9.789   6.071  0.6400 -0.7291  0.3018
  925MOL0     C24777  -1.229   9.712   6.141  0.4305 -0.3650 -0.1273
  925MOL0     C24778  -1.317   9.790   6.242 -0.1872 -0.0322 -0.0820
  925MOL0     C24779  -1.248   9.808   6.374  0.2063  0.3087  0.4116
  925MOL0     C24780  -1.317   9.912   6.474  0.8824 -0.2788  0.2310
  925MOL0     C24781  -1.311  10.068   6.432  0.3544  0.0595  0.0852
  925MOL0     C24782  -1.165  10.117   6.430  0.6628 -0.3633  0.0307
  925MOL0     C24783  -1.141  10.272   6.463 -0.1644  0.4665  0.2149
  925MOL0    Cl24784  -1.122  10.277   6.639  0.3305  0.3046  0.5776
  925MOL0     C24785  -0.800   9.651   6.021 -0.9820  0.4951 -0.1709
  925MOL0     C24786  -0.667   9.680   5.981  0.0141  0.2874  0.0307
  925MOL0     O24787  -0.523   9.779   5.669  0.2514 -0.5626 -0.5306
  925MOL0     C24788  -0.228   9.889   5.824  0.2518  0.1304 -0.5868
  925MOL0     C24789  -0.102   9.924   5.788  0.0784 -0.5434  0.0074
  925MOL0     N24790   0.595   9.891   5.416 -0.2844  0.1597 -0.1366
  925MOL0     N24791   0.697   9.834   5.457  0.1976 -0.3434 -0.2769
  925MOL0     C24792   1.780   9.438   5.059 -0.0187 -0.1770 -0.2973
  925MOL0     C24793   1.902   9.432   4.995 -0.1641  0.4087 -0.9246
  925MOL0     C24794   2.264   9.348   4.805  0.0461  0.0806 -0.4738
  925MOL0     C24795   2.254   9.444   4.700 -0.1141 -0.0198  0.1098
  925MOL0     C24796   2.361   9.486   4.635  0.6271 -0.2912 -0.2498
  925MOL0     C24797   2.487   9.427   4.656  0.3978 -1.3873  0.6088
  925MOL0     O24798   2.605   9.456   4.598  0.6639  0.3128 -0.0365
  925MOL0     C24799   2.591   9.523   4.472  0.5772  0.1544 -0.5305
  925MOL0     C24800   2.729   9.524   4.401  0.1990 -0.1355 -0.5448
  925MOL0     C24801   2.821   9.613   4.485 -0.8294 -0.0182 -0.5109
  925MOL0     C24802   2.974   9.574   4.461  0.2132 -0.3092  0.4963
  925MOL0     C24803   3.053   9.685   4.527  1.0171  0.0053  0.3889
  925MOL0     C24804   3.115   9.777   4.575  0.2098  0.3950 -0.2144
  925MOL0     C24805   2.501   9.325   4.743 -0.1200  0.0436 -0.2321
  925MOL0     C24806   2.387   9.281   4.822  0.3532 -0.4596  0.1670
  925MOL0     C24807   2.411   9.176   4.929 -1.0488  0.4978  0.8594
  925MOL0     H24808   1.790   9.243   4.733 -0.5485 -0.0385  0.2978
  925MOL0     H24809   1.584   9.278   4.838 -1.6331  2.6561 -0.4251
  925MOL0     H24810   1.584   9.503   5.233  1.2574  0.3058 -0.4238
  925MOL0     H24811   1.499   9.588   5.100 -0.8166  1.0253  1.2581
  925MOL0     H24812   1.347   9.375   5.254 -0.2495  0.2450 -0.3468
  925MOL0     H24813   1.285   9.483   5.145  0.3326 -1.7462 -1.0873
  925MOL0     H24814   1.417   9.654   5.322 -0.3554  0.8912 -0.3236
  925MOL0     H24815   1.348   9.514   5.428 -2.9151 -0.6399 -0.7824
  925MOL0     H24816   1.204   9.703   5.250  3.8493  0.5416 -0.8082
  925MOL0     H24817   1.121   9.574   5.338 -1.6324  1.9104  0.8308
  925MOL0     H24818   1.232   9.674   5.555 -0.8871  0.7794  1.0672
  925MOL0     H24819   1.229   9.815   5.458 -0.5375  0.4905 -2.5029
  925MOL0     H24820   0.998   9.789   5.398 -2.0953 -0.4152  0.8918
  925MOL0     H24821   0.987   9.641   5.509 -0.1050  0.2079 -0.4954
  925MOL0     H24822   1.019   9.941   5.556 -1.8104 -0.4869 -1.1385
  925MOL0     H24823   1.069   9.829   5.679  0.0224  2.0586  0.6971
  925MOL0     H24824   0.813   9.728   5.655 -0.1971  0.1573  0.5135
  925MOL0     H24825   0.848   9.873   5.744  0.7640 -0.2211 -0.0583
  925MOL0     H24826   0.667  10.049   5.694 -3.0255 -1.5555  0.8443
  925MOL0     H24827   0.493  10.171   5.588 -1.2715 -1.0071  2.3063
  925MOL0     H24828   0.449  10.146   5.417 -0.9052  1.2023  1.0185
  925MOL0     H24829   0.245  10.090   5.541  0.1171  1.3550 -2.3511
  925MOL0     H24830   0.328   9.956   5.461  0.1630  1.2602 -1.0080
  925MOL0     H24831   0.335  10.000   5.773  1.4867  1.1120 -1.5053
  925MOL0     H24832   0.399   9.868   5.688 -0.6599 -0.6820  1.0088
  925MOL0     H24833   0.179   9.824   5.771  0.8123  1.4500  1.2114
  925MOL0     H24834   0.199   9.801   5.592 -1.4449  1.0771 -0.8211
  925MOL0     H24835  -0.090   9.860   5.463  2.8977  0.2567  0.8732
  925MOL0     H24836  -0.329   9.807   5.517  0.3711 -0.4858  1.2682
  925MOL0     H24837  -0.709  10.000   5.891 -1.5846 -0.5696 -1.0310
  925MOL0     H24838  -0.928   9.957   5.982  0.0222 -0.3399  1.5172
  925MOL0     H24839  -1.082   9.870   6.134 -0.6650 -0.6357  1.0491
  925MOL0     H24840  -1.164   9.829   5.978 -0.9991 -2.2304  0.3457
  925MOL0     H24841  -1.296   9.671   6.065  0.5309  1.3036 -1.1643
  925MOL0     H24842  -1.179   9.628   6.191  1.5023  1.1214  1.4426
  925MOL0     H24843  -1.352   9.884   6.200  1.8421  1.3486  1.1407
  925MOL0     H24844  -1.395   9.717   6.265  0.7558 -0.7159  1.0543
  925MOL0     H24845  -1.144   9.837   6.357 -0.5429  2.9459  0.0177
  925MOL0     H24846  -1.253   9.714   6.430 -0.1946 -0.8661 -1.4967
  925MOL0     H24847  -1.266   9.892   6.568 -0.3360 -2.9862  0.4064
  925MOL0     H24848  -1.420   9.876   6.477  1.2725 -1.5431 -0.4006
  925MOL0     H24849  -1.347  10.086   6.331 -1.9669 -0.8741  0.6930
  925MOL0     H24850  -1.366  10.132   6.501 -0.4368 -0.4456 -0.0705
  925MOL0     H24851  -1.126  10.094   6.331  1.6681  0.9577  0.0832
  925MOL0     H24852  -1.099  10.064   6.499  3.3162 -0.3269 -2.3320
  925MOL0     H24853  -1.043  10.304   6.425 -0.5109  1.6203  0.2471
  925MOL0     H24854  -1.222  10.330   6.417 -0.2087  0.7836  0.6841
  925MOL0     H24855  -0.826   9.556   6.066 -0.6581 -0.4276 -1.8326
  925MOL0     H24856  -0.599   9.597   5.998 -3.3540 -2.9565 -1.0093
  925MOL0     H24857  -0.256   9.900   5.928  3.7642 -0.4003  0.5399
  925MOL0     H24858  -0.042   9.960   5.871  0.4928  3.3289 -1.7286
  925MOL0     H24859   1.768   9.492   5.153  1.8675 -0.3660  0.0902
  925MOL0     H24860   1.993   9.471   5.039 -0.3386  0.3931 -0.5471
  925MOL0     H24861   2.158   9.489   4.675  0.5888  1.2246 -0.4822
  925MOL0     H24862   2.337   9.561   4.559 -2.5161 -1.3062 -0.3789
  925MOL0     H24863   2.559   9.626   4.490  2.7343  0.9205 -0.8494
  925MOL0     H24864   2.514   9.470   4.414  0.4733 -1.2400  0.8326
  925MOL0     H24865   2.722   9.563   4.299 -1.4859  0.9754 -0.0392
  925MOL0     H24866   2.764   9.421   4.393  1.3910  0.2804 -0.8448
  925MOL0     H24867   2.799   9.601   4.592  1.1492 -0.8345 -0.1344
  925MOL0     H24868   2.790   9.714   4.459 -2.4055 -0.9560 -2.4987
  925MOL0     H24869   3.004   9.478   4.502  0.3820 -0.5507 -0.1834
  925MOL0     H24870   2.997   9.578   4.354  0.9723  1.9926  0.6913
  925MOL0     H24871   3.172   9.852   4.626  0.7470 -1.0012  1.3265
  925MOL0     H24872   2.601   9.282   4.750  0.1803  0.8463  0.5293
  925MOL0     H24873   2.502   9.118   4.910 -1.9395 -0.9191  0.7997
  925MOL0     H24874   2.425   9.220   5.028  0.2682 -1.0373  1.3855
  925MOL0     H24875   2.331   9.102   4.923 -0.8451  0.3178  0.2147
  926MOL0     O24876  10.286   4.775   5.444  0.1983  0.2367  1.2166
  926MOL0     C24877  10.227   4.783   5.342 -0.3065 -0.0640 -0.2502
  926MOL0     O24878  10.288   4.792   5.221 -0.4712  0.5716 -0.0630
  926MOL0     C24879  10.429   4.787   5.218 -0.2691  0.3181 -0.3512
  926MOL0     C24880  10.513   4.900   5.204 -0.4867  0.2066  0.3482
  926MOL0     C24881  10.654   4.887   5.210  0.8174  0.3401  0.2807
  926MOL0     C24882  10.717   4.764   5.215  0.7169 -0.8509 -0.0757
  926MOL0     O24883  10.851   4.752   5.210 -0.2259  0.1872 -0.3073
  926MOL0     C24884  10.941   4.857   5.182 -0.9174 -0.4383 -0.2951
  926MOL0     C24885  11.080   4.818   5.230  0.2371 -0.4952  0.4626
  926MOL0     C24886  11.183   4.928   5.205 -1.0918 -0.0095  0.0269
  926MOL0     C24887  11.220   4.941   5.051 -0.4958 -0.4301 -0.2002
  926MOL0     C24888  11.308   5.063   5.035  0.5134  0.1669  0.6390
  926MOL0     C24889  11.321   5.094   4.886 -0.5203  0.5311 -0.5319
  926MOL0     C24890  11.451   5.167   4.852  0.0558  0.8630 -0.1725
  926MOL0     C24891  11.566   5.071   4.814 -1.2064 -0.2321 -0.4144
  926MOL0     N24892  11.697   5.137   4.813 -0.0732 -0.0123  0.5540
  926MOL0     C24893  11.773   5.155   4.700 -0.3170  0.3272  0.3699
  926MOL0     C24894  11.887   5.208   4.748 -0.3363  0.1414  0.8044
  926MOL0     C24895  12.005   5.255   4.670  1.1206 -0.7527  0.0306
  926MOL0     C24896  12.005   5.404   4.678 -0.2710  0.0557  0.9345
  926MOL0     C24897  12.114   5.462   4.593  0.4294 -0.4506 -0.3304
  926MOL0     C24898  12.129   5.616   4.626  0.9843  0.9917 -0.3061
  926MOL0     O24899  12.195   5.642   4.753 -0.3489  0.4916  0.1378
  926MOL0     C24900  12.329   5.658   4.762 -0.1066 -0.3895  0.6593
  926MOL0     C24901  12.418   5.640   4.650  0.2910  0.6427 -0.1754
  926MOL0     C24902  12.559   5.639   4.678  0.2271 -0.3701  0.6282
  926MOL0     C24903  12.619   5.655   4.807 -0.3554  1.1141 -0.8489
  926MOL0     C24904  12.761   5.649   4.845  0.8253 -0.3665 -0.1313
  926MOL0     O24905  12.797   5.698   4.964 -0.0719 -0.8374 -0.3900
  926MOL0     C24906  12.926   5.685   5.019  0.0802  0.1385  0.3090
  926MOL0     C24907  13.045   5.650   4.953 -0.2321 -0.4106 -0.2581
  926MOL0     C24908  13.166   5.634   5.025 -0.2186 -0.3028  0.4776
  926MOL0     C24909  13.172   5.632   5.155 -0.3724  0.0039  0.3108
  926MOL0     O24910  13.283   5.585   5.227 -0.8738 -0.6270 -0.2045
  926MOL0     C24911  13.418   5.576   5.168 -0.3103 -0.8238  0.0007
  926MOL0     C24912  13.520   5.591   5.285  0.8310 -0.6175  0.4655
  926MOL0     C24913  13.651   5.519   5.250 -0.1696 -1.0203 -0.1782
  926MOL0     C24914  13.763   5.550   5.352 -0.9473 -0.1230  0.1219
  926MOL0     C24915  13.871   5.643   5.314 -0.3170  0.2016 -0.2807
  926MOL0     C24916  13.958   5.678   5.444  0.2697 -0.0947  0.7449
  926MOL0     C24917  14.068   5.776   5.405  0.2673  0.2203  0.1194
  926MOL0     C24918  14.170   5.724   5.310 -0.6024  0.3734  0.2242
  926MOL0    Cl24919  14.244   5.572   5.360  0.0307 -0.0957 -0.0221
  926MOL0     C24920  13.059   5.669   5.225 -0.2908  0.5910 -0.1425
  926MOL0     C24921  12.943   5.688   5.158  0.1472 -0.1340  0.8657
  926MOL0     O24922  12.839   5.605   4.765  0.1884 -0.2829  0.6573
  926MOL0     C24923  12.523   5.667   4.916  0.8529 -0.4757 -0.4239
  926MOL0     C24924  12.387   5.670   4.889  0.2529 -0.0647 -0.7847
  926MOL0     N24925  11.880   5.216   4.885  0.4610 -0.1849  0.0947
  926MOL0     N24926  11.766   5.184   4.925  0.7349  0.2503  0.5363
  926MOL0     C24927  10.627   4.650   5.217  0.6282 -0.6726  0.0197
  926MOL0     C24928  10.483   4.662   5.223 -0.2575  0.9706  0.5354
  926MOL0     C24929  10.086   4.829   5.344  0.3415 -0.3888 -0.2129
  926MOL0     C24930  10.021   4.860   5.230  0.2714  0.0085 -0.5344
  926MOL0     C24931   9.892   4.901   5.225  0.5904 -0.4070 -0.6577
  926MOL0     C24932   9.818   4.930   5.339  0.4722  0.1487  0.0015
  926MOL0     O24933   9.686   4.973   5.348  0.6035  0.3977  0.1395
  926MOL0     C24934   9.602   5.002   5.223 -0.4264  1.0427 -0.2166
  926MOL0     C24935   9.601   5.150   5.193  0.7500 -0.2258 -0.0399
  926MOL0     C24936   9.719   5.209   5.124 -0.1003 -0.5976  0.1944
  926MOL0     C24937   9.720   5.186   4.963 -0.8189 -0.2070 -0.8028
  926MOL0     C24938   9.857   5.210   4.909 -0.0542  0.2769  0.6892
  926MOL0     C24939   9.965   5.228   4.868  0.8942  0.1308  0.4423
  926MOL0     C24940   9.886   4.920   5.465  0.5401 -0.3146  0.1470
  926MOL0     C24941  10.016   4.863   5.469 -0.0941  0.6766  0.0112
  926MOL0     C24942  10.088   4.846   5.611 -0.0460 -0.3172  0.2718
  926MOL0     H24943  10.464   4.996   5.197 -0.4741  0.1414 -0.8225
  926MOL0     H24944  10.709   4.979   5.198  1.9515 -0.3181  0.3102
  926MOL0     H24945  10.947   4.878   5.074 -1.2814 -0.0227 -0.2374
  926MOL0     H24946  10.911   4.945   5.239 -1.5618  0.0715 -1.3885
  926MOL0     H24947  11.117   4.733   5.173  1.5917  1.1815 -1.2925
  926MOL0     H24948  11.083   4.799   5.338 -1.0973 -1.9909  0.2695
  926MOL0     H24949  11.278   4.906   5.256 -1.1923  0.7835  0.5879
  926MOL0     H24950  11.143   5.023   5.241  2.1253  1.9993 -1.1867
  926MOL0     H24951  11.280   4.854   5.023  1.3833  0.1832  1.6607
  926MOL0     H24952  11.126   4.949   4.996 -0.8752  0.9465  0.6170
  926MOL0     H24953  11.273   5.150   5.091 -2.2463 -0.7006  0.4241
  926MOL0     H24954  11.411   5.047   5.068  1.0284  2.1484  0.1244
  926MOL0     H24955  11.319   5.005   4.823  2.1893  0.9271 -1.3254
  926MOL0     H24956  11.239   5.162   4.861  1.3665  3.2825  0.1886
  926MOL0     H24957  11.486   5.230   4.934  1.2661  0.1581 -0.1138
  926MOL0     H24958  11.429   5.231   4.766 -1.1262  1.5558  0.6179
  926MOL0     H24959  11.578   4.984   4.880  2.8090 -0.5316 -1.3021
  926MOL0     H24960  11.534   5.030   4.717  0.6020 -1.9967 -0.3384
  926MOL0     H24961  11.748   5.145   4.595  1.9747 -0.4214 -0.1713
  926MOL0     H24962  12.098   5.206   4.702  1.3114  0.2021  1.0103
  926MOL0     H24963  11.992   5.230   4.564  1.5813  1.7474 -0.6922
  926MOL0     H24964  11.911   5.448   4.644  0.5593  1.8883  0.9293
  926MOL0     H24965  12.021   5.436   4.781  0.8277 -1.0942  1.1426
  926MOL0     H24966  12.099   5.449   4.485  1.0718  4.1309 -1.1831
  926MOL0     H24967  12.210   5.418   4.622  0.8076  0.5738  0.0212
  926MOL0     H24968  12.032   5.666   4.634 -0.9442 -2.6425  1.2939
  926MOL0     H24969  12.182   5.667   4.544 -1.0958  0.2284 -2.2459
  926MOL0     H24970  12.391   5.592   4.556 -1.0791 -2.0666  1.4758
  926MOL0     H24971  12.625   5.609   4.597  0.4762 -3.6189  1.8684
  926MOL0     H24972  13.050   5.645   4.845 -0.4904  1.1439 -0.3688
  926MOL0     H24973  13.254   5.609   4.967 -0.7102 -2.0771  0.4215
  926MOL0     H24974  13.419   5.480   5.116 -2.5647 -2.4753  2.6768
  926MOL0     H24975  13.432   5.660   5.099 -1.2317 -0.6074  0.0600
  926MOL0     H24976  13.540   5.697   5.303  0.0816 -0.2164 -0.9384
  926MOL0     H24977  13.473   5.551   5.375  1.8964  0.8942  1.7455
  926MOL0     H24978  13.631   5.411   5.253 -0.7070 -0.9439 -0.7721
  926MOL0     H24979  13.680   5.548   5.148 -5.2130 -0.8125 -1.8183
  926MOL0     H24980  13.810   5.454   5.376 -0.5204 -0.1351 -0.7278
  926MOL0     H24981  13.716   5.572   5.448  0.8158  1.4789  0.6801
  926MOL0     H24982  13.832   5.734   5.268 -0.0005  0.5919  0.2045
  926MOL0     H24983  13.936   5.600   5.237  3.9718  2.6213  1.6177
  926MOL0     H24984  13.896   5.730   5.518  1.1556  0.2926  1.2313
  926MOL0     H24985  13.998   5.586   5.489  0.2685 -0.9313 -0.9144
  926MOL0     H24986  14.132   5.798   5.491  0.4398  0.8812 -0.1747
  926MOL0     H24987  14.023   5.865   5.361  1.0096 -0.1925 -1.5628
  926MOL0     H24988  14.118   5.705   5.216 -2.1290 -0.0144  1.1087
  926MOL0     H24989  14.251   5.795   5.292 -0.3513  0.0508  0.0671
  926MOL0     H24990  13.076   5.679   5.332  0.5945 -0.3509 -0.1752
  926MOL0     H24991  12.854   5.720   5.212 -0.5726 -0.8554  0.1274
  926MOL0     H24992  12.561   5.666   5.017 -1.0140 -0.4148  0.3183
  926MOL0     H24993  12.326   5.653   4.978  3.4676  0.1180  1.6567
  926MOL0     H24994  10.671   4.553   5.236  1.1490 -0.3389  0.5487
  926MOL0     H24995  10.425   4.570   5.224  3.4537 -1.5819  0.8958
  926MOL0     H24996  10.069   4.832   5.137  3.2116 -0.9199  1.1573
  926MOL0     H24997   9.872   4.906   5.119  0.6871 -0.8848 -0.7015
  926MOL0     H24998   9.500   4.965   5.233 -1.1162  2.8570 -0.0496
  926MOL0     H24999   9.647   4.952   5.137  0.3575 -0.2978  0.9513
  926MOL0     H25000   9.588   5.204   5.287 -0.6536  0.8017 -0.7777
  926MOL0     H25001   9.503   5.164   5.145 -0.3701 -1.4102  1.7739
  926MOL0     H25002   9.811   5.164   5.162 -0.3703 -1.7953 -0.5201
  926MOL0     H25003   9.718   5.316   5.148 -0.5242 -0.5812  0.1064
  926MOL0     H25004   9.694   5.084   4.934 -0.5377 -0.8658  1.1587
  926MOL0     H25005   9.651   5.256   4.915 -0.0017  0.6655 -0.7366
  926MOL0     H25006  10.061   5.253   4.826  0.5327  1.5552  0.3933
  926MOL0     H25007   9.838   4.944   5.559 -1.9175 -0.9491 -0.8739
  926MOL0     H25008  10.003   4.852   5.679 -1.4810 -1.9309 -1.2950
  926MOL0     H25009  10.143   4.751   5.611  0.4187 -0.0568 -0.5639
  926MOL0     H25010  10.165   4.922   5.628  0.6831 -0.6619 -1.2406
  927MOL0     O25011   4.124  10.464   7.409 -0.2240  0.8171 -0.6797
  927MOL0     C25012   4.143  10.584   7.410  0.2885  0.0694 -0.2178
  927MOL0     O25013   4.257  10.648   7.442 -0.3496 -0.2178 -0.3564
  927MOL0     C25014   4.386  10.602   7.421  0.4093 -0.3011 -0.5742
  927MOL0     C25015   4.481  10.674   7.490  0.2261 -0.1099  1.6109
  927MOL0     C25016   4.618  10.652   7.477  0.2058  0.8830  0.7722
  927MOL0     C25017   4.656  10.542   7.405  0.3287 -0.8508  0.8903
  927MOL0     O25018   4.790  10.540   7.374 -0.0239  0.1530  0.2468
  927MOL0     C25019   4.846  10.408   7.343  0.0562 -0.7230  0.1526
  927MOL0     C25020   4.993  10.428   7.335 -0.2151  0.7868  0.5725
  927MOL0     C25021   5.057  10.496   7.462  0.0696 -0.5415  0.6603
  927MOL0     C25022   5.193  10.475   7.490 -1.5220  0.3320 -0.7401
  927MOL0     C25023   5.251  10.588   7.579 -0.7832  0.0686  0.0733
  927MOL0     C25024   5.395  10.551   7.621 -0.6678 -0.6641  0.4483
  927MOL0     C25025   5.457  10.673   7.694  0.2412 -0.8674 -0.0045
  927MOL0     C25026   5.613  10.668   7.712  0.5728 -0.0722  0.4056
  927MOL0     N25027   5.664  10.776   7.800  0.0986 -0.1838  0.0309
  927MOL0     C25028   5.798  10.788   7.811 -0.0321 -1.3587 -0.5136
  927MOL0     C25029   5.829  10.862   7.920 -0.5870 -0.0719  0.2684
  927MOL0     C25030   5.966  10.910   7.963 -0.0943  0.8226 -0.8325
  927MOL0     C25031   5.953  11.024   8.066  0.3216 -0.2574 -0.0258
  927MOL0     C25032   5.922  11.154   7.989  0.2864 -0.2009 -0.2478
  927MOL0     C25033   5.911  11.260   8.094  0.4335  0.0377  0.2011
  927MOL0     O25034   6.032  11.294   8.159  0.0052  0.6033  0.6092
  927MOL0     C25035   6.119  11.386   8.097  0.1637 -0.4048  0.1374
  927MOL0     C25036   6.218  11.435   8.173 -1.0573  0.2065 -0.9873
  927MOL0     C25037   6.308  11.533   8.135 -0.0168  0.2273 -0.1976
  927MOL0     C25038   6.305  11.576   8.002  0.1074 -0.3391 -0.3603
  927MOL0     C25039   6.397  11.686   7.956 -0.3044  0.1864  0.1002
  927MOL0     O25040   6.517  11.704   8.030 -0.5715  0.5188  0.4987
  927MOL0     C25041   6.619  11.778   7.977 -0.3295  0.1481 -0.9439
  927MOL0     C25042   6.694  11.725   7.872 -0.2589  0.4604  0.0300
  927MOL0     C25043   6.817  11.787   7.841  0.4404 -0.0334 -0.4173
  927MOL0     C25044   6.861  11.904   7.912 -0.5548 -0.3451  0.5155
  927MOL0     O25045   6.977  11.954   7.867  0.3470  0.1891 -0.1715
  927MOL0     C25046   7.083  11.990   7.962  1.0880 -0.1924 -0.1393
  927MOL0     C25047   7.219  11.954   7.904  0.4765  0.8653  0.3642
  927MOL0     C25048   7.333  11.955   8.001 -0.4464 -0.1478 -0.7566
  927MOL0     C25049   7.460  11.905   7.934 -0.6185  0.1964 -0.3790
  927MOL0     C25050   7.579  11.966   8.001  0.5693  0.1777  0.0936
  927MOL0     C25051   7.700  11.888   7.958  0.0606  0.2385  0.3243
  927MOL0     C25052   7.825  11.924   8.045 -0.3240  0.3727 -0.5184
  927MOL0     C25053   7.953  11.866   7.988 -0.3267  0.0575  0.2549
  927MOL0    Cl25054   8.043  11.982   7.877 -0.2083  0.2797  0.2465
  927MOL0     C25055   6.783  11.958   8.005  0.5728  0.0107  0.0714
  927MOL0     C25056   6.664  11.894   8.038 -1.1734  0.5103 -0.8352
  927MOL0     O25057   6.379  11.740   7.847  0.2170  0.0463  0.0931
  927MOL0     C25058   6.200  11.526   7.918 -0.6159 -0.0342  0.6464
  927MOL0     C25059   6.114  11.425   7.968  0.0032  0.5347 -0.8823
  927MOL0     N25060   5.712  10.875   7.985  0.4935  0.5819  0.3090
  927MOL0     N25061   5.613  10.827   7.914  1.2377 -0.0670 -0.4768
  927MOL0     C25062   4.560  10.460   7.335  0.4686 -0.6628 -0.0041
  927MOL0     C25063   4.419  10.491   7.346  0.4184 -0.3196 -0.5508
  927MOL0     C25064   4.024  10.668   7.376 -0.6438  0.9390 -0.0904
  927MOL0     C25065   3.895  10.609   7.397  0.0324  0.7923 -0.5009
  927MOL0     C25066   3.789  10.673   7.344 -0.6845  0.2723  0.4925
  927MOL0     C25067   3.792  10.804   7.298 -0.1787  0.1434 -0.3869
  927MOL0     O25068   3.685  10.873   7.244  0.2984  0.3764  0.3153
  927MOL0     C25069   3.556  10.830   7.281 -0.2806  0.1123  0.0655
  927MOL0     C25070   3.454  10.947   7.246  0.0278  1.5047 -0.0938
  927MOL0     C25071   3.438  10.969   7.084  0.1541 -0.2124  0.1931
  927MOL0     C25072   3.340  10.877   7.016 -0.2771  0.7840 -0.7048
  927MOL0     C25073   3.202  10.893   7.076  0.1728 -0.1644  0.1691
  927MOL0     C25074   3.098  10.905   7.123  0.1891  0.0763  0.7993
  927MOL0     C25075   3.917  10.869   7.290 -0.7129  0.2626 -0.6470
  927MOL0     C25076   4.031  10.805   7.335 -0.5960  0.7104 -0.3722
  927MOL0     C25077   4.145  10.893   7.329  0.7158  0.2568 -0.1226
  927MOL0     H25078   4.462  10.767   7.543  2.3768  0.4938  1.3985
  927MOL0     H25079   4.698  10.711   7.521 -0.7838  2.0862  1.0051
  927MOL0     H25080   4.814  10.338   7.421  0.3086  0.8631  1.7450
  927MOL0     H25081   4.815  10.376   7.243 -1.3987 -0.8318  0.6082
  927MOL0     H25082   5.010  10.495   7.250 -0.2156 -0.1385 -0.1680
  927MOL0     H25083   5.038  10.330   7.314 -1.8158 -0.1777  1.4525
  927MOL0     H25084   5.007  10.461   7.553  0.9420 -3.6907  0.0451
  927MOL0     H25085   5.049  10.604   7.447  1.5625 -0.6223 -0.9697
  927MOL0     H25086   5.209  10.373   7.528 -2.5215  0.2348 -0.5538
  927MOL0     H25087   5.259  10.470   7.403 -1.5313 -1.5236 -0.6846
  927MOL0     H25088   5.253  10.685   7.527  0.9189  1.3911  2.3989
  927MOL0     H25089   5.201  10.605   7.675  0.0699  1.9009  0.2491
  927MOL0     H25090   5.420  10.463   7.681  1.6477  0.5978  1.4514
  927MOL0     H25091   5.444  10.529   7.526  0.9879 -0.6274  1.2544
  927MOL0     H25092   5.407  10.672   7.791  0.7121  2.0696  0.3698
  927MOL0     H25093   5.439  10.768   7.642  0.0862 -0.1819  1.2603
  927MOL0     H25094   5.650  10.573   7.752  3.3038  0.8853  0.3782
  927MOL0     H25095   5.657  10.677   7.613 -0.8307 -2.4393 -0.5199
  927MOL0     H25096   5.869  10.753   7.737  1.0424 -0.2716 -0.0339
  927MOL0     H25097   6.002  10.825   8.022  1.1454  1.4609 -0.6119
  927MOL0     H25098   6.024  10.930   7.872 -0.8294  1.8723 -1.0955
  927MOL0     H25099   5.868  11.003   8.132  0.8626 -0.6914  0.5533
  927MOL0     H25100   6.043  11.026   8.129 -0.7325  0.2791  1.5324
  927MOL0     H25101   5.834  11.146   7.925  0.9328 -0.2323 -1.1529
  927MOL0     H25102   6.004  11.183   7.922  0.4050  0.6743  0.2487
  927MOL0     H25103   5.843  11.224   8.172 -0.3581 -0.3012 -0.6228
  927MOL0     H25104   5.868  11.351   8.050 -1.3688 -0.7645  0.1926
  927MOL0     H25105   6.220  11.400   8.275 -0.4138 -1.4696 -1.5515
  927MOL0     H25106   6.374  11.577   8.209  0.7846 -1.8678  0.4199
  927MOL0     H25107   6.653  11.634   7.830  1.6341 -0.2938 -0.2402
  927MOL0     H25108   6.887  11.756   7.764 -1.3310 -0.0860 -2.0892
  927MOL0     H25109   7.084  12.097   7.986  1.7636 -0.6164  1.9606
  927MOL0     H25110   7.067  11.937   8.056 -0.5845  2.3931  1.1424
  927MOL0     H25111   7.208  11.852   7.865 -3.9010  1.0386  0.6862
  927MOL0     H25112   7.240  12.030   7.828  1.4522  0.4243  0.1830
  927MOL0     H25113   7.339  12.058   8.038 -1.0309  0.0939 -1.3152
  927MOL0     H25114   7.314  11.884   8.082  1.9181 -0.0068 -0.0058
  927MOL0     H25115   7.447  11.934   7.829 -2.2902  0.0276 -0.2396
  927MOL0     H25116   7.464  11.795   7.931 -0.8135  0.0555  2.4946
  927MOL0     H25117   7.574  11.969   8.110 -1.0761 -2.1784  0.1509
  927MOL0     H25118   7.590  12.068   7.964  1.1426  0.5484  1.2346
  927MOL0     H25119   7.683  11.781   7.976  1.1126 -0.2591 -1.3998
  927MOL0     H25120   7.713  11.904   7.851 -1.4502  0.1256  0.0979
  927MOL0     H25121   7.811  11.885   8.147 -0.2646  0.4426 -0.4841
  927MOL0     H25122   7.839  12.032   8.054  0.8507  0.1924 -0.0388
  927MOL0     H25123   8.031  11.837   8.059  0.7423  0.4362 -0.7206
  927MOL0     H25124   7.944  11.768   7.940  3.7995 -0.7592  0.7416
  927MOL0     H25125   6.816  12.042   8.065  0.2877  1.8282 -2.1576
  927MOL0     H25126   6.614  11.928   8.128  0.0406  1.4786 -0.4948
  927MOL0     H25127   6.196  11.574   7.820  0.3305  0.3098  0.7664
  927MOL0     H25128   6.038  11.375   7.909  1.6750 -0.9333 -1.8893
  927MOL0     H25129   4.590  10.385   7.262 -3.1419 -1.8925 -0.4451
  927MOL0     H25130   4.347  10.432   7.290  1.0647 -2.5017  0.8012
  927MOL0     H25131   3.896  10.514   7.449 -0.9281  1.5903  1.0326
  927MOL0     H25132   3.694  10.621   7.337 -0.5350  0.0726 -0.0750
  927MOL0     H25133   3.564  10.803   7.387  2.2138 -0.8282 -0.2787
  927MOL0     H25134   3.525  10.740   7.227 -3.2171  0.1732  1.5025
  927MOL0     H25135   3.491  11.040   7.291  1.3727  1.5315 -1.2031
  927MOL0     H25136   3.361  10.921   7.298  0.0611 -0.8482 -1.0885
  927MOL0     H25137   3.537  10.960   7.039 -0.3050 -0.0085 -0.8792
  927MOL0     H25138   3.401  11.072   7.075  0.2514 -0.2122 -0.2278
  927MOL0     H25139   3.339  10.902   6.909 -0.5203  0.1668 -0.8470
  927MOL0     H25140   3.374  10.774   7.030  0.5161  1.4294  3.2110
  927MOL0     H25141   3.000  10.909   7.166 -0.1797  0.0753 -0.0183
  927MOL0     H25142   3.926  10.972   7.256 -0.1236  0.6146  0.5220
  927MOL0     H25143   4.141  11.001   7.308  1.6826 -0.0760 -2.2808
  927MOL0     H25144   4.199  10.887   7.424 -1.9991 -1.5272  1.4125
  927MOL0     H25145   4.214  10.845   7.259 -0.6982 -0.0947 -1.3221
  928MOL0     O25146   6.810   3.794   1.463 -0.2568  0.9358 -0.1185
  928MOL0     C25147   6.781   3.677   1.428  0.9626 -0.5477  0.4529
  928MOL0     O25148   6.864   3.588   1.378  0.0890  0.0755 -0.1939
  928MOL0     C25149   6.997   3.620   1.350 -0.2181 -0.2438 -0.4563
  928MOL0     C25150   7.040   3.671   1.223  0.6788  0.9411  0.1230
  928MOL0     C25151   7.174   3.703   1.206  0.2076 -0.2538  0.2337
  928MOL0     C25152   7.267   3.704   1.313  0.1515  0.2046  0.9254
  928MOL0     O25153   7.396   3.756   1.302  0.1177 -0.4058  0.1968
  928MOL0     C25154   7.446   3.780   1.175 -0.1431  0.0427  0.1149
  928MOL0     C25155   7.591   3.827   1.193 -0.5128 -0.2324  0.0585
  928MOL0     C25156   7.696   3.721   1.235 -1.0456 -0.6127  0.0780
  928MOL0     C25157   7.713   3.710   1.385  0.2764 -0.7225 -0.0792
  928MOL0     C25158   7.837   3.622   1.408  0.3412  0.7203 -1.3535
  928MOL0     C25159   7.891   3.646   1.545 -0.1221  0.1718  0.1436
  928MOL0     C25160   8.041   3.602   1.552  0.6969 -0.3954 -0.2181
  928MOL0     C25161   8.083   3.593   1.708 -0.0960 -0.1402  0.1459
  928MOL0     N25162   8.224   3.587   1.729 -0.8429 -0.4029  0.3374
  928MOL0     C25163   8.301   3.483   1.783 -0.6564 -0.1532  0.1834
  928MOL0     C25164   8.423   3.542   1.811  1.3106  0.1823 -0.2350
  928MOL0     C25165   8.536   3.483   1.892  0.6302  0.4320  0.1415
  928MOL0     C25166   8.556   3.339   1.867 -0.5455  1.0614  0.4678
  928MOL0     C25167   8.641   3.277   1.981  0.3957 -0.0855 -0.0805
  928MOL0     C25168   8.781   3.344   1.991  0.5851  0.9265  0.0465
  928MOL0     O25169   8.864   3.324   1.875 -0.7366 -0.0971 -0.5959
  928MOL0     C25170   8.999   3.353   1.886 -0.6008  0.1577 -0.3178
  928MOL0     C25171   9.081   3.317   1.783 -1.0328  1.1790 -0.0472
  928MOL0     C25172   9.226   3.329   1.776  0.9178 -0.6066  0.2763
  928MOL0     C25173   9.277   3.382   1.893 -0.4786  0.4207 -0.4400
  928MOL0     C25174   9.426   3.391   1.902 -0.0919  0.1016 -0.2091
  928MOL0     O25175   9.498   3.320   1.809 -0.6071 -0.0913  0.3962
  928MOL0     C25176   9.628   3.333   1.822  0.5038 -0.4458  0.4215
  928MOL0     C25177   9.691   3.281   1.937  0.1990  0.1445 -0.7881
  928MOL0     C25178   9.825   3.291   1.950 -0.1430 -0.5914 -0.4065
  928MOL0     C25179   9.911   3.347   1.855  0.2805  0.1230  0.0427
  928MOL0     O25180  10.046   3.347   1.887 -1.0169 -0.3449  0.2339
  928MOL0     C25181  10.145   3.359   1.794 -0.7825 -0.2499 -0.2675
  928MOL0     C25182  10.282   3.314   1.854 -0.4210  0.2651  0.5638
  928MOL0     C25183  10.401   3.370   1.772  0.0881  0.3040  0.5673
  928MOL0     C25184  10.529   3.290   1.792  0.2569  0.6041  0.1074
  928MOL0     C25185  10.625   3.294   1.679  0.0749  0.0529  0.4013
  928MOL0     C25186  10.768   3.273   1.721  0.1074 -0.1281 -0.1781
  928MOL0     C25187  10.854   3.246   1.598 -0.2594  0.2575  0.4355
  928MOL0     C25188  10.995   3.273   1.635  0.4289 -0.0169  0.0454
  928MOL0    Cl25189  11.041   3.445   1.639  0.2438  0.0630 -0.4397
  928MOL0     C25190   9.850   3.402   1.739  0.0333 -0.8237 -0.0569
  928MOL0     C25191   9.709   3.395   1.722  0.2687  0.6031 -0.1270
  928MOL0     O25192   9.469   3.463   1.991 -0.8042  0.1544  0.0571
  928MOL0     C25193   9.203   3.408   2.011  0.1237 -0.2032  0.0265
  928MOL0     C25194   9.058   3.395   2.010 -0.6551 -0.8276  0.2613
  928MOL0     N25195   8.419   3.668   1.753 -0.5188  0.0788 -0.5074
  928MOL0     N25196   8.308   3.693   1.708 -0.3652  0.5862  0.3363
  928MOL0     C25197   7.228   3.652   1.435  0.5801  0.0469 -0.4650
  928MOL0     C25198   7.095   3.620   1.460  0.4736  0.1575 -0.2762
  928MOL0     C25199   6.646   3.631   1.461  0.1912 -0.1359 -0.1606
  928MOL0     C25200   6.576   3.689   1.572 -1.1575  0.1041  0.7459
  928MOL0     C25201   6.446   3.654   1.610 -0.5627 -0.7480 -0.1921
  928MOL0     C25202   6.373   3.562   1.537 -0.7208  0.0126  0.2236
  928MOL0     O25203   6.245   3.517   1.591  0.8462  0.1688 -0.0385
  928MOL0     C25204   6.203   3.390   1.551 -0.1680  0.3610  1.2278
  928MOL0     C25205   6.066   3.345   1.597 -0.3060  0.4937  0.2943
  928MOL0     C25206   5.960   3.425   1.527  0.2590  0.3992  0.2416
  928MOL0     C25207   5.813   3.379   1.533 -0.5908 -0.0107 -0.6084
  928MOL0     C25208   5.747   3.407   1.660 -0.4643  0.4474  0.0212
  928MOL0     C25209   5.692   3.430   1.770  0.0588 -0.0763 -0.3191
  928MOL0     C25210   6.436   3.507   1.418 -0.0240 -0.0557  0.9821
  928MOL0     C25211   6.567   3.551   1.379  0.2387 -0.1369 -0.0988
  928MOL0     C25212   6.624   3.514   1.251  0.0310  0.8659  0.3924
  928MOL0     H25213   6.972   3.676   1.139  0.1484  1.3679  0.5645
  928MOL0     H25214   7.199   3.733   1.105  3.0078  0.8861  1.1761
  928MOL0     H25215   7.447   3.694   1.107  0.4416  0.2209 -0.1135
  928MOL0     H25216   7.398   3.864   1.124  0.5948  1.1378  1.1651
  928MOL0     H25217   7.601   3.914   1.258  0.6808 -0.6694  0.5001
  928MOL0     H25218   7.615   3.858   1.091 -2.0636 -0.4069 -0.3914
  928MOL0     H25219   7.788   3.765   1.197 -0.1214 -1.5563  1.1636
  928MOL0     H25220   7.674   3.624   1.189 -0.8338  0.0145 -1.3857
  928MOL0     H25221   7.722   3.815   1.416  1.0949 -1.0628  0.9117
  928MOL0     H25222   7.622   3.669   1.430 -1.3450 -0.2282 -2.7213
  928MOL0     H25223   7.804   3.517   1.408 -1.3541  1.1648  1.1006
  928MOL0     H25224   7.912   3.642   1.332  0.1789  0.5980 -1.5452
  928MOL0     H25225   7.881   3.752   1.566 -0.4635 -0.0798  1.3076
  928MOL0     H25226   7.820   3.595   1.610 -2.9125  0.7624 -2.2096
  928MOL0     H25227   8.101   3.684   1.511 -1.7296  0.3157 -2.6978
  928MOL0     H25228   8.062   3.511   1.495  1.0148  0.2024 -1.0778
  928MOL0     H25229   8.060   3.693   1.745 -0.2310  0.0823 -0.5399
  928MOL0     H25230   8.025   3.508   1.745 -0.3943 -0.1287 -0.3017
  928MOL0     H25231   8.262   3.385   1.808  0.5690 -0.5708  0.5272
  928MOL0     H25232   8.630   3.539   1.881 -1.0872  3.6455  0.5811
  928MOL0     H25233   8.514   3.501   1.998  1.7867 -0.2268  0.5210
  928MOL0     H25234   8.459   3.290   1.864 -0.1403  0.2234  0.8083
  928MOL0     H25235   8.591   3.324   1.764  1.8983 -1.9427  1.5774
  928MOL0     H25236   8.642   3.170   1.960 -1.2695  0.1845 -1.7788
  928MOL0     H25237   8.581   3.294   2.071 -1.7810  0.5444 -1.5490
  928MOL0     H25238   8.831   3.295   2.074 -0.7529  0.2678  0.4849
  928MOL0     H25239   8.770   3.450   2.018 -2.6851  0.7596 -0.2928
  928MOL0     H25240   9.037   3.287   1.688 -0.7561  0.1462  0.1464
  928MOL0     H25241   9.281   3.288   1.692  1.8139 -0.7800  0.9272
  928MOL0     H25242   9.644   3.221   2.014  0.3655 -1.8829 -2.2010
  928MOL0     H25243   9.888   3.249   2.029  0.9272  0.3807 -0.7089
  928MOL0     H25244  10.119   3.313   1.698 -0.1423  2.3661 -1.7908
  928MOL0     H25245  10.151   3.467   1.777  1.1708  0.4463  3.6888
  928MOL0     H25246  10.277   3.357   1.954 -0.7411  0.4645  0.4643
  928MOL0     H25247  10.293   3.205   1.851  1.2415  0.4316 -0.2390
  928MOL0     H25248  10.376   3.352   1.667  2.5680  2.4288 -0.5197
  928MOL0     H25249  10.412   3.479   1.779 -1.2396  0.3850  1.7033
  928MOL0     H25250  10.501   3.185   1.805  1.7277 -0.2083 -2.5285
  928MOL0     H25251  10.582   3.322   1.883 -2.3610  2.6868  1.0379
  928MOL0     H25252  10.620   3.390   1.625 -1.2583  0.9494  2.0263
  928MOL0     H25253  10.589   3.224   1.603 -0.3064  2.5362 -1.8603
  928MOL0     H25254  10.798   3.370   1.763 -2.3273 -0.2743  2.1484
  928MOL0     H25255  10.773   3.191   1.793 -2.2714 -1.8777 -1.8567
  928MOL0     H25256  10.834   3.311   1.513 -2.3529  2.5232  2.4926
  928MOL0     H25257  10.860   3.139   1.575  0.2113  0.9112 -3.0723
  928MOL0     H25258  11.019   3.231   1.733  0.8598 -0.1043 -0.0951
  928MOL0     H25259  11.064   3.229   1.562  0.7668  1.0045 -0.2588
  928MOL0     H25260   9.905   3.455   1.663  0.3395  1.1999  1.5106
  928MOL0     H25261   9.656   3.430   1.635  0.1213  1.1587  0.1859
  928MOL0     H25262   9.258   3.449   2.095  1.3102 -1.0218 -0.3268
  928MOL0     H25263   9.015   3.421   2.106 -1.3507 -0.4654 -0.1340
  928MOL0     H25264   7.295   3.668   1.519 -1.0132  0.8054  0.7044
  928MOL0     H25265   7.060   3.599   1.561  1.6229  0.1098  0.1196
  928MOL0     H25266   6.631   3.760   1.634 -0.1420 -0.3561  0.4046
  928MOL0     H25267   6.399   3.692   1.700 -3.1907 -3.2831 -0.3458
  928MOL0     H25268   6.291   3.335   1.585 -0.3244  1.4550  3.6796
  928MOL0     H25269   6.198   3.379   1.443  3.8745 -3.1406  1.1318
  928MOL0     H25270   6.053   3.349   1.705  2.6361 -0.7904  0.8049
  928MOL0     H25271   6.066   3.238   1.573 -1.3935  0.4878  0.2821
  928MOL0     H25272   5.986   3.424   1.420  0.0254 -1.0520  0.1726
  928MOL0     H25273   5.979   3.528   1.557  0.9695  0.3330  0.0393
  928MOL0     H25274   5.756   3.418   1.448 -0.6602  1.9881  0.3015
  928MOL0     H25275   5.822   3.271   1.517  2.3684 -0.0203  0.5505
  928MOL0     H25276   5.665   3.446   1.873  0.5812 -1.1048 -0.0076
  928MOL0     H25277   6.384   3.436   1.355  0.6999 -0.4379  0.8026
  928MOL0     H25278   6.702   3.441   1.272  0.4657  0.9248 -0.9753
  928MOL0     H25279   6.549   3.458   1.195 -0.3409 -1.4958  3.0153
  928MOL0     H25280   6.661   3.597   1.191  2.0565 -0.4443 -0.2779
  929MOL0     O25281   8.222   8.629   8.121 -0.7242  0.0391 -0.2067
  929MOL0     C25282   8.326   8.558   8.124  0.5043 -0.2877  0.0917
  929MOL0     O25283   8.324   8.422   8.133  0.6058  0.2010  0.4308
  929MOL0     C25284   8.219   8.345   8.081 -0.6167 -0.2884 -0.5712
  929MOL0     C25285   8.102   8.386   8.032  0.3124 -0.0894  0.2840
  929MOL0     C25286   8.010   8.285   7.991  0.2390 -1.7586 -0.0770
  929MOL0     C25287   8.033   8.150   8.002  0.1090  0.9118  0.5076
  929MOL0     O25288   7.959   8.045   7.948  1.0560  0.4602  0.0561
  929MOL0     C25289   7.825   8.075   7.907  0.0416  0.1886  0.0121
  929MOL0     C25290   7.767   7.955   7.845  0.5464 -0.1629 -0.0273
  929MOL0     C25291   7.764   7.844   7.951  0.1407 -0.1122  0.4733
  929MOL0     C25292   7.690   7.714   7.899 -0.0604  0.4881  0.2736
  929MOL0     C25293   7.661   7.630   8.024  0.3870 -0.5367 -0.5679
  929MOL0     C25294   7.564   7.512   7.999 -0.1357 -0.1595  0.3479
  929MOL0     C25295   7.622   7.413   7.903  0.2600 -0.0283  0.6850
  929MOL0     C25296   7.758   7.354   7.939  0.5758 -1.1052  0.4399
  929MOL0     N25297   7.805   7.240   7.850 -0.0435  0.3627 -0.0407
  929MOL0     C25298   7.848   7.247   7.715 -0.0934 -0.3042 -0.6244
  929MOL0     C25299   7.814   7.128   7.653  0.7918  0.3421  0.2240
  929MOL0     C25300   7.845   7.084   7.512 -0.2667  0.0910 -0.0360
  929MOL0     C25301   7.972   6.989   7.515  0.2004  0.3030 -0.5177
  929MOL0     C25302   8.028   6.955   7.376  0.8810 -0.6334 -0.6211
  929MOL0     C25303   8.092   7.069   7.298 -0.0461 -0.2874  0.0484
  929MOL0     O25304   8.178   7.144   7.389 -0.2769  0.0796  0.4018
  929MOL0     C25305   8.314   7.121   7.374  0.5872 -0.1566  0.3123
  929MOL0     C25306   8.390   7.177   7.276  0.0406  0.3189  0.3208
  929MOL0     C25307   8.530   7.172   7.277 -0.8436 -0.2550  0.6797
  929MOL0     C25308   8.605   7.106   7.377  0.4692  0.3667  0.1586
  929MOL0     C25309   8.747   7.102   7.369  0.5061  0.1482 -0.7138
  929MOL0     O25310   8.809   7.034   7.472  0.6302  0.0241 -0.5281
  929MOL0     C25311   8.945   7.049   7.484  0.1700 -0.0015  0.4780
  929MOL0     C25312   9.003   7.077   7.607 -0.4485  0.6718 -0.7280
  929MOL0     C25313   9.138   7.107   7.615 -0.1611 -0.0034  0.0024
  929MOL0     C25314   9.227   7.106   7.511 -0.8482  0.4358  0.2826
  929MOL0     O25315   9.359   7.135   7.538 -0.0827 -0.8408  0.3755
  929MOL0     C25316   9.463   7.100   7.437  0.5441 -0.0458  0.5330
  929MOL0     C25317   9.514   6.958   7.423  0.5425  0.2472 -0.2408
  929MOL0     C25318   9.630   6.948   7.327 -0.4123 -0.3103 -0.4555
  929MOL0     C25319   9.660   6.798   7.303  0.8118 -0.4277 -0.3427
  929MOL0     C25320   9.751   6.756   7.183 -0.0506  0.0784  0.2215
  929MOL0     C25321   9.881   6.843   7.187 -0.1111 -0.1194 -0.3850
  929MOL0     C25322   9.982   6.795   7.084  0.2839 -0.0532  0.4725
  929MOL0     C25323   9.913   6.764   6.950  1.4477 -0.7217 -0.1253
  929MOL0    Cl25324  10.041   6.718   6.831 -0.5389  0.0955  0.0296
  929MOL0     C25325   9.171   7.084   7.385  0.4414 -0.2990 -0.1902
  929MOL0     C25326   9.031   7.050   7.370  0.0636 -0.0362  0.1223
  929MOL0     O25327   8.800   7.171   7.282 -0.0742  0.2869 -0.4214
  929MOL0     C25328   8.525   7.039   7.475 -0.3666 -0.0414 -0.8695
  929MOL0     C25329   8.386   7.047   7.467 -0.1427 -0.6752 -0.6610
  929MOL0     N25330   7.746   7.053   7.742 -0.0378 -0.1079 -0.8212
  929MOL0     N25331   7.738   7.117   7.857  0.2795  0.0569 -0.2447
  929MOL0     C25332   8.157   8.109   8.050  0.3443  0.0256  0.0662
  929MOL0     C25333   8.251   8.206   8.091 -0.4237 -0.6895 -0.2039
  929MOL0     C25334   8.459   8.619   8.144 -0.1194  0.3678  0.3574
  929MOL0     C25335   8.551   8.546   8.224  1.0692  0.3241  0.2757
  929MOL0     C25336   8.685   8.595   8.249  0.6399  0.1990  0.2006
  929MOL0     C25337   8.722   8.721   8.192 -0.5703  1.0518  0.1534
  929MOL0     O25338   8.857   8.750   8.196  0.0094 -0.7446 -0.8083
  929MOL0     C25339   8.927   8.824   8.102  0.2412  0.6295  0.0612
  929MOL0     C25340   9.073   8.842   8.142  0.9505 -0.5198  0.5320
  929MOL0     C25341   9.106   8.953   8.238 -0.1754 -0.7108 -0.3277
  929MOL0     C25342   9.260   8.969   8.252 -0.6721  0.5846 -0.1762
  929MOL0     C25343   9.332   9.008   8.135  0.0691 -0.2792  0.2849
  929MOL0     C25344   9.393   9.055   8.040  0.1936  0.6747 -0.0196
  929MOL0     C25345   8.629   8.798   8.120 -0.2736  0.6766 -0.2543
  929MOL0     C25346   8.496   8.750   8.101 -0.3225 -0.5840 -0.1826
  929MOL0     C25347   8.401   8.832   8.022  0.8575  0.3837 -1.2128
  929MOL0     H25348   8.077   8.491   8.019  0.4301 -0.1960 -0.8824
  929MOL0     H25349   7.918   8.311   7.939  0.2393 -0.9221  0.3270
  929MOL0     H25350   7.770   8.095   8.000  2.8635 -1.5632  2.2395
  929MOL0     H25351   7.825   8.160   7.839 -0.2358 -0.6489 -1.0586
  929MOL0     H25352   7.819   7.933   7.752 -0.1214  1.4644 -0.8178
  929MOL0     H25353   7.662   7.977   7.824  0.2936 -0.3075  1.0066
  929MOL0     H25354   7.712   7.875   8.042  1.7099  1.6215  0.8389
  929MOL0     H25355   7.870   7.824   7.972  0.6285  0.6877 -1.0082
  929MOL0     H25356   7.598   7.736   7.844  1.4431  0.1883 -2.5745
  929MOL0     H25357   7.747   7.654   7.826  1.9816  2.3159  0.2708
  929MOL0     H25358   7.750   7.597   8.077  0.2958  1.9440  1.3555
  929MOL0     H25359   7.609   7.692   8.098  2.4706 -0.2299  0.6969
  929MOL0     H25360   7.538   7.473   8.098 -2.2539 -0.5978 -0.3406
  929MOL0     H25361   7.470   7.550   7.957 -0.2804  0.4506  1.2030
  929MOL0     H25362   7.628   7.470   7.810 -0.2847  1.4054  1.4920
  929MOL0     H25363   7.546   7.335   7.887 -1.7357  1.9462  0.0297
  929MOL0     H25364   7.832   7.434   7.944 -0.3042 -0.3063  1.0896
  929MOL0     H25365   7.753   7.310   8.039 -0.7553 -1.7023  0.1247
  929MOL0     H25366   7.890   7.334   7.666  3.0194 -1.4463 -0.1723
  929MOL0     H25367   7.755   7.039   7.467  0.8763 -0.0070 -2.3826
  929MOL0     H25368   7.854   7.171   7.446 -0.1801 -0.1399 -0.3332
  929MOL0     H25369   8.052   7.032   7.575  1.6596  0.1895 -2.2772
  929MOL0     H25370   7.940   6.891   7.552 -2.9138  0.8951 -1.3184
  929MOL0     H25371   7.947   6.906   7.322  0.2818 -1.2864  0.8093
  929MOL0     H25372   8.096   6.873   7.399 -0.0419 -1.4255 -0.6694
  929MOL0     H25373   8.013   7.129   7.251 -2.6830 -4.1980 -1.0628
  929MOL0     H25374   8.153   7.041   7.212  0.7575  0.2245  0.4444
  929MOL0     H25375   8.333   7.223   7.196 -2.5155 -2.6626  0.2527
  929MOL0     H25376   8.580   7.212   7.190 -0.5174 -0.6631  0.6768
  929MOL0     H25377   8.945   7.066   7.699  1.0230 -1.8914 -0.0026
  929MOL0     H25378   9.191   7.133   7.706  0.4927 -0.6125 -0.1935
  929MOL0     H25379   9.430   7.124   7.336 -0.8456 -1.4230  0.6175
  929MOL0     H25380   9.547   7.168   7.452  2.6092 -1.8850 -1.7608
  929MOL0     H25381   9.537   6.926   7.525 -2.7051  2.5665  1.4119
  929MOL0     H25382   9.429   6.905   7.378 -0.4792  3.0234 -1.8574
  929MOL0     H25383   9.605   6.998   7.233 -0.6965 -0.8706 -0.6792
  929MOL0     H25384   9.715   7.001   7.372 -0.1580 -1.4625  0.4621
  929MOL0     H25385   9.566   6.744   7.291 -1.5792  3.1681  0.4515
  929MOL0     H25386   9.704   6.750   7.391 -0.8306  0.0157  0.7710
  929MOL0     H25387   9.697   6.777   7.091  0.5423 -0.3459 -0.2335
  929MOL0     H25388   9.774   6.649   7.170 -3.6259 -0.6972 -0.6778
  929MOL0     H25389   9.853   6.948   7.172  1.7440  0.2958 -1.2379
  929MOL0     H25390   9.925   6.838   7.287  0.1012  0.2069 -0.4637
  929MOL0     H25391  10.030   6.699   7.107 -0.3938 -1.2521 -2.5086
  929MOL0     H25392  10.058   6.873   7.081  0.5669 -0.1754  2.8177
  929MOL0     H25393   9.837   6.686   6.965 -1.7770  1.7776 -2.0609
  929MOL0     H25394   9.860   6.853   6.915  1.9271 -0.2228  0.4072
  929MOL0     H25395   9.231   7.077   7.294  0.4504  2.3992 -0.4855
  929MOL0     H25396   8.996   7.015   7.274  2.4981 -1.1482 -0.4510
  929MOL0     H25397   8.578   6.988   7.555 -2.5366 -2.2497 -0.7144
  929MOL0     H25398   8.327   7.001   7.546  0.5352 -2.2957 -1.0722
  929MOL0     H25399   8.184   8.005   8.063  0.5604 -0.0053 -0.6039
  929MOL0     H25400   8.351   8.173   8.116  0.3165  2.0805  0.8437
  929MOL0     H25401   8.514   8.456   8.272  1.5072  0.2445  0.4635
  929MOL0     H25402   8.762   8.537   8.298 -0.0578 -0.1312  0.9204
  929MOL0     H25403   8.877   8.921   8.089  0.3013  0.3792 -2.6177
  929MOL0     H25404   8.928   8.766   8.010  2.0465  1.6347 -0.6130
  929MOL0     H25405   9.119   8.874   8.048 -0.6596  2.0200  0.5303
  929MOL0     H25406   9.115   8.745   8.173 -1.7389 -1.2308  2.2520
  929MOL0     H25407   9.067   8.934   8.339  3.7332  0.9007  1.6968
  929MOL0     H25408   9.071   9.051   8.206  1.1133  0.4141  1.4795
  929MOL0     H25409   9.260   9.059   8.314 -2.1422  0.2481  0.3684
  929MOL0     H25410   9.317   8.887   8.295 -0.8046  0.5174 -0.1276
  929MOL0     H25411   9.462   9.101   7.972  1.3811 -0.9178  0.0529
  929MOL0     H25412   8.657   8.901   8.103  1.7463  0.3016  0.5369
  929MOL0     H25413   8.333   8.772   7.961 -2.9912  2.3665  0.8081
  929MOL0     H25414   8.337   8.890   8.089  0.0182  1.0930 -2.5901
  929MOL0     H25415   8.462   8.904   7.966  3.6608  0.1176  1.2375
  930MOL0     O25416   1.297   6.647  10.928  1.0132  0.4927 -0.3588
  930MOL0     C25417   1.290   6.692  11.043 -0.4340 -0.3139 -0.8728
  930MOL0     O25418   1.395   6.710  11.135  0.4914  0.1101  0.2199
  930MOL0     C25419   1.522   6.687  11.088 -1.7919 -1.3075 -0.2264
  930MOL0     C25420   1.573   6.777  10.994  0.4687  0.2453 -0.3382
  930MOL0     C25421   1.701   6.763  10.939 -0.1920  0.5009 -0.3990
  930MOL0     C25422   1.783   6.656  10.981  0.1475  0.2605  0.2733
  930MOL0     O25423   1.907   6.646  10.922  0.1344 -0.4091 -0.3668
  930MOL0     C25424   1.977   6.522  10.916  0.3647  0.2729 -0.0266
  930MOL0     C25425   2.113   6.546  10.845 -0.7401 -0.0579  1.2411
  930MOL0     C25426   2.160   6.418  10.780  1.0241 -0.2163  0.3958
  930MOL0     C25427   2.303   6.435  10.717  0.3686 -1.1783  0.7414
  930MOL0     C25428   2.351   6.302  10.662 -0.4269  0.2184  0.8996
  930MOL0     C25429   2.434   6.312  10.540 -0.1873  0.2642 -0.1905
  930MOL0     C25430   2.562   6.395  10.574  0.1331  0.8668  0.2742
  930MOL0     C25431   2.644   6.410  10.440  0.1027  0.1600 -0.3074
  930MOL0     N25432   2.768   6.492  10.441  0.1614 -0.4482  0.8178
  930MOL0     C25433   2.773   6.631  10.453 -0.2697 -0.0129  0.3223
  930MOL0     C25434   2.906   6.650  10.477 -0.8514  0.4368  0.4222
  930MOL0     C25435   2.993   6.780  10.492  0.0197  0.1122  1.0062
  930MOL0     C25436   3.081   6.768  10.611 -0.4192  0.6417  0.4938
  930MOL0     C25437   3.104   6.918  10.663  0.4557  0.7109  0.5066
  930MOL0     C25438   3.201   6.933  10.783 -0.0307 -0.4090 -0.4267
  930MOL0     O25439   3.158   6.860  10.903  0.0284 -0.5886  0.8266
  930MOL0     C25440   3.041   6.900  10.969 -0.3189 -0.0703  0.3585
  930MOL0     C25441   2.979   7.021  10.953 -0.6156  0.1552  0.3122
  930MOL0     C25442   2.850   7.041  11.012 -0.3402  0.3946  0.0216
  930MOL0     C25443   2.799   6.950  11.097 -0.0855 -0.1398  0.3133
  930MOL0     C25444   2.661   6.964  11.151 -0.0320  0.0154  0.6370
  930MOL0     O25445   2.609   7.089  11.151 -0.5574  0.3442  0.1558
  930MOL0     C25446   2.483   7.115  11.199  0.4361  0.6770  0.1035
  930MOL0     C25447   2.449   7.247  11.179 -0.2287  0.8284  0.2489
  930MOL0     C25448   2.326   7.307  11.215 -0.1530  0.9478  0.2059
  930MOL0     C25449   2.237   7.232  11.297  0.6011 -0.6837 -0.2243
  930MOL0     O25450   2.120   7.285  11.328  0.7885 -0.1585 -0.5856
  930MOL0     C25451   2.071   7.266  11.464  0.3003 -0.1682 -0.0139
  930MOL0     C25452   2.159   7.326  11.579 -0.5100 -0.4627  0.2252
  930MOL0     C25453   2.173   7.474  11.557  0.1275  0.1454  0.1480
  930MOL0     C25454   2.054   7.545  11.620 -0.0145  0.4285 -0.7446
  930MOL0     C25455   2.043   7.537  11.766 -0.1597 -0.3264  0.4848
  930MOL0     C25456   1.963   7.642  11.830  0.3965  0.1103 -0.5243
  930MOL0     C25457   1.828   7.656  11.768 -0.4720 -0.4284 -0.1365
  930MOL0     C25458   1.739   7.763  11.826 -0.0695  0.1018  0.0806
  930MOL0    Cl25459   1.703   7.739  12.002  0.2323  0.1913 -0.0918
  930MOL0     C25460   2.273   7.099  11.322 -0.0817 -0.4274  0.1196
  930MOL0     C25461   2.397   7.039  11.283  0.3713  0.1312 -0.2990
  930MOL0     O25462   2.594   6.865  11.172 -0.2771  0.4028  0.8572
  930MOL0     C25463   2.866   6.828  11.123  0.0294  0.1340  0.3996
  930MOL0     C25464   2.985   6.802  11.053  0.1036 -0.1679  0.6037
  930MOL0     N25465   2.973   6.530  10.482 -0.3370  0.6066  0.7514
  930MOL0     N25466   2.892   6.436  10.440 -0.4804  0.1954 -0.0704
  930MOL0     C25467   1.733   6.563  11.079 -0.7362  0.0455 -0.1004
  930MOL0     C25468   1.599   6.585  11.131 -0.3995  0.7785 -0.1332
  930MOL0     C25469   1.160   6.716  11.112  0.3210  0.0530  0.5455
  930MOL0     C25470   1.141   6.717  11.253  1.0796  0.4192 -0.9397
  930MOL0     C25471   1.022   6.759  11.310 -0.0932  0.2013 -0.1572
  930MOL0     C25472   0.915   6.804  11.226 -0.2120 -0.3276  0.0381
  930MOL0     O25473   0.806   6.849  11.289  0.3529  0.1292 -0.2111
  930MOL0     C25474   0.702   6.906  11.209 -0.2799 -0.6112  0.4646
  930MOL0     C25475   0.607   6.990  11.290  0.5364 -0.1576 -0.6035
  930MOL0     C25476   0.505   6.899  11.361  0.6890 -0.5508 -0.4535
  930MOL0     C25477   0.566   6.818  11.481  0.3015  0.0097 -0.0713
  930MOL0     C25478   0.461   6.758  11.568  0.0558  0.4010 -0.3036
  930MOL0     C25479   0.372   6.719  11.639  0.3256  0.0307 -0.1928
  930MOL0     C25480   0.933   6.812  11.088 -1.0739 -0.0578  0.9202
  930MOL0     C25481   1.057   6.776  11.034 -0.3112 -0.0970  0.4339
  930MOL0     C25482   1.070   6.797  10.886  0.3959  0.1514 -0.3604
  930MOL0     H25483   1.502   6.850  10.958 -0.1791 -0.8099 -1.2577
  930MOL0     H25484   1.745   6.832  10.868  1.1153  1.4396  1.2348
  930MOL0     H25485   1.991   6.488  11.020  2.1636 -0.1986 -0.3759
  930MOL0     H25486   1.915   6.459  10.853  0.2595 -1.6752  1.8776
  930MOL0     H25487   2.199   6.573  10.906  0.2942 -2.3741  0.9209
  930MOL0     H25488   2.110   6.617  10.762 -0.3641  0.5121  1.7123
  930MOL0     H25489   2.086   6.385  10.708 -0.0275 -0.5504  1.5946
  930MOL0     H25490   2.160   6.347  10.863  2.5443  0.6781  1.2246
  930MOL0     H25491   2.291   6.506  10.635  0.2554 -2.2622 -0.2187
  930MOL0     H25492   2.372   6.481  10.788  0.0951  0.1345  0.1731
  930MOL0     H25493   2.415   6.262  10.741  1.2671 -1.2421 -1.1158
  930MOL0     H25494   2.267   6.235  10.642  0.9713 -1.8640  1.6461
  930MOL0     H25495   2.468   6.211  10.515 -0.5218  0.5260 -1.7983
  930MOL0     H25496   2.383   6.353  10.452  1.3942 -1.3208 -1.9409
  930MOL0     H25497   2.617   6.341  10.652  2.6872  1.2076 -1.1871
  930MOL0     H25498   2.543   6.499  10.604  0.4454  0.7480  0.9064
  930MOL0     H25499   2.675   6.313  10.403  1.2789  0.3519  0.1410
  930MOL0     H25500   2.578   6.455  10.365 -0.5567 -0.5471 -0.1563
  930MOL0     H25501   2.692   6.702  10.444  1.0843  1.2813 -2.8316
  930MOL0     H25502   3.056   6.784  10.403  0.4262 -2.1795  1.1173
  930MOL0     H25503   2.931   6.870  10.485 -2.3392 -1.4525  0.4099
  930MOL0     H25504   3.016   6.726  10.688  1.4421  0.1215  1.8327
  930MOL0     H25505   3.170   6.714  10.577 -1.4096  0.0954 -1.4242
  930MOL0     H25506   3.008   6.962  10.689  0.4548  1.3228 -0.4610
  930MOL0     H25507   3.152   6.976  10.583  1.7715 -0.2014  0.5919
  930MOL0     H25508   3.206   7.043  10.788 -3.3101 -0.0795 -1.6273
  930MOL0     H25509   3.301   6.903  10.752 -0.0479 -0.7787 -0.1241
  930MOL0     H25510   3.007   7.097  10.881 -0.7832  0.9227  1.0392
  930MOL0     H25511   2.799   7.134  10.988 -1.6918 -0.2710  0.2570
  930MOL0     H25512   2.510   7.321  11.129 -0.7428  1.8662  1.1260
  930MOL0     H25513   2.311   7.414  11.205  0.5038  1.0458  0.2181
  930MOL0     H25514   1.971   7.304  11.483  1.0900  0.9469  2.3460
  930MOL0     H25515   2.055   7.158  11.475  1.1524 -0.2281  0.8454
  930MOL0     H25516   2.111   7.297  11.673  0.2470 -2.4441  0.0329
  930MOL0     H25517   2.261   7.287  11.571 -0.2452  0.6427 -3.7714
  930MOL0     H25518   2.262   7.516  11.605  0.1840  0.6434 -0.3759
  930MOL0     H25519   2.170   7.499  11.451 -1.9570  0.4065  0.2197
  930MOL0     H25520   1.963   7.521  11.564 -1.0794  0.7201  0.7917
  930MOL0     H25521   2.061   7.652  11.600 -0.2966  0.5126 -0.3987
  930MOL0     H25522   2.145   7.538  11.806 -0.4360  1.0711  1.1898
  930MOL0     H25523   1.995   7.443  11.796 -0.5106 -0.9460 -1.7722
  930MOL0     H25524   1.966   7.623  11.937  2.2245  2.4460 -0.0835
  930MOL0     H25525   2.009   7.739  11.810 -1.6023  0.9000 -1.6202
  930MOL0     H25526   1.774   7.561  11.762 -0.5674 -0.4823  1.2437
  930MOL0     H25527   1.849   7.687  11.665  1.1496  0.2225  0.3546
  930MOL0     H25528   1.781   7.864  11.823 -0.0585  0.2407  2.5611
  930MOL0     H25529   1.642   7.762  11.775 -0.1706 -0.6999  0.2841
  930MOL0     H25530   2.211   7.031  11.379  0.4098 -1.2254 -0.2768
  930MOL0     H25531   2.430   6.947  11.330 -1.6621  1.0419  3.2210
  930MOL0     H25532   2.824   6.747  11.182 -1.8039  0.6341 -0.1457
  930MOL0     H25533   3.045   6.712  11.060  0.6202  0.1239  0.0439
  930MOL0     H25534   1.796   6.484  11.119 -3.5672 -3.1613 -1.4203
  930MOL0     H25535   1.555   6.514  11.200 -1.4548  1.3205 -0.2240
  930MOL0     H25536   1.227   6.700  11.317  0.5557  0.2126 -0.2804
  930MOL0     H25537   1.022   6.774  11.418  0.7850 -2.8244  0.3402
  930MOL0     H25538   0.645   6.827  11.159 -0.9931  0.3281 -0.2594
  930MOL0     H25539   0.741   6.965  11.125 -0.7456 -1.4635 -0.3730
  930MOL0     H25540   0.563   7.054  11.213 -0.9067  1.0945  1.1777
  930MOL0     H25541   0.664   7.057  11.355 -0.9877  0.1433  0.4568
  930MOL0     H25542   0.461   6.823  11.296 -2.2966 -1.9316  2.8601
  930MOL0     H25543   0.429   6.972  11.392  1.5229 -0.2506  0.9882
  930MOL0     H25544   0.630   6.736  11.447 -2.7405 -2.2914 -0.7839
  930MOL0     H25545   0.624   6.880  11.549 -1.1762  1.0776  0.2702
  930MOL0     H25546   0.286   6.705  11.701 -0.6101  1.8615 -0.9990
  930MOL0     H25547   0.849   6.838  11.025 -1.7153  2.0595  2.5111
  930MOL0     H25548   0.978   6.848  10.858  1.0049  2.0090  0.8245
  930MOL0     H25549   1.151   6.870  10.872 -0.0072  0.0609 -4.0317
  930MOL0     H25550   1.074   6.707  10.824  4.1484  0.8383 -1.3487
  931MOL0     O25551   3.817   3.719   3.979  0.3231  0.3781 -0.2130
  931MOL0     C25552   3.710   3.666   4.007 -0.7507 -0.1087 -0.7133
  931MOL0     O25553   3.691   3.586   4.117 -0.6573 -0.1423  0.7954
  931MOL0     C25554   3.807   3.537   4.176 -0.8209  0.6320 -0.5137
  931MOL0     C25555   3.829   3.563   4.309  0.1976  0.0672  0.1509
  931MOL0     C25556   3.938   3.511   4.376  0.2159  0.6216 -0.5613
  931MOL0     C25557   4.030   3.424   4.320 -0.2968  0.2912 -0.0217
  931MOL0     O25558   4.130   3.366   4.399 -0.0116  0.0265  0.3567
  931MOL0     C25559   4.228   3.295   4.336  0.3170  0.6138 -0.5415
  931MOL0     C25560   4.297   3.193   4.429  0.2101 -0.6170  0.2584
  931MOL0     C25561   4.416   3.125   4.366  0.8798 -0.7241 -0.1240
  931MOL0     C25562   4.490   3.049   4.481  0.6463  0.4353 -0.2322
  931MOL0     C25563   4.610   2.974   4.437 -0.4592  0.0211  1.0100
  931MOL0     C25564   4.593   2.823   4.414 -0.1985  0.0462 -0.4994
  931MOL0     C25565   4.731   2.753   4.393  0.7318  0.0033 -0.4885
  931MOL0     C25566   4.802   2.798   4.263 -0.6506  0.5451 -0.0541
  931MOL0     N25567   4.923   2.873   4.286 -0.6126  0.4074 -0.3288
  931MOL0     C25568   4.934   2.999   4.327  0.0493 -0.2368 -0.2181
  931MOL0     C25569   5.067   3.029   4.322 -0.5941 -0.3168 -0.3552
  931MOL0     C25570   5.130   3.165   4.329 -0.4001  0.4040 -0.0871
  931MOL0     C25571   5.282   3.168   4.362 -0.2615 -0.0926 -0.4877
  931MOL0     C25572   5.330   3.315   4.378 -0.0543  0.3803  0.4485
  931MOL0     C25573   5.479   3.319   4.411  0.8782  0.4566  0.7348
  931MOL0     O25574   5.569   3.240   4.329 -0.4566  0.2202 -0.4395
  931MOL0     C25575   5.700   3.280   4.335 -0.6840 -0.4543  0.6441
  931MOL0     C25576   5.754   3.383   4.403  0.6626  0.2807 -0.1183
  931MOL0     C25577   5.890   3.408   4.396  0.7198 -0.1678 -0.4835
  931MOL0     C25578   5.976   3.336   4.315  0.5188 -0.8009  0.2990
  931MOL0     C25579   6.121   3.373   4.312 -0.2092  0.3685  0.1509
  931MOL0     O25580   6.156   3.476   4.382  0.7644 -0.6825  0.4694
  931MOL0     C25581   6.294   3.486   4.398  0.7126  0.1296  0.8326
  931MOL0     C25582   6.350   3.435   4.508  0.4451  0.0186 -0.2764
  931MOL0     C25583   6.489   3.428   4.530 -0.0273  0.2998 -0.4210
  931MOL0     C25584   6.578   3.479   4.434 -0.0376 -0.2926 -0.3856
  931MOL0     O25585   6.709   3.477   4.472  0.0764 -0.2822  0.2096
  931MOL0     C25586   6.798   3.516   4.375 -0.4353  0.5367  0.9409
  931MOL0     C25587   6.941   3.527   4.422 -0.5137 -0.0029  0.6957
  931MOL0     C25588   6.997   3.394   4.468 -0.0850 -0.2153 -0.2789
  931MOL0     C25589   7.139   3.400   4.529 -0.4704 -0.1364 -0.0957
  931MOL0     C25590   7.193   3.263   4.574  0.5504  0.1721  0.0290
  931MOL0     C25591   7.347   3.266   4.593  0.4949  0.2907 -0.0753
  931MOL0     C25592   7.400   3.371   4.688  0.1046 -0.6318 -0.8949
  931MOL0     C25593   7.372   3.358   4.840  0.1609  0.3136  0.4678
  931MOL0    Cl25594   7.417   3.188   4.895 -0.7435  0.1332  0.1413
  931MOL0     C25595   6.518   3.536   4.313  0.0569  0.6405  0.1527
  931MOL0     C25596   6.374   3.540   4.301 -0.7973 -0.9063 -0.0158
  931MOL0     O25597   6.189   3.313   4.232  0.4714 -0.5602 -0.3890
  931MOL0     C25598   5.922   3.231   4.246  0.4817  0.6210  0.2531
  931MOL0     C25599   5.783   3.201   4.260 -0.7726  0.4724 -0.0924
  931MOL0     N25600   5.140   2.915   4.297  0.0744  0.0731 -1.0639
  931MOL0     N25601   5.050   2.818   4.267  0.2326 -0.4304 -0.0432
  931MOL0     C25602   4.008   3.409   4.181 -0.4088 -0.0052  0.2999
  931MOL0     C25603   3.901   3.461   4.112 -0.5370  0.3364 -0.0796
  931MOL0     C25604   3.579   3.713   3.950  0.3897 -0.5539  0.3008
  931MOL0     C25605   3.564   3.691   3.814 -0.4219  0.1839 -0.2612
  931MOL0     C25606   3.457   3.747   3.741 -0.0880  0.3691  0.0367
  931MOL0     C25607   3.355   3.820   3.815  0.4318 -0.5807  0.6830
  931MOL0     O25608   3.238   3.851   3.745  0.6491  0.6589  0.1020
  931MOL0     C25609   3.136   3.932   3.809  0.3194 -0.0316 -0.2309
  931MOL0     C25610   3.020   3.932   3.708  0.2545  0.1932 -0.4437
  931MOL0     C25611   3.068   3.979   3.563  0.4471  0.2973 -1.4387
  931MOL0     C25612   2.957   3.973   3.460 -0.4215 -0.2091  0.0994
  931MOL0     C25613   2.868   4.088   3.485 -0.4761 -0.2841 -0.4606
  931MOL0     C25614   2.795   4.175   3.508  0.4133  0.6194  0.1851
  931MOL0     C25615   3.381   3.853   3.951  0.2825  0.0707 -0.3343
  931MOL0     C25616   3.494   3.804   4.018 -0.8705 -0.4504 -0.1791
  931MOL0     C25617   3.520   3.832   4.168  0.7717  0.3152 -0.1372
  931MOL0     H25618   3.751   3.615   4.365 -1.1423 -1.6862 -0.0055
  931MOL0     H25619   3.954   3.523   4.482  0.4943 -2.5170 -0.1395
  931MOL0     H25620   4.180   3.229   4.263 -1.1194 -3.1807  3.3896
  931MOL0     H25621   4.301   3.366   4.297 -1.2386  1.7804 -1.4691
  931MOL0     H25622   4.214   3.123   4.444 -0.9805 -0.1515 -3.2166
  931MOL0     H25623   4.324   3.239   4.525  0.9368  0.7106 -0.5619
  931MOL0     H25624   4.483   3.200   4.324  2.1286 -1.7055  0.0309
  931MOL0     H25625   4.392   3.062   4.280 -2.9759  1.9387 -1.2237
  931MOL0     H25626   4.516   3.117   4.563  1.2086 -0.9176  0.7558
  931MOL0     H25627   4.418   2.977   4.522 -0.0625  1.6948  0.7962
  931MOL0     H25628   4.636   3.018   4.341 -0.4748 -0.5754  0.7301
  931MOL0     H25629   4.687   3.003   4.510 -1.3275 -0.2648  2.0756
  931MOL0     H25630   4.547   2.772   4.499  0.8791 -1.2489 -0.6557
  931MOL0     H25631   4.528   2.794   4.331 -1.1724  2.5370 -0.7036
  931MOL0     H25632   4.706   2.647   4.392 -2.1063  0.5725 -0.7087
  931MOL0     H25633   4.786   2.777   4.485 -0.2860  1.2514 -0.1669
  931MOL0     H25634   4.819   2.706   4.207 -2.3151 -0.6270  1.2505
  931MOL0     H25635   4.733   2.854   4.199  1.5977  3.5051 -0.0964
  931MOL0     H25636   4.850   3.064   4.351  0.2262  0.4055 -1.2794
  931MOL0     H25637   5.108   3.223   4.239 -1.1363  3.9298  2.1355
  931MOL0     H25638   5.084   3.213   4.416  0.6165 -0.9865  1.2702
  931MOL0     H25639   5.298   3.111   4.453  1.2795  2.2211  0.7855
  931MOL0     H25640   5.341   3.125   4.280  0.5972 -0.5022  0.3305
  931MOL0     H25641   5.270   3.366   4.454  0.8898 -0.1511  1.5789
  931MOL0     H25642   5.312   3.377   4.290  0.5686  0.2615  0.2353
  931MOL0     H25643   5.489   3.276   4.511  0.7969 -0.1655  0.4756
  931MOL0     H25644   5.508   3.424   4.399  1.0855  0.3503  0.2673
  931MOL0     H25645   5.695   3.453   4.460  2.0936  0.5045  1.1340
  931MOL0     H25646   5.936   3.485   4.457 -1.9443  1.2271 -0.0764
  931MOL0     H25647   6.290   3.387   4.585  0.5177 -2.6432 -1.7481
  931MOL0     H25648   6.541   3.386   4.616 -0.4302 -0.2411 -0.4317
  931MOL0     H25649   6.800   3.450   4.288  1.1900  3.0551 -1.0807
  931MOL0     H25650   6.777   3.617   4.337  0.8084  0.0819 -1.1344
  931MOL0     H25651   6.994   3.568   4.335 -2.7943  0.7901 -0.4140
  931MOL0     H25652   6.932   3.601   4.502  2.0489 -0.5963  1.6158
  931MOL0     H25653   6.934   3.349   4.545 -0.9897  1.3007 -0.1123
  931MOL0     H25654   7.008   3.330   4.379 -1.8140 -2.5951  1.0918
  931MOL0     H25655   7.135   3.465   4.616  1.9970 -0.9598  0.7181
  931MOL0     H25656   7.206   3.449   4.458  1.5058 -1.3386  0.8473
  931MOL0     H25657   7.170   3.184   4.501 -2.9831  2.4593 -1.6181
  931MOL0     H25658   7.149   3.233   4.670 -1.0249  2.5972  0.1631
  931MOL0     H25659   7.375   3.164   4.622 -1.0759  0.3534  1.8360
  931MOL0     H25660   7.385   3.293   4.494  0.4974  1.1715  0.1620
  931MOL0     H25661   7.368   3.467   4.646 -0.8156  0.5719  2.2711
  931MOL0     H25662   7.509   3.366   4.687  0.6254  2.7945  4.2968
  931MOL0     H25663   7.424   3.439   4.893 -0.5071  0.8896  0.2669
  931MOL0     H25664   7.268   3.382   4.865  1.1145  2.6608  2.5904
  931MOL0     H25665   6.572   3.594   4.239 -0.8119 -3.6256 -4.3176
  931MOL0     H25666   6.321   3.591   4.221  2.2515  0.4510 -1.3574
  931MOL0     H25667   5.982   3.162   4.188  1.0435 -1.8573  3.4861
  931MOL0     H25668   5.731   3.122   4.208 -0.0484  0.7914 -1.3404
  931MOL0     H25669   4.075   3.354   4.115 -2.7232 -2.0430 -0.4923
  931MOL0     H25670   3.898   3.432   4.007 -1.5221 -3.5260  0.8296
  931MOL0     H25671   3.637   3.637   3.753  1.1458  0.8767  0.9219
  931MOL0     H25672   3.455   3.726   3.635  1.2065 -0.9321  0.2358
  931MOL0     H25673   3.182   4.030   3.827 -0.1486  0.0408  0.6119
  931MOL0     H25674   3.095   3.898   3.904 -0.7857  1.5892 -0.0756
  931MOL0     H25675   2.942   3.999   3.745  2.2019  2.4478 -0.2172
  931MOL0     H25676   2.968   3.836   3.694  1.5902 -0.5150 -0.7594
  931MOL0     H25677   3.143   3.910   3.524  1.3783 -0.0980  0.8976
  931MOL0     H25678   3.110   4.079   3.577 -3.1140  2.0649 -2.2951
  931MOL0     H25679   3.004   3.967   3.361 -0.8968  0.0345 -0.1440
  931MOL0     H25680   2.902   3.880   3.476 -0.3567  0.0552  2.1557
  931MOL0     H25681   2.724   4.254   3.525  1.6987  1.4442  1.9963
  931MOL0     H25682   3.315   3.923   4.002 -0.1081  0.1518 -0.9507
  931MOL0     H25683   3.478   3.758   4.237  4.3318  0.1532  2.1101
  931MOL0     H25684   3.627   3.830   4.190  0.4045 -0.9988  1.7838
  931MOL0     H25685   3.472   3.927   4.197 -0.0850  0.2918 -1.4142
  932MOL0     O25686  11.264   0.322   9.814 -0.3772 -0.0602  0.1831
  932MOL0     C25687  11.191   0.401   9.749 -0.4169  0.1945 -0.4790
  932MOL0     O25688  11.199   0.434   9.617 -0.0174  0.4339  0.5932
  932MOL0     C25689  11.302   0.398   9.539  0.0930 -0.7792  0.7810
  932MOL0     C25690  11.325   0.480   9.423 -0.5368 -0.3573  0.3118
  932MOL0     C25691  11.402   0.426   9.313  0.2197  0.6307 -0.2536
  932MOL0     C25692  11.475   0.304   9.335  0.2141 -0.6051 -0.0768
  932MOL0     O25693  11.552   0.279   9.226  0.1737 -0.6146 -0.9777
  932MOL0     C25694  11.647   0.176   9.239  0.5542  0.3109 -1.0378
  932MOL0     C25695  11.687   0.153   9.096  0.8219  0.0166 -0.0652
  932MOL0     C25696  11.795   0.252   9.050  0.0678  0.0684  0.0973
  932MOL0     C25697  11.932   0.211   9.098  0.4247  0.6294 -0.1363
  932MOL0     C25698  12.041   0.309   9.054 -0.0043 -0.1753 -0.8934
  932MOL0     C25699  12.190   0.262   9.095 -0.3895  1.4245 -0.9301
  932MOL0     C25700  12.296   0.353   9.039 -0.7716 -0.1987  0.2886
  932MOL0     C25701  12.428   0.315   9.086  0.1654  0.0778  0.8130
  932MOL0     N25702  12.524   0.276   8.972 -0.1142  0.1979 -1.0318
  932MOL0     C25703  12.599   0.371   8.900  0.1090  1.1535 -0.0954
  932MOL0     C25704  12.618   0.309   8.777 -0.3716  1.0029 -0.2598
  932MOL0     C25705  12.707   0.363   8.671  0.3016 -0.6745 -0.3734
  932MOL0     C25706  12.863   0.379   8.698  0.4715 -0.2675 -0.7104
  932MOL0     C25707  12.944   0.460   8.592  0.3634  0.5463 -0.1302
  932MOL0     C25708  13.090   0.468   8.628  1.0389 -0.8979 -0.0037
  932MOL0     O25709  13.155   0.542   8.521  0.4253  0.2337 -0.4035
  932MOL0     C25710  13.292   0.569   8.539  0.6114  0.6532 -0.2961
  932MOL0     C25711  13.352   0.666   8.455  1.0906 -0.1193  0.4124
  932MOL0     C25712  13.485   0.712   8.473  0.2846 -0.0539 -0.6194
  932MOL0     C25713  13.556   0.653   8.582  0.0975 -0.5187 -1.1841
  932MOL0     C25714  13.690   0.708   8.608  0.0077  0.2970 -0.9097
  932MOL0     O25715  13.761   0.638   8.703  0.1539 -0.1123  0.2313
  932MOL0     C25716  13.900   0.644   8.695 -0.0470  0.9860 -0.3518
  932MOL0     C25717  13.979   0.759   8.710 -0.2372  0.1327  0.5304
  932MOL0     C25718  14.120   0.746   8.730 -0.1123  0.2536  0.5381
  932MOL0     C25719  14.178   0.618   8.728  0.6064 -0.3157 -0.9518
  932MOL0     O25720  14.314   0.619   8.732 -0.7801  0.1428 -0.5190
  932MOL0     C25721  14.380   0.495   8.770  0.2817 -0.2015 -0.1157
  932MOL0     C25722  14.497   0.525   8.854  0.0763 -0.4915 -0.0635
  932MOL0     C25723  14.632   0.585   8.791  0.7073  0.1107 -0.0740
  932MOL0     C25724  14.700   0.489   8.701  0.3784  0.0696 -0.3909
  932MOL0     C25725  14.828   0.544   8.652 -0.0801 -0.3202  0.7810
  932MOL0     C25726  14.905   0.447   8.559  0.0413 -0.1325  0.2335
  932MOL0     C25727  15.036   0.511   8.506 -0.7151 -0.2154  0.3614
  932MOL0     C25728  15.135   0.402   8.458  0.6870 -0.3960 -0.1791
  932MOL0    Cl25729  15.166   0.432   8.288  0.1058 -0.0973 -0.3498
  932MOL0     C25730  14.098   0.499   8.722 -0.3198 -0.0074  0.1854
  932MOL0     C25731  13.960   0.510   8.700  0.2667 -0.6744  0.3170
  932MOL0     O25732  13.746   0.783   8.524 -0.3910 -0.0570  0.1662
  932MOL0     C25733  13.504   0.552   8.660 -0.0189  0.2111  0.0393
  932MOL0     C25734  13.370   0.512   8.639 -0.3445  0.5972  0.3424
  932MOL0     N25735  12.559   0.180   8.783  0.2911 -0.1631 -0.2918
  932MOL0     N25736  12.499   0.169   8.894 -0.0663 -0.0058 -0.4776
  932MOL0     C25737  11.457   0.225   9.448 -0.0777  0.5256  0.4045
  932MOL0     C25738  11.370   0.274   9.545  0.0156  0.4345 -0.5125
  932MOL0     C25739  11.077   0.460   9.821  0.0918  0.6496  0.8258
  932MOL0     C25740  10.953   0.484   9.760  0.2210 -0.5782  0.0400
  932MOL0     C25741  10.835   0.529   9.827  0.3030  0.9108 -0.2024
  932MOL0     C25742  10.825   0.548   9.962 -0.2507  0.3139  0.8746
  932MOL0     O25743  10.711   0.563  10.036 -0.5798  1.2589  0.5320
  932MOL0     C25744  10.589   0.547   9.971 -0.0162  0.0525  0.2191
  932MOL0     C25745  10.479   0.543  10.078 -0.7817 -0.3858 -0.8917
  932MOL0     C25746  10.339   0.557  10.004 -0.0111 -0.5073  0.5515
  932MOL0     C25747  10.219   0.592  10.092  0.2249  0.0162  1.4929
  932MOL0     C25748  10.099   0.560  10.021 -0.1565  0.3873  0.0933
  932MOL0     C25749   9.988   0.530   9.986  1.0923  0.9781 -0.3924
  932MOL0     C25750  10.951   0.530  10.025  0.7692  0.1210 -0.3178
  932MOL0     C25751  11.069   0.494   9.962 -0.0635  0.3347  0.8084
  932MOL0     C25752  11.189   0.479  10.056  0.1654  0.7563 -0.7128
  932MOL0     H25753  11.268   0.571   9.408 -2.6461 -1.5710  0.4781
  932MOL0     H25754  11.415   0.476   9.218 -1.3623  0.0017 -0.8218
  932MOL0     H25755  11.728   0.203   9.307 -0.6414  0.0223  0.5384
  932MOL0     H25756  11.599   0.085   9.275  0.9003  0.5885  0.1742
  932MOL0     H25757  11.595   0.159   9.036  0.6258 -0.1374  0.2214
  932MOL0     H25758  11.726   0.052   9.079  1.8085  0.7995 -3.1785
  932MOL0     H25759  11.767   0.355   9.074  0.1051  0.3874 -1.1577
  932MOL0     H25760  11.788   0.246   8.941  0.3494  0.2210  0.0689
  932MOL0     H25761  11.934   0.204   9.207 -1.5691  3.9835  0.2555
  932MOL0     H25762  11.961   0.112   9.061 -0.4262  0.7205 -1.1007
  932MOL0     H25763  12.042   0.321   8.945  1.1652 -0.5925 -0.9430
  932MOL0     H25764  12.016   0.407   9.095  1.8161  0.8284 -2.0760
  932MOL0     H25765  12.209   0.264   9.202  0.9232  3.6010 -1.1333
  932MOL0     H25766  12.210   0.162   9.056  3.6123  1.2104  1.1844
  932MOL0     H25767  12.268   0.453   9.074  0.5211  1.0319 -1.9653
  932MOL0     H25768  12.290   0.352   8.930 -1.0059 -0.8135  0.3041
  932MOL0     H25769  12.472   0.395   9.146 -1.9015  1.7742  0.2014
  932MOL0     H25770  12.421   0.224   9.145 -0.0660  0.6627  1.6953
  932MOL0     H25771  12.628   0.473   8.922 -3.9017  2.0896  1.7816
  932MOL0     H25772  12.701   0.289   8.591  3.1365 -3.1442  1.4630
  932MOL0     H25773  12.668   0.458   8.632  0.4355 -0.8353 -0.9099
  932MOL0     H25774  12.883   0.436   8.789 -1.6141  2.9359 -2.0907
  932MOL0     H25775  12.886   0.272   8.702  0.4079 -0.3300 -1.9062
  932MOL0     H25776  12.915   0.563   8.571 -1.7226 -0.5612 -3.5308
  932MOL0     H25777  12.943   0.406   8.497 -0.2346 -0.5581  0.4766
  932MOL0     H25778  13.117   0.364   8.646  0.5543 -0.5212  3.5476
  932MOL0     H25779  13.093   0.526   8.721 -2.1768 -0.2604 -0.2002
  932MOL0     H25780  13.287   0.694   8.373 -0.1825 -2.5158  0.5347
  932MOL0     H25781  13.530   0.790   8.413  1.2390 -0.3612 -0.3358
  932MOL0     H25782  13.924   0.852   8.719 -0.1568  0.1221  1.2048
  932MOL0     H25783  14.176   0.837   8.746 -1.5741  1.2729  0.0418
  932MOL0     H25784  14.313   0.435   8.833  1.6523 -2.3828 -0.6261
  932MOL0     H25785  14.413   0.421   8.697 -0.2014  0.1366 -0.6819
  932MOL0     H25786  14.461   0.590   8.934  0.9968  2.0303 -1.5648
  932MOL0     H25787  14.534   0.439   8.911  0.7164  0.5362  1.1206
  932MOL0     H25788  14.610   0.676   8.735  2.5028 -0.9911 -2.8102
  932MOL0     H25789  14.702   0.604   8.873 -1.5707 -2.7189  2.7991
  932MOL0     H25790  14.644   0.447   8.617 -0.4727 -2.8430  1.4707
  932MOL0     H25791  14.718   0.399   8.762  0.6264  0.8768  0.7586
  932MOL0     H25792  14.892   0.585   8.731 -1.1655 -0.3544  1.7025
  932MOL0     H25793  14.800   0.633   8.595  0.3237 -0.0366  1.0195
  932MOL0     H25794  14.936   0.361   8.618  1.6702  1.2433  1.4949
  932MOL0     H25795  14.840   0.413   8.478  0.2453 -1.6959  0.6995
  932MOL0     H25796  15.087   0.566   8.586  2.9235 -2.9183  0.1932
  932MOL0     H25797  15.009   0.577   8.423  1.5192  1.2484  0.7114
  932MOL0     H25798  15.231   0.416   8.509 -0.8624  1.3225  2.4987
  932MOL0     H25799  15.104   0.300   8.482 -0.1063  0.0424  0.7006
  932MOL0     H25800  14.145   0.402   8.711  3.2939  1.6907 -0.8052
  932MOL0     H25801  13.900   0.420   8.701  2.3476 -2.0978  1.5069
  932MOL0     H25802  13.559   0.502   8.739  0.6582  2.5536  1.1442
  932MOL0     H25803  13.333   0.432   8.703 -1.0518 -1.4939 -2.5009
  932MOL0     H25804  11.507   0.130   9.462 -0.7361  0.2227  0.7492
  932MOL0     H25805  11.358   0.213   9.634  1.7334 -0.8211 -1.1022
  932MOL0     H25806  10.944   0.475   9.653  1.1680  1.7603 -0.3076
  932MOL0     H25807  10.746   0.548   9.767 -2.0094 -1.5157  2.2117
  932MOL0     H25808  10.580   0.452   9.918  0.9984 -0.9793  1.8038
  932MOL0     H25809  10.567   0.635   9.910  1.9155 -1.4513 -2.8635
  932MOL0     H25810  10.476   0.631  10.143 -0.4406 -0.8313 -0.2579
  932MOL0     H25811  10.472   0.450  10.135 -3.8917 -0.1315 -0.6752
  932MOL0     H25812  10.320   0.466   9.946 -1.2487 -0.7371  1.2921
  932MOL0     H25813  10.346   0.633   9.925 -2.2415 -2.5348 -1.7803
  932MOL0     H25814  10.222   0.529  10.181  3.3245 -1.7475  0.2804
  932MOL0     H25815  10.227   0.698  10.118  1.2717  0.2649  0.2881
  932MOL0     H25816   9.884   0.505   9.974  1.4643 -0.7139 -0.2380
  932MOL0     H25817  10.962   0.547  10.132 -0.6364 -0.9536  0.0322
  932MOL0     H25818  11.156   0.447  10.155  1.0535 -0.8500 -0.8940
  932MOL0     H25819  11.275   0.419  10.024  2.2687  1.3320  3.2755
  932MOL0     H25820  11.240   0.575  10.068 -0.2837  0.9763 -0.5790
  933MOL0     O25821   7.912   0.468   8.379 -0.1084 -0.0880 -0.8621
  933MOL0     C25822   7.840   0.510   8.466 -0.6221 -0.6347 -0.3926
  933MOL0     O25823   7.885   0.530   8.594  0.4307  0.6029 -0.0162
  933MOL0     C25824   8.015   0.525   8.631  0.6343 -0.2509 -0.3120
  933MOL0     C25825   8.098   0.417   8.611  0.2015 -0.1010 -0.4428
  933MOL0     C25826   8.233   0.415   8.651  1.0595 -0.0887 -0.1866
  933MOL0     C25827   8.283   0.520   8.717 -0.0762 -0.5797  0.0806
  933MOL0     O25828   8.406   0.499   8.768 -0.6180  0.1959  0.3656
  933MOL0     C25829   8.483   0.619   8.789 -1.6131 -0.1203 -0.1751
  933MOL0     C25830   8.590   0.639   8.674  1.0607 -0.4886  0.0525
  933MOL0     C25831   8.695   0.525   8.663 -0.5203  0.3546 -0.4853
  933MOL0     C25832   8.826   0.547   8.747 -0.8456 -0.5183  0.3273
  933MOL0     C25833   8.936   0.446   8.733 -0.1073  0.2492 -0.8397
  933MOL0     C25834   9.042   0.470   8.840 -0.7773 -0.3115 -0.2227
  933MOL0     C25835   9.159   0.374   8.809  0.8157  0.0723 -0.4468
  933MOL0     C25836   9.286   0.405   8.899  0.4540 -0.0614  0.0200
  933MOL0     N25837   9.382   0.291   8.900 -1.2209  0.3722 -0.0808
  933MOL0     C25838   9.365   0.152   8.932 -0.1414 -0.1266 -0.2362
  933MOL0     C25839   9.492   0.096   8.908 -0.0335  0.7662  0.6883
  933MOL0     C25840   9.532  -0.049   8.929 -0.0543  0.0229  0.1100
  933MOL0     C25841   9.670  -0.065   9.000 -0.1124  1.1787  0.7087
  933MOL0     C25842   9.666   0.000   9.143 -0.3427  0.2043 -0.3599
  933MOL0     C25843   9.805  -0.015   9.204 -0.8205  0.3786  0.3142
  933MOL0     O25844   9.900   0.078   9.152 -0.3432  0.0738 -0.0880
  933MOL0     C25845  10.027   0.035   9.132 -0.3530  0.0233 -0.3601
  933MOL0     C25846  10.105   0.106   9.043 -0.3486  0.2865  0.3618
  933MOL0     C25847  10.245   0.087   9.034 -0.1619  0.4436 -0.5187
  933MOL0     C25848  10.300  -0.020   9.106 -0.0400 -1.8257 -0.1659
  933MOL0     C25849  10.443  -0.051   9.091 -0.3864  0.0306 -0.3378
  933MOL0     O25850  10.474  -0.176   9.130  0.0153 -0.2163 -0.5970
  933MOL0     C25851  10.604  -0.214   9.111  0.1800  0.6295 -0.2833
  933MOL0     C25852  10.702  -0.225   9.211  0.0753 -0.0407 -0.1534
  933MOL0     C25853  10.835  -0.263   9.194  0.0693  0.5869 -0.2479
  933MOL0     C25854  10.867  -0.331   9.072 -0.1611 -0.5496 -0.4628
  933MOL0     O25855  10.990  -0.376   9.035 -0.2425  0.0201  0.1772
  933MOL0     C25856  11.105  -0.358   9.123  0.1893  0.4595 -0.4900
  933MOL0     C25857  11.111  -0.456   9.248  0.0357  0.0739  0.0449
  933MOL0     C25858  11.253  -0.488   9.294  0.0693 -0.4094 -0.0693
  933MOL0     C25859  11.249  -0.577   9.420 -0.3779  0.2222 -0.7584
  933MOL0     C25860  11.393  -0.597   9.460  0.0044  0.6343  0.6836
  933MOL0     C25861  11.470  -0.684   9.359 -0.2697 -0.5221 -0.1734
  933MOL0     C25862  11.605  -0.735   9.415 -0.3610  0.0379 -0.2449
  933MOL0     C25863  11.592  -0.867   9.478  0.6016  0.4171 -0.3642
  933MOL0    Cl25864  11.576  -0.995   9.355  0.1171  0.1569 -0.2280
  933MOL0     C25865  10.761  -0.328   8.976  0.1764  0.0813  0.2691
  933MOL0     C25866  10.625  -0.283   8.995 -0.4699 -0.3283  0.2104
  933MOL0     O25867  10.526   0.028   9.043 -0.4966 -0.7176  0.0156
  933MOL0     C25868  10.216  -0.091   9.193 -0.3134  1.0585 -0.5555
  933MOL0     C25869  10.084  -0.068   9.211  0.0446 -1.0229  0.8399
  933MOL0     N25870   9.575   0.202   8.858 -0.0257  0.6037 -0.2348
  933MOL0     N25871   9.508   0.307   8.850  0.3811  0.4101  1.0624
  933MOL0     C25872   8.198   0.628   8.746 -0.1049 -0.1689  0.1721
  933MOL0     C25873   8.064   0.637   8.697  0.3282  0.9169 -0.4453
  933MOL0     C25874   7.701   0.542   8.430  0.1908  0.1898 -0.5964
  933MOL0     C25875   7.633   0.478   8.323  0.5365  0.7584 -0.0488
  933MOL0     C25876   7.496   0.493   8.303 -0.0313 -0.4432  0.1352
  933MOL0     C25877   7.418   0.570   8.379 -0.2029 -0.3668 -1.0629
  933MOL0     O25878   7.284   0.584   8.356  0.8486  0.1325  0.8963
  933MOL0     C25879   7.193   0.651   8.434  0.4192 -0.1509  0.0202
  933MOL0     C25880   7.050   0.657   8.376  0.1994 -0.2043 -0.3752
  933MOL0     C25881   6.964   0.536   8.400 -0.2046 -0.4988  0.0439
  933MOL0     C25882   6.833   0.551   8.331 -0.1464  0.2460  0.1476
  933MOL0     C25883   6.731   0.445   8.362  1.1784  1.1545  0.4522
  933MOL0     C25884   6.634   0.367   8.380  0.2983  0.3556 -0.0082
  933MOL0     C25885   7.482   0.640   8.479  0.0746  0.1725 -0.4492
  933MOL0     C25886   7.620   0.633   8.518 -0.0578 -0.2266  0.3211
  933MOL0     C25887   7.674   0.725   8.622  0.1475  0.3087 -0.0985
  933MOL0     H25888   8.058   0.324   8.572  2.5151 -1.3393 -0.1005
  933MOL0     H25889   8.299   0.332   8.626 -0.2951 -1.8949  1.8522
  933MOL0     H25890   8.435   0.713   8.819  2.8678  1.1464  4.2000
  933MOL0     H25891   8.541   0.593   8.878 -1.3960  2.7672  0.6326
  933MOL0     H25892   8.633   0.738   8.691 -2.0506  1.0805 -0.4721
  933MOL0     H25893   8.541   0.662   8.579  1.6719 -0.5000 -0.2729
  933MOL0     H25894   8.728   0.508   8.560 -0.3614  1.6668 -0.6743
  933MOL0     H25895   8.651   0.430   8.693  1.3552 -0.7536 -1.0678
  933MOL0     H25896   8.868   0.645   8.720 -0.0368 -0.7598  0.6906
  933MOL0     H25897   8.791   0.556   8.850 -0.3010  0.5120  0.4403
  933MOL0     H25898   8.893   0.346   8.747  0.1861 -0.2059 -2.7902
  933MOL0     H25899   8.978   0.461   8.633  1.9062  1.3685  0.1271
  933MOL0     H25900   9.084   0.572   8.842  1.2156 -1.0901  1.6378
  933MOL0     H25901   9.001   0.450   8.939  1.0403 -1.8322  0.2781
  933MOL0     H25902   9.191   0.365   8.705  0.5978 -1.4646 -0.4103
  933MOL0     H25903   9.111   0.281   8.841 -0.6436  1.7568  2.7676
  933MOL0     H25904   9.319   0.506   8.874 -5.0369  2.1813  0.2914
  933MOL0     H25905   9.268   0.414   9.006  2.4734  1.2708  0.3163
  933MOL0     H25906   9.277   0.100   8.969  0.0184  0.1711  0.5756
  933MOL0     H25907   9.457  -0.101   8.990  1.4249 -2.6507 -0.1746
  933MOL0     H25908   9.535  -0.107   8.836  0.4479  0.6231 -0.2588
  933MOL0     H25909   9.690  -0.172   9.006 -1.1883  0.9413  0.3046
  933MOL0     H25910   9.746  -0.025   8.932  0.7247 -1.3421  0.0643
  933MOL0     H25911   9.596  -0.052   9.208 -0.6137  1.5196  0.4299
  933MOL0     H25912   9.645   0.106   9.126  2.0317  0.7476 -0.2705
  933MOL0     H25913   9.837  -0.119   9.196  1.5989  0.8728  2.3414
  933MOL0     H25914   9.794   0.007   9.310 -1.3384  0.9805  0.1445
  933MOL0     H25915  10.059   0.190   8.990 -0.3040  0.6055  0.8225
  933MOL0     H25916  10.302   0.152   8.969 -0.6729  3.3443  1.7489
  933MOL0     H25917  10.674  -0.186   9.308 -1.2169 -2.0958  0.3723
  933MOL0     H25918  10.892  -0.259   9.286 -3.2240 -2.8155  2.2913
  933MOL0     H25919  11.190  -0.386   9.059  0.2447 -1.1927  0.2391
  933MOL0     H25920  11.102  -0.255   9.159 -1.3585  0.5989 -0.9246
  933MOL0     H25921  11.055  -0.408   9.329 -0.2728  0.8725 -0.6205
  933MOL0     H25922  11.062  -0.551   9.228  0.7597 -0.5254  1.0489
  933MOL0     H25923  11.301  -0.543   9.212 -0.4624  1.3423 -1.6302
  933MOL0     H25924  11.309  -0.394   9.305  0.3038 -0.6740  1.0437
  933MOL0     H25925  11.200  -0.670   9.389  0.6932 -0.0903 -1.5843
  933MOL0     H25926  11.180  -0.527   9.488  0.4314  0.9775 -0.4772
  933MOL0     H25927  11.390  -0.639   9.561  0.2128  1.3524  1.0013
  933MOL0     H25928  11.449  -0.503   9.462  0.7740  0.1709  1.3560
  933MOL0     H25929  11.410  -0.774   9.342  0.3740 -1.5518  2.4551
  933MOL0     H25930  11.485  -0.634   9.263 -0.3497  0.3183  0.2462
  933MOL0     H25931  11.653  -0.663   9.481  2.1421 -0.1551 -1.7139
  933MOL0     H25932  11.671  -0.758   9.331  0.8666  2.0146  0.1236
  933MOL0     H25933  11.674  -0.883   9.550 -2.8835 -0.3037  3.9112
  933MOL0     H25934  11.505  -0.876   9.544  0.0695 -1.8542 -1.2778
  933MOL0     H25935  10.788  -0.372   8.881  3.9812 -0.1417  1.3092
  933MOL0     H25936  10.540  -0.295   8.929 -0.2882 -1.0055  0.0908
  933MOL0     H25937  10.256  -0.160   9.266  1.2438  3.4980  1.0733
  933MOL0     H25938  10.035  -0.123   9.291  2.3256 -2.6507  1.2158
  933MOL0     H25939   8.228   0.696   8.826 -0.4218 -1.1252  1.1407
  933MOL0     H25940   8.002   0.722   8.724 -0.4351 -0.0320  0.9045
  933MOL0     H25941   7.689   0.413   8.256  2.3796  1.4039  0.7820
  933MOL0     H25942   7.450   0.441   8.220 -0.4426 -0.3077  0.2801
  933MOL0     H25943   7.243   0.748   8.429  3.7755 -1.5597  2.0816
  933MOL0     H25944   7.198   0.637   8.543  2.2872  1.9965  0.2944
  933MOL0     H25945   7.055   0.674   8.268 -0.1827 -2.4119 -0.7873
  933MOL0     H25946   6.994   0.740   8.420  0.4556  0.1391 -0.6855
  933MOL0     H25947   6.949   0.543   8.508 -0.6805 -0.9760  0.0106
  933MOL0     H25948   7.011   0.445   8.361 -0.6409 -1.0235  0.7191
  933MOL0     H25949   6.790   0.650   8.345  2.1419  1.5648 -1.4141
  933MOL0     H25950   6.858   0.552   8.225 -1.3147  3.1800 -0.1991
  933MOL0     H25951   6.551   0.301   8.390 -1.5419  2.6088  0.2615
  933MOL0     H25952   7.429   0.708   8.545  1.3584  2.3320 -1.5611
  933MOL0     H25953   7.593   0.795   8.643 -2.3563 -2.1170 -1.0057
  933MOL0     H25954   7.698   0.671   8.714  1.7071  2.3041  0.7615
  933MOL0     H25955   7.759   0.782   8.582 -0.9955  3.2031  1.3624
  934MOL0     O25956   0.152   3.155   6.952 -0.3462 -0.5569 -0.6514
  934MOL0     C25957   0.077   3.245   6.925 -0.1988 -0.1510 -0.2142
  934MOL0     O25958   0.119   3.361   6.885  0.6415 -0.7296  1.0545
  934MOL0     C25959   0.259   3.385   6.884 -0.3314  0.2109 -0.2520
  934MOL0     C25960   0.327   3.403   7.004 -0.3404  0.2937  0.1600
  934MOL0     C25961   0.468   3.424   6.990  0.0352  0.2250 -0.1293
  934MOL0     C25962   0.538   3.419   6.868  0.2363  0.1594 -0.2384
  934MOL0     O25963   0.669   3.437   6.866  0.0523  0.4028 -0.0734
  934MOL0     C25964   0.744   3.426   6.987  0.5328 -0.4322 -0.0530
  934MOL0     C25965   0.896   3.383   6.946  0.8141  0.3405 -0.5577
  934MOL0     C25966   0.972   3.506   6.896 -0.9620 -0.0952 -0.3767
  934MOL0     C25967   1.116   3.485   6.852 -0.5918  0.1044  0.8259
  934MOL0     C25968   1.176   3.620   6.804 -0.0494  0.1895  0.2303
  934MOL0     C25969   1.316   3.597   6.739 -0.0644  0.2926 -0.1097
  934MOL0     C25970   1.374   3.736   6.708 -0.3132 -0.6767 -0.2045
  934MOL0     C25971   1.494   3.718   6.615  0.2246  0.3733  0.2245
  934MOL0     N25972   1.570   3.838   6.594 -0.2762 -0.6530  0.3299
  934MOL0     C25973   1.574   3.922   6.485  0.2286  0.6430  0.6427
  934MOL0     C25974   1.672   4.015   6.518  0.6412 -0.3080 -0.1457
  934MOL0     C25975   1.697   4.143   6.440 -0.4966  0.1832  0.0988
  934MOL0     C25976   1.754   4.110   6.299 -0.1189  0.0184  0.2713
  934MOL0     C25977   1.898   4.057   6.292  0.6857 -1.1497  0.5779
  934MOL0     C25978   2.001   4.142   6.361 -0.0353  0.0838  0.5652
  934MOL0     O25979   2.024   4.259   6.287 -0.8437 -0.3525  0.2114
  934MOL0     C25980   2.109   4.349   6.334 -0.6537 -0.4109  0.0605
  934MOL0     C25981   2.137   4.453   6.237 -0.0967 -0.7332  0.1464
  934MOL0     C25982   2.229   4.551   6.261 -0.6990 -0.0983 -0.5905
  934MOL0     C25983   2.303   4.551   6.384 -0.2448  0.2696 -0.1955
  934MOL0     C25984   2.396   4.661   6.421 -0.5399 -0.5771  0.2125
  934MOL0     O25985   2.410   4.754   6.333  0.0604 -0.0320  0.3770
  934MOL0     C25986   2.499   4.859   6.343 -0.1008  0.0799  0.2211
  934MOL0     C25987   2.457   4.986   6.292 -0.0663 -0.1457  0.5057
  934MOL0     C25988   2.547   5.090   6.296 -0.1272  0.4467  0.7491
  934MOL0     C25989   2.683   5.067   6.328 -1.4685 -0.0924  0.8449
  934MOL0     O25990   2.765   5.173   6.317 -0.8811  0.4436  0.1114
  934MOL0     C25991   2.900   5.152   6.286  0.0280 -0.2612 -0.6034
  934MOL0     C25992   2.972   5.287   6.272  0.3529 -0.8957  0.0329
  934MOL0     C25993   2.914   5.372   6.164  0.4482 -0.6042  0.5824
  934MOL0     C25994   2.978   5.506   6.123 -0.2997  0.6206 -1.0866
  934MOL0     C25995   2.903   5.600   6.025 -0.3506  0.0367  0.1024
  934MOL0     C25996   2.949   5.605   5.878 -0.4710  0.1507  0.0823
  934MOL0     C25997   2.894   5.489   5.801 -0.7601  0.4328  0.6226
  934MOL0     C25998   2.994   5.449   5.689  0.1943 -0.4628  0.0280
  934MOL0    Cl25999   3.143   5.371   5.751 -0.2337 -0.2191 -0.2395
  934MOL0     C26000   2.724   4.941   6.378  0.0597 -0.1672 -0.4348
  934MOL0     C26001   2.632   4.836   6.392  0.4832 -0.5889 -0.0787
  934MOL0     O26002   2.437   4.665   6.537 -0.0001 -0.2366 -0.0348
  934MOL0     C26003   2.267   4.454   6.482  0.5099 -0.3207 -0.0400
  934MOL0     C26004   2.173   4.355   6.457  0.1298  0.0024  0.2276
  934MOL0     N26005   1.725   3.980   6.652  0.0324 -0.3430  0.5466
  934MOL0     N26006   1.665   3.873   6.681 -0.2952 -0.0352 -0.1287
  934MOL0     C26007   0.466   3.384   6.757 -0.1068  0.3348  0.3226
  934MOL0     C26008   0.332   3.373   6.764 -0.4115  0.2310  1.1421
  934MOL0     C26009  -0.070   3.217   6.935 -0.4953 -0.0240  1.1604
  934MOL0     C26010  -0.112   3.089   6.899 -0.0222 -0.3996 -0.4438
  934MOL0     C26011  -0.243   3.042   6.913  0.0370 -0.2337  0.0431
  934MOL0     C26012  -0.347   3.130   6.956 -0.3629 -0.2409  0.4841
  934MOL0     O26013  -0.479   3.101   6.932 -0.4504 -0.5998 -0.9882
  934MOL0     C26014  -0.522   2.975   6.889 -1.0421  0.2444 -0.0361
  934MOL0     C26015  -0.671   2.946   6.906  0.3295  0.0132 -0.2085
  934MOL0     C26016  -0.751   3.026   6.810 -0.2408  0.2512  0.3428
  934MOL0     C26017  -0.898   3.016   6.844 -0.5256  0.0855  0.1022
  934MOL0     C26018  -0.985   3.042   6.728 -0.2432  0.0621 -1.8142
  934MOL0     C26019  -1.074   3.035   6.636  0.5690  0.3198  0.3706
  934MOL0     C26020  -0.304   3.262   6.991 -0.1917 -0.3560 -0.2609
  934MOL0     C26021  -0.169   3.309   6.979  0.0824 -0.3805 -0.2715
  934MOL0     C26022  -0.132   3.444   7.027  0.7363 -0.8513  0.5656
  934MOL0     H26023   0.280   3.416   7.101 -1.4863  0.4707 -0.3946
  934MOL0     H26024   0.515   3.453   7.083  0.2687  1.2156 -0.5450
  934MOL0     H26025   0.757   3.516   7.048 -0.7404 -0.1011 -0.2411
  934MOL0     H26026   0.703   3.348   7.052  0.4435 -1.8119 -1.6969
  934MOL0     H26027   0.897   3.299   6.877  0.4874  1.0544 -1.4468
  934MOL0     H26028   0.952   3.351   7.034 -1.5544  0.1393  0.9945
  934MOL0     H26029   0.968   3.582   6.974 -4.3629  1.2015 -1.6464
  934MOL0     H26030   0.917   3.547   6.811 -0.5280  1.6207  0.1232
  934MOL0     H26031   1.173   3.452   6.939 -1.6656 -2.3913  0.6466
  934MOL0     H26032   1.126   3.409   6.774  3.3711  0.6201  0.6280
  934MOL0     H26033   1.108   3.650   6.724  0.4548 -2.5786 -1.3971
  934MOL0     H26034   1.181   3.685   6.892  1.5033 -1.6570  1.6142
  934MOL0     H26035   1.375   3.527   6.798  0.6165 -0.3970 -1.5547
  934MOL0     H26036   1.296   3.545   6.645  0.7597  0.4406 -0.3803
  934MOL0     H26037   1.384   3.782   6.806  1.5710 -0.2356 -0.5773
  934MOL0     H26038   1.301   3.789   6.646 -1.7058 -2.4974 -0.2152
  934MOL0     H26039   1.562   3.643   6.657 -0.2759 -1.1886 -1.5889
  934MOL0     H26040   1.457   3.665   6.526 -2.4639  1.9494  0.2763
  934MOL0     H26041   1.505   3.910   6.402 -1.6836 -0.4485  2.2896
  934MOL0     H26042   1.598   4.187   6.428 -2.0687 -3.2618 -0.9002
  934MOL0     H26043   1.754   4.222   6.490  0.0347  1.9105 -2.9681
  934MOL0     H26044   1.681   4.039   6.260 -0.2742 -0.0762  0.7262
  934MOL0     H26045   1.751   4.205   6.245  5.6369  1.3207  1.5518
  934MOL0     H26046   1.929   4.045   6.187 -0.5684  0.7410 -0.0636
  934MOL0     H26047   1.910   3.955   6.329 -0.5551 -1.7103 -0.4775
  934MOL0     H26048   2.099   4.093   6.360  0.1560  0.4667  0.5414
  934MOL0     H26049   1.985   4.155   6.468  0.7703 -1.4725  0.9045
  934MOL0     H26050   2.085   4.457   6.142  1.5546 -0.0208 -0.7852
  934MOL0     H26051   2.245   4.630   6.187 -0.9641  2.4573  1.9054
  934MOL0     H26052   2.364   5.002   6.238  0.9053  0.1776 -1.1735
  934MOL0     H26053   2.520   5.188   6.259  1.8669  2.5830  4.3999
  934MOL0     H26054   2.956   5.089   6.356 -0.6492 -0.3464 -0.1359
  934MOL0     H26055   2.897   5.095   6.193 -2.7527 -0.5965 -0.3760
  934MOL0     H26056   2.965   5.351   6.360  0.7494  0.4738 -0.8837
  934MOL0     H26057   3.075   5.264   6.242 -0.2513 -2.5740 -0.8922
  934MOL0     H26058   2.911   5.307   6.076 -2.3233  0.6040 -0.3040
  934MOL0     H26059   2.814   5.392   6.203  1.2835 -0.9934  3.1249
  934MOL0     H26060   3.071   5.473   6.075 -0.8531 -0.4657 -1.4414
  934MOL0     H26061   2.995   5.558   6.218  0.8926 -2.6466  0.6425
  934MOL0     H26062   2.918   5.699   6.070  1.2818  0.5372 -1.4170
  934MOL0     H26063   2.795   5.588   6.034 -0.2696  0.4178  2.1864
  934MOL0     H26064   2.939   5.700   5.825 -1.1366  0.0074 -0.0587
  934MOL0     H26065   3.056   5.588   5.889 -0.3615 -0.1311 -1.2041
  934MOL0     H26066   2.801   5.519   5.751 -0.1399 -2.5812 -2.7424
  934MOL0     H26067   2.875   5.400   5.863  0.8084 -2.2179 -2.4054
  934MOL0     H26068   2.948   5.378   5.619  0.3812  0.6259 -1.2460
  934MOL0     H26069   3.008   5.529   5.615 -1.2510  0.4380  0.6800
  934MOL0     H26070   2.828   4.924   6.405 -0.4406  2.1194  3.6497
  934MOL0     H26071   2.673   4.741   6.425  2.4918 -0.1982 -1.2660
  934MOL0     H26072   2.295   4.468   6.586 -0.3281 -0.7001  0.2456
  934MOL0     H26073   2.159   4.282   6.535 -1.3956 -0.8542 -0.8079
  934MOL0     H26074   0.519   3.357   6.666  0.0594 -0.1325  0.5560
  934MOL0     H26075   0.279   3.360   6.669 -2.6942  0.6408  2.2852
  934MOL0     H26076  -0.039   3.019   6.861 -0.0074  0.0493 -1.2616
  934MOL0     H26077  -0.261   2.939   6.883 -0.5765 -0.5275  1.3252
  934MOL0     H26078  -0.457   2.900   6.935 -1.4601 -0.9496 -1.3061
  934MOL0     H26079  -0.502   2.956   6.783  0.8578 -2.0318  0.6327
  934MOL0     H26080  -0.694   2.946   7.013 -2.5905 -3.0461 -0.6730
  934MOL0     H26081  -0.695   2.845   6.872 -0.5490  0.8470 -2.2132
  934MOL0     H26082  -0.739   2.990   6.707 -0.4066 -0.0612  0.4315
  934MOL0     H26083  -0.709   3.127   6.821  0.1735  0.0823  0.3408
  934MOL0     H26084  -0.916   2.912   6.875  0.6977 -0.1396  0.0863
  934MOL0     H26085  -0.931   3.081   6.926  0.9794  0.1510  0.6862
  934MOL0     H26086  -1.137   3.027   6.550  0.5840 -0.3054  0.4140
  934MOL0     H26087  -0.378   3.338   7.014 -0.1113 -0.0713 -0.9204
  934MOL0     H26088  -0.077   3.495   6.947 -1.5028 -0.6178 -0.9144
  934MOL0     H26089  -0.216   3.502   7.069  2.7625  2.0655  0.9128
  934MOL0     H26090  -0.061   3.436   7.110  1.5556 -0.5766 -0.1012
  935MOL0     O26091   9.451  10.381   7.802  0.3631  0.1014  0.5359
  935MOL0     C26092   9.412  10.439   7.905  0.0530  0.5915 -0.7111
  935MOL0     O26093   9.487  10.520   7.986  0.0907 -0.1353 -0.2858
  935MOL0     C26094   9.624  10.534   7.960  0.2327  0.6130 -0.5137
  935MOL0     C26095   9.668  10.616   7.858  0.2064 -0.6331 -0.5035
  935MOL0     C26096   9.800  10.624   7.823 -0.8321  0.1933  0.7197
  935MOL0     C26097   9.896  10.553   7.896 -0.0164 -0.5129 -0.2179
  935MOL0     O26098  10.033  10.562   7.867  0.1491  0.3272 -0.5054
  935MOL0     C26099  10.068  10.528   7.732 -0.4642 -0.5743  0.6284
  935MOL0     C26100  10.214  10.484   7.705  0.4545 -0.1536 -0.3962
  935MOL0     C26101  10.322  10.600   7.720 -0.9270 -0.5728  0.4448
  935MOL0     C26102  10.467  10.550   7.698  0.1235 -0.9438 -0.1764
  935MOL0     C26103  10.564  10.671   7.712 -0.7850  0.3056  0.1699
  935MOL0     C26104  10.709  10.622   7.707  0.7059 -0.3146 -0.4463
  935MOL0     C26105  10.810  10.725   7.660  0.3490  0.2893  0.0085
  935MOL0     C26106  10.849  10.815   7.776 -1.3064 -0.2206  0.1088
  935MOL0     N26107  10.976  10.896   7.756 -0.0274 -0.0387  0.3912
  935MOL0     C26108  10.990  11.021   7.696  0.1036  0.0025  0.3449
  935MOL0     C26109  11.090  11.083   7.761 -0.2659 -0.1256 -0.3980
  935MOL0     C26110  11.124  11.233   7.766  0.4643  0.2973  0.7226
  935MOL0     C26111  11.259  11.267   7.698  0.3062  0.6821  0.1651
  935MOL0     C26112  11.382  11.243   7.790 -0.3259  0.2019 -0.3130
  935MOL0     C26113  11.509  11.282   7.721  0.3023 -0.0714  0.7369
  935MOL0     O26114  11.520  11.208   7.600 -1.1257  0.1424  0.2310
  935MOL0     C26115  11.647  11.212   7.550  0.5161  0.0154 -0.2045
  935MOL0     C26116  11.679  11.110   7.460 -1.1676  0.1653  0.4958
  935MOL0     C26117  11.805  11.095   7.404 -0.3753 -0.5971  0.6824
  935MOL0     C26118  11.909  11.188   7.437 -0.3271  0.7805  0.8950
  935MOL0     C26119  12.032  11.175   7.371  0.1582  0.3567 -0.5114
  935MOL0     O26120  12.142  11.219   7.441  0.2600  0.2878  0.5660
  935MOL0     C26121  12.264  11.215   7.371  0.5573  0.1779  0.3483
  935MOL0     C26122  12.322  11.106   7.302  0.2312 -0.3782  0.6650
  935MOL0     C26123  12.452  11.119   7.256 -0.0016  0.3184 -0.2069
  935MOL0     C26124  12.530  11.242   7.280  0.0878  0.6235 -0.2015
  935MOL0     O26125  12.648  11.253   7.217  0.2986 -0.1771  0.0194
  935MOL0     C26126  12.715  11.378   7.221  0.9855  0.3228  0.1724
  935MOL0     C26127  12.863  11.363   7.166  0.4305  0.0053 -0.3018
  935MOL0     C26128  12.953  11.249   7.228 -0.1445  0.4469 -0.1988
  935MOL0     C26129  13.093  11.264   7.175  0.0718 -0.0709  0.7081
  935MOL0     C26130  13.181  11.163   7.249  0.3643  0.1436 -0.3395
  935MOL0     C26131  13.332  11.172   7.204  0.2690 -0.1949 -0.5329
  935MOL0     C26132  13.413  11.054   7.263  0.0251  0.6254  0.0749
  935MOL0     C26133  13.546  11.028   7.197 -0.2670  0.2082 -0.4392
  935MOL0    Cl26134  13.551  11.024   7.015  0.3066 -0.0002  0.3603
  935MOL0     C26135  12.466  11.346   7.348 -0.6287 -0.3350  0.0304
  935MOL0     C26136  12.339  11.327   7.394  0.9431 -0.0095  0.0092
  935MOL0     O26137  12.035  11.133   7.258  0.2240 -0.0384 -0.3207
  935MOL0     C26138  11.881  11.289   7.527  0.4892  0.3046 -0.2618
  935MOL0     C26139  11.754  11.303   7.587  0.2070 -0.0621  0.1051
  935MOL0     N26140  11.142  10.994   7.844  0.2832  0.6973 -0.7995
  935MOL0     N26141  11.075  10.886   7.847 -0.1913  0.4575  0.3685
  935MOL0     C26142   9.849  10.478   8.003  0.4468 -0.5300 -0.0728
  935MOL0     C26143   9.724  10.461   8.038  1.0109  0.8599  0.1571
  935MOL0     C26144   9.272  10.416   7.951  0.3720 -0.5613  0.2166
  935MOL0     C26145   9.211  10.509   8.033  0.6240  1.0917  0.3867
  935MOL0     C26146   9.084  10.483   8.092  0.2643  0.0721  0.1231
  935MOL0     C26147   9.015  10.359   8.077  0.4094 -0.1604 -0.4490
  935MOL0     O26148   8.898  10.325   8.140 -0.0073 -0.0373  0.2626
  935MOL0     C26149   8.794  10.423   8.152  0.0516  0.1201  0.5693
  935MOL0     C26150   8.671  10.349   8.197 -0.1984  0.3406  0.3732
  935MOL0     C26151   8.642  10.214   8.125  0.5113  0.5508  0.4014
  935MOL0     C26152   8.489  10.186   8.129  0.2363 -0.1172 -0.1482
  935MOL0     C26153   8.467  10.044   8.111  0.9261 -0.4786  0.4926
  935MOL0     C26154   8.446   9.925   8.098 -0.0317  0.3873  0.0353
  935MOL0     C26155   9.079  10.265   7.994  0.5570  0.1386  0.5555
  935MOL0     C26156   9.199  10.288   7.932 -0.0183 -0.3538  0.1768
  935MOL0     C26157   9.253  10.185   7.833  0.4500 -0.6144  0.2770
  935MOL0     H26158   9.596  10.667   7.794 -0.9295 -0.5007  0.8087
  935MOL0     H26159   9.827  10.694   7.745  1.8945 -2.3107 -0.7984
  935MOL0     H26160   9.995  10.456   7.693 -0.6076 -0.0618 -0.0838
  935MOL0     H26161  10.066  10.626   7.683 -1.0807 -0.7424  0.3109
  935MOL0     H26162  10.220  10.446   7.603 -0.3552  2.2680 -1.4157
  935MOL0     H26163  10.240  10.399   7.769  0.6295 -0.5786 -1.0284
  935MOL0     H26164  10.315  10.645   7.819 -2.5449 -0.0838  0.1406
  935MOL0     H26165  10.308  10.679   7.645 -0.3215 -0.3749  0.5330
  935MOL0     H26166  10.484  10.480   7.780 -3.7830 -2.3641 -0.3522
  935MOL0     H26167  10.480  10.495   7.605 -1.9820 -0.2631 -0.9352
  935MOL0     H26168  10.541  10.745   7.634  0.8787  0.3206 -0.3441
  935MOL0     H26169  10.548  10.717   7.810 -4.7076 -1.5789  0.6091
  935MOL0     H26170  10.728  10.578   7.806 -2.4976  0.3715  0.5918
  935MOL0     H26171  10.717  10.538   7.638  0.9241  0.4222 -1.3349
  935MOL0     H26172  10.774  10.790   7.580 -1.0145 -1.2551 -0.6876
  935MOL0     H26173  10.898  10.674   7.619  1.6875  0.7157  2.1674
  935MOL0     H26174  10.764  10.882   7.786 -0.4482  0.5885  3.1678
  935MOL0     H26175  10.863  10.759   7.869  0.7206  1.2684  0.7815
  935MOL0     H26176  10.928  11.065   7.618  0.5147 -4.5836 -2.9505
  935MOL0     H26177  11.033  11.284   7.730 -2.2785 -3.4756  1.6720
  935MOL0     H26178  11.140  11.263   7.870  0.1527 -1.4303  1.3134
  935MOL0     H26179  11.261  11.194   7.616 -3.2438 -2.0769  2.2176
  935MOL0     H26180  11.256  11.371   7.664  1.2405  1.3704  2.0837
  935MOL0     H26181  11.380  11.136   7.817  0.6723  0.2660  0.0574
  935MOL0     H26182  11.374  11.295   7.886 -0.0503 -1.7144  0.8127
  935MOL0     H26183  11.590  11.266   7.792 -1.4557 -0.7222  2.6719
  935MOL0     H26184  11.518  11.390   7.701  2.6635 -0.7021 -2.2583
  935MOL0     H26185  11.602  11.045   7.421 -1.2540  1.1310 -1.0346
  935MOL0     H26186  11.802  11.025   7.322 -1.9961 -0.6276  0.7499
  935MOL0     H26187  12.268  11.015   7.278  1.6962 -1.2344  0.4707
  935MOL0     H26188  12.492  11.044   7.188 -1.0127  0.2210 -0.7023
  935MOL0     H26189  12.655  11.455   7.173 -1.3481  1.1481  4.0109
  935MOL0     H26190  12.724  11.413   7.324 -0.3216 -2.5962  1.4128
  935MOL0     H26191  12.861  11.333   7.060  1.3409  0.8262 -0.5658
  935MOL0     H26192  12.920  11.456   7.167  0.8407 -0.1338 -2.8219
  935MOL0     H26193  12.951  11.255   7.337 -1.4559  1.2275 -0.2375
  935MOL0     H26194  12.914  11.151   7.196  0.7388 -0.1859  0.6336
  935MOL0     H26195  13.131  11.364   7.198  0.7319 -0.0621 -0.3417
  935MOL0     H26196  13.091  11.243   7.067 -1.9156  1.2939  0.4347
  935MOL0     H26197  13.141  11.062   7.237  0.9716 -0.0510 -0.7887
  935MOL0     H26198  13.172  11.188   7.355  1.9270 -0.9523  0.0719
  935MOL0     H26199  13.335  11.172   7.095  0.6039  2.4851 -0.5905
  935MOL0     H26200  13.372  11.271   7.226 -0.5101 -0.3636  1.9868
  935MOL0     H26201  13.350  10.965   7.261 -2.1353  2.0958 -0.2167
  935MOL0     H26202  13.436  11.074   7.368  1.5119 -0.2253 -0.0628
  935MOL0     H26203  13.627  11.084   7.244  1.4901 -1.9524 -0.7069
  935MOL0     H26204  13.569  10.923   7.217 -0.3568 -0.2414 -2.5120
  935MOL0     H26205  12.513  11.443   7.360 -0.4421 -0.1897 -1.6130
  935MOL0     H26206  12.292  11.404   7.454  0.3477  0.3488 -0.9029
  935MOL0     H26207  11.962  11.360   7.544 -0.0498  0.5471  1.5181
  935MOL0     H26208  11.741  11.384   7.658  4.1580  1.0818 -0.2602
  935MOL0     H26209   9.930  10.433   8.059 -2.1790 -1.6799  3.0670
  935MOL0     H26210   9.688  10.403   8.123  2.6956  0.3355  0.5569
  935MOL0     H26211   9.250  10.609   8.048  1.3006  1.0238 -0.7930
  935MOL0     H26212   9.024  10.554   8.148 -0.3927 -0.6858  0.4042
  935MOL0     H26213   8.776  10.472   8.056 -0.9358  0.6329  1.0005
  935MOL0     H26214   8.817  10.504   8.221  0.0397 -0.8831  1.7826
  935MOL0     H26215   8.586  10.417   8.194  0.4274  1.1214 -0.0292
  935MOL0     H26216   8.684  10.316   8.301 -1.9872 -1.0719  0.1977
  935MOL0     H26217   8.699  10.138   8.178 -0.0972 -0.8643 -0.9017
  935MOL0     H26218   8.673  10.215   8.020 -0.9943 -2.6665 -0.1891
  935MOL0     H26219   8.453  10.190   8.232 -1.5169  0.2203 -0.7392
  935MOL0     H26220   8.437  10.252   8.059  2.3764 -0.4210 -2.1595
  935MOL0     H26221   8.442   9.820   8.076  0.1226  0.2021  0.8894
  935MOL0     H26222   9.026  10.175   7.966  1.4753 -0.7833  1.7184
  935MOL0     H26223   9.357  10.153   7.824 -0.4650 -3.3939 -1.8001
  935MOL0     H26224   9.204  10.088   7.834  2.7718 -1.8989 -1.4917
  935MOL0     H26225   9.228  10.232   7.737  0.6725  0.0648  0.5435
  936MOL0     O26226   4.862  10.582   5.598 -0.5905  0.1258 -0.2250
  936MOL0     C26227   4.781  10.672   5.586 -0.2926  0.0629 -0.3244
  936MOL0     O26228   4.803  10.794   5.529  0.1204 -0.2597  0.0712
  936MOL0     C26229   4.921  10.817   5.454  0.2782 -0.8031  0.4216
  936MOL0     C26230   4.918  10.798   5.319 -0.0569 -0.5528 -0.6744
  936MOL0     C26231   5.034  10.826   5.241 -0.2743  0.0929 -0.2047
  936MOL0     C26232   5.154  10.866   5.296  0.2484  0.3850 -0.2877
  936MOL0     O26233   5.272  10.888   5.233  0.1290  0.1480  0.6006
  936MOL0     C26234   5.288  10.796   5.116 -0.5198  0.4668  0.7389
  936MOL0     C26235   5.437  10.784   5.077  0.1847  0.8797  0.1243
  936MOL0     C26236   5.523  10.789   5.205 -0.5113  0.2865 -0.8768
  936MOL0     C26237   5.677  10.757   5.173 -0.1319 -0.6765  0.1260
  936MOL0     C26238   5.761  10.774   5.302 -0.3266  1.7188  0.0788
  936MOL0     C26239   5.731  10.659   5.399 -0.0628 -0.9082  0.8186
  936MOL0     C26240   5.831  10.660   5.516  0.1992  0.1863  0.4000
  936MOL0     C26241   5.975  10.615   5.472  0.4071  0.6238  0.2064
  936MOL0     N26242   6.063  10.608   5.585 -0.3136 -0.3817 -0.1432
  936MOL0     C26243   6.121  10.722   5.647  0.4203  0.6835 -0.2329
  936MOL0     C26244   6.207  10.672   5.743  0.7169  0.0246 -0.4208
  936MOL0     C26245   6.288  10.752   5.836 -0.2526 -0.1907  0.6481
  936MOL0     C26246   6.335  10.686   5.965 -0.6816  0.4006  0.7313
  936MOL0     C26247   6.391  10.793   6.056  0.9287 -0.1968  0.1405
  936MOL0     C26248   6.533  10.847   6.023  0.3053  0.2289 -0.5943
  936MOL0     O26249   6.622  10.743   6.049  0.1119  0.1668 -0.5830
  936MOL0     C26250   6.751  10.764   6.054 -0.4011 -0.3007  0.4591
  936MOL0     C26251   6.807  10.890   6.026  0.3416 -0.1102  0.0123
  936MOL0     C26252   6.951  10.911   6.046  0.6374 -0.3702 -0.1486
  936MOL0     C26253   7.040  10.807   6.085  0.3493  0.1945 -0.2993
  936MOL0     C26254   7.180  10.830   6.120 -0.3756 -0.8564 -0.7054
  936MOL0     O26255   7.238  10.951   6.081 -0.0074  0.2511  0.5179
  936MOL0     C26256   7.352  10.992   6.143  0.6530  0.0679 -0.3268
  936MOL0     C26257   7.472  10.917   6.125  0.4702 -0.2690  0.2126
  936MOL0     C26258   7.595  10.972   6.167 -0.2123 -0.1526  0.1964
  936MOL0     C26259   7.602  11.107   6.221  0.6013 -0.0421  0.0646
  936MOL0     O26260   7.714  11.170   6.263  0.0882 -0.3108 -0.3508
  936MOL0     C26261   7.829  11.087   6.292 -0.1522 -0.3218 -0.6466
  936MOL0     C26262   7.943  11.172   6.358  0.5617 -0.0171  0.4753
  936MOL0     C26263   7.996  11.274   6.258 -0.1293  0.4771  0.6541
  936MOL0     C26264   8.127  11.346   6.298  0.0320  0.4329  0.0718
  936MOL0     C26265   8.249  11.269   6.252 -0.5533 -0.2947 -0.5979
  936MOL0     C26266   8.368  11.335   6.321  0.6664 -0.1928 -0.0884
  936MOL0     C26267   8.509  11.301   6.271  1.0477  0.4272 -0.1327
  936MOL0     C26268   8.614  11.408   6.301  0.2720  0.3760 -0.2174
  936MOL0    Cl26269   8.759  11.360   6.228  0.2430  0.0869 -0.2442
  936MOL0     C26270   7.481  11.170   6.231  0.7708 -0.3968 -0.3472
  936MOL0     C26271   7.356  11.109   6.210  0.0289 -0.2527  0.1788
  936MOL0     O26272   7.235  10.750   6.188 -0.2725  0.1342  0.2966
  936MOL0     C26273   6.980  10.679   6.110  0.1834 -1.1348 -0.0524
  936MOL0     C26274   6.837  10.663   6.099  0.2520 -0.3941  0.1195
  936MOL0     N26275   6.204  10.534   5.732 -0.7573  0.5229 -0.3998
  936MOL0     N26276   6.118  10.495   5.640 -0.1474  0.7583 -0.2277
  936MOL0     C26277   5.158  10.891   5.428 -0.5070 -0.5124 -0.3037
  936MOL0     C26278   5.042  10.855   5.507 -0.4165 -0.0287 -0.1658
  936MOL0     C26279   4.649  10.644   5.662  0.1500 -0.3708  0.7276
  936MOL0     C26280   4.579  10.754   5.715  0.2128 -0.2541  0.5911
  936MOL0     C26281   4.454  10.745   5.771  0.1670 -0.1670  0.3791
  936MOL0     C26282   4.393  10.623   5.780 -0.8154 -0.8487  1.0574
  936MOL0     O26283   4.272  10.624   5.846 -0.5378 -0.0241  0.8975
  936MOL0     C26284   4.158  10.549   5.787 -0.7605  0.6320 -0.5269
  936MOL0     C26285   4.029  10.557   5.858 -0.2098 -0.0628  0.2358
  936MOL0     C26286   3.910  10.516   5.773  0.2377  0.3401  0.0092
  936MOL0     C26287   3.782  10.518   5.855  0.2653  0.9137 -0.0933
  936MOL0     C26288   3.775  10.657   5.899  0.7723  0.5768 -0.1264
  936MOL0     C26289   3.778  10.765   5.947  0.8922 -0.8206 -0.2303
  936MOL0     C26290   4.461  10.509   5.732  0.0401 -0.3978  0.3524
  936MOL0     C26291   4.584  10.518   5.677 -0.0346 -0.0769 -0.4651
  936MOL0     C26292   4.650  10.387   5.637  0.4536 -0.7113 -0.1582
  936MOL0     H26293   4.822  10.765   5.280 -0.3039 -2.9763  1.6972
  936MOL0     H26294   5.009  10.820   5.136  0.4601  1.6089 -0.4950
  936MOL0     H26295   5.245  10.697   5.131  3.2219 -1.3905  0.2639
  936MOL0     H26296   5.232  10.842   5.034 -2.3142 -1.0185  1.0683
  936MOL0     H26297   5.463  10.868   5.012  0.6787 -0.9251 -2.1707
  936MOL0     H26298   5.453  10.695   5.015 -0.1670  1.7650 -1.2978
  936MOL0     H26299   5.491  10.726   5.289 -2.3160 -0.1610 -1.8666
  936MOL0     H26300   5.518  10.893   5.240  0.4052  0.1135 -0.1785
  936MOL0     H26301   5.687  10.654   5.136  0.8759 -0.7048  0.4751
  936MOL0     H26302   5.719  10.828   5.101  3.4756 -2.9982 -0.3216
  936MOL0     H26303   5.869  10.778   5.282 -0.2585  0.2160 -0.0052
  936MOL0     H26304   5.736  10.869   5.350 -0.2606  0.7129  2.1793
  936MOL0     H26305   5.631  10.670   5.442 -0.4270 -0.6387 -0.0684
  936MOL0     H26306   5.733  10.557   5.358 -0.4180 -0.5651 -0.0726
  936MOL0     H26307   5.809  10.588   5.595 -0.2776 -0.4679 -0.3176
  936MOL0     H26308   5.817  10.759   5.562  0.4502 -0.0214  0.9431
  936MOL0     H26309   5.972  10.515   5.427  0.3171  0.5038  0.4711
  936MOL0     H26310   6.016  10.686   5.400  2.2211 -1.0082 -0.4617
  936MOL0     H26311   6.104  10.828   5.632  1.2968  0.9929  0.8166
  936MOL0     H26312   6.373  10.795   5.781 -1.0463  0.4485 -0.1196
  936MOL0     H26313   6.228  10.842   5.852 -1.8339 -0.7291 -1.7618
  936MOL0     H26314   6.253  10.638   6.019  1.0932 -1.8060  1.6483
  936MOL0     H26315   6.405  10.604   5.947 -3.2471 -1.4889 -1.3338
  936MOL0     H26316   6.381  10.772   6.163 -1.6236 -2.9283 -0.4934
  936MOL0     H26317   6.313  10.869   6.049 -0.6169 -1.5004  1.8981
  936MOL0     H26318   6.559  10.926   6.093 -1.0961 -0.4160  0.7074
  936MOL0     H26319   6.530  10.882   5.919 -2.3992  1.2093 -0.2557
  936MOL0     H26320   6.749  10.974   5.990  1.2050  1.2643  1.6746
  936MOL0     H26321   6.993  11.008   6.025  0.4805 -0.0432  0.9871
  936MOL0     H26322   7.472  10.823   6.071 -2.3412 -0.0763 -0.2908
  936MOL0     H26323   7.686  10.914   6.162  0.9184  1.0942  3.4349
  936MOL0     H26324   7.798  11.012   6.365  2.7438  2.0084  3.3681
  936MOL0     H26325   7.863  11.033   6.203 -0.2211  1.7363 -1.9976
  936MOL0     H26326   7.912  11.227   6.447  3.4746  0.6480  1.1565
  936MOL0     H26327   8.021  11.105   6.395  0.9010 -0.4996 -1.0265
  936MOL0     H26328   7.994  11.235   6.156 -2.2318  1.9956  0.0464
  936MOL0     H26329   7.926  11.358   6.264  1.3520  1.6693  4.4119
  936MOL0     H26330   8.124  11.367   6.405 -0.8817  0.7357 -0.0045
  936MOL0     H26331   8.118  11.436   6.236 -1.0389  1.2342  1.3307
  936MOL0     H26332   8.256  11.277   6.143  2.8871  4.9200 -0.3562
  936MOL0     H26333   8.242  11.163   6.276 -1.2032  0.0163  0.6972
  936MOL0     H26334   8.351  11.443   6.320  2.1319  0.2278  3.5613
  936MOL0     H26335   8.351  11.310   6.427  0.3975 -0.3347 -0.1639
  936MOL0     H26336   8.507  11.293   6.162  1.3601  0.2251 -0.1244
  936MOL0     H26337   8.547  11.206   6.309 -0.5658 -0.3612 -0.3944
  936MOL0     H26338   8.573  11.494   6.248 -0.5492 -1.0622 -2.0171
  936MOL0     H26339   8.623  11.418   6.410 -0.0908 -1.8679  0.0791
  936MOL0     H26340   7.480  11.274   6.259 -0.8712  0.1727 -2.2445
  936MOL0     H26341   7.264  11.161   6.234 -1.4003 -2.2293 -0.7078
  936MOL0     H26342   7.041  10.597   6.147  1.3339  1.0122  3.3268
  936MOL0     H26343   6.797  10.567   6.127 -0.1500 -0.1284  0.4747
  936MOL0     H26344   5.249  10.925   5.476 -1.1746 -0.1150  0.7049
  936MOL0     H26345   5.050  10.871   5.615 -0.5063 -3.0524  0.3661
  936MOL0     H26346   4.609  10.857   5.698 -0.1645 -0.4942 -2.0961
  936MOL0     H26347   4.400  10.834   5.804 -1.5036 -0.1801 -2.0355
  936MOL0     H26348   4.188  10.444   5.788 -1.0217  0.4610  3.1609
  936MOL0     H26349   4.149  10.580   5.683 -0.8047 -1.0029 -1.0424
  936MOL0     H26350   4.030  10.660   5.897 -0.7100  0.0149  0.0417
  936MOL0     H26351   4.032  10.494   5.948 -0.1328 -0.2129  0.1280
  936MOL0     H26352   3.931  10.416   5.732  0.0221 -0.1162  0.9846
  936MOL0     H26353   3.894  10.585   5.689  1.4764 -0.9812 -1.3936
  936MOL0     H26354   3.697  10.492   5.791 -0.7758  0.6947  1.3519
  936MOL0     H26355   3.781  10.437   5.928 -0.2023 -1.2634 -2.3692
  936MOL0     H26356   3.776  10.850   6.012  1.8830 -0.2826 -0.8796
  936MOL0     H26357   4.417  10.410   5.740  0.8650 -0.9723 -1.6341
  936MOL0     H26358   4.602  10.305   5.690 -1.5821  0.6492  0.1900
  936MOL0     H26359   4.640  10.372   5.529 -0.3947 -0.2233 -0.1506
  936MOL0     H26360   4.755  10.377   5.666  0.8150  0.4242 -1.0123
  937MOL0     O26361   2.974   8.040   4.768  0.0077  0.0836 -0.2098
  937MOL0     C26362   2.977   7.968   4.868  0.0846 -0.2230  0.0458
  937MOL0     O26363   3.079   7.964   4.956  0.1288  0.0522  0.0191
  937MOL0     C26364   3.198   8.036   4.935  0.8219  0.1462  0.4840
  937MOL0     C26365   3.266   8.067   5.054  0.8365 -0.3388 -0.8763
  937MOL0     C26366   3.382   8.143   5.045  0.1860 -0.0396 -0.4364
  937MOL0     C26367   3.442   8.191   4.922  0.2645 -0.4068  0.4081
  937MOL0     O26368   3.559   8.262   4.922  0.0004 -0.0053  0.1879
  937MOL0     C26369   3.624   8.248   4.797 -0.7919  0.1503 -0.1514
  937MOL0     C26370   3.774   8.279   4.815 -0.0840  0.2692 -0.3550
  937MOL0     C26371   3.856   8.169   4.890 -0.5347  1.3054 -0.1890
  937MOL0     C26372   3.998   8.211   4.946  0.0133 -0.3042 -0.4817
  937MOL0     C26373   4.068   8.079   4.980  0.8886 -0.1415 -0.2262
  937MOL0     C26374   4.217   8.105   5.014  0.0381  0.5130  0.2440
  937MOL0     C26375   4.315   7.988   5.044 -0.5238 -0.1416 -0.3501
  937MOL0     C26376   4.275   7.923   5.175 -0.1068  0.3975  0.6482
  937MOL0     N26377   4.361   7.814   5.220  0.3169  0.5319  0.0520
  937MOL0     C26378   4.380   7.699   5.145 -0.4061 -0.5700 -0.4228
  937MOL0     C26379   4.459   7.616   5.225 -0.5055 -0.4427  0.7631
  937MOL0     C26380   4.498   7.483   5.180 -0.7681 -0.0148 -0.6746
  937MOL0     C26381   4.458   7.374   5.279 -0.5818 -0.4470 -0.5664
  937MOL0     C26382   4.490   7.225   5.238 -0.2329  0.1464  0.3171
  937MOL0     C26383   4.635   7.181   5.248  0.0243 -0.0977 -0.1922
  937MOL0     O26384   4.653   7.057   5.181  0.0090 -0.6178 -0.1549
  937MOL0     C26385   4.784   7.011   5.185 -0.3830  1.0641 -0.0128
  937MOL0     C26386   4.904   7.076   5.229 -0.3156 -1.6508  0.3024
  937MOL0     C26387   5.026   7.021   5.222  0.1679  0.2383  0.7676
  937MOL0     C26388   5.044   6.890   5.179 -0.6592  0.2358  0.2277
  937MOL0     C26389   5.168   6.816   5.186  0.6840  0.1330 -0.5121
  937MOL0     O26390   5.160   6.681   5.165 -0.1713  0.0624  0.5376
  937MOL0     C26391   5.278   6.615   5.147 -0.4883  0.2313  0.5368
  937MOL0     C26392   5.339   6.559   5.262 -0.6688 -0.7258 -0.7998
  937MOL0     C26393   5.464   6.496   5.253  0.4115 -0.2898  0.5626
  937MOL0     C26394   5.528   6.488   5.125 -0.3030 -0.1163  0.1779
  937MOL0     O26395   5.654   6.423   5.107 -0.8770 -0.0632 -0.3697
  937MOL0     C26396   5.740   6.434   5.215  0.2790 -0.1800 -1.4906
  937MOL0     C26397   5.864   6.372   5.162  0.3614  0.1825  0.4188
  937MOL0     C26398   5.981   6.364   5.270  0.6285  0.7209 -0.0567
  937MOL0     C26399   6.101   6.318   5.205 -0.3260 -0.3654  0.4597
  937MOL0     C26400   6.216   6.307   5.309 -0.3417 -0.7643 -0.5567
  937MOL0     C26401   6.352   6.257   5.249  0.7450 -0.4663 -0.5044
  937MOL0     C26402   6.459   6.267   5.356 -0.9355 -0.2878 -0.0493
  937MOL0     C26403   6.594   6.233   5.288  0.8248  0.2314 -0.3063
  937MOL0    Cl26404   6.648   6.352   5.154 -0.2584 -0.0263 -0.4337
  937MOL0     C26405   5.462   6.533   5.008  0.7923 -0.1469  0.1187
  937MOL0     C26406   5.337   6.595   5.015  0.4919  0.1127 -0.2632
  937MOL0     O26407   5.273   6.877   5.206 -0.0275  0.6200  0.4105
  937MOL0     C26408   4.930   6.822   5.132 -0.3737  0.9469 -0.9726
  937MOL0     C26409   4.803   6.876   5.139 -0.0604 -0.7311 -0.2461
  937MOL0     N26410   4.478   7.686   5.338 -0.2808  0.7981  0.5382
  937MOL0     N26411   4.420   7.801   5.337 -0.6694  0.4908  0.8752
  937MOL0     C26412   3.370   8.152   4.808  0.4069  0.2165 -0.1871
  937MOL0     C26413   3.248   8.073   4.810 -0.7056  0.4823 -0.3473
  937MOL0     C26414   2.860   7.876   4.896  0.9924 -0.1522  0.4706
  937MOL0     C26415   2.879   7.769   4.983  0.9557 -0.2466 -0.4147
  937MOL0     C26416   2.775   7.678   5.016 -0.4840 -0.2019  0.0605
  937MOL0     C26417   2.652   7.700   4.957  0.4894  1.2569  0.5446
  937MOL0     O26418   2.537   7.634   4.974 -0.2439 -0.0023 -0.1205
  937MOL0     C26419   2.533   7.536   5.077 -0.4455 -0.8805 -0.0471
  937MOL0     C26420   2.561   7.400   5.024  0.6347  1.3602 -0.9354
  937MOL0     C26421   2.555   7.291   5.131  0.5693 -0.6988 -0.4925
  937MOL0     C26422   2.544   7.150   5.064  0.4739 -0.0159 -0.0916
  937MOL0     C26423   2.672   7.130   4.985 -0.5367 -1.3317  0.5641
  937MOL0     C26424   2.767   7.128   4.912 -0.6019  0.2793 -0.4088
  937MOL0     C26425   2.635   7.807   4.862 -0.8173  0.2002 -0.2191
  937MOL0     C26426   2.730   7.896   4.840  0.2587  0.9005  0.4389
  937MOL0     C26427   2.691   8.028   4.776  0.0812 -0.3306 -0.2038
  937MOL0     H26428   3.222   8.044   5.150  0.9316  0.5176 -0.6179
  937MOL0     H26429   3.430   8.171   5.138  0.2946 -1.6307  0.0217
  937MOL0     H26430   3.615   8.149   4.752  0.4001 -1.2028  2.3842
  937MOL0     H26431   3.587   8.329   4.734  2.4805  1.1340 -1.0117
  937MOL0     H26432   3.779   8.369   4.877  2.0571  0.3169 -0.5464
  937MOL0     H26433   3.809   8.297   4.713  0.4571 -3.8678 -1.0534
  937MOL0     H26434   3.875   8.091   4.815 -0.4717 -0.5245  1.6137
  937MOL0     H26435   3.798   8.129   4.974  2.5037 -0.8031  1.1047
  937MOL0     H26436   4.056   8.279   4.882  0.9912  1.2018  1.8435
  937MOL0     H26437   3.989   8.267   5.039 -3.0957  3.2912 -2.6256
  937MOL0     H26438   4.016   8.028   5.061 -1.0854  0.0727 -1.2784
  937MOL0     H26439   4.065   8.016   4.891 -2.1156 -0.5074  0.0293
  937MOL0     H26440   4.255   8.149   4.922  0.4157 -0.6168 -0.1568
  937MOL0     H26441   4.235   8.183   5.088 -0.0936  1.8740 -1.1174
  937MOL0     H26442   4.415   8.030   5.050 -0.0346 -1.2812 -0.2354
  937MOL0     H26443   4.318   7.921   4.957  0.9948 -0.6608  0.0768
  937MOL0     H26444   4.281   7.991   5.260  4.5519  0.9442  0.1641
  937MOL0     H26445   4.175   7.879   5.172  0.5530 -1.4262  2.5469
  937MOL0     H26446   4.350   7.681   5.041  1.0885 -0.0671 -0.9563
  937MOL0     H26447   4.439   7.468   5.089 -3.8325 -1.7094  1.3767
  937MOL0     H26448   4.602   7.486   5.148 -0.2702 -0.8892  0.7343
  937MOL0     H26449   4.504   7.387   5.378  1.1067 -1.6450 -1.1363
  937MOL0     H26450   4.352   7.397   5.288 -0.4273  0.5100 -1.0847
  937MOL0     H26451   4.453   7.211   5.136  0.7122 -1.2037  0.1464
  937MOL0     H26452   4.432   7.159   5.303  0.6224 -0.6734  0.2652
  937MOL0     H26453   4.662   7.174   5.354  0.3131  2.9809  0.0228
  937MOL0     H26454   4.690   7.263   5.203  2.7186 -0.5009  2.0874
  937MOL0     H26455   4.895   7.180   5.260 -1.8866 -1.8907  0.7258
  937MOL0     H26456   5.114   7.080   5.240  1.6131 -1.9351  1.2427
  937MOL0     H26457   5.294   6.567   5.361 -4.1927  1.6019 -2.4188
  937MOL0     H26458   5.517   6.436   5.326  0.8110 -1.6536 -0.8018
  937MOL0     H26459   5.765   6.533   5.252  0.9800 -0.9230  0.1243
  937MOL0     H26460   5.703   6.375   5.300  0.8291  0.5304 -0.7490
  937MOL0     H26461   5.847   6.274   5.118  0.2037  0.4848 -0.2013
  937MOL0     H26462   5.900   6.429   5.076 -1.6558  1.6607  0.4821
  937MOL0     H26463   5.990   6.467   5.306 -2.4460 -0.0382  3.5779
  937MOL0     H26464   5.960   6.293   5.351  1.5036  0.3271 -0.1641
  937MOL0     H26465   6.123   6.381   5.118 -0.3472 -2.7220 -1.3602
  937MOL0     H26466   6.085   6.219   5.159  1.4284 -0.0277 -1.0098
  937MOL0     H26467   6.180   6.242   5.390 -0.2011  0.8299  0.8337
  937MOL0     H26468   6.249   6.402   5.352 -0.9936 -0.6846 -0.2110
  937MOL0     H26469   6.343   6.151   5.225 -0.8555  0.0256 -2.3555
  937MOL0     H26470   6.372   6.317   5.160 -0.3171  1.6046  0.5694
  937MOL0     H26471   6.435   6.194   5.434  1.6810 -0.1983  0.9542
  937MOL0     H26472   6.463   6.365   5.405 -1.6939  0.2267 -0.9960
  937MOL0     H26473   6.671   6.236   5.366  0.2752  3.0913  0.2371
  937MOL0     H26474   6.582   6.127   5.264 -0.8071 -0.3356  2.5582
  937MOL0     H26475   5.513   6.522   4.913 -0.4988  0.7696 -0.7171
  937MOL0     H26476   5.283   6.629   4.927  1.8067  2.8771 -0.0763
  937MOL0     H26477   4.945   6.721   5.096  0.1355  1.0799 -1.1526
  937MOL0     H26478   4.730   6.813   5.089  0.0861 -1.4444  0.4332
  937MOL0     H26479   3.407   8.169   4.708  1.2391 -4.0232 -0.7734
  937MOL0     H26480   3.203   8.048   4.714  0.9671  1.1854 -1.3595
  937MOL0     H26481   2.978   7.742   5.019  0.6497 -1.4828 -0.4288
  937MOL0     H26482   2.799   7.590   5.075  1.6786  0.6302  0.5337
  937MOL0     H26483   2.429   7.541   5.108 -0.5438  2.7812 -0.5214
  937MOL0     H26484   2.592   7.555   5.168 -0.2083 -3.5719  0.4399
  937MOL0     H26485   2.662   7.395   4.984  0.1691 -2.4077 -2.0564
  937MOL0     H26486   2.489   7.376   4.945  0.0370 -0.7543  0.1880
  937MOL0     H26487   2.470   7.303   5.198  1.7154  0.3472  0.8444
  937MOL0     H26488   2.642   7.320   5.191 -2.7114  1.4089  3.7520
  937MOL0     H26489   2.537   7.069   5.137  0.4922  1.0813  1.1733
  937MOL0     H26490   2.455   7.148   5.001 -0.9314 -0.9780  1.8227
  937MOL0     H26491   2.857   7.117   4.855 -0.2260  1.5487 -0.1031
  937MOL0     H26492   2.538   7.842   4.827 -0.0527  0.2504 -2.4141
  937MOL0     H26493   2.750   8.041   4.685 -0.2218  1.7113 -0.1729
  937MOL0     H26494   2.586   8.035   4.745  0.0812  1.6274  0.1074
  937MOL0     H26495   2.717   8.110   4.843 -1.0096 -0.2625  0.1677
  938MOL0     O26496  10.496   7.773   3.416 -0.3974  0.2647 -0.4960
  938MOL0     C26497  10.427   7.767   3.513  0.7173  0.3973 -0.7892
  938MOL0     O26498  10.455   7.694   3.624  0.5471  0.6446 -0.5422
  938MOL0     C26499  10.538   7.579   3.618  0.4582  0.2009 -0.6492
  938MOL0     C26500  10.630   7.560   3.715  0.6305  0.6589  0.3856
  938MOL0     C26501  10.716   7.451   3.710 -0.1144  0.5946  0.4396
  938MOL0     C26502  10.711   7.349   3.614  0.0674 -0.2224  0.5075
  938MOL0     O26503  10.777   7.235   3.644  0.4490  0.4988 -0.6100
  938MOL0     C26504  10.831   7.155   3.533  0.3847 -1.0875  0.4206
  938MOL0     C26505  10.768   7.019   3.536 -0.1990 -0.8122  0.2253
  938MOL0     C26506  10.814   6.930   3.415  0.1963  0.2347 -0.4803
  938MOL0     C26507  10.742   6.787   3.394  0.2229  0.0937 -0.5531
  938MOL0     C26508  10.812   6.704   3.300  0.5527  0.3990  0.3435
  938MOL0     C26509  10.756   6.565   3.280 -0.6726  0.2146 -0.1571
  938MOL0     C26510  10.853   6.470   3.201  0.8125  0.0467  0.8987
  938MOL0     C26511  10.773   6.353   3.153  0.4034  0.1033  0.7289
  938MOL0     N26512  10.845   6.229   3.110 -0.3994  0.5526 -0.1731
  938MOL0     C26513  10.961   6.225   3.031  0.2158  1.3778 -0.3645
  938MOL0     C26514  11.021   6.100   3.059 -0.3792 -0.4869 -0.1839
  938MOL0     C26515  11.147   6.032   3.011  0.0488  0.0123 -0.1381
  938MOL0     C26516  11.149   6.015   2.863  0.8001 -0.5296  0.5566
  938MOL0     C26517  11.065   5.897   2.821 -0.6022 -0.0706 -0.3059
  938MOL0     C26518  11.085   5.882   2.679 -0.5264 -0.0981 -0.5478
  938MOL0     O26519  11.214   5.825   2.647 -0.1702 -0.1540 -0.1001
  938MOL0     C26520  11.235   5.771   2.526  0.1014  0.1394  0.8202
  938MOL0     C26521  11.153   5.791   2.412  0.0235 -0.3704  0.1068
  938MOL0     C26522  11.184   5.735   2.284  0.3074  0.6931 -0.7391
  938MOL0     C26523  11.283   5.632   2.282  0.1568 -0.3036  0.5517
  938MOL0     C26524  11.305   5.531   2.170  0.1365 -0.1302  1.0053
  938MOL0     O26525  11.406   5.432   2.185  0.3612  0.3559 -0.6101
  938MOL0     C26526  11.423   5.324   2.106  0.2067  0.2316 -0.4236
  938MOL0     C26527  11.337   5.263   2.009  0.5966 -0.6762  0.8652
  938MOL0     C26528  11.363   5.140   1.950 -0.4505  0.2926 -1.0077
  938MOL0     C26529  11.483   5.066   1.980  0.4565  0.3756  0.4204
  938MOL0     O26530  11.527   4.944   1.914  0.4693  0.2888 -0.1482
  938MOL0     C26531  11.446   4.898   1.808  0.2733 -0.4921 -0.2500
  938MOL0     C26532  11.503   4.943   1.666 -0.2572 -0.3074 -0.1743
  938MOL0     C26533  11.412   4.890   1.548 -0.4353  0.1416  0.1249
  938MOL0     C26534  11.482   4.923   1.418  0.4256  0.0971 -0.5754
  938MOL0     C26535  11.392   4.874   1.299 -0.8818 -0.3737  0.1507
  938MOL0     C26536  11.469   4.879   1.167 -0.0882 -0.3931  0.2263
  938MOL0     C26537  11.381   4.850   1.040  0.0847 -0.0336 -0.1312
  938MOL0     C26538  11.308   4.714   1.033  0.9972  0.1283 -0.3736
  938MOL0    Cl26539  11.218   4.705   0.883 -0.1163  0.2780  0.2486
  938MOL0     C26540  11.581   5.131   2.065  0.0173 -0.9619 -0.5870
  938MOL0     C26541  11.549   5.258   2.121  0.1360 -0.5877  0.5486
  938MOL0     O26542  11.239   5.540   2.066 -0.4802 -0.6182  0.3263
  938MOL0     C26543  11.373   5.610   2.390  1.5477  0.4769 -0.0481
  938MOL0     C26544  11.340   5.676   2.510 -0.4893  0.4565  0.3161
  938MOL0     N26545  10.936   6.040   3.145 -0.1909 -0.2976 -0.5778
  938MOL0     N26546  10.839   6.115   3.187  0.5289  0.1454 -0.4076
  938MOL0     C26547  10.621   7.368   3.503  0.2075 -0.5390  0.7019
  938MOL0     C26548  10.533   7.485   3.512 -0.1062 -0.1870  0.2223
  938MOL0     C26549  10.325   7.870   3.530  0.9452  0.5491 -0.0727
  938MOL0     C26550  10.228   7.832   3.621  0.0053  0.2391  0.0994
  938MOL0     C26551  10.120   7.914   3.645 -0.2459  0.3516  0.5455
  938MOL0     C26552  10.099   8.033   3.575 -0.3078 -0.3523 -0.3116
  938MOL0     O26553   9.986   8.105   3.605 -0.4168 -0.4737 -0.7623
  938MOL0     C26554   9.986   8.240   3.636 -0.8612 -0.4462 -0.2622
  938MOL0     C26555  10.050   8.283   3.773  0.2431 -0.2896 -0.3855
  938MOL0     C26556  10.207   8.243   3.799  0.4130  0.6750 -0.1837
  938MOL0     C26557  10.267   8.322   3.920  0.7537 -0.9541 -0.0056
  938MOL0     C26558  10.189   8.322   4.046 -0.1946 -0.5097 -0.1895
  938MOL0     C26559  10.135   8.297   4.150 -0.2218 -0.5144  0.1589
  938MOL0     C26560  10.200   8.073   3.486 -0.8368 -0.2480 -0.0292
  938MOL0     C26561  10.313   7.994   3.454 -0.1566  0.5650  0.4302
  938MOL0     C26562  10.411   8.050   3.357  0.0689 -0.2642  0.2762
  938MOL0     H26563  10.630   7.630   3.798  2.2200  0.3224  0.7100
  938MOL0     H26564  10.794   7.432   3.783  2.2005  0.4856 -1.9276
  938MOL0     H26565  10.823   7.211   3.440  0.7283 -0.0967  0.9763
  938MOL0     H26566  10.936   7.141   3.557  1.2954  1.9830 -1.2668
  938MOL0     H26567  10.660   7.028   3.523 -0.4968 -4.3342 -0.6345
  938MOL0     H26568  10.791   6.973   3.633  2.2525 -0.1777  0.0068
  938MOL0     H26569  10.920   6.910   3.433 -0.0768  0.2360  1.3167
  938MOL0     H26570  10.808   6.995   3.327 -0.1830 -0.6525 -1.1330
  938MOL0     H26571  10.743   6.730   3.488 -0.0976 -0.3347 -0.8049
  938MOL0     H26572  10.638   6.804   3.365  0.4135  0.8486 -0.7910
  938MOL0     H26573  10.814   6.748   3.200 -0.7450 -0.3046 -0.0126
  938MOL0     H26574  10.917   6.711   3.329  1.5635 -0.0926 -2.7978
  938MOL0     H26575  10.733   6.514   3.374  0.1385 -1.2852 -0.7490
  938MOL0     H26576  10.664   6.559   3.222  0.0181  0.4651 -1.3068
  938MOL0     H26577  10.940   6.440   3.259 -1.5413 -1.6429  3.8596
  938MOL0     H26578  10.880   6.517   3.106 -0.2361 -1.7619 -0.3530
  938MOL0     H26579  10.703   6.326   3.233 -3.4012  3.3554 -1.1188
  938MOL0     H26580  10.698   6.381   3.078  0.1442 -1.8845  0.1731
  938MOL0     H26581  11.006   6.297   2.963 -0.5794  0.3403 -2.0555
  938MOL0     H26582  11.232   6.090   3.048 -0.1390 -0.7585  1.6156
  938MOL0     H26583  11.154   5.931   3.052 -1.9617 -0.8711 -1.8362
  938MOL0     H26584  11.122   6.102   2.802 -0.2557 -1.5601 -0.4944
  938MOL0     H26585  11.252   5.992   2.834  0.5140 -1.8679  0.5473
  938MOL0     H26586  10.958   5.912   2.839 -1.3423 -3.4263 -1.1364
  938MOL0     H26587  11.109   5.806   2.863  1.1845 -0.0292 -1.9119
  938MOL0     H26588  11.079   5.978   2.626  1.8497  0.5897  0.3341
  938MOL0     H26589  11.005   5.812   2.651 -1.5591  0.9951 -0.4241
  938MOL0     H26590  11.060   5.846   2.411 -1.3529 -2.5886 -1.5657
  938MOL0     H26591  11.109   5.748   2.207  1.8503 -0.9031 -2.5959
  938MOL0     H26592  11.241   5.305   1.981  1.1988  0.9725  1.1581
  938MOL0     H26593  11.289   5.110   1.875 -4.0883  0.7065  2.1052
  938MOL0     H26594  11.446   4.789   1.813 -1.9904 -0.5173  0.3307
  938MOL0     H26595  11.342   4.931   1.813  0.4863  0.0940  0.5547
  938MOL0     H26596  11.513   5.051   1.652  0.5254 -0.2902  0.4656
  938MOL0     H26597  11.603   4.900   1.666  0.1362  0.2566  3.9631
  938MOL0     H26598  11.391   4.783   1.557  0.0590 -0.1937 -2.1284
  938MOL0     H26599  11.315   4.940   1.562 -3.3842 -4.7992 -0.3171
  938MOL0     H26600  11.575   4.866   1.422  0.1752 -0.3526  3.6026
  938MOL0     H26601  11.494   5.032   1.411  0.5181  0.0382 -1.4698
  938MOL0     H26602  11.303   4.937   1.289 -0.2356  0.3068 -1.8634
  938MOL0     H26603  11.362   4.773   1.327 -0.5694 -0.5967 -0.2997
  938MOL0     H26604  11.515   4.977   1.153  0.3328 -0.5013  0.8457
  938MOL0     H26605  11.556   4.814   1.174  1.3375  1.4711  0.4832
  938MOL0     H26606  11.447   4.857   0.954  0.5895  2.1992  0.3719
  938MOL0     H26607  11.320   4.941   1.042  3.0645  2.1394  2.9957
  938MOL0     H26608  11.368   4.622   1.041 -1.0953 -1.1515  2.1879
  938MOL0     H26609  11.238   4.711   1.118 -0.1927  4.0020 -1.0321
  938MOL0     H26610  11.669   5.076   2.095  0.3178 -0.2845 -0.2062
  938MOL0     H26611  11.611   5.305   2.197 -0.0916  2.0551 -0.7913
  938MOL0     H26612  11.450   5.534   2.387 -0.5529 -1.7895  0.0983
  938MOL0     H26613  11.396   5.664   2.602  1.1809  2.1861 -0.4184
  938MOL0     H26614  10.620   7.296   3.422 -0.8875  0.2831 -0.0408
  938MOL0     H26615  10.454   7.493   3.438  1.2019 -2.2879 -1.5429
  938MOL0     H26616  10.225   7.738   3.676 -3.5296 -0.4595 -1.0582
  938MOL0     H26617  10.033   7.896   3.708 -0.0863  2.0079  1.3017
  938MOL0     H26618   9.886   8.285   3.631 -1.1648 -0.7736  1.8009
  938MOL0     H26619  10.054   8.302   3.578  0.4936 -0.1805  1.5208
  938MOL0     H26620   9.987   8.236   3.849 -0.0445 -2.2182 -1.7218
  938MOL0     H26621  10.044   8.391   3.783 -4.6178 -0.1221 -2.4938
  938MOL0     H26622  10.252   8.255   3.700 -0.3597  0.5315 -0.5589
  938MOL0     H26623  10.211   8.138   3.832 -0.3475  1.2026  1.6899
  938MOL0     H26624  10.364   8.283   3.950  3.2690  2.9139 -2.1592
  938MOL0     H26625  10.293   8.424   3.891  0.7336 -0.1340  2.6781
  938MOL0     H26626  10.089   8.287   4.246  0.6657  0.7325  0.7460
  938MOL0     H26627  10.191   8.162   3.425  1.2732 -1.0276 -1.5847
  938MOL0     H26628  10.391   8.021   3.253  0.7152  1.6986 -0.4228
  938MOL0     H26629  10.403   8.159   3.356  0.9274 -0.1272 -2.9400
  938MOL0     H26630  10.510   8.021   3.393 -0.3323 -3.0256 -0.6077
  939MOL0     O26631   0.039   4.899   6.999  0.0766 -0.8238  0.1777
  939MOL0     C26632  -0.010   4.907   7.114 -0.2169  0.3307 -0.2957
  939MOL0     O26633   0.070   4.913   7.223  0.0152 -0.1183  0.3244
  939MOL0     C26634   0.194   4.949   7.201  0.2292 -0.6151  0.4166
  939MOL0     C26635   0.299   4.859   7.234  0.0251 -0.3741  0.1531
  939MOL0     C26636   0.433   4.889   7.213  1.0065 -0.0886  0.3499
  939MOL0     C26637   0.467   4.999   7.148  0.2758 -0.1248  0.3727
  939MOL0     O26638   0.601   5.006   7.116 -0.5230 -0.4033  0.5636
  939MOL0     C26639   0.662   5.133   7.090 -0.6613 -0.4677  0.0318
  939MOL0     C26640   0.691   5.199   7.226  0.2502 -0.0244  1.3050
  939MOL0     C26641   0.785   5.117   7.312  0.2904  0.3350 -0.0899
  939MOL0     C26642   0.798   5.195   7.448 -0.2861  0.5137  0.3496
  939MOL0     C26643   0.906   5.130   7.533 -0.3893 -0.1479 -0.5258
  939MOL0     C26644   0.917   5.196   7.672 -0.4853 -0.8662 -0.1416
  939MOL0     C26645   0.926   5.093   7.779  0.6775  0.3738 -0.3754
  939MOL0     C26646   1.061   5.004   7.775 -0.3731 -0.2183 -0.1755
  939MOL0     N26647   1.167   5.071   7.835 -0.2330  0.3568 -0.2390
  939MOL0     C26648   1.188   5.067   7.969 -0.4199 -0.6365 -0.5887
  939MOL0     C26649   1.311   5.123   7.989 -0.0042  0.5690  0.9867
  939MOL0     C26650   1.381   5.111   8.121 -0.1733  0.1146 -0.0629
  939MOL0     C26651   1.447   4.979   8.134  0.1423  0.0013  0.6576
  939MOL0     C26652   1.508   4.956   8.275 -0.4772  0.4505  0.7450
  939MOL0     C26653   1.630   4.866   8.244  0.9725  0.0670 -0.1660
  939MOL0     O26654   1.703   4.838   8.364 -0.9569 -0.7079  0.2631
  939MOL0     C26655   1.835   4.803   8.344  0.1795  0.3083  0.0774
  939MOL0     C26656   1.877   4.702   8.258  0.3536 -0.0340 -0.4769
  939MOL0     C26657   2.010   4.676   8.247 -0.5480 -0.5071  0.5098
  939MOL0     C26658   2.107   4.746   8.322  0.7307  0.3875 -0.0325
  939MOL0     C26659   2.249   4.713   8.308 -0.5897  0.8403 -0.1364
  939MOL0     O26660   2.333   4.818   8.323 -0.0017 -0.2448 -0.1574
  939MOL0     C26661   2.460   4.800   8.274 -0.2548  0.4917 -0.7022
  939MOL0     C26662   2.488   4.739   8.148 -0.0330 -0.1241  0.0555
  939MOL0     C26663   2.621   4.741   8.099 -0.5084  0.0854 -0.3147
  939MOL0     C26664   2.733   4.779   8.185 -0.0547  0.2643  0.6244
  939MOL0     O26665   2.866   4.789   8.148  0.3148  0.1728 -0.1230
  939MOL0     C26666   2.900   4.741   8.010  0.3961  0.1247 -0.4262
  939MOL0     C26667   3.035   4.800   7.984 -0.1194 -0.6535 -0.3541
  939MOL0     C26668   3.074   4.751   7.846 -0.3779 -0.0674  0.2967
  939MOL0     C26669   3.216   4.811   7.813 -1.0739 -0.0367 -0.2926
  939MOL0     C26670   3.248   4.802   7.664  0.0272  0.3789 -0.0276
  939MOL0     C26671   3.396   4.842   7.631  0.3654 -0.5071 -0.1627
  939MOL0     C26672   3.423   4.831   7.475 -0.9206  0.0635  0.4055
  939MOL0     C26673   3.496   4.699   7.451  1.0084 -0.1733  0.1423
  939MOL0    Cl26674   3.521   4.698   7.271  0.5855 -0.1695  0.1098
  939MOL0     C26675   2.700   4.835   8.305  0.4956 -0.1426  0.1377
  939MOL0     C26676   2.567   4.839   8.357 -0.2688 -0.0676  0.3426
  939MOL0     O26677   2.289   4.596   8.287 -0.0038 -0.2157 -0.8038
  939MOL0     C26678   2.060   4.849   8.405  0.4352  0.4591  0.8233
  939MOL0     C26679   1.929   4.874   8.417  0.3012 -0.0945 -0.8873
  939MOL0     N26680   1.366   5.152   7.863 -0.6378  0.4264 -0.4865
  939MOL0     N26681   1.276   5.125   7.779  0.2795 -0.7688  0.4600
  939MOL0     C26682   0.366   5.086   7.102 -0.3618 -0.5064  0.3292
  939MOL0     C26683   0.234   5.064   7.140 -0.2016 -0.2149 -1.0606
  939MOL0     C26684  -0.154   4.907   7.136 -1.1834  0.5911 -0.1116
  939MOL0     C26685  -0.206   4.855   7.251  0.0067  0.4359 -0.2220
  939MOL0     C26686  -0.338   4.872   7.294 -0.3176 -0.3282  0.4232
  939MOL0     C26687  -0.430   4.935   7.206 -0.4473  0.1959 -0.9445
  939MOL0     O26688  -0.552   4.974   7.267 -0.5113  0.7476  0.4288
  939MOL0     C26689  -0.645   5.050   7.182  0.0193  0.3261 -0.4688
  939MOL0     C26690  -0.708   4.960   7.076 -0.4255 -0.5106 -0.4063
  939MOL0     C26691  -0.775   4.835   7.129 -0.2261  0.2212  0.2621
  939MOL0     C26692  -0.839   4.743   7.026  0.3998  0.6453  0.4495
  939MOL0     C26693  -0.953   4.806   6.971  0.7765 -0.3223  0.2332
  939MOL0     C26694  -1.049   4.855   6.926 -0.4511  0.1654  0.4133
  939MOL0     C26695  -0.379   4.987   7.085 -0.2048 -0.7309  0.1888
  939MOL0     C26696  -0.246   4.965   7.050  0.3667  0.4470  0.9069
  939MOL0     C26697  -0.210   5.027   6.919  0.1190  0.4525  0.2430
  939MOL0     H26698   0.272   4.762   7.275  1.3975 -1.0932 -0.5511
  939MOL0     H26699   0.517   4.823   7.231 -0.8050 -1.9642  2.4659
  939MOL0     H26700   0.757   5.132   7.036 -1.1575  2.0256 -0.9995
  939MOL0     H26701   0.601   5.197   7.026  2.9398 -0.1924 -3.4968
  939MOL0     H26702   0.590   5.213   7.265 -0.2853  1.4522 -0.4589
  939MOL0     H26703   0.738   5.297   7.212  0.1198  0.1349  1.9566
  939MOL0     H26704   0.886   5.111   7.270 -0.2275 -1.4452 -1.1571
  939MOL0     H26705   0.738   5.019   7.325  0.7533  0.4057  2.6170
  939MOL0     H26706   0.831   5.296   7.422 -2.0418  1.0227 -0.0613
  939MOL0     H26707   0.700   5.204   7.496  0.0558  1.0421  0.9766
  939MOL0     H26708   0.893   5.022   7.538  1.1164 -0.2921  1.2577
  939MOL0     H26709   1.007   5.148   7.494  0.9068 -2.3356  1.5765
  939MOL0     H26710   1.002   5.266   7.674 -1.2207  0.0543 -0.1568
  939MOL0     H26711   0.824   5.252   7.686 -2.2104 -2.8837 -2.5778
  939MOL0     H26712   0.842   5.024   7.765 -0.6137  1.8572 -0.2036
  939MOL0     H26713   0.919   5.137   7.878 -0.0404 -1.9579  0.6747
  939MOL0     H26714   1.042   4.908   7.824  1.2696 -2.4484 -3.5816
  939MOL0     H26715   1.082   4.983   7.670  2.0910  1.7897 -0.1872
  939MOL0     H26716   1.125   5.032   8.050 -1.0883  2.6132  0.4184
  939MOL0     H26717   1.461   5.185   8.132 -0.4983  0.1817  2.3012
  939MOL0     H26718   1.303   5.127   8.196 -1.1358  2.7879 -1.4935
  939MOL0     H26719   1.377   4.897   8.113  0.8540 -0.8196  1.4149
  939MOL0     H26720   1.518   4.969   8.051 -0.5427 -3.7751  0.3525
  939MOL0     H26721   1.435   4.910   8.343  0.5780 -1.6246  0.5444
  939MOL0     H26722   1.534   5.052   8.320 -2.0890  2.1618 -1.7210
  939MOL0     H26723   1.691   4.911   8.166  0.1768 -1.3845 -1.6924
  939MOL0     H26724   1.593   4.773   8.199 -0.1030  0.8064 -0.8581
  939MOL0     H26725   1.803   4.648   8.201 -4.4023  3.7214  1.4936
  939MOL0     H26726   2.054   4.596   8.189 -1.9228 -1.2236  0.4116
  939MOL0     H26727   2.419   4.692   8.078  1.3094 -2.9936  0.5105
  939MOL0     H26728   2.652   4.695   8.006 -1.5899 -0.0831 -0.6045
  939MOL0     H26729   2.899   4.631   8.014 -0.8519  0.1378  0.2092
  939MOL0     H26730   2.831   4.776   7.934 -0.4257  0.8332  0.6172
  939MOL0     H26731   3.038   4.909   7.993  2.5767 -0.8206  2.7567
  939MOL0     H26732   3.111   4.764   8.054  0.9394 -0.6163 -1.4443
  939MOL0     H26733   3.078   4.642   7.836  0.9045  0.0218 -0.2807
  939MOL0     H26734   3.000   4.793   7.777  0.0525 -1.9612 -1.4294
  939MOL0     H26735   3.291   4.762   7.876  0.0197 -0.0572 -1.5593
  939MOL0     H26736   3.231   4.917   7.835  0.4779  0.9184 -4.8833
  939MOL0     H26737   3.173   4.857   7.608 -1.0074  0.1804  1.1123
  939MOL0     H26738   3.255   4.695   7.641  0.1666  0.2113  0.7467
  939MOL0     H26739   3.392   4.951   7.644  1.1956  0.2479 -4.6935
  939MOL0     H26740   3.477   4.801   7.693  0.0820  1.0478  1.3042
  939MOL0     H26741   3.491   4.910   7.442 -2.7129  1.7800  0.6598
  939MOL0     H26742   3.330   4.838   7.419 -1.5860  3.1137  1.6487
  939MOL0     H26743   3.595   4.710   7.494  1.9968 -2.5172 -1.3063
  939MOL0     H26744   3.435   4.613   7.482 -1.6741  1.2820 -0.7114
  939MOL0     H26745   2.777   4.876   8.368 -1.0735  3.2266  0.0793
  939MOL0     H26746   2.560   4.880   8.457 -1.0570  2.0150 -0.5182
  939MOL0     H26747   2.130   4.909   8.462  0.4065 -0.7556  2.1894
  939MOL0     H26748   1.896   4.943   8.493  1.0139 -2.7093  2.0147
  939MOL0     H26749   0.388   5.174   7.043  0.8641  0.4581  2.1336
  939MOL0     H26750   0.159   5.139   7.115  0.6153  1.3264  0.8722
  939MOL0     H26751  -0.132   4.811   7.316  0.4815  0.7390 -0.5493
  939MOL0     H26752  -0.366   4.854   7.397  3.0154 -0.1773  1.4883
  939MOL0     H26753  -0.597   5.140   7.141  2.5966  0.9086  3.2702
  939MOL0     H26754  -0.720   5.100   7.245 -0.1430  2.2158 -2.0467
  939MOL0     H26755  -0.621   4.928   7.016  0.4019 -0.5950  0.8026
  939MOL0     H26756  -0.776   5.022   7.018 -3.0717  0.2283  3.1740
  939MOL0     H26757  -0.844   4.869   7.206  1.2918 -0.6008  2.0812
  939MOL0     H26758  -0.701   4.781   7.188 -0.4457  0.3137  0.6263
  939MOL0     H26759  -0.768   4.719   6.946 -0.3788  0.7207 -0.2723
  939MOL0     H26760  -0.873   4.650   7.073  0.2046  0.2212 -0.4922
  939MOL0     H26761  -1.139   4.888   6.878  0.9889  2.6797 -0.8060
  939MOL0     H26762  -0.437   5.045   7.015 -0.5302 -0.7336  0.4541
  939MOL0     H26763  -0.266   5.117   6.893 -0.5856 -0.4423 -1.4953
  939MOL0     H26764  -0.108   5.068   6.918  0.0954  0.6136  2.1691
  939MOL0     H26765  -0.221   4.952   6.840 -4.5126  1.4809 -0.3289
  940MOL0     O26766   7.048   7.179   1.858 -0.3982  0.3065 -0.5914
  940MOL0     C26767   7.045   7.088   1.939  0.8288  0.4725 -0.4745
  940MOL0     O26768   7.156   7.027   1.991 -0.3698 -0.3145  0.2397
  940MOL0     C26769   7.280   7.056   1.940  0.4711  0.4823 -0.1365
  940MOL0     C26770   7.334   6.989   1.831  1.0134  0.5366  0.4797
  940MOL0     C26771   7.458   7.031   1.788 -0.3467 -0.7461  0.0797
  940MOL0     C26772   7.525   7.144   1.835  0.0538 -0.0361  0.2595
  940MOL0     O26773   7.644   7.167   1.768 -0.5905 -0.1045  1.1379
  940MOL0     C26774   7.763   7.234   1.811  0.2973 -0.5486 -0.1172
  940MOL0     C26775   7.836   7.157   1.912 -0.4584 -0.6066 -0.2135
  940MOL0     C26776   7.972   7.226   1.942 -0.3323  0.8462  0.4033
  940MOL0     C26777   8.029   7.207   2.095  0.6455  0.2747  0.7699
  940MOL0     C26778   8.178   7.228   2.097 -0.0591 -0.3711  0.3120
  940MOL0     C26779   8.226   7.228   2.246 -0.1564 -0.3194 -0.2407
  940MOL0     C26780   8.365   7.170   2.251  0.5304 -0.6057 -0.1077
  940MOL0     C26781   8.404   7.148   2.402 -0.3401  0.2688  0.4726
  940MOL0     N26782   8.489   7.251   2.461  0.3600  0.0849  0.6323
  940MOL0     C26783   8.617   7.258   2.463 -0.3995  0.1674  0.3051
  940MOL0     C26784   8.638   7.372   2.528 -0.0547  0.0688 -0.3624
  940MOL0     C26785   8.766   7.447   2.555  0.7283  1.0474  0.2707
  940MOL0     C26786   8.852   7.386   2.666  0.8078 -0.0132  0.2324
  940MOL0     C26787   8.980   7.469   2.686  0.0349  0.6926  0.6439
  940MOL0     C26788   9.082   7.380   2.761  0.4697  1.1067 -0.2508
  940MOL0     O26789   9.207   7.440   2.768 -0.2277  0.3036  0.3193
  940MOL0     C26790   9.302   7.415   2.670 -0.5622  0.1913  0.4154
  940MOL0     C26791   9.284   7.358   2.540 -0.5219 -0.5504  0.1742
  940MOL0     C26792   9.394   7.325   2.463  0.0936 -0.8504 -0.3738
  940MOL0     C26793   9.528   7.361   2.501 -0.2072  0.0228  0.4050
  940MOL0     C26794   9.643   7.326   2.421  0.1711  0.7671  0.1994
  940MOL0     O26795   9.767   7.365   2.478  0.3967  0.1969  0.5119
  940MOL0     C26796   9.880   7.334   2.407  1.2155 -0.3056  0.3321
  940MOL0     C26797   9.972   7.253   2.476  0.5838 -0.1702  0.0435
  940MOL0     C26798  10.095   7.224   2.414 -0.1387 -0.2932 -0.1782
  940MOL0     C26799  10.131   7.288   2.295  0.3926 -0.5431 -0.2106
  940MOL0     O26800  10.252   7.268   2.241 -0.1635  0.1658 -0.7570
  940MOL0     C26801  10.251   7.162   2.140  0.5802 -0.4157 -0.3954
  940MOL0     C26802  10.296   7.224   2.006  0.0012  0.3977  0.1612
  940MOL0     C26803  10.295   7.129   1.881 -0.1102  0.0076  0.2026
  940MOL0     C26804  10.152   7.079   1.843 -0.7161 -0.7903 -0.2319
  940MOL0     C26805  10.131   7.003   1.708 -0.2608 -0.2595 -0.9687
  940MOL0     C26806   9.983   6.963   1.691  0.6123  0.3173 -0.3967
  940MOL0     C26807   9.964   6.894   1.562  1.5447 -0.4979  0.2269
  940MOL0     C26808   9.937   6.990   1.438 -0.3014 -0.6797 -0.0117
  940MOL0    Cl26809   9.795   7.084   1.439  0.2278  0.4346  0.3474
  940MOL0     C26810  10.042   7.375   2.229 -0.3476  0.1208  0.4201
  940MOL0     C26811   9.908   7.389   2.286  0.2142  0.2248  0.6545
  940MOL0     O26812   9.628   7.259   2.313  0.9095 -0.0278 -0.4813
  940MOL0     C26813   9.538   7.430   2.625  0.0791 -0.8048 -0.5899
  940MOL0     C26814   9.430   7.457   2.711  0.0354 -0.0463  0.6338
  940MOL0     N26815   8.523   7.411   2.589 -0.0328  0.2013 -0.2884
  940MOL0     N26816   8.431   7.341   2.543 -0.3282  0.7098  0.3835
  940MOL0     C26817   7.472   7.209   1.950 -0.1569 -0.0453 -0.0175
  940MOL0     C26818   7.356   7.159   1.999  0.0456 -0.0892 -0.9775
  940MOL0     C26819   6.914   7.044   1.980 -0.1099 -0.3143  0.0688
  940MOL0     C26820   6.898   6.982   2.108  0.1511 -0.0511 -0.1931
  940MOL0     C26821   6.772   6.954   2.168  0.2514 -0.7512  0.3326
  940MOL0     C26822   6.657   6.966   2.082  0.4424  0.4705 -0.2074
  940MOL0     O26823   6.531   6.925   2.118 -0.3080 -0.0931 -0.4752
  940MOL0     C26824   6.507   6.907   2.266  0.3797  0.4985  0.1191
  940MOL0     C26825   6.359   6.960   2.303 -0.6811  0.7450 -0.4281
  940MOL0     C26826   6.256   6.862   2.245 -0.5578 -0.2423 -0.3185
  940MOL0     C26827   6.124   6.887   2.310  0.5855 -0.4490 -0.4693
  940MOL0     C26828   6.022   6.800   2.263 -0.0268 -0.3278  0.4677
  940MOL0     C26829   5.931   6.730   2.222  0.7293 -0.6567 -0.1563
  940MOL0     C26830   6.671   7.015   1.953 -0.5409  0.1111 -0.2752
  940MOL0     C26831   6.792   7.059   1.904 -0.7483  0.6657  1.1104
  940MOL0     C26832   6.791   7.117   1.766  0.3530 -0.5421 -0.3347
  940MOL0     H26833   7.282   6.910   1.779  0.4399  1.2373 -0.0454
  940MOL0     H26834   7.498   6.982   1.699  0.4430  1.5149 -0.8772
  940MOL0     H26835   7.832   7.256   1.729  0.5521  0.9738  0.4578
  940MOL0     H26836   7.744   7.333   1.854 -0.0439 -1.8409  3.0165
  940MOL0     H26837   7.856   7.058   1.872 -0.1760 -0.2473 -0.9679
  940MOL0     H26838   7.785   7.146   2.009  0.5939 -1.9946  0.2081
  940MOL0     H26839   7.978   7.335   1.938 -1.2135  0.8891  0.2834
  940MOL0     H26840   8.041   7.182   1.870 -2.1694 -1.1172 -0.2497
  940MOL0     H26841   7.977   7.276   2.163  2.4922  2.3497  0.1970
  940MOL0     H26842   8.006   7.110   2.140 -1.7604  0.2327 -0.3810
  940MOL0     H26843   8.221   7.149   2.035 -0.7949 -0.5500  0.0203
  940MOL0     H26844   8.204   7.325   2.054 -0.7849 -0.4682 -0.3806
  940MOL0     H26845   8.227   7.331   2.282 -0.1628 -0.5899  0.5389
  940MOL0     H26846   8.164   7.171   2.315  0.0792  0.3070  0.5100
  940MOL0     H26847   8.435   7.223   2.186 -0.7919  1.1294 -0.2193
  940MOL0     H26848   8.361   7.074   2.199  2.0082 -1.0706  0.5964
  940MOL0     H26849   8.314   7.153   2.464 -1.1242  0.8587 -0.6844
  940MOL0     H26850   8.467   7.058   2.408  0.8376  1.0938  0.8611
  940MOL0     H26851   8.693   7.195   2.419 -0.7449  0.1384 -0.2663
  940MOL0     H26852   8.821   7.432   2.461  0.9378 -1.8076  0.7385
  940MOL0     H26853   8.737   7.549   2.582 -1.0411  0.2707  1.4778
  940MOL0     H26854   8.790   7.375   2.755  0.5772 -0.5750  0.0080
  940MOL0     H26855   8.871   7.283   2.635 -3.0255 -1.7763  2.9392
  940MOL0     H26856   8.953   7.564   2.732 -0.6019  1.5852 -1.4607
  940MOL0     H26857   9.030   7.490   2.591  0.7843 -0.7815  0.6739
  940MOL0     H26858   9.088   7.282   2.714 -1.8498  0.8061 -0.0402
  940MOL0     H26859   9.032   7.372   2.858 -1.3033  1.5394 -1.0846
  940MOL0     H26860   9.183   7.343   2.502 -0.1399 -1.1332 -0.6399
  940MOL0     H26861   9.375   7.272   2.370  0.5044  0.4114 -1.2166
  940MOL0     H26862   9.948   7.201   2.568 -6.3154 -0.1134 -1.1923
  940MOL0     H26863  10.169   7.161   2.462  0.4004  1.7442  1.8169
  940MOL0     H26864  10.316   7.076   2.158 -0.2615 -1.2298 -1.1444
  940MOL0     H26865  10.155   7.114   2.116  1.8477 -1.6221 -3.5167
  940MOL0     H26866  10.236   7.312   1.980  1.8245  1.8093  0.4952
  940MOL0     H26867  10.401   7.255   2.015 -0.2361  0.8612  1.5338
  940MOL0     H26868  10.331   7.174   1.788  0.7941 -2.6301 -0.8149
  940MOL0     H26869  10.360   7.046   1.906  1.5372 -0.4462 -4.5360
  940MOL0     H26870  10.081   7.161   1.848 -0.1028 -0.2971  1.0619
  940MOL0     H26871  10.133   7.009   1.925 -1.2731 -2.0232 -1.3857
  940MOL0     H26872  10.181   6.906   1.712  0.0637 -0.1483 -2.0229
  940MOL0     H26873  10.156   7.065   1.622 -2.7534 -2.1471 -3.2514
  940MOL0     H26874   9.964   6.884   1.764  1.3761 -2.8722 -3.3419
  940MOL0     H26875   9.911   7.044   1.695 -0.1185 -0.3169 -0.4067
  940MOL0     H26876   9.880   6.825   1.574  2.6231 -1.9815 -0.3833
  940MOL0     H26877  10.048   6.829   1.533  0.2884 -2.2071  0.2540
  940MOL0     H26878  10.017   7.064   1.441 -0.7484 -0.0987 -1.7382
  940MOL0     H26879   9.935   6.928   1.349  1.0982 -0.0729 -0.4893
  940MOL0     H26880  10.073   7.422   2.136  0.3259  0.2164  0.6876
  940MOL0     H26881   9.841   7.457   2.236  2.4017  0.8517 -1.6338
  940MOL0     H26882   9.640   7.429   2.663 -0.4891 -3.5320  1.1579
  940MOL0     H26883   9.432   7.501   2.810 -0.7987 -2.9500  2.0652
  940MOL0     H26884   7.519   7.299   1.987 -2.4944  0.9734  0.6223
  940MOL0     H26885   7.309   7.201   2.088  0.8875  1.4145 -1.2000
  940MOL0     H26886   6.980   6.963   2.178 -0.9808  0.4112  1.3093
  940MOL0     H26887   6.764   6.914   2.269  3.3447 -3.0272 -0.1851
  940MOL0     H26888   6.574   6.968   2.327 -1.2154 -0.2845  2.8288
  940MOL0     H26889   6.519   6.802   2.295 -1.2344 -0.1287 -1.2581
  940MOL0     H26890   6.347   7.065   2.275 -0.3029  0.4407 -1.8417
  940MOL0     H26891   6.348   6.952   2.411  0.3074 -1.0409 -0.4220
  940MOL0     H26892   6.277   6.760   2.278  1.2222  0.3896  0.6277
  940MOL0     H26893   6.259   6.856   2.136 -0.3424 -2.8190 -0.2315
  940MOL0     H26894   6.133   6.875   2.419 -0.7056  1.2585 -0.1166
  940MOL0     H26895   6.084   6.988   2.295 -0.1036 -0.1660  2.5168
  940MOL0     H26896   5.851   6.672   2.181 -0.4941 -1.5418  3.1505
  940MOL0     H26897   6.578   7.032   1.900 -1.2177 -2.1190  0.1211
  940MOL0     H26898   6.879   7.092   1.707 -0.2013  0.5364 -1.6910
  940MOL0     H26899   6.706   7.076   1.711  1.5370 -0.4430 -2.3371
  940MOL0     H26900   6.790   7.227   1.769  5.0556 -0.3364  1.1355
  941MOL0     O26901   4.031   9.222   0.289  0.5290  0.0489 -0.8257
  941MOL0     C26902   4.023   9.306   0.202 -0.5897 -0.3163  0.1783
  941MOL0     O26903   3.927   9.313   0.108  0.0772 -0.0562 -0.3377
  941MOL0     C26904   3.803   9.249   0.125  0.4076  0.0245 -0.2363
  941MOL0     C26905   3.710   9.309   0.210 -0.5205 -0.0870 -0.7856
  941MOL0     C26906   3.581   9.265   0.237 -0.9668  0.3946 -0.1067
  941MOL0     C26907   3.539   9.154   0.163  0.1290  0.0426  0.1921
  941MOL0     O26908   3.413   9.111   0.189  0.4434  0.5871  0.4789
  941MOL0     C26909   3.341   9.027   0.096 -0.3301  0.4477  0.7020
  941MOL0     C26910   3.194   9.052   0.136 -0.2326  0.1573 -0.2519
  941MOL0     C26911   3.151   8.980   0.265  0.1383 -0.8286 -0.1545
  941MOL0     C26912   3.007   8.985   0.292 -0.2128 -0.2609 -0.3850
  941MOL0     C26913   2.913   8.898   0.201  1.1333  0.4099  0.0767
  941MOL0     C26914   2.950   8.754   0.178  0.7811  0.4597  0.6215
  941MOL0     C26915   2.956   8.671   0.305 -0.0633  0.6965 -0.1966
  941MOL0     C26916   2.984   8.525   0.278  0.7914  0.3487 -0.0517
  941MOL0     N26917   3.112   8.502   0.211  0.1404  0.5789 -0.5567
  941MOL0     C26918   3.229   8.556   0.262  0.2530  0.7923  0.4198
  941MOL0     C26919   3.326   8.488   0.190 -0.3940  0.0963  0.4218
  941MOL0     C26920   3.477   8.510   0.197  0.2785  1.4476  0.5903
  941MOL0     C26921   3.521   8.655   0.169  0.3621  1.0154 -0.6155
  941MOL0     C26922   3.669   8.660   0.144 -0.3567  1.0538  1.3310
  941MOL0     C26923   3.701   8.621   0.002 -0.0021 -0.7420 -0.3514
  941MOL0     O26924   3.838   8.647  -0.021 -0.4985  0.7130 -0.5315
  941MOL0     C26925   3.885   8.682  -0.139  0.0660  0.4723  0.3688
  941MOL0     C26926   3.804   8.680  -0.250 -0.9949 -0.1068 -0.0438
  941MOL0     C26927   3.849   8.723  -0.380 -0.5953 -0.7131  0.9622
  941MOL0     C26928   3.978   8.781  -0.401 -0.8445 -0.3780  0.5503
  941MOL0     C26929   4.013   8.837  -0.529  0.7667  0.2573  0.3020
  941MOL0     O26930   3.914   8.850  -0.622  0.3579 -0.5392  0.4284
  941MOL0     C26931   3.915   8.916  -0.740 -0.2782 -0.0861 -0.5403
  941MOL0     C26932   4.029   8.950  -0.817 -0.6127 -0.2112 -0.4394
  941MOL0     C26933   4.016   9.027  -0.933  0.9077  0.0294 -0.0393
  941MOL0     C26934   3.892   9.082  -0.981  0.1633  0.0623 -0.4221
  941MOL0     O26935   3.874   9.180  -1.077 -0.9363  0.0109  0.2130
  941MOL0     C26936   3.956   9.165  -1.192 -0.6973 -0.5427  0.3614
  941MOL0     C26937   3.899   9.232  -1.316 -0.8605  0.4329 -0.5980
  941MOL0     C26938   3.757   9.185  -1.358 -0.9405  0.5460 -0.3267
  941MOL0     C26939   3.744   9.210  -1.510 -0.4907  0.2126 -0.2775
  941MOL0     C26940   3.601   9.170  -1.547 -1.0175 -0.3323 -0.7488
  941MOL0     C26941   3.554   9.202  -1.686  0.1801 -0.5146  0.7203
  941MOL0     C26942   3.516   9.345  -1.701 -0.5268  0.0293 -0.6299
  941MOL0     C26943   3.436   9.366  -1.835 -0.2060 -0.6741  0.0993
  941MOL0    Cl26944   3.392   9.543  -1.864 -0.3377 -0.4128  0.1956
  941MOL0     C26945   3.779   9.045  -0.902  0.6186  0.0742  0.1230
  941MOL0     C26946   3.790   8.971  -0.780  0.5590  0.0411 -0.0960
  941MOL0     O26947   4.134   8.839  -0.550  0.6797 -0.5802 -0.3397
  941MOL0     C26948   4.057   8.788  -0.284  0.0737 -0.3614 -0.3948
  941MOL0     C26949   4.007   8.735  -0.160  0.4018  0.4594 -0.3662
  941MOL0     N26950   3.268   8.374   0.119  0.3348 -0.1333 -0.6412
  941MOL0     N26951   3.143   8.390   0.132 -0.0638 -0.3635  0.1690
  941MOL0     C26952   3.634   9.081   0.076  0.6796 -0.2341 -0.5192
  941MOL0     C26953   3.765   9.136   0.052  0.0793 -0.0575 -0.0849
  941MOL0     C26954   4.140   9.398   0.177  0.7808  0.3560 -0.1429
  941MOL0     C26955   4.153   9.461   0.043 -0.1768  0.8127 -0.8753
  941MOL0     C26956   4.273   9.524   0.018  0.7436 -0.0186  0.1635
  941MOL0     C26957   4.376   9.544   0.112 -0.5845 -0.0605 -0.6000
  941MOL0     O26958   4.488   9.626   0.078  0.2083  0.5193 -0.0659
  941MOL0     C26959   4.611   9.606   0.142 -0.3168 -0.3079 -0.2710
  941MOL0     C26960   4.721   9.630   0.039 -0.4593 -0.1404 -0.0267
  941MOL0     C26961   4.861   9.600   0.099  0.3028  0.5008 -0.7788
  941MOL0     C26962   4.915   9.721   0.193  0.9360  0.7769  0.1748
  941MOL0     C26963   5.060   9.705   0.222 -0.5248 -0.5258  0.5344
  941MOL0     C26964   5.174   9.688   0.244 -0.8368 -0.3476  0.0650
  941MOL0     C26965   4.355   9.496   0.241 -0.2037  0.7870 -1.0192
  941MOL0     C26966   4.244   9.423   0.277  0.5900  0.5323 -0.0980
  941MOL0     C26967   4.248   9.371   0.416  0.4573  0.0360  0.1562
  941MOL0     H26968   3.749   9.399   0.257 -0.4009  1.2276 -3.2336
  941MOL0     H26969   3.513   9.306   0.311  0.3040  1.6290  0.4314
  941MOL0     H26970   3.362   9.069  -0.004 -1.2765 -3.7407 -1.4843
  941MOL0     H26971   3.380   8.925   0.093  1.6924  1.1640  1.3515
  941MOL0     H26972   3.129   9.014   0.057 -1.2854 -0.2899  0.8021
  941MOL0     H26973   3.181   9.160   0.148 -0.2845  0.0958  0.2352
  941MOL0     H26974   3.192   9.039   0.348 -0.3304  0.5263 -0.8575
  941MOL0     H26975   3.181   8.875   0.266 -2.1923 -1.5395  1.5097
  941MOL0     H26976   2.999   8.958   0.398 -3.3459 -1.6529 -0.8623
  941MOL0     H26977   2.975   9.087   0.269 -0.8669 -0.2613  0.4597
  941MOL0     H26978   2.810   8.890   0.238 -1.0544 -2.2732 -5.4506
  941MOL0     H26979   2.907   8.949   0.105  0.3051  2.8109  1.3195
  941MOL0     H26980   2.867   8.719   0.116 -1.0554  0.2083  3.0808
  941MOL0     H26981   3.043   8.737   0.124  0.8808 -1.3831  1.3015
  941MOL0     H26982   2.857   8.675   0.351 -1.1314 -1.4921 -2.0857
  941MOL0     H26983   3.043   8.701   0.364  1.0030 -0.3428 -1.1773
  941MOL0     H26984   2.974   8.471   0.372  0.4688 -2.3708 -1.5514
  941MOL0     H26985   2.903   8.481   0.218 -1.7828  1.1965  2.5801
  941MOL0     H26986   3.244   8.631   0.338  0.7635  0.4765  0.6397
  941MOL0     H26987   3.502   8.488   0.301 -0.3216  1.1723  0.6828
  941MOL0     H26988   3.519   8.436   0.129  2.2043  1.7215  1.4286
  941MOL0     H26989   3.460   8.699   0.090 -1.6228  1.5964  1.1811
  941MOL0     H26990   3.491   8.711   0.257  1.0852  1.0330 -0.3757
  941MOL0     H26991   3.716   8.588   0.212  1.5531  1.2402  0.2905
  941MOL0     H26992   3.708   8.761   0.163  1.8894  1.2496 -2.9815
  941MOL0     H26993   3.640   8.681  -0.066  0.3725 -0.0272 -0.0707
  941MOL0     H26994   3.676   8.515  -0.012 -1.3427 -0.9988  2.9967
  941MOL0     H26995   3.706   8.633  -0.250  0.3439 -3.1717  0.1473
  941MOL0     H26996   3.784   8.706  -0.465 -0.0429  0.1528  0.3528
  941MOL0     H26997   4.125   8.909  -0.786 -1.7123 -2.0795  0.7090
  941MOL0     H26998   4.100   9.057  -0.995  1.9682  0.9571  1.7631
  941MOL0     H26999   4.059   9.196  -1.170 -0.7294 -0.0809 -0.1338
  941MOL0     H27000   3.959   9.058  -1.215 -1.5761 -0.2362 -1.3395
  941MOL0     H27001   3.898   9.342  -1.316 -1.2404  0.4292 -0.4463
  941MOL0     H27002   3.972   9.209  -1.394  0.1927 -0.0738  0.4995
  941MOL0     H27003   3.733   9.078  -1.350  0.4192  0.1773 -0.7772
  941MOL0     H27004   3.685   9.227  -1.288 -2.3373  0.0658 -1.4272
  941MOL0     H27005   3.809   9.134  -1.555  2.4341  1.3251  1.7447
  941MOL0     H27006   3.762   9.315  -1.534 -0.2045  0.1298 -0.4252
  941MOL0     H27007   3.546   9.229  -1.473  2.9867 -0.6812  2.9124
  941MOL0     H27008   3.582   9.065  -1.523 -1.0547  0.3143  2.3781
  941MOL0     H27009   3.618   9.168  -1.768 -0.1367 -1.1132  0.7113
  941MOL0     H27010   3.459   9.148  -1.698 -2.2022  3.5791 -0.8896
  941MOL0     H27011   3.608   9.401  -1.721 -0.6588  0.8853  0.9743
  941MOL0     H27012   3.470   9.380  -1.608  1.6009 -2.6723  1.6256
  941MOL0     H27013   3.499   9.327  -1.915 -2.0748  0.5202 -2.0742
  941MOL0     H27014   3.343   9.307  -1.830  0.3277 -1.4792  0.9523
  941MOL0     H27015   3.680   9.084  -0.928  0.6781 -0.0468 -0.2961
  941MOL0     H27016   3.699   8.953  -0.724 -1.8377 -2.0483 -4.2181
  941MOL0     H27017   4.148   8.847  -0.290 -0.6920  0.8413 -0.3638
  941MOL0     H27018   4.076   8.752  -0.079 -0.9004 -1.3155  1.2168
  941MOL0     H27019   3.609   8.984   0.034 -1.9784 -0.7398  1.8573
  941MOL0     H27020   3.836   9.086  -0.012 -0.7313 -1.4405  0.0647
  941MOL0     H27021   4.086   9.454  -0.041 -0.4368 -1.3454 -0.5578
  941MOL0     H27022   4.282   9.571  -0.080 -0.3504 -2.2636 -1.1038
  941MOL0     H27023   4.624   9.510   0.194 -0.8341 -0.6587 -0.7791
  941MOL0     H27024   4.610   9.677   0.226 -1.6191  0.8819 -1.2500
  941MOL0     H27025   4.716   9.734   0.005  0.8814 -0.1330 -0.2451
  941MOL0     H27026   4.698   9.570  -0.049 -2.3421  2.6686 -1.6184
  941MOL0     H27027   4.931   9.571   0.020 -0.0673 -3.1635  0.0706
  941MOL0     H27028   4.848   9.507   0.155  0.4533 -0.9763 -3.0613
  941MOL0     H27029   4.898   9.810   0.130  1.9104 -1.1780 -3.1057
  941MOL0     H27030   4.862   9.728   0.288 -2.6768 -1.1389 -1.4828
  941MOL0     H27031   5.277   9.657   0.244 -0.9466 -0.8164  1.4164
  941MOL0     H27032   4.442   9.507   0.305 -2.1260  0.2539  1.8775
  941MOL0     H27033   4.324   9.414   0.481  0.6142  0.6154 -0.3935
  941MOL0     H27034   4.152   9.399   0.460  1.6200  0.6952  2.4408
  941MOL0     H27035   4.241   9.262   0.420 -0.3601 -0.2016 -3.4972
  942MOL0     O27036   7.668   8.192  11.083 -0.4566  0.5651 -0.1298
  942MOL0     C27037   7.665   8.087  11.018  0.4265  0.3183 -0.7055
  942MOL0     O27038   7.764   7.994  11.008 -0.2890  0.7766 -0.3401
  942MOL0     C27039   7.902   8.023  11.026  0.3267  0.2660 -0.3867
  942MOL0     C27040   7.978   7.908  11.012  0.2325  0.0478 -0.4377
  942MOL0     C27041   8.118   7.920  11.019  1.4826 -0.1598 -0.1765
  942MOL0     C27042   8.181   8.041  11.049  0.0144  0.8905  0.0719
  942MOL0     O27043   8.320   8.036  11.061  0.3077 -0.4132 -0.4477
  942MOL0     C27044   8.412   8.149  11.102  0.1409 -0.7127 -0.4228
  942MOL0     C27045   8.509   8.150  10.983  0.1096  0.3813 -0.0606
  942MOL0     C27046   8.645   8.217  10.996  0.3903 -0.1713 -0.2596
  942MOL0     C27047   8.612   8.365  10.991  0.1483  0.1803  0.1334
  942MOL0     C27048   8.733   8.465  10.995 -0.3032 -0.2052  0.2618
  942MOL0     C27049   8.838   8.425  10.896 -0.0433 -0.1696 -0.0860
  942MOL0     C27050   8.939   8.542  10.864  0.8214 -1.0132  0.2324
  942MOL0     C27051   8.986   8.619  10.979  0.4767  0.0653  0.1855
  942MOL0     N27052   9.106   8.695  10.935  0.9906  0.5351 -0.4196
  942MOL0     C27053   9.109   8.829  10.932 -0.5581 -0.2401 -0.2490
  942MOL0     C27054   9.234   8.867  10.899 -1.3021  0.8968  0.8418
  942MOL0     C27055   9.272   9.003  10.897  0.0005  0.5802 -0.4730
  942MOL0     C27056   9.407   9.029  10.967  0.1905 -0.0345 -0.4319
  942MOL0     C27057   9.526   8.969  10.892  0.7703  0.5522  0.2754
  942MOL0     C27058   9.656   9.035  10.931 -0.0909  0.1521  0.5547
  942MOL0     O27059   9.758   8.992  10.831 -0.4207 -1.4207 -0.0644
  942MOL0     C27060   9.878   9.061  10.833  0.2744  0.4509 -0.5143
  942MOL0     C27061   9.946   9.044  10.707 -0.1706  0.0392 -0.0533
  942MOL0     C27062  10.072   9.106  10.694  0.2445  0.3712 -0.0063
  942MOL0     C27063  10.127   9.182  10.797  0.4667  0.9874  0.7017
  942MOL0     C27064  10.251   9.237  10.769  0.4593  0.4408 -0.0454
  942MOL0     O27065  10.304   9.228  10.640  0.2267 -0.5324 -0.2909
  942MOL0     C27066  10.440   9.248  10.630 -0.1843 -0.2125  0.7464
  942MOL0     C27067  10.476   9.352  10.546 -0.1954  0.2455  0.4837
  942MOL0     C27068  10.605   9.378  10.514 -1.2561  0.4490 -0.7914
  942MOL0     C27069  10.706   9.302  10.583  0.1009  0.3414  0.3105
  942MOL0     O27070  10.840   9.328  10.558 -0.2051 -0.1641 -0.5948
  942MOL0     C27071  10.936   9.289  10.660  0.4709 -0.5209 -0.0181
  942MOL0     C27072  11.067   9.376  10.649  0.1480  0.6556 -0.3850
  942MOL0     C27073  11.182   9.310  10.728 -0.4168 -1.0790 -0.2408
  942MOL0     C27074  11.306   9.407  10.744 -0.0978  0.2732 -0.5572
  942MOL0     C27075  11.438   9.328  10.776 -0.0172 -0.1656  0.1854
  942MOL0     C27076  11.566   9.419  10.781  0.8027  0.0878  0.2845
  942MOL0     C27077  11.684   9.335  10.825 -0.2522 -0.1814  0.6403
  942MOL0     C27078  11.816   9.419  10.832 -0.1115 -0.0964 -0.5275
  942MOL0    Cl27079  11.964   9.338  10.901  0.1828  0.1459  0.1738
  942MOL0     C27080  10.668   9.202  10.674  0.0753 -0.6834  0.8660
  942MOL0     C27081  10.533   9.172  10.700 -0.2892 -0.3229  0.6583
  942MOL0     O27082  10.308   9.292  10.863  0.0419 -0.0388  0.3702
  942MOL0     C27083  10.060   9.185  10.928  0.0275 -0.1632 -0.0028
  942MOL0     C27084   9.932   9.131  10.940 -0.8057 -0.5427  0.8504
  942MOL0     N27085   9.311   8.750  10.888  0.3538 -0.7250 -0.3407
  942MOL0     N27086   9.230   8.651  10.904 -0.2032 -0.3815  0.3034
  942MOL0     C27087   8.105   8.153  11.063 -0.0356  0.1291 -0.5526
  942MOL0     C27088   7.963   8.136  11.055 -0.1664 -0.7413  0.6145
  942MOL0     C27089   7.546   8.055  10.940 -0.7715  0.5033 -0.2391
  942MOL0     C27090   7.565   8.004  10.809 -0.2568  0.2992 -0.1560
  942MOL0     C27091   7.457   7.971  10.735  0.2056 -0.1161  0.0158
  942MOL0     C27092   7.323   8.001  10.785  0.3343  0.2544  0.7088
  942MOL0     O27093   7.206   7.983  10.714 -0.8961  0.8375 -0.7016
  942MOL0     C27094   7.212   8.023  10.578 -1.0360 -0.3490 -0.1794
  942MOL0     C27095   7.062   8.061  10.541 -0.5195 -0.0033 -1.2520
  942MOL0     C27096   7.033   8.066  10.392  0.5406 -0.8629 -0.4983
  942MOL0     C27097   6.917   7.979  10.347 -0.2522 -0.2224 -0.6026
  942MOL0     C27098   6.782   8.013  10.413  0.2561 -0.5663 -0.3280
  942MOL0     C27099   6.687   8.039  10.479  1.1821 -0.7233  0.1376
  942MOL0     C27100   7.310   8.036  10.917  0.5142  0.1903  0.8732
  942MOL0     C27101   7.417   8.075  10.997 -0.4091 -0.5128  0.4527
  942MOL0     C27102   7.390   8.128  11.138  0.1259 -0.2403  0.4193
  942MOL0     H27103   7.944   7.806  10.998  2.7023 -0.5522 -3.0502
  942MOL0     H27104   8.176   7.830  11.001  0.5996 -0.3579 -2.4208
  942MOL0     H27105   8.358   8.241  11.122 -3.5843 -2.9679  0.9886
  942MOL0     H27106   8.470   8.134  11.193  1.1288 -1.0641 -1.0848
  942MOL0     H27107   8.453   8.186  10.896 -1.8190 -2.3986 -0.0838
  942MOL0     H27108   8.526   8.044  10.965  1.6203  0.8417 -1.5788
  942MOL0     H27109   8.701   8.185  10.909 -1.8609  0.3546 -2.0014
  942MOL0     H27110   8.701   8.211  11.090 -3.3063  0.0913  2.1915
  942MOL0     H27111   8.563   8.382  10.894 -0.2872  0.5621  0.4192
  942MOL0     H27112   8.550   8.390  11.078 -0.7057 -0.4989 -0.2622
  942MOL0     H27113   8.693   8.565  10.977 -0.2484 -0.2752 -0.2484
  942MOL0     H27114   8.773   8.482  11.096 -2.0804 -0.0389  0.9628
  942MOL0     H27115   8.897   8.340  10.933 -0.7976 -0.7889 -0.2666
  942MOL0     H27116   8.786   8.396  10.804 -1.4670 -2.4465  1.3368
  942MOL0     H27117   8.878   8.615  10.810  1.9025 -0.2344  0.0575
  942MOL0     H27118   9.020   8.495  10.808 -1.1485 -3.4689 -0.8238
  942MOL0     H27119   8.912   8.690  11.018  1.5624  3.0901 -2.7164
  942MOL0     H27120   9.009   8.545  11.056 -0.1485  0.0737  0.3846
  942MOL0     H27121   9.024   8.895  10.947  1.5499  2.6470 -0.0833
  942MOL0     H27122   9.281   9.047  10.797  2.1714  0.7091 -0.2635
  942MOL0     H27123   9.207   9.068  10.957  1.1848 -0.1196  1.6893
  942MOL0     H27124   9.417   9.135  10.989  0.3706 -0.3263  0.9637
  942MOL0     H27125   9.390   8.977  11.062  0.8835  1.1124  0.3441
  942MOL0     H27126   9.511   8.978  10.784  0.3342  2.1992  0.4497
  942MOL0     H27127   9.534   8.863  10.920  2.7455  0.5267 -0.2478
  942MOL0     H27128   9.673   9.006  11.035 -0.5466 -0.4757  0.4560
  942MOL0     H27129   9.639   9.143  10.933 -1.3453 -0.0407  1.5567
  942MOL0     H27130   9.903   8.986  10.626 -1.4961 -1.4167  1.6057
  942MOL0     H27131  10.123   9.097  10.598 -0.6362 -1.9685 -0.3135
  942MOL0     H27132  10.393   9.415  10.516 -1.2950 -0.7835  1.2680
  942MOL0     H27133  10.637   9.460  10.450  4.1931 -2.2093 -2.1089
  942MOL0     H27134  10.898   9.306  10.762 -0.7096 -0.2061 -0.4943
  942MOL0     H27135  10.956   9.182  10.651  0.1874 -0.5300 -0.6075
  942MOL0     H27136  11.101   9.370  10.545 -2.9104  0.6301 -1.4785
  942MOL0     H27137  11.043   9.476  10.684 -3.5242  0.8985 -3.1061
  942MOL0     H27138  11.153   9.276  10.828 -2.7844  0.1717 -0.4205
  942MOL0     H27139  11.218   9.221  10.676  0.7103  0.1966 -1.7660
  942MOL0     H27140  11.296   9.488  10.817 -0.1513  1.8715 -2.2614
  942MOL0     H27141  11.323   9.453  10.646  2.3075 -0.3002 -0.4776
  942MOL0     H27142  11.447   9.245  10.705 -0.5238  0.4360 -0.6051
  942MOL0     H27143  11.427   9.288  10.877 -0.0304 -2.1656 -0.5570
  942MOL0     H27144  11.591   9.462  10.683 -4.6086  0.0901 -1.4340
  942MOL0     H27145  11.534   9.493  10.855  1.1401 -1.0853  1.6602
  942MOL0     H27146  11.699   9.254  10.754 -0.2557 -0.8061  1.3362
  942MOL0     H27147  11.664   9.289  10.922 -1.6726  0.2769  0.5733
  942MOL0     H27148  11.845   9.451  10.732 -0.3239  2.2633  0.0877
  942MOL0     H27149  11.801   9.509  10.892  2.6733  0.8932 -1.1786
  942MOL0     H27150  10.741   9.144  10.729  1.0086 -1.8137 -1.4012
  942MOL0     H27151  10.505   9.108  10.783  1.8105  0.7003  2.2543
  942MOL0     H27152  10.108   9.241  11.008 -2.2349  3.6056 -1.0190
  942MOL0     H27153   9.877   9.127  11.034 -0.6262  1.0732  1.0701
  942MOL0     H27154   8.154   8.245  11.093  1.3388 -0.5825 -0.5275
  942MOL0     H27155   7.907   8.226  11.077 -2.1706 -1.4717 -1.0360
  942MOL0     H27156   7.664   7.993  10.767 -0.0580 -0.1670  0.4201
  942MOL0     H27157   7.462   7.928  10.636  0.0233 -3.2797  1.2418
  942MOL0     H27158   7.242   7.946  10.506  1.7063 -2.4110  2.8295
  942MOL0     H27159   7.277   8.110  10.570  0.4372 -1.4315 -0.4784
  942MOL0     H27160   7.042   8.155  10.594  2.3741 -0.9576  1.9242
  942MOL0     H27161   6.992   7.994  10.592 -0.8288  0.1951 -1.4114
  942MOL0     H27162   7.128   8.037  10.346 -0.0708 -2.0139 -1.1001
  942MOL0     H27163   7.004   8.160  10.345 -3.8383 -3.1845 -3.1539
  942MOL0     H27164   6.907   7.986  10.239 -0.3680  0.6103 -0.5456
  942MOL0     H27165   6.946   7.879  10.381 -1.6305 -0.3739  0.1999
  942MOL0     H27166   6.595   8.056  10.530  0.8042  1.5416 -1.1506
  942MOL0     H27167   7.205   8.053  10.940  0.5864  1.4768  0.3193
  942MOL0     H27168   7.296   8.080  11.170  0.5477 -0.1975  1.7988
  942MOL0     H27169   7.473   8.106  11.206  0.0954  2.3206  1.3694
  942MOL0     H27170   7.371   8.235  11.134 -2.2936 -0.6244 -0.0504
  943MOL0     O27171   0.067   0.319   4.972  0.5497 -0.1549 -1.0780
  943MOL0     C27172   0.050   0.435   5.012 -0.7556 -0.1415  0.3439
  943MOL0     O27173   0.148   0.523   5.038  0.5335  0.5574  0.1530
  943MOL0     C27174   0.273   0.477   5.027 -0.2256  0.5562  0.2430
  943MOL0     C27175   0.343   0.437   5.142  0.1454 -0.3695 -0.1244
  943MOL0     C27176   0.477   0.393   5.143 -0.4134  0.2158  0.0535
  943MOL0     C27177   0.553   0.388   5.018  1.0025  0.4543  0.0777
  943MOL0     O27178   0.685   0.343   5.008  0.1275 -0.3000 -0.2117
  943MOL0     C27179   0.749   0.320   4.885 -0.8444 -0.3703  0.5434
  943MOL0     C27180   0.869   0.233   4.921 -0.0693 -0.0989  0.3133
  943MOL0     C27181   0.969   0.301   5.009  1.2261 -0.0435  0.4494
  943MOL0     C27182   1.105   0.241   4.994  0.3121 -0.4905  0.2712
  943MOL0     C27183   1.197   0.309   5.096 -0.1759 -0.6074  0.1760
  943MOL0     C27184   1.347   0.272   5.067 -0.0338 -0.3591 -0.1211
  943MOL0     C27185   1.444   0.307   5.184 -0.4857  0.4360  0.6190
  943MOL0     C27186   1.585   0.235   5.157  0.7605 -0.4550  0.1839
  943MOL0     N27187   1.690   0.263   5.253 -0.8330 -0.4397 -0.4652
  943MOL0     C27188   1.817   0.207   5.249 -0.4884  0.5671 -0.1981
  943MOL0     C27189   1.877   0.247   5.363  0.0669 -0.4525  0.4384
  943MOL0     C27190   1.999   0.194   5.435  0.1723  0.0557 -0.2650
  943MOL0     C27191   2.116   0.194   5.331 -0.4444  0.8102  0.0603
  943MOL0     C27192   2.237   0.122   5.387 -0.4376  0.8890  0.2893
  943MOL0     C27193   2.224  -0.035   5.374  0.1747  0.0575  0.3829
  943MOL0     O27194   2.353  -0.099   5.406  0.0865  0.0945  0.0671
  943MOL0     C27195   2.409  -0.125   5.284  0.9219 -1.0516 -0.4286
  943MOL0     C27196   2.518  -0.053   5.238  0.5540 -0.0546  0.9139
  943MOL0     C27197   2.585  -0.075   5.116  0.9499 -0.7120 -0.6166
  943MOL0     C27198   2.537  -0.181   5.034  0.1144 -0.4193  0.1868
  943MOL0     C27199   2.597  -0.206   4.903  0.8415  0.0785  0.3375
  943MOL0     O27200   2.696  -0.112   4.869  0.1987  0.0100 -0.3365
  943MOL0     C27201   2.776  -0.128   4.758  0.6260 -0.0384 -0.2305
  943MOL0     C27202   2.719  -0.172   4.644  0.5207 -0.5059  0.9987
  943MOL0     C27203   2.788  -0.197   4.529  0.3167 -0.5359 -0.1815
  943MOL0     C27204   2.925  -0.159   4.519 -1.2379  0.6547 -0.5820
  943MOL0     O27205   2.997  -0.200   4.406  0.3791 -0.4974  0.1914
  943MOL0     C27206   3.139  -0.188   4.401 -0.7641 -0.5704 -0.6966
  943MOL0     C27207   3.170  -0.228   4.258 -0.5596 -0.0236 -0.4785
  943MOL0     C27208   3.314  -0.254   4.211  0.2203 -0.2915  0.7275
  943MOL0     C27209   3.397  -0.337   4.309  0.0338 -0.9457 -0.1309
  943MOL0     C27210   3.539  -0.357   4.255 -0.6413  0.3682 -0.1105
  943MOL0     C27211   3.540  -0.423   4.111 -1.0336  0.6994 -0.0257
  943MOL0     C27212   3.687  -0.488   4.076  0.7311 -0.1358 -0.3456
  943MOL0     C27213   3.804  -0.382   4.079 -0.0496 -0.3645  0.2903
  943MOL0    Cl27214   3.964  -0.466   4.075 -0.5171  0.2923 -0.3306
  943MOL0     C27215   2.980  -0.102   4.635 -0.6726  0.2439  0.2381
  943MOL0     C27216   2.909  -0.074   4.749 -0.1724  0.6803 -0.4976
  943MOL0     O27217   2.567  -0.313   4.846 -0.1645  0.0404 -0.0475
  943MOL0     C27218   2.431  -0.263   5.080 -0.2179  0.1315 -0.1726
  943MOL0     C27219   2.371  -0.236   5.199 -0.2346  0.9323 -0.0368
  943MOL0     N27220   1.781   0.334   5.427 -0.2629  1.5030  0.4174
  943MOL0     N27221   1.675   0.342   5.356  0.2467  0.4275 -0.1951
  943MOL0     C27222   0.482   0.432   4.904  0.5657  0.8958  0.7148
  943MOL0     C27223   0.342   0.470   4.907 -0.3517  0.1797 -0.9324
  943MOL0     C27224  -0.089   0.486   5.039 -0.0312  0.6088 -0.9623
  943MOL0     C27225  -0.101   0.606   5.113  0.4335  0.2672  0.6786
  943MOL0     C27226  -0.219   0.656   5.155 -0.0735 -0.0442 -0.1293
  943MOL0     C27227  -0.337   0.590   5.129 -0.7107  0.2508  0.1062
  943MOL0     O27228  -0.455   0.646   5.176  0.1145 -0.5168  0.4944
  943MOL0     C27229  -0.581   0.606   5.128 -0.1154 -0.0494 -0.4815
  943MOL0     C27230  -0.632   0.494   5.207  0.3221  0.5710 -1.2219
  943MOL0     C27231  -0.773   0.449   5.176  0.3593  0.3448 -0.4971
  943MOL0     C27232  -0.785   0.375   5.045 -0.5581  0.2715  0.7364
  943MOL0     C27233  -0.916   0.319   5.027  0.1108  0.0168 -0.2047
  943MOL0     C27234  -1.033   0.312   5.010 -0.0341 -0.0300  0.3429
  943MOL0     C27235  -0.331   0.471   5.051  0.2960 -0.6787 -0.4145
  943MOL0     C27236  -0.210   0.414   5.011  0.1469 -0.3429  0.0670
  943MOL0     C27237  -0.213   0.297   4.924 -0.1786  0.6605 -0.0538
  943MOL0     H27238   0.287   0.443   5.235  0.5420 -1.6315  0.2139
  943MOL0     H27239   0.530   0.357   5.231  2.2378  0.0114 -1.5291
  943MOL0     H27240   0.678   0.278   4.814 -0.2376 -0.8926  0.2406
  943MOL0     H27241   0.786   0.416   4.846  1.4084 -0.6122  1.8862
  943MOL0     H27242   0.909   0.207   4.823 -1.0457 -1.6069  0.2691
  943MOL0     H27243   0.833   0.138   4.962  3.1419 -1.4740  0.2658
  943MOL0     H27244   0.936   0.292   5.113 -0.3676 -1.2507 -0.1112
  943MOL0     H27245   0.977   0.403   4.970 -1.7571 -0.8737 -2.8764
  943MOL0     H27246   1.115   0.133   5.010  2.1169 -0.6108 -1.3096
  943MOL0     H27247   1.138   0.251   4.890 -1.7927 -2.1108 -0.6439
  943MOL0     H27248   1.192   0.419   5.096  3.5832 -0.3074  0.7717
  943MOL0     H27249   1.165   0.262   5.189 -3.4159  1.7012  0.3843
  943MOL0     H27250   1.352   0.162   5.067 -0.6957 -0.3879 -0.0179
  943MOL0     H27251   1.388   0.305   4.971  0.6684  0.3535  0.4097
  943MOL0     H27252   1.400   0.272   5.277  0.8327 -1.4261  0.5837
  943MOL0     H27253   1.462   0.415   5.187  3.2659 -0.0033 -0.8732
  943MOL0     H27254   1.569   0.128   5.171  3.4461 -1.1020 -0.9383
  943MOL0     H27255   1.620   0.254   5.055 -3.0424  0.1961 -1.1749
  943MOL0     H27256   1.850   0.133   5.176 -0.0861 -0.6390  1.1671
  943MOL0     H27257   2.035   0.264   5.510  0.6183 -0.6859  0.2185
  943MOL0     H27258   1.995   0.089   5.466  0.1834 -0.7013 -2.5957
  943MOL0     H27259   2.095   0.154   5.231 -0.3839  1.2911 -0.1488
  943MOL0     H27260   2.145   0.297   5.308 -0.9715  0.4494 -2.5336
  943MOL0     H27261   2.265   0.151   5.489 -1.6645 -0.6578  1.1128
  943MOL0     H27262   2.321   0.155   5.325 -1.5994  3.7165  0.0603
  943MOL0     H27263   2.196  -0.064   5.272 -1.8011 -2.0786  1.4237
  943MOL0     H27264   2.145  -0.065   5.444  0.0740  2.8825  1.6012
  943MOL0     H27265   2.546   0.038   5.290 -1.0727  0.9426  0.1278
  943MOL0     H27266   2.676  -0.019   5.097  1.4660  0.8048  4.7480
  943MOL0     H27267   2.612  -0.189   4.632  0.4518  1.5661 -2.5065
  943MOL0     H27268   2.740  -0.235   4.439  0.2105 -0.8595  0.0139
  943MOL0     H27269   3.171  -0.087   4.428  2.8730 -1.3982 -1.4736
  943MOL0     H27270   3.182  -0.251   4.480  0.0130 -0.1519 -0.7760
  943MOL0     H27271   3.117  -0.321   4.234  0.1122 -0.6216  0.3099
  943MOL0     H27272   3.133  -0.142   4.201  4.1237  4.0103  1.7937
  943MOL0     H27273   3.313  -0.314   4.120 -1.7849  1.4832 -0.5248
  943MOL0     H27274   3.374  -0.166   4.186  2.3379 -2.0803 -0.9864
  943MOL0     H27275   3.349  -0.433   4.329 -2.2235  0.1993  0.2686
  943MOL0     H27276   3.404  -0.279   4.401  0.8236 -1.0381 -0.1261
  943MOL0     H27277   3.597  -0.415   4.327  2.7432  3.4869 -0.0210
  943MOL0     H27278   3.591  -0.260   4.256  2.1118 -0.8631  4.6252
  943MOL0     H27279   3.468  -0.505   4.108 -0.7032  0.4229 -1.2729
  943MOL0     H27280   3.511  -0.345   4.039 -0.3873 -0.8232 -2.0561
  943MOL0     H27281   3.684  -0.539   3.979 -1.7736  0.4403 -0.6221
  943MOL0     H27282   3.712  -0.564   4.151  0.2777  0.4875  0.4464
  943MOL0     H27283   3.792  -0.314   3.994 -0.2215 -1.6963 -0.7928
  943MOL0     H27284   3.796  -0.317   4.166 -0.4300 -2.1362  1.6227
  943MOL0     H27285   3.082  -0.064   4.636 -1.2915  2.0339  2.3194
  943MOL0     H27286   2.948  -0.034   4.842 -0.1149 -1.2989  0.3872
  943MOL0     H27287   2.409  -0.351   5.021  0.0835 -0.6462  0.8353
  943MOL0     H27288   2.284  -0.295   5.225  0.3793 -0.7850 -1.6837
  943MOL0     H27289   0.535   0.448   4.811  1.0166  0.0180  0.8091
  943MOL0     H27290   0.295   0.510   4.818  0.1187  2.2093 -0.3314
  943MOL0     H27291  -0.018   0.668   5.145  0.9835 -0.2490  0.2717
  943MOL0     H27292  -0.214   0.745   5.217 -1.3958  1.6858 -2.3559
  943MOL0     H27293  -0.574   0.577   5.023  0.6187 -0.9219 -0.2060
  943MOL0     H27294  -0.645   0.695   5.134 -1.3663 -0.9859  0.5936
  943MOL0     H27295  -0.634   0.527   5.311  0.9394  1.9331 -1.6238
  943MOL0     H27296  -0.566   0.407   5.193 -2.9673 -2.7382  1.6860
  943MOL0     H27297  -0.846   0.531   5.179  0.7080  0.6388  0.6058
  943MOL0     H27298  -0.802   0.383   5.259 -1.2786  3.9312  2.0630
  943MOL0     H27299  -0.772   0.438   4.957  0.9335  0.1951  0.8630
  943MOL0     H27300  -0.709   0.296   5.043 -0.2749  0.5396 -0.6102
  943MOL0     H27301  -1.137   0.288   4.997  0.1555 -1.1381  0.7578
  943MOL0     H27302  -0.422   0.429   5.010  0.2488 -1.4623  0.4662
  943MOL0     H27303  -0.147   0.215   4.955  0.5429  1.7779  1.4837
  943MOL0     H27304  -0.314   0.256   4.919 -1.3119  3.1048  1.2866
  943MOL0     H27305  -0.200   0.323   4.819 -3.1730  0.6141 -0.5214
  944MOL0     O27306   8.808   8.899   0.294 -0.5650  0.0381 -0.2141
  944MOL0     C27307   8.808   8.828   0.389 -0.4955 -0.6103 -0.2902
  944MOL0     O27308   8.910   8.793   0.467  0.7270  0.3210 -0.6215
  944MOL0     C27309   9.029   8.863   0.443 -0.2509 -0.9565  1.2973
  944MOL0     C27310   9.035   9.003   0.407 -0.1207  0.1670 -0.9327
  944MOL0     C27311   9.162   9.073   0.415 -0.3410 -0.2716 -0.4601
  944MOL0     C27312   9.285   9.000   0.436  0.6990 -0.6192 -0.7076
  944MOL0     O27313   9.401   9.063   0.430  0.2954 -0.0638 -0.0487
  944MOL0     C27314   9.527   9.002   0.435 -0.5670  0.7443  0.4948
  944MOL0     C27315   9.567   8.957   0.291  0.3337 -0.6545  0.9042
  944MOL0     C27316   9.716   8.970   0.247  0.0676 -0.6549 -0.3148
  944MOL0     C27317   9.747   8.887   0.130 -0.4426  0.0721 -0.4750
  944MOL0     C27318   9.890   8.918   0.081 -0.1392 -0.1699  0.3654
  944MOL0     C27319   9.927   8.857  -0.057 -0.3352  0.2403 -0.7301
  944MOL0     C27320  10.059   8.933  -0.101  1.0256  0.4218  0.5282
  944MOL0     C27321  10.168   8.887  -0.008 -0.2989 -0.4564  0.5004
  944MOL0     N27322  10.303   8.920  -0.061 -0.0285 -0.2487  0.1929
  944MOL0     C27323  10.332   9.050  -0.098  0.0154  0.0074 -0.0702
  944MOL0     C27324  10.459   9.045  -0.148 -0.0144 -1.2532 -1.4560
  944MOL0     C27325  10.523   9.168  -0.201 -0.3317  1.1623  0.1692
  944MOL0     C27326  10.651   9.181  -0.128  0.1813 -0.2727 -0.0275
  944MOL0     C27327  10.737   9.309  -0.163  0.1285  0.1839  0.7930
  944MOL0     C27328  10.879   9.296  -0.099  0.1682 -0.3567 -0.8770
  944MOL0     O27329  10.979   9.367  -0.168  0.3813  0.4371 -0.0540
  944MOL0     C27330  11.105   9.352  -0.129 -0.6950  0.2604 -0.5759
  944MOL0     C27331  11.213   9.429  -0.186 -0.2736 -0.7339 -0.0945
  944MOL0     C27332  11.348   9.423  -0.143  0.5178  0.1409  0.9199
  944MOL0     C27333  11.387   9.341  -0.034  1.3391 -0.0370 -0.2352
  944MOL0     C27334  11.525   9.327   0.003 -0.2681 -0.6378 -0.7983
  944MOL0     O27335  11.615   9.395  -0.066  0.3159  0.3552  0.1550
  944MOL0     C27336  11.750   9.379  -0.064 -0.2654  0.9851  0.7190
  944MOL0     C27337  11.819   9.252  -0.038  0.1517 -1.2141  0.1706
  944MOL0     C27338  11.959   9.257  -0.045  0.1412  0.2190 -0.0447
  944MOL0     C27339  12.033   9.374  -0.060  0.7558  0.3710  0.9323
  944MOL0     O27340  12.167   9.354  -0.047 -0.0080 -0.7116 -0.0148
  944MOL0     C27341  12.258   9.421  -0.135 -0.6034 -0.2593  0.0551
  944MOL0     C27342  12.342   9.321  -0.208  0.8090  0.2773 -0.4833
  944MOL0     C27343  12.454   9.392  -0.279 -0.8198 -0.0026 -0.0940
  944MOL0     C27344  12.541   9.301  -0.361  0.2962 -0.0606 -0.6139
  944MOL0     C27345  12.592   9.173  -0.286 -0.1766  0.0788 -0.3480
  944MOL0     C27346  12.702   9.219  -0.190  0.3370 -0.2529  0.3717
  944MOL0     C27347  12.768   9.097  -0.125 -0.6336  0.1592 -0.3789
  944MOL0     C27348  12.869   9.128  -0.006 -1.0281 -0.1907  0.1995
  944MOL0    Cl27349  12.987   9.256  -0.043  0.3825  0.4512 -0.0897
  944MOL0     C27350  11.960   9.491  -0.089 -0.2630  0.6857 -0.1412
  944MOL0     C27351  11.819   9.491  -0.094 -0.9274 -0.0251  0.3445
  944MOL0     O27352  11.551   9.240   0.090 -0.2176  0.0774  0.7258
  944MOL0     C27353  11.289   9.260   0.018  0.5384  0.7051 -0.6795
  944MOL0     C27354  11.156   9.263  -0.029  0.0395  0.2818  0.0031
  944MOL0     N27355  10.503   8.910  -0.136 -0.0612  0.4630 -0.0036
  944MOL0     N27356  10.410   8.839  -0.088  0.3741  0.1614  0.1605
  944MOL0     C27357   9.273   8.857   0.446  0.5950 -0.5900  0.3502
  944MOL0     C27358   9.148   8.795   0.452  0.3074 -0.1205 -0.0827
  944MOL0     C27359   8.683   8.750   0.409  0.2738  0.6540  0.5474
  944MOL0     C27360   8.591   8.745   0.300 -0.7526  0.1663  0.4161
  944MOL0     C27361   8.477   8.671   0.307  0.4099  0.4632  0.4123
  944MOL0     C27362   8.447   8.584   0.408 -0.1134  0.3972  0.5174
  944MOL0     O27363   8.323   8.516   0.418 -0.0509 -0.8550  1.2058
  944MOL0     C27364   8.302   8.411   0.512  0.7012  0.8665  0.5766
  944MOL0     C27365   8.387   8.287   0.490  0.3431  0.5967  1.1500
  944MOL0     C27366   8.352   8.182   0.594  0.2720  0.5102 -0.0762
  944MOL0     C27367   8.388   8.218   0.738  0.3797 -0.1351 -0.4049
  944MOL0     C27368   8.530   8.255   0.748  0.2492 -0.0729 -1.3970
  944MOL0     C27369   8.653   8.291   0.754  0.6424 -0.8909 -0.1163
  944MOL0     C27370   8.533   8.588   0.516 -0.2601  0.0258 -0.1780
  944MOL0     C27371   8.650   8.668   0.527  0.7151 -0.0507  0.4943
  944MOL0     C27372   8.743   8.656   0.645  0.0552  0.5758 -0.2753
  944MOL0     H27373   8.942   9.058   0.398 -0.0650  0.4440  0.1471
  944MOL0     H27374   9.164   9.179   0.392 -3.1914 -0.4366 -1.9250
  944MOL0     H27375   9.598   9.077   0.471  2.0879  0.4178 -3.4380
  944MOL0     H27376   9.530   8.920   0.506  0.3661  0.9472  0.6979
  944MOL0     H27377   9.498   9.007   0.222  1.6319  1.1154  0.8312
  944MOL0     H27378   9.537   8.852   0.283 -0.2385 -0.3537 -2.1128
  944MOL0     H27379   9.783   8.938   0.327 -0.8807 -0.7443  0.4665
  944MOL0     H27380   9.738   9.075   0.225  2.6509 -0.2940  3.1764
  944MOL0     H27381   9.736   8.781   0.152 -2.2503 -0.0620 -1.8152
  944MOL0     H27382   9.672   8.905   0.053 -1.2432 -2.2734 -0.3218
  944MOL0     H27383   9.910   9.025   0.083 -0.7496  0.0016 -1.1601
  944MOL0     H27384   9.950   8.867   0.156  1.0276 -2.3376 -1.8817
  944MOL0     H27385   9.945   8.751  -0.040 -0.4281  0.3878  0.3506
  944MOL0     H27386   9.845   8.859  -0.129 -0.5238 -2.0150 -0.6457
  944MOL0     H27387  10.043   9.041  -0.100 -2.4397  0.0358 -0.1777
  944MOL0     H27388  10.075   8.898  -0.204 -3.4090  0.7147 -0.4796
  944MOL0     H27389  10.162   8.934   0.090 -2.8822 -0.3012  0.3262
  944MOL0     H27390  10.163   8.778   0.004  2.5496 -0.9320 -1.5328
  944MOL0     H27391  10.274   9.142  -0.098  1.9658  1.3828 -2.7163
  944MOL0     H27392  10.534   9.162  -0.309 -1.7941 -1.0595  0.0877
  944MOL0     H27393  10.460   9.256  -0.184  0.2326  2.0461 -1.9744
  944MOL0     H27394  10.621   9.189  -0.023 -2.7030 -0.0939 -0.7873
  944MOL0     H27395  10.696   9.083  -0.146 -3.0943 -1.7039 -1.1518
  944MOL0     H27396  10.692   9.401  -0.125  1.9846  0.9546  1.2110
  944MOL0     H27397  10.748   9.315  -0.271  1.5783 -1.4411  0.8103
  944MOL0     H27398  10.892   9.188  -0.111  0.5151 -0.6204  1.3346
  944MOL0     H27399  10.880   9.322   0.008 -1.5513 -0.5720 -0.7791
  944MOL0     H27400  11.192   9.501  -0.264 -0.8228 -0.9903 -0.1884
  944MOL0     H27401  11.421   9.486  -0.192 -1.3946  1.5832 -0.1899
  944MOL0     H27402  11.782   9.151  -0.021 -1.4509 -1.3536 -3.3809
  944MOL0     H27403  12.010   9.162  -0.032  0.3429  0.3968  0.5100
  944MOL0     H27404  12.207   9.488  -0.205 -0.8386 -1.0777 -0.5683
  944MOL0     H27405  12.317   9.488  -0.071  0.0934 -0.1713 -0.6598
  944MOL0     H27406  12.386   9.253  -0.134 -0.5800  0.4748  0.5759
  944MOL0     H27407  12.279   9.266  -0.278 -0.7726  1.7796 -0.3236
  944MOL0     H27408  12.396   9.460  -0.341  0.2773 -0.4489 -1.6810
  944MOL0     H27409  12.512   9.442  -0.200 -0.8100 -1.0660  0.5982
  944MOL0     H27410  12.624   9.356  -0.406  2.2289 -2.2522  0.0825
  944MOL0     H27411  12.491   9.253  -0.446  1.8532 -1.3853 -0.8510
  944MOL0     H27412  12.638   9.114  -0.366  3.1360  3.1873 -0.9808
  944MOL0     H27413  12.518   9.118  -0.227  1.1330 -1.8383 -0.4044
  944MOL0     H27414  12.778   9.281  -0.238  0.0574 -0.0225  0.2328
  944MOL0     H27415  12.655   9.283  -0.115  2.3175  1.2886  0.3807
  944MOL0     H27416  12.818   9.042  -0.205 -0.9830 -0.7620  0.0190
  944MOL0     H27417  12.692   9.028  -0.089 -0.2388 -0.7411 -1.2306
  944MOL0     H27418  12.804   9.162   0.075  0.1062  0.9891  0.6650
  944MOL0     H27419  12.926   9.042   0.029  4.1431 -0.0183 -5.8850
  944MOL0     H27420  12.017   9.582  -0.106 -0.0884  0.0971 -3.2680
  944MOL0     H27421  11.768   9.583  -0.119  0.4478  0.7003  0.1043
  944MOL0     H27422  11.310   9.183   0.091 -2.2769 -1.5105 -2.0148
  944MOL0     H27423  11.090   9.195   0.024 -1.2178  0.0130 -1.8097
  944MOL0     H27424   9.354   8.785   0.447 -0.0104 -1.5647 -3.7873
  944MOL0     H27425   9.135   8.687   0.453 -0.5547 -0.0519 -1.5738
  944MOL0     H27426   8.615   8.796   0.208  1.4567  1.2794  1.5293
  944MOL0     H27427   8.407   8.657   0.225 -0.1468 -1.4634  1.1495
  944MOL0     H27428   8.200   8.371   0.507  1.5267 -1.4460  1.3840
  944MOL0     H27429   8.318   8.449   0.613  1.0482 -0.9855  1.2419
  944MOL0     H27430   8.496   8.299   0.490  0.3988  0.8323 -1.5629
  944MOL0     H27431   8.367   8.249   0.389  0.9893  0.9685  0.8760
  944MOL0     H27432   8.390   8.084   0.562 -2.0671 -0.4122 -0.2795
  944MOL0     H27433   8.244   8.165   0.586  0.5441 -0.8981 -1.3603
  944MOL0     H27434   8.326   8.303   0.770 -2.1499 -0.8286 -3.0172
  944MOL0     H27435   8.357   8.132   0.798  1.2417  0.3826  0.8389
  944MOL0     H27436   8.753   8.330   0.753  0.1961  0.3623  1.2256
  944MOL0     H27437   8.502   8.542   0.609 -1.3186 -2.2435 -1.5641
  944MOL0     H27438   8.808   8.568   0.650  0.6602  0.9990 -0.5635
  944MOL0     H27439   8.807   8.743   0.661  0.1508  0.6527 -1.0531
  944MOL0     H27440   8.667   8.654   0.724  0.1775  0.6095 -0.1563
  945MOL0     O27441   0.681   8.224   9.816 -0.2380  0.1083  0.3177
  945MOL0     C27442   0.593   8.313   9.839 -0.0033  0.0077 -0.4595
  945MOL0     O27443   0.608   8.451   9.852 -0.3853 -0.8927 -0.1614
  945MOL0     C27444   0.737   8.492   9.823  0.6197  0.6723 -0.0602
  945MOL0     C27445   0.841   8.494   9.918 -0.4371  0.1837  0.5767
  945MOL0     C27446   0.963   8.547   9.887 -0.4099 -0.1972  0.1122
  945MOL0     C27447   0.992   8.595   9.755  0.3272  0.3552 -0.3170
  945MOL0     O27448   1.111   8.646   9.717 -0.2262 -0.2086 -0.4428
  945MOL0     C27449   1.236   8.650   9.797  0.0269  0.1587 -0.1329
  945MOL0     C27450   1.306   8.515   9.799 -0.0074 -0.1908 -0.0616
  945MOL0     C27451   1.437   8.518   9.871  0.5284  0.7830 -0.1748
  945MOL0     C27452   1.545   8.600   9.797 -0.1915  0.0487 -0.8532
  945MOL0     C27453   1.678   8.554   9.863 -0.0067 -0.3499  0.0571
  945MOL0     C27454   1.790   8.640   9.801 -0.7064  0.3103  0.0144
  945MOL0     C27455   1.931   8.579   9.838 -0.7095  0.3658 -0.3643
  945MOL0     C27456   1.981   8.649   9.966  0.5856  0.2221 -0.3349
  945MOL0     N27457   2.123   8.634   9.985  0.3144  1.2043  0.1962
  945MOL0     C27458   2.216   8.718   9.923 -0.2759  0.0969  0.1434
  945MOL0     C27459   2.329   8.692   9.993 -0.3418  0.2373 -0.1168
  945MOL0     C27460   2.455   8.772   9.988  0.4768 -0.0765 -0.0169
  945MOL0     C27461   2.578   8.713  10.047 -0.4323  0.4070 -0.6962
  945MOL0     C27462   2.622   8.575   9.977  0.0253  0.1415 -0.4093
  945MOL0     C27463   2.679   8.591   9.835  0.1261 -0.0719  0.5677
  945MOL0     O27464   2.816   8.636   9.834  0.9667  0.0157 -0.0051
  945MOL0     C27465   2.929   8.556   9.825  1.1364  0.6415  0.1430
  945MOL0     C27466   3.046   8.626   9.836  0.0355 -0.3932 -0.5531
  945MOL0     C27467   3.167   8.561   9.829  0.1906  0.2358 -0.0988
  945MOL0     C27468   3.176   8.421   9.802  0.2117  0.4666 -0.0861
  945MOL0     C27469   3.300   8.345   9.812 -0.1702 -0.8039 -0.2357
  945MOL0     O27470   3.296   8.210   9.821  0.6615  0.0285  0.3282
  945MOL0     C27471   3.416   8.142   9.800  0.3415  0.2360 -0.5426
  945MOL0     C27472   3.532   8.164   9.875 -0.1306  0.3847 -0.4846
  945MOL0     C27473   3.650   8.096   9.840 -0.1343 -0.2315 -0.0035
  945MOL0     C27474   3.653   7.991   9.741  0.2685 -0.1713  0.1722
  945MOL0     O27475   3.768   7.913   9.730 -0.1235  0.2210 -0.7148
  945MOL0     C27476   3.784   7.797   9.642  0.3307 -0.2854  0.5197
  945MOL0     C27477   3.920   7.716   9.672 -0.1861 -0.3151 -0.0362
  945MOL0     C27478   4.038   7.810   9.656 -0.3935 -0.6468  0.1642
  945MOL0     C27479   4.165   7.753   9.703 -0.4297  0.2740 -0.1730
  945MOL0     C27480   4.281   7.850   9.707 -0.0014  0.1974  0.3151
  945MOL0     C27481   4.419   7.781   9.746 -0.6276 -0.2905  0.0190
  945MOL0     C27482   4.534   7.887   9.737  0.1397  0.6439  0.1119
  945MOL0     C27483   4.673   7.819   9.738  0.3194 -0.2734 -0.2969
  945MOL0    Cl27484   4.714   7.752   9.898  0.4232  0.0513  0.1184
  945MOL0     C27485   3.532   7.974   9.664 -0.3767 -0.1485 -0.2059
  945MOL0     C27486   3.418   8.042   9.701 -0.6881  0.1414 -0.7470
  945MOL0     O27487   3.396   8.420   9.792 -0.8160 -0.5250  0.1353
  945MOL0     C27488   3.054   8.352   9.779  0.2024  1.0359  0.5968
  945MOL0     C27489   2.929   8.415   9.792  0.8236 -0.7175  0.3357
  945MOL0     N27490   2.314   8.577  10.072  0.2613 -0.0641  0.0725
  945MOL0     N27491   2.190   8.542  10.057 -0.3201 -0.3860  0.4976
  945MOL0     C27492   0.885   8.594   9.665 -0.2278  0.5424  0.4389
  945MOL0     C27493   0.760   8.545   9.698  0.0357  0.0284 -0.7662
  945MOL0     C27494   0.448   8.263   9.854  0.5385 -0.4064  0.1804
  945MOL0     C27495   0.413   8.152   9.779  0.5524 -0.5065  0.4447
  945MOL0     C27496   0.283   8.107   9.771 -0.6137  0.2740 -0.3803
  945MOL0     C27497   0.177   8.174   9.827  0.4289 -0.3688 -0.0621
  945MOL0     O27498   0.050   8.121   9.818 -0.4146  0.0264 -0.3387
  945MOL0     C27499  -0.063   8.193   9.846 -1.0267 -0.2213  0.2087
  945MOL0     C27500  -0.180   8.116   9.802  0.2410  0.1775 -0.1538
  945MOL0     C27501  -0.208   8.142   9.651  0.5949  0.2049  0.2262
  945MOL0     C27502  -0.320   8.047   9.605  1.2628 -0.3801  0.0680
  945MOL0     C27503  -0.437   8.045   9.686  0.1162  0.2289 -0.6218
  945MOL0     C27504  -0.532   8.052   9.757 -0.4575  1.3425 -0.7001
  945MOL0     C27505   0.204   8.301   9.892  0.0291  1.1179  0.0898
  945MOL0     C27506   0.342   8.342   9.913  0.8552 -0.4387  0.3205
  945MOL0     C27507   0.371   8.458  10.006  0.9669 -0.3704 -0.3305
  945MOL0     H27508   0.821   8.458  10.018 -0.4481  1.3563  1.0074
  945MOL0     H27509   1.047   8.553   9.955  1.9052  0.9235 -2.6316
  945MOL0     H27510   1.301   8.724   9.750 -1.2763  1.1207 -0.4863
  945MOL0     H27511   1.223   8.694   9.896 -2.1927 -0.2535 -0.1895
  945MOL0     H27512   1.330   8.494   9.694  1.5367  1.6228 -0.1196
  945MOL0     H27513   1.243   8.445   9.854 -0.3514  0.9131  0.9761
  945MOL0     H27514   1.464   8.412   9.862  0.3506  0.5146  1.9348
  945MOL0     H27515   1.424   8.552   9.974 -0.3725 -1.6806  0.6029
  945MOL0     H27516   1.544   8.574   9.691 -1.2224 -1.5958 -0.4982
  945MOL0     H27517   1.519   8.703   9.824 -2.3374 -0.6896  0.2313
  945MOL0     H27518   1.673   8.564   9.971 -1.0718  0.0902 -0.0191
  945MOL0     H27519   1.699   8.452   9.827  3.7153  0.9670 -2.0780
  945MOL0     H27520   1.776   8.643   9.692 -0.9571  0.5209  0.0494
  945MOL0     H27521   1.782   8.745   9.830  1.8238  0.3959  0.6272
  945MOL0     H27522   1.999   8.606   9.756 -1.2301 -1.2136 -1.3709
  945MOL0     H27523   1.929   8.470   9.845 -1.8528  0.3260 -1.0553
  945MOL0     H27524   1.958   8.755   9.962 -0.0098  0.1159 -4.4399
  945MOL0     H27525   1.928   8.609  10.053  1.0226  1.7503  0.6584
  945MOL0     H27526   2.195   8.801   9.856  1.1844 -0.1038 -0.5838
  945MOL0     H27527   2.481   8.804   9.887  1.2616  0.6983  0.4156
  945MOL0     H27528   2.429   8.862  10.045  1.2285 -0.6461  1.2737
  945MOL0     H27529   2.654   8.792  10.043  0.8029 -0.4184  2.8644
  945MOL0     H27530   2.555   8.706  10.153  2.3359 -2.2102 -0.1166
  945MOL0     H27531   2.540   8.503   9.969  1.1257 -1.5055  1.8479
  945MOL0     H27532   2.693   8.530  10.047  1.4644  2.4648 -0.2413
  945MOL0     H27533   2.617   8.660   9.779  0.5305 -1.4309 -1.6837
  945MOL0     H27534   2.680   8.494   9.785  4.3605 -1.6679  3.1578
  945MOL0     H27535   3.036   8.733   9.851  0.3358 -0.2972 -1.0420
  945MOL0     H27536   3.252   8.628   9.832  0.2436  0.1282  1.2083
  945MOL0     H27537   3.522   8.237   9.953  0.2093  0.6878 -0.7214
  945MOL0     H27538   3.738   8.123   9.898 -0.4780 -2.0042  1.4636
  945MOL0     H27539   3.701   7.731   9.670  0.2261 -1.3397 -2.0564
  945MOL0     H27540   3.779   7.823   9.536 -2.8836 -0.6624  0.5017
  945MOL0     H27541   3.906   7.678   9.774 -2.8819 -0.3028 -0.3127
  945MOL0     H27542   3.934   7.629   9.608  3.6334 -3.1220  4.0301
  945MOL0     H27543   4.043   7.851   9.555 -0.7574  2.0411  1.1507
  945MOL0     H27544   4.028   7.886   9.734  0.5083 -2.5232  2.2192
  945MOL0     H27545   4.183   7.673   9.631 -2.0410 -0.2874  0.0022
  945MOL0     H27546   4.152   7.711   9.803 -1.5878 -1.4275 -0.9798
  945MOL0     H27547   4.263   7.921   9.788 -0.6079  1.6511 -1.0271
  945MOL0     H27548   4.284   7.910   9.615 -0.2067  1.8773  1.3553
  945MOL0     H27549   4.409   7.746   9.849 -0.6069  1.6746  0.7287
  945MOL0     H27550   4.452   7.700   9.680 -1.0917  0.2806 -0.9312
  945MOL0     H27551   4.529   7.962   9.816  0.8026  1.1473 -0.3068
  945MOL0     H27552   4.535   7.932   9.637  0.3926 -2.1886 -1.2510
  945MOL0     H27553   4.665   7.731   9.674  1.4528 -0.5999 -0.0150
  945MOL0     H27554   4.746   7.894   9.705  2.3540 -0.7614  2.7005
  945MOL0     H27555   3.523   7.899   9.586 -1.5178 -0.6508  0.3901
  945MOL0     H27556   3.321   8.021   9.657 -1.1870 -3.9694  1.7391
  945MOL0     H27557   3.055   8.248   9.751  1.8800  0.9830  0.7490
  945MOL0     H27558   2.829   8.374   9.784 -0.4638  2.0451  1.4571
  945MOL0     H27559   0.894   8.623   9.560 -2.1431  2.2625  0.6825
  945MOL0     H27560   0.681   8.556   9.624 -0.2875 -0.9121 -0.5782
  945MOL0     H27561   0.503   8.106   9.738  0.0462 -1.9278  0.8792
  945MOL0     H27562   0.262   8.009   9.729 -1.1504  0.0692  0.3455
  945MOL0     H27563  -0.064   8.294   9.805  1.8549  0.5030  1.6825
  945MOL0     H27564  -0.073   8.210   9.954 -1.0733 -0.5018  0.2503
  945MOL0     H27565  -0.263   8.161   9.856  0.7352  1.9510 -0.8154
  945MOL0     H27566  -0.177   8.010   9.828 -1.0894  0.4227  1.1280
  945MOL0     H27567  -0.125   8.119   9.583 -0.1857  4.1666 -2.4518
  945MOL0     H27568  -0.237   8.247   9.635  3.3109  1.2780  1.7379
  945MOL0     H27569  -0.350   8.070   9.502  1.4831 -4.0270 -0.9468
  945MOL0     H27570  -0.281   7.946   9.591  1.8898  0.1012 -1.9839
  945MOL0     H27571  -0.628   8.050   9.805 -0.5610 -2.2109 -0.7665
  945MOL0     H27572   0.128   8.358   9.945 -0.2693  0.3130  0.5504
  945MOL0     H27573   0.360   8.551   9.949 -2.0336 -0.0692  0.5509
  945MOL0     H27574   0.296   8.455  10.086 -0.0858 -1.4238 -1.3207
  945MOL0     H27575   0.467   8.449  10.056  1.4524 -3.7178 -1.6549
  946MOL0     O27576   2.659   0.442   2.800 -0.1439  1.0577  0.6424
  946MOL0     C27577   2.589   0.349   2.833  1.0874  0.0479  0.0360
  946MOL0     O27578   2.631   0.233   2.884 -0.1777  0.3558  0.7053
  946MOL0     C27579   2.763   0.229   2.925  0.1198 -0.1979  0.0606
  946MOL0     C27580   2.807   0.302   3.040 -0.2922  0.2739 -0.3612
  946MOL0     C27581   2.944   0.297   3.074 -0.4450  0.0770 -0.1756
  946MOL0     C27582   3.025   0.199   3.013  1.1157  0.4730  0.4848
  946MOL0     O27583   3.144   0.168   3.062  0.1157  0.1898  0.4884
  946MOL0     C27584   3.255   0.242   3.000 -0.7213  0.1048  0.0284
  946MOL0     C27585   3.397   0.198   3.051 -0.1237  0.8524  0.3498
  946MOL0     C27586   3.424   0.067   2.983 -0.4497  0.7919  1.1574
  946MOL0     C27587   3.572   0.038   2.993  0.2384 -0.2824 -0.0324
  946MOL0     C27588   3.594  -0.094   2.917  0.8430  0.0171 -0.2176
  946MOL0     C27589   3.740  -0.128   2.935  0.2119 -0.2722 -0.5191
  946MOL0     C27590   3.763  -0.261   2.874  0.5209  0.7737  0.2981
  946MOL0     C27591   3.900  -0.330   2.889  0.1384  0.9858  0.2205
  946MOL0     N27592   3.957  -0.325   3.028  0.5141  0.9318  0.5403
  946MOL0     C27593   4.019  -0.217   3.078  0.6843  0.0233 -0.1513
  946MOL0     C27594   4.054  -0.267   3.195  0.4133 -0.6726  1.0711
  946MOL0     C27595   4.107  -0.198   3.316 -0.4495  0.5420  0.2375
  946MOL0     C27596   4.262  -0.198   3.325 -1.2575  0.1883  0.1681
  946MOL0     C27597   4.304  -0.154   3.468  0.0472 -0.0467 -0.4217
  946MOL0     C27598   4.447  -0.165   3.504 -0.4918  0.3333  0.3521
  946MOL0     O27599   4.526  -0.087   3.413  0.5270 -0.7507 -0.3940
  946MOL0     C27600   4.662  -0.101   3.424  0.5317  0.8507  0.0554
  946MOL0     C27601   4.739  -0.050   3.316  0.1078 -0.8209  0.1354
  946MOL0     C27602   4.881  -0.055   3.323  0.7325 -0.4227  0.4510
  946MOL0     C27603   4.940  -0.119   3.431 -0.0966  0.2224  0.9466
  946MOL0     C27604   5.091  -0.123   3.442 -0.2405 -0.3649  0.1360
  946MOL0     O27605   5.153  -0.115   3.323  0.4090 -0.1853  0.0397
  946MOL0     C27606   5.291  -0.089   3.319  0.6105  0.7251  0.8463
  946MOL0     C27607   5.376  -0.192   3.360 -0.3916 -0.7350 -0.9117
  946MOL0     C27608   5.516  -0.191   3.343 -0.0835  0.4239 -0.2003
  946MOL0     C27609   5.575  -0.079   3.281 -0.5467 -0.5350 -0.4881
  946MOL0     O27610   5.714  -0.065   3.257  0.3690  0.8183  0.5190
  946MOL0     C27611   5.766   0.059   3.198  0.2541  0.8108  0.6654
  946MOL0     C27612   5.913   0.050   3.165 -0.3652  0.7010  0.4117
  946MOL0     C27613   5.960   0.184   3.106 -0.7339 -0.2517 -0.2601
  946MOL0     C27614   6.115   0.194   3.103  0.1024  0.2269 -0.5060
  946MOL0     C27615   6.164   0.314   3.015 -0.5309 -0.1194  0.1123
  946MOL0     C27616   6.308   0.352   3.055 -0.2334  0.0298  0.9907
  946MOL0     C27617   6.411   0.251   3.005  0.0797 -0.4822  0.2441
  946MOL0     C27618   6.557   0.308   3.014 -0.3919 -0.0140  0.3729
  946MOL0    Cl27619   6.659   0.207   2.909 -0.0514 -0.2530  0.1527
  946MOL0     C27620   5.486   0.028   3.239  0.3887 -0.1915 -0.4419
  946MOL0     C27621   5.350   0.023   3.256  0.7459 -0.2170  0.1691
  946MOL0     O27622   5.138  -0.108   3.549 -0.2334 -0.3311 -0.6292
  946MOL0     C27623   4.867  -0.178   3.537 -0.6396 -0.2050  0.0578
  946MOL0     C27624   4.728  -0.165   3.539 -0.1081 -0.3164  0.8020
  946MOL0     N27625   4.017  -0.396   3.207 -0.7838  0.9032  0.5932
  946MOL0     N27626   3.949  -0.434   3.111  0.2010 -0.0016 -0.1112
  946MOL0     C27627   2.979   0.130   2.904  0.1940  0.0425  0.4029
  946MOL0     C27628   2.846   0.136   2.860  0.3242 -0.1606 -0.2922
  946MOL0     C27629   2.444   0.362   2.812 -0.4719  0.0247 -0.1161
  946MOL0     C27630   2.392   0.443   2.706 -0.4948 -0.7553  0.3079
  946MOL0     C27631   2.256   0.471   2.713 -0.1203  0.4159  0.8177
  946MOL0     C27632   2.163   0.420   2.798 -1.3021  0.7709  0.7940
  946MOL0     O27633   2.029   0.447   2.793  1.0674  0.0162  0.0312
  946MOL0     C27634   1.968   0.457   2.665 -0.3183  0.1733  0.4658
  946MOL0     C27635   1.816   0.440   2.669  0.2690  0.2767 -0.8192
  946MOL0     C27636   1.738   0.433   2.533  0.9384  0.5736  0.4637
  946MOL0     C27637   1.713   0.579   2.479  0.3811 -0.5383 -0.6896
  946MOL0     C27638   1.649   0.579   2.343 -0.3111 -0.6023 -0.3619
  946MOL0     C27639   1.590   0.574   2.234  0.2029  0.1621 -0.7630
  946MOL0     C27640   2.202   0.324   2.885  0.6101  0.0539  0.3304
  946MOL0     C27641   2.341   0.292   2.891  0.9149 -0.0648 -0.2736
  946MOL0     C27642   2.385   0.185   2.977  0.1544 -1.0902 -0.9746
  946MOL0     H27643   2.737   0.364   3.095  0.1929 -1.6005  2.5671
  946MOL0     H27644   2.995   0.346   3.156  0.7300 -0.8798 -0.3081
  946MOL0     H27645   3.253   0.225   2.892  0.8984 -2.6069  0.3475
  946MOL0     H27646   3.228   0.340   3.042 -1.3779 -0.8447  1.9581
  946MOL0     H27647   3.396   0.182   3.159 -4.0847 -0.8935  0.2459
  946MOL0     H27648   3.476   0.272   3.037 -1.6364  2.6469  0.9653
  946MOL0     H27649   3.382   0.062   2.882 -0.7395  2.2595  1.1826
  946MOL0     H27650   3.365  -0.012   3.029 -1.4320  0.7723 -0.0862
  946MOL0     H27651   3.636   0.112   2.945 -0.9432 -0.7745 -2.5358
  946MOL0     H27652   3.600   0.029   3.098 -1.7624  1.7002  0.7463
  946MOL0     H27653   3.538  -0.175   2.966  1.2112  0.9953  1.9715
  946MOL0     H27654   3.578  -0.090   2.809  1.2264  0.7065 -0.2521
  946MOL0     H27655   3.807  -0.058   2.882 -0.1576 -1.1102 -2.1689
  946MOL0     H27656   3.773  -0.143   3.038 -1.4268 -0.1166  0.0544
  946MOL0     H27657   3.747  -0.252   2.767 -0.0383  2.8370  0.5205
  946MOL0     H27658   3.690  -0.334   2.909  0.8018  0.0200 -0.6333
  946MOL0     H27659   3.888  -0.433   2.856  1.0124  0.5836  1.1295
  946MOL0     H27660   3.972  -0.277   2.825  2.4480  0.1434  1.9950
  946MOL0     H27661   4.024  -0.115   3.043 -5.0761  0.7479  0.2407
  946MOL0     H27662   4.068  -0.096   3.310  0.5003  0.8293 -1.8723
  946MOL0     H27663   4.062  -0.251   3.401  0.8385  2.8510  2.4732
  946MOL0     H27664   4.310  -0.294   3.302  1.6449  1.5299  0.1993
  946MOL0     H27665   4.295  -0.123   3.253 -1.3395  2.6340  2.5367
  946MOL0     H27666   4.240  -0.207   3.540 -0.7521  0.7651 -0.5104
  946MOL0     H27667   4.285  -0.047   3.481  0.4704 -0.0968  0.7451
  946MOL0     H27668   4.458  -0.273   3.494 -5.3675 -0.2585 -1.3616
  946MOL0     H27669   4.459  -0.122   3.604 -0.9396 -1.0668  1.0366
  946MOL0     H27670   4.687   0.002   3.236 -0.3946  0.7493  1.4251
  946MOL0     H27671   4.935  -0.003   3.245  1.8169  0.0655  1.4966
  946MOL0     H27672   5.340  -0.284   3.404  1.1317 -0.0679  1.9570
  946MOL0     H27673   5.580  -0.272   3.376 -0.5378 -0.3425 -1.1429
  946MOL0     H27674   5.711   0.079   3.106 -2.3197 -0.4352  1.8449
  946MOL0     H27675   5.738   0.139   3.266 -2.1475  0.4872  0.1472
  946MOL0     H27676   5.968   0.029   3.257 -0.0821  1.2097  0.3632
  946MOL0     H27677   5.923  -0.030   3.091 -1.2674  2.0577 -1.2762
  946MOL0     H27678   5.925   0.193   3.003 -2.4429 -1.0113  0.2351
  946MOL0     H27679   5.927   0.267   3.170 -0.1555 -0.8583  0.8579
  946MOL0     H27680   6.153   0.101   3.058  2.4790  1.0275 -0.3343
  946MOL0     H27681   6.166   0.197   3.200 -0.3703 -0.2330 -0.2381
  946MOL0     H27682   6.106   0.403   3.040  0.4403  0.8279 -0.9529
  946MOL0     H27683   6.145   0.293   2.909  1.8541 -1.9030 -0.0459
  946MOL0     H27684   6.342   0.447   3.012  1.2161 -0.4965  0.9236
  946MOL0     H27685   6.331   0.361   3.162  4.3633  1.7177  0.0858
  946MOL0     H27686   6.388   0.225   2.901 -2.3874  0.7244  0.4119
  946MOL0     H27687   6.404   0.168   3.075  0.9808  1.8625  3.3474
  946MOL0     H27688   6.565   0.412   2.980 -4.9225  0.9398  1.5539
  946MOL0     H27689   6.585   0.302   3.119 -3.2838  0.3877  1.2479
  946MOL0     H27690   5.524   0.118   3.192  1.6281 -0.6279 -0.3137
  946MOL0     H27691   5.285   0.101   3.218  0.6975  1.3665  3.2398
  946MOL0     H27692   4.923  -0.219   3.620  0.4870 -1.4022 -1.2241
  946MOL0     H27693   4.673  -0.195   3.628  0.9739 -1.4793  1.1007
  946MOL0     H27694   3.033   0.055   2.847  0.6469 -0.6730  1.7488
  946MOL0     H27695   2.796   0.081   2.780  0.3056 -0.3349 -0.1607
  946MOL0     H27696   2.450   0.488   2.626  1.8088 -2.4255  0.9105
  946MOL0     H27697   2.215   0.539   2.639 -0.5902  0.5466  1.1948
  946MOL0     H27698   2.015   0.388   2.594 -2.1700  1.2003 -1.9071
  946MOL0     H27699   1.994   0.554   2.622  0.4159 -0.5792 -0.8619
  946MOL0     H27700   1.771   0.515   2.734 -0.8493 -1.0915  0.0435
  946MOL0     H27701   1.797   0.345   2.719  2.3828  0.3600  0.2824
  946MOL0     H27702   1.649   0.372   2.549  0.7419 -0.0707 -2.5870
  946MOL0     H27703   1.791   0.379   2.454 -2.2000 -1.6703 -0.2911
  946MOL0     H27704   1.646   0.630   2.549  2.0309  0.8529 -0.0630
  946MOL0     H27705   1.809   0.629   2.471  1.5795 -2.3832  1.2426
  946MOL0     H27706   1.550   0.568   2.135  0.3461 -3.2126 -0.7304
  946MOL0     H27707   2.127   0.269   2.940  0.2235 -1.5273 -1.6758
  946MOL0     H27708   2.434   0.102   2.924  3.4718  0.4991 -0.6034
  946MOL0     H27709   2.463   0.220   3.044  0.0139  2.2211 -2.3641
  946MOL0     H27710   2.296   0.153   3.034  1.0894  0.5292  1.5409
  947MOL0     O27711   0.390  11.048  10.523  0.1822  0.0900 -0.3379
  947MOL0     C27712   0.367  11.165  10.556 -0.2790 -0.6051 -0.2492
  947MOL0     O27713   0.428  11.279  10.507  0.0059 -0.2468 -0.0411
  947MOL0     C27714   0.525  11.289  10.405  0.6409 -0.0074  0.3095
  947MOL0     C27715   0.614  11.188  10.365 -0.5523  0.0057  0.1185
  947MOL0     C27716   0.699  11.219  10.258 -0.8525 -0.3769  0.2041
  947MOL0     C27717   0.699  11.340  10.185 -0.0884 -1.0974 -0.3877
  947MOL0     O27718   0.782  11.349  10.076 -0.6452 -0.0726 -0.4323
  947MOL0     C27719   0.782  11.455   9.978 -0.0796  0.2379 -0.4066
  947MOL0     C27720   0.907  11.552  10.011  0.2194 -0.0301  0.1773
  947MOL0     C27721   1.040  11.471   9.997 -0.2509 -0.5602  0.4639
  947MOL0     C27722   1.155  11.571   9.988 -0.0208  0.9311  0.5446
  947MOL0     C27723   1.291  11.498   9.990  0.7980  0.1189  0.5148
  947MOL0     C27724   1.317  11.437   9.848  0.5097 -0.1696 -0.2925
  947MOL0     C27725   1.467  11.409   9.818  0.5401 -0.2927  0.3130
  947MOL0     C27726   1.484  11.361   9.672 -0.6608 -0.1700  0.4663
  947MOL0     N27727   1.620  11.309   9.665  0.5997  0.1781 -0.0292
  947MOL0     C27728   1.729  11.385   9.677  0.7625 -0.1279  0.9278
  947MOL0     C27729   1.828  11.298   9.636  0.3562 -0.0267 -0.9130
  947MOL0     C27730   1.974  11.333   9.630 -0.8007 -0.6736  0.1139
  947MOL0     C27731   2.034  11.370   9.764 -0.9727  0.0578  0.0328
  947MOL0     C27732   2.186  11.389   9.766  0.6572 -0.0391 -0.3918
  947MOL0     C27733   2.269  11.259   9.751 -0.7749 -0.3317 -0.2944
  947MOL0     O27734   2.201  11.150   9.820 -0.1147  0.0713  0.4426
  947MOL0     C27735   2.265  11.027   9.818 -0.2017  0.6250  0.3220
  947MOL0     C27736   2.198  10.921   9.877  0.0562  0.3037 -0.6680
  947MOL0     C27737   2.259  10.800   9.893 -0.0108  0.7101  0.4725
  947MOL0     C27738   2.394  10.776   9.848 -0.0046 -0.1458 -0.2991
  947MOL0     C27739   2.463  10.648   9.855  0.0089  0.5956 -0.9175
  947MOL0     O27740   2.577  10.629   9.779 -0.7513 -0.4170 -0.3494
  947MOL0     C27741   2.652  10.518   9.807  0.2637 -0.0373  0.2586
  947MOL0     C27742   2.703  10.459   9.690 -1.0094 -0.4539 -0.3877
  947MOL0     C27743   2.790  10.345   9.701  0.6610  1.3672 -0.0277
  947MOL0     C27744   2.835  10.296   9.825 -0.1788  0.5029 -0.0510
  947MOL0     O27745   2.930  10.190   9.835 -0.5803 -0.3607 -0.6492
  947MOL0     C27746   2.996  10.135   9.723 -0.2292 -0.6231 -0.0928
  947MOL0     C27747   3.082  10.009   9.764  0.2119 -0.4606  0.1674
  947MOL0     C27748   3.102   9.900   9.656 -0.7886 -0.0202  0.8757
  947MOL0     C27749   3.211   9.792   9.684 -0.0086 -0.3789  0.4906
  947MOL0     C27750   3.353   9.842   9.650  0.5591 -0.4898 -0.8594
  947MOL0     C27751   3.461   9.749   9.699  0.2788 -0.1819  0.1920
  947MOL0     C27752   3.606   9.795   9.685  0.6289 -1.0808 -0.2600
  947MOL0     C27753   3.693   9.754   9.798 -0.2581 -0.5415  0.3733
  947MOL0    Cl27754   3.719   9.583   9.784  0.6479  0.0327 -0.0934
  947MOL0     C27755   2.779  10.353   9.945 -0.2970 -0.6667 -0.6007
  947MOL0     C27756   2.688  10.462   9.929 -0.2622  0.7747 -0.1968
  947MOL0     O27757   2.408  10.559   9.916 -0.0445  0.1712  0.6281
  947MOL0     C27758   2.455  10.887   9.786  0.4000 -0.1848  0.0318
  947MOL0     C27759   2.387  11.007   9.765  0.0999  0.0821  0.6281
  947MOL0     N27760   1.774  11.183   9.596 -0.4371 -0.0007  0.0514
  947MOL0     N27761   1.651  11.185   9.610  0.1641 -0.0696 -0.2040
  947MOL0     C27762   0.605  11.445  10.234 -0.5704  0.5605  0.0970
  947MOL0     C27763   0.533  11.416  10.346 -0.3266  0.6456 -0.3335
  947MOL0     C27764   0.248  11.196  10.638 -0.0458 -0.1841 -0.3081
  947MOL0     C27765   0.185  11.321  10.622 -0.0412  0.4105  0.5424
  947MOL0     C27766   0.060  11.356  10.686  0.6190 -0.1848  0.0414
  947MOL0     C27767  -0.003  11.273  10.777 -0.6885  0.0416 -0.6782
  947MOL0     O27768  -0.116  11.297  10.854  0.2345  0.1001 -0.5558
  947MOL0     C27769  -0.193  11.405  10.806  0.3480 -0.3421 -0.0711
  947MOL0     C27770  -0.331  11.378  10.863 -0.0626 -0.7622 -0.7731
  947MOL0     C27771  -0.417  11.505  10.883 -0.4139 -1.1290 -0.6476
  947MOL0     C27772  -0.556  11.463  10.925  1.0590  0.0328  0.6782
  947MOL0     C27773  -0.634  11.405  10.817  0.0598  0.1774 -0.1239
  947MOL0     C27774  -0.713  11.375  10.735 -0.3694 -0.3384  0.3257
  947MOL0     C27775   0.057  11.142  10.790  0.1781 -0.6013 -0.3082
  947MOL0     C27776   0.178  11.107  10.721 -0.0759 -0.4907  0.1226
  947MOL0     C27777   0.237  10.972  10.740  0.3027  0.9319 -0.1163
  947MOL0     H27778   0.612  11.086  10.404 -0.1575 -0.7397 -1.6810
  947MOL0     H27779   0.772  11.144  10.229 -0.9645  0.5476 -2.7937
  947MOL0     H27780   0.805  11.408   9.882  0.7292 -3.7348  1.5484
  947MOL0     H27781   0.688  11.511   9.977  0.1263  0.5995 -0.0351
  947MOL0     H27782   0.907  11.574  10.119  1.2175 -2.0972  0.6515
  947MOL0     H27783   0.903  11.643   9.950 -0.2504  1.0126  1.6722
  947MOL0     H27784   1.026  11.405   9.910 -1.8623  0.2989  0.0167
  947MOL0     H27785   1.071  11.413  10.084  3.4223  0.1735 -0.2033
  947MOL0     H27786   1.138  11.630   9.898 -0.9634  2.0603  1.4323
  947MOL0     H27787   1.149  11.644  10.069 -1.5759  0.1151  1.1969
  947MOL0     H27788   1.373  11.561  10.026  0.3855  0.6814  0.4881
  947MOL0     H27789   1.298  11.409  10.054  3.3980  0.1368  0.3537
  947MOL0     H27790   1.275  11.337   9.838 -0.3364 -0.0123  1.4517
  947MOL0     H27791   1.276  11.503   9.771  2.7596  0.9333 -0.6438
  947MOL0     H27792   1.513  11.340   9.889  3.2158 -0.6871 -1.6452
  947MOL0     H27793   1.527  11.499   9.832  1.4707 -0.8212 -0.1852
  947MOL0     H27794   1.413  11.283   9.646  0.8186 -1.7882  1.0695
  947MOL0     H27795   1.473  11.446   9.605  2.2166  0.0856  0.1746
  947MOL0     H27796   1.736  11.492   9.692  1.6152  0.1449 -1.0843
  947MOL0     H27797   2.024  11.248   9.582  0.2164 -1.4518  2.4029
  947MOL0     H27798   1.982  11.418   9.562  1.2808 -0.1125  0.9655
  947MOL0     H27799   1.989  11.467   9.789  0.5548  1.2848 -1.7045
  947MOL0     H27800   2.009  11.296   9.840 -0.2669 -0.6452 -0.4131
  947MOL0     H27801   2.212  11.430   9.864 -0.2373  0.2080 -0.2572
  947MOL0     H27802   2.211  11.461   9.687  1.6613  1.2842  1.0756
  947MOL0     H27803   2.370  11.271   9.790 -0.0901  1.1822 -2.3216
  947MOL0     H27804   2.283  11.223   9.648  2.8169 -2.7608  0.8659
  947MOL0     H27805   2.098  10.941   9.916  0.9048 -0.0317  1.8746
  947MOL0     H27806   2.205  10.725   9.949  1.1170 -0.7873 -0.3641
  947MOL0     H27807   2.670  10.486   9.590  0.1817 -1.3248 -1.0421
  947MOL0     H27808   2.821  10.296   9.609  2.3793  1.1653  0.6219
  947MOL0     H27809   2.925  10.114   9.643 -1.0825 -0.7549  0.6769
  947MOL0     H27810   3.055  10.216   9.679 -1.6817  1.7181  1.9818
  947MOL0     H27811   3.172  10.035   9.821 -0.0956 -1.8424  1.3518
  947MOL0     H27812   3.017   9.966   9.840 -1.2039 -1.1650 -1.3847
  947MOL0     H27813   3.004   9.853   9.644 -0.9198  0.6280 -0.7989
  947MOL0     H27814   3.123   9.958   9.566 -1.6340  1.2279  1.4519
  947MOL0     H27815   3.201   9.706   9.618  2.5325 -0.0429 -0.4261
  947MOL0     H27816   3.217   9.753   9.786  1.5278  0.2341  0.6628
  947MOL0     H27817   3.363   9.944   9.688 -3.1310 -1.0535  2.3332
  947MOL0     H27818   3.366   9.854   9.542  1.4209 -0.3119 -0.7414
  947MOL0     H27819   3.435   9.736   9.805 -0.5746  1.8489  0.2751
  947MOL0     H27820   3.451   9.659   9.637  1.1466 -0.0019 -0.2163
  947MOL0     H27821   3.616   9.903   9.677  0.1597 -1.0651 -0.6867
  947MOL0     H27822   3.644   9.756   9.590 -3.1455 -1.3275 -1.8593
  947MOL0     H27823   3.793   9.797   9.796 -1.1792  1.8258  1.6337
  947MOL0     H27824   3.649   9.795   9.889  1.1988  0.3067  0.7282
  947MOL0     H27825   2.812  10.316  10.042 -0.4674  1.2492  0.2424
  947MOL0     H27826   2.647  10.500  10.022  2.2559 -2.1835  2.3472
  947MOL0     H27827   2.559  10.878   9.754  1.0554  1.4776  1.4876
  947MOL0     H27828   2.447  11.089   9.727 -0.5561  0.2311 -0.0979
  947MOL0     H27829   0.595  11.543  10.189  0.3070  1.6849  2.2168
  947MOL0     H27830   0.480  11.504  10.382 -0.4865  0.4462 -0.0814
  947MOL0     H27831   0.234  11.385  10.549  0.9433  0.0241  0.8581
  947MOL0     H27832   0.006  11.449  10.667  0.6248  0.0708  1.1971
  947MOL0     H27833  -0.203  11.407  10.697 -0.0098  0.2966 -0.0365
  947MOL0     H27834  -0.152  11.501  10.838 -1.8563  0.4813  0.4790
  947MOL0     H27835  -0.325  11.326  10.959 -0.1507 -1.0411 -0.9186
  947MOL0     H27836  -0.381  11.310  10.794  1.9177 -1.7784 -1.2912
  947MOL0     H27837  -0.421  11.564  10.791 -1.4022  1.3521  0.8932
  947MOL0     H27838  -0.375  11.566  10.963 -1.4492  0.0851 -0.9836
  947MOL0     H27839  -0.562  11.383  10.999 -3.8192 -0.7800 -0.2914
  947MOL0     H27840  -0.610  11.553  10.957  1.4556  0.4277  0.2658
  947MOL0     H27841  -0.775  11.362  10.649  1.2870  1.4505 -1.2262
  947MOL0     H27842   0.014  11.073  10.861  0.0708  0.4359  0.6529
  947MOL0     H27843   0.196  10.933  10.833  1.8293 -2.2026 -0.6286
  947MOL0     H27844   0.210  10.896  10.666 -0.5736  0.4981  0.6279
  947MOL0     H27845   0.344  10.986  10.756  0.3474  2.1509 -1.2727
  948MOL0     O27846   4.852  10.578   0.070  0.2241 -0.1062  0.0573
  948MOL0     C27847   4.773  10.579   0.166 -0.7895 -0.6038  0.2787
  948MOL0     O27848   4.795  10.639   0.290  0.1110 -0.2996 -0.3336
  948MOL0     C27849   4.925  10.692   0.309 -0.2653 -0.4334 -0.2076
  948MOL0     C27850   4.958  10.823   0.276 -0.7004 -1.1939 -0.8337
  948MOL0     C27851   5.092  10.870   0.312  0.9626  0.9015  0.8395
  948MOL0     C27852   5.185  10.785   0.361 -0.1039 -0.1592  0.2150
  948MOL0     O27853   5.310  10.835   0.364 -0.0672  0.4011  0.1198
  948MOL0     C27854   5.405  10.731   0.357  0.6265  0.4954  0.5432
  948MOL0     C27855   5.541  10.785   0.310 -0.1334  0.3362  0.2587
  948MOL0     C27856   5.632  10.851   0.419  0.4850  0.5165  0.3977
  948MOL0     C27857   5.782  10.863   0.389  0.8033  0.5505  0.2077
  948MOL0     C27858   5.832  10.989   0.465  1.3437 -0.0738  0.6456
  948MOL0     C27859   5.802  11.123   0.398 -0.4858  1.0927 -0.3289
  948MOL0     C27860   5.870  11.137   0.262  0.9380  0.4051  1.1289
  948MOL0     C27861   5.840  11.276   0.205  0.1641 -0.2249  0.8031
  948MOL0     N27862   5.931  11.305   0.095  0.5062 -0.4165 -0.0848
  948MOL0     C27863   6.050  11.355   0.116 -0.6638 -0.2064 -0.2755
  948MOL0     C27864   6.075  11.424   0.005 -0.6935 -1.3791 -0.7951
  948MOL0     C27865   6.191  11.521   0.008  0.2307  0.6227  0.3552
  948MOL0     C27866   6.323  11.454  -0.006 -0.3483  0.5708 -0.1341
  948MOL0     C27867   6.433  11.549   0.029 -0.1541  0.0706  0.9888
  948MOL0     C27868   6.567  11.482   0.052 -0.1517 -0.2362 -0.1119
  948MOL0     O27869   6.673  11.573   0.022 -1.2235 -0.0374  0.1388
  948MOL0     C27870   6.808  11.527   0.032  0.4473  0.1985  0.1416
  948MOL0     C27871   6.913  11.613  -0.001  0.2357  0.2865  0.1719
  948MOL0     C27872   7.039  11.566  -0.007 -0.0253  0.9081  0.3279
  948MOL0     C27873   7.069  11.429   0.014  0.1240  0.4069 -0.6715
  948MOL0     C27874   7.202  11.370  -0.002  0.4169  0.0224 -0.2608
  948MOL0     O27875   7.286  11.457  -0.067  0.0923  1.1777  0.0633
  948MOL0     C27876   7.406  11.424  -0.117 -0.7898  0.3550  0.3250
  948MOL0     C27877   7.441  11.441  -0.249 -0.6077 -0.0784 -0.0212
  948MOL0     C27878   7.579  11.414  -0.289  0.5988  1.0074 -0.2502
  948MOL0     C27879   7.668  11.379  -0.197  0.2462 -0.0725  0.2561
  948MOL0     O27880   7.795  11.364  -0.232 -0.7446 -0.4682  0.4984
  948MOL0     C27881   7.870  11.483  -0.245 -0.0207  0.7813  0.4998
  948MOL0     C27882   7.913  11.495  -0.392  0.1634 -0.7957  0.2025
  948MOL0     C27883   7.986  11.622  -0.426  0.9227 -0.4461 -0.4280
  948MOL0     C27884   8.129  11.621  -0.377  0.2228  1.3694 -0.0981
  948MOL0     C27885   8.209  11.732  -0.440 -0.1543  1.0143  0.0620
  948MOL0     C27886   8.347  11.753  -0.364  0.3756  0.2197  0.2243
  948MOL0     C27887   8.396  11.894  -0.409  0.4512  0.1309 -0.9847
  948MOL0     C27888   8.440  11.908  -0.558 -0.3467 -0.3035  0.0037
  948MOL0    Cl27889   8.545  11.762  -0.599 -0.3450  0.1513 -0.1489
  948MOL0     C27890   7.638  11.361  -0.062  0.3716  0.4084 -0.1782
  948MOL0     C27891   7.504  11.382  -0.025 -0.0047  0.6658 -0.9884
  948MOL0     O27892   7.222  11.254   0.016 -0.3043  0.0160 -0.1793
  948MOL0     C27893   6.967  11.351   0.055  0.5985  0.5674 -0.3556
  948MOL0     C27894   6.839  11.397   0.066 -0.0377  0.7402 -0.0392
  948MOL0     N27895   5.971  11.429  -0.077 -0.3443 -0.0188  0.1527
  948MOL0     N27896   5.881  11.354  -0.023  0.0182  0.4140 -0.5479
  948MOL0     C27897   5.151  10.648   0.396  0.2907 -0.1144  0.6247
  948MOL0     C27898   5.016  10.606   0.372 -0.5709 -0.8116  0.4859
  948MOL0     C27899   4.633  10.537   0.153  0.0297 -0.2863  0.2985
  948MOL0     C27900   4.564  10.504   0.272 -0.1964  0.0396  0.3581
  948MOL0     C27901   4.422  10.476   0.271  0.4102  0.2734 -0.0232
  948MOL0     C27902   4.346  10.490   0.157 -0.1558  0.0097  0.0607
  948MOL0     O27903   4.205  10.481   0.165 -0.8149  0.6759 -0.6240
  948MOL0     C27904   4.133  10.537   0.053 -0.2297 -0.7180  0.2723
  948MOL0     C27905   4.073  10.415  -0.027  0.0836  0.0508 -0.5729
  948MOL0     C27906   3.939  10.367   0.036 -0.1673  0.5159  0.5625
  948MOL0     C27907   3.887  10.254  -0.049  0.3865 -1.5681  0.8059
  948MOL0     C27908   3.970  10.139  -0.074  0.3939  0.1710  0.1546
  948MOL0     C27909   4.044  10.045  -0.078 -0.0071 -0.0821 -0.3622
  948MOL0     C27910   4.423  10.518   0.043  0.1088 -0.2618  0.5143
  948MOL0     C27911   4.555  10.537   0.037 -0.4189 -0.3957  0.4957
  948MOL0     C27912   4.624  10.579  -0.090  0.8023  0.3923 -0.5161
  948MOL0     H27913   4.895  10.897   0.227 -1.1200 -1.3463 -0.5208
  948MOL0     H27914   5.120  10.974   0.304  0.2589  0.9715 -1.0682
  948MOL0     H27915   5.411  10.692   0.459  0.6708 -2.1262 -0.3862
  948MOL0     H27916   5.366  10.662   0.282 -1.9613  1.1314  1.2130
  948MOL0     H27917   5.512  10.858   0.234 -1.1303  0.4602  0.7512
  948MOL0     H27918   5.595  10.698   0.271  1.2243  0.8940  0.8278
  948MOL0     H27919   5.619  10.791   0.509 -0.1705 -0.7637 -0.5208
  948MOL0     H27920   5.591  10.951   0.434 -0.4020  0.2184  0.0667
  948MOL0     H27921   5.825  10.774   0.435  0.6278  0.4586  0.1949
  948MOL0     H27922   5.803  10.861   0.282 -2.8539  2.4022 -0.7221
  948MOL0     H27923   5.798  10.978   0.568 -1.1545 -0.1717 -0.1193
  948MOL0     H27924   5.942  10.981   0.466  1.2357 -2.8380 -1.0731
  948MOL0     H27925   5.696  11.148   0.400 -0.1525  2.5605  0.0630
  948MOL0     H27926   5.851  11.186   0.473 -1.2309 -2.5831  3.6605
  948MOL0     H27927   5.821  11.071   0.189  1.0513  0.7142  0.7709
  948MOL0     H27928   5.978  11.127   0.271  1.0631  1.5303  0.9410
  948MOL0     H27929   5.736  11.292   0.174 -0.5611 -2.7480  1.7148
  948MOL0     H27930   5.853  11.347   0.288  0.5890  0.2718  0.3186
  948MOL0     H27931   6.106  11.360   0.209  0.4452 -1.1862 -0.8723
  948MOL0     H27932   6.179  11.602  -0.065 -1.6771 -0.9385 -1.2128
  948MOL0     H27933   6.188  11.567   0.107 -0.9890  1.0182  0.1471
  948MOL0     H27934   6.333  11.362   0.053 -2.4598 -0.7257 -1.6906
  948MOL0     H27935   6.334  11.433  -0.112 -2.9352  4.2897 -1.3501
  948MOL0     H27936   6.410  11.609   0.118 -1.8610 -1.8707  1.9406
  948MOL0     H27937   6.437  11.623  -0.051 -0.1753 -1.3793 -0.3972
  948MOL0     H27938   6.576  11.384   0.003  2.0344 -0.5048  0.7407
  948MOL0     H27939   6.586  11.467   0.159  0.0748  3.0168  0.3795
  948MOL0     H27940   6.903  11.718  -0.027 -0.8081  0.7417  2.1784
  948MOL0     H27941   7.112  11.636  -0.046 -1.7124  2.3792 -0.3450
  948MOL0     H27942   7.362  11.472  -0.316 -1.1736  0.3435  0.8156
  948MOL0     H27943   7.607  11.436  -0.392  2.2576 -0.9876 -0.2908
  948MOL0     H27944   7.811  11.570  -0.215 -0.0387  0.6963  0.7130
  948MOL0     H27945   7.958  11.486  -0.180  1.2252 -0.1046 -1.1085
  948MOL0     H27946   7.986  11.414  -0.404  1.0128 -0.6653  3.4748
  948MOL0     H27947   7.823  11.485  -0.454 -1.2257  4.4347  0.9177
  948MOL0     H27948   7.988  11.644  -0.533  0.3884  2.8333  0.1264
  948MOL0     H27949   7.927  11.701  -0.379 -0.6145 -2.1847  0.7241
  948MOL0     H27950   8.174  11.522  -0.393  3.4785  2.5767  0.7441
  948MOL0     H27951   8.138  11.643  -0.270  0.1402 -0.9570  0.4564
  948MOL0     H27952   8.149  11.823  -0.434  0.2874  1.2338  2.2956
  948MOL0     H27953   8.221  11.687  -0.539  3.0931  0.5650  0.5433
  948MOL0     H27954   8.336  11.756  -0.256  2.9346  0.1347  0.5431
  948MOL0     H27955   8.412  11.667  -0.378 -1.8314 -1.6594  0.9261
  948MOL0     H27956   8.494  11.905  -0.362 -0.1949  4.8196 -0.3119
  948MOL0     H27957   8.331  11.977  -0.381 -1.2303 -1.9030  1.6445
  948MOL0     H27958   8.353  11.903  -0.625 -0.6219 -0.9616  0.3969
  948MOL0     H27959   8.496  12.001  -0.572 -3.2786  1.9224  1.8096
  948MOL0     H27960   7.706  11.331   0.017 -1.3054 -3.5077 -0.0304
  948MOL0     H27961   7.474  11.379   0.079 -0.3801  2.3734 -1.0163
  948MOL0     H27962   6.977  11.245   0.078  0.8004  0.4987 -0.7475
  948MOL0     H27963   6.767  11.321   0.093 -0.3292  1.3713  1.0461
  948MOL0     H27964   5.217  10.570   0.431 -1.3258 -2.4055 -1.1148
  948MOL0     H27965   4.991  10.501   0.382 -1.2490 -1.1420 -3.3047
  948MOL0     H27966   4.624  10.497   0.362 -0.0911 -1.3338  0.2056
  948MOL0     H27967   4.371  10.465   0.366  2.2622 -0.0578  0.9905
  948MOL0     H27968   4.197  10.602  -0.008  1.0549 -1.1719  1.0936
  948MOL0     H27969   4.052  10.601   0.088  0.0140  0.2637 -0.8837
  948MOL0     H27970   4.149  10.337  -0.026  0.6154  0.5292 -1.6136
  948MOL0     H27971   4.065  10.447  -0.131  2.7267 -0.8817 -1.1575
  948MOL0     H27972   3.863  10.446   0.030  0.3487  1.0050  0.3937
  948MOL0     H27973   3.941  10.336   0.141  1.7185 -0.3316  0.3235
  948MOL0     H27974   3.791  10.222  -0.006 -2.2475  2.9895 -1.0545
  948MOL0     H27975   3.844  10.291  -0.142 -1.5938 -0.3342  2.1259
  948MOL0     H27976   4.120   9.970  -0.072  0.9665  0.9485  0.5166
  948MOL0     H27977   4.372  10.529  -0.052 -2.8498  0.5717  2.0952
  948MOL0     H27978   4.553  10.588  -0.173  1.1863 -0.1147 -0.9126
  948MOL0     H27979   4.660  10.682  -0.082 -0.4839  0.7619  0.9799
  948MOL0     H27980   4.693  10.500  -0.122  2.1451  0.8489  1.1432
  949MOL0     O27981   5.297   2.687   9.437  0.0955 -0.9555 -0.0133
  949MOL0     C27982   5.182   2.721   9.465  0.8859  1.0952 -0.6696
  949MOL0     O27983   5.143   2.793   9.576 -0.3455  0.4947 -0.5015
  949MOL0     C27984   5.225   2.810   9.685 -0.1676  0.4615  0.9737
  949MOL0     C27985   5.270   2.937   9.714 -0.4760  0.5470 -0.5175
  949MOL0     C27986   5.360   2.952   9.822  0.3027 -0.5666  0.1307
  949MOL0     C27987   5.404   2.848   9.909  0.6242 -0.1162  1.3278
  949MOL0     O27988   5.478   2.859  10.018 -0.4562  0.4751  0.8348
  949MOL0     C27989   5.555   2.981  10.046 -0.4848  0.6220  0.2064
  949MOL0     C27990   5.650   2.951  10.156  0.2214  0.4143 -0.0665
  949MOL0     C27991   5.714   3.087  10.200  0.7321 -0.8143 -0.8036
  949MOL0     C27992   5.823   3.059  10.307  0.1241 -0.5157 -0.0622
  949MOL0     C27993   5.914   3.173  10.334 -1.1120  0.5677  0.3949
  949MOL0     C27994   6.020   3.151  10.443  0.0457  0.2908  0.8863
  949MOL0     C27995   6.104   3.279  10.458 -1.0178  0.4221  0.5398
  949MOL0     C27996   6.218   3.262  10.558 -0.0392 -0.3799  0.6922
  949MOL0     N27997   6.294   3.387  10.574  0.4866  0.1436 -0.0900
  949MOL0     C27998   6.336   3.454  10.466  0.0155 -0.4578  0.7977
  949MOL0     C27999   6.422   3.551  10.508  0.1925 -0.4454 -0.6279
  949MOL0     C28000   6.477   3.650  10.407 -0.0486  0.2143 -0.6713
  949MOL0     C28001   6.584   3.730  10.481  1.1127  0.0024 -0.8955
  949MOL0     C28002   6.627   3.861  10.416  0.2995 -0.0416  0.5374
  949MOL0     C28003   6.741   3.921  10.495  0.7086 -0.3721  0.0275
  949MOL0     O28004   6.788   4.039  10.431  0.2357 -0.1998 -0.7890
  949MOL0     C28005   6.899   4.104  10.474 -0.3810 -0.1481 -0.6389
  949MOL0     C28006   6.929   4.218  10.397 -0.5037  0.1081 -0.0598
  949MOL0     C28007   7.042   4.304  10.421  0.3235 -0.2037 -0.1573
  949MOL0     C28008   7.128   4.272  10.533  0.0717  0.3000  0.0419
  949MOL0     C28009   7.246   4.350  10.568 -0.9672 -0.2654 -0.6971
  949MOL0     O28010   7.245   4.477  10.515  0.6143  0.4688  0.7810
  949MOL0     C28011   7.365   4.546  10.531  0.2345  0.9521 -0.3817
  949MOL0     C28012   7.493   4.500  10.488  0.0199 -0.3333  0.4174
  949MOL0     C28013   7.610   4.572  10.520  0.5045  0.7366 -0.2396
  949MOL0     C28014   7.591   4.694  10.588 -0.2503  0.7327  0.7857
  949MOL0     O28015   7.695   4.767  10.644  0.6348 -0.3469  0.5725
  949MOL0     C28016   7.826   4.701  10.649 -0.1827 -0.5287 -0.5308
  949MOL0     C28017   7.930   4.813  10.697  0.1067 -0.5519  0.5682
  949MOL0     C28018   8.054   4.738  10.744  0.0447 -0.0420  0.3987
  949MOL0     C28019   8.164   4.837  10.768  0.2150  1.2573 -0.1473
  949MOL0     C28020   8.302   4.776  10.804 -0.7117 -0.2961  0.0812
  949MOL0     C28021   8.401   4.884  10.844 -0.1400  0.2071  0.0630
  949MOL0     C28022   8.543   4.826  10.883 -0.5601  0.3880 -0.1558
  949MOL0     C28023   8.620   4.786  10.761  0.4210  0.8553 -0.8470
  949MOL0    Cl28024   8.641   4.920  10.650  0.0398  0.0504 -0.1857
  949MOL0     C28025   7.466   4.746  10.618  0.6119 -0.2862  0.0573
  949MOL0     C28026   7.353   4.670  10.589  0.1209 -0.4185  0.0157
  949MOL0     O28027   7.327   4.299  10.651  0.3520 -1.3073  0.9504
  949MOL0     C28028   7.101   4.155  10.610  0.2587 -0.2868  0.2096
  949MOL0     C28029   6.988   4.079  10.583  0.5530  0.1990  0.7179
  949MOL0     N28030   6.417   3.544  10.650 -0.0024  0.6199 -0.2888
  949MOL0     N28031   6.332   3.452  10.689  0.0872 -1.1454  0.6148
  949MOL0     C28032   5.350   2.724   9.870 -0.1595 -0.3701 -0.3230
  949MOL0     C28033   5.259   2.701   9.765  0.1176  0.4985 -0.4654
  949MOL0     C28034   5.065   2.676   9.391  0.4461  0.0593  0.7771
  949MOL0     C28035   4.952   2.635   9.459  0.0520  0.9087  0.1188
  949MOL0     C28036   4.837   2.584   9.390  0.4083 -0.3340 -0.1418
  949MOL0     C28037   4.833   2.587   9.249  0.4672  0.1695 -0.3151
  949MOL0     O28038   4.737   2.529   9.171 -0.8965 -0.0053 -0.4118
  949MOL0     C28039   4.605   2.554   9.193 -0.2683 -0.3224  0.6904
  949MOL0     C28040   4.525   2.486   9.077  0.0217 -0.1321 -0.2031
  949MOL0     C28041   4.372   2.475   9.094  0.3171  0.1583  0.6796
  949MOL0     C28042   4.310   2.441   8.951 -0.8966  0.4921 -0.1891
  949MOL0     C28043   4.178   2.376   8.972  0.0105  0.0344  0.0178
  949MOL0     C28044   4.085   2.306   8.989  0.4796 -0.0184 -0.4741
  949MOL0     C28045   4.940   2.644   9.184 -0.3510  0.3921 -0.2929
  949MOL0     C28046   5.063   2.680   9.247  0.3355  0.1505  0.9574
  949MOL0     C28047   5.173   2.730   9.160 -0.5031 -1.0705  0.0344
  949MOL0     H28048   5.242   3.024   9.655 -1.4580  1.7700  1.6580
  949MOL0     H28049   5.398   3.053   9.833  2.6012 -1.3962  0.3207
  949MOL0     H28050   5.610   3.013   9.957 -3.1468  2.0522 -1.0609
  949MOL0     H28051   5.499   3.072  10.068 -0.0004  0.8891  0.3604
  949MOL0     H28052   5.725   2.876  10.129 -0.0764 -0.2341  0.8500
  949MOL0     H28053   5.579   2.930  10.236 -0.9330  0.8599 -0.9332
  949MOL0     H28054   5.637   3.155  10.237  0.2143 -2.0862  0.5454
  949MOL0     H28055   5.762   3.139  10.116 -2.4976  1.7829 -1.2788
  949MOL0     H28056   5.788   3.024  10.405 -0.3038  1.0273  0.3637
  949MOL0     H28057   5.879   2.972  10.271  0.7839 -1.1360  2.2742
  949MOL0     H28058   5.962   3.189  10.237 -1.2513 -3.0483 -0.4009
  949MOL0     H28059   5.855   3.263  10.356  0.2296  1.2628  1.3029
  949MOL0     H28060   5.978   3.129  10.541  3.4304 -0.9306  2.2292
  949MOL0     H28061   6.079   3.060  10.427 -1.3074 -0.1525 -2.3376
  949MOL0     H28062   6.038   3.361  10.491 -0.8477  1.0549 -0.6551
  949MOL0     H28063   6.149   3.308  10.363 -0.0586 -0.7655  0.6092
  949MOL0     H28064   6.184   3.239  10.660  0.5219  1.7568  1.3981
  949MOL0     H28065   6.294   3.187  10.534 -0.7393 -0.6257 -0.8721
  949MOL0     H28066   6.320   3.433  10.361 -0.2671  0.2064  0.7064
  949MOL0     H28067   6.518   3.610  10.315  0.0308  0.5386 -0.7763
  949MOL0     H28068   6.402   3.724  10.377  0.7547  1.0287 -0.7019
  949MOL0     H28069   6.545   3.745  10.582  2.8648  0.8802 -0.3249
  949MOL0     H28070   6.674   3.667  10.482 -0.7842 -2.9605 -1.9855
  949MOL0     H28071   6.541   3.929  10.416  0.2295 -0.1089 -0.2942
  949MOL0     H28072   6.657   3.860  10.311  0.1217  3.4147  0.3394
  949MOL0     H28073   6.818   3.846  10.513  0.6638  0.3157  3.9213
  949MOL0     H28074   6.708   3.949  10.596  0.7591 -0.3202  0.0300
  949MOL0     H28075   6.863   4.241  10.314  0.9969  0.3740 -1.2177
  949MOL0     H28076   7.055   4.399  10.370 -0.5109  1.8974  3.2142
  949MOL0     H28077   7.507   4.412  10.426  2.3683  0.3615 -0.1461
  949MOL0     H28078   7.702   4.536  10.476  1.3163  1.7677  0.5664
  949MOL0     H28079   7.827   4.615  10.717 -0.3143 -1.2208 -1.3791
  949MOL0     H28080   7.862   4.670  10.550  0.9321  2.3036 -1.0987
  949MOL0     H28081   7.949   4.880  10.613 -0.8599 -0.2618  0.5736
  949MOL0     H28082   7.882   4.878  10.771 -3.1497  1.1410 -2.7095
  949MOL0     H28083   8.040   4.693  10.843  0.5423 -0.1951  0.4046
  949MOL0     H28084   8.093   4.664  10.674  1.9703 -0.4971  1.8680
  949MOL0     H28085   8.126   4.898  10.851 -2.7912  0.2452 -0.6670
  949MOL0     H28086   8.192   4.897  10.681  1.2468  2.8413  1.2105
  949MOL0     H28087   8.337   4.717  10.719 -1.6502 -2.5701  1.1675
  949MOL0     H28088   8.295   4.715  10.895 -2.0937  1.1007  0.9761
  949MOL0     H28089   8.396   4.959  10.765  0.7552 -0.5581 -0.7444
  949MOL0     H28090   8.356   4.923  10.936 -1.2904 -1.1860  0.1228
  949MOL0     H28091   8.536   4.750  10.961  1.2958 -1.6571 -1.8409
  949MOL0     H28092   8.601   4.911  10.921  1.0008 -0.3274 -0.8315
  949MOL0     H28093   8.707   4.726  10.789 -0.1814  0.7943  1.0481
  949MOL0     H28094   8.555   4.718  10.705  0.0573  1.9178 -1.7493
  949MOL0     H28095   7.448   4.845  10.659  2.4428  0.6953 -1.3835
  949MOL0     H28096   7.256   4.710  10.617  0.9962  0.8518  1.4085
  949MOL0     H28097   7.154   4.130  10.702  3.1500  2.3449 -0.5417
  949MOL0     H28098   6.952   4.005  10.654  0.9047  1.8693  2.7208
  949MOL0     H28099   5.390   2.636   9.919  2.0659  0.4985 -0.4730
  949MOL0     H28100   5.231   2.601   9.734  2.5151  0.1649 -1.8000
  949MOL0     H28101   4.959   2.638   9.568  0.8504  0.4485  0.0928
  949MOL0     H28102   4.742   2.556   9.435  1.2954  1.3656  3.1663
  949MOL0     H28103   4.587   2.660   9.212 -0.3653  0.2603 -2.2690
  949MOL0     H28104   4.584   2.500   9.286  1.6566 -3.3532 -0.4925
  949MOL0     H28105   4.569   2.388   9.054  2.2732  1.1613 -1.7772
  949MOL0     H28106   4.541   2.549   8.989  1.5853  1.3439  1.0767
  949MOL0     H28107   4.319   2.559   9.141  0.5577 -0.8331  2.8648
  949MOL0     H28108   4.347   2.388   9.156 -1.2674 -0.2726 -0.4955
  949MOL0     H28109   4.310   2.525   8.881  4.0186  0.9167 -0.0642
  949MOL0     H28110   4.375   2.370   8.898 -3.1578 -0.1260 -2.2990
  949MOL0     H28111   3.994   2.256   9.014  0.5013 -1.6934 -3.3463
  949MOL0     H28112   4.929   2.651   9.076  0.5883 -2.5398 -0.6547
  949MOL0     H28113   5.264   2.671   9.174  0.0662 -0.2123  0.0844
  949MOL0     H28114   5.142   2.729   9.056 -1.8526  1.1273  0.3526
  949MOL0     H28115   5.190   2.833   9.196 -1.7400 -0.7308 -0.3080
  950MOL0     O28116   5.348   6.129   9.333  0.1891  0.1294  0.1364
  950MOL0     C28117   5.348   6.176   9.449 -0.1601 -0.1224  0.2050
  950MOL0     O28118   5.458   6.210   9.517 -0.2537 -0.2104 -0.1003
  950MOL0     C28119   5.566   6.254   9.452 -0.4562  0.1050 -1.3377
  950MOL0     C28120   5.577   6.315   9.327 -0.2913 -0.8014  0.4850
  950MOL0     C28121   5.695   6.355   9.273 -0.3319  0.3384  0.5982
  950MOL0     C28122   5.813   6.338   9.341 -0.0809 -0.1130 -0.2664
  950MOL0     O28123   5.932   6.377   9.293 -0.0989 -0.3522  0.4638
  950MOL0     C28124   5.963   6.341   9.155 -0.0580 -0.0754 -0.2156
  950MOL0     C28125   6.117   6.347   9.139  0.9262 -0.5766  0.3280
  950MOL0     C28126   6.171   6.485   9.146 -0.5131 -0.3700 -0.3316
  950MOL0     C28127   6.322   6.467   9.116  0.0582 -0.5897 -0.0818
  950MOL0     C28128   6.409   6.585   9.118 -0.5841 -0.0112 -0.1847
  950MOL0     C28129   6.557   6.552   9.129 -0.1286 -0.3327 -0.2434
  950MOL0     C28130   6.610   6.442   9.036  1.0718 -0.2630 -0.0494
  950MOL0     C28131   6.743   6.379   9.069  0.6741 -0.4049 -0.5167
  950MOL0     N28132   6.849   6.476   9.086  0.1938  0.0947 -0.3012
  950MOL0     C28133   6.868   6.574   9.183 -0.5893  0.7913 -0.1177
  950MOL0     C28134   6.984   6.633   9.146 -0.6433  1.0945 -0.1402
  950MOL0     C28135   7.057   6.734   9.229  0.5434  0.0117 -0.0848
  950MOL0     C28136   7.164   6.660   9.308  0.1206  1.0673  0.2704
  950MOL0     C28137   7.291   6.621   9.225 -0.7531  0.8360  0.5196
  950MOL0     C28138   7.378   6.513   9.303 -0.0014 -0.2737 -0.0715
  950MOL0     O28139   7.478   6.456   9.221  0.5075 -0.7072  0.5390
  950MOL0     C28140   7.605   6.483   9.257 -0.4338 -1.0236 -0.1094
  950MOL0     C28141   7.650   6.418   9.365  0.1825 -0.1580 -0.4547
  950MOL0     C28142   7.781   6.442   9.406  0.8270  0.0624 -0.4566
  950MOL0     C28143   7.868   6.530   9.331 -1.1413 -0.1826 -0.1600
  950MOL0     C28144   8.010   6.534   9.375  0.3830 -0.4572  0.1559
  950MOL0     O28145   8.082   6.633   9.312 -0.1859 -0.4713 -0.2475
  950MOL0     C28146   8.209   6.655   9.361  0.3645  0.0643  0.3590
  950MOL0     C28147   8.246   6.785   9.414  0.4330  0.7362 -0.5306
  950MOL0     C28148   8.379   6.820   9.449  0.1322  0.1474  0.5122
  950MOL0     C28149   8.481   6.715   9.430 -0.4838 -0.4380 -0.0349
  950MOL0     O28150   8.605   6.751   9.468 -0.2958 -0.2168  0.0179
  950MOL0     C28151   8.701   6.743   9.354  0.1497 -0.2550 -0.2146
  950MOL0     C28152   8.845   6.757   9.412 -0.0153 -0.0870 -0.5785
  950MOL0     C28153   8.953   6.767   9.313 -0.1840  0.4617 -0.1554
  950MOL0     C28154   9.082   6.723   9.385 -0.3621 -1.0268  0.5053
  950MOL0     C28155   9.191   6.742   9.283  0.1872 -0.0101 -0.1212
  950MOL0     C28156   9.332   6.698   9.344  0.1522  1.0682 -0.2102
  950MOL0     C28157   9.441   6.715   9.242  0.3316  0.3269  0.8959
  950MOL0     C28158   9.483   6.860   9.206  0.1340  0.3776 -0.1536
  950MOL0    Cl28159   9.604   6.927   9.314  0.2230 -0.1434  0.3379
  950MOL0     C28160   8.447   6.592   9.381 -0.4706  0.1558  0.5246
  950MOL0     C28161   8.318   6.565   9.345  0.0481 -0.6748  0.3001
  950MOL0     O28162   8.052   6.439   9.445 -0.4101 -0.6005 -0.5462
  950MOL0     C28163   7.811   6.613   9.235  0.0807 -0.2807 -0.1131
  950MOL0     C28164   7.682   6.590   9.194  0.7677  0.9987 -0.3960
  950MOL0     N28165   7.015   6.593   9.020  0.0627  0.0357 -0.1034
  950MOL0     N28166   6.945   6.489   8.996  0.2270 -1.0677 -0.1736
  950MOL0     C28167   5.808   6.280   9.462  0.8079  0.4963  0.2123
  950MOL0     C28168   5.690   6.230   9.514 -0.0565 -0.2710  0.8909
  950MOL0     C28169   5.229   6.155   9.534  0.1397  0.4537 -0.2508
  950MOL0     C28170   5.108   6.146   9.466 -0.3784  0.9409  0.5319
  950MOL0     C28171   4.991   6.114   9.524 -0.4895 -0.3667 -0.1214
  950MOL0     C28172   4.980   6.094   9.662  0.6358 -0.1679  0.9236
  950MOL0     O28173   4.853   6.053   9.706 -0.3035  0.0406  0.1784
  950MOL0     C28174   4.827   6.067   9.846 -0.1260  0.0436  0.7745
  950MOL0     C28175   4.674   6.060   9.875  0.3159 -0.4773  0.1655
  950MOL0     C28176   4.607   6.178   9.803 -0.1458 -0.0182 -0.8907
  950MOL0     C28177   4.457   6.172   9.833 -0.5750 -0.5373 -0.0856
  950MOL0     C28178   4.392   6.269   9.744 -0.6263 -0.3662 -0.8600
  950MOL0     C28179   4.355   6.364   9.674  0.5768 -0.1703 -0.2709
  950MOL0     C28180   5.092   6.113   9.739 -0.6234  0.0695 -0.8512
  950MOL0     C28181   5.217   6.142   9.678 -0.2716  0.0507  0.1836
  950MOL0     C28182   5.330   6.137   9.766 -0.3298 -0.0126 -0.6350
  950MOL0     H28183   5.499   6.310   9.252 -0.1775 -0.9195  0.3751
  950MOL0     H28184   5.699   6.401   9.175  0.4572 -0.1860  0.3797
  950MOL0     H28185   5.922   6.242   9.137 -0.8993  0.3628 -0.7447
  950MOL0     H28186   5.918   6.411   9.084  0.2787  0.5677  0.1903
  950MOL0     H28187   6.139   6.305   9.041 -1.8358  1.0411 -1.1125
  950MOL0     H28188   6.168   6.286   9.214 -2.2438  0.0924  3.3068
  950MOL0     H28189   6.161   6.527   9.246  0.3388  4.9716 -2.1735
  950MOL0     H28190   6.137   6.563   9.078  1.3527  2.2245  1.5037
  950MOL0     H28191   6.359   6.397   9.190 -0.6728 -1.1441 -0.2244
  950MOL0     H28192   6.333   6.420   9.018 -1.7008  0.5688 -0.8894
  950MOL0     H28193   6.399   6.631   9.019 -2.0566  0.3417  0.1088
  950MOL0     H28194   6.383   6.659   9.194  1.3249 -0.1409  0.6509
  950MOL0     H28195   6.615   6.642   9.111 -1.3915  0.9353  1.6327
  950MOL0     H28196   6.576   6.518   9.231  2.3479 -0.4081 -0.6715
  950MOL0     H28197   6.629   6.487   8.938 -1.2406 -0.3998 -0.6360
  950MOL0     H28198   6.537   6.360   9.030 -0.6702  1.3258 -1.8377
  950MOL0     H28199   6.736   6.318   9.160  0.0812  0.7983  0.2667
  950MOL0     H28200   6.767   6.317   8.982 -0.0300  1.4724 -2.1116
  950MOL0     H28201   6.818   6.586   9.278  0.9062  1.4526  0.6347
  950MOL0     H28202   7.095   6.815   9.166  2.7941  0.8506  2.1860
  950MOL0     H28203   6.980   6.775   9.296 -0.9728 -3.1104  0.2850
  950MOL0     H28204   7.178   6.736   9.385 -1.4544  0.6684  0.9992
  950MOL0     H28205   7.123   6.572   9.358 -0.0193  0.7246 -0.4266
  950MOL0     H28206   7.361   6.703   9.210  1.8116 -1.6111 -2.0501
  950MOL0     H28207   7.270   6.577   9.127  3.7177 -2.7304  0.8371
  950MOL0     H28208   7.311   6.438   9.346  0.7081  0.2939  2.1600
  950MOL0     H28209   7.417   6.550   9.398 -0.4678 -3.7235  1.6043
  950MOL0     H28210   7.588   6.356   9.429  0.1816 -1.0199 -1.2768
  950MOL0     H28211   7.805   6.398   9.502 -1.5012  1.0277  0.6496
  950MOL0     H28212   8.171   6.860   9.437  0.3444  0.4493  0.1600
  950MOL0     H28213   8.397   6.915   9.497  1.6846 -1.3720  3.2453
  950MOL0     H28214   8.695   6.653   9.293  3.2638 -0.2908 -0.5959
  950MOL0     H28215   8.687   6.830   9.289  2.2348  0.3239  0.0501
  950MOL0     H28216   8.850   6.850   9.469 -1.6566 -0.7507  0.7201
  950MOL0     H28217   8.850   6.671   9.479 -0.5867 -1.8141 -2.6141
  950MOL0     H28218   8.956   6.693   9.232  0.3107 -0.9014  1.0727
  950MOL0     H28219   8.961   6.869   9.275  1.1132  0.4009 -0.0853
  950MOL0     H28220   9.091   6.621   9.423 -0.0493 -1.0574  0.3479
  950MOL0     H28221   9.105   6.787   9.470  4.1986 -0.1743 -1.1200
  950MOL0     H28222   9.202   6.848   9.260  0.7112  0.6882  2.8516
  950MOL0     H28223   9.167   6.692   9.189  0.7107  0.9840 -0.8014
  950MOL0     H28224   9.359   6.757   9.432 -2.4770 -0.1850  1.5680
  950MOL0     H28225   9.328   6.595   9.380  0.6783  1.9268  2.4850
  950MOL0     H28226   9.415   6.657   9.153 -0.5003 -2.4531  2.8250
  950MOL0     H28227   9.534   6.661   9.261  0.0387 -1.0319 -1.1680
  950MOL0     H28228   9.540   6.846   9.114  0.2313  0.6462 -0.1351
  950MOL0     H28229   9.403   6.934   9.196 -1.2452 -0.9903  0.3734
  950MOL0     H28230   8.525   6.518   9.370  0.1668  1.1480 -3.1671
  950MOL0     H28231   8.298   6.464   9.310  2.7354 -1.6367  1.3023
  950MOL0     H28232   7.874   6.693   9.198  1.0150  0.0868  2.1150
  950MOL0     H28233   7.636   6.627   9.103  0.1581  0.4833 -0.3118
  950MOL0     H28234   5.893   6.251   9.523 -0.4141 -0.0416  1.7111
  950MOL0     H28235   5.692   6.172   9.606  0.0976 -0.1856  0.9428
  950MOL0     H28236   5.102   6.161   9.358  2.8912  1.4406  0.3010
  950MOL0     H28237   4.904   6.097   9.461  1.0018 -4.2621 -1.3966
  950MOL0     H28238   4.856   6.166   9.884  1.1268 -0.6484  1.6940
  950MOL0     H28239   4.882   5.997   9.910 -2.4337 -3.5767 -0.9203
  950MOL0     H28240   4.659   6.067   9.983  1.5252  1.0355  0.2724
  950MOL0     H28241   4.629   5.970   9.832  0.6708 -0.7559  0.3723
  950MOL0     H28242   4.615   6.156   9.696 -2.2791 -3.1976 -0.5246
  950MOL0     H28243   4.659   6.274   9.813  0.4255  0.2024 -4.4772
  950MOL0     H28244   4.406   6.077   9.812 -0.6191 -0.2711 -1.2464
  950MOL0     H28245   4.432   6.205   9.934 -0.1355 -0.9537  0.1655
  950MOL0     H28246   4.315   6.445   9.616 -0.6687 -0.3715  0.2739
  950MOL0     H28247   5.098   6.110   9.847 -0.6051  0.2587 -0.8473
  950MOL0     H28248   5.374   6.235   9.786  1.5656 -0.5386 -1.9536
  950MOL0     H28249   5.310   6.081   9.858  3.3021  0.2973  0.5053
  950MOL0     H28250   5.408   6.076   9.720  0.3450 -1.2604  1.9842
  951MOL0     O28251   7.667   2.045   2.271 -0.0896 -0.3704  0.0939
  951MOL0     C28252   7.680   1.926   2.293  0.1155 -0.1070  0.3100
  951MOL0     O28253   7.802   1.857   2.305  0.1927 -0.3182 -0.0452
  951MOL0     C28254   7.920   1.921   2.272  0.4373  0.8561 -0.3029
  951MOL0     C28255   7.959   2.033   2.353 -0.2886  0.3369 -0.5233
  951MOL0     C28256   8.087   2.089   2.323  0.5226 -0.7052 -0.1302
  951MOL0     C28257   8.170   2.030   2.230  0.1638 -0.2067  0.1869
  951MOL0     O28258   8.286   2.096   2.210 -0.1015 -0.3394 -0.2713
  951MOL0     C28259   8.390   2.027   2.126  1.1745  0.8556  0.5402
  951MOL0     C28260   8.517   2.129   2.111  1.4078 -0.6571  0.8868
  951MOL0     C28261   8.585   2.163   2.245  0.4116 -0.7121  0.2437
  951MOL0     C28262   8.705   2.249   2.210 -0.8858 -0.6960  0.4810
  951MOL0     C28263   8.790   2.277   2.337 -0.0183 -0.0770 -0.2089
  951MOL0     C28264   8.933   2.318   2.308  0.4747  0.3292  0.0637
  951MOL0     C28265   9.012   2.365   2.437  0.2003 -0.5806  0.4538
  951MOL0     C28266   9.023   2.237   2.527  0.1864  0.1068  0.1955
  951MOL0     N28267   9.100   2.256   2.643 -0.1680 -0.3436 -0.5810
  951MOL0     C28268   9.218   2.193   2.669 -0.1382 -0.1305  0.4869
  951MOL0     C28269   9.273   2.262   2.772  0.4670  0.0084 -0.9823
  951MOL0     C28270   9.374   2.216   2.869  1.0771  0.3437  0.3707
  951MOL0     C28271   9.298   2.144   2.990  0.3923  1.1252  0.5492
  951MOL0     C28272   9.399   2.108   3.106  0.1707  0.7233  0.2472
  951MOL0     C28273   9.471   1.980   3.064  0.4272 -0.1575 -0.2890
  951MOL0     O28274   9.558   2.001   2.958  0.2153  0.0509 -0.5881
  951MOL0     C28275   9.696   2.023   2.975  0.3664 -0.6137 -0.0317
  951MOL0     C28276   9.789   1.920   2.992 -0.0475  0.2553  0.7678
  951MOL0     C28277   9.916   1.953   2.995  0.7475  0.4205 -0.1929
  951MOL0     C28278   9.967   2.084   2.979  0.4286 -0.2813  0.2926
  951MOL0     C28279  10.110   2.119   2.988 -0.4745 -0.6948  0.1762
  951MOL0     O28280  10.187   2.031   3.054  0.2314  0.5897  0.5203
  951MOL0     C28281  10.328   2.035   3.046  0.1504 -0.0489  0.4987
  951MOL0     C28282  10.401   2.091   2.940 -0.2404 -0.2552  0.4902
  951MOL0     C28283  10.545   2.098   2.941 -0.3368 -0.2263  0.1615
  951MOL0     C28284  10.614   2.025   3.038  0.8343 -0.3669 -0.4048
  951MOL0     O28285  10.752   2.005   3.049 -0.3570  0.1351  0.2094
  951MOL0     C28286  10.825   2.053   2.934  0.3295  0.6915 -0.1380
  951MOL0     C28287  10.970   1.994   2.958  1.0960 -0.3371  0.3612
  951MOL0     C28288  11.062   2.091   3.034 -0.4027  0.5854 -0.2313
  951MOL0     C28289  11.217   2.048   3.013  0.1165 -0.3858 -0.7776
  951MOL0     C28290  11.322   2.138   3.094  1.1565 -0.5230 -0.3102
  951MOL0     C28291  11.466   2.096   3.070 -0.3946  0.2162 -0.0841
  951MOL0     C28292  11.557   2.170   3.159  0.8190  0.3471 -0.3145
  951MOL0     C28293  11.577   2.325   3.134  0.3263 -0.0611  0.2001
  951MOL0    Cl28294  11.668   2.397   3.276  0.0858 -0.0334  0.2641
  951MOL0     C28295  10.545   1.955   3.133  1.2308  0.6156 -0.0058
  951MOL0     C28296  10.400   1.965   3.146  0.4272  0.8295 -0.3384
  951MOL0     O28297  10.146   2.213   2.914 -0.3912 -0.4349  0.7176
  951MOL0     C28298   9.873   2.188   2.957 -0.9932 -0.0156  0.1224
  951MOL0     C28299   9.735   2.154   2.960 -0.0023  0.0551  0.2487
  951MOL0     N28300   9.192   2.372   2.808 -0.7635  0.2450 -0.8262
  951MOL0     N28301   9.092   2.366   2.723 -0.2818 -0.7094 -1.0342
  951MOL0     C28302   8.135   1.911   2.165  0.5601  0.2978  0.6574
  951MOL0     C28303   8.009   1.856   2.185 -0.3611 -0.8123  0.1493
  951MOL0     C28304   7.559   1.847   2.291  0.2571  0.3038  0.0993
  951MOL0     C28305   7.578   1.708   2.315  0.8457  0.7652 -0.0783
  951MOL0     C28306   7.471   1.617   2.311 -0.5109 -0.7713  0.1595
  951MOL0     C28307   7.344   1.653   2.283  0.2841 -0.2196 -0.3541
  951MOL0     O28308   7.256   1.546   2.296  0.1047 -0.1459  1.0339
  951MOL0     C28309   7.120   1.587   2.288  0.2328  0.3647  0.1406
  951MOL0     C28310   7.032   1.462   2.285 -1.2179  0.4485  0.2562
  951MOL0     C28311   7.021   1.413   2.431 -0.1152 -0.1834 -0.1619
  951MOL0     C28312   6.923   1.293   2.434  0.3184  0.2758 -0.5079
  951MOL0     C28313   6.791   1.325   2.399 -0.2860 -0.2952  0.7764
  951MOL0     C28314   6.669   1.339   2.367 -0.5067 -0.1543  0.2630
  951MOL0     C28315   7.322   1.791   2.263  0.4750 -0.6015 -0.0129
  951MOL0     C28316   7.425   1.884   2.257  0.7158  0.8057  1.1665
  951MOL0     C28317   7.379   2.024   2.224 -0.0644  0.6257  0.8450
  951MOL0     H28318   7.891   2.073   2.427 -0.4367  0.7168 -0.8602
  951MOL0     H28319   8.131   2.182   2.358  1.7323 -1.1599 -0.4191
  951MOL0     H28320   8.415   1.931   2.172  0.8611 -0.5458 -2.0260
  951MOL0     H28321   8.344   2.006   2.029  3.6457  2.2353 -1.0251
  951MOL0     H28322   8.476   2.218   2.064  0.9464 -1.4886 -0.3220
  951MOL0     H28323   8.589   2.089   2.040 -0.6654 -0.3336 -1.5197
  951MOL0     H28324   8.613   2.067   2.289  0.1574 -1.1641 -0.5560
  951MOL0     H28325   8.531   2.226   2.317 -0.9696 -0.4001 -1.0141
  951MOL0     H28326   8.759   2.200   2.129 -1.6418  0.1441 -0.5577
  951MOL0     H28327   8.673   2.345   2.169 -0.9754 -1.3949 -1.1872
  951MOL0     H28328   8.740   2.355   2.394 -1.4123 -1.7555  0.9635
  951MOL0     H28329   8.773   2.186   2.395 -2.5860  1.1689  1.1477
  951MOL0     H28330   8.981   2.237   2.253 -0.0702  0.5863 -0.8111
  951MOL0     H28331   8.924   2.398   2.234 -0.7373 -1.8743 -2.3181
  951MOL0     H28332   8.952   2.447   2.477  1.7644  0.2343  1.2415
  951MOL0     H28333   9.108   2.406   2.404 -0.6394  3.0703  2.0970
  951MOL0     H28334   8.923   2.197   2.547 -0.3306  1.5130  0.5625
  951MOL0     H28335   9.076   2.175   2.454  0.8232 -0.1011  0.8255
  951MOL0     H28336   9.243   2.088   2.657  1.9927  0.0629  2.5914
  951MOL0     H28337   9.443   2.148   2.819  0.5242 -1.1035  1.5052
  951MOL0     H28338   9.428   2.304   2.904 -0.6488  2.1331 -1.2160
  951MOL0     H28339   9.218   2.201   3.037 -1.0413  0.0483 -0.5000
  951MOL0     H28340   9.249   2.053   2.954  0.5364  1.5304 -0.7168
  951MOL0     H28341   9.338   2.086   3.194 -0.4760 -0.5804 -0.5131
  951MOL0     H28342   9.472   2.188   3.124 -0.9690  2.8729 -3.7283
  951MOL0     H28343   9.403   1.905   3.022  1.1906  0.1158 -2.1024
  951MOL0     H28344   9.517   1.930   3.149  1.5833  1.1903 -0.1057
  951MOL0     H28345   9.752   1.818   2.988 -0.2587  0.3607 -1.3917
  951MOL0     H28346   9.985   1.873   3.020  1.7348  1.2577 -0.1549
  951MOL0     H28347  10.353   2.135   2.853  3.0075 -2.4987 -2.7393
  951MOL0     H28348  10.592   2.143   2.855  1.1535  1.2187  1.6408
  951MOL0     H28349  10.794   2.011   2.838 -0.9850  0.7702  0.2364
  951MOL0     H28350  10.827   2.162   2.939  0.8473  0.6563  0.5099
  951MOL0     H28351  10.964   1.904   3.021  0.9990  2.1690  4.3070
  951MOL0     H28352  11.008   1.955   2.864 -1.3808 -0.9519 -0.4385
  951MOL0     H28353  11.050   2.189   2.986  0.5073 -0.1251 -1.9802
  951MOL0     H28354  11.038   2.091   3.141 -1.2782 -2.0441 -0.3536
  951MOL0     H28355  11.236   2.052   2.905 -0.7052  2.0579 -0.8773
  951MOL0     H28356  11.222   1.945   3.049 -0.2606  0.0795  0.6542
  951MOL0     H28357  11.297   2.121   3.199  0.0489 -1.3129 -0.6781
  951MOL0     H28358  11.308   2.244   3.071  0.8694 -1.1495 -3.5076
  951MOL0     H28359  11.485   1.993   3.101  0.4989  1.1813  2.9007
  951MOL0     H28360  11.491   2.100   2.964 -0.4266  2.6329 -0.0602
  951MOL0     H28361  11.656   2.125   3.151  0.8603  0.5283 -0.8240
  951MOL0     H28362  11.534   2.160   3.266  2.5930  2.4690  0.3405
  951MOL0     H28363  11.638   2.347   3.046 -0.0317  1.2182  0.2584
  951MOL0     H28364  11.480   2.373   3.118  1.2336  1.4142 -1.1694
  951MOL0     H28365  10.595   1.886   3.200 -0.6168 -1.4601 -0.6298
  951MOL0     H28366  10.360   1.924   3.238 -0.7883  1.4631 -0.5598
  951MOL0     H28367   9.905   2.291   2.944 -0.1538  0.2720  3.6036
  951MOL0     H28368   9.660   2.229   2.940 -0.3232 -0.8118 -2.2161
  951MOL0     H28369   8.199   1.870   2.087  0.3199 -0.4952  0.8691
  951MOL0     H28370   7.987   1.767   2.126 -0.8726 -0.6513  0.0884
  951MOL0     H28371   7.679   1.668   2.327  0.0631 -1.4867 -0.5654
  951MOL0     H28372   7.488   1.511   2.323  0.8744 -0.7633 -1.2928
  951MOL0     H28373   7.092   1.639   2.195 -4.3755 -1.1203  0.4365
  951MOL0     H28374   7.098   1.656   2.370 -0.5332 -1.2045  1.3059
  951MOL0     H28375   7.069   1.388   2.213 -1.6884 -0.9336  1.3812
  951MOL0     H28376   6.934   1.490   2.245 -1.7690 -1.8307 -0.1603
  951MOL0     H28377   6.976   1.496   2.486 -1.8075 -0.4747 -1.0483
  951MOL0     H28378   7.117   1.373   2.467 -0.2415 -2.0532 -1.7746
  951MOL0     H28379   6.954   1.216   2.363  1.3508  0.2607 -0.0476
  951MOL0     H28380   6.924   1.253   2.536 -0.9246  1.0331 -0.1735
  951MOL0     H28381   6.565   1.353   2.345 -0.3165  0.8305 -0.0757
  951MOL0     H28382   7.224   1.831   2.242  1.2959  1.4593 -0.1129
  951MOL0     H28383   7.432   2.096   2.287  1.5897  0.5726 -0.4204
  951MOL0     H28384   7.401   2.051   2.121 -1.1381 -1.8713 -0.1189
  951MOL0     H28385   7.271   2.032   2.233 -0.1125  1.9571 -0.6043
  952MOL0     O28386   4.187   1.999  11.177  0.0137  0.7473  0.0698
  952MOL0     C28387   4.089   1.924  11.200  0.4346  0.3606 -0.1250
  952MOL0     O28388   4.100   1.791  11.229 -0.3593  0.2560 -0.0539
  952MOL0     C28389   4.231   1.736  11.239  0.5546  0.2722 -0.1038
  952MOL0     C28390   4.269   1.684  11.354  0.1242  0.0191  0.0586
  952MOL0     C28391   4.400   1.638  11.380  0.1345  0.1924 -0.0092
  952MOL0     C28392   4.496   1.643  11.278 -0.8127  0.1580  0.5783
  952MOL0     O28393   4.626   1.598  11.286  0.1771  0.6115 -0.5639
  952MOL0     C28394   4.641   1.477  11.362  0.0156 -0.7872  0.1489
  952MOL0     C28395   4.773   1.411  11.336 -0.2103 -0.7087 -0.2438
  952MOL0     C28396   4.819   1.399  11.192  0.7058 -0.2160 -0.0430
  952MOL0     C28397   4.755   1.282  11.115 -0.6820  0.5129 -0.2922
  952MOL0     C28398   4.823   1.264  10.976  0.0464 -0.0126  0.0304
  952MOL0     C28399   4.746   1.143  10.902 -0.0691 -0.2839 -0.5730
  952MOL0     C28400   4.839   1.092  10.787 -0.2404 -0.1144 -0.4384
  952MOL0     C28401   4.829   1.181  10.669  0.4169 -0.2762 -0.1003
  952MOL0     N28402   4.896   1.128  10.551 -0.1847 -0.2608  0.2216
  952MOL0     C28403   5.029   1.092  10.541 -0.5543 -0.9169  0.4617
  952MOL0     C28404   5.039   1.018  10.421  0.1081 -0.0626  0.3406
  952MOL0     C28405   5.174   0.981  10.354  0.2068  0.0291 -0.7055
  952MOL0     C28406   5.182   0.826  10.356  0.0648 -0.2452 -0.3405
  952MOL0     C28407   5.269   0.778  10.239 -0.3643  0.8203  0.5992
  952MOL0     C28408   5.302   0.630  10.248 -0.1762  0.0439  0.0351
  952MOL0     O28409   5.386   0.618  10.362 -0.4513  0.3148  0.0565
  952MOL0     C28410   5.512   0.656  10.344  0.1004  0.3055 -0.5448
  952MOL0     C28411   5.592   0.614  10.241  0.5122  0.2293  0.4250
  952MOL0     C28412   5.734   0.640  10.237  0.1560 -0.1732 -0.5112
  952MOL0     C28413   5.797   0.698  10.348 -0.3761 -0.8238 -0.1297
  952MOL0     C28414   5.943   0.727  10.362  0.6243 -0.4587  0.7946
  952MOL0     O28415   6.010   0.711  10.255 -0.0837 -0.0537 -0.5616
  952MOL0     C28416   6.139   0.750  10.252  0.1154  0.1888 -0.2845
  952MOL0     C28417   6.235   0.657  10.225 -0.1827  0.7131  0.0955
  952MOL0     C28418   6.368   0.697  10.206  0.3842 -1.0318  0.7803
  952MOL0     C28419   6.403   0.831  10.203 -0.6933 -0.2851  0.0328
  952MOL0     O28420   6.530   0.856  10.158 -0.0014  0.4511  0.8116
  952MOL0     C28421   6.624   0.888  10.258  0.1360 -0.6010  0.2804
  952MOL0     C28422   6.680   0.760  10.316  0.7157 -0.2003 -0.0978
  952MOL0     C28423   6.769   0.686  10.213 -0.0639 -0.4112 -0.3539
  952MOL0     C28424   6.809   0.549  10.274  0.1102  0.5994  0.4929
  952MOL0     C28425   6.907   0.479  10.176  0.6870  0.1659 -0.3790
  952MOL0     C28426   7.027   0.567  10.132  0.0253  0.1887 -0.2970
  952MOL0     C28427   7.125   0.593  10.250  0.4158 -0.0325 -0.6632
  952MOL0     C28428   7.268   0.616  10.207  1.0580 -0.2582 -1.4137
  952MOL0    Cl28429   7.282   0.768  10.116 -0.0235  0.3857  0.5563
  952MOL0     C28430   6.305   0.923  10.237  0.0210 -0.1794  0.0011
  952MOL0     C28431   6.176   0.883  10.266 -0.4546  0.4272 -0.0273
  952MOL0     O28432   5.987   0.748  10.478  0.6879  0.8769  0.0887
  952MOL0     C28433   5.710   0.748  10.442 -0.3861 -0.0315  0.1738
  952MOL0     C28434   5.572   0.736  10.444  0.1975  0.5148 -0.6185
  952MOL0     N28435   4.909   1.001  10.374 -0.2382 -0.2723 -0.1915
  952MOL0     N28436   4.829   1.068  10.451 -0.3396  0.2905  0.0324
  952MOL0     C28437   4.457   1.705  11.166 -0.2894  0.1354 -0.2043
  952MOL0     C28438   4.330   1.753  11.139  0.1765  0.0489 -0.1391
  952MOL0     C28439   3.947   1.975  11.180 -0.6736 -0.4794 -0.5011
  952MOL0     C28440   3.842   1.883  11.204  0.1367 -0.4180  0.4241
  952MOL0     C28441   3.706   1.917  11.179 -1.1192  0.1969 -0.5493
  952MOL0     C28442   3.674   2.043  11.138 -0.2048 -0.2560 -0.0444
  952MOL0     O28443   3.550   2.099  11.128  0.3366  0.3700  0.3275
  952MOL0     C28444   3.447   2.034  11.206 -0.6635  0.0640  0.0602
  952MOL0     C28445   3.323   2.119  11.201 -0.1802  0.5660 -0.8015
  952MOL0     C28446   3.331   2.257  11.257  0.5644 -0.5984  0.3582
  952MOL0     C28447   3.345   2.352  11.146  0.0434 -0.2042  0.3530
  952MOL0     C28448   3.352   2.482  11.211 -0.2791 -0.5400 -0.0053
  952MOL0     C28449   3.359   2.586  11.271 -0.2132 -0.1335 -0.2172
  952MOL0     C28450   3.775   2.134  11.125 -0.1150 -0.5480 -0.1103
  952MOL0     C28451   3.911   2.107  11.144  1.1022 -1.1066  0.4866
  952MOL0     C28452   4.004   2.225  11.125 -0.1720 -0.0543  0.7388
  952MOL0     H28453   4.202   1.690  11.438 -0.8261 -0.3748 -0.6561
  952MOL0     H28454   4.411   1.596  11.480 -3.2871 -0.8338  0.0572
  952MOL0     H28455   4.640   1.503  11.468  1.1448 -2.9170  0.7461
  952MOL0     H28456   4.555   1.414  11.335 -1.9897  2.5774 -2.1114
  952MOL0     H28457   4.765   1.308  11.373  1.3397 -0.6487  0.3456
  952MOL0     H28458   4.851   1.457  11.397 -1.2311  0.2538  0.3642
  952MOL0     H28459   4.928   1.392  11.184  0.5990  0.1925 -2.8706
  952MOL0     H28460   4.801   1.493  11.139 -0.2501 -0.0725  0.5206
  952MOL0     H28461   4.755   1.197  11.183 -2.8459  0.6876 -0.0198
  952MOL0     H28462   4.649   1.302  11.097 -1.1730 -1.6150 -0.0657
  952MOL0     H28463   4.822   1.354  10.913  0.0230  0.5817  0.8735
  952MOL0     H28464   4.928   1.239  10.995  0.2638  1.3781  0.7408
  952MOL0     H28465   4.705   1.063  10.964  1.1170  1.0826  2.1849
  952MOL0     H28466   4.661   1.198  10.860  0.6908  2.9409  1.6638
  952MOL0     H28467   4.795   0.994  10.764 -1.5397  0.6455 -1.2750
  952MOL0     H28468   4.944   1.067  10.807  0.4047  2.2505 -0.6321
  952MOL0     H28469   4.724   1.186  10.640 -0.1141 -0.0187  1.7944
  952MOL0     H28470   4.869   1.277  10.702  1.1560 -0.1891 -1.1887
  952MOL0     H28471   5.111   1.119  10.606  0.1375 -0.5515 -0.5356
  952MOL0     H28472   5.181   1.020  10.252 -0.1386  1.2799 -0.2730
  952MOL0     H28473   5.252   1.030  10.414  0.6035 -2.5591  1.0086
  952MOL0     H28474   5.230   0.804  10.452  1.7973 -1.2897 -1.3865
  952MOL0     H28475   5.085   0.777  10.365  0.0767  0.1349  2.6751
  952MOL0     H28476   5.360   0.839  10.233  0.2523 -0.1779 -0.5275
  952MOL0     H28477   5.225   0.797  10.141 -0.0721  3.1515  0.8522
  952MOL0     H28478   5.350   0.612  10.151 -0.8142 -0.8582 -0.1294
  952MOL0     H28479   5.206   0.578  10.245 -0.6654  0.9530 -1.8484
  952MOL0     H28480   5.550   0.556  10.159 -3.3193 -0.0159  2.3271
  952MOL0     H28481   5.795   0.605  10.154 -0.8060 -0.7410 -0.9931
  952MOL0     H28482   6.199   0.555  10.226 -1.3874  1.1129  0.2528
  952MOL0     H28483   6.437   0.617  10.182 -1.3952 -1.6155 -3.2471
  952MOL0     H28484   6.697   0.951  10.205  1.7080 -2.5430  0.0094
  952MOL0     H28485   6.575   0.944  10.338 -1.6768  0.6956 -1.5995
  952MOL0     H28486   6.736   0.798  10.402 -0.1992 -1.4225  1.0725
  952MOL0     H28487   6.610   0.681  10.344  0.3985  0.5971  1.4670
  952MOL0     H28488   6.719   0.677  10.117 -1.2298  3.5103 -0.2728
  952MOL0     H28489   6.858   0.747  10.196 -0.7529  0.6150 -0.3757
  952MOL0     H28490   6.727   0.480  10.295 -1.5019  1.8738 -1.2932
  952MOL0     H28491   6.849   0.563  10.375  1.6829 -0.3408  0.0504
  952MOL0     H28492   6.858   0.445  10.084 -1.5701 -0.9805  1.1533
  952MOL0     H28493   6.951   0.395  10.229  1.1212  1.4503  1.3956
  952MOL0     H28494   7.084   0.506  10.062  0.0123  1.2257 -1.2419
  952MOL0     H28495   7.003   0.659  10.078 -2.6491  1.1539  2.2829
  952MOL0     H28496   7.118   0.519  10.330  0.3275  0.7160  0.0325
  952MOL0     H28497   7.096   0.688  10.295 -0.3268  0.0828 -1.3673
  952MOL0     H28498   7.328   0.620  10.298  0.8453 -2.1087 -1.1656
  952MOL0     H28499   7.302   0.542  10.133 -0.0529 -0.0557 -2.1581
  952MOL0     H28500   6.319   1.030  10.224  1.3454 -0.6296 -3.6227
  952MOL0     H28501   6.099   0.957  10.287 -1.8507 -0.3436 -2.1143
  952MOL0     H28502   5.754   0.800  10.527 -0.4267 -0.3239  0.3767
  952MOL0     H28503   5.511   0.782  10.521  2.3152  0.1002  1.4190
  952MOL0     H28504   4.536   1.717  11.092 -1.3920 -1.1070 -1.6607
  952MOL0     H28505   4.303   1.780  11.037 -0.2295  1.2530  0.2634
  952MOL0     H28506   3.866   1.780  11.228  0.2516 -0.4061  0.3660
  952MOL0     H28507   3.627   1.844  11.189  0.3471 -1.3723 -0.0966
  952MOL0     H28508   3.485   2.023  11.308 -0.3621  3.1064  0.3737
  952MOL0     H28509   3.426   1.934  11.167  1.6957 -0.6120  0.3761
  952MOL0     H28510   3.246   2.073  11.264 -1.3892  2.9948 -0.3915
  952MOL0     H28511   3.279   2.111  11.101 -2.8789 -0.3068  0.3656
  952MOL0     H28512   3.402   2.273  11.339 -1.1196  1.4139  1.5138
  952MOL0     H28513   3.242   2.287  11.313  1.0550  1.0676  0.3104
  952MOL0     H28514   3.436   2.342  11.086 -0.2583 -4.1025  0.2387
  952MOL0     H28515   3.253   2.348  11.087  0.5472 -2.2389 -0.3783
  952MOL0     H28516   3.369   2.690  11.294  1.6103 -0.0009 -1.4188
  952MOL0     H28517   3.753   2.239  11.114 -3.5863 -1.1360  0.2018
  952MOL0     H28518   4.061   2.204  11.034  0.9515  1.4195  1.0605
  952MOL0     H28519   3.956   2.321  11.107 -0.1554 -0.1783  0.0014
  952MOL0     H28520   4.073   2.232  11.210  0.3733  0.6128  0.2580
  953MOL0     O28521   9.909   6.780   2.755  0.5593  0.4127 -1.1046
  953MOL0     C28522   9.944   6.725   2.661 -0.2872  0.0463  1.0787
  953MOL0     O28523  10.004   6.605   2.652  0.4965 -0.3952  0.1972
  953MOL0     C28524   9.985   6.509   2.744  0.0325  0.5986 -0.4935
  953MOL0     C28525   9.871   6.499   2.829 -0.4286 -0.7801 -0.1143
  953MOL0     C28526   9.857   6.394   2.916 -0.5603  0.0778 -0.7355
  953MOL0     C28527   9.954   6.293   2.917  0.2733 -0.3821  0.0218
  953MOL0     O28528   9.940   6.188   3.001  0.3608 -0.6989  0.1236
  953MOL0     C28529   9.927   6.222   3.143  0.8664  0.3070  0.7507
  953MOL0     C28530   9.974   6.106   3.229 -0.4660  0.2893  0.5569
  953MOL0     C28531   9.987   6.162   3.368  0.1471 -0.0477 -0.5111
  953MOL0     C28532  10.057   6.059   3.460  1.3791 -0.5687 -0.8970
  953MOL0     C28533  10.068   6.122   3.604  0.8059  0.3700  0.0541
  953MOL0     C28534  10.097   6.004   3.702 -0.2338  0.5777  0.4158
  953MOL0     C28535  10.239   5.942   3.688  0.9526  0.1540  0.0790
  953MOL0     C28536  10.264   5.830   3.783 -0.1182  0.4574  0.5187
  953MOL0     N28537  10.409   5.816   3.802 -0.2392  0.2836 -0.1818
  953MOL0     C28538  10.480   5.898   3.893 -0.5049 -0.0482 -0.2625
  953MOL0     C28539  10.607   5.854   3.879  0.2049 -0.1041 -0.0937
  953MOL0     C28540  10.728   5.906   3.946 -0.0702 -0.2992 -0.5029
  953MOL0     C28541  10.754   6.047   3.889 -0.3138  0.0995  0.2348
  953MOL0     C28542  10.890   6.108   3.931  0.0501  0.7606 -0.1815
  953MOL0     C28543  10.885   6.150   4.074  0.0562  0.2370  0.0680
  953MOL0     O28544  10.914   6.038   4.161  0.2958  0.5171 -0.3666
  953MOL0     C28545  11.043   5.995   4.187  0.7580  0.6406  0.3174
  953MOL0     C28546  11.059   5.878   4.263  0.3102  0.5030  0.3818
  953MOL0     C28547  11.184   5.843   4.319  0.0907  0.2711 -0.1445
  953MOL0     C28548  11.297   5.913   4.280 -0.1918 -0.4889 -0.3773
  953MOL0     C28549  11.427   5.885   4.337 -0.0408  0.1549 -1.0460
  953MOL0     O28550  11.541   5.936   4.274 -0.6276  0.4020 -0.8116
  953MOL0     C28551  11.651   5.933   4.349 -0.8163 -0.2212 -0.8151
  953MOL0     C28552  11.727   5.815   4.352  1.0470 -0.1515 -0.9976
  953MOL0     C28553  11.862   5.818   4.405 -0.3806 -0.9023  0.2431
  953MOL0     C28554  11.916   5.927   4.471  0.4677 -0.1297  0.8584
  953MOL0     O28555  12.039   5.907   4.530 -0.0190 -0.1488  0.2218
  953MOL0     C28556  12.104   6.032   4.579 -0.0068  0.5200  1.0425
  953MOL0     C28557  12.247   5.998   4.610  0.1407  1.1823  0.1787
  953MOL0     C28558  12.323   6.104   4.685 -0.2458 -0.2192 -0.1267
  953MOL0     C28559  12.470   6.058   4.690 -0.0575 -1.1200  0.6483
  953MOL0     C28560  12.548   6.084   4.814 -0.3854  0.0145  0.2488
  953MOL0     C28561  12.693   6.044   4.789  0.4216  0.3010  0.2631
  953MOL0     C28562  12.759   6.050   4.924  0.5261  0.3616  0.4722
  953MOL0     C28563  12.906   6.007   4.912  0.8002 -0.0137 -0.2374
  953MOL0    Cl28564  12.999   6.162   4.891  0.3609  0.1623 -0.2067
  953MOL0     C28565  11.828   6.041   4.466 -0.4157 -0.0235  0.4589
  953MOL0     C28566  11.708   6.052   4.404 -0.0961  0.8066  0.1265
  953MOL0     O28567  11.429   5.817   4.438 -0.4564  0.8948  0.2225
  953MOL0     C28568  11.285   6.021   4.194  0.3283  0.0444  0.7501
  953MOL0     C28569  11.154   6.062   4.150  0.3006 -0.5247  0.0807
  953MOL0     N28570  10.619   5.754   3.784  0.6358  0.1007  0.7206
  953MOL0     N28571  10.497   5.728   3.743  0.6963 -0.3264 -0.8131
  953MOL0     C28572  10.061   6.297   2.824  0.3334  1.1451  0.2424
  953MOL0     C28573  10.086   6.408   2.747 -0.6411  0.2986 -0.0286
  953MOL0     C28574   9.918   6.793   2.526  0.0707 -0.3597 -0.0524
  953MOL0     C28575   9.979   6.736   2.414 -0.2192  0.3143 -0.8536
  953MOL0     C28576   9.965   6.796   2.289 -0.6009  0.7844  0.2322
  953MOL0     C28577   9.896   6.914   2.267  0.1775 -0.2109  0.1207
  953MOL0     O28578   9.879   6.956   2.136 -0.1702  0.2908 -0.5021
  953MOL0     C28579   9.801   7.069   2.110  0.8334  0.3937  0.1103
  953MOL0     C28580   9.766   7.068   1.963 -0.1918  0.7693  0.1006
  953MOL0     C28581   9.677   7.185   1.919  0.1616  0.6969  0.2521
  953MOL0     C28582   9.660   7.197   1.765 -0.2254  0.3622  0.2888
  953MOL0     C28583   9.603   7.080   1.703 -0.0614 -0.3496  0.4321
  953MOL0     C28584   9.550   6.982   1.650  0.2885  0.2574 -0.6924
  953MOL0     C28585   9.834   6.970   2.383 -0.0557 -0.1464 -0.2459
  953MOL0     C28586   9.848   6.915   2.511  0.2916 -0.3555 -0.1064
  953MOL0     C28587   9.761   6.979   2.612  0.3377 -0.1707 -0.6786
  953MOL0     H28588   9.789   6.570   2.835 -0.9789 -1.4895  1.5087
  953MOL0     H28589   9.772   6.393   2.985 -0.7827 -1.2148 -0.9969
  953MOL0     H28590   9.982   6.314   3.166 -0.0089  1.2849 -0.9465
  953MOL0     H28591   9.820   6.236   3.164  0.7433 -0.9058  0.9942
  953MOL0     H28592  10.073   6.069   3.204 -0.6994 -0.5433  0.8338
  953MOL0     H28593   9.898   6.027   3.219  0.5482 -0.4663 -1.6383
  953MOL0     H28594   9.885   6.179   3.405 -1.0082 -0.6019 -3.1638
  953MOL0     H28595  10.036   6.260   3.364  0.9057 -0.4144 -0.3506
  953MOL0     H28596   9.988   5.974   3.454  1.8020 -0.8152 -2.6167
  953MOL0     H28597  10.153   6.030   3.419  1.8648 -1.1150  0.5604
  953MOL0     H28598  10.147   6.197   3.617 -0.8756  2.1479  0.4040
  953MOL0     H28599   9.975   6.179   3.610  0.2003 -0.4776 -1.0008
  953MOL0     H28600  10.090   6.040   3.805 -1.1358  1.0129  0.2190
  953MOL0     H28601  10.027   5.924   3.678 -0.6598  1.1257 -0.2052
  953MOL0     H28602  10.316   6.018   3.706  2.3820 -1.6207  1.7904
  953MOL0     H28603  10.252   5.905   3.586  3.6550 -1.1441  0.8138
  953MOL0     H28604  10.206   5.843   3.875 -2.8696  1.8415 -1.2882
  953MOL0     H28605  10.233   5.735   3.738  0.2465  1.4249 -1.8986
  953MOL0     H28606  10.445   5.987   3.945 -1.9901 -0.1461 -1.0217
  953MOL0     H28607  10.725   5.902   4.055  2.1735 -3.2163 -0.4190
  953MOL0     H28608  10.813   5.840   3.923  1.7279  1.0077  1.9109
  953MOL0     H28609  10.758   6.030   3.781 -0.2865 -1.7261  0.4799
  953MOL0     H28610  10.668   6.112   3.909 -1.0332 -0.8406  0.2764
  953MOL0     H28611  10.891   6.201   3.873 -0.9528 -0.7820 -2.8470
  953MOL0     H28612  10.969   6.035   3.912  2.1775  1.8044  3.6008
  953MOL0     H28613  10.781   6.180   4.090 -0.8422 -0.5316 -3.4831
  953MOL0     H28614  10.944   6.239   4.097  1.8509 -0.1948 -2.4393
  953MOL0     H28615  10.969   5.828   4.298  1.0429 -0.5430  0.8185
  953MOL0     H28616  11.200   5.761   4.388 -0.7577 -1.8550 -2.3117
  953MOL0     H28617  11.674   5.725   4.321  0.0336  0.2043 -0.3528
  953MOL0     H28618  11.914   5.724   4.390 -2.1723 -1.8418 -0.3161
  953MOL0     H28619  12.098   6.115   4.508 -3.5539 -1.2021 -0.9125
  953MOL0     H28620  12.045   6.056   4.668 -2.4321 -0.8208 -0.1250
  953MOL0     H28621  12.259   5.905   4.667  1.5720  1.1831 -0.0942
  953MOL0     H28622  12.291   5.983   4.511  0.5986 -0.8145  0.6361
  953MOL0     H28623  12.311   6.203   4.641 -0.5760  0.5335  1.5621
  953MOL0     H28624  12.295   6.113   4.790  3.1727  2.8325  0.7127
  953MOL0     H28625  12.514   6.123   4.614  0.5198  0.1981  2.0620
  953MOL0     H28626  12.473   5.952   4.660 -0.0634 -1.2994  1.2638
  953MOL0     H28627  12.500   6.022   4.890 -1.3087  1.2385  0.6889
  953MOL0     H28628  12.532   6.186   4.849 -0.6234  1.1934 -2.9247
  953MOL0     H28629  12.698   5.944   4.745  0.0258 -0.4273  1.7963
  953MOL0     H28630  12.748   6.122   4.736  0.8395  0.5728  1.0766
  953MOL0     H28631  12.720   5.968   4.984  1.9845 -0.8734 -0.2042
  953MOL0     H28632  12.748   6.146   4.975  2.6417  0.5530  0.6470
  953MOL0     H28633  12.927   5.972   5.014 -1.8546 -0.0686  0.3574
  953MOL0     H28634  12.927   5.924   4.844 -1.6519 -1.0893  0.2286
  953MOL0     H28635  11.859   6.128   4.524  1.5908 -0.3264 -0.1052
  953MOL0     H28636  11.646   6.141   4.402 -4.5588 -1.9774 -1.0169
  953MOL0     H28637  11.375   6.065   4.155  1.3302 -2.9904 -0.6078
  953MOL0     H28638  11.146   6.151   4.088 -1.4591  1.3407  2.7438
  953MOL0     H28639  10.137   6.220   2.817 -1.2520 -0.3286 -2.7882
  953MOL0     H28640  10.171   6.418   2.680 -0.6537 -2.2198 -0.5336
  953MOL0     H28641  10.029   6.640   2.415  1.4873  1.1615 -1.1656
  953MOL0     H28642  10.020   6.751   2.206 -1.4757  0.8326 -0.3891
  953MOL0     H28643   9.853   7.161   2.139  1.1018  0.8486 -1.7408
  953MOL0     H28644   9.708   7.076   2.168  2.4329 -1.1594  3.0819
  953MOL0     H28645   9.707   6.976   1.950 -0.6733  1.4139 -3.5185
  953MOL0     H28646   9.864   7.067   1.914  0.7245  1.2777  1.8261
  953MOL0     H28647   9.721   7.273   1.966  0.3259 -0.2221  1.9148
  953MOL0     H28648   9.581   7.172   1.971  0.0678  0.2929 -0.0159
  953MOL0     H28649   9.604   7.284   1.730 -0.1026 -0.5536 -2.4011
  953MOL0     H28650   9.759   7.218   1.723 -0.3375 -0.8709 -0.6333
  953MOL0     H28651   9.495   6.899   1.613 -2.5411  2.4107 -1.6345
  953MOL0     H28652   9.782   7.063   2.364  1.2589  0.8393  0.7355
  953MOL0     H28653   9.708   7.063   2.566 -1.5613  0.2589  2.0489
  953MOL0     H28654   9.687   6.910   2.653 -2.3071  3.0372  0.3278
  953MOL0     H28655   9.821   7.015   2.695  0.7445 -1.1140 -0.5555
  954MOL0     O28656  10.002   6.682  10.393 -0.4628 -0.7804  0.3450
  954MOL0     C28657   9.995   6.793  10.335  0.2898 -0.0546 -0.2929
  954MOL0     O28658  10.096   6.887  10.330  0.4985  0.3690  0.8544
  954MOL0     C28659  10.210   6.869  10.409 -0.2135  0.2051 -0.4436
  954MOL0     C28660  10.316   6.807  10.344 -0.4412  0.7520 -1.1583
  954MOL0     C28661  10.439   6.782  10.412 -0.6189  0.4010  0.1356
  954MOL0     C28662  10.461   6.836  10.538 -0.6833  0.4624  0.3401
  954MOL0     O28663  10.584   6.798  10.587 -0.7169  0.2475 -0.5367
  954MOL0     C28664  10.624   6.862  10.706  0.0653 -0.5317 -0.3439
  954MOL0     C28665  10.762   6.819  10.743  0.1786  0.1427  0.4304
  954MOL0     C28666  10.812   6.870  10.873  0.4333  0.8462 -0.3410
  954MOL0     C28667  10.955   6.889  10.880 -0.3079  0.0544  0.0916
  954MOL0     C28668  11.006   6.924  11.023  0.5037 -0.1637  0.1438
  954MOL0     C28669  11.160   6.918  11.018  0.0507 -0.0552 -0.2213
  954MOL0     C28670  11.216   6.971  11.151 -0.5200 -0.3771 -0.5114
  954MOL0     C28671  11.217   6.866  11.261  0.1298  0.3764  0.2169
  954MOL0     N28672  11.237   6.908  11.400  0.1817 -0.2553 -0.3426
  954MOL0     C28673  11.357   6.910  11.473  0.1555 -0.3461  0.2000
  954MOL0     C28674  11.327   6.976  11.587 -0.4517  0.3422 -0.2532
  954MOL0     C28675  11.423   7.002  11.699 -0.4643 -0.5806  0.6106
  954MOL0     C28676  11.540   7.095  11.649  0.8301  0.5201 -0.6061
  954MOL0     C28677  11.628   7.146  11.774 -0.1397  0.7922 -0.2457
  954MOL0     C28678  11.784   7.110  11.775  0.0765  0.3750 -0.0725
  954MOL0     O28679  11.833   7.205  11.677  0.8139  0.1201 -0.2052
  954MOL0     C28680  11.957   7.188  11.634 -0.3009  0.7103  1.0932
  954MOL0     C28681  12.004   7.288  11.552 -0.2068  0.2739  1.1094
  954MOL0     C28682  12.138   7.280  11.502  0.2201 -0.3216  0.0220
  954MOL0     C28683  12.224   7.172  11.538 -0.4429 -0.4227 -0.7934
  954MOL0     C28684  12.363   7.168  11.480  0.6982  0.7918  0.2292
  954MOL0     O28685  12.458   7.089  11.541  0.2354 -0.6388 -0.1428
  954MOL0     C28686  12.584   7.084  11.496  0.3338  0.0677 -0.2047
  954MOL0     C28687  12.687   7.135  11.581  0.1644  0.3367  0.6979
  954MOL0     C28688  12.817   7.130  11.531  0.9768 -0.5869 -0.8541
  954MOL0     C28689  12.850   7.084  11.403 -1.4876  0.1011  0.7264
  954MOL0     O28690  12.976   7.092  11.364 -0.7185  0.4131  0.3076
  954MOL0     C28691  13.015   7.044  11.229 -0.5691 -0.4703 -0.1144
  954MOL0     C28692  13.162   7.078  11.202  0.7406  0.5698 -0.1008
  954MOL0     C28693  13.208   7.022  11.063 -0.5280 -0.1161  0.0362
  954MOL0     C28694  13.360   7.029  11.053 -0.6504  0.6723  0.7302
  954MOL0     C28695  13.429   6.954  10.948 -0.5022  0.0069  0.1497
  954MOL0     C28696  13.583   6.964  10.955  0.2740  0.4610  0.6192
  954MOL0     C28697  13.647   6.897  10.821  1.0823  0.0620 -0.2753
  954MOL0     C28698  13.796   6.933  10.817  0.6878  0.1453  0.5308
  954MOL0    Cl28699  13.868   6.900  10.652 -0.0920 -0.1009 -0.2813
  954MOL0     C28700  12.748   7.035  11.324  0.1194  0.6670  0.1497
  954MOL0     C28701  12.614   7.038  11.370 -0.0272 -0.0318  0.3923
  954MOL0     O28702  12.376   7.240  11.376  0.2570 -0.1817 -0.1920
  954MOL0     C28703  12.172   7.066  11.620  0.6640  0.4514  0.1511
  954MOL0     C28704  12.039   7.079  11.659  0.6204  0.9273 -0.3426
  954MOL0     N28705  11.189   6.965  11.608  0.1555  0.6045 -0.5569
  954MOL0     N28706  11.138   6.918  11.497  0.4014 -0.7347 -1.0911
  954MOL0     C28707  10.358   6.905  10.600  0.0790  0.0342  0.5706
  954MOL0     C28708  10.235   6.924  10.534  0.4570  0.0387  0.1752
  954MOL0     C28709   9.866   6.839  10.269 -0.6880  0.0332 -0.1972
  954MOL0     C28710   9.873   6.953  10.187  1.1350 -0.3390 -0.4135
  954MOL0     C28711   9.761   7.010  10.129  0.4215  1.0840 -0.8426
  954MOL0     C28712   9.637   6.946  10.147 -0.1178  0.4313 -0.5105
  954MOL0     O28713   9.517   6.992  10.097 -0.3545  0.3227 -0.3246
  954MOL0     C28714   9.453   7.089  10.182 -0.0552  0.3440  0.2768
  954MOL0     C28715   9.296   7.064  10.188 -0.2738  0.5415  0.5645
  954MOL0     C28716   9.232   7.193  10.220  0.2556  0.4486  0.4602
  954MOL0     C28717   9.260   7.245  10.360  0.0058  0.0746  0.0869
  954MOL0     C28718   9.222   7.153  10.472  0.0350  0.4784  0.3499
  954MOL0     C28719   9.186   7.072  10.554  0.5826 -0.1770 -0.3430
  954MOL0     C28720   9.624   6.825  10.227 -1.0972  0.6619 -0.3947
  954MOL0     C28721   9.739   6.766  10.289 -0.1171 -0.0190  0.6830
  954MOL0     C28722   9.726   6.641  10.371 -0.0205  0.1505 -0.1229
  954MOL0     H28723  10.294   6.772  10.243 -1.8379 -1.8119 -0.0792
  954MOL0     H28724  10.507   6.714  10.362 -1.6601  0.3270 -1.2387
  954MOL0     H28725  10.630   6.969  10.686 -3.9469 -0.1499 -0.2248
  954MOL0     H28726  10.556   6.850  10.791 -2.6636 -0.6273 -2.4207
  954MOL0     H28727  10.830   6.850  10.663 -0.2237 -1.3955 -0.5350
  954MOL0     H28728  10.754   6.710  10.748  1.9705  0.0261  2.8467
  954MOL0     H28729  10.790   6.805  10.958 -0.9131 -0.2097 -1.4397
  954MOL0     H28730  10.763   6.965  10.896 -0.3624 -0.2927  3.2318
  954MOL0     H28731  10.999   6.799  10.837 -0.7251  0.2296 -0.7357
  954MOL0     H28732  10.980   6.976  10.819 -0.5240 -0.5090 -0.8297
  954MOL0     H28733  10.985   7.025  11.060 -0.7365 -0.6778  0.8972
  954MOL0     H28734  10.964   6.856  11.098 -0.4858  0.9679  0.6563
  954MOL0     H28735  11.193   6.816  10.998 -0.7257 -0.0510 -1.7189
  954MOL0     H28736  11.199   6.983  10.939 -0.6229  0.4292 -0.1637
  954MOL0     H28737  11.166   7.066  11.176  1.7474  0.4838  1.0620
  954MOL0     H28738  11.322   6.983  11.129 -0.6082  0.3349 -0.5663
  954MOL0     H28739  11.120   6.816  11.269 -0.0497  0.8717  1.2430
  954MOL0     H28740  11.289   6.786  11.239 -1.1693 -1.0348  0.8640
  954MOL0     H28741  11.452   6.875  11.434 -1.3725 -1.8867 -2.4209
  954MOL0     H28742  11.367   7.058  11.774  0.5496  0.8919  0.3142
  954MOL0     H28743  11.455   6.908  11.745  1.9356 -0.3716 -0.4609
  954MOL0     H28744  11.615   7.049  11.584  2.5458 -0.4601  1.8859
  954MOL0     H28745  11.493   7.182  11.602 -0.0651  0.3824  0.0096
  954MOL0     H28746  11.598   7.096  11.866  0.5920 -2.2161 -1.5420
  954MOL0     H28747  11.615   7.255  11.782 -1.9736  0.6330 -0.6410
  954MOL0     H28748  11.788   7.008  11.738 -3.8656  0.3346 -0.7596
  954MOL0     H28749  11.831   7.133  11.871  1.2418  0.1008 -0.5497
  954MOL0     H28750  11.925   7.350  11.509  0.2917 -1.3567 -2.5216
  954MOL0     H28751  12.176   7.350  11.428 -2.2408 -0.1182 -1.1358
  954MOL0     H28752  12.661   7.158  11.684  0.7175 -0.6596  1.0728
  954MOL0     H28753  12.887   7.176  11.600  0.3694 -1.0148  0.0793
  954MOL0     H28754  12.993   6.940  11.203 -1.1770 -0.1167 -1.0655
  954MOL0     H28755  12.957   7.115  11.168 -3.1566 -0.8525  1.7081
  954MOL0     H28756  13.170   7.187  11.196 -0.1981  0.6167 -0.7632
  954MOL0     H28757  13.236   7.050  11.277  1.8627  1.8440 -0.6903
  954MOL0     H28758  13.174   6.918  11.063 -3.3643  0.6472 -2.1519
  954MOL0     H28759  13.153   7.078  10.986  0.1569 -0.4667 -0.7182
  954MOL0     H28760  13.400   6.987  11.146  0.2971  2.3201  1.1144
  954MOL0     H28761  13.386   7.135  11.049 -2.7522  1.2921  2.0141
  954MOL0     H28762  13.401   6.997  10.852  1.4814  0.2000 -0.3982
  954MOL0     H28763  13.399   6.849  10.950  0.0337 -0.1519  0.1815
  954MOL0     H28764  13.630   7.062  10.959  4.4175 -1.2745 -0.5566
  954MOL0     H28765  13.616   6.909  11.043  1.8851  1.2397  0.5229
  954MOL0     H28766  13.595   6.942  10.736  1.6211  1.1524 -0.0459
  954MOL0     H28767  13.629   6.789  10.819  2.2209 -0.1356 -1.0300
  954MOL0     H28768  13.809   7.041  10.829  2.0314 -0.1444  2.0355
  954MOL0     H28769  13.843   6.882  10.902 -2.0829 -0.4458  1.8262
  954MOL0     H28770  12.754   6.997  11.222 -0.9128 -1.2758  0.7615
  954MOL0     H28771  12.537   6.998  11.305  0.4850 -1.1860  0.4771
  954MOL0     H28772  12.229   6.980  11.653 -2.0402 -0.7756  1.9718
  954MOL0     H28773  12.001   7.000  11.722 -0.5931  0.6332 -1.4041
  954MOL0     H28774  10.370   6.938  10.702  0.1248  0.2147  0.5078
  954MOL0     H28775  10.165   6.987  10.589  0.4960  0.7489 -0.5700
  954MOL0     H28776   9.970   7.000  10.179  2.1261 -1.8174  1.8957
  954MOL0     H28777   9.762   7.097  10.065  0.8916  1.2029 -0.6808
  954MOL0     H28778   9.474   7.192  10.156 -1.6017  1.0215  1.5141
  954MOL0     H28779   9.484   7.065  10.284 -3.3628 -0.2437  1.2603
  954MOL0     H28780   9.266   6.986  10.259 -0.0882  1.1279  1.2983
  954MOL0     H28781   9.264   7.028  10.089 -1.1173 -2.2482  1.7427
  954MOL0     H28782   9.123   7.193  10.234  0.1933 -0.4607  0.0138
  954MOL0     H28783   9.255   7.271  10.146 -1.6983  0.7749  0.1314
  954MOL0     H28784   9.368   7.259  10.362  0.2876 -1.6270  2.9561
  954MOL0     H28785   9.209   7.341  10.366  0.3956  0.1741  3.0825
  954MOL0     H28786   9.141   7.011  10.629 -1.2302  1.2566 -0.1764
  954MOL0     H28787   9.524   6.785  10.241 -1.5696  1.9060 -0.0705
  954MOL0     H28788   9.624   6.604  10.380  0.2386 -1.8476 -3.3726
  954MOL0     H28789   9.788   6.561  10.329 -1.5786 -1.6510  0.8880
  954MOL0     H28790   9.773   6.668  10.466 -0.8390 -1.5383  0.7959
  955MOL0     O28791   7.992   1.471   2.097  0.6264  0.2925  0.6632
  955MOL0     C28792   7.972   1.392   2.187  0.0138  1.0246 -0.4381
  955MOL0     O28793   8.065   1.326   2.260 -0.6695  0.0956  0.2415
  955MOL0     C28794   8.196   1.344   2.240  0.0583 -0.7914 -0.3938
  955MOL0     C28795   8.281   1.252   2.187 -0.7605  0.4220  0.0838
  955MOL0     C28796   8.413   1.295   2.175 -1.1251  0.9086 -0.3404
  955MOL0     C28797   8.462   1.418   2.218  0.8525  0.0288  0.6740
  955MOL0     O28798   8.599   1.451   2.212  1.0831 -0.7939  0.1165
  955MOL0     C28799   8.674   1.371   2.298 -0.3986 -0.2149  0.3115
  955MOL0     C28800   8.823   1.402   2.267  0.3273  0.3909 -1.1835
  955MOL0     C28801   8.917   1.317   2.359 -0.2598 -0.0387 -0.0533
  955MOL0     C28802   9.051   1.310   2.295 -0.2491  0.1896 -0.4740
  955MOL0     C28803   9.160   1.251   2.368 -0.5688 -0.0237  0.1024
  955MOL0     C28804   9.290   1.264   2.284  0.1770 -0.8305 -0.2239
  955MOL0     C28805   9.406   1.186   2.324 -0.4702  1.2349  0.0943
  955MOL0     C28806   9.509   1.183   2.216 -1.1216  0.7010 -0.4200
  955MOL0     N28807   9.595   1.300   2.210 -0.1105 -0.2403  0.3858
  955MOL0     C28808   9.711   1.318   2.283 -0.1937 -0.0315  0.3056
  955MOL0     C28809   9.776   1.425   2.219 -0.4119  0.1957  0.8722
  955MOL0     C28810   9.912   1.477   2.263  0.4585 -0.4087 -0.2820
  955MOL0     C28811   9.883   1.575   2.381 -0.3816 -0.1754  0.9615
  955MOL0     C28812  10.017   1.614   2.447 -0.1053 -0.4435  0.4336
  955MOL0     C28813   9.988   1.745   2.519  0.2614  0.8175 -0.5692
  955MOL0     O28814  10.095   1.771   2.608 -0.2570  0.0701 -0.0664
  955MOL0     C28815  10.214   1.823   2.566 -0.0754  0.1083 -0.0211
  955MOL0     C28816  10.243   1.855   2.431 -0.6907 -0.9556 -0.4256
  955MOL0     C28817  10.376   1.909   2.398  0.2400  0.4503 -0.1418
  955MOL0     C28818  10.473   1.919   2.501  0.0227  0.6471 -0.0529
  955MOL0     C28819  10.612   1.967   2.476  0.6390 -0.4430  0.1224
  955MOL0     O28820  10.700   1.946   2.576  0.5223  0.7116  0.0125
  955MOL0     C28821  10.813   2.027   2.579 -0.7454 -0.9435 -0.2344
  955MOL0     C28822  10.809   2.170   2.591 -0.8809  0.8278 -0.2021
  955MOL0     C28823  10.916   2.249   2.619 -0.4579  0.2582 -0.5714
  955MOL0     C28824  11.047   2.193   2.602 -0.2425 -0.3262 -0.5019
  955MOL0     O28825  11.143   2.287   2.635  0.7391 -0.1930 -0.2790
  955MOL0     C28826  11.273   2.241   2.649 -0.0493 -0.0366 -0.7236
  955MOL0     C28827  11.336   2.363   2.724  1.5587  0.4779  0.4519
  955MOL0     C28828  11.480   2.357   2.755 -0.1172  0.2488  0.4361
  955MOL0     C28829  11.561   2.337   2.634 -0.9752  0.1481  0.0095
  955MOL0     C28830  11.718   2.330   2.658  0.7192  0.2038  0.2028
  955MOL0     C28831  11.795   2.458   2.669  0.7188 -0.4929 -0.6080
  955MOL0     C28832  11.942   2.438   2.665  0.0256 -1.2828  0.0059
  955MOL0     C28833  12.024   2.559   2.702 -0.2573 -0.1844  0.1780
  955MOL0    Cl28834  11.986   2.697   2.614 -0.6649  0.0301 -0.2177
  955MOL0     C28835  11.058   2.054   2.594  0.0412  0.0792 -0.1468
  955MOL0     C28836  10.938   1.973   2.591 -0.5308  0.0363  0.5035
  955MOL0     O28837  10.643   2.015   2.366 -0.0174  0.0418 -0.4940
  955MOL0     C28838  10.438   1.883   2.635  0.0633  0.1094 -0.3465
  955MOL0     C28839  10.313   1.831   2.660 -0.4055  0.8710  0.2597
  955MOL0     N28840   9.704   1.469   2.111  0.1986 -1.1092 -0.1215
  955MOL0     N28841   9.595   1.395   2.113 -0.1860  0.4276  0.1132
  955MOL0     C28842   8.373   1.509   2.267  0.6482 -0.1480  0.1709
  955MOL0     C28843   8.241   1.472   2.278 -0.1015 -0.4421 -0.0886
  955MOL0     C28844   7.829   1.345   2.206  0.4634  0.1177  0.6692
  955MOL0     C28845   7.807   1.225   2.281 -0.3765  0.0378 -0.2785
  955MOL0     C28846   7.681   1.169   2.297 -1.2073  0.6534  0.1309
  955MOL0     C28847   7.575   1.212   2.223 -1.3051 -0.7741  0.2039
  955MOL0     O28848   7.466   1.130   2.226  0.1713 -0.3592 -0.5669
  955MOL0     C28849   7.341   1.172   2.174  0.0492  0.1258  0.1482
  955MOL0     C28850   7.238   1.115   2.260  0.0065  0.7447 -0.1812
  955MOL0     C28851   7.217   0.966   2.248  0.1388  0.0347  0.2937
  955MOL0     C28852   7.080   0.930   2.302 -0.3113  0.5658  0.4349
  955MOL0     C28853   7.070   0.950   2.449 -0.0562 -0.3041 -0.3571
  955MOL0     C28854   7.068   0.965   2.570  0.4176 -0.7856  0.5411
  955MOL0     C28855   7.594   1.328   2.150 -0.6134  0.8909  0.5473
  955MOL0     C28856   7.714   1.401   2.139 -0.3764 -0.4408  0.9254
  955MOL0     C28857   7.707   1.519   2.046 -0.3741 -0.3316  0.4063
  955MOL0     H28858   8.249   1.155   2.150  1.9221 -0.6246  0.3216
  955MOL0     H28859   8.490   1.236   2.126 -0.5489  0.4888  1.0357
  955MOL0     H28860   8.657   1.399   2.402 -2.2005 -2.2960  0.6555
  955MOL0     H28861   8.643   1.267   2.283 -0.9871 -0.0671  0.4746
  955MOL0     H28862   8.845   1.507   2.288 -4.4526  1.4822 -0.6384
  955MOL0     H28863   8.844   1.386   2.161 -0.9700  2.2845 -1.7765
  955MOL0     H28864   8.861   1.225   2.378  2.3212 -1.8283 -0.6909
  955MOL0     H28865   8.942   1.370   2.452  2.2161 -0.1237 -0.6049
  955MOL0     H28866   9.039   1.249   2.206  1.1314 -1.1724  0.2273
  955MOL0     H28867   9.086   1.412   2.273  1.1957 -0.7245 -2.7859
  955MOL0     H28868   9.173   1.301   2.464 -2.1157  0.8665 -0.1200
  955MOL0     H28869   9.152   1.143   2.377 -0.0875 -0.0611  0.0842
  955MOL0     H28870   9.261   1.235   2.183  1.8598 -0.3251 -0.8751
  955MOL0     H28871   9.309   1.371   2.279 -0.9680 -0.5777  0.4224
  955MOL0     H28872   9.386   1.082   2.351 -0.7540  1.3735  0.4330
  955MOL0     H28873   9.444   1.228   2.418 -0.4258  0.5224  0.4012
  955MOL0     H28874   9.572   1.094   2.228 -0.1295  1.5614  0.9710
  955MOL0     H28875   9.466   1.172   2.115  0.6547  2.2144 -1.4012
  955MOL0     H28876   9.741   1.263   2.371 -2.5658  0.4841  1.5290
  955MOL0     H28877   9.983   1.403   2.301 -0.3085  0.1866  2.6013
  955MOL0     H28878   9.954   1.531   2.178 -0.3005 -0.2198 -0.5529
  955MOL0     H28879   9.826   1.662   2.347  2.1838  1.6001  0.9264
  955MOL0     H28880   9.833   1.525   2.464  1.8563 -0.9766  1.9136
  955MOL0     H28881  10.102   1.621   2.378  2.0061  2.0553  3.0479
  955MOL0     H28882  10.057   1.537   2.514  0.7274 -3.5073 -3.2285
  955MOL0     H28883   9.894   1.736   2.574 -1.2794  0.9678 -3.0358
  955MOL0     H28884   9.975   1.826   2.446  0.6997  2.5455  1.1718
  955MOL0     H28885  10.170   1.829   2.355 -3.4740 -0.0655  1.7736
  955MOL0     H28886  10.411   1.928   2.297  1.1799 -1.3569 -0.1889
  955MOL0     H28887  10.712   2.216   2.610 -1.2719  0.4405 -1.1798
  955MOL0     H28888  10.896   2.353   2.645 -1.1297  0.2075 -0.8577
  955MOL0     H28889  11.284   2.147   2.703  1.7852 -1.3908 -3.2794
  955MOL0     H28890  11.318   2.236   2.549 -2.7795  1.8825 -2.1848
  955MOL0     H28891  11.320   2.457   2.670 -1.4296  0.1930  0.6528
  955MOL0     H28892  11.278   2.378   2.816 -0.3165  0.7778 -0.7118
  955MOL0     H28893  11.496   2.458   2.793 -2.4086  0.1879  1.7187
  955MOL0     H28894  11.507   2.287   2.835 -2.6140 -1.1723  0.1389
  955MOL0     H28895  11.544   2.420   2.565 -0.2585 -0.2245 -0.6363
  955MOL0     H28896  11.528   2.247   2.580  0.6156 -0.2570 -0.3417
  955MOL0     H28897  11.766   2.283   2.571  0.8042 -1.1293  0.9421
  955MOL0     H28898  11.738   2.264   2.743  0.0984  0.6051  0.6667
  955MOL0     H28899  11.758   2.518   2.586 -2.8469  1.0222  1.7983
  955MOL0     H28900  11.760   2.511   2.759  0.0937  0.6568 -1.5071
  955MOL0     H28901  11.957   2.415   2.559 -2.4889 -0.1869 -0.6702
  955MOL0     H28902  11.980   2.348   2.715  4.9648  0.1251 -0.6592
  955MOL0     H28903  11.996   2.590   2.803 -0.3688 -0.1228  0.1289
  955MOL0     H28904  12.132   2.545   2.693 -0.4595 -1.4142 -0.6966
  955MOL0     H28905  11.156   2.009   2.609 -0.4946 -1.6225 -1.4274
  955MOL0     H28906  10.953   1.866   2.603  1.1469  0.3490  1.7367
  955MOL0     H28907  10.506   1.888   2.719 -0.1158  1.4985 -0.2651
  955MOL0     H28908  10.290   1.805   2.763  2.0889  2.0963  1.1884
  955MOL0     H28909   8.410   1.608   2.291  1.1311 -0.3826  0.4022
  955MOL0     H28910   8.169   1.549   2.309  0.7457  1.1547 -1.8900
  955MOL0     H28911   7.889   1.185   2.339 -1.5165 -1.1925  0.5332
  955MOL0     H28912   7.676   1.079   2.357  1.6275  1.6110  2.0481
  955MOL0     H28913   7.336   1.133   2.072  0.0174 -1.4284  0.7172
  955MOL0     H28914   7.325   1.280   2.175 -0.0749  0.1074  0.8819
  955MOL0     H28915   7.160   1.181   2.223  2.5987  2.8659 -2.3104
  955MOL0     H28916   7.251   1.132   2.367 -1.0151 -0.9882  0.2611
  955MOL0     H28917   7.290   0.905   2.302 -0.8622 -0.7081  0.8549
  955MOL0     H28918   7.219   0.948   2.140  0.3544 -0.6791  0.4107
  955MOL0     H28919   7.003   0.992   2.255 -1.9553 -0.2013  1.9917
  955MOL0     H28920   7.053   0.828   2.272  0.6477  0.1507  0.9565
  955MOL0     H28921   7.085   0.964   2.676  0.9926  0.1663  0.4730
  955MOL0     H28922   7.515   1.365   2.086  1.7907  2.3152 -1.8023
  955MOL0     H28923   7.775   1.493   1.964 -1.2813 -0.5095 -0.3094
  955MOL0     H28924   7.613   1.544   1.995 -0.2567  2.1966  1.2954
  955MOL0     H28925   7.737   1.612   2.095 -3.0245  1.1581 -0.5810
  956MOL0     O28926   2.702   9.011   4.109  0.1037  0.3681  0.2341
  956MOL0     C28927   2.655   8.946   4.017  0.6449 -0.4146  0.3229
  956MOL0     O28928   2.740   8.906   3.913 -0.6221  0.1437 -0.0356
  956MOL0     C28929   2.863   8.959   3.898  0.4562 -0.1923 -0.0115
  956MOL0     C28930   2.967   8.954   3.992  0.0188  0.5424 -0.0717
  956MOL0     C28931   3.096   9.007   3.961 -0.3365  0.4944 -0.5780
  956MOL0     C28932   3.125   9.063   3.835 -0.1759  0.3065 -0.6836
  956MOL0     O28933   3.245   9.119   3.795  0.3374  0.3485  0.1023
  956MOL0     C28934   3.349   9.025   3.789  0.0284 -0.0872  0.3318
  956MOL0     C28935   3.470   9.113   3.752 -0.4359 -0.6768 -0.0420
  956MOL0     C28936   3.507   9.216   3.858  0.3642 -0.4455 -1.2817
  956MOL0     C28937   3.632   9.286   3.815 -0.5594  0.2092  0.1072
  956MOL0     C28938   3.684   9.380   3.925 -0.0822  0.0074 -0.0510
  956MOL0     C28939   3.822   9.440   3.883  0.0709  0.0180 -0.0423
  956MOL0     C28940   3.867   9.540   3.982  0.1681 -0.4037 -0.7150
  956MOL0     C28941   4.006   9.573   3.942 -0.4864 -0.4325 -0.5752
  956MOL0     N28942   4.083   9.660   4.042  0.2757  0.8271  0.9659
  956MOL0     C28943   4.210   9.707   4.023 -0.3359  0.5503  0.3343
  956MOL0     C28944   4.239   9.790   4.130  0.1044  0.1729 -0.0337
  956MOL0     C28945   4.351   9.889   4.146  0.3689 -0.2719  0.3778
  956MOL0     C28946   4.415   9.936   4.009 -0.3951 -0.1539  0.5264
  956MOL0     C28947   4.515  10.058   4.021 -0.5558  0.2432 -0.1800
  956MOL0     C28948   4.625  10.020   4.119  0.4533  0.2822 -0.3245
  956MOL0     O28949   4.715  10.132   4.109 -0.0796  1.0032  0.0068
  956MOL0     C28950   4.829  10.139   4.184 -0.7829  0.3058 -0.5010
  956MOL0     C28951   4.859  10.064   4.302 -0.1908 -0.0637  0.5460
  956MOL0     C28952   4.985  10.087   4.367  0.6029  0.6237 -0.3695
  956MOL0     C28953   5.071  10.187   4.314  0.2625  0.0459  0.4508
  956MOL0     C28954   5.204  10.221   4.375  0.1371  0.8744 -0.4400
  956MOL0     O28955   5.278  10.327   4.340 -0.3756 -0.4825  0.1939
  956MOL0     C28956   5.409  10.330   4.394 -0.8043  0.6689  0.4794
  956MOL0     C28957   5.432  10.419   4.497 -0.1713  0.0203 -0.9302
  956MOL0     C28958   5.547  10.426   4.568  0.5807  0.0294  0.0702
  956MOL0     C28959   5.656  10.348   4.520 -0.5213 -0.3454 -0.0104
  956MOL0     O28960   5.766  10.365   4.596 -0.0738  0.0293  0.0604
  956MOL0     C28961   5.897  10.320   4.545  1.0734 -0.6706  0.0538
  956MOL0     C28962   5.951  10.405   4.434 -0.0038  0.4948 -0.7476
  956MOL0     C28963   6.076  10.487   4.488  0.3228  0.3443  0.0304
  956MOL0     C28964   6.140  10.568   4.367  0.0038  0.4606 -0.4676
  956MOL0     C28965   6.223  10.690   4.420  0.6675  0.2147  0.3738
  956MOL0     C28966   6.292  10.762   4.299  0.2266 -0.0080  0.2607
  956MOL0     C28967   6.335  10.902   4.331 -0.5589  0.9546 -0.1534
  956MOL0     C28968   6.377  10.981   4.207 -0.9341 -0.7468  0.6496
  956MOL0    Cl28969   6.536  10.917   4.143  0.5645 -0.4492 -0.6069
  956MOL0     C28970   5.641  10.254   4.411 -0.2316 -0.5596  0.6458
  956MOL0     C28971   5.513  10.242   4.359  0.3504 -0.7385  0.6629
  956MOL0     O28972   5.242  10.128   4.442 -0.4391  0.2236 -0.1091
  956MOL0     C28973   5.031  10.275   4.207 -0.2368  0.3912  0.3004
  956MOL0     C28974   4.909  10.244   4.150 -0.4365  0.0774 -0.0129
  956MOL0     N28975   4.134   9.771   4.218 -0.1257 -0.0720 -0.0321
  956MOL0     N28976   4.049   9.697   4.164 -0.1391 -0.3996 -0.5975
  956MOL0     C28977   3.014   9.072   3.747  0.2325 -0.8255  0.2279
  956MOL0     C28978   2.890   9.025   3.779  0.4248 -0.1266 -0.2461
  956MOL0     C28979   2.509   8.916   4.006  0.4951  0.6163  0.2602
  956MOL0     C28980   2.443   8.934   3.886  0.0577 -0.8539  0.6020
  956MOL0     C28981   2.306   8.914   3.873 -0.3623  0.9456  0.1025
  956MOL0     C28982   2.236   8.872   3.983  0.3196 -0.6958  0.1610
  956MOL0     O28983   2.105   8.843   3.956 -0.0174  0.4221 -0.4626
  956MOL0     C28984   2.044   8.758   4.055 -0.2033  0.4227 -0.6818
  956MOL0     C28985   1.902   8.721   4.016  0.0878  0.1837 -0.2300
  956MOL0     C28986   1.843   8.609   4.102  0.1064 -0.3354 -0.4276
  956MOL0     C28987   1.702   8.573   4.067 -0.7466  0.2136  0.3351
  956MOL0     C28988   1.612   8.682   4.098 -0.0487 -1.2910  0.1063
  956MOL0     C28989   1.528   8.776   4.103 -0.2186  0.7304 -0.2282
  956MOL0     C28990   2.305   8.847   4.106  0.9706 -0.3380 -0.5332
  956MOL0     C28991   2.438   8.879   4.128 -0.2922 -0.0140  0.4168
  956MOL0     C28992   2.500   8.875   4.264  0.8234 -0.3834 -1.0707
  956MOL0     H28993   2.952   8.913   4.092 -1.1201  0.0478 -0.4324
  956MOL0     H28994   3.180   9.005   4.030 -0.0158 -0.0029 -0.9770
  956MOL0     H28995   3.362   8.965   3.879  0.0991 -1.8883 -0.8203
  956MOL0     H28996   3.328   8.943   3.720 -3.1682 -0.1800  1.2519
  956MOL0     H28997   3.451   9.164   3.657  3.5275  1.8577  0.3063
  956MOL0     H28998   3.551   9.041   3.739  0.3132  0.1934 -0.3110
  956MOL0     H28999   3.533   9.173   3.956 -1.1540  0.3719 -0.4732
  956MOL0     H29000   3.419   9.280   3.871  0.4884 -0.3972 -0.6229
  956MOL0     H29001   3.709   9.211   3.794 -0.9245 -0.4609  1.0991
  956MOL0     H29002   3.607   9.346   3.727 -3.1831  2.5794  2.2988
  956MOL0     H29003   3.610   9.457   3.947 -0.0805 -0.2712  0.9703
  956MOL0     H29004   3.707   9.321   4.015  0.1903  2.0528  1.2819
  956MOL0     H29005   3.898   9.362   3.882  1.6349  1.4285 -2.0725
  956MOL0     H29006   3.816   9.477   3.780 -2.3905  0.2986  0.1380
  956MOL0     H29007   3.869   9.496   4.082 -1.8708  2.1313  0.5902
  956MOL0     H29008   3.798   9.625   3.977 -1.6683 -1.8786 -1.9400
  956MOL0     H29009   4.065   9.482   3.925 -0.5582 -0.4540 -0.7124
  956MOL0     H29010   3.995   9.627   3.847  1.6459  0.6116 -0.2816
  956MOL0     H29011   4.278   9.676   3.945 -1.1912 -4.3208  1.2266
  956MOL0     H29012   4.312   9.974   4.203 -2.3459  0.0190 -1.6944
  956MOL0     H29013   4.436   9.841   4.194  1.9536 -0.2198 -2.2083
  956MOL0     H29014   4.465   9.846   3.973  1.7754  0.4164  1.9142
  956MOL0     H29015   4.335   9.964   3.940  0.7328  0.2999 -0.6538
  956MOL0     H29016   4.461  10.144   4.062  0.1753  0.5932  0.0660
  956MOL0     H29017   4.548  10.089   3.922 -0.5672  1.9929  0.3290
  956MOL0     H29018   4.679   9.928   4.096  3.2578  1.7426 -0.0880
  956MOL0     H29019   4.577  10.016   4.217  1.6515  5.2197  0.7825
  956MOL0     H29020   4.782   9.997   4.338  1.5626 -2.2911  0.3952
  956MOL0     H29021   5.012  10.040   4.461 -1.3767  0.5338  0.1823
  956MOL0     H29022   5.357  10.490   4.530  1.3955  2.2077 -1.7908
  956MOL0     H29023   5.566  10.496   4.650  2.6751  0.7015 -0.9173
  956MOL0     H29024   5.966  10.330   4.630  1.7866 -0.9957 -0.4803
  956MOL0     H29025   5.887  10.214   4.525  0.1618 -0.5739 -0.0238
  956MOL0     H29026   5.999  10.338   4.363  0.7322 -0.9421  1.0333
  956MOL0     H29027   5.873  10.468   4.390 -1.4898  1.5787  2.9945
  956MOL0     H29028   6.039  10.555   4.565 -0.7145  0.5716 -0.6556
  956MOL0     H29029   6.156  10.419   4.521  0.1047 -1.0440 -2.0923
  956MOL0     H29030   6.056  10.603   4.306 -1.4254  1.0678  1.7699
  956MOL0     H29031   6.207  10.506   4.307  2.0871  1.5401  0.6317
  956MOL0     H29032   6.298  10.676   4.499  1.6647  2.0232 -0.1880
  956MOL0     H29033   6.153  10.766   4.454  0.5785  0.4815 -0.3832
  956MOL0     H29034   6.375  10.695   4.274  0.4138 -0.8903  2.8931
  956MOL0     H29035   6.217  10.770   4.221 -1.0453  2.5123  1.6363
  956MOL0     H29036   6.426  10.894   4.392  1.0121  1.3625 -2.3074
  956MOL0     H29037   6.252  10.946   4.386 -1.1829  0.5679 -0.7796
  956MOL0     H29038   6.306  10.992   4.125  1.3746  1.1339 -1.2757
  956MOL0     H29039   6.386  11.087   4.233 -4.0007 -1.0256  3.3859
  956MOL0     H29040   5.724  10.190   4.382  1.0046  0.4345  1.8351
  956MOL0     H29041   5.488  10.177   4.276  1.2297  2.1045 -2.0089
  956MOL0     H29042   5.101  10.350   4.171  1.0478  0.7594  3.2321
  956MOL0     H29043   4.872  10.289   4.058  0.1222  0.4341 -0.0652
  956MOL0     H29044   3.032   9.112   3.648 -1.1587 -1.2388 -0.2107
  956MOL0     H29045   2.821   9.033   3.695  0.3998 -1.6686 -0.4107
  956MOL0     H29046   2.498   8.979   3.804 -2.4958  3.2261  0.8966
  956MOL0     H29047   2.257   8.933   3.778 -0.0205  0.3707 -0.1958
  956MOL0     H29048   2.034   8.807   4.153 -0.5029 -3.8616  1.7003
  956MOL0     H29049   2.099   8.666   4.076 -1.2641  0.2189  1.5499
  956MOL0     H29050   1.907   8.688   3.912  0.2293  4.0323 -1.6176
  956MOL0     H29051   1.845   8.815   4.015  3.0285  2.0822 -0.8995
  956MOL0     H29052   1.852   8.639   4.207 -0.2279 -2.1208  0.1342
  956MOL0     H29053   1.899   8.516   4.088 -0.8983 -0.9562 -0.4159
  956MOL0     H29054   1.686   8.545   3.962 -0.1551  0.7283  0.1043
  956MOL0     H29055   1.685   8.482   4.125  0.0933  0.0888  0.4024
  956MOL0     H29056   1.456   8.844   4.144 -1.7107 -1.8298  1.7529
  956MOL0     H29057   2.248   8.822   4.195  0.8163 -1.3988 -0.9064
  956MOL0     H29058   2.426   8.832   4.331  0.9286 -2.2644 -2.1066
  956MOL0     H29059   2.596   8.824   4.273  0.5342 -1.0574 -1.7200
  956MOL0     H29060   2.520   8.977   4.300  1.1573 -0.4780 -0.9868
  957MOL0     O29061   3.421   1.795   6.430 -0.1698 -0.4163 -0.3326
  957MOL0     C29062   3.332   1.793   6.514  0.4224  0.0433 -0.2479
  957MOL0     O29063   3.342   1.843   6.636 -0.4397 -0.4726 -0.1303
  957MOL0     C29064   3.468   1.850   6.695 -0.2081 -0.0794  0.0235
  957MOL0     C29065   3.553   1.731   6.686  0.0103 -0.1577  0.2331
  957MOL0     C29066   3.678   1.720   6.759  0.8793 -0.6666  0.8162
  957MOL0     C29067   3.718   1.825   6.829 -0.1010 -0.2467  0.1049
  957MOL0     O29068   3.830   1.791   6.910  0.0680 -0.1518  0.4382
  957MOL0     C29069   3.906   1.907   6.954  0.3899 -0.6129 -0.5708
  957MOL0     C29070   4.036   1.834   7.010  0.3130  0.3883 -0.2736
  957MOL0     C29071   4.116   1.775   6.896 -0.0493  0.2758 -0.6423
  957MOL0     C29072   4.233   1.690   6.951  1.1267 -0.4246  0.0799
  957MOL0     C29073   4.343   1.660   6.842  0.6803  0.0701 -0.9210
  957MOL0     C29074   4.452   1.570   6.907 -0.2566  0.0719 -0.2723
  957MOL0     C29075   4.559   1.518   6.815  0.5783  0.3785 -1.0176
  957MOL0     C29076   4.702   1.561   6.851  0.6548 -0.4008  0.2587
  957MOL0     N29077   4.737   1.521   6.985 -0.1488 -0.2751 -0.4178
  957MOL0     C29078   4.736   1.395   7.028  0.2399  0.5697  0.3265
  957MOL0     C29079   4.777   1.400   7.157 -0.8128 -0.3716 -0.3859
  957MOL0     C29080   4.785   1.280   7.245  0.2629  0.5043 -0.4869
  957MOL0     C29081   4.918   1.272   7.314 -0.2432  0.0318 -0.5579
  957MOL0     C29082   4.925   1.154   7.420  0.8576 -0.7421 -0.2386
  957MOL0     C29083   5.050   1.158   7.516  0.0998  0.0632 -0.2164
  957MOL0     O29084   5.161   1.091   7.449  0.6889 -0.5700 -0.6373
  957MOL0     C29085   5.280   1.074   7.510 -0.6133 -1.1506 -1.3318
  957MOL0     C29086   5.311   1.119   7.644  1.2795  0.1244  0.1903
  957MOL0     C29087   5.444   1.111   7.692  0.0276  0.7181 -1.1636
  957MOL0     C29088   5.547   1.056   7.614 -0.1687 -0.1168 -0.4722
  957MOL0     C29089   5.694   1.050   7.659  0.7047 -1.3588 -0.1186
  957MOL0     O29090   5.776   0.979   7.583 -0.5093  0.0916 -0.7262
  957MOL0     C29091   5.910   0.964   7.617 -0.2081 -0.7567  0.3794
  957MOL0     C29092   6.002   1.073   7.623 -0.2494  0.4215  0.4457
  957MOL0     C29093   6.138   1.047   7.643  0.2773  0.1748 -0.0734
  957MOL0     C29094   6.187   0.925   7.681  0.0254 -0.6314  0.7882
  957MOL0     O29095   6.320   0.918   7.724  0.1996 -0.3356  0.8190
  957MOL0     C29096   6.382   0.799   7.771 -0.3741  0.3346  0.3720
  957MOL0     C29097   6.534   0.826   7.774  0.3895 -1.2763  0.0517
  957MOL0     C29098   6.599   0.879   7.643 -0.0204  0.6472 -0.1798
  957MOL0     C29099   6.755   0.871   7.658  0.4001  0.1148 -0.1592
  957MOL0     C29100   6.828   0.932   7.536 -0.2594  0.3939  0.5600
  957MOL0     C29101   6.978   0.912   7.557  0.3253  0.2740 -0.1177
  957MOL0     C29102   7.060   0.992   7.459 -0.0367  0.3810  0.4234
  957MOL0     C29103   7.209   0.977   7.495  0.4198  0.7501 -0.2675
  957MOL0    Cl29104   7.292   0.842   7.407 -0.1020  0.4120  0.2096
  957MOL0     C29105   6.100   0.819   7.663  0.1527  0.2897  1.0078
  957MOL0     C29106   5.960   0.840   7.628 -0.3358  0.1576 -0.0702
  957MOL0     O29107   5.714   1.106   7.764  0.1771 -0.5070 -0.5396
  957MOL0     C29108   5.510   1.025   7.490 -1.4314  0.5031 -0.0641
  957MOL0     C29109   5.385   1.028   7.437 -0.3868  0.8153 -0.4515
  957MOL0     N29110   4.783   1.534   7.189 -0.0149  0.5258  0.7231
  957MOL0     N29111   4.762   1.604   7.085 -0.0534 -0.7081 -0.0993
  957MOL0     C29112   3.650   1.953   6.825  0.0131  0.2014 -0.1807
  957MOL0     C29113   3.526   1.959   6.758  0.2172 -0.5264  0.0992
  957MOL0     C29114   3.190   1.756   6.478 -0.1907  0.3611  0.1749
  957MOL0     C29115   3.088   1.785   6.570  0.1866 -0.1878 -0.0714
  957MOL0     C29116   2.957   1.771   6.537 -0.3138  0.8258  0.1437
  957MOL0     C29117   2.922   1.715   6.417 -0.1702  0.0750  0.6505
  957MOL0     O29118   2.796   1.676   6.389  0.9687  0.0494 -0.0560
  957MOL0     C29119   2.741   1.742   6.272  0.3704 -0.7409  0.0466
  957MOL0     C29120   2.613   1.829   6.293 -0.3262  0.7387  0.1283
  957MOL0     C29121   2.505   1.755   6.373 -0.5420  0.2285 -1.0962
  957MOL0     C29122   2.378   1.840   6.382  0.4281  0.4051 -0.5749
  957MOL0     C29123   2.247   1.782   6.403 -0.5790  0.3327  0.6138
  957MOL0     C29124   2.146   1.718   6.428  0.6475  0.4413 -0.2469
  957MOL0     C29125   3.022   1.666   6.333 -0.1853 -0.0310  0.6690
  957MOL0     C29126   3.154   1.696   6.357  0.1962  0.7337 -0.0477
  957MOL0     C29127   3.255   1.656   6.246  0.0231 -0.4829 -0.0545
  957MOL0     H29128   3.513   1.645   6.633 -0.7840 -0.5285  1.3974
  957MOL0     H29129   3.730   1.625   6.760  0.2177 -1.1972 -2.6755
  957MOL0     H29130   3.926   1.965   6.863  3.7515  1.5626  1.3516
  957MOL0     H29131   3.860   1.963   7.036  0.6436 -1.6339  0.2807
  957MOL0     H29132   4.008   1.760   7.086  3.6940 -1.4075 -0.5538
  957MOL0     H29133   4.100   1.907   7.062  0.5921 -0.0887  0.0658
  957MOL0     H29134   4.145   1.858   6.830 -1.7209  0.3298 -1.3587
  957MOL0     H29135   4.042   1.707   6.854 -1.7240  0.6064  1.5773
  957MOL0     H29136   4.271   1.750   7.034 -1.8720  2.6858 -0.5701
  957MOL0     H29137   4.191   1.594   6.983 -1.6013  0.2609 -1.1313
  957MOL0     H29138   4.293   1.616   6.755 -1.8586 -0.0950  0.5256
  957MOL0     H29139   4.390   1.753   6.810 -0.4908  1.6449  1.6565
  957MOL0     H29140   4.500   1.640   6.976  1.3100  0.1945 -1.4264
  957MOL0     H29141   4.410   1.492   6.971  1.8314 -0.3440  0.6761
  957MOL0     H29142   4.542   1.549   6.711 -0.2696  2.0350 -0.4182
  957MOL0     H29143   4.546   1.410   6.822 -0.6733  0.6322  1.9153
  957MOL0     H29144   4.768   1.513   6.778 -0.0054 -0.8514 -0.0492
  957MOL0     H29145   4.711   1.670   6.847  1.1973 -0.4080  0.9673
  957MOL0     H29146   4.699   1.315   6.965  2.3574  1.1859 -1.8634
  957MOL0     H29147   4.703   1.284   7.317 -0.0668  0.0164 -0.8338
  957MOL0     H29148   4.757   1.196   7.181  0.2448  1.6934 -2.1087
  957MOL0     H29149   4.997   1.251   7.242  0.6225 -2.3925  0.9574
  957MOL0     H29150   4.931   1.367   7.366 -2.1413  2.5868 -4.3198
  957MOL0     H29151   4.916   1.057   7.371 -1.2664 -1.7485  1.9431
  957MOL0     H29152   4.832   1.160   7.478 -0.1763  2.9079 -2.0073
  957MOL0     H29153   5.029   1.099   7.605  0.2366 -0.1934 -0.3535
  957MOL0     H29154   5.068   1.259   7.554 -3.5860 -0.0276  2.2193
  957MOL0     H29155   5.237   1.170   7.705 -0.7487  1.1723 -2.8917
  957MOL0     H29156   5.469   1.146   7.791 -0.8118 -1.3494 -0.1562
  957MOL0     H29157   5.973   1.177   7.614  0.5052  0.5239 -1.2074
  957MOL0     H29158   6.213   1.126   7.636 -0.9014  1.1542 -3.6109
  957MOL0     H29159   6.340   0.773   7.869 -1.4051 -0.1719 -0.1875
  957MOL0     H29160   6.361   0.716   7.702 -1.4868  1.3641 -0.5619
  957MOL0     H29161   6.536   0.905   7.850 -0.9409 -0.1881 -0.9864
  957MOL0     H29162   6.596   0.748   7.819 -0.4258 -2.7205 -1.2521
  957MOL0     H29163   6.581   0.820   7.552  1.9003  3.9203 -2.9559
  957MOL0     H29164   6.576   0.986   7.634 -0.1749  0.7053  0.8112
  957MOL0     H29165   6.775   0.764   7.670 -0.3260  0.2067  2.4486
  957MOL0     H29166   6.796   0.913   7.751  1.6396  1.1449 -1.1353
  957MOL0     H29167   6.805   1.038   7.543 -2.9822 -0.1862  1.7450
  957MOL0     H29168   6.798   0.886   7.442  1.1859  1.7181 -0.6112
  957MOL0     H29169   7.007   0.925   7.662  2.2355 -1.7921 -0.3030
  957MOL0     H29170   7.016   0.810   7.542 -1.4264 -0.4953  0.3875
  957MOL0     H29171   7.036   1.098   7.474 -1.4949  0.0491  0.5013
  957MOL0     H29172   7.044   0.966   7.354  3.3866 -0.8034  0.0371
  957MOL0     H29173   7.270   1.062   7.462  2.0582  0.5671  2.0796
  957MOL0     H29174   7.224   0.964   7.602 -0.9017 -0.7243 -0.2382
  957MOL0     H29175   6.135   0.720   7.690  2.0988  0.1250 -1.6472
  957MOL0     H29176   5.906   0.747   7.615 -0.4252  0.1884  0.0724
  957MOL0     H29177   5.586   0.989   7.422 -1.7474  0.4779 -0.4106
  957MOL0     H29178   5.367   0.994   7.336  2.3710 -1.4627 -0.2958
  957MOL0     H29179   3.693   2.042   6.870  0.5210  0.2946 -0.8398
  957MOL0     H29180   3.474   2.053   6.746 -2.0402 -1.3851  2.2391
  957MOL0     H29181   3.107   1.825   6.669  1.6312 -1.4528  0.2030
  957MOL0     H29182   2.880   1.797   6.610 -0.9340 -1.6965  0.4866
  957MOL0     H29183   2.707   1.674   6.193 -2.1849  0.4177  0.0443
  957MOL0     H29184   2.816   1.806   6.225  1.3513 -1.1326  1.0517
  957MOL0     H29185   2.570   1.857   6.196  2.0769 -0.5601 -1.4187
  957MOL0     H29186   2.628   1.924   6.344  0.0744 -0.4563  2.3769
  957MOL0     H29187   2.541   1.734   6.474 -2.0689  0.8569 -0.3865
  957MOL0     H29188   2.482   1.656   6.331  3.6030 -1.3034 -0.2493
  957MOL0     H29189   2.392   1.918   6.457 -1.2230 -0.0167  0.2151
  957MOL0     H29190   2.371   1.890   6.285  0.7840 -1.3411 -1.5341
  957MOL0     H29191   2.051   1.675   6.454 -0.4758  2.1210 -1.3115
  957MOL0     H29192   3.004   1.612   6.240  3.7531 -1.0415  0.3161
  957MOL0     H29193   3.320   1.571   6.272  0.3446 -0.6510 -1.3263
  957MOL0     H29194   3.192   1.625   6.163 -0.0381  2.2296 -1.1002
  957MOL0     H29195   3.319   1.739   6.215 -0.2797  0.2178  1.1175
  958MOL0     O29196   5.398   4.357   9.810  0.1430  0.0690 -0.0193
  958MOL0     C29197   5.350   4.412   9.712  1.0920  0.6401  0.1279
  958MOL0     O29198   5.399   4.519   9.642  0.1900  0.4240  0.0969
  958MOL0     C29199   5.516   4.580   9.675 -0.0603  0.8287  0.1884
  958MOL0     C29200   5.609   4.548   9.773 -0.0579 -0.5767  0.6690
  958MOL0     C29201   5.733   4.606   9.787  0.6105  0.3343  0.2661
  958MOL0     C29202   5.773   4.714   9.701 -0.4868  0.1741 -0.5437
  958MOL0     O29203   5.897   4.765   9.716 -0.2982  0.1867 -0.4371
  958MOL0     C29204   6.003   4.667   9.708 -0.5813 -0.4954 -0.4104
  958MOL0     C29205   6.099   4.678   9.830 -0.8899 -0.6533 -0.3772
  958MOL0     C29206   6.223   4.761   9.788  0.4424 -0.6493  0.2255
  958MOL0     C29207   6.325   4.778   9.895 -0.0328 -0.3492  0.7297
  958MOL0     C29208   6.431   4.882   9.852 -0.4484 -0.1698  0.5055
  958MOL0     C29209   6.545   4.822   9.767  0.0518  0.6890  0.2425
  958MOL0     C29210   6.666   4.909   9.740  0.4494  0.7097  0.1485
  958MOL0     C29211   6.738   4.956   9.866 -0.2208  0.2444  0.5954
  958MOL0     N29212   6.879   5.008   9.836 -0.0078  0.0504 -0.4971
  958MOL0     C29213   6.993   4.928   9.824  0.3058  0.6095  0.3736
  958MOL0     C29214   7.091   5.019   9.806  0.4054  0.4556  0.4067
  958MOL0     C29215   7.238   4.989   9.796 -0.6953  0.2061  0.3274
  958MOL0     C29216   7.327   5.103   9.851  0.3090 -0.3962  0.0424
  958MOL0     C29217   7.474   5.059   9.844 -0.6122  0.0331 -0.6581
  958MOL0     C29218   7.582   5.135   9.909  0.6194 -0.0472  0.7883
  958MOL0     O29219   7.712   5.096   9.862  0.8936  1.1225 -0.5774
  958MOL0     C29220   7.815   5.154   9.930 -0.4483  0.2211 -0.1521
  958MOL0     C29221   7.805   5.235  10.044 -0.5543  0.3377 -0.1582
  958MOL0     C29222   7.918   5.264  10.123 -0.1433 -0.9840  0.1365
  958MOL0     C29223   8.048   5.220  10.082 -0.8490  0.4582  0.3119
  958MOL0     C29224   8.162   5.239  10.177  0.6784 -0.3257 -1.0288
  958MOL0     O29225   8.290   5.183  10.149  0.2500  0.1024 -0.4503
  958MOL0     C29226   8.400   5.232  10.218 -0.0565 -0.2208 -0.0875
  958MOL0     C29227   8.414   5.218  10.354 -0.2078 -0.4895  0.2641
  958MOL0     C29228   8.538   5.238  10.416  0.1153 -0.5031  1.0151
  958MOL0     C29229   8.652   5.269  10.341 -0.0306 -0.0712 -0.3169
  958MOL0     O29230   8.783   5.277  10.387  0.0653  0.4615 -0.5390
  958MOL0     C29231   8.821   5.230  10.518  0.2749 -0.5453 -0.3227
  958MOL0     C29232   8.962   5.258  10.551 -0.8167  0.6773 -0.5783
  958MOL0     C29233   8.999   5.413  10.565  0.4604  0.1535 -0.9015
  958MOL0     C29234   9.141   5.443  10.531 -0.0331 -0.7617 -0.0153
  958MOL0     C29235   9.154   5.597  10.525 -0.0454  0.1088 -0.3796
  958MOL0     C29236   9.308   5.631  10.540  0.3782 -0.0740  0.2484
  958MOL0     C29237   9.331   5.774  10.510 -0.8850  0.2121 -0.6191
  958MOL0     C29238   9.474   5.819  10.514 -0.4505  0.0732  0.0519
  958MOL0    Cl29239   9.553   5.770  10.367  0.1859 -0.0637  0.4034
  958MOL0     C29240   8.638   5.294  10.205 -0.1769 -0.7179 -0.0050
  958MOL0     C29241   8.518   5.269  10.145  0.2318  0.3430 -1.1094
  958MOL0     O29242   8.137   5.320  10.269  0.6626  1.2064  0.4974
  958MOL0     C29243   8.062   5.140   9.971 -0.0945 -0.4691 -0.2197
  958MOL0     C29244   7.947   5.121   9.891  0.0809 -0.7646 -0.4082
  958MOL0     N29245   7.035   5.150   9.802  0.1891 -0.7167  0.3045
  958MOL0     N29246   6.910   5.140   9.823  0.1661 -0.6565 -0.2618
  958MOL0     C29247   5.681   4.754   9.608  0.4144 -0.4554  0.1137
  958MOL0     C29248   5.556   4.693   9.595  0.4439  0.0612  0.3624
  958MOL0     C29249   5.214   4.375   9.656  0.4772 -0.4510 -0.5635
  958MOL0     C29250   5.121   4.474   9.616  0.7668  0.2358 -0.5739
  958MOL0     C29251   4.994   4.452   9.574 -0.1660  0.8284  0.1396
  958MOL0     C29252   4.957   4.316   9.571 -0.1895 -0.2859 -0.6104
  958MOL0     O29253   4.828   4.285   9.547 -0.5211 -0.3838  0.8184
  958MOL0     C29254   4.720   4.381   9.515  0.4242 -0.1289  0.1303
  958MOL0     C29255   4.584   4.304   9.472 -0.2190  0.7243  0.1581
  958MOL0     C29256   4.464   4.396   9.467  0.0758 -0.8522 -0.8941
  958MOL0     C29257   4.333   4.332   9.406  0.4517 -0.6519  0.2859
  958MOL0     C29258   4.214   4.418   9.386  0.7168 -0.2462  0.4887
  958MOL0     C29259   4.110   4.489   9.369 -0.2147  0.3263  0.1038
  958MOL0     C29260   5.044   4.214   9.615  0.5012 -0.0921 -0.0527
  958MOL0     C29261   5.171   4.243   9.662 -0.7531 -0.3097 -0.9197
  958MOL0     C29262   5.261   4.134   9.705  0.2719 -0.6980  0.0021
  958MOL0     H29263   5.598   4.462   9.838  2.7725 -2.3358 -0.9214
  958MOL0     H29264   5.801   4.563   9.861 -0.3324 -0.1992  0.8459
  958MOL0     H29265   5.961   4.566   9.697  1.7110 -2.2132  4.0979
  958MOL0     H29266   6.047   4.693   9.611 -2.1595  0.1423 -0.9930
  958MOL0     H29267   6.122   4.579   9.869  0.7170 -1.3200 -2.7922
  958MOL0     H29268   6.050   4.732   9.912  1.2031  0.7477  0.0276
  958MOL0     H29269   6.201   4.866   9.767  0.6571 -0.0539  2.6875
  958MOL0     H29270   6.263   4.715   9.698 -1.8486 -0.5757 -0.9031
  958MOL0     H29271   6.267   4.801   9.985 -0.1974 -2.9678  1.3969
  958MOL0     H29272   6.377   4.682   9.907  3.1612  1.0386 -1.0346
  958MOL0     H29273   6.375   4.952   9.789 -3.2359 -1.7903  1.0201
  958MOL0     H29274   6.465   4.931   9.944  0.6326  0.4640 -0.2017
  958MOL0     H29275   6.581   4.730   9.813  2.5669  1.1818 -0.5405
  958MOL0     H29276   6.513   4.788   9.668 -0.5631  2.0504 -0.0527
  958MOL0     H29277   6.646   4.990   9.670  2.1271  0.0444 -1.1549
  958MOL0     H29278   6.732   4.853   9.673  1.4173  4.5065 -2.4128
  958MOL0     H29279   6.689   5.036   9.922  2.0077  2.2502 -0.1670
  958MOL0     H29280   6.746   4.864   9.926 -0.5190 -0.6375 -0.6809
  958MOL0     H29281   7.006   4.823   9.849  1.8292  1.0715  1.6909
  958MOL0     H29282   7.255   4.906   9.865 -2.7316 -0.6714 -0.1522
  958MOL0     H29283   7.269   4.955   9.697 -2.1345  2.2961 -0.9035
  958MOL0     H29284   7.312   5.197   9.796  0.0471  0.2540  1.1972
  958MOL0     H29285   7.286   5.106   9.952 -2.3972 -0.9428 -0.9677
  958MOL0     H29286   7.495   5.066   9.737 -1.4943  4.6371 -0.7369
  958MOL0     H29287   7.481   4.958   9.886  0.0722  0.9218  1.4832
  958MOL0     H29288   7.581   5.120  10.018  1.0147  1.1005  0.9627
  958MOL0     H29289   7.560   5.239   9.884  2.2750  0.1919  0.2100
  958MOL0     H29290   7.707   5.270  10.077 -0.5507  3.4008 -2.9645
  958MOL0     H29291   7.910   5.334  10.206  2.7434  1.4331 -1.3980
  958MOL0     H29292   8.322   5.199  10.408  0.1597  2.0860  2.0026
  958MOL0     H29293   8.543   5.225  10.523  1.6737 -1.1094  0.8948
  958MOL0     H29294   8.773   5.292  10.594  0.7877  2.8718 -2.5621
  958MOL0     H29295   8.795   5.123  10.523 -2.0968 -0.0124 -0.1876
  958MOL0     H29296   8.979   5.208  10.647 -1.4965  2.4153  0.5059
  958MOL0     H29297   9.029   5.220  10.474 -0.8847  0.6443 -0.6209
  958MOL0     H29298   8.943   5.457  10.482  0.2004  0.5269 -0.5349
  958MOL0     H29299   8.980   5.454  10.665  1.3594 -2.2874  0.3427
  958MOL0     H29300   9.175   5.390  10.442  1.2739 -0.8999  0.5465
  958MOL0     H29301   9.210   5.416  10.611 -2.1605  2.3027  3.1277
  958MOL0     H29302   9.099   5.649  10.603  2.3716  0.1033  1.4600
  958MOL0     H29303   9.116   5.634  10.429 -0.6098 -1.2485 -0.7009
  958MOL0     H29304   9.349   5.609  10.639 -0.7325 -0.3142  0.6721
  958MOL0     H29305   9.367   5.579  10.464 -0.0283  0.1979 -0.2570
  958MOL0     H29306   9.264   5.843  10.563 -1.6628 -0.8304 -0.2298
  958MOL0     H29307   9.304   5.788  10.404 -1.5252 -3.3743 -1.0568
  958MOL0     H29308   9.485   5.927  10.528 -2.2024  0.1125  1.5059
  958MOL0     H29309   9.525   5.771  10.597 -0.8477 -2.6765 -1.1572
  958MOL0     H29310   8.726   5.314  10.146 -1.1560  1.7513 -0.7248
  958MOL0     H29311   8.499   5.281  10.039 -3.5790 -0.1714 -0.6277
  958MOL0     H29312   8.155   5.100   9.930  0.0670  0.2073 -0.5454
  958MOL0     H29313   7.968   5.060   9.804  1.7512  1.4391 -1.6584
  958MOL0     H29314   5.707   4.846   9.557  1.1269  1.6555  3.8861
  958MOL0     H29315   5.482   4.736   9.528 -0.8672 -2.0098  0.3675
  958MOL0     H29316   5.136   4.581   9.610 -1.0696  0.5462 -0.2678
  958MOL0     H29317   4.927   4.531   9.542  0.8295  1.7034  0.1502
  958MOL0     H29318   4.750   4.436   9.425 -2.5452  1.6026  0.0711
  958MOL0     H29319   4.706   4.451   9.598  4.2287  1.5080 -0.3778
  958MOL0     H29320   4.555   4.220   9.536 -1.5436  0.0943 -1.1879
  958MOL0     H29321   4.598   4.262   9.371  0.3245  0.4363  0.3496
  958MOL0     H29322   4.499   4.487   9.417 -0.7043  0.9721  1.6660
  958MOL0     H29323   4.440   4.423   9.570 -0.2522 -2.0587 -0.6443
  958MOL0     H29324   4.358   4.309   9.301 -2.9881 -2.4111 -0.2920
  958MOL0     H29325   4.308   4.239   9.457 -2.5326  0.5163  1.1356
  958MOL0     H29326   4.024   4.547   9.343 -1.2370 -0.0906  2.2925
  958MOL0     H29327   5.005   4.114   9.630 -0.7358  0.7652  3.3197
  958MOL0     H29328   5.354   4.145   9.649  0.2260  3.3461  0.4488
  958MOL0     H29329   5.290   4.143   9.810 -0.4222 -4.0542  0.5872
  958MOL0     H29330   5.226   4.030   9.705  2.3039 -1.5238  2.9047
  959MOL0     O29331   7.677  10.259   3.625 -0.1731  0.3412 -0.3330
  959MOL0     C29332   7.685  10.218   3.740  0.5236 -0.1661  0.0306
  959MOL0     O29333   7.772  10.268   3.829  0.1658  0.1751  0.4176
  959MOL0     C29334   7.833  10.378   3.793 -0.1288  0.3331  0.5974
  959MOL0     C29335   7.810  10.497   3.865 -0.2124  0.2040  0.0844
  959MOL0     C29336   7.892  10.610   3.841  0.0929  0.1554  0.4747
  959MOL0     C29337   8.006  10.600   3.759 -0.4752  0.3971  0.1209
  959MOL0     O29338   8.102  10.698   3.747  0.1930 -0.2988 -0.8500
  959MOL0     C29339   8.096  10.802   3.836  0.0192  0.3573 -0.7430
  959MOL0     C29340   8.212  10.907   3.811  0.8325 -0.5815 -0.1600
  959MOL0     C29341   8.353  10.849   3.796  0.2986 -0.2551 -0.7298
  959MOL0     C29342   8.466  10.956   3.809 -0.3761  0.3700  0.8807
  959MOL0     C29343   8.480  10.997   3.949 -0.4295  0.5775  0.0071
  959MOL0     C29344   8.577  11.113   3.978  0.2263  0.1190  0.3963
  959MOL0     C29345   8.721  11.076   3.934 -0.4113  0.0788  0.2542
  959MOL0     C29346   8.821  11.176   3.987  0.1950 -0.2509  0.4970
  959MOL0     N29347   8.959  11.132   4.005 -0.9331  0.2697 -0.2215
  959MOL0     C29348   9.051  11.139   3.913 -0.5812 -0.2830  0.8663
  959MOL0     C29349   9.163  11.117   3.974 -0.1983  0.3628  0.0860
  959MOL0     C29350   9.300  11.120   3.901 -0.7810 -0.0604 -0.2509
  959MOL0     C29351   9.348  10.980   3.868 -0.0170  0.0749  0.2737
  959MOL0     C29352   9.394  10.899   3.989 -0.1013  0.0385  0.6444
  959MOL0     C29353   9.511  10.800   3.956  0.5838  0.0181  0.7408
  959MOL0     O29354   9.523  10.701   4.059  0.1517 -0.0954  0.1386
  959MOL0     C29355   9.594  10.585   4.029  0.0546 -0.1725  0.2101
  959MOL0     C29356   9.588  10.476   4.120 -0.0306  0.3640  0.8181
  959MOL0     C29357   9.642  10.348   4.082 -0.0585  0.5497  0.6832
  959MOL0     C29358   9.714  10.331   3.961 -0.2016  0.2598 -0.3021
  959MOL0     C29359   9.784  10.210   3.912  0.2650 -0.1884 -0.3738
  959MOL0     O29360   9.845  10.208   3.792 -0.1091  0.0576  0.0846
  959MOL0     C29361   9.908  10.093   3.755 -0.0872 -0.0063 -0.0521
  959MOL0     C29362  10.039  10.077   3.786 -0.0514 -0.0929  0.3361
  959MOL0     C29363  10.104   9.957   3.748 -0.3849  0.8640  0.2915
  959MOL0     C29364  10.029   9.855   3.684 -0.1640  0.0523  0.0860
  959MOL0     O29365  10.101   9.744   3.649  0.2726  0.2288 -0.2797
  959MOL0     C29366  10.051   9.616   3.691  0.1160 -0.0957 -0.4826
  959MOL0     C29367  10.118   9.503   3.612 -0.5212 -0.1387  0.6320
  959MOL0     C29368  10.097   9.509   3.461 -0.0358 -0.0824 -0.7823
  959MOL0     C29369  10.126   9.371   3.392 -0.2134  0.6855 -0.3741
  959MOL0     C29370  10.277   9.328   3.377  0.0453  0.0599  0.2255
  959MOL0     C29371  10.303   9.202   3.314  0.4513  0.4511  0.6645
  959MOL0     C29372  10.260   9.074   3.390 -0.3776  0.6287  0.0689
  959MOL0     C29373  10.350   8.953   3.363 -0.2389 -0.1590 -0.1610
  959MOL0    Cl29374  10.519   8.978   3.411 -0.5716  0.4842  0.4596
  959MOL0     C29375   9.893   9.876   3.654  0.4016  0.1660  0.5997
  959MOL0     C29376   9.829   9.993   3.696  0.1661  0.0023  0.1179
  959MOL0     O29377   9.792  10.116   3.990 -0.2675  0.6541 -0.3949
  959MOL0     C29378   9.710  10.437   3.864 -0.1541 -0.0045  0.2564
  959MOL0     C29379   9.657  10.556   3.898  0.2623  0.7819 -0.9177
  959MOL0     N29380   9.140  11.099   4.107 -0.6596 -0.1316  1.2473
  959MOL0     N29381   9.014  11.088   4.115  0.4260 -0.3222 -0.2344
  959MOL0     C29382   8.025  10.477   3.691  0.4971 -0.3447  0.4534
  959MOL0     C29383   7.936  10.370   3.696  0.5991 -0.7591 -0.7129
  959MOL0     C29384   7.571  10.146   3.803 -0.7296  0.0037  0.6741
  959MOL0     C29385   7.446  10.157   3.747  0.1589  0.1768 -0.2884
  959MOL0     C29386   7.338  10.084   3.794  0.1923 -0.4345  0.1779
  959MOL0     C29387   7.357   9.985   3.890  0.2579 -0.5737 -0.5341
  959MOL0     O29388   7.253   9.906   3.915 -0.8140 -0.3530 -0.4749
  959MOL0     C29389   7.242   9.821   4.037 -0.1125 -0.2490 -0.3697
  959MOL0     C29390   7.150   9.698   4.015 -0.1525  0.3037 -1.2515
  959MOL0     C29391   7.197   9.602   3.902 -0.5378  0.0834 -0.1777
  959MOL0     C29392   7.117   9.475   3.901  0.5430 -0.1167  0.5006
  959MOL0     C29393   7.158   9.397   3.788  0.3580 -0.5595  0.2490
  959MOL0     C29394   7.196   9.338   3.688  0.2499 -0.1883 -0.8053
  959MOL0     C29395   7.485   9.968   3.945 -0.3284  0.5803  0.0203
  959MOL0     C29396   7.585  10.052   3.899  0.0653 -0.0736  0.0723
  959MOL0     C29397   7.715  10.026   3.963 -0.2507 -0.1011 -0.7153
  959MOL0     H29398   7.734  10.494   3.942 -2.1109 -2.5223 -1.6969
  959MOL0     H29399   7.866  10.691   3.908 -0.8047  0.1731  0.1234
  959MOL0     H29400   8.004  10.858   3.819  0.8658  1.5534 -1.4914
  959MOL0     H29401   8.103  10.770   3.940  1.0354  1.9948 -0.2725
  959MOL0     H29402   8.207  10.992   3.879 -0.0254  1.3744 -2.4875
  959MOL0     H29403   8.199  10.950   3.711  1.7646  0.3381  0.0982
  959MOL0     H29404   8.366  10.813   3.694  1.9814  1.4385 -1.1861
  959MOL0     H29405   8.381  10.770   3.866  0.4684 -1.6410 -2.2903
  959MOL0     H29406   8.560  10.914   3.771 -0.9118 -0.8027  0.8150
  959MOL0     H29407   8.450  11.039   3.740  0.9342 -0.2150 -0.1828
  959MOL0     H29408   8.385  11.013   4.001  0.9442 -0.9142  3.2530
  959MOL0     H29409   8.536  10.915   3.995  0.4938 -0.6953 -3.1004
  959MOL0     H29410   8.547  11.205   3.927 -1.4881 -0.4924  0.2449
  959MOL0     H29411   8.582  11.137   4.084  2.4364  1.7069  0.0034
  959MOL0     H29412   8.725  11.059   3.825  0.5651 -1.6741  0.5176
  959MOL0     H29413   8.742  10.976   3.974 -0.9663  0.6854  2.1448
  959MOL0     H29414   8.811  11.258   3.916 -2.1272 -1.6110 -0.8960
  959MOL0     H29415   8.801  11.198   4.092 -0.3717  1.0447  0.1400
  959MOL0     H29416   9.050  11.146   3.805  0.8519 -0.3377  0.8294
  959MOL0     H29417   9.299  11.192   3.819  3.3087  3.5110  2.3804
  959MOL0     H29418   9.377  11.158   3.970  0.9489  1.0582 -2.6493
  959MOL0     H29419   9.267  10.927   3.816  0.5523 -1.6144  1.0097
  959MOL0     H29420   9.422  10.981   3.787 -2.4192 -0.6182 -2.0643
  959MOL0     H29421   9.306  10.845   4.025 -2.5651  0.5836 -3.8398
  959MOL0     H29422   9.419  10.959   4.077  1.6163 -0.8267  0.8008
  959MOL0     H29423   9.606  10.855   3.951  0.6971 -0.1430  1.1109
  959MOL0     H29424   9.475  10.750   3.865 -1.5854  0.2846  1.3926
  959MOL0     H29425   9.546  10.469   4.220  2.1981 -0.3717  1.7607
  959MOL0     H29426   9.649  10.265   4.151 -1.7276  1.9374  2.6302
  959MOL0     H29427  10.095  10.160   3.828 -0.9198  0.2447  0.8374
  959MOL0     H29428  10.210   9.941   3.763  0.1505 -0.0429 -3.3786
  959MOL0     H29429  10.076   9.600   3.796  3.1453 -1.5443 -1.3293
  959MOL0     H29430   9.943   9.616   3.673 -0.1184 -2.6093  0.4729
  959MOL0     H29431  10.226   9.508   3.631 -0.2398  2.6891 -1.2035
  959MOL0     H29432  10.092   9.410   3.663 -0.8442 -0.2332  0.2960
  959MOL0     H29433   9.997   9.538   3.429 -0.2973  0.4641  0.5034
  959MOL0     H29434  10.168   9.582   3.419 -1.6235  1.3890 -1.0047
  959MOL0     H29435  10.086   9.372   3.290  1.0044 -1.9354 -0.9480
  959MOL0     H29436  10.082   9.289   3.449  0.1342 -0.5936 -1.9057
  959MOL0     H29437  10.324   9.319   3.475  2.0634 -1.4182 -0.8220
  959MOL0     H29438  10.333   9.408   3.328 -0.6551  0.3960 -0.0422
  959MOL0     H29439  10.257   9.197   3.215  0.1983 -0.9120  0.8372
  959MOL0     H29440  10.409   9.193   3.290 -0.0382 -1.6220 -1.0081
  959MOL0     H29441  10.159   9.048   3.359  0.4372 -2.3691 -0.3664
  959MOL0     H29442  10.256   9.090   3.499  1.0608 -3.2794  0.8434
  959MOL0     H29443  10.314   8.865   3.418  0.5564  0.7327  1.8914
  959MOL0     H29444  10.354   8.929   3.257 -1.5441 -0.5956 -0.1308
  959MOL0     H29445   9.840   9.788   3.619  1.4864 -0.2513 -0.0525
  959MOL0     H29446   9.721  10.001   3.688  0.1056 -0.3988  0.5175
  959MOL0     H29447   9.749  10.430   3.763 -0.0606  0.1999  0.2768
  959MOL0     H29448   9.651  10.630   3.818 -3.1883 -0.5557 -2.0636
  959MOL0     H29449   8.105  10.480   3.617 -2.5350 -0.9587 -3.1787
  959MOL0     H29450   7.943  10.276   3.644  0.9404 -0.4921 -1.1581
  959MOL0     H29451   7.423  10.227   3.668  0.4581 -0.3561 -0.8551
  959MOL0     H29452   7.244  10.108   3.746  1.2044  2.6608 -0.5494
  959MOL0     H29453   7.209   9.893   4.113 -1.1171  1.2266 -2.1147
  959MOL0     H29454   7.336   9.778   4.074 -1.0418 -0.3670  2.0459
  959MOL0     H29455   7.047   9.727   3.996 -0.9704 -0.4761  1.5060
  959MOL0     H29456   7.157   9.643   4.109 -2.7593 -1.1491 -1.8173
  959MOL0     H29457   7.304   9.579   3.913 -0.6198  0.8741  5.9749
  959MOL0     H29458   7.196   9.656   3.807  2.1450  0.9852  0.2102
  959MOL0     H29459   7.138   9.435   4.001 -1.1030  1.8909  1.7326
  959MOL0     H29460   7.009   9.494   3.896  0.3395 -0.2830  2.8816
  959MOL0     H29461   7.224   9.290   3.596 -0.1169  0.6896 -1.3964
  959MOL0     H29462   7.504   9.890   4.019  0.2447  1.2962  0.6543
  959MOL0     H29463   7.731   9.919   3.983 -0.3233  0.3980  2.6244
  959MOL0     H29464   7.800  10.042   3.897  0.4720 -1.3933 -0.1417
  959MOL0     H29465   7.723  10.075   4.060  0.3686 -0.0461 -0.7885
  960MOL0     O29466   3.022   4.174   5.007 -0.3246  0.2855  0.8191
  960MOL0     C29467   3.021   4.071   4.939 -0.7279 -0.6136  0.5993
  960MOL0     O29468   3.128   3.980   4.924  0.7641  0.6415  0.0688
  960MOL0     C29469   3.226   3.960   5.017  0.8460 -0.6235  0.4578
  960MOL0     C29470   3.242   4.033   5.138 -0.5970  0.1375 -0.4440
  960MOL0     C29471   3.351   3.995   5.223  0.4342 -0.3052  0.3932
  960MOL0     C29472   3.447   3.897   5.177 -0.9639 -0.3340 -0.5189
  960MOL0     O29473   3.557   3.870   5.256 -0.4571  0.0848 -0.6501
  960MOL0     C29474   3.598   3.948   5.369 -0.9780  0.1809  0.2638
  960MOL0     C29475   3.712   3.881   5.452 -0.3360  0.8626  0.4515
  960MOL0     C29476   3.753   3.991   5.556 -0.1350 -0.0202  0.4547
  960MOL0     C29477   3.825   3.927   5.677 -0.6404  0.0356 -0.2926
  960MOL0     C29478   3.877   4.026   5.782  0.6569  0.1865 -0.3009
  960MOL0     C29479   3.976   4.126   5.720 -0.0137  0.7225 -0.1106
  960MOL0     C29480   4.046   4.205   5.819 -0.6265  0.3480  0.5770
  960MOL0     C29481   4.141   4.119   5.903  0.0509  0.2879 -0.0486
  960MOL0     N29482   4.242   4.198   5.969 -0.6040 -0.5050  0.1865
  960MOL0     C29483   4.218   4.284   6.077 -0.3002 -0.1962  0.0015
  960MOL0     C29484   4.335   4.332   6.128  0.7033 -0.2328  0.0036
  960MOL0     C29485   4.363   4.416   6.247  0.0474 -0.3695 -0.3549
  960MOL0     C29486   4.473   4.347   6.321 -0.1298  0.5952 -0.5244
  960MOL0     C29487   4.478   4.379   6.463 -0.8324  0.1072  0.0458
  960MOL0     C29488   4.500   4.531   6.486 -0.2810  1.1624  0.4792
  960MOL0     O29489   4.547   4.554   6.624 -0.1019  0.4573  0.4199
  960MOL0     C29490   4.683   4.562   6.650 -0.2725  0.1955 -0.2761
  960MOL0     C29491   4.710   4.599   6.780  0.3640 -0.2849  0.2196
  960MOL0     C29492   4.845   4.598   6.822 -0.5365  0.8983  0.2585
  960MOL0     C29493   4.948   4.587   6.723 -0.0094 -0.5436 -0.5627
  960MOL0     C29494   5.091   4.592   6.751  0.3902  1.5240 -0.0634
  960MOL0     O29495   5.181   4.603   6.644  0.0589 -0.5376 -0.1782
  960MOL0     C29496   5.316   4.582   6.647  0.1530  0.1359  0.2086
  960MOL0     C29497   5.396   4.620   6.531 -0.0006  0.8956 -0.4953
  960MOL0     C29498   5.532   4.595   6.515  0.6077 -0.3230 -0.5347
  960MOL0     C29499   5.595   4.523   6.621 -0.5888  0.3985 -0.0826
  960MOL0     O29500   5.726   4.477   6.618  0.1907  0.3373 -0.3297
  960MOL0     C29501   5.813   4.537   6.525  0.5768 -0.5371  0.4278
  960MOL0     C29502   5.944   4.460   6.533 -0.1881 -0.8323  0.2574
  960MOL0     C29503   6.043   4.523   6.438 -0.7267  0.3466  0.5140
  960MOL0     C29504   6.183   4.467   6.453 -0.2973  0.4386  0.4299
  960MOL0     C29505   6.281   4.512   6.353  1.0562 -0.1041 -0.5437
  960MOL0     C29506   6.424   4.466   6.385 -0.0099 -0.0840  0.3382
  960MOL0     C29507   6.515   4.526   6.278 -0.8573  0.1169  0.0172
  960MOL0     C29508   6.659   4.501   6.326  0.1295  0.1307  0.1146
  960MOL0    Cl29509   6.786   4.572   6.210 -0.1337 -0.6193 -0.0966
  960MOL0     C29510   5.528   4.490   6.738 -0.8334 -0.0197 -0.0452
  960MOL0     C29511   5.390   4.509   6.744  0.0622  0.1460 -0.1608
  960MOL0     O29512   5.121   4.580   6.868 -0.2764 -0.6725 -0.1644
  960MOL0     C29513   4.909   4.569   6.591 -0.2255 -0.1925  0.1978
  960MOL0     C29514   4.782   4.541   6.551 -0.2463  0.0263 -0.8218
  960MOL0     N29515   4.433   4.287   6.042 -0.3008  0.5877 -0.0676
  960MOL0     N29516   4.380   4.207   5.954  0.1590 -0.3491  0.2957
  960MOL0     C29517   3.431   3.826   5.060 -0.6999 -0.5792  0.8081
  960MOL0     C29518   3.327   3.869   4.978 -0.4381  0.6728 -1.1595
  960MOL0     C29519   2.896   4.028   4.863  0.4413 -0.0493  1.0638
  960MOL0     C29520   2.775   4.110   4.871 -0.2861  0.0806 -0.7186
  960MOL0     C29521   2.659   4.080   4.803 -0.4133 -0.0227  0.0874
  960MOL0     C29522   2.652   3.957   4.730 -0.3298 -0.5079 -0.1901
  960MOL0     O29523   2.547   3.911   4.661 -0.3228 -0.0005 -0.2259
  960MOL0     C29524   2.422   3.965   4.700 -0.1112 -0.0324  0.0030
  960MOL0     C29525   2.314   3.873   4.634 -0.0844  0.0814 -0.1337
  960MOL0     C29526   2.337   3.845   4.481  0.0888 -0.0447  0.3525
  960MOL0     C29527   2.206   3.805   4.411  1.7307  0.2306  0.1103
  960MOL0     C29528   2.175   3.670   4.471 -0.5806 -0.0573 -0.9171
  960MOL0     C29529   2.154   3.569   4.535 -0.2864 -0.0580  0.8622
  960MOL0     C29530   2.772   3.884   4.703 -0.3414 -0.0019  0.2085
  960MOL0     C29531   2.891   3.912   4.772 -0.7149  0.1451 -0.9448
  960MOL0     C29532   3.007   3.819   4.721  0.3344 -0.5736 -0.0300
  960MOL0     H29533   3.186   4.111   5.188  2.2104  1.2853  1.1960
  960MOL0     H29534   3.351   4.056   5.313 -2.8801 -0.3330  0.5373
  960MOL0     H29535   3.620   4.045   5.324  0.6596  0.8591  2.3490
  960MOL0     H29536   3.512   3.963   5.435 -0.7534 -0.1400  0.6341
  960MOL0     H29537   3.805   3.849   5.403  0.6936  1.2007  2.0794
  960MOL0     H29538   3.672   3.792   5.503  3.3674 -1.7934 -0.8136
  960MOL0     H29539   3.668   4.048   5.595 -1.2508 -0.1081 -1.7240
  960MOL0     H29540   3.822   4.057   5.503 -0.8945 -1.3719 -2.3925
  960MOL0     H29541   3.758   3.862   5.735 -1.0658  0.5961 -0.1388
  960MOL0     H29542   3.910   3.866   5.648 -0.5565 -0.6985  1.3726
  960MOL0     H29543   3.787   4.079   5.814  1.0696  0.6475  0.1182
  960MOL0     H29544   3.922   3.974   5.867 -1.9387 -0.8838  0.5066
  960MOL0     H29545   4.052   4.081   5.656  0.7501  1.7061  0.0914
  960MOL0     H29546   3.922   4.204   5.666  0.4882  2.8297  2.2460
  960MOL0     H29547   3.984   4.244   5.901  1.9835  1.9836  1.8850
  960MOL0     H29548   4.091   4.284   5.760 -0.4708 -1.1968 -1.4844
  960MOL0     H29549   4.079   4.058   5.969  0.2707 -0.3792 -0.4544
  960MOL0     H29550   4.204   4.048   5.849 -0.5161  0.1894 -0.5993
  960MOL0     H29551   4.117   4.282   6.117 -0.0134 -2.8399  0.8005
  960MOL0     H29552   4.395   4.517   6.219  0.8971 -0.4266  0.3573
  960MOL0     H29553   4.270   4.419   6.306 -0.0070 -0.1283 -0.4522
  960MOL0     H29554   4.459   4.239   6.318  0.6864  0.4824 -0.5450
  960MOL0     H29555   4.574   4.364   6.281  1.5465 -0.3084  2.9124
  960MOL0     H29556   4.574   4.335   6.490  1.5425  3.0637 -2.7507
  960MOL0     H29557   4.402   4.332   6.526 -0.8414 -1.6124 -1.1733
  960MOL0     H29558   4.403   4.581   6.476 -0.2592  1.0695 -0.2007
  960MOL0     H29559   4.562   4.578   6.410 -1.7240 -2.6866 -3.5032
  960MOL0     H29560   4.633   4.609   6.856  0.3784 -0.5427  0.2678
  960MOL0     H29561   4.870   4.606   6.927  1.8990  2.6117 -0.3613
  960MOL0     H29562   5.324   4.656   6.458 -0.2362  2.1341  0.3286
  960MOL0     H29563   5.577   4.628   6.423  0.5462  5.4643  1.1239
  960MOL0     H29564   5.777   4.529   6.423 -1.0553  1.0606  0.8331
  960MOL0     H29565   5.823   4.645   6.544 -1.1566  0.0225 -1.4763
  960MOL0     H29566   5.989   4.462   6.633  0.2278 -1.1665  0.0810
  960MOL0     H29567   5.927   4.355   6.509  2.1903 -1.2138  0.0542
  960MOL0     H29568   6.011   4.504   6.335 -2.3851  0.9814  0.8929
  960MOL0     H29569   6.046   4.629   6.461 -0.7146  1.2602 -3.0565
  960MOL0     H29570   6.171   4.359   6.437  0.2872  0.3540  0.5361
  960MOL0     H29571   6.222   4.483   6.554  0.6899  0.1476  0.1081
  960MOL0     H29572   6.268   4.620   6.348 -1.9114 -0.3832 -0.4595
  960MOL0     H29573   6.240   4.471   6.260 -2.2740 -1.1978  1.2668
  960MOL0     H29574   6.455   4.492   6.487  0.0115  1.9490 -0.1427
  960MOL0     H29575   6.420   4.357   6.380 -0.5181 -0.0402 -0.3068
  960MOL0     H29576   6.505   4.635   6.272  2.1740  0.4069 -1.9874
  960MOL0     H29577   6.504   4.484   6.177  2.4740 -1.2805  0.0988
  960MOL0     H29578   6.674   4.532   6.429  0.2380 -2.2023  0.8526
  960MOL0     H29579   6.678   4.393   6.331  2.0388  0.4385  0.3241
  960MOL0     H29580   5.578   4.441   6.821 -0.1841 -0.9793 -0.9709
  960MOL0     H29581   5.346   4.472   6.836  0.3253  0.2822  0.0206
  960MOL0     H29582   4.987   4.561   6.516 -2.1989  0.6092 -2.0470
  960MOL0     H29583   4.762   4.507   6.450  1.6669  2.1098 -1.9882
  960MOL0     H29584   3.503   3.763   5.009 -1.4237 -0.3059 -0.6026
  960MOL0     H29585   3.301   3.822   4.884 -4.7407  2.0619 -0.8926
  960MOL0     H29586   2.770   4.193   4.941  2.0740 -1.0648  0.9441
  960MOL0     H29587   2.569   4.133   4.830  0.1008  0.3977  1.0364
  960MOL0     H29588   2.411   4.067   4.663 -1.4387  0.3723  1.4144
  960MOL0     H29589   2.414   3.965   4.809  1.4724  2.0486  0.1888
  960MOL0     H29590   2.217   3.922   4.651  0.8944  1.9987  0.1564
  960MOL0     H29591   2.313   3.781   4.694  3.0606 -0.4052 -0.6469
  960MOL0     H29592   2.411   3.765   4.485  0.6222  0.4635  0.8696
  960MOL0     H29593   2.380   3.930   4.428  1.8277  0.1515  1.9802
  960MOL0     H29594   2.124   3.877   4.421  1.9101  0.6752 -1.3528
  960MOL0     H29595   2.220   3.787   4.304 -0.1597  0.1516 -0.1555
  960MOL0     H29596   2.118   3.489   4.596  0.4346  0.0328  1.4186
  960MOL0     H29597   2.764   3.823   4.614 -0.5570  1.7792 -1.0614
  960MOL0     H29598   2.971   3.758   4.638  1.1284 -0.7302 -0.2658
  960MOL0     H29599   3.090   3.879   4.684  1.2707 -0.8565  1.5100
  960MOL0     H29600   3.033   3.752   4.804 -1.0729  0.6520  1.4752
  961MOL0     O29601   9.027   8.331   4.635 -0.4293 -0.4122 -0.7096
  961MOL0     C29602   8.969   8.442   4.643 -0.4722 -0.1453 -0.1426
  961MOL0     O29603   9.007   8.562   4.585 -0.5591  0.3935 -0.4675
  961MOL0     C29604   9.132   8.581   4.533 -0.0815  0.5220 -0.1173
  961MOL0     C29605   9.246   8.516   4.589 -0.9458 -0.4431  1.1084
  961MOL0     C29606   9.375   8.555   4.540  0.4159 -0.1490 -0.9189
  961MOL0     C29607   9.387   8.671   4.461 -0.2489 -0.1369  0.5202
  961MOL0     O29608   9.512   8.721   4.424 -0.5071  0.7728  0.3169
  961MOL0     C29609   9.532   8.862   4.455  1.1748  0.0824 -0.1804
  961MOL0     C29610   9.658   8.920   4.404  0.0095  0.0027  1.0553
  961MOL0     C29611   9.660   8.914   4.244  1.0465  0.0569  0.0046
  961MOL0     C29612   9.800   8.900   4.184 -0.3687  0.1057 -0.1031
  961MOL0     C29613   9.841   8.752   4.183  0.3830  0.0782  0.2984
  961MOL0     C29614   9.937   8.703   4.068 -0.3254 -0.7656  0.0555
  961MOL0     C29615  10.073   8.765   4.067  0.4615  0.5970 -0.9579
  961MOL0     C29616  10.147   8.711   3.947  0.2514  0.0148 -0.1610
  961MOL0     N29617  10.279   8.781   3.932 -0.1475 -0.5944  0.0988
  961MOL0     C29618  10.307   8.926   3.920  0.1998 -0.3885 -0.3783
  961MOL0     C29619  10.442   8.924   3.894 -0.1396 -0.6952 -0.1751
  961MOL0     C29620  10.516   9.058   3.879 -0.5631 -0.1178  0.0066
  961MOL0     C29621  10.553   9.079   3.735 -0.0572 -0.0382 -0.6319
  961MOL0     C29622  10.606   9.221   3.710  0.2312 -0.4770  0.3052
  961MOL0     C29623  10.734   9.260   3.786  0.4284 -0.0837  0.7386
  961MOL0     O29624  10.693   9.300   3.917 -0.2066 -0.4552 -0.6652
  961MOL0     C29625  10.790   9.298   4.015  0.2688 -0.1841  0.3965
  961MOL0     C29626  10.926   9.331   4.003  0.0350  0.5796  0.5311
  961MOL0     C29627  11.014   9.317   4.113  0.1085  0.1449  0.7788
  961MOL0     C29628  10.967   9.274   4.238  0.4463  0.0431  0.6287
  961MOL0     C29629  11.058   9.257   4.349  0.1925 -0.2264 -0.1645
  961MOL0     O29630  11.016   9.149   4.429  0.0710 -0.0339 -0.3158
  961MOL0     C29631  11.076   9.112   4.553  0.2074  1.2536 -0.3699
  961MOL0     C29632  11.032   9.151   4.675 -0.6120 -0.4579 -0.0502
  961MOL0     C29633  11.100   9.127   4.796  0.3444 -0.4029  0.3069
  961MOL0     C29634  11.221   9.063   4.794  0.2030  0.1341  0.0872
  961MOL0     O29635  11.284   9.045   4.912  0.4971  0.4628  0.2530
  961MOL0     C29636  11.330   8.910   4.943 -1.0570 -0.6155  0.3723
  961MOL0     C29637  11.362   8.888   5.092 -1.2005  0.2365 -0.4481
  961MOL0     C29638  11.230   8.841   5.160 -0.1872 -0.6679  0.4830
  961MOL0     C29639  11.132   8.962   5.184  0.1609  0.5236  1.2938
  961MOL0     C29640  11.187   9.068   5.278 -0.7756 -0.3585  0.4821
  961MOL0     C29641  11.104   9.193   5.286  0.5080  0.6662 -0.0168
  961MOL0     C29642  10.955   9.172   5.327  1.0642 -0.0289  0.6011
  961MOL0     C29643  10.921   9.089   5.453  0.2159 -0.0735 -0.0969
  961MOL0    Cl29644  10.747   9.085   5.478 -0.0177 -0.6457  0.3610
  961MOL0     C29645  11.264   9.009   4.668  0.1497  0.2186 -0.2170
  961MOL0     C29646  11.195   9.035   4.547  0.2735  0.7266  0.1306
  961MOL0     O29647  11.163   9.321   4.354  0.2742  0.6373 -0.2980
  961MOL0     C29648  10.833   9.240   4.247 -0.1140  0.2195  0.8928
  961MOL0     C29649  10.742   9.250   4.144  0.4948 -0.7932  0.4040
  961MOL0     N29650  10.493   8.791   3.889 -0.3224  0.2506 -0.2770
  961MOL0     N29651  10.392   8.704   3.900 -0.3014 -0.0012  0.0164
  961MOL0     C29652   9.277   8.721   4.393 -0.1175 -0.0476 -0.8151
  961MOL0     C29653   9.148   8.679   4.438  0.4850  0.6038 -0.0600
  961MOL0     C29654   8.847   8.437   4.716  0.1179 -1.1452 -0.6368
  961MOL0     C29655   8.777   8.559   4.722 -0.2010  0.8471 -0.9185
  961MOL0     C29656   8.651   8.560   4.776  0.0102 -0.0986 -0.8240
  961MOL0     C29657   8.601   8.456   4.857 -0.0019 -0.9682  0.1328
  961MOL0     O29658   8.483   8.459   4.922  0.5830  0.0981  0.0704
  961MOL0     C29659   8.428   8.583   4.971 -0.7179  0.0294 -0.8766
  961MOL0     C29660   8.496   8.637   5.090  0.0455 -0.3146  0.3039
  961MOL0     C29661   8.429   8.753   5.162 -1.4793  0.2806 -0.1213
  961MOL0     C29662   8.514   8.804   5.279 -0.2564  0.1832 -1.0049
  961MOL0     C29663   8.456   8.929   5.330 -0.0036 -0.1187  0.5292
  961MOL0     C29664   8.421   9.038   5.367  0.1960  0.2866 -0.4736
  961MOL0     C29665   8.681   8.342   4.863  0.1799 -0.3272  0.3741
  961MOL0     C29666   8.800   8.325   4.788  0.1760 -0.4140 -0.3828
  961MOL0     C29667   8.872   8.183   4.791 -0.0543 -0.3417 -0.3237
  961MOL0     H29668   9.242   8.435   4.660  2.0172 -3.1446 -1.4698
  961MOL0     H29669   9.465   8.504   4.573  0.7272  0.3901 -0.9343
  961MOL0     H29670   9.444   8.918   4.422  2.2717  3.4096  1.9826
  961MOL0     H29671   9.541   8.882   4.562  1.0974 -0.8373  0.0070
  961MOL0     H29672   9.744   8.866   4.443 -0.3119 -2.0998 -0.9107
  961MOL0     H29673   9.660   9.024   4.439  1.2910  0.5207 -0.4380
  961MOL0     H29674   9.617   9.010   4.214  0.1281 -0.9565 -2.1206
  961MOL0     H29675   9.592   8.839   4.204  1.8722 -0.0960 -1.1301
  961MOL0     H29676   9.789   8.917   4.077 -0.8195 -0.4698 -0.1518
  961MOL0     H29677   9.877   8.962   4.232 -2.7926  2.7684  0.6399
  961MOL0     H29678   9.876   8.728   4.283  2.1613 -0.5546 -0.4439
  961MOL0     H29679   9.752   8.692   4.160  1.0350 -1.0486  0.6706
  961MOL0     H29680   9.948   8.595   4.075 -2.3290 -1.3077 -3.1940
  961MOL0     H29681   9.890   8.729   3.973  1.6565  0.4284 -0.6815
  961MOL0     H29682  10.128   8.726   4.153 -1.7817  0.1110  0.3476
  961MOL0     H29683  10.070   8.874   4.068  1.0822  0.6200 -1.4667
  961MOL0     H29684  10.156   8.602   3.947  2.8375  0.1619  0.6398
  961MOL0     H29685  10.092   8.747   3.860 -0.1451  0.2514  0.1869
  961MOL0     H29686  10.238   9.011   3.920 -1.6235 -1.7977 -0.3343
  961MOL0     H29687  10.465   9.142   3.926 -0.1757  1.1359 -1.7413
  961MOL0     H29688  10.614   9.047   3.926 -1.8620  0.8517  3.2092
  961MOL0     H29689  10.627   9.010   3.695  2.1432  2.3384 -0.9050
  961MOL0     H29690  10.463   9.077   3.672 -1.0481 -2.3906  0.7643
  961MOL0     H29691  10.525   9.289   3.737  1.8382  1.3878  0.6783
  961MOL0     H29692  10.628   9.231   3.603 -0.1509 -2.3973  0.0070
  961MOL0     H29693  10.785   9.344   3.739  0.3630 -1.3380 -1.7702
  961MOL0     H29694  10.800   9.173   3.786 -1.0517 -1.2510  1.0783
  961MOL0     H29695  10.961   9.355   3.903 -1.0531 -0.1975 -0.0614
  961MOL0     H29696  11.120   9.339   4.105  0.0736  0.6659  1.5466
  961MOL0     H29697  10.948   9.218   4.690  0.8320  1.3124  0.5228
  961MOL0     H29698  11.057   9.162   4.889  0.1445 -1.8886  0.7960
  961MOL0     H29699  11.253   8.841   4.908 -0.8405 -1.3503  1.3146
  961MOL0     H29700  11.418   8.886   4.882 -1.8301  0.1530 -1.1016
  961MOL0     H29701  11.438   8.810   5.092  1.3642  2.6096 -0.2583
  961MOL0     H29702  11.413   8.973   5.136  0.8156 -0.2959 -1.6374
  961MOL0     H29703  11.175   8.775   5.092 -0.4669  0.4998 -0.4811
  961MOL0     H29704  11.243   8.799   5.259 -3.1437 -2.2646  0.3171
  961MOL0     H29705  11.037   8.924   5.220 -0.2795 -0.1255 -0.4493
  961MOL0     H29706  11.108   9.012   5.090 -1.5583  0.1472  1.5035
  961MOL0     H29707  11.286   9.094   5.241 -1.0045 -0.2100 -0.0427
  961MOL0     H29708  11.193   9.021   5.377 -2.5426  0.6624  1.1393
  961MOL0     H29709  11.147   9.265   5.356 -0.8544  2.4009 -0.9007
  961MOL0     H29710  11.097   9.244   5.190  0.2373  0.0747 -0.3186
  961MOL0     H29711  10.904   9.132   5.239  3.3876 -1.5660 -0.1287
  961MOL0     H29712  10.914   9.273   5.330  2.0994  0.5084 -1.4771
  961MOL0     H29713  10.971   8.992   5.451  0.3124 -0.0111 -1.1657
  961MOL0     H29714  10.970   9.138   5.538 -1.4193 -0.3908  1.0889
  961MOL0     H29715  11.366   8.973   4.660  0.8555  2.1661 -0.4855
  961MOL0     H29716  11.244   9.003   4.456  0.5946 -0.4578  0.7085
  961MOL0     H29717  10.792   9.203   4.341 -2.9040 -0.7168 -0.5930
  961MOL0     H29718  10.642   9.218   4.171  1.0416 -3.0440  0.0275
  961MOL0     H29719   9.288   8.805   4.326  3.1114  1.2558  1.1444
  961MOL0     H29720   9.061   8.736   4.408 -1.1716 -0.1791  2.8688
  961MOL0     H29721   8.808   8.652   4.674 -1.8640  1.3319 -1.1247
  961MOL0     H29722   8.597   8.654   4.782  0.9586  0.3396  1.7159
  961MOL0     H29723   8.323   8.561   4.992 -1.3399  0.0301 -3.5604
  961MOL0     H29724   8.427   8.657   4.890  0.6323  0.2440 -0.7165
  961MOL0     H29725   8.591   8.678   5.056 -0.2919  1.7021  1.5936
  961MOL0     H29726   8.502   8.542   5.144  0.3761 -0.6201 -0.2595
  961MOL0     H29727   8.327   8.730   5.194 -1.3851  1.0341  0.7668
  961MOL0     H29728   8.424   8.834   5.089 -2.6987  0.4589  0.1326
  961MOL0     H29729   8.526   8.732   5.360 -2.8395  1.9651  1.1750
  961MOL0     H29730   8.615   8.820   5.239 -0.4996 -0.1413 -1.7585
  961MOL0     H29731   8.399   9.137   5.403  1.9813 -0.8559  4.7383
  961MOL0     H29732   8.654   8.261   4.930 -1.8165 -0.5206 -0.6185
  961MOL0     H29733   8.954   8.198   4.862 -0.3864  1.7910 -0.3260
  961MOL0     H29734   8.807   8.105   4.831  0.0594 -0.4735 -0.3956
  961MOL0     H29735   8.897   8.145   4.692 -2.9408 -0.4919 -1.0660
  962MOL0     O29736   3.342   0.198   4.681  0.6348  0.4181  0.5366
  962MOL0     C29737   3.304   0.210   4.563  0.4415 -0.4205  0.7004
  962MOL0     O29738   3.384   0.256   4.455 -0.2331 -0.4223  0.0061
  962MOL0     C29739   3.514   0.284   4.489 -0.1730 -0.2962 -0.7052
  962MOL0     C29740   3.539   0.402   4.562  0.0811  0.1530 -0.5590
  962MOL0     C29741   3.673   0.431   4.596 -0.5052 -0.3935  0.2769
  962MOL0     C29742   3.783   0.357   4.556  0.3541  0.5487 -0.0471
  962MOL0     O29743   3.911   0.396   4.573 -0.9147 -0.1320 -0.3715
  962MOL0     C29744   3.951   0.495   4.676 -0.4886  0.7247  0.8278
  962MOL0     C29745   4.097   0.495   4.706  0.3178  0.1959  0.1523
  962MOL0     C29746   4.159   0.361   4.749  0.0944  0.2750 -0.4450
  962MOL0     C29747   4.291   0.374   4.839 -0.5050 -0.1166  0.2824
  962MOL0     C29748   4.432   0.383   4.774  0.2721  0.6304  0.2494
  962MOL0     C29749   4.540   0.392   4.882 -0.3524  0.8701 -0.4301
  962MOL0     C29750   4.676   0.382   4.826  0.1208 -0.3326  1.0097
  962MOL0     C29751   4.784   0.377   4.931  0.6906 -0.3352  0.1171
  962MOL0     N29752   4.918   0.401   4.876  0.1575  0.2621 -0.4080
  962MOL0     C29753   4.993   0.305   4.812  0.3095 -0.3874 -0.6253
  962MOL0     C29754   5.097   0.379   4.765  1.1416  0.7041  1.0641
  962MOL0     C29755   5.196   0.320   4.668  0.1188 -0.5634  0.8158
  962MOL0     C29756   5.290   0.220   4.737  0.7194 -0.6506  0.4153
  962MOL0     C29757   5.335   0.262   4.876  0.2332 -1.1647 -0.5152
  962MOL0     C29758   5.482   0.244   4.894  0.4201 -0.1468 -0.0187
  962MOL0     O29759   5.515   0.297   5.022  0.6407  0.1880 -0.7295
  962MOL0     C29760   5.645   0.293   5.064 -0.4742  0.2176 -0.6979
  962MOL0     C29761   5.757   0.268   4.981  0.8476 -0.5206  0.7595
  962MOL0     C29762   5.881   0.271   5.037 -0.5125 -0.4202  0.0713
  962MOL0     C29763   5.900   0.283   5.173  0.2628 -0.7300  0.1610
  962MOL0     C29764   6.035   0.261   5.227 -0.5134  0.5061  0.0379
  962MOL0     O29765   6.115   0.166   5.175 -0.1563 -0.1190  0.6475
  962MOL0     C29766   6.249   0.145   5.200  0.3975  0.4035 -0.7704
  962MOL0     C29767   6.315   0.196   5.317  0.2853  0.3340  0.5749
  962MOL0     C29768   6.443   0.141   5.338 -0.3055 -0.3911  0.0969
  962MOL0     C29769   6.513   0.052   5.255  0.6025 -0.6413 -0.5419
  962MOL0     O29770   6.643   0.014   5.277 -0.4197  0.5064  0.4334
  962MOL0     C29771   6.733   0.081   5.368  0.0880  0.1158  0.3017
  962MOL0     C29772   6.865   0.017   5.345  0.4734  0.2951 -0.1720
  962MOL0     C29773   6.986   0.097   5.395 -0.4161  0.0431 -0.1395
  962MOL0     C29774   7.109   0.007   5.384 -0.4021  0.5887 -0.3406
  962MOL0     C29775   7.209   0.036   5.489 -0.0598  0.8035 -0.3359
  962MOL0     C29776   7.352  -0.009   5.459 -0.2727 -0.3699  0.5323
  962MOL0     C29777   7.437   0.059   5.557  0.2103  0.3053 -0.7216
  962MOL0     C29778   7.578   0.003   5.542  0.2581  0.7668  0.2293
  962MOL0    Cl29779   7.696   0.071   5.658 -0.1620 -0.5044  0.8209
  962MOL0     C29780   6.439  -0.000   5.153  0.5818 -0.0604 -0.1347
  962MOL0     C29781   6.305   0.044   5.118  0.9635  0.2531 -0.5224
  962MOL0     O29782   6.061   0.345   5.314  0.2848 -0.1213 -0.1055
  962MOL0     C29783   5.789   0.313   5.254 -0.6084 -0.0763  0.1365
  962MOL0     C29784   5.664   0.311   5.200 -0.1829  0.7276 -0.3479
  962MOL0     N29785   5.090   0.512   4.805 -0.3148  0.9198  0.2457
  962MOL0     N29786   4.982   0.518   4.872  0.3065 -0.0477 -0.0676
  962MOL0     C29787   3.757   0.240   4.489 -1.2354 -0.6627 -0.4843
  962MOL0     C29788   3.629   0.207   4.456 -0.0963  0.1294 -0.0739
  962MOL0     C29789   3.154   0.214   4.542 -0.6747  0.3302  0.0258
  962MOL0     C29790   3.069   0.227   4.652 -0.8485 -0.5061 -0.1632
  962MOL0     C29791   2.934   0.237   4.643  0.6241 -0.5443 -0.1089
  962MOL0     C29792   2.871   0.237   4.510  0.1379 -0.0039 -0.2373
  962MOL0     O29793   2.730   0.263   4.492 -0.2307  0.1245 -0.2827
  962MOL0     C29794   2.658   0.298   4.605 -0.5287  0.0336  0.5865
  962MOL0     C29795   2.599   0.180   4.686  0.3478 -0.1434 -0.2953
  962MOL0     C29796   2.455   0.233   4.742 -0.2663 -0.1241 -0.1129
  962MOL0     C29797   2.389   0.130   4.827  0.2146 -0.2127  0.2343
  962MOL0     C29798   2.250   0.164   4.863  1.4288 -0.0891 -0.4203
  962MOL0     C29799   2.138   0.192   4.902  0.5100 -0.6798 -0.1376
  962MOL0     C29800   2.954   0.209   4.399 -0.4108 -0.8027  0.8541
  962MOL0     C29801   3.092   0.205   4.414 -0.5282 -0.3943  0.0811
  962MOL0     C29802   3.180   0.193   4.282  0.8885  0.2914 -0.1767
  962MOL0     H29803   3.456   0.466   4.590  0.7070 -0.1275  2.3111
  962MOL0     H29804   3.674   0.524   4.651 -2.0815 -0.5047  0.5382
  962MOL0     H29805   3.918   0.592   4.636 -2.5674 -0.8493 -1.5590
  962MOL0     H29806   3.887   0.487   4.764 -2.4207  2.2066 -0.3524
  962MOL0     H29807   4.103   0.560   4.794 -0.3091  1.7652 -0.9240
  962MOL0     H29808   4.149   0.547   4.625 -0.0927  1.0050  0.3986
  962MOL0     H29809   4.185   0.307   4.657  0.1877 -0.8260  0.2195
  962MOL0     H29810   4.087   0.298   4.802 -2.1820  3.6126  0.7541
  962MOL0     H29811   4.286   0.459   4.908  1.9882 -1.0052  1.6756
  962MOL0     H29812   4.299   0.283   4.898 -1.1702 -0.2946  0.1042
  962MOL0     H29813   4.453   0.292   4.717 -2.5603  1.2714 -2.0815
  962MOL0     H29814   4.441   0.459   4.695 -0.7031 -0.0789 -0.5782
  962MOL0     H29815   4.529   0.489   4.930  0.2660  1.5424 -1.6136
  962MOL0     H29816   4.518   0.303   4.943 -1.8432  1.0683 -0.6255
  962MOL0     H29817   4.690   0.465   4.757  2.5459  1.1477  3.1382
  962MOL0     H29818   4.683   0.286   4.773  2.1497 -0.9697  2.3229
  962MOL0     H29819   4.768   0.454   5.007  1.7217  3.4342 -3.1567
  962MOL0     H29820   4.775   0.280   4.981 -0.9658  0.5422  1.6168
  962MOL0     H29821   4.970   0.201   4.792 -0.5423 -0.6100  1.2970
  962MOL0     H29822   5.144   0.276   4.582 -0.2022  0.7669  0.2996
  962MOL0     H29823   5.259   0.400   4.626  2.0468 -1.8774  1.0835
  962MOL0     H29824   5.229   0.131   4.753 -3.7627  2.2775  1.6901
  962MOL0     H29825   5.373   0.192   4.673  2.0358  1.7754  0.9300
  962MOL0     H29826   5.282   0.203   4.951  1.6992 -2.2753 -0.3084
  962MOL0     H29827   5.322   0.368   4.902  2.8904 -1.2540  1.7090
  962MOL0     H29828   5.537   0.303   4.819  0.3843 -2.1328 -1.6848
  962MOL0     H29829   5.513   0.139   4.890 -1.1210 -0.6304  0.3776
  962MOL0     H29830   5.754   0.249   4.875 -0.4323  1.2347  0.4420
  962MOL0     H29831   5.972   0.257   4.979  0.4249  2.2432  0.7730
  962MOL0     H29832   6.268   0.264   5.387 -1.5784 -0.8571  0.5396
  962MOL0     H29833   6.498   0.164   5.429  1.0440 -2.6657 -0.0715
  962MOL0     H29834   6.734   0.187   5.339 -1.0549  0.4525  1.4206
  962MOL0     H29835   6.705   0.072   5.473  1.3091  2.8487  0.9620
  962MOL0     H29836   6.861  -0.083   5.388 -0.7472 -0.2194 -1.4469
  962MOL0     H29837   6.883   0.011   5.238  0.1818  0.9751 -0.2653
  962MOL0     H29838   6.997   0.188   5.336  2.1819  0.3835  0.7445
  962MOL0     H29839   6.978   0.118   5.503 -1.1377  2.9431 -0.6747
  962MOL0     H29840   7.156   0.019   5.286  0.6655 -1.7267 -0.1649
  962MOL0     H29841   7.078  -0.097   5.391  1.2850  0.1514  1.3492
  962MOL0     H29842   7.179  -0.010   5.584 -0.4048 -0.1150 -0.8701
  962MOL0     H29843   7.209   0.145   5.487 -1.3379  0.9999  3.3056
  962MOL0     H29844   7.353  -0.119   5.460 -0.8995 -0.4353 -1.4308
  962MOL0     H29845   7.383   0.028   5.361  0.7208 -1.5993  0.3499
  962MOL0     H29846   7.398   0.043   5.658  1.6584  0.2612 -0.1498
  962MOL0     H29847   7.445   0.166   5.534 -1.1380  0.3923 -0.8949
  962MOL0     H29848   7.574  -0.102   5.571  3.6003  0.2751 -0.7097
  962MOL0     H29849   7.609   0.017   5.438  1.8965 -0.0002  0.5985
  962MOL0     H29850   6.497  -0.074   5.098 -0.7104 -2.1051  1.1020
  962MOL0     H29851   6.254  -0.004   5.035  3.7501 -1.3241 -1.4598
  962MOL0     H29852   5.812   0.336   5.358  0.2827 -0.2622 -0.0150
  962MOL0     H29853   5.580   0.346   5.259  0.6653  2.6411 -0.1779
  962MOL0     H29854   3.843   0.182   4.457 -0.9003  0.5980 -2.0201
  962MOL0     H29855   3.621   0.124   4.386 -0.3698 -0.5023  0.6867
  962MOL0     H29856   3.121   0.251   4.744  1.2716 -0.3800 -1.3335
  962MOL0     H29857   2.873   0.251   4.732 -1.0075  0.6331 -1.3548
  962MOL0     H29858   2.578   0.360   4.563  1.5483  2.1792 -0.4016
  962MOL0     H29859   2.718   0.358   4.674  2.5163  0.0932 -1.8622
  962MOL0     H29860   2.665   0.173   4.773  0.4533  1.9635 -0.1682
  962MOL0     H29861   2.586   0.089   4.626 -3.4533 -0.2982  0.5025
  962MOL0     H29862   2.392   0.261   4.656  2.1986 -1.2739 -2.4449
  962MOL0     H29863   2.479   0.325   4.796  0.0108 -0.2717  0.0146
  962MOL0     H29864   2.386   0.039   4.766  1.2350  1.0645 -1.8900
  962MOL0     H29865   2.451   0.105   4.913  0.9382 -0.4733 -0.3412
  962MOL0     H29866   2.044   0.209   4.948  0.2567  2.8906 -1.6139
  962MOL0     H29867   2.912   0.201   4.299 -0.1461  2.3419  0.3845
  962MOL0     H29868   3.260   0.119   4.293 -1.5478 -2.4185  0.7564
  962MOL0     H29869   3.123   0.148   4.200 -2.9915 -0.0242  2.4151
  962MOL0     H29870   3.221   0.291   4.259 -0.7203  0.7053 -1.4801
  963MOL0     O29871   9.341   2.302  10.382  0.2919  0.3351  0.4152
  963MOL0     C29872   9.256   2.216  10.348 -0.1920  0.0550 -0.5222
  963MOL0     O29873   9.295   2.106  10.274  0.1225 -0.0011 -0.5486
  963MOL0     C29874   9.420   2.090  10.236 -0.4398  0.4499 -0.0048
  963MOL0     C29875   9.458   2.122  10.107  0.2393 -0.8906 -0.4856
  963MOL0     C29876   9.584   2.102  10.054  0.5382  0.0852  1.0058
  963MOL0     C29877   9.682   2.043  10.135  0.0708  0.8487 -0.1279
  963MOL0     O29878   9.805   2.028  10.070 -0.3941  0.2194 -0.4462
  963MOL0     C29879   9.925   2.048  10.142  0.1464 -0.3828 -0.4675
  963MOL0     C29880   9.993   1.910  10.153  0.9829 -1.4269 -0.9954
  963MOL0     C29881  10.129   1.905  10.212 -0.5415  0.5253  0.8638
  963MOL0     C29882  10.244   1.964  10.133 -0.3495 -0.1317  0.5206
  963MOL0     C29883  10.381   1.898  10.177  0.5966 -0.3525  0.4419
  963MOL0     C29884  10.501   1.985  10.135 -0.0262  0.6300 -0.5259
  963MOL0     C29885  10.627   1.895  10.117  0.3817 -0.5724  0.2773
  963MOL0     C29886  10.762   1.971  10.098  0.1711 -0.0771 -0.3589
  963MOL0     N29887  10.873   1.883  10.077  0.3797 -0.3190 -0.2109
  963MOL0     C29888  10.943   1.802  10.160 -0.6830  0.4791 -1.0185
  963MOL0     C29889  11.032   1.728  10.085 -0.6710 -0.6241  0.1538
  963MOL0     C29890  11.124   1.632  10.137  0.9774  0.1533 -0.4415
  963MOL0     C29891  11.260   1.700  10.158 -1.4203 -0.5858  0.3393
  963MOL0     C29892  11.248   1.807  10.265  0.0680 -0.4082  0.9617
  963MOL0     C29893  11.384   1.846  10.321  0.2139 -0.2188  0.4313
  963MOL0     O29894  11.479   1.852  10.217  0.1027 -0.2628 -0.4866
  963MOL0     C29895  11.610   1.898  10.239  0.7642 -0.2694 -0.0919
  963MOL0     C29896  11.670   1.897  10.369 -0.6154 -0.1029  0.2113
  963MOL0     C29897  11.806   1.941  10.382 -0.0739 -0.1445  0.7917
  963MOL0     C29898  11.872   1.966  10.260 -0.5766  0.6638  0.5418
  963MOL0     C29899  12.014   1.993  10.264  0.3791 -0.4390 -0.1431
  963MOL0     O29900  12.089   1.981  10.380  0.1626  0.6136  0.1537
  963MOL0     C29901  12.226   1.981  10.380  0.3652 -0.4300  1.1750
  963MOL0     C29902  12.300   2.059  10.467 -0.1779 -0.1788 -0.0918
  963MOL0     C29903  12.446   2.053  10.474 -0.1039 -0.0298 -0.1518
  963MOL0     C29904  12.513   1.963  10.390 -0.0988 -0.3064  0.4550
  963MOL0     O29905  12.654   1.963  10.397 -0.1552 -0.8059  0.3252
  963MOL0     C29906  12.714   1.834  10.371  0.6572  0.4821  0.4330
  963MOL0     C29907  12.865   1.861  10.347  1.0768  0.1912  0.0572
  963MOL0     C29908  12.877   1.945  10.221  0.1527 -0.9013  0.3904
  963MOL0     C29909  13.020   1.965  10.174 -0.6890 -0.3169 -0.2057
  963MOL0     C29910  13.037   2.059  10.052  0.3911 -0.0611 -0.5067
  963MOL0     C29911  13.095   1.989   9.928  0.1727  0.6043 -0.1103
  963MOL0     C29912  13.119   2.094   9.812  0.3089  0.2153 -0.4798
  963MOL0     C29913  13.162   2.018   9.691  0.0945  0.6869 -0.3970
  963MOL0    Cl29914  13.333   1.971   9.731  0.3477 -0.0057  0.3680
  963MOL0     C29915  12.435   1.884  10.307 -0.0107 -0.0372 -0.3496
  963MOL0     C29916  12.295   1.897  10.299 -0.1061 -0.1996 -0.0080
  963MOL0     O29917  12.070   2.013  10.158  0.2132  0.4004  0.4577
  963MOL0     C29918  11.811   1.964  10.135  0.5765 -0.5349 -0.1215
  963MOL0     C29919  11.682   1.927  10.123  0.8298  0.2388 -0.1021
  963MOL0     N29920  11.007   1.767   9.959 -0.0436  0.5909 -0.0108
  963MOL0     N29921  10.919   1.864   9.956 -0.1655 -0.3974 -0.0033
  963MOL0     C29922   9.650   2.003  10.270 -0.4424  0.6785  0.3793
  963MOL0     C29923   9.521   2.029  10.321 -0.6523  0.6211 -0.1827
  963MOL0     C29924   9.118   2.232  10.396  0.7108  0.9186 -0.2721
  963MOL0     C29925   9.052   2.111  10.417 -0.5967  0.5310 -0.8771
  963MOL0     C29926   8.922   2.104  10.472  0.5406  0.0719 -0.2587
  963MOL0     C29927   8.858   2.220  10.506  0.3158 -0.4438  0.5113
  963MOL0     O29928   8.736   2.223  10.572  0.4789  0.6043 -0.0204
  963MOL0     C29929   8.674   2.109  10.626  0.3761 -0.5108  0.0601
  963MOL0     C29930   8.522   2.131  10.614  0.0790 -0.6129 -0.0751
  963MOL0     C29931   8.462   2.200  10.735  0.0803 -0.3911 -0.4471
  963MOL0     C29932   8.307   2.185  10.708 -0.4396 -0.7390  0.3966
  963MOL0     C29933   8.227   2.251  10.807 -0.4003  0.2723 -0.1908
  963MOL0     C29934   8.183   2.323  10.898  0.4791 -0.2779  0.7210
  963MOL0     C29935   8.925   2.345  10.479  0.4248  0.2098 -0.1136
  963MOL0     C29936   9.056   2.353  10.418  0.1873 -0.1314  0.4048
  963MOL0     C29937   9.119   2.480  10.374 -0.3249  0.2793 -0.0121
  963MOL0     H29938   9.392   2.173  10.038  0.8379 -0.3634 -0.6810
  963MOL0     H29939   9.587   2.138   9.952 -2.6779 -1.5322  0.2231
  963MOL0     H29940   9.989   2.114  10.082 -0.6798 -1.5374 -2.7422
  963MOL0     H29941   9.918   2.089  10.243  0.3457 -1.9697  0.2188
  963MOL0     H29942  10.004   1.876  10.049  0.6195 -0.1316 -1.4752
  963MOL0     H29943   9.921   1.851  10.209 -3.0313  3.7933  0.0771
  963MOL0     H29944  10.148   1.797  10.204  1.8088  0.7634  2.3664
  963MOL0     H29945  10.124   1.935  10.317 -0.0287 -0.0879  1.0727
  963MOL0     H29946  10.245   1.939  10.027  1.8148 -0.9942  0.6996
  963MOL0     H29947  10.248   2.073  10.143 -0.6722  0.0496 -1.1186
  963MOL0     H29948  10.378   1.892  10.286 -3.5774 -1.1572  0.4626
  963MOL0     H29949  10.385   1.799  10.129  0.0710 -0.9939  1.6714
  963MOL0     H29950  10.488   2.035  10.039  4.2756 -0.3535 -1.8184
  963MOL0     H29951  10.523   2.061  10.210 -2.0809  0.1150  0.7012
  963MOL0     H29952  10.613   1.829  10.031  0.3010 -1.4213  0.9331
  963MOL0     H29953  10.645   1.838  10.209  0.5157  0.7805  1.1123
  963MOL0     H29954  10.757   2.044  10.017  3.0735  1.3924  0.6506
  963MOL0     H29955  10.772   2.033  10.188 -5.0366  0.2201  0.3058
  963MOL0     H29956  10.922   1.792  10.267  3.5445 -1.2749 -0.1727
  963MOL0     H29957  11.086   1.589  10.230 -2.0001  0.7203 -1.2836
  963MOL0     H29958  11.128   1.552  10.063 -0.2250 -1.2284  0.9207
  963MOL0     H29959  11.322   1.614  10.184 -2.3922 -0.5030  3.4369
  963MOL0     H29960  11.299   1.738  10.064  1.1841 -0.7635  1.2587
  963MOL0     H29961  11.183   1.778  10.349 -0.8142  2.1416  1.2501
  963MOL0     H29962  11.212   1.900  10.220  5.5798  1.3669 -0.5313
  963MOL0     H29963  11.406   1.771  10.398 -3.6546 -1.4588  0.5811
  963MOL0     H29964  11.379   1.948  10.361  0.4749  0.0770 -0.2950
  963MOL0     H29965  11.619   1.876  10.462  2.1399  0.7936  2.0607
  963MOL0     H29966  11.853   1.932  10.479  4.1035  0.5328 -0.9612
  963MOL0     H29967  12.244   2.117  10.539  0.6749 -1.6739  1.8517
  963MOL0     H29968  12.495   2.110  10.552  1.6661 -1.8070  0.1189
  963MOL0     H29969  12.688   1.772  10.456 -2.1132  0.9938  0.0481
  963MOL0     H29970  12.677   1.791  10.277  3.4078  2.5591 -1.7932
  963MOL0     H29971  12.900   1.912  10.437 -0.9224 -1.6230  1.9633
  963MOL0     H29972  12.933   1.775  10.344  5.2231  3.0187  2.2122
  963MOL0     H29973  12.830   1.894  10.137 -0.5913 -2.5313  1.7378
  963MOL0     H29974  12.815   2.035  10.225 -1.8316 -2.2367  0.7899
  963MOL0     H29975  13.056   1.863  10.163  1.3651  0.2927  0.3690
  963MOL0     H29976  13.084   2.008  10.252  0.6842 -1.3362 -0.7445
  963MOL0     H29977  13.096   2.142  10.092 -0.5706 -0.1423  1.1651
  963MOL0     H29978  12.940   2.100  10.021  0.7135 -0.3225 -1.9308
  963MOL0     H29979  13.179   1.926   9.956 -0.3855  0.3294  0.9884
  963MOL0     H29980  13.009   1.934   9.888 -0.6644  1.8670 -0.1331
  963MOL0     H29981  13.194   2.165   9.847  0.8891  0.2743 -1.7892
  963MOL0     H29982  13.023   2.142   9.793 -0.1549 -0.8050 -0.8084
  963MOL0     H29983  13.097   1.934   9.665 -0.6508  0.4273  2.0444
  963MOL0     H29984  13.169   2.078   9.600 -0.5980  0.0827 -0.8628
  963MOL0     H29985  12.484   1.818  10.236  3.0012  1.4806  0.1670
  963MOL0     H29986  12.236   1.825  10.244 -1.9379 -0.0378  1.6365
  963MOL0     H29987  11.852   1.979  10.036 -2.6114  1.2068 -1.3302
  963MOL0     H29988  11.633   1.920  10.027 -2.3613  0.1276  1.4197
  963MOL0     H29989   9.736   1.958  10.318  0.2256 -0.6972 -1.9121
  963MOL0     H29990   9.498   2.017  10.427 -0.0192 -0.2694 -0.1336
  963MOL0     H29991   9.104   2.015  10.417  0.1258  0.8781  1.2191
  963MOL0     H29992   8.880   2.008  10.498  0.2552 -0.1455 -1.4763
  963MOL0     H29993   8.702   2.089  10.730 -0.3687 -1.1968  0.1358
  963MOL0     H29994   8.703   2.023  10.565 -0.3889  0.7127 -2.1198
  963MOL0     H29995   8.477   2.032  10.606 -0.8849 -0.1470 -0.7154
  963MOL0     H29996   8.511   2.189  10.521  2.8434 -0.7501 -0.5622
  963MOL0     H29997   8.498   2.304  10.736  0.1017 -0.3993 -0.3706
  963MOL0     H29998   8.486   2.150  10.829 -0.8774 -1.7390 -0.8904
  963MOL0     H29999   8.291   2.237  10.613  0.1046  0.5151  0.9563
  963MOL0     H30000   8.278   2.080  10.700  4.0188 -2.0772 -1.3298
  963MOL0     H30001   8.136   2.378  10.978 -0.1459  1.6358 -0.8690
  963MOL0     H30002   8.872   2.435  10.509  1.6830  0.3885  1.8049
  963MOL0     H30003   9.201   2.514  10.439 -1.4320  0.9127  1.1072
  963MOL0     H30004   9.155   2.452  10.275 -2.3466 -1.2310 -0.3817
  963MOL0     H30005   9.046   2.560  10.363 -0.7718 -0.1854 -0.4387
  964MOL0     O30006   8.737   5.293   9.123 -0.2621 -0.6234 -0.2213
  964MOL0     C30007   8.722   5.223   9.025 -0.1225  0.7893  0.1718
  964MOL0     O30008   8.806   5.213   8.919  0.0204 -0.0199  0.0130
  964MOL0     C30009   8.916   5.289   8.917  0.1579  0.2077  0.1348
  964MOL0     C30010   8.916   5.427   8.947 -0.2986 -0.1331 -0.3403
  964MOL0     C30011   9.019   5.507   8.910 -0.5397  0.0480  0.3708
  964MOL0     C30012   9.142   5.458   8.865  0.6469  0.2344  0.1610
  964MOL0     O30013   9.249   5.538   8.832  0.8949  0.6443 -0.1268
  964MOL0     C30014   9.288   5.526   8.694 -0.0914  0.3322 -0.0841
  964MOL0     C30015   9.423   5.590   8.671 -0.2909  0.7592 -0.5708
  964MOL0     C30016   9.471   5.556   8.532 -0.0189 -0.6446  0.9588
  964MOL0     C30017   9.602   5.637   8.508  0.4670 -0.3768  0.2725
  964MOL0     C30018   9.657   5.613   8.373  0.3842 -0.3268 -1.0662
  964MOL0     C30019   9.796   5.650   8.356 -0.0430  0.8931 -0.0190
  964MOL0     C30020   9.837   5.798   8.369 -0.0977 -0.4329  0.9974
  964MOL0     C30021   9.788   5.878   8.247 -0.0759  0.2624 -0.2352
  964MOL0     N30022   9.833   5.842   8.111 -0.3429  0.0622  0.1207
  964MOL0     C30023   9.963   5.837   8.056 -0.0433  0.2691  0.1693
  964MOL0     C30024   9.947   5.767   7.943 -0.2048  0.4542  0.9719
  964MOL0     C30025  10.055   5.747   7.840  0.6751  0.0270 -0.2266
  964MOL0     C30026  10.133   5.621   7.827  0.0151  0.5033 -0.4415
  964MOL0     C30027  10.221   5.590   7.948  0.0164 -0.8626 -0.3714
  964MOL0     C30028  10.280   5.447   7.934  0.4676  0.1822  0.6816
  964MOL0     O30029  10.324   5.399   8.067 -0.2016 -0.4441 -0.0924
  964MOL0     C30030  10.447   5.422   8.113 -0.3577 -0.1225 -0.7595
  964MOL0     C30031  10.539   5.509   8.051 -0.9514 -0.1279 -0.3724
  964MOL0     C30032  10.677   5.507   8.091 -0.7447  0.9400 -0.8236
  964MOL0     C30033  10.718   5.416   8.189 -0.2206 -0.7047 -0.1259
  964MOL0     C30034  10.860   5.417   8.227  0.2827  0.1459  0.0932
  964MOL0     O30035  10.897   5.296   8.285 -1.0294 -0.1005  0.1331
  964MOL0     C30036  11.030   5.272   8.314  0.0532  0.2906 -0.8094
  964MOL0     C30037  11.120   5.261   8.207  1.0084 -0.3705 -0.6088
  964MOL0     C30038  11.245   5.214   8.234 -0.9955  0.0876  0.2323
  964MOL0     C30039  11.284   5.182   8.367  0.4230  1.2956  0.3626
  964MOL0     O30040  11.410   5.133   8.408 -0.5691  0.2373  0.5000
  964MOL0     C30041  11.477   5.062   8.309  0.3830  0.4545 -0.7575
  964MOL0     C30042  11.584   4.970   8.360  0.1278 -0.9617 -0.3184
  964MOL0     C30043  11.713   5.049   8.368 -0.4820 -0.0711 -0.1958
  964MOL0     C30044  11.816   4.965   8.444 -0.3851 -0.6282 -0.7232
  964MOL0     C30045  11.935   5.055   8.488  0.0211 -0.2144 -0.9178
  964MOL0     C30046  12.042   4.999   8.565  0.1906  0.1205 -0.7696
  964MOL0     C30047  12.025   5.015   8.716 -0.1791  0.3360  0.2440
  964MOL0     C30048  12.160   4.972   8.784 -0.2633 -0.5982  0.0890
  964MOL0    Cl30049  12.121   4.940   8.961  0.1407  0.2421 -0.0441
  964MOL0     C30050  11.189   5.182   8.472  0.3104 -0.3732 -0.1502
  964MOL0     C30051  11.064   5.223   8.442  0.2481  0.5860  0.2799
  964MOL0     O30052  10.924   5.524   8.219 -0.4424 -0.0219 -0.3290
  964MOL0     C30053  10.622   5.328   8.253 -0.4748  1.0345 -0.5711
  964MOL0     C30054  10.486   5.340   8.220  0.8428  0.5682 -0.0325
  964MOL0     N30055   9.819   5.725   7.932 -0.0860  0.1070  0.6405
  964MOL0     N30056   9.753   5.767   8.037  0.5541 -0.7195 -0.2435
  964MOL0     C30057   9.155   5.321   8.853  0.5052  0.1155  0.0022
  964MOL0     C30058   9.041   5.239   8.866 -0.1310 -0.1216 -0.7002
  964MOL0     C30059   8.604   5.123   9.022  0.2282 -0.5418  0.3313
  964MOL0     C30060   8.610   5.005   8.943  0.2800 -0.2224  0.7151
  964MOL0     C30061   8.514   4.907   8.934 -0.3586  0.7013  0.9515
  964MOL0     C30062   8.393   4.932   8.997  1.0787 -0.3579  0.0272
  964MOL0     O30063   8.292   4.844   8.969  0.4228 -0.2380 -0.5077
  964MOL0     C30064   8.163   4.867   9.030 -0.0148 -0.3668 -0.2844
  964MOL0     C30065   8.055   4.773   8.983  0.4031 -0.5628  0.1575
  964MOL0     C30066   8.046   4.643   9.069  0.4741 -0.0951  0.8562
  964MOL0     C30067   7.942   4.533   9.001  0.0523  0.1487  0.2843
  964MOL0     C30068   7.793   4.560   9.013  0.5018 -0.6433  0.2603
  964MOL0     C30069   7.675   4.573   9.018  0.1246 -0.4067  0.0654
  964MOL0     C30070   8.373   5.049   9.070  0.0089 -0.2087 -0.0706
  964MOL0     C30071   8.478   5.146   9.082  0.2190 -0.6084  0.0655
  964MOL0     C30072   8.442   5.273   9.168 -0.0061 -0.0819  0.0956
  964MOL0     H30073   8.828   5.478   8.987  0.4151 -0.1745  1.3725
  964MOL0     H30074   9.010   5.614   8.923  0.5223 -0.1810  3.9400
  964MOL0     H30075   9.301   5.420   8.671  3.3566  0.5711  0.2131
  964MOL0     H30076   9.204   5.566   8.636 -0.5297 -2.4124 -1.4865
  964MOL0     H30077   9.496   5.552   8.743 -1.8110 -0.4072  0.4348
  964MOL0     H30078   9.422   5.697   8.694  6.3851  0.8917  0.8868
  964MOL0     H30079   9.400   5.589   8.456  0.2205 -1.3426  0.4273
  964MOL0     H30080   9.492   5.449   8.530  0.6523 -0.5490  1.8936
  964MOL0     H30081   9.585   5.745   8.516  0.8175 -0.0615 -2.3841
  964MOL0     H30082   9.672   5.612   8.588  0.6103  2.2655  1.0669
  964MOL0     H30083   9.662   5.504   8.365 -0.0893 -0.4749  0.3556
  964MOL0     H30084   9.596   5.654   8.291 -0.2860  1.4794  0.2823
  964MOL0     H30085   9.858   5.596   8.429 -0.4728  2.8788  1.9162
  964MOL0     H30086   9.823   5.614   8.256 -0.3864 -0.2544  0.2801
  964MOL0     H30087   9.945   5.809   8.385 -0.2420  1.6834  0.7753
  964MOL0     H30088   9.796   5.843   8.460 -1.5375 -1.3213  0.8194
  964MOL0     H30089   9.679   5.882   8.250 -0.1440 -0.5157 -1.1071
  964MOL0     H30090   9.817   5.983   8.253 -0.3928  0.3301  0.1288
  964MOL0     H30091  10.053   5.887   8.091 -0.2671  1.6079 -1.0570
  964MOL0     H30092  10.003   5.751   7.744 -1.4760 -2.5025  0.7458
  964MOL0     H30093  10.125   5.831   7.836 -0.6420  1.3533  2.1490
  964MOL0     H30094  10.062   5.539   7.815  0.4505  0.2561 -1.4356
  964MOL0     H30095  10.195   5.614   7.737  2.0405 -1.8723  0.9853
  964MOL0     H30096  10.165   5.590   8.041  1.0697  0.9847  0.3034
  964MOL0     H30097  10.309   5.655   7.952  0.1155 -0.9357 -1.0902
  964MOL0     H30098  10.361   5.443   7.860 -0.1242 -4.1310  0.0048
  964MOL0     H30099  10.213   5.380   7.880 -0.4982  2.2523 -0.8020
  964MOL0     H30100  10.510   5.570   7.966  1.2541  0.4392 -0.7737
  964MOL0     H30101  10.752   5.565   8.040 -0.2064 -0.7729 -2.0740
  964MOL0     H30102  11.080   5.284   8.109  1.9128  0.3014 -0.8355
  964MOL0     H30103  11.314   5.200   8.152  1.1951  2.8955  1.4317
  964MOL0     H30104  11.410   4.996   8.254  0.8701 -2.0962  1.5281
  964MOL0     H30105  11.522   5.128   8.234  1.6185 -1.4885 -1.8200
  964MOL0     H30106  11.552   4.943   8.461  0.2116  0.2704  0.0582
  964MOL0     H30107  11.582   4.878   8.302 -1.7376 -0.1892 -1.6083
  964MOL0     H30108  11.749   5.079   8.268 -0.9735  1.1597 -0.0248
  964MOL0     H30109  11.685   5.144   8.414 -4.5378  0.1102 -2.5632
  964MOL0     H30110  11.848   4.896   8.365  3.4024  1.9177 -1.6601
  964MOL0     H30111  11.770   4.929   8.536 -0.7460  1.0744 -0.2159
  964MOL0     H30112  11.883   5.135   8.542  1.0632 -0.5393  0.6281
  964MOL0     H30113  11.983   5.100   8.401 -0.3976 -0.1136 -1.1015
  964MOL0     H30114  12.069   4.897   8.535  0.7521  0.5359 -1.6947
  964MOL0     H30115  12.128   5.064   8.545  0.8199  0.7032  3.0594
  964MOL0     H30116  11.945   4.944   8.737  2.4355 -2.7923  0.4433
  964MOL0     H30117  12.004   5.120   8.740 -1.7519  0.1185 -0.0780
  964MOL0     H30118  12.203   4.883   8.735  0.7252 -0.7258  1.1485
  964MOL0     H30119  12.237   5.049   8.776  1.2654 -2.1328 -0.9373
  964MOL0     H30120  11.209   5.149   8.574  2.1220  0.8541 -0.0529
  964MOL0     H30121  10.985   5.224   8.517 -0.0267 -3.0795  0.1985
  964MOL0     H30122  10.654   5.257   8.328  2.3129  1.0792 -1.6115
  964MOL0     H30123  10.417   5.268   8.262  1.2371 -0.2311 -0.7421
  964MOL0     H30124   9.243   5.271   8.815  0.9241  0.7416  0.1344
  964MOL0     H30125   9.045   5.133   8.843  0.4594 -1.2985  3.9587
  964MOL0     H30126   8.692   4.988   8.873  1.4206 -2.4000  2.4725
  964MOL0     H30127   8.519   4.817   8.874 -1.1440  1.8400 -0.8912
  964MOL0     H30128   8.127   4.966   9.003 -1.8738 -1.1835 -0.9898
  964MOL0     H30129   8.172   4.849   9.138 -0.2112  0.0588 -0.1963
  964MOL0     H30130   8.069   4.763   8.875  1.5186  3.6600 -0.2706
  964MOL0     H30131   7.958   4.822   8.999  1.3602  0.4213  3.5234
  964MOL0     H30132   8.016   4.663   9.172  3.0277 -1.3066  1.9306
  964MOL0     H30133   8.147   4.602   9.067  0.9513  1.0136  1.8299
  964MOL0     H30134   7.969   4.538   8.896  2.0584  0.9256  0.7906
  964MOL0     H30135   7.966   4.434   9.039  0.3048 -1.0548 -2.7476
  964MOL0     H30136   7.571   4.591   9.036 -0.5672 -0.6473 -3.0299
  964MOL0     H30137   8.281   5.071   9.123 -0.8377  0.7463 -1.8566
  964MOL0     H30138   8.488   5.271   9.267 -2.8504  0.0506  1.5014
  964MOL0     H30139   8.468   5.367   9.117 -1.2115 -0.1504 -0.6890
  964MOL0     H30140   8.336   5.276   9.193  0.4224 -0.9765  2.2443
  965MOL0     O30141   8.291   2.337   3.637 -0.2503 -0.1586 -0.4939
  965MOL0     C30142   8.246   2.266   3.725  1.0353  0.3799  0.2828
  965MOL0     O30143   8.323   2.168   3.793  0.2238 -0.2565 -0.7550
  965MOL0     C30144   8.455   2.192   3.833  0.6030 -0.9785 -0.3615
  965MOL0     C30145   8.507   2.318   3.850 -0.2586  0.6273 -0.8049
  965MOL0     C30146   8.633   2.336   3.905 -0.0394  0.1578 -0.4059
  965MOL0     C30147   8.707   2.225   3.947 -0.0472 -0.4667  0.0576
  965MOL0     O30148   8.832   2.249   3.998  0.6942 -0.4199 -0.1456
  965MOL0     C30149   8.894   2.159   4.097 -0.0342  1.0294 -0.6869
  965MOL0     C30150   9.027   2.228   4.130 -0.1310 -0.0714  0.2398
  965MOL0     C30151   9.101   2.147   4.240 -0.0193  0.3722 -0.0868
  965MOL0     C30152   9.215   2.221   4.302  0.0257  1.0845 -0.3771
  965MOL0     C30153   9.342   2.223   4.220 -0.7358  0.1630 -0.0053
  965MOL0     C30154   9.426   2.099   4.254 -0.8765  0.3983 -0.1404
  965MOL0     C30155   9.555   2.102   4.174 -0.8568  0.0419 -0.1214
  965MOL0     C30156   9.620   1.972   4.159 -0.4118 -0.2467  0.4037
  965MOL0     N30157   9.759   1.970   4.114 -0.1718 -0.5810 -0.1037
  965MOL0     C30158   9.793   1.906   3.999 -0.5962  0.0988 -0.9991
  965MOL0     C30159   9.929   1.897   4.000 -0.3830  0.2535 -0.3560
  965MOL0     C30160  10.019   1.839   3.889  0.0249 -0.4216 -0.1318
  965MOL0     C30161  10.045   1.694   3.910 -0.3027  1.1608  0.6165
  965MOL0     C30162  10.150   1.658   4.017 -0.6564  0.7271  0.3557
  965MOL0     C30163  10.294   1.678   3.971 -0.0658 -0.3855 -0.4922
  965MOL0     O30164  10.370   1.690   4.094 -0.1584  0.0934  0.4096
  965MOL0     C30165  10.496   1.645   4.111  0.1442 -0.6279  0.2021
  965MOL0     C30166  10.588   1.619   4.011 -0.5421  0.2852  0.2078
  965MOL0     C30167  10.726   1.602   4.034  0.6000 -0.2730 -0.5581
  965MOL0     C30168  10.776   1.590   4.162  0.2937 -0.0754 -0.9242
  965MOL0     C30169  10.909   1.575   4.204 -0.2624 -0.1980 -0.4501
  965MOL0     O30170  10.993   1.551   4.097  0.2387 -0.4493 -0.4787
  965MOL0     C30171  11.126   1.539   4.122  0.1758  0.3564 -0.0142
  965MOL0     C30172  11.202   1.651   4.088  0.8817 -0.6820  0.3245
  965MOL0     C30173  11.334   1.662   4.107 -0.8539  0.6254 -0.3461
  965MOL0     C30174  11.404   1.551   4.170  0.1187  0.1335 -0.0731
  965MOL0     O30175  11.538   1.574   4.193 -0.5267 -0.4352 -0.6282
  965MOL0     C30176  11.614   1.456   4.242  0.0986 -0.3641 -0.0335
  965MOL0     C30177  11.756   1.501   4.257 -0.8248  0.1766  0.3999
  965MOL0     C30178  11.854   1.388   4.300  0.3361 -0.2200  0.1700
  965MOL0     C30179  12.000   1.425   4.268 -0.2025 -0.1061  0.0903
  965MOL0     C30180  12.099   1.322   4.317 -0.6502 -0.7628 -0.0694
  965MOL0     C30181  12.215   1.394   4.378 -0.0556  0.3520 -0.0398
  965MOL0     C30182  12.329   1.288   4.415 -0.0550  1.0192 -0.2184
  965MOL0     C30183  12.414   1.344   4.525  0.9014  0.2084  0.2873
  965MOL0    Cl30184  12.578   1.258   4.516 -0.2721 -0.0960 -0.2249
  965MOL0     C30185  11.323   1.441   4.207 -1.4351 -0.7132  0.4317
  965MOL0     C30186  11.190   1.429   4.180  0.2515  0.0073  0.5601
  965MOL0     O30187  10.940   1.590   4.325 -0.0623  0.1989  0.3749
  965MOL0     C30188  10.681   1.607   4.260 -0.1777 -0.4898  0.0675
  965MOL0     C30189  10.546   1.639   4.237 -0.9188  0.2389 -0.0798
  965MOL0     N30190   9.974   1.947   4.122 -0.2036  0.5014 -0.7957
  965MOL0     N30191   9.871   1.994   4.185 -1.0345  0.0046 -0.3649
  965MOL0     C30192   8.655   2.097   3.918 -0.6811  0.3366 -0.3991
  965MOL0     C30193   8.528   2.084   3.876 -0.7203 -0.3435  0.4302
  965MOL0     C30194   8.098   2.261   3.743 -0.3518  0.0224  0.2665
  965MOL0     C30195   8.044   2.310   3.864 -0.1177 -0.6878  0.4932
  965MOL0     C30196   7.903   2.318   3.883  0.2729 -1.0793 -0.2716
  965MOL0     C30197   7.817   2.284   3.780 -0.2665 -0.1565 -0.9229
  965MOL0     O30198   7.677   2.303   3.780 -0.5828  0.0054  0.2844
  965MOL0     C30199   7.604   2.291   3.902  0.3329  0.0560 -0.7024
  965MOL0     C30200   7.464   2.251   3.847 -0.3687 -0.1982  0.2615
  965MOL0     C30201   7.470   2.104   3.798  0.2664  0.0698  0.6707
  965MOL0     C30202   7.506   2.100   3.644 -0.8196 -0.3613 -0.6023
  965MOL0     C30203   7.524   1.959   3.599  0.5376  0.5645 -0.8003
  965MOL0     C30204   7.525   1.842   3.566 -0.3830  0.6298  0.0517
  965MOL0     C30205   7.869   2.245   3.660  0.6038 -0.0479  0.0688
  965MOL0     C30206   8.005   2.221   3.643 -0.2017  0.4688  0.0588
  965MOL0     C30207   8.057   2.160   3.511 -0.2810  0.3370  0.0082
  965MOL0     H30208   8.445   2.400   3.814 -2.5627 -0.5071  0.3859
  965MOL0     H30209   8.683   2.431   3.915  0.4281 -0.2353  1.3757
  965MOL0     H30210   8.831   2.133   4.183  1.6474 -1.0598  0.0011
  965MOL0     H30211   8.912   2.068   4.040 -0.5256  0.7354 -0.3864
  965MOL0     H30212   9.010   2.329   4.169 -1.4416  0.2560 -1.1069
  965MOL0     H30213   9.090   2.240   4.042 -0.8683  1.8228 -0.0864
  965MOL0     H30214   9.140   2.055   4.195 -0.7279 -0.0951  0.2347
  965MOL0     H30215   9.022   2.128   4.313  2.1929 -0.4921  2.2222
  965MOL0     H30216   9.185   2.325   4.320  0.3969  1.1702 -0.2399
  965MOL0     H30217   9.240   2.170   4.396  1.5745  0.6411 -0.9921
  965MOL0     H30218   9.321   2.223   4.112  2.5972 -1.4720 -0.8018
  965MOL0     H30219   9.392   2.315   4.251 -1.1838  0.3130  0.2776
  965MOL0     H30220   9.447   2.101   4.362  3.2666  0.5772 -0.7842
  965MOL0     H30221   9.367   2.012   4.224  0.3816 -0.1083 -1.2277
  965MOL0     H30222   9.630   2.174   4.208  1.4982 -0.6958 -3.2304
  965MOL0     H30223   9.535   2.150   4.077 -0.2315 -2.6199 -1.6670
  965MOL0     H30224   9.622   1.926   4.259  1.5526  0.4282  0.7156
  965MOL0     H30225   9.568   1.913   4.084  0.2843  0.2789 -0.5086
  965MOL0     H30226   9.726   1.875   3.919 -0.6134 -1.6287 -0.3592
  965MOL0     H30227   9.988   1.865   3.788 -1.7697  0.7166  0.6659
  965MOL0     H30228  10.117   1.885   3.906 -0.4198  0.3419  0.3977
  965MOL0     H30229   9.948   1.651   3.935  0.4703 -1.5763 -0.7550
  965MOL0     H30230  10.073   1.634   3.823 -2.3214 -0.5892  1.1100
  965MOL0     H30231  10.142   1.551   4.039  0.1677  0.5956  0.0504
  965MOL0     H30232  10.144   1.704   4.115 -0.1594  0.4806  0.5045
  965MOL0     H30233  10.306   1.767   3.909  1.0206 -0.6908 -0.7260
  965MOL0     H30234  10.328   1.594   3.910  1.2927  0.6466 -1.2171
  965MOL0     H30235  10.560   1.610   3.906  1.8399  0.1206 -0.4578
  965MOL0     H30236  10.783   1.571   3.947  2.2888  0.1100  0.3784
  965MOL0     H30237  11.165   1.731   4.024  0.1576 -0.0704  1.4738
  965MOL0     H30238  11.400   1.743   4.078 -1.0980  1.3819  1.0928
  965MOL0     H30239  11.573   1.423   4.338 -0.2158  0.1200 -0.0015
  965MOL0     H30240  11.598   1.374   4.171  0.7923 -1.1767  0.7207
  965MOL0     H30241  11.793   1.551   4.166 -0.0276 -0.7013  0.2213
  965MOL0     H30242  11.763   1.577   4.335 -0.6424 -0.5033  1.0545
  965MOL0     H30243  11.826   1.377   4.405 -0.7480  2.5468  0.2658
  965MOL0     H30244  11.832   1.295   4.247  0.2953  1.1037 -2.3124
  965MOL0     H30245  12.020   1.526   4.305 -3.0805  0.3436  0.6877
  965MOL0     H30246  12.009   1.453   4.162  2.1979  1.1160  0.5403
  965MOL0     H30247  12.133   1.254   4.239  2.2916  1.0842 -0.5369
  965MOL0     H30248  12.057   1.261   4.398 -0.9334 -0.1471  0.2528
  965MOL0     H30249  12.257   1.469   4.311  0.3261  0.1948  0.0205
  965MOL0     H30250  12.184   1.440   4.473 -0.7008 -1.3812  0.6404
  965MOL0     H30251  12.407   1.271   4.341  0.9566  2.1165  0.5695
  965MOL0     H30252  12.287   1.191   4.444  0.7283  0.7876  0.1757
  965MOL0     H30253  12.431   1.451   4.515  1.2720  0.1124 -0.1540
  965MOL0     H30254  12.367   1.328   4.622  1.7197  0.5029  0.7377
  965MOL0     H30255  11.367   1.356   4.259  1.3127  0.8609  0.8929
  965MOL0     H30256  11.126   1.353   4.222  0.8761 -1.3821 -0.8524
  965MOL0     H30257  10.704   1.609   4.366 -3.2499  1.7187  0.8502
  965MOL0     H30258  10.479   1.665   4.319  0.2882 -1.0185  1.3609
  965MOL0     H30259   8.711   2.006   3.936 -2.7680 -1.0325 -0.5636
  965MOL0     H30260   8.490   1.982   3.883 -0.2980 -0.5075  0.3026
  965MOL0     H30261   8.108   2.362   3.934 -1.3843  0.1645  1.0550
  965MOL0     H30262   7.878   2.364   3.978  3.5077 -0.4990  0.4049
  965MOL0     H30263   7.594   2.390   3.948  0.6089 -0.1308 -0.2350
  965MOL0     H30264   7.650   2.221   3.972 -1.6111 -2.1419 -1.4873
  965MOL0     H30265   7.429   2.323   3.773  0.0782  0.4676  0.6903
  965MOL0     H30266   7.385   2.251   3.923 -1.7857 -1.5682 -1.1361
  965MOL0     H30267   7.376   2.052   3.814  0.2842 -0.6897 -1.4250
  965MOL0     H30268   7.545   2.046   3.853  1.6214  0.0219 -1.1105
  965MOL0     H30269   7.437   2.159   3.583 -0.5956  0.8106  0.2471
  965MOL0     H30270   7.607   2.140   3.640  0.4596 -2.9393  1.9639
  965MOL0     H30271   7.541   1.736   3.559  2.5011  1.1190 -3.7220
  965MOL0     H30272   7.805   2.219   3.576 -0.5136  3.2799 -0.2647
  965MOL0     H30273   8.066   2.051   3.515 -1.9550  0.1736  0.2805
  965MOL0     H30274   7.978   2.172   3.436 -0.3972 -2.3618 -0.4066
  965MOL0     H30275   8.149   2.210   3.481 -1.2655  1.4048 -1.3609
  966MOL0     O30276   4.111   5.201   8.663 -0.2349 -0.1699 -0.7400
  966MOL0     C30277   4.007   5.255   8.637  0.2070  0.2871  0.1122
  966MOL0     O30278   4.004   5.364   8.542 -0.2539 -0.1719 -0.0830
  966MOL0     C30279   4.134   5.405   8.501  0.1084 -0.4306 -0.0514
  966MOL0     C30280   4.193   5.513   8.572  0.1730 -0.3626  0.1143
  966MOL0     C30281   4.324   5.548   8.543 -0.8663 -0.1263  0.4864
  966MOL0     C30282   4.400   5.488   8.448  0.5837  0.6283 -0.0244
  966MOL0     O30283   4.528   5.534   8.422  0.7523  0.3295  0.2309
  966MOL0     C30284   4.603   5.456   8.325  0.2019  0.4783  0.1262
  966MOL0     C30285   4.748   5.498   8.335 -0.2730 -0.5119 -0.4816
  966MOL0     C30286   4.761   5.645   8.356  0.0157  0.7551  0.7611
  966MOL0     C30287   4.913   5.682   8.343 -0.1744  0.1216 -0.0454
  966MOL0     C30288   4.935   5.828   8.383  0.5907 -0.5832 -0.7927
  966MOL0     C30289   4.951   5.927   8.262  0.1423  0.6389 -1.4917
  966MOL0     C30290   4.926   6.074   8.305  0.5081  0.0888  0.4990
  966MOL0     C30291   5.021   6.127   8.408 -0.3027 -0.6098 -0.1462
  966MOL0     N30292   4.971   6.109   8.545  0.1036 -0.5943  0.5139
  966MOL0     C30293   4.895   6.197   8.620  0.4815  0.1927 -0.0834
  966MOL0     C30294   4.891   6.159   8.747 -0.1998  1.0320 -0.4176
  966MOL0     C30295   4.823   6.208   8.874  0.2755 -0.3167  0.4482
  966MOL0     C30296   4.831   6.364   8.871 -0.5382 -0.2275 -0.2006
  966MOL0     C30297   4.764   6.425   8.984  0.1781  0.4608 -0.3946
  966MOL0     C30298   4.820   6.384   9.118  0.2134  0.5625  0.2456
  966MOL0     O30299   4.959   6.366   9.121 -0.2014 -0.1891 -0.1836
  966MOL0     C30300   5.039   6.472   9.121  0.0030  0.2669  0.8732
  966MOL0     C30301   5.008   6.607   9.113 -0.0438  0.0473 -0.5897
  966MOL0     C30302   5.115   6.697   9.089  0.2432 -0.4708 -0.6470
  966MOL0     C30303   5.251   6.649   9.088  0.5053  0.2361  0.9884
  966MOL0     C30304   5.363   6.737   9.051  0.3338  0.2364 -0.0393
  966MOL0     O30305   5.482   6.677   9.031 -0.0014  0.1680  0.8321
  966MOL0     C30306   5.575   6.743   8.961 -0.1613 -0.4023 -0.3704
  966MOL0     C30307   5.603   6.722   8.829  0.5200  0.3911  0.1911
  966MOL0     C30308   5.720   6.773   8.770  0.3549  0.1842  0.5186
  966MOL0     C30309   5.796   6.855   8.844  0.0122  0.2370  0.6100
  966MOL0     O30310   5.907   6.914   8.795 -0.1855  0.2167  1.2386
  966MOL0     C30311   6.005   6.812   8.779 -0.5060 -0.3232  0.2508
  966MOL0     C30312   6.114   6.855   8.692 -0.6179 -0.6210  0.8146
  966MOL0     C30313   6.179   6.992   8.728 -0.3988 -0.4980  0.1451
  966MOL0     C30314   6.331   6.989   8.705 -1.1222  0.5166 -0.1683
  966MOL0     C30315   6.411   6.886   8.790  0.0936  0.2116 -0.2185
  966MOL0     C30316   6.565   6.917   8.795  0.0340 -0.4823  1.0883
  966MOL0     C30317   6.659   6.823   8.869 -0.3823  0.1609 -0.1271
  966MOL0     C30318   6.812   6.836   8.839  0.1295  0.2049 -0.0187
  966MOL0    Cl30319   6.851   7.013   8.868 -0.1636 -0.8156  0.3276
  966MOL0     C30320   5.769   6.878   8.982  0.7272  0.7524 -0.3411
  966MOL0     C30321   5.659   6.824   9.035 -0.5268 -0.2292  0.3306
  966MOL0     O30322   5.341   6.855   9.022  0.0914  0.1727 -0.9214
  966MOL0     C30323   5.281   6.520   9.109 -0.5444 -0.1687  0.1182
  966MOL0     C30324   5.172   6.433   9.125  0.0219  0.1819  0.2180
  966MOL0     N30325   4.971   6.041   8.742 -0.4894  0.0182  0.5479
  966MOL0     N30326   5.017   6.014   8.628  0.0510  1.1104 -0.3971
  966MOL0     C30327   4.337   5.373   8.385 -0.2056 -0.5384  0.2731
  966MOL0     C30328   4.195   5.338   8.397 -0.0302 -0.6727 -0.1898
  966MOL0     C30329   3.875   5.202   8.688  0.5756 -0.3381  0.1838
  966MOL0     C30330   3.754   5.247   8.620 -1.1123 -0.1590 -0.5171
  966MOL0     C30331   3.627   5.195   8.646  0.3581 -0.4967  0.7719
  966MOL0     C30332   3.609   5.104   8.742  0.0034  0.7976 -1.0660
  966MOL0     O30333   3.475   5.063   8.771  0.1256  0.2622  0.1501
  966MOL0     C30334   3.437   4.952   8.852  0.6807 -0.3068 -0.0174
  966MOL0     C30335   3.283   4.935   8.857  0.2332  0.4825  0.7889
  966MOL0     C30336   3.223   4.928   8.713  0.3034  0.1768 -0.5371
  966MOL0     C30337   3.065   4.902   8.713  0.0346 -0.8651  0.1377
  966MOL0     C30338   3.028   4.785   8.783 -0.7553  0.3698 -0.9887
  966MOL0     C30339   3.003   4.677   8.831 -0.2371 -1.0830 -0.3946
  966MOL0     C30340   3.723   5.057   8.807  0.3959  0.1549 -0.8849
  966MOL0     C30341   3.854   5.105   8.786  0.1554  0.7422  0.1790
  966MOL0     C30342   3.957   5.065   8.882 -0.3189 -0.2050 -0.3732
  966MOL0     H30343   4.145   5.562   8.655 -0.3173  0.4157 -0.6126
  966MOL0     H30344   4.377   5.631   8.590  0.3241 -0.3989 -0.3127
  966MOL0     H30345   4.602   5.350   8.351  1.0023  0.4677  0.1394
  966MOL0     H30346   4.555   5.480   8.230  0.6085  0.0370 -0.1949
  966MOL0     H30347   4.799   5.461   8.246 -2.4656 -3.1392 -0.8040
  966MOL0     H30348   4.783   5.452   8.428  4.4411  1.8344 -0.8238
  966MOL0     H30349   4.725   5.680   8.453  0.2967  0.8001  0.8491
  966MOL0     H30350   4.707   5.689   8.272  0.0549  0.3989  0.5493
  966MOL0     H30351   4.967   5.610   8.405 -2.7555 -1.2131  0.8296
  966MOL0     H30352   4.941   5.670   8.238 -1.7998  1.1516 -0.6343
  966MOL0     H30353   4.849   5.868   8.437  0.4424 -2.4065  0.3888
  966MOL0     H30354   5.024   5.832   8.447 -2.2198  0.6737  3.4298
  966MOL0     H30355   5.045   5.904   8.211  0.6482 -3.6842  0.8842
  966MOL0     H30356   4.869   5.913   8.191 -0.1721 -1.3854 -0.8085
  966MOL0     H30357   4.821   6.084   8.332 -0.0100  0.1434 -1.3792
  966MOL0     H30358   4.943   6.131   8.212  4.4370 -0.2838  0.8262
  966MOL0     H30359   5.119   6.079   8.412 -0.8632 -1.6692  2.5924
  966MOL0     H30360   5.034   6.235   8.393  0.9082 -0.8859 -1.2970
  966MOL0     H30361   4.841   6.285   8.585  1.4516  0.8791  0.0989
  966MOL0     H30362   4.719   6.176   8.879 -0.1874  1.1335  0.4507
  966MOL0     H30363   4.870   6.162   8.962  1.2863 -0.3383 -0.0836
  966MOL0     H30364   4.938   6.384   8.873 -0.4258 -0.8178  0.4251
  966MOL0     H30365   4.785   6.395   8.777 -2.1386 -2.7096 -0.3381
  966MOL0     H30366   4.658   6.401   8.970  0.4553 -0.7372 -0.5393
  966MOL0     H30367   4.775   6.533   8.975 -1.1175  0.6026 -0.4450
  966MOL0     H30368   4.775   6.288   9.142 -2.1412  1.7113  0.7230
  966MOL0     H30369   4.781   6.454   9.193 -2.1461 -0.3570 -0.0575
  966MOL0     H30370   4.909   6.650   9.121 -1.1624 -2.7000  3.0658
  966MOL0     H30371   5.111   6.805   9.084  4.2268 -0.0844  0.5515
  966MOL0     H30372   5.537   6.666   8.763 -3.5142  1.5637  2.8687
  966MOL0     H30373   5.761   6.755   8.671  2.2971 -0.7263  1.4328
  966MOL0     H30374   6.036   6.769   8.875  0.0759 -1.8250 -0.5773
  966MOL0     H30375   5.971   6.722   8.728  1.9735 -0.7867 -0.7051
  966MOL0     H30376   6.187   6.775   8.708 -1.1784 -1.5027 -0.7926
  966MOL0     H30377   6.086   6.854   8.586 -3.4455  1.3282  1.4304
  966MOL0     H30378   6.133   7.074   8.672  3.1165 -0.7892 -3.6416
  966MOL0     H30379   6.172   7.012   8.835  6.2757  0.1741  0.9196
  966MOL0     H30380   6.366   7.091   8.725 -0.6164  0.0892  1.1788
  966MOL0     H30381   6.348   6.967   8.599 -0.3881 -2.5864  0.5067
  966MOL0     H30382   6.389   6.785   8.755  0.0205  0.9363 -2.4249
  966MOL0     H30383   6.368   6.892   8.891 -2.3858 -1.0317 -1.1299
  966MOL0     H30384   6.592   6.925   8.689 -1.0047 -1.3390  0.7296
  966MOL0     H30385   6.570   7.019   8.832 -1.3783  0.0324 -0.0353
  966MOL0     H30386   6.630   6.719   8.857 -1.1936  0.2801  0.6999
  966MOL0     H30387   6.640   6.850   8.973  1.2366 -0.5747  0.3943
  966MOL0     H30388   6.865   6.770   8.908 -3.9297 -1.9023  1.4190
  966MOL0     H30389   6.832   6.800   8.738 -1.9494 -0.9605 -0.0630
  966MOL0     H30390   5.832   6.944   9.040  1.7858 -0.3891 -0.1593
  966MOL0     H30391   5.651   6.840   9.142 -2.2454 -0.1804  0.2152
  966MOL0     H30392   5.384   6.485   9.109 -0.5048 -0.0467  0.6889
  966MOL0     H30393   5.211   6.335   9.150 -1.3720 -1.2171 -2.6217
  966MOL0     H30394   4.408   5.315   8.326  0.9439 -0.4128  1.4916
  966MOL0     H30395   4.154   5.249   8.350 -0.9967  1.2933 -3.3649
  966MOL0     H30396   3.748   5.330   8.550 -0.0555 -1.5062 -2.2895
  966MOL0     H30397   3.539   5.223   8.590  1.7804  0.0849 -1.2897
  966MOL0     H30398   3.474   4.966   8.954  1.0553  0.4880 -0.2549
  966MOL0     H30399   3.479   4.862   8.806  0.6709 -0.3473  0.0514
  966MOL0     H30400   3.243   5.031   8.892  1.3089  1.3672 -0.3320
  966MOL0     H30401   3.262   4.850   8.922 -1.0669  0.7725  0.7888
  966MOL0     H30402   3.270   4.852   8.650 -2.0347 -0.4082 -1.6831
  966MOL0     H30403   3.227   5.030   8.673 -0.5893  2.1066  3.7191
  966MOL0     H30404   3.016   4.984   8.767  1.4549  0.8626 -1.0875
  966MOL0     H30405   3.020   4.901   8.613  0.0136  0.1355  0.1312
  966MOL0     H30406   2.965   4.590   8.882 -1.0684 -1.3582 -1.4595
  966MOL0     H30407   3.707   4.994   8.893 -0.3401  1.7593  0.2018
  966MOL0     H30408   4.049   5.124   8.879 -0.0880 -0.6205 -1.8273
  966MOL0     H30409   3.918   5.055   8.984 -2.2347 -4.1486 -1.3010
  966MOL0     H30410   3.991   4.963   8.860 -2.6936 -0.9564 -0.8252
  967MOL0     O30411   2.945   7.917   2.105 -0.4819 -0.1373 -0.0822
  967MOL0     C30412   2.939   8.012   2.024  0.2533  0.7925 -0.3496
  967MOL0     O30413   3.038   8.056   1.945  0.0808  0.2704  0.0438
  967MOL0     C30414   3.157   7.992   1.953 -0.5795 -0.0496  0.6667
  967MOL0     C30415   3.185   7.870   1.881 -0.1637 -1.1587 -0.0911
  967MOL0     C30416   3.294   7.789   1.915 -0.3670  0.3599 -0.0171
  967MOL0     C30417   3.370   7.828   2.029 -0.4383 -0.3886  0.0484
  967MOL0     O30418   3.478   7.771   2.082  0.0789  0.0584 -0.6664
  967MOL0     C30419   3.470   7.624   2.079  1.1525 -0.6544  0.3381
  967MOL0     C30420   3.575   7.574   2.178  0.1334  0.1088  0.3972
  967MOL0     C30421   3.726   7.573   2.127  0.1958  0.0576 -0.4158
  967MOL0     C30422   3.819   7.538   2.243 -0.1744  0.0796  0.7318
  967MOL0     C30423   3.972   7.572   2.203 -0.4194 -0.2256 -1.1497
  967MOL0     C30424   4.063   7.556   2.328  0.3626  0.4063  0.1027
  967MOL0     C30425   4.218   7.592   2.311  0.2530  0.2203 -0.2954
  967MOL0     C30426   4.266   7.525   2.182 -0.2993 -1.0787 -0.6958
  967MOL0     N30427   4.411   7.509   2.157 -0.1052 -0.8705  0.2262
  967MOL0     C30428   4.461   7.417   2.070  0.5552  0.1573  0.8031
  967MOL0     C30429   4.590   7.452   2.039  0.7848  0.6222  0.2814
  967MOL0     C30430   4.675   7.378   1.936 -1.1288  0.3809 -0.4880
  967MOL0     C30431   4.817   7.342   1.982 -0.6131  0.2752  0.0661
  967MOL0     C30432   4.904   7.472   1.998 -0.4133  0.1770  0.4082
  967MOL0     C30433   5.055   7.438   2.019 -0.2976 -0.7506  0.6464
  967MOL0     O30434   5.123   7.541   2.077 -0.8083 -0.5988 -0.2838
  967MOL0     C30435   5.255   7.537   2.115  0.4399  0.1447  0.2819
  967MOL0     C30436   5.300   7.647   2.194  0.3321  0.4332  0.2437
  967MOL0     C30437   5.429   7.643   2.250 -0.4025 -0.0519  0.3267
  967MOL0     C30438   5.516   7.535   2.236 -0.0513  0.5244 -0.6391
  967MOL0     C30439   5.652   7.532   2.304 -0.0669  0.2896 -0.7882
  967MOL0     O30440   5.695   7.648   2.350 -0.1685  0.6226  0.1692
  967MOL0     C30441   5.825   7.651   2.383 -0.4731 -0.0214  0.2705
  967MOL0     C30442   5.863   7.650   2.519  0.3053 -0.1990 -0.0477
  967MOL0     C30443   6.003   7.670   2.557 -0.4159 -0.7338  0.0313
  967MOL0     C30444   6.097   7.681   2.457 -0.0557 -0.4405 -0.3380
  967MOL0     O30445   6.232   7.699   2.475  0.0062 -0.1504 -0.1157
  967MOL0     C30446   6.284   7.721   2.603 -0.3468  0.3963 -0.0990
  967MOL0     C30447   6.428   7.767   2.582 -0.0167  0.0227 -0.7245
  967MOL0     C30448   6.448   7.918   2.547  0.3873  0.7882  1.0974
  967MOL0     C30449   6.595   7.957   2.522  0.2852  0.1584 -0.1346
  967MOL0     C30450   6.618   8.100   2.491  1.0420  0.1089 -0.1218
  967MOL0     C30451   6.767   8.129   2.468  0.3986  0.4480 -0.1747
  967MOL0     C30452   6.806   8.269   2.423 -0.2257 -0.1349 -0.1872
  967MOL0     C30453   6.955   8.301   2.438 -0.1508 -0.2431 -0.4435
  967MOL0    Cl30454   7.003   8.265   2.612  0.2895  0.5218  0.0183
  967MOL0     C30455   6.052   7.681   2.322 -0.0617  0.0266  0.3047
  967MOL0     C30456   5.920   7.656   2.284 -0.2251  0.2739  0.0781
  967MOL0     O30457   5.718   7.426   2.304  0.5523  0.0358  0.0999
  967MOL0     C30458   5.467   7.428   2.162  0.1229 -0.5954 -0.1186
  967MOL0     C30459   5.338   7.423   2.107  0.2630 -0.4582  0.1688
  967MOL0     N30460   4.611   7.573   2.100 -0.2875 -0.0095  0.1324
  967MOL0     N30461   4.511   7.599   2.180  0.4880 -0.1217  0.0470
  967MOL0     C30462   3.340   7.950   2.101  0.4413  0.6107  0.6794
  967MOL0     C30463   3.229   8.021   2.064 -0.8610  1.1380  0.8462
  967MOL0     C30464   2.803   8.071   1.998  0.0767  0.7377 -0.8289
  967MOL0     C30465   2.787   8.142   1.879  0.1764 -0.1939 -0.6142
  967MOL0     C30466   2.665   8.203   1.845  0.5460 -0.1352 -0.3255
  967MOL0     C30467   2.561   8.211   1.936 -0.1697  0.8943  0.1747
  967MOL0     O30468   2.451   8.280   1.899 -0.7523  0.2686 -0.0827
  967MOL0     C30469   2.400   8.359   2.011 -0.6406 -0.2257 -0.0461
  967MOL0     C30470   2.261   8.316   2.060 -0.3919 -0.7464  0.0685
  967MOL0     C30471   2.150   8.380   1.978  0.4399 -0.1118  1.0158
  967MOL0     C30472   2.017   8.344   2.027  0.6021 -0.1288  0.3708
  967MOL0     C30473   1.917   8.381   1.925  0.0789 -0.2477  0.1149
  967MOL0     C30474   1.832   8.411   1.844  0.5595 -0.0698 -0.1656
  967MOL0     C30475   2.567   8.129   2.046  0.0109 -0.1168  0.6937
  967MOL0     C30476   2.685   8.069   2.082 -0.6538  1.2607 -0.1071
  967MOL0     C30477   2.694   8.033   2.221  0.5049  0.5261 -0.4156
  967MOL0     H30478   3.127   7.857   1.790  0.6658  1.2504 -1.0533
  967MOL0     H30479   3.314   7.694   1.866 -2.6914  0.1993 -0.7987
  967MOL0     H30480   3.384   7.587   2.136  2.4364 -1.1607  2.0568
  967MOL0     H30481   3.495   7.586   1.980 -0.1219  0.3556 -0.3869
  967MOL0     H30482   3.551   7.473   2.211 -1.2767  0.2370 -0.1689
  967MOL0     H30483   3.577   7.647   2.260 -0.5469  2.2688 -1.3941
  967MOL0     H30484   3.757   7.675   2.104  1.4423  0.5634  3.0570
  967MOL0     H30485   3.746   7.514   2.037  0.8510  1.4139 -1.1951
  967MOL0     H30486   3.788   7.590   2.334  1.2817 -1.7881  2.4024
  967MOL0     H30487   3.819   7.431   2.266 -4.0562 -0.5614 -1.4693
  967MOL0     H30488   3.996   7.501   2.123  2.4681 -0.9690  0.2259
  967MOL0     H30489   3.981   7.674   2.167 -0.3262 -0.2902 -1.3104
  967MOL0     H30490   4.029   7.628   2.404 -0.7585 -0.4611  0.4406
  967MOL0     H30491   4.052   7.462   2.384 -2.5558 -0.3375 -1.5033
  967MOL0     H30492   4.279   7.542   2.386 -0.2762 -0.4277 -0.2865
  967MOL0     H30493   4.235   7.700   2.314 -0.3743  0.2956  2.1507
  967MOL0     H30494   4.225   7.424   2.171 -2.1286 -0.2889 -1.5367
  967MOL0     H30495   4.220   7.587   2.104  3.2690  2.3709 -0.3731
  967MOL0     H30496   4.406   7.339   2.017 -0.0998 -0.1512  1.9162
  967MOL0     H30497   4.627   7.287   1.898  1.4576 -1.0502 -0.5929
  967MOL0     H30498   4.701   7.429   1.843  2.9779 -1.0344 -0.3071
  967MOL0     H30499   4.824   7.281   2.072 -0.7569 -1.6841 -1.1721
  967MOL0     H30500   4.862   7.271   1.912  2.1852 -1.1423  3.0466
  967MOL0     H30501   4.877   7.522   2.092  0.4648 -0.1045  0.8159
  967MOL0     H30502   4.893   7.540   1.913 -0.9345 -1.3475 -0.7825
  967MOL0     H30503   5.096   7.411   1.921 -2.6514  2.9023 -1.5774
  967MOL0     H30504   5.058   7.351   2.085 -2.2713 -1.1210  0.3069
  967MOL0     H30505   5.231   7.729   2.211  0.1043  0.5171 -0.9892
  967MOL0     H30506   5.448   7.732   2.309 -3.3493  0.5680  0.4800
  967MOL0     H30507   5.788   7.663   2.597 -2.4123 -0.9432 -2.3779
  967MOL0     H30508   6.028   7.667   2.663  0.6273 -0.8757 -0.2090
  967MOL0     H30509   6.239   7.802   2.661  0.7944 -0.5849  2.3445
  967MOL0     H30510   6.265   7.626   2.655 -6.2351  0.5558 -1.3631
  967MOL0     H30511   6.495   7.748   2.666 -0.3401 -1.1575 -0.7195
  967MOL0     H30512   6.477   7.712   2.501  3.4060  1.0136  0.5038
  967MOL0     H30513   6.388   7.924   2.456 -0.9313 -3.4388  1.5132
  967MOL0     H30514   6.403   7.975   2.628 -3.0412  0.9896 -0.7443
  967MOL0     H30515   6.632   7.899   2.437 -0.5563 -0.8987  0.1856
  967MOL0     H30516   6.648   7.937   2.616  0.4389 -1.4847 -0.5413
  967MOL0     H30517   6.582   8.164   2.573  0.0735 -0.9879  0.3379
  967MOL0     H30518   6.564   8.124   2.399 -0.4627 -0.5954  0.5284
  967MOL0     H30519   6.816   8.104   2.563  0.1463 -2.4456 -0.7131
  967MOL0     H30520   6.803   8.058   2.392 -0.1697 -0.0018 -0.0314
  967MOL0     H30521   6.760   8.333   2.498 -0.0693  0.2629 -0.4262
  967MOL0     H30522   6.769   8.293   2.322  1.3666  1.8171 -0.3590
  967MOL0     H30523   7.017   8.239   2.373  1.5831  1.7077 -0.7759
  967MOL0     H30524   6.974   8.407   2.419 -0.4362 -0.5118 -2.3517
  967MOL0     H30525   6.126   7.689   2.243 -1.0421 -0.7311 -0.7229
  967MOL0     H30526   5.891   7.640   2.180  0.5379  3.1085 -0.6533
  967MOL0     H30527   5.531   7.343   2.144 -0.1253 -0.9839  0.7727
  967MOL0     H30528   5.295   7.335   2.061  0.7165  0.2657 -1.7412
  967MOL0     H30529   3.388   7.968   2.196 -1.8189 -1.1878  2.2778
  967MOL0     H30530   3.198   8.105   2.124 -1.5403  1.1785  0.4522
  967MOL0     H30531   2.859   8.137   1.798 -1.1847 -0.6293 -1.8440
  967MOL0     H30532   2.646   8.260   1.755  2.0331  1.2339  0.1755
  967MOL0     H30533   2.403   8.467   1.995 -1.8762 -0.5156 -2.9179
  967MOL0     H30534   2.463   8.351   2.100 -0.6681 -0.7061 -0.0651
  967MOL0     H30535   2.255   8.360   2.160  2.3242 -1.2958  0.5756
  967MOL0     H30536   2.252   8.208   2.070 -2.4498 -0.4447  2.3308
  967MOL0     H30537   2.165   8.347   1.875  2.1664 -0.4095  1.3267
  967MOL0     H30538   2.165   8.488   1.987 -1.0514  0.0976  1.1922
  967MOL0     H30539   2.006   8.240   2.057  1.4073  1.0307  5.6750
  967MOL0     H30540   1.994   8.410   2.111  0.4793  0.2479  0.0467
  967MOL0     H30541   1.760   8.440   1.771  0.6647 -1.3123 -0.7990
  967MOL0     H30542   2.483   8.133   2.114  0.4530  1.8819  1.1732
  967MOL0     H30543   2.781   8.080   2.268  1.0833 -1.9376  1.1875
  967MOL0     H30544   2.602   8.051   2.276  0.9634 -4.0642  2.4276
  967MOL0     H30545   2.698   7.924   2.231 -0.3544  0.6538  2.0876
  968MOL0     O30546   4.665   6.536   7.089  0.3002 -0.4255  0.1055
  968MOL0     C30547   4.702   6.416   7.098 -0.2057 -0.6644 -0.5032
  968MOL0     O30548   4.826   6.373   7.149  0.0239  0.3390  0.1630
  968MOL0     C30549   4.933   6.453   7.194 -1.1233 -0.8596 -0.0417
  968MOL0     C30550   5.025   6.374   7.268 -0.1218  0.1241  0.1150
  968MOL0     C30551   5.137   6.438   7.328  0.9111  0.3499 -0.6869
  968MOL0     C30552   5.160   6.576   7.316 -0.0298 -0.4716  0.7289
  968MOL0     O30553   5.266   6.636   7.370 -0.4304 -1.1452  0.1984
  968MOL0     C30554   5.389   6.583   7.338  0.4308 -0.1751 -0.7597
  968MOL0     C30555   5.504   6.664   7.412 -0.8249 -0.3649  0.3363
  968MOL0     C30556   5.638   6.593   7.381 -0.4126 -0.7935 -0.4551
  968MOL0     C30557   5.760   6.650   7.452 -0.1853  0.3295  0.8027
  968MOL0     C30558   5.889   6.566   7.453 -0.0887 -0.3410 -0.2169
  968MOL0     C30559   5.935   6.533   7.308 -0.4572  0.3825 -0.0271
  968MOL0     C30560   6.073   6.484   7.293 -0.1222 -1.2986  0.9166
  968MOL0     C30561   6.188   6.552   7.376 -0.5248  0.7964  0.1787
  968MOL0     N30562   6.321   6.494   7.336  0.5037  0.1803  0.0780
  968MOL0     C30563   6.378   6.382   7.383  0.1156  0.2980 -0.4138
  968MOL0     C30564   6.501   6.374   7.318  0.0483  0.7581  0.2326
  968MOL0     C30565   6.591   6.255   7.353 -0.0042 -0.4445 -0.4014
  968MOL0     C30566   6.736   6.287   7.346  0.1561 -0.4561  0.1790
  968MOL0     C30567   6.831   6.169   7.366  0.0361 -0.0668  0.8630
  968MOL0     C30568   6.975   6.204   7.371  0.5031 -0.5468  0.4776
  968MOL0     O30569   7.009   6.292   7.265 -0.3798 -0.2466 -0.2654
  968MOL0     C30570   7.142   6.340   7.261  0.1945  1.1344 -0.8381
  968MOL0     C30571   7.215   6.347   7.144 -0.3362  0.2835  0.0459
  968MOL0     C30572   7.353   6.377   7.139  0.9371 -0.9131  0.4768
  968MOL0     C30573   7.424   6.384   7.254 -0.5975 -1.3828 -0.2460
  968MOL0     C30574   7.569   6.424   7.266  0.4942  0.1999 -0.0332
  968MOL0     O30575   7.622   6.453   7.391 -0.0145 -0.5410 -0.3961
  968MOL0     C30576   7.764   6.479   7.391  0.7124  0.1705 -0.3357
  968MOL0     C30577   7.862   6.415   7.315  0.3402 -0.3507 -0.8606
  968MOL0     C30578   7.993   6.447   7.332 -0.7116  0.1577  1.4188
  968MOL0     C30579   8.036   6.528   7.442 -0.2070  0.3164  0.5909
  968MOL0     O30580   8.169   6.544   7.474  0.2269  0.2737  0.2375
  968MOL0     C30581   8.269   6.544   7.375 -0.3413 -0.1594  1.0608
  968MOL0     C30582   8.395   6.605   7.443  0.0500 -0.1531  0.1191
  968MOL0     C30583   8.507   6.599   7.333 -0.0309  0.1110  0.2271
  968MOL0     C30584   8.626   6.669   7.394 -0.1664  0.0889 -0.7748
  968MOL0     C30585   8.748   6.666   7.302  0.3198  0.1659 -0.5016
  968MOL0     C30586   8.888   6.681   7.382 -0.3278 -0.3843 -0.2110
  968MOL0     C30587   9.011   6.688   7.287 -0.1516  0.3007 -0.2942
  968MOL0     C30588   9.134   6.702   7.376 -0.4426  0.0693 -0.5870
  968MOL0    Cl30589   9.293   6.683   7.295  0.0419 -0.6064  0.4213
  968MOL0     C30590   7.946   6.580   7.523  0.8146  0.0185  0.0821
  968MOL0     C30591   7.811   6.560   7.494  0.4273 -0.5466  0.6758
  968MOL0     O30592   7.620   6.441   7.154  0.3887  0.4781  0.3789
  968MOL0     C30593   7.352   6.382   7.376 -0.0100  0.1622 -0.6951
  968MOL0     C30594   7.217   6.359   7.373  0.0891 -0.4307 -0.1158
  968MOL0     N30595   6.515   6.478   7.228  0.8414  0.1162 -0.0787
  968MOL0     N30596   6.405   6.550   7.238  0.1503  0.1436 -0.6583
  968MOL0     C30597   5.070   6.652   7.241 -0.2714  0.0265  0.0033
  968MOL0     C30598   4.963   6.585   7.173  0.7507 -0.3253  0.1953
  968MOL0     C30599   4.600   6.317   7.034 -0.0131 -0.0679 -0.1717
  968MOL0     C30600   4.468   6.360   7.023 -0.8151 -0.0806 -0.4902
  968MOL0     C30601   4.371   6.281   6.952  0.1934 -0.2777 -0.4881
  968MOL0     C30602   4.412   6.173   6.876 -0.1164  0.1188  0.0406
  968MOL0     O30603   4.312   6.127   6.795 -0.6057  0.0866 -0.5282
  968MOL0     C30604   4.326   6.139   6.654  0.5531  0.0870 -0.1907
  968MOL0     C30605   4.307   6.282   6.604 -0.1195 -0.1771  0.4351
  968MOL0     C30606   4.167   6.349   6.625  0.0629 -0.3960  0.6566
  968MOL0     C30607   4.056   6.277   6.543  0.3670  1.0119 -0.2731
  968MOL0     C30608   3.924   6.320   6.578 -0.9917 -0.3108  0.5935
  968MOL0     C30609   3.809   6.358   6.599  0.1315  0.1559 -0.1798
  968MOL0     C30610   4.535   6.120   6.902 -0.4100  0.8765  0.1082
  968MOL0     C30611   4.627   6.193   6.979 -0.9731 -0.4701  0.0761
  968MOL0     C30612   4.772   6.140   6.981  0.2588  0.0205 -0.0101
  968MOL0     H30613   4.997   6.270   7.281  0.5762  0.2903  4.0314
  968MOL0     H30614   5.205   6.372   7.381  0.1303 -1.0146 -1.3228
  968MOL0     H30615   5.386   6.477   7.363 -2.1680  0.6071  3.2454
  968MOL0     H30616   5.411   6.585   7.231  1.1385 -1.3240 -0.6456
  968MOL0     H30617   5.492   6.658   7.521 -1.2347 -0.3426  0.2920
  968MOL0     H30618   5.515   6.770   7.391  0.6200 -0.6795 -0.6431
  968MOL0     H30619   5.652   6.596   7.272 -4.5453 -3.4004 -1.2817
  968MOL0     H30620   5.639   6.485   7.398  0.1845 -0.6408  0.5588
  968MOL0     H30621   5.778   6.753   7.419 -1.9758  0.1080 -1.0833
  968MOL0     H30622   5.736   6.668   7.557 -0.0463  2.8657  0.4777
  968MOL0     H30623   5.965   6.630   7.499 -2.5749 -0.0021  4.0551
  968MOL0     H30624   5.884   6.478   7.518 -1.2518  0.9791  1.6011
  968MOL0     H30625   5.863   6.455   7.284  0.0830 -0.0959 -0.1117
  968MOL0     H30626   5.922   6.623   7.246 -1.2397 -1.5000 -2.8102
  968MOL0     H30627   6.112   6.489   7.191 -0.0928 -0.0812  0.9705
  968MOL0     H30628   6.070   6.377   7.317 -2.4412 -1.6827 -0.8070
  968MOL0     H30629   6.184   6.661   7.363  0.6533  0.9493  1.0059
  968MOL0     H30630   6.165   6.532   7.480 -1.0987  1.6761  0.2366
  968MOL0     H30631   6.325   6.313   7.449 -0.3310 -0.8129 -1.8581
  968MOL0     H30632   6.558   6.204   7.444 -0.7590  0.8243  0.0545
  968MOL0     H30633   6.582   6.169   7.286  2.3494 -2.6954  1.9112
  968MOL0     H30634   6.757   6.324   7.246  0.5859 -0.1192  0.3949
  968MOL0     H30635   6.754   6.345   7.437 -1.9354 -5.0839  3.9857
  968MOL0     H30636   6.812   6.109   7.277  2.9985 -0.9559  0.7295
  968MOL0     H30637   6.801   6.115   7.456 -0.9068  0.1855  0.7110
  968MOL0     H30638   7.035   6.113   7.364 -1.4778 -1.7937 -1.4987
  968MOL0     H30639   6.999   6.255   7.465  0.3017  0.1578  0.1549
  968MOL0     H30640   7.173   6.323   7.047 -1.9644  3.2739 -0.0906
  968MOL0     H30641   7.392   6.400   7.040  0.4838  2.1143  0.9117
  968MOL0     H30642   7.846   6.344   7.235  1.3191 -1.1777 -0.3451
  968MOL0     H30643   8.067   6.395   7.272 -1.2553 -1.2822  1.9377
  968MOL0     H30644   8.294   6.443   7.340  3.1082  1.0695 -0.4484
  968MOL0     H30645   8.228   6.600   7.290  0.3515 -0.6787  0.3712
  968MOL0     H30646   8.389   6.711   7.468  1.8988 -0.1179  0.5140
  968MOL0     H30647   8.422   6.538   7.525  0.9574  0.5967  0.4397
  968MOL0     H30648   8.527   6.493   7.314 -0.7618  0.4603 -3.1176
  968MOL0     H30649   8.473   6.653   7.245 -1.3816 -1.6148 -0.3654
  968MOL0     H30650   8.657   6.612   7.482  1.7070 -1.3562 -2.2738
  968MOL0     H30651   8.615   6.774   7.423  0.0477 -0.3891  1.1499
  968MOL0     H30652   8.735   6.753   7.238 -1.1646  0.1238 -0.2829
  968MOL0     H30653   8.740   6.576   7.240 -0.5024  0.8944 -1.4859
  968MOL0     H30654   8.887   6.759   7.458  2.1021 -0.4934  0.0002
  968MOL0     H30655   8.906   6.592   7.443 -0.4293 -0.2484  0.0155
  968MOL0     H30656   9.001   6.769   7.215  0.8130 -0.1572 -0.9554
  968MOL0     H30657   9.021   6.595   7.230  1.3770  0.1686  0.1481
  968MOL0     H30658   9.133   6.799   7.426  1.6257 -1.1068  2.0333
  968MOL0     H30659   9.131   6.626   7.455  0.0181  0.1609 -0.4796
  968MOL0     H30660   7.980   6.639   7.607  0.0570  0.8717 -0.1923
  968MOL0     H30661   7.742   6.614   7.558  0.5834  1.3970 -0.6947
  968MOL0     H30662   7.405   6.405   7.468 -0.0834  1.2571 -0.9135
  968MOL0     H30663   7.167   6.354   7.470  1.1151 -0.4453  0.4308
  968MOL0     H30664   5.077   6.760   7.237 -2.9209  0.2680  0.3687
  968MOL0     H30665   4.891   6.648   7.121  2.3312  2.1205  0.7746
  968MOL0     H30666   4.437   6.450   7.074 -0.3702  0.9686 -2.0167
  968MOL0     H30667   4.268   6.316   6.944  0.5395  0.4681 -2.2275
  968MOL0     H30668   4.249   6.077   6.607 -0.7060  2.6015 -1.6815
  968MOL0     H30669   4.419   6.092   6.620  0.3320 -1.3254  1.0719
  968MOL0     H30670   4.330   6.282   6.497 -0.7423  1.5977  0.2562
  968MOL0     H30671   4.391   6.337   6.648 -0.3676  0.7349 -0.2031
  968MOL0     H30672   4.170   6.453   6.591 -0.1745 -0.7633 -0.5233
  968MOL0     H30673   4.135   6.339   6.729  0.1564  1.7030  0.9418
  968MOL0     H30674   4.071   6.273   6.435 -0.6088 -1.6454 -0.3691
  968MOL0     H30675   4.051   6.174   6.578  1.3775  0.1482 -2.5447
  968MOL0     H30676   3.710   6.386   6.628  0.2900  2.0224 -1.3161
  968MOL0     H30677   4.565   6.031   6.847  1.1478  2.0108 -0.9590
  968MOL0     H30678   4.807   6.127   7.083  0.6581 -1.6834 -0.3344
  968MOL0     H30679   4.779   6.037   6.944  1.0767  0.4658 -1.1677
  968MOL0     H30680   4.840   6.207   6.926 -0.0771 -0.1772 -0.6810
  969MOL0     O30681   9.457   5.994   8.203  0.6162  0.1613  0.1342
  969MOL0     C30682   9.393   6.082   8.150 -0.4787 -0.5001 -0.5912
  969MOL0     O30683   9.456   6.191   8.090  0.0718  0.5082 -0.5296
  969MOL0     C30684   9.583   6.179   8.056  0.1218 -1.3066 -0.3392
  969MOL0     C30685   9.678   6.274   8.092  0.2478  0.3974 -0.1941
  969MOL0     C30686   9.809   6.268   8.058  0.3138  0.3856  0.2885
  969MOL0     C30687   9.849   6.169   7.965 -0.2625 -0.2210  0.1318
  969MOL0     O30688   9.985   6.167   7.933  0.3158 -0.0110 -0.0467
  969MOL0     C30689  10.020   6.140   7.797  0.0239  0.4614  0.3501
  969MOL0     C30690  10.164   6.136   7.773 -0.1013 -0.2198  0.2376
  969MOL0     C30691  10.196   6.110   7.622 -0.4071  0.3330 -0.9220
  969MOL0     C30692  10.336   6.056   7.606  0.3304 -0.0092 -0.1387
  969MOL0     C30693  10.355   5.998   7.464 -0.4271  0.2834 -0.0766
  969MOL0     C30694  10.498   6.024   7.393 -0.5486 -0.5805 -0.5204
  969MOL0     C30695  10.613   5.923   7.435  0.6311  0.2572  0.5840
  969MOL0     C30696  10.671   5.968   7.573  0.5626  0.6334 -0.2034
  969MOL0     N30697  10.802   5.903   7.594  0.2460 -0.3667 -0.7904
  969MOL0     C30698  10.819   5.773   7.630 -0.4979  0.4806 -0.2393
  969MOL0     C30699  10.949   5.751   7.654 -0.8308  0.8127  0.1663
  969MOL0     C30700  11.009   5.619   7.712  1.2649 -0.0606  0.1972
  969MOL0     C30701  11.145   5.620   7.771 -0.4780  0.1254 -0.6125
  969MOL0     C30702  11.182   5.484   7.817  0.2696  0.5633 -0.5619
  969MOL0     C30703  11.328   5.447   7.844 -0.6939  0.4441  0.9865
  969MOL0     O30704  11.356   5.333   7.917  0.2662  0.0467  0.5273
  969MOL0     C30705  11.482   5.278   7.915 -0.4186  0.2937  0.0558
  969MOL0     C30706  11.601   5.365   7.909 -0.2895  0.0470 -0.6488
  969MOL0     C30707  11.728   5.324   7.932  0.1207  0.3635  0.6174
  969MOL0     C30708  11.749   5.189   7.971  0.1347  0.3357  0.4130
  969MOL0     C30709  11.887   5.139   8.016 -1.6954  0.0721 -0.4465
  969MOL0     O30710  11.904   5.010   8.054  0.5628  0.4149  0.4497
  969MOL0     C30711  12.026   4.952   8.079 -0.1938  1.0328 -0.8346
  969MOL0     C30712  12.042   4.816   8.037 -0.4185  0.0360 -0.8549
  969MOL0     C30713  12.161   4.744   8.082  0.4261  0.0852  0.3285
  969MOL0     C30714  12.241   4.797   8.183  0.2127 -0.2019  0.2986
  969MOL0     O30715  12.334   4.710   8.243  0.6296 -0.8685  0.1762
  969MOL0     C30716  12.420   4.765   8.349  0.3827 -0.4522  0.3100
  969MOL0     C30717  12.506   4.657   8.407  0.1409 -0.5075  0.5120
  969MOL0     C30718  12.601   4.591   8.308  0.0024  0.9160  0.4650
  969MOL0     C30719  12.676   4.481   8.386  0.1185 -0.4981 -0.0036
  969MOL0     C30720  12.754   4.398   8.290  0.2615  0.2688 -1.0187
  969MOL0     C30721  12.831   4.290   8.370 -0.2985 -0.5513 -0.9467
  969MOL0     C30722  12.883   4.187   8.264 -0.1554  0.4645 -0.1026
  969MOL0     C30723  13.001   4.103   8.310 -0.4428  0.2129 -0.5017
  969MOL0    Cl30724  12.972   4.045   8.481  0.6516 -0.1560 -0.3681
  969MOL0     C30725  12.223   4.927   8.215 -0.3440  0.3087 -0.6617
  969MOL0     C30726  12.120   5.008   8.163 -0.0347  0.2348 -0.5236
  969MOL0     O30727  11.986   5.219   8.010  0.6807  0.4489 -0.2785
  969MOL0     C30728  11.643   5.102   7.991  0.0422 -0.5798 -0.0361
  969MOL0     C30729  11.515   5.150   7.975 -0.3406 -0.7340  0.0362
  969MOL0     N30730  11.015   5.868   7.630  0.2397 -0.1085  0.0691
  969MOL0     N30731  10.930   5.958   7.592  1.0989 -0.5044 -0.0199
  969MOL0     C30732   9.758   6.072   7.921 -0.3587  0.3333  0.7628
  969MOL0     C30733   9.626   6.075   7.967  0.0226 -0.1939 -0.5797
  969MOL0     C30734   9.252   6.077   8.153 -0.0041 -0.6270  0.1594
  969MOL0     C30735   9.183   6.192   8.106  0.0741 -0.1546 -0.1485
  969MOL0     C30736   9.042   6.190   8.118 -0.2480 -0.3127  0.1802
  969MOL0     C30737   8.972   6.084   8.169  0.5591  0.6092 -0.0791
  969MOL0     O30738   8.833   6.071   8.166 -0.4384  0.5533 -0.0966
  969MOL0     C30739   8.754   6.168   8.087 -0.3555 -0.3041 -0.1513
  969MOL0     C30740   8.759   6.138   7.934  0.9682 -0.4175  0.0530
  969MOL0     C30741   8.727   5.994   7.900 -0.2330 -0.5048  0.8063
  969MOL0     C30742   8.704   5.979   7.749  0.5222  0.5365  0.1006
  969MOL0     C30743   8.737   5.839   7.712  0.4089 -0.2023  0.1187
  969MOL0     C30744   8.768   5.732   7.659  0.2539 -0.9643  0.3029
  969MOL0     C30745   9.033   5.977   8.221 -0.0012  0.7000  0.4954
  969MOL0     C30746   9.172   5.971   8.218 -0.2478  0.4483  0.1909
  969MOL0     C30747   9.232   5.848   8.286  0.3237  0.0479 -0.7192
  969MOL0     H30748   9.649   6.346   8.168 -0.8500  1.7069 -1.8037
  969MOL0     H30749   9.879   6.349   8.080 -0.3022  1.9469 -2.8462
  969MOL0     H30750   9.987   6.041   7.767 -0.3302  1.0659 -1.3340
  969MOL0     H30751   9.979   6.212   7.726 -0.6414  1.5809  1.7961
  969MOL0     H30752  10.203   6.060   7.841  0.1773  1.1101  1.6481
  969MOL0     H30753  10.217   6.230   7.794  1.2595 -0.6266 -1.2059
  969MOL0     H30754  10.172   6.189   7.550 -2.7766 -1.1264 -1.8640
  969MOL0     H30755  10.132   6.027   7.590  0.2078  0.0306 -1.4106
  969MOL0     H30756  10.418   6.127   7.617 -0.5053  1.2234 -1.5658
  969MOL0     H30757  10.352   5.989   7.692 -0.7069 -0.2307 -0.1117
  969MOL0     H30758  10.323   5.894   7.471  0.5441 -0.2562 -2.4519
  969MOL0     H30759  10.283   6.054   7.403  1.1629  1.8799 -0.5864
  969MOL0     H30760  10.494   6.024   7.284  1.8237 -0.4689 -0.6633
  969MOL0     H30761  10.545   6.121   7.407 -0.0957 -1.0065  1.1754
  969MOL0     H30762  10.693   5.934   7.361 -0.2160  0.4720 -0.3249
  969MOL0     H30763  10.580   5.819   7.425  0.6774  0.3697 -0.9566
  969MOL0     H30764  10.680   6.076   7.561 -1.4014  0.7047 -1.5317
  969MOL0     H30765  10.599   5.938   7.650 -0.0511  2.9051  0.1898
  969MOL0     H30766  10.737   5.705   7.648  0.5368 -1.0005 -0.8480
  969MOL0     H30767  10.935   5.591   7.787 -1.3128 -0.4091 -2.3125
  969MOL0     H30768  10.998   5.536   7.641 -0.8869  0.6235 -0.3408
  969MOL0     H30769  11.223   5.654   7.702  1.7080 -0.0315  1.6087
  969MOL0     H30770  11.150   5.686   7.859  1.3945 -1.8368  0.8578
  969MOL0     H30771  11.151   5.411   7.742 -2.7839  0.5529  0.5656
  969MOL0     H30772  11.141   5.467   7.917  4.1152  0.4420  1.1500
  969MOL0     H30773  11.385   5.532   7.885  0.2208  0.6898 -0.7096
  969MOL0     H30774  11.376   5.425   7.748 -1.0328 -1.1990  1.1738
  969MOL0     H30775  11.593   5.465   7.866 -0.4187  1.1546  1.7765
  969MOL0     H30776  11.812   5.392   7.923 -0.9042  1.9211  2.2109
  969MOL0     H30777  11.969   4.769   7.972 -2.4534 -0.3947  1.5549
  969MOL0     H30778  12.185   4.643   8.050  2.9002  0.3207  1.2330
  969MOL0     H30779  12.490   4.832   8.296  0.5295 -0.1184  0.9090
  969MOL0     H30780  12.366   4.815   8.430 -0.9650 -1.1630 -0.1250
  969MOL0     H30781  12.571   4.705   8.481  1.9655 -0.4146 -1.0855
  969MOL0     H30782  12.449   4.591   8.473 -0.0265  1.2456  2.2348
  969MOL0     H30783  12.544   4.549   8.225  0.5466 -2.0254  1.4832
  969MOL0     H30784  12.671   4.665   8.269  0.4680  2.0157  3.1265
  969MOL0     H30785  12.608   4.420   8.445 -0.3286 -2.5753 -2.4790
  969MOL0     H30786  12.738   4.539   8.455  0.4170 -0.3459 -0.3937
  969MOL0     H30787  12.818   4.462   8.229 -2.4511  1.0505 -3.1823
  969MOL0     H30788  12.686   4.356   8.216  1.4557 -1.5791 -1.1385
  969MOL0     H30789  12.911   4.344   8.421 -1.4323  0.7825 -0.5383
  969MOL0     H30790  12.767   4.241   8.444 -0.8802  1.0571 -0.3356
  969MOL0     H30791  12.926   4.237   8.177  0.9974  0.3657  0.3923
  969MOL0     H30792  12.813   4.107   8.239  2.2507 -1.3349 -1.5444
  969MOL0     H30793  13.005   4.018   8.242 -1.2785 -0.9959  0.9023
  969MOL0     H30794  13.090   4.167   8.303  0.1115 -0.2460  1.5891
  969MOL0     H30795  12.288   4.966   8.293  1.6102  0.8782 -2.4704
  969MOL0     H30796  12.104   5.105   8.208 -0.2572  0.1865 -0.5013
  969MOL0     H30797  11.659   5.001   8.029 -0.1846 -0.1265  1.2985
  969MOL0     H30798  11.428   5.092   8.004 -0.4538 -0.4671  0.2370
  969MOL0     H30799   9.796   5.996   7.852  0.0655  0.1171  1.2293
  969MOL0     H30800   9.551   6.004   7.934 -0.7192 -0.4133  1.4609
  969MOL0     H30801   9.229   6.281   8.064  0.4843 -0.9661 -1.4831
  969MOL0     H30802   8.982   6.278   8.097  0.2820 -0.5447 -2.7365
  969MOL0     H30803   8.778   6.274   8.098 -0.1789 -0.3516 -0.0811
  969MOL0     H30804   8.654   6.144   8.124  0.4457 -0.3259  2.1157
  969MOL0     H30805   8.860   6.171   7.906  0.7899 -0.8756 -1.1762
  969MOL0     H30806   8.680   6.200   7.891 -0.0165  0.9550  3.4775
  969MOL0     H30807   8.636   5.955   7.947 -0.3524 -2.6234 -1.0212
  969MOL0     H30808   8.807   5.929   7.936 -1.2722 -2.5956 -0.4212
  969MOL0     H30809   8.597   5.994   7.727  0.3027 -1.2340 -0.1874
  969MOL0     H30810   8.757   6.054   7.690 -2.4070  1.5230 -1.4654
  969MOL0     H30811   8.810   5.640   7.625 -0.8191 -0.9746 -1.0867
  969MOL0     H30812   8.970   5.899   8.262  0.5483 -0.3126 -0.5178
  969MOL0     H30813   9.285   5.882   8.375  3.1955 -0.5967 -2.0687
  969MOL0     H30814   9.153   5.776   8.311  0.6926 -0.1984 -0.2528
  969MOL0     H30815   9.304   5.798   8.219  0.2026  0.9352 -1.5409
  970MOL0     O30816   6.095   1.505   2.720 -0.3830  0.3712  0.4013
  970MOL0     C30817   6.112   1.386   2.713  0.6471  0.7327  0.3260
  970MOL0     O30818   6.229   1.331   2.672  0.2438  0.2125 -0.2380
  970MOL0     C30819   6.349   1.398   2.696 -0.2930 -0.0809  0.0746
  970MOL0     C30820   6.387   1.396   2.829 -0.9299 -0.6381 -0.6200
  970MOL0     C30821   6.510   1.448   2.871 -0.2890  0.6744 -0.0745
  970MOL0     C30822   6.584   1.522   2.790 -0.3967 -0.0251 -0.0409
  970MOL0     O30823   6.690   1.580   2.849  0.0805 -0.5666 -0.0335
  970MOL0     C30824   6.812   1.545   2.802  0.6591  0.8949  0.0189
  970MOL0     C30825   6.881   1.665   2.738  0.8177  0.4323  0.1674
  970MOL0     C30826   7.026   1.642   2.744 -0.2562 -0.6546 -0.6843
  970MOL0     C30827   7.118   1.748   2.680  0.3939 -0.1582  0.7648
  970MOL0     C30828   7.265   1.709   2.689 -0.4824 -0.1521  0.0075
  970MOL0     C30829   7.360   1.820   2.647 -0.2873 -0.4928 -0.8203
  970MOL0     C30830   7.507   1.792   2.672 -0.2426  0.7174 -0.5971
  970MOL0     C30831   7.585   1.922   2.640 -0.2856  0.4562  0.0170
  970MOL0     N30832   7.731   1.894   2.634 -0.0302  0.0456  0.3542
  970MOL0     C30833   7.799   1.784   2.588  0.9754 -0.4455 -0.0638
  970MOL0     C30834   7.930   1.809   2.612  0.3710 -1.2486  0.7693
  970MOL0     C30835   8.033   1.707   2.580 -1.3151  0.5357  0.2804
  970MOL0     C30836   8.170   1.761   2.620 -0.4277  0.2844 -0.6174
  970MOL0     C30837   8.236   1.860   2.519  0.4441  0.0049  0.3717
  970MOL0     C30838   8.381   1.898   2.547  0.1475  0.2668 -0.0919
  970MOL0     O30839   8.465   1.788   2.543  0.2460  0.2122  0.3017
  970MOL0     C30840   8.601   1.799   2.559  0.7636 -0.0672 -0.5415
  970MOL0     C30841   8.669   1.684   2.530  0.8331  0.0810 -0.2585
  970MOL0     C30842   8.809   1.681   2.556  0.2979  0.1891 -0.3006
  970MOL0     C30843   8.879   1.793   2.608  0.2566 -0.0889 -0.4082
  970MOL0     C30844   9.023   1.794   2.619 -0.1323  0.3390 -0.3019
  970MOL0     O30845   9.092   1.684   2.579 -0.2811 -1.1736 -0.6327
  970MOL0     C30846   9.228   1.675   2.600 -0.6476  0.6895  0.3753
  970MOL0     C30847   9.298   1.715   2.710  0.0794  0.3089  0.6128
  970MOL0     C30848   9.430   1.686   2.727  0.1952 -0.1571 -0.0395
  970MOL0     C30849   9.505   1.610   2.634 -0.9394 -0.0366 -0.1828
  970MOL0     O30850   9.638   1.565   2.646 -0.9279 -0.5087 -0.0763
  970MOL0     C30851   9.709   1.557   2.768 -0.0486  0.3847  0.5963
  970MOL0     C30852   9.819   1.439   2.747  0.6583  0.1131 -0.6481
  970MOL0     C30853   9.762   1.304   2.810  0.2217  0.6362 -0.3964
  970MOL0     C30854   9.641   1.258   2.735  0.4900 -0.0982 -0.5389
  970MOL0     C30855   9.583   1.121   2.803 -0.5406  0.1704 -0.4076
  970MOL0     C30856   9.482   1.059   2.709 -0.3237  0.0892 -0.4071
  970MOL0     C30857   9.426   0.924   2.760 -0.2363  0.2260 -0.2344
  970MOL0     C30858   9.524   0.814   2.776 -1.2701  0.4275  0.1227
  970MOL0    Cl30859   9.433   0.659   2.802 -0.3585 -0.2931  0.0243
  970MOL0     C30860   9.438   1.569   2.515 -0.4240  0.2244  0.0145
  970MOL0     C30861   9.298   1.594   2.503 -1.6573  0.5302 -0.3466
  970MOL0     O30862   9.079   1.898   2.655  0.1499 -0.5497 -0.4107
  970MOL0     C30863   8.807   1.906   2.635 -0.0549 -0.5803  1.0497
  970MOL0     C30864   8.672   1.908   2.610  0.1608  0.2312  0.1774
  970MOL0     N30865   7.940   1.932   2.674  0.2808  0.3580  0.6660
  970MOL0     N30866   7.823   1.983   2.678  0.4150  0.1279  0.8607
  970MOL0     C30867   6.546   1.536   2.653 -0.1880 -0.0554  0.0607
  970MOL0     C30868   6.431   1.463   2.603 -0.7672  0.6757 -0.4514
  970MOL0     C30869   5.996   1.302   2.748  0.2571  0.1229 -0.3444
  970MOL0     C30870   6.014   1.154   2.761  0.8577  0.4687 -0.3694
  970MOL0     C30871   5.908   1.065   2.795  0.6328 -0.1379 -0.0655
  970MOL0     C30872   5.778   1.117   2.812  0.4985 -0.6134 -1.0948
  970MOL0     O30873   5.660   1.058   2.828 -0.6283  0.3487  0.2970
  970MOL0     C30874   5.625   0.927   2.772 -0.4305  0.3525 -0.2473
  970MOL0     C30875   5.676   0.805   2.847 -0.3465  0.1438 -0.3169
  970MOL0     C30876   5.708   0.827   2.994 -0.0383  1.8204 -0.5207
  970MOL0     C30877   5.583   0.828   3.083  0.3287 -0.2811 -0.0800
  970MOL0     C30878   5.628   0.852   3.217 -0.1513 -0.2262 -0.8792
  970MOL0     C30879   5.671   0.870   3.327 -0.2109 -0.1484 -0.6808
  970MOL0     C30880   5.755   1.256   2.798 -0.8158 -0.5361  0.6659
  970MOL0     C30881   5.859   1.349   2.769 -0.0138 -0.2182 -0.6063
  970MOL0     C30882   5.817   1.495   2.753 -1.1601  0.1750 -0.6544
  970MOL0     H30883   6.329   1.334   2.896 -2.0148  1.8743  0.9354
  970MOL0     H30884   6.535   1.430   2.975 -1.2814 -0.4214 -0.0096
  970MOL0     H30885   6.876   1.496   2.877  0.5965 -2.6883 -2.0376
  970MOL0     H30886   6.803   1.472   2.721 -2.1009  0.1391  0.8963
  970MOL0     H30887   6.857   1.760   2.785  0.8675  0.3965  0.2657
  970MOL0     H30888   6.850   1.662   2.633 -0.6637 -0.6410  0.6041
  970MOL0     H30889   7.056   1.542   2.711  0.4293 -0.4557 -0.6702
  970MOL0     H30890   7.054   1.651   2.849  0.4377  3.0862 -1.0631
  970MOL0     H30891   7.089   1.761   2.576 -0.8020  1.8530  1.2935
  970MOL0     H30892   7.095   1.845   2.725  1.9277  0.8080 -0.4527
  970MOL0     H30893   7.284   1.669   2.789 -1.8832  1.0708  0.7928
  970MOL0     H30894   7.295   1.635   2.613  1.0335  0.9948 -0.5630
  970MOL0     H30895   7.352   1.831   2.538 -0.3497  2.4246 -0.6020
  970MOL0     H30896   7.330   1.917   2.687 -2.1100 -0.3936 -2.2740
  970MOL0     H30897   7.542   1.704   2.617 -2.5349 -0.1471 -0.7494
  970MOL0     H30898   7.516   1.768   2.779  0.7727 -2.6407 -1.3165
  970MOL0     H30899   7.547   1.964   2.546  1.1374 -1.4684 -1.4984
  970MOL0     H30900   7.554   1.992   2.719 -3.0738 -0.0867 -0.4706
  970MOL0     H30901   7.767   1.687   2.552 -0.9146 -0.2855  1.0888
  970MOL0     H30902   8.020   1.609   2.626 -0.6198 -0.0322 -0.6982
  970MOL0     H30903   8.025   1.686   2.472  0.2530 -1.3586  0.4686
  970MOL0     H30904   8.165   1.801   2.721 -0.0767 -0.3933 -0.3206
  970MOL0     H30905   8.236   1.673   2.618  0.9710  1.2990 -0.2531
  970MOL0     H30906   8.171   1.949   2.518  0.2109 -0.0952  2.6765
  970MOL0     H30907   8.239   1.816   2.419 -0.7254 -0.1418  0.3932
  970MOL0     H30908   8.393   1.942   2.646 -0.9839  0.4191 -0.0071
  970MOL0     H30909   8.400   1.972   2.469 -1.5310  0.4822 -0.3296
  970MOL0     H30910   8.614   1.598   2.494  0.9319 -0.2049  0.2803
  970MOL0     H30911   8.857   1.586   2.533  0.0734  0.2424 -1.0353
  970MOL0     H30912   9.243   1.760   2.792 -1.1516 -0.3661  0.1828
  970MOL0     H30913   9.487   1.717   2.814 -1.6373  1.4194  0.6684
  970MOL0     H30914   9.751   1.658   2.774 -0.6127  1.2578 -4.8212
  970MOL0     H30915   9.641   1.535   2.851 -0.8510 -2.5757 -0.6991
  970MOL0     H30916   9.851   1.423   2.644 -1.0501 -0.7504 -1.0799
  970MOL0     H30917   9.906   1.473   2.803  1.3367 -0.3429 -1.4172
  970MOL0     H30918   9.848   1.236   2.815 -0.5763 -0.3145  1.4768
  970MOL0     H30919   9.729   1.332   2.911  1.3198  4.0277 -0.8550
  970MOL0     H30920   9.673   1.247   2.631  1.7267 -0.8246 -0.1022
  970MOL0     H30921   9.559   1.330   2.744 -0.5583 -1.3157 -0.0465
  970MOL0     H30922   9.546   1.145   2.903  2.0663  1.6244  0.3135
  970MOL0     H30923   9.671   1.060   2.824 -0.1466  0.5849 -0.8075
  970MOL0     H30924   9.400   1.130   2.698 -1.4746 -0.7549  2.0939
  970MOL0     H30925   9.530   1.034   2.613 -1.6968  0.1956 -1.1486
  970MOL0     H30926   9.340   0.893   2.700  0.1152  0.9641 -1.1383
  970MOL0     H30927   9.382   0.941   2.858  1.4198  0.0512  0.5760
  970MOL0     H30928   9.596   0.799   2.695 -0.4089  1.6653  0.6374
  970MOL0     H30929   9.589   0.835   2.862  2.0410 -0.7974 -1.9036
  970MOL0     H30930   9.500   1.506   2.451 -0.9850 -1.7751  1.3447
  970MOL0     H30931   9.252   1.563   2.410  0.8215  1.6623 -2.0697
  970MOL0     H30932   8.855   1.991   2.683 -1.7938  0.5716  0.8050
  970MOL0     H30933   8.615   1.990   2.653 -0.6780 -0.5772  0.6352
  970MOL0     H30934   6.631   1.579   2.600 -0.7168  0.9729  0.0335
  970MOL0     H30935   6.403   1.464   2.498  2.3267 -2.8745 -1.5411
  970MOL0     H30936   6.108   1.103   2.777 -0.3337 -1.2842  1.6291
  970MOL0     H30937   5.923   0.958   2.793  2.9600  0.1238 -1.9061
  970MOL0     H30938   5.661   0.919   2.669  1.8357 -0.4881  0.5390
  970MOL0     H30939   5.516   0.924   2.780 -0.3754  0.2796  0.5660
  970MOL0     H30940   5.767   0.772   2.796  0.0705 -1.4150  1.3531
  970MOL0     H30941   5.595   0.732   2.848  0.1209 -0.3769  1.0079
  970MOL0     H30942   5.760   0.923   3.001  1.8704  0.7783  0.3012
  970MOL0     H30943   5.773   0.748   3.032 -2.3165  1.2406  2.6066
  970MOL0     H30944   5.505   0.900   3.056 -0.2069  0.0447  2.1340
  970MOL0     H30945   5.532   0.732   3.072 -0.9653  0.0693  2.2651
  970MOL0     H30946   5.720   0.864   3.422  0.4031 -1.9929 -1.0903
  970MOL0     H30947   5.653   1.292   2.805 -1.1652 -1.3835  0.1557
  970MOL0     H30948   5.708   1.506   2.756 -1.2681 -0.9148 -0.1171
  970MOL0     H30949   5.863   1.548   2.836 -0.9730  1.2056 -1.3929
  970MOL0     H30950   5.864   1.543   2.667 -0.6867  1.4110  0.2814
  971MOL0     O30951   7.473   2.605   3.124 -0.1537 -0.8483 -0.0800
  971MOL0     C30952   7.428   2.566   3.023  0.3153 -0.2037  0.7905
  971MOL0     O30953   7.491   2.566   2.895  0.1864 -0.1264 -0.4655
  971MOL0     C30954   7.624   2.597   2.898 -0.0964  0.3310 -0.1245
  971MOL0     C30955   7.711   2.503   2.940  0.4992  0.5866  0.5210
  971MOL0     C30956   7.851   2.535   2.929  0.2133 -0.4697  1.1075
  971MOL0     C30957   7.897   2.660   2.883 -0.2988 -0.0415  0.2094
  971MOL0     O30958   8.030   2.695   2.885  0.5759  0.1178 -0.0076
  971MOL0     C30959   8.085   2.782   2.785 -0.1533  0.5876 -0.1503
  971MOL0     C30960   8.241   2.789   2.806  0.7647 -0.3821 -0.1066
  971MOL0     C30961   8.303   2.859   2.684  0.1254 -0.0409 -0.6004
  971MOL0     C30962   8.453   2.882   2.691 -0.3054 -0.3631  0.3877
  971MOL0     C30963   8.542   2.771   2.632 -0.8538 -0.3212 -0.3251
  971MOL0     C30964   8.696   2.814   2.643  0.8719 -0.7746  0.4200
  971MOL0     C30965   8.789   2.693   2.617 -0.4108  0.2137  0.0627
  971MOL0     C30966   8.926   2.746   2.576 -0.2477  0.2194  0.0630
  971MOL0     N30967   9.007   2.813   2.684  0.2220 -0.0135 -0.1386
  971MOL0     C30968   9.114   2.765   2.759 -0.2064  0.0867  0.6648
  971MOL0     C30969   9.126   2.854   2.858 -0.6264 -0.7615 -0.1146
  971MOL0     C30970   9.239   2.841   2.966  0.5522 -0.1029 -0.0036
  971MOL0     C30971   9.388   2.883   2.923  0.5487 -0.6945  0.4067
  971MOL0     C30972   9.484   2.798   3.001  0.6652 -0.6557  0.0355
  971MOL0     C30973   9.621   2.862   3.019 -0.0296  0.2774 -0.8161
  971MOL0     O30974   9.614   2.982   3.097 -0.0363  0.3233  0.0284
  971MOL0     C30975   9.736   3.030   3.131 -0.0036  0.6056 -0.0056
  971MOL0     C30976   9.861   2.999   3.070  0.0415  0.1772  0.2093
  971MOL0     C30977   9.976   3.054   3.118 -0.3959 -0.2786  0.0554
  971MOL0     C30978   9.983   3.154   3.220  0.5184 -0.1890  0.7813
  971MOL0     C30979  10.107   3.218   3.255 -0.1091 -0.1532 -0.7746
  971MOL0     O30980  10.217   3.147   3.224  0.4997 -0.0192 -0.3075
  971MOL0     C30981  10.335   3.208   3.259 -0.5070  0.3519 -0.8638
  971MOL0     C30982  10.391   3.306   3.181  0.1671  0.1534 -0.0985
  971MOL0     C30983  10.510   3.373   3.209 -0.6081  0.2825 -0.2190
  971MOL0     C30984  10.572   3.330   3.329 -0.1659 -0.2254 -1.2074
  971MOL0     O30985  10.677   3.408   3.375  0.3961 -0.1282 -0.2357
  971MOL0     C30986  10.797   3.403   3.291  0.3299 -0.7095 -0.0423
  971MOL0     C30987  10.910   3.471   3.370 -0.1792 -0.5877  0.2407
  971MOL0     C30988  11.044   3.414   3.328  0.4206  0.2626  0.4885
  971MOL0     C30989  11.163   3.517   3.346 -0.6176 -0.3456  0.0169
  971MOL0     C30990  11.278   3.494   3.239 -0.6270  0.4758 -0.1345
  971MOL0     C30991  11.354   3.354   3.274  0.2947  0.7456  0.6325
  971MOL0     C30992  11.476   3.339   3.184 -0.3632 -0.2463  0.0378
  971MOL0     C30993  11.564   3.223   3.225 -0.9041  0.0429  0.0551
  971MOL0    Cl30994  11.651   3.167   3.080 -0.0445  0.1775 -0.1636
  971MOL0     C30995  10.516   3.230   3.408 -0.1693  0.3849  0.2878
  971MOL0     C30996  10.398   3.160   3.368 -0.1015 -0.7623 -0.5336
  971MOL0     O30997  10.105   3.322   3.322  0.3349 -0.2375  1.0915
  971MOL0     C30998   9.857   3.199   3.262  0.1511  1.1135 -0.3900
  971MOL0     C30999   9.741   3.131   3.228 -0.7863 -0.0841 -0.3409
  971MOL0     N31000   9.035   2.956   2.831  0.0960 -0.0605 -0.8786
  971MOL0     N31001   8.961   2.929   2.736  0.4997  0.4534  0.3302
  971MOL0     C31002   7.793   2.745   2.829  0.3678  0.2516 -0.3204
  971MOL0     C31003   7.660   2.716   2.842 -0.4947  0.0305 -0.0084
  971MOL0     C31004   7.281   2.533   3.023  0.2527 -0.7074  0.2019
  971MOL0     C31005   7.235   2.420   2.958  0.2368  0.2613 -0.4959
  971MOL0     C31006   7.101   2.389   2.954 -0.5211  0.5369 -0.5781
  971MOL0     C31007   7.006   2.466   3.020 -0.1136 -0.8346  0.2724
  971MOL0     O31008   6.871   2.452   3.026  0.8066 -0.5936 -0.4462
  971MOL0     C31009   6.821   2.322   3.046  0.6563  0.1858  0.3724
  971MOL0     C31010   6.677   2.327   3.100 -0.0932 -0.3672 -0.3417
  971MOL0     C31011   6.653   2.206   3.189 -0.5604  0.0497  0.8059
  971MOL0     C31012   6.520   2.214   3.268  0.0630 -0.1107  0.1080
  971MOL0     C31013   6.415   2.222   3.165 -0.1316 -0.1067 -0.6918
  971MOL0     C31014   6.332   2.229   3.074 -0.1926  0.2940 -0.2661
  971MOL0     C31015   7.053   2.581   3.087  0.2226  0.4264  0.3493
  971MOL0     C31016   7.185   2.619   3.079 -0.3404 -0.4606  0.4332
  971MOL0     C31017   7.220   2.751   3.143  0.8339 -0.0613  1.0717
  971MOL0     H31018   7.675   2.403   2.961 -0.2930  1.0687  1.5696
  971MOL0     H31019   7.920   2.460   2.965 -1.8319 -0.2428  6.4110
  971MOL0     H31020   8.053   2.743   2.688 -1.7437 -0.7629  0.8594
  971MOL0     H31021   8.051   2.885   2.789  0.4090  0.7347  2.2742
  971MOL0     H31022   8.283   2.688   2.808 -0.5718 -1.0049 -1.5971
  971MOL0     H31023   8.271   2.843   2.897  0.4112 -1.3031  0.5717
  971MOL0     H31024   8.265   2.961   2.688  0.4923  0.0584  1.0909
  971MOL0     H31025   8.273   2.806   2.592 -0.9564 -1.1065  0.3310
  971MOL0     H31026   8.467   2.972   2.630  0.2888 -0.6441  0.1046
  971MOL0     H31027   8.493   2.899   2.792 -2.7980  1.6884  1.1461
  971MOL0     H31028   8.522   2.680   2.690 -2.8897  1.0098  1.1930
  971MOL0     H31029   8.518   2.751   2.527 -2.7355 -1.8396  0.3172
  971MOL0     H31030   8.706   2.890   2.565 -0.6754 -0.8657  0.0954
  971MOL0     H31031   8.720   2.861   2.739 -1.7315  0.1684  0.6838
  971MOL0     H31032   8.742   2.640   2.534 -0.3424  1.0244 -0.5001
  971MOL0     H31033   8.804   2.631   2.706  2.6266  0.5575 -0.1170
  971MOL0     H31034   8.992   2.665   2.544  0.7854  0.7509  0.8087
  971MOL0     H31035   8.918   2.815   2.492  0.4564  0.7763  0.4499
  971MOL0     H31036   9.175   2.675   2.753  1.9331  1.3880  1.6759
  971MOL0     H31037   9.199   2.900   3.050  0.1545 -0.2422 -0.0909
  971MOL0     H31038   9.234   2.736   2.995  1.6882 -0.4892 -1.1330
  971MOL0     H31039   9.400   2.870   2.815 -0.7729  0.3672  0.1064
  971MOL0     H31040   9.405   2.988   2.946  1.1325 -0.5157 -0.7697
  971MOL0     H31041   9.508   2.698   2.961 -0.7376 -0.0981 -2.4322
  971MOL0     H31042   9.441   2.792   3.101  0.5726  2.1357  0.2278
  971MOL0     H31043   9.670   2.875   2.923  2.4688 -0.5705  0.2688
  971MOL0     H31044   9.688   2.789   3.065  0.9601  1.1490 -0.8606
  971MOL0     H31045   9.870   2.923   2.993 -0.9975 -1.4013  1.5806
  971MOL0     H31046  10.071   3.021   3.076 -0.2538 -3.3333  2.4757
  971MOL0     H31047  10.331   3.345   3.099 -0.1020  0.1253  0.0833
  971MOL0     H31048  10.544   3.447   3.138 -0.5404 -2.8364 -3.7834
  971MOL0     H31049  10.814   3.300   3.260 -2.0572 -0.2021 -3.6131
  971MOL0     H31050  10.783   3.464   3.202 -0.7922  0.5778  0.9591
  971MOL0     H31051  10.903   3.579   3.357 -0.3299 -0.6423 -0.1438
  971MOL0     H31052  10.903   3.460   3.479 -2.5652  2.8985  0.5949
  971MOL0     H31053  11.058   3.319   3.380 -2.4404 -1.4082 -1.5152
  971MOL0     H31054  11.037   3.385   3.222 -1.9068  0.0740  0.6460
  971MOL0     H31055  11.208   3.527   3.445  0.6317  1.8274 -0.7042
  971MOL0     H31056  11.131   3.619   3.321 -0.9927 -0.1259  1.3509
  971MOL0     H31057  11.358   3.569   3.249 -0.8047  0.6775 -0.2068
  971MOL0     H31058  11.243   3.496   3.135  2.4701 -2.7929 -1.4307
  971MOL0     H31059  11.379   3.336   3.378 -1.2627 -1.3144  0.7006
  971MOL0     H31060  11.286   3.275   3.241 -0.5989  2.2149 -1.2372
  971MOL0     H31061  11.536   3.431   3.188 -1.5905  0.5595  0.5783
  971MOL0     H31062  11.432   3.317   3.086 -1.5103 -0.2492  0.5297
  971MOL0     H31063  11.635   3.256   3.302  0.6576 -1.3645 -0.7167
  971MOL0     H31064  11.509   3.136   3.263 -1.9400  2.1053  3.7352
  971MOL0     H31065  10.560   3.206   3.504  2.2074  3.0258 -0.0060
  971MOL0     H31066  10.361   3.079   3.429 -0.9278 -0.3931 -0.5380
  971MOL0     H31067   9.847   3.282   3.332 -0.5362  0.6654  0.0569
  971MOL0     H31068   9.648   3.156   3.278  0.0866 -1.0514  1.8839
  971MOL0     H31069   7.817   2.843   2.790  1.3005  1.6904  3.3960
  971MOL0     H31070   7.581   2.782   2.806  0.2612  0.7896 -0.3249
  971MOL0     H31071   7.301   2.352   2.904 -1.8647 -1.9438 -0.4793
  971MOL0     H31072   7.073   2.305   2.892 -1.0056 -0.4577  0.9334
  971MOL0     H31073   6.885   2.259   3.108  0.3188 -0.8952 -0.3326
  971MOL0     H31074   6.812   2.278   2.946 -1.4830  3.4217 -1.0332
  971MOL0     H31075   6.600   2.351   3.026  0.3254  1.5265 -0.2072
  971MOL0     H31076   6.663   2.414   3.165 -0.3145  1.0804 -2.2504
  971MOL0     H31077   6.730   2.189   3.264  0.5119  0.4964 -0.1595
  971MOL0     H31078   6.654   2.121   3.120 -1.1987 -0.1882  1.0752
  971MOL0     H31079   6.506   2.119   3.321 -0.7461 -0.4512 -0.6787
  971MOL0     H31080   6.507   2.304   3.328  0.4155 -0.6036  0.9322
  971MOL0     H31081   6.258   2.231   2.997 -1.9199 -0.5095  1.2842
  971MOL0     H31082   6.976   2.632   3.144  1.8124  0.2314  2.8383
  971MOL0     H31083   7.145   2.779   3.217  2.1767 -3.0418  3.8201
  971MOL0     H31084   7.311   2.760   3.202  2.9276 -1.1524 -1.7518
  971MOL0     H31085   7.226   2.832   3.070 -2.9974 -0.5848 -0.0630
  972MOL0     O31086   8.202   9.179   0.519 -0.5755  0.2898 -0.6413
  972MOL0     C31087   8.226   9.085   0.453  0.2844  0.1279 -0.3545
  972MOL0     O31088   8.338   9.068   0.369  0.0855 -0.1453  0.7427
  972MOL0     C31089   8.447   9.159   0.348  0.2425  0.1449  0.5428
  972MOL0     C31090   8.563   9.120   0.275  0.1520  0.4373  0.2862
  972MOL0     C31091   8.670   9.209   0.251 -0.4121  0.1844  0.1246
  972MOL0     C31092   8.663   9.340   0.291  0.6895  0.2245 -0.2327
  972MOL0     O31093   8.771   9.420   0.249 -0.3002  0.2648 -0.1049
  972MOL0     C31094   8.764   9.563   0.269 -0.7860 -0.4788  0.0991
  972MOL0     C31095   8.906   9.609   0.221  0.3827 -0.4842 -0.2327
  972MOL0     C31096   9.021   9.528   0.284  0.0515  1.0596 -0.3896
  972MOL0     C31097   9.140   9.618   0.292  0.0211 -0.7778  0.3083
  972MOL0     C31098   9.260   9.544   0.357 -0.1722  0.6824  0.4151
  972MOL0     C31099   9.390   9.615   0.334 -0.0153  0.3842 -1.0343
  972MOL0     C31100   9.512   9.565   0.419  0.5408 -0.7892 -0.0370
  972MOL0     C31101   9.511   9.414   0.429 -0.3073  0.6889 -0.5981
  972MOL0     N31102   9.637   9.365   0.486  0.2302  0.4534 -0.7959
  972MOL0     C31103   9.658   9.340   0.623 -0.0970 -0.1446  0.1981
  972MOL0     C31104   9.793   9.306   0.631 -0.8056  0.3710  0.8735
  972MOL0     C31105   9.868   9.290   0.768 -0.8038  0.4252  0.4409
  972MOL0     C31106   9.834   9.149   0.814  1.7042  0.4659 -0.1167
  972MOL0     C31107   9.874   9.034   0.711 -0.8372  0.8365 -0.1542
  972MOL0     C31108   9.905   8.893   0.778 -0.4789  0.3208  0.8936
  972MOL0     O31109   9.958   8.788   0.686 -0.5326 -0.4120 -0.2603
  972MOL0     C31110  10.096   8.774   0.681  1.2751 -0.5675  0.9106
  972MOL0     C31111  10.191   8.868   0.724  0.3579  0.3556  0.4658
  972MOL0     C31112  10.326   8.845   0.695  0.1747  0.2728 -0.1024
  972MOL0     C31113  10.369   8.741   0.610  0.4121  0.1598  0.3521
  972MOL0     C31114  10.512   8.717   0.576 -0.2761  0.4931 -0.4958
  972MOL0     O31115  10.601   8.808   0.623 -0.2723 -0.2445 -0.1466
  972MOL0     C31116  10.736   8.774   0.623  0.0135 -0.1892 -1.1190
  972MOL0     C31117  10.800   8.760   0.740 -0.5713  0.8507  0.3000
  972MOL0     C31118  10.937   8.724   0.735 -0.4274 -0.3085 -0.2123
  972MOL0     C31119  11.009   8.719   0.615 -0.5721 -0.5777  1.0501
  972MOL0     O31120  11.134   8.667   0.622 -0.1411 -0.4067  0.0303
  972MOL0     C31121  11.230   8.676   0.521  0.1152 -0.0316 -0.0073
  972MOL0     C31122  11.349   8.599   0.576 -0.2638  0.5124 -1.3938
  972MOL0     C31123  11.456   8.576   0.471  0.4905 -0.0529  0.2094
  972MOL0     C31124  11.589   8.636   0.519 -1.2290  0.1724 -0.0925
  972MOL0     C31125  11.652   8.552   0.631 -0.1654  0.4787  0.0603
  972MOL0     C31126  11.796   8.580   0.647 -0.4040 -0.4347 -0.4321
  972MOL0     C31127  11.860   8.477   0.750  0.1427 -0.7902 -0.2401
  972MOL0     C31128  12.009   8.486   0.764 -0.1359  0.4275  1.6928
  972MOL0    Cl31129  12.095   8.438   0.617 -0.1185  0.1083 -0.0163
  972MOL0     C31130  10.941   8.748   0.496  0.3027  0.5576  0.5308
  972MOL0     C31131  10.802   8.767   0.499 -1.1947  0.1486 -0.2522
  972MOL0     O31132  10.536   8.615   0.512 -0.0836 -0.4315 -0.8157
  972MOL0     C31133  10.264   8.656   0.556  0.1385  0.5537  0.1645
  972MOL0     C31134  10.134   8.672   0.600 -0.4727  0.1429 -0.1495
  972MOL0     N31135   9.842   9.292   0.498 -0.3056  0.0465 -0.0172
  972MOL0     N31136   9.744   9.330   0.416  0.1839 -0.4150  0.0120
  972MOL0     C31137   8.551   9.379   0.362 -0.0535 -0.7566 -0.0955
  972MOL0     C31138   8.449   9.288   0.388  0.1738 -0.4054 -0.6523
  972MOL0     C31139   8.125   8.973   0.454 -0.1169 -0.5415 -0.6642
  972MOL0     C31140   8.157   8.864   0.374  0.0765 -0.6993  0.2335
  972MOL0     C31141   8.073   8.758   0.360 -0.2358 -0.5804 -0.1856
  972MOL0     C31142   7.947   8.757   0.425 -0.3130 -0.0820 -0.4049
  972MOL0     O31143   7.861   8.660   0.392  0.1235 -0.6515  0.2572
  972MOL0     C31144   7.728   8.636   0.458  1.0663 -0.4225 -0.6518
  972MOL0     C31145   7.635   8.535   0.389 -0.0194 -0.0571 -0.2659
  972MOL0     C31146   7.599   8.572   0.244  0.3946  0.6072  1.0378
  972MOL0     C31147   7.515   8.456   0.181  0.5583  0.7768 -0.8776
  972MOL0     C31148   7.392   8.425   0.250 -0.6721 -0.7242  0.1669
  972MOL0     C31149   7.284   8.415   0.297  0.2810 -0.6409  0.1939
  972MOL0     C31150   7.920   8.864   0.518  0.1443  0.6565  0.7409
  972MOL0     C31151   8.007   8.970   0.537 -0.6968 -0.5062  0.0790
  972MOL0     C31152   7.964   9.068   0.647 -0.2586  0.2307 -0.1713
  972MOL0     H31153   8.551   9.018   0.241 -2.7003  1.4520 -2.2312
  972MOL0     H31154   8.761   9.180   0.199  0.0228  1.6611  0.0132
  972MOL0     H31155   8.690   9.603   0.199  0.6182 -0.9140 -1.7286
  972MOL0     H31156   8.740   9.598   0.369  0.7137  0.2929  0.2185
  972MOL0     H31157   8.916   9.714   0.251  0.8586  0.2305 -2.5991
  972MOL0     H31158   8.914   9.596   0.112 -1.6054 -0.0025 -0.4686
  972MOL0     H31159   9.045   9.441   0.222 -0.3362  0.3615  0.4223
  972MOL0     H31160   9.004   9.497   0.388  1.1565  1.7983  0.0253
  972MOL0     H31161   9.154   9.655   0.190 -4.6027 -0.2152 -0.3167
  972MOL0     H31162   9.116   9.698   0.362  0.7376 -1.6423  1.5936
  972MOL0     H31163   9.237   9.528   0.462 -0.0969  2.4253  0.7240
  972MOL0     H31164   9.270   9.448   0.306 -1.0632  0.5881  0.4065
  972MOL0     H31165   9.420   9.604   0.229  2.8000  1.6624 -0.4615
  972MOL0     H31166   9.377   9.722   0.351  2.7228  0.4297  1.7343
  972MOL0     H31167   9.519   9.607   0.520 -2.3448 -2.3172  0.9047
  972MOL0     H31168   9.606   9.597   0.371 -0.1126  0.7158 -0.3679
  972MOL0     H31169   9.431   9.369   0.487 -0.2174 -2.8383 -2.9005
  972MOL0     H31170   9.496   9.373   0.329 -0.7221 -1.6451  0.3731
  972MOL0     H31171   9.586   9.360   0.701 -1.0269  0.5771 -0.8161
  972MOL0     H31172   9.976   9.298   0.753 -0.9507 -1.0189 -1.8966
  972MOL0     H31173   9.843   9.368   0.840  2.1789  0.7433  1.2230
  972MOL0     H31174   9.875   9.136   0.915  0.6754  2.8583  0.6931
  972MOL0     H31175   9.727   9.139   0.837  1.7327 -3.4517 -0.9678
  972MOL0     H31176   9.965   9.072   0.663 -0.2453  2.3483  2.0214
  972MOL0     H31177   9.797   9.012   0.636  0.8466 -2.8148 -1.0685
  972MOL0     H31178   9.807   8.851   0.806 -0.3081  0.1898  1.2923
  972MOL0     H31179   9.968   8.906   0.866  0.7497 -0.4495  0.1598
  972MOL0     H31180  10.166   8.945   0.797 -0.9843  1.5149 -1.1537
  972MOL0     H31181  10.393   8.911   0.749  0.2258  0.1399 -0.0027
  972MOL0     H31182  10.740   8.763   0.830 -0.1058 -0.2131  0.6690
  972MOL0     H31183  10.996   8.703   0.824  0.7914 -1.0520 -1.1627
  972MOL0     H31184  11.197   8.616   0.436  1.3135  1.9058 -1.9397
  972MOL0     H31185  11.258   8.777   0.488  1.3939  0.6428  2.8643
  972MOL0     H31186  11.396   8.655   0.658 -0.0284  0.2657 -1.3589
  972MOL0     H31187  11.320   8.499   0.612  2.9113 -1.5308 -3.9990
  972MOL0     H31188  11.478   8.472   0.442  0.8520 -0.1973  0.9481
  972MOL0     H31189  11.428   8.618   0.375  3.2825 -1.6531 -1.4612
  972MOL0     H31190  11.580   8.737   0.559  0.2464  1.1080 -2.0033
  972MOL0     H31191  11.653   8.636   0.431  0.3567  0.5880  1.0199
  972MOL0     H31192  11.651   8.446   0.604  3.1719  0.3726 -0.0748
  972MOL0     H31193  11.602   8.561   0.728  1.0152 -0.9593  0.8545
  972MOL0     H31194  11.839   8.558   0.549 -1.7287 -3.1725 -0.4895
  972MOL0     H31195  11.819   8.681   0.682  2.5186 -0.4537 -2.0460
  972MOL0     H31196  11.809   8.383   0.730  0.2561 -0.7675 -0.6482
  972MOL0     H31197  11.819   8.506   0.847 -1.8167  1.0405 -1.5246
  972MOL0     H31198  12.044   8.584   0.798  3.9561  0.3702 -1.5089
  972MOL0     H31199  12.037   8.416   0.844  1.0675  1.5381  2.2849
  972MOL0     H31200  10.991   8.738   0.400  0.5046 -1.2269  0.7859
  972MOL0     H31201  10.758   8.783   0.401 -0.5478  0.2496 -0.5331
  972MOL0     H31202  10.288   8.577   0.487  1.0155  0.9610 -0.0114
  972MOL0     H31203  10.048   8.611   0.574 -0.4246  0.2510 -0.5869
  972MOL0     H31204   8.544   9.484   0.389  3.3596 -0.8552  1.6351
  972MOL0     H31205   8.369   9.317   0.456 -0.3350  0.4722 -1.5936
  972MOL0     H31206   8.252   8.860   0.322  0.7930 -0.2715  1.4492
  972MOL0     H31207   8.085   8.665   0.305 -4.4129 -1.2785 -0.2866
  972MOL0     H31208   7.670   8.728   0.447 -0.7892 -1.8035 -4.1815
  972MOL0     H31209   7.729   8.608   0.564 -1.8019 -0.8844 -0.6512
  972MOL0     H31210   7.540   8.525   0.442  1.1003 -3.5732  1.3885
  972MOL0     H31211   7.684   8.438   0.398 -3.4741 -1.8582  0.7284
  972MOL0     H31212   7.691   8.576   0.184  0.4588  2.2987  1.2176
  972MOL0     H31213   7.532   8.655   0.224 -2.0030 -1.2925  0.7060
  972MOL0     H31214   7.481   8.486   0.081 -0.2274  2.0150 -0.2716
  972MOL0     H31215   7.575   8.368   0.159 -1.3945 -0.4906 -1.4049
  972MOL0     H31216   7.181   8.404   0.323 -0.2008  2.4720  0.0233
  972MOL0     H31217   7.834   8.854   0.583  0.7475  0.3645  1.5120
  972MOL0     H31218   8.024   9.050   0.737 -0.0770  1.9323  0.0813
  972MOL0     H31219   7.978   9.173   0.623  3.3718  0.3131  1.5227
  972MOL0     H31220   7.863   9.048   0.683 -1.0336  3.4974 -0.2678
  973MOL0     O31221   3.419   3.962   1.922 -0.2167 -0.4173  0.6546
  973MOL0     C31222   3.436   4.033   2.021  0.3148  0.2963 -0.9120
  973MOL0     O31223   3.542   4.025   2.104 -0.7596 -0.1020  0.0389
  973MOL0     C31224   3.663   3.988   2.046  0.5497  0.3187 -0.1177
  973MOL0     C31225   3.744   4.088   1.999 -0.8026 -1.1539 -0.1592
  973MOL0     C31226   3.879   4.058   1.947  0.1272 -0.0250  0.5463
  973MOL0     C31227   3.920   3.924   1.952 -0.5596  1.1713 -0.6390
  973MOL0     O31228   4.038   3.863   1.922  0.2925  0.2064 -0.3075
  973MOL0     C31229   4.146   3.945   1.907 -0.2821 -0.2273 -0.3320
  973MOL0     C31230   4.225   3.970   2.039 -0.9346 -0.1915 -0.0955
  973MOL0     C31231   4.299   3.839   2.087 -0.1555 -0.1895  0.7151
  973MOL0     C31232   4.391   3.857   2.206  0.3286  0.5304  0.1573
  973MOL0     C31233   4.430   3.722   2.260  0.1002  0.1166 -0.4685
  973MOL0     C31234   4.491   3.743   2.407  0.1534  0.9530  0.7893
  973MOL0     C31235   4.518   3.611   2.481 -0.2510 -0.4037 -0.0789
  973MOL0     C31236   4.651   3.551   2.436  0.5751 -0.3024  0.3238
  973MOL0     N31237   4.772   3.607   2.500 -0.5038 -0.4416 -0.0804
  973MOL0     C31238   4.813   3.581   2.629  0.0831 -0.1989  0.4314
  973MOL0     C31239   4.920   3.654   2.650 -0.9147 -0.0681 -0.8451
  973MOL0     C31240   4.991   3.659   2.785  0.0168 -0.0901 -0.4088
  973MOL0     C31241   5.066   3.788   2.816  0.5113 -0.7377  0.5700
  973MOL0     C31242   5.196   3.754   2.892  0.5874 -0.4885 -0.1473
  973MOL0     C31243   5.249   3.884   2.961  0.0924  0.5932  0.6820
  973MOL0     O31244   5.373   3.861   3.023 -0.8257  0.5589 -0.2279
  973MOL0     C31245   5.491   3.889   2.959  0.5273 -0.0672  0.6300
  973MOL0     C31246   5.606   3.880   3.027 -0.0049 -0.4163 -0.0953
  973MOL0     C31247   5.729   3.905   2.967 -0.1744 -0.3362  0.7970
  973MOL0     C31248   5.741   3.950   2.833  0.1951 -0.9685 -0.2456
  973MOL0     C31249   5.867   3.986   2.780  0.1695 -0.1785  0.1819
  973MOL0     O31250   5.854   4.032   2.647  0.1026 -0.5727  0.1527
  973MOL0     C31251   5.963   4.080   2.576  0.4387  0.3744 -0.2358
  973MOL0     C31252   6.097   4.068   2.607 -0.0767  0.3006 -0.0796
  973MOL0     C31253   6.195   4.131   2.526 -0.8406  0.0750 -0.6876
  973MOL0     C31254   6.165   4.204   2.414 -0.0438  0.0123  0.4214
  973MOL0     O31255   6.254   4.276   2.339  0.4518  0.4322  0.0432
  973MOL0     C31256   6.392   4.250   2.372 -0.0516 -0.6271 -0.0627
  973MOL0     C31257   6.467   4.293   2.247  0.9129 -0.2619  0.4303
  973MOL0     C31258   6.614   4.247   2.262 -0.3141  0.1291 -0.5714
  973MOL0     C31259   6.699   4.340   2.172 -0.1049  0.3810 -0.5340
  973MOL0     C31260   6.843   4.298   2.154  0.3704  0.0691  0.7248
  973MOL0     C31261   6.921   4.399   2.080  0.0355  0.5733  0.2485
  973MOL0     C31262   7.053   4.356   2.020 -0.6618  0.2260  0.0831
  973MOL0     C31263   7.152   4.319   2.127  0.7328 -0.7503 -0.0799
  973MOL0    Cl31264   7.311   4.320   2.046  0.0908 -0.3105 -0.1960
  973MOL0     C31265   6.031   4.215   2.381 -0.3647  0.1677  0.4741
  973MOL0     C31266   5.930   4.155   2.464  0.3350  0.4679 -0.0110
  973MOL0     O31267   5.968   3.977   2.842  0.1890  0.5757 -0.3704
  973MOL0     C31268   5.622   3.965   2.758  0.0097  0.2880  0.2060
  973MOL0     C31269   5.500   3.927   2.822 -0.0900  0.8669 -0.5730
  973MOL0     N31270   4.955   3.715   2.528 -0.1581  0.5691 -0.5262
  973MOL0     N31271   4.860   3.697   2.446  0.4228  0.0575 -0.4090
  973MOL0     C31272   3.835   3.826   2.005  0.6917  0.2701 -0.8289
  973MOL0     C31273   3.706   3.859   2.056 -0.1950 -0.1588  0.0757
  973MOL0     C31274   3.326   4.117   2.057 -0.2279 -0.0394 -0.0431
  973MOL0     C31275   3.190   4.074   2.052  0.1497  0.3335 -0.4456
  973MOL0     C31276   3.082   4.137   2.096  1.1490 -0.4908 -0.9694
  973MOL0     C31277   3.098   4.273   2.137  0.3330  0.3128 -0.3540
  973MOL0     O31278   2.995   4.364   2.170 -0.2743 -0.9056  0.6008
  973MOL0     C31279   2.864   4.307   2.163  0.3487 -0.2530 -0.3783
  973MOL0     C31280   2.768   4.423   2.183 -0.5638  0.0035 -0.0964
  973MOL0     C31281   2.632   4.385   2.144 -0.0595  0.2485 -0.0697
  973MOL0     C31282   2.544   4.503   2.187 -0.2073 -0.0902  0.0203
  973MOL0     C31283   2.404   4.467   2.155 -0.0673 -0.0018  0.5436
  973MOL0     C31284   2.287   4.447   2.121 -0.7696 -0.2858  0.1737
  973MOL0     C31285   3.230   4.327   2.143  0.1680 -0.2977  0.1435
  973MOL0     C31286   3.341   4.252   2.098  0.8491  0.7435  0.3372
  973MOL0     C31287   3.471   4.313   2.106 -0.5483 -1.8210  0.1122
  973MOL0     H31288   3.695   4.185   1.995  0.4642 -0.4701  0.4577
  973MOL0     H31289   3.950   4.130   1.907 -0.3684  0.9910  1.4403
  973MOL0     H31290   4.215   3.899   1.836  0.1758  2.1088 -1.5277
  973MOL0     H31291   4.125   4.042   1.859 -4.5679  0.9199  3.2303
  973MOL0     H31292   4.162   4.009   2.120 -1.4788 -1.3671  0.0707
  973MOL0     H31293   4.301   4.044   2.012 -1.7909  0.4953 -0.7009
  973MOL0     H31294   4.361   3.806   2.004  0.2339  3.6513 -0.6834
  973MOL0     H31295   4.216   3.772   2.114 -1.0015 -0.3506 -2.0056
  973MOL0     H31296   4.485   3.909   2.187  1.0251 -0.7981 -0.1524
  973MOL0     H31297   4.337   3.908   2.286  1.7383 -0.1463  1.5860
  973MOL0     H31298   4.343   3.657   2.273  1.2247 -1.4434 -0.4704
  973MOL0     H31299   4.493   3.674   2.185 -0.2726 -1.6549  0.3163
  973MOL0     H31300   4.584   3.801   2.416 -0.0829  1.3289  0.8751
  973MOL0     H31301   4.418   3.803   2.463 -3.7522 -2.1173 -0.5543
  973MOL0     H31302   4.438   3.542   2.452 -1.6323  1.5771 -1.2766
  973MOL0     H31303   4.508   3.630   2.588 -1.9093  0.9381 -0.4333
  973MOL0     H31304   4.639   3.445   2.459 -5.5705  0.1116  0.6967
  973MOL0     H31305   4.653   3.567   2.328 -0.6959  2.3327  0.5990
  973MOL0     H31306   4.763   3.528   2.710  0.2159  0.8507  1.2166
  973MOL0     H31307   4.914   3.646   2.860 -0.2620 -1.4626 -0.9037
  973MOL0     H31308   5.051   3.568   2.795 -0.4639 -0.3374  0.2672
  973MOL0     H31309   5.087   3.851   2.729 -0.9346  1.4566  1.7412
  973MOL0     H31310   4.987   3.839   2.873 -0.0443 -1.0521  0.0953
  973MOL0     H31311   5.267   3.717   2.818  0.6303 -2.7191  0.9102
  973MOL0     H31312   5.180   3.686   2.976 -0.0013  1.8687  1.7861
  973MOL0     H31313   5.179   3.912   3.039  0.0286 -1.0338  1.2570
  973MOL0     H31314   5.255   3.964   2.886 -1.0437 -0.9255 -1.1293
  973MOL0     H31315   5.616   3.828   3.122  1.0960 -2.1282 -1.0959
  973MOL0     H31316   5.815   3.888   3.031  0.0067  0.4684  0.7743
  973MOL0     H31317   6.132   4.006   2.689 -2.0302 -0.8493 -0.0524
  973MOL0     H31318   6.294   4.118   2.567 -1.5741 -0.9808  0.8875
  973MOL0     H31319   6.432   4.300   2.461  2.5050 -1.3610 -0.7012
  973MOL0     H31320   6.404   4.142   2.383  1.9043 -0.4266  0.0865
  973MOL0     H31321   6.417   4.256   2.157 -0.0164  2.3872 -0.2406
  973MOL0     H31322   6.452   4.402   2.247 -3.1443 -0.6905  0.7858
  973MOL0     H31323   6.643   4.266   2.366 -2.6296 -0.0366  0.1541
  973MOL0     H31324   6.620   4.139   2.247  1.1241  0.2753 -1.2527
  973MOL0     H31325   6.693   4.442   2.211 -0.4929  0.4896 -0.8687
  973MOL0     H31326   6.639   4.347   2.080 -0.0576  1.0498 -0.5173
  973MOL0     H31327   6.848   4.200   2.106 -1.2329 -0.8788  2.3605
  973MOL0     H31328   6.888   4.285   2.253  0.6727 -4.1587  0.1854
  973MOL0     H31329   6.863   4.428   1.992  0.4925 -1.4424 -0.7697
  973MOL0     H31330   6.946   4.489   2.137  0.7814 -0.2189  1.2138
  973MOL0     H31331   7.096   4.441   1.965 -1.7680  0.9757  0.3449
  973MOL0     H31332   7.031   4.273   1.953 -3.4557 -0.4136  1.6469
  973MOL0     H31333   7.150   4.400   2.200  0.2381  0.9858 -1.9204
  973MOL0     H31334   7.131   4.228   2.184 -0.5162  1.7876  3.9163
  973MOL0     H31335   5.992   4.265   2.292 -0.4836  0.4003  0.6552
  973MOL0     H31336   5.824   4.162   2.441  0.3891 -0.6769 -0.6950
  973MOL0     H31337   5.630   4.001   2.655 -1.7825 -0.2160 -0.1522
  973MOL0     H31338   5.407   3.939   2.767 -2.1531 -2.1235  1.9057
  973MOL0     H31339   3.863   3.721   2.008 -0.7761 -0.1807 -1.5028
  973MOL0     H31340   3.635   3.793   2.106 -2.1482  1.5034 -0.3718
  973MOL0     H31341   3.164   3.971   2.028 -1.5156  1.1691 -2.4950
  973MOL0     H31342   2.986   4.088   2.106  0.0548  1.0618 -3.0295
  973MOL0     H31343   2.859   4.233   2.244  3.0960 -0.3988 -0.2353
  973MOL0     H31344   2.834   4.263   2.068  2.2933  1.4670 -1.8712
  973MOL0     H31345   2.802   4.512   2.130  2.5736 -0.7404  0.4741
  973MOL0     H31346   2.774   4.453   2.288  1.3433  0.9000 -0.4240
  973MOL0     H31347   2.609   4.295   2.201  1.7385 -1.7501 -2.2917
  973MOL0     H31348   2.623   4.357   2.039  0.0669 -2.6662  0.6083
  973MOL0     H31349   2.554   4.523   2.294 -0.9492  1.4863 -0.1678
  973MOL0     H31350   2.581   4.595   2.141  4.2090 -0.8632  1.5813
  973MOL0     H31351   2.186   4.423   2.092 -1.6161  0.7211  2.0448
  973MOL0     H31352   3.243   4.433   2.160  0.4215 -0.2525 -0.3040
  973MOL0     H31353   3.450   4.420   2.115 -3.3245 -1.9277 -3.2220
  973MOL0     H31354   3.516   4.272   2.198 -1.9491 -0.1317  1.6234
  973MOL0     H31355   3.538   4.309   2.020  2.9205 -2.6625  2.6108
  974MOL0     O31356   7.888   3.508   6.050  0.4147 -0.0953  0.2823
  974MOL0     C31357   7.824   3.468   5.952  1.3323 -1.7524 -0.5939
  974MOL0     O31358   7.881   3.417   5.842  0.0483  0.0021  0.4382
  974MOL0     C31359   8.020   3.407   5.824  0.2207 -0.5498  0.6012
  974MOL0     C31360   8.065   3.362   5.694  0.2019  0.2114  0.2910
  974MOL0     C31361   8.201   3.329   5.662 -0.1364  0.5418 -0.1990
  974MOL0     C31362   8.300   3.359   5.756  0.0613  1.0997  0.2490
  974MOL0     O31363   8.435   3.349   5.731 -0.1830  0.0412 -0.0866
  974MOL0     C31364   8.493   3.311   5.607  0.0123  0.4018  0.3983
  974MOL0     C31365   8.482   3.420   5.502 -0.0349 -0.3353 -0.0471
  974MOL0     C31366   8.552   3.555   5.532 -0.1485 -0.2304  0.2481
  974MOL0     C31367   8.705   3.539   5.555  0.6856  0.0762 -0.3410
  974MOL0     C31368   8.770   3.680   5.530 -0.2586  0.6774 -0.0292
  974MOL0     C31369   8.925   3.676   5.557 -0.2529 -0.8427 -0.0019
  974MOL0     C31370   9.005   3.597   5.447  1.2838 -0.1950 -0.5492
  974MOL0     C31371   9.158   3.605   5.461  0.9728 -0.1651  0.0336
  974MOL0     N31372   9.225   3.505   5.381 -0.1820 -0.3448  0.1459
  974MOL0     C31373   9.248   3.516   5.240  0.7710 -0.0729 -0.2421
  974MOL0     C31374   9.350   3.427   5.218  0.6724  0.1688  0.4180
  974MOL0     C31375   9.407   3.400   5.086  0.4150  0.6426  0.3720
  974MOL0     C31376   9.542   3.472   5.066  0.6640  1.3475  0.0834
  974MOL0     C31377   9.646   3.387   5.135  0.8838  0.4855 -0.0583
  974MOL0     C31378   9.788   3.433   5.134  0.3533  0.1427  0.0901
  974MOL0     O31379   9.842   3.443   5.002  0.2123 -0.0773  0.0442
  974MOL0     C31380   9.974   3.485   4.993  0.2665 -0.1345 -0.3324
  974MOL0     C31381  10.020   3.499   4.862 -0.3129  0.8621  0.2874
  974MOL0     C31382  10.153   3.530   4.833  0.5546 -0.9455  0.2558
  974MOL0     C31383  10.245   3.546   4.934  0.0144  0.1709  0.0079
  974MOL0     C31384  10.383   3.578   4.901 -0.6693  0.0033 -0.4204
  974MOL0     O31385  10.462   3.648   4.989  0.7379  0.6351 -0.1088
  974MOL0     C31386  10.590   3.672   4.965  0.3078  0.0997  0.5857
  974MOL0     C31387  10.679   3.563   4.975  0.6866  0.0443  0.2885
  974MOL0     C31388  10.818   3.586   4.971  0.1289 -0.7749  0.1014
  974MOL0     C31389  10.870   3.708   4.926  0.4203 -0.2407  0.1602
  974MOL0     O31390  11.007   3.719   4.904 -0.1525 -0.1614 -0.4184
  974MOL0     C31391  11.071   3.841   4.863  0.4009  0.0312  0.7787
  974MOL0     C31392  11.205   3.798   4.809  0.2137  0.0347 -0.0128
  974MOL0     C31393  11.205   3.697   4.694  0.4380  0.0854 -0.0103
  974MOL0     C31394  11.100   3.726   4.589 -0.6076  0.4923 -0.8973
  974MOL0     C31395  11.134   3.631   4.472  0.1407 -0.0979 -0.5549
  974MOL0     C31396  11.019   3.639   4.370 -0.1133 -0.2992 -0.0688
  974MOL0     C31397  11.004   3.783   4.306  0.6222 -0.0548  0.2395
  974MOL0     C31398  10.932   3.767   4.177  0.8397  0.1691  0.1866
  974MOL0    Cl31399  10.756   3.724   4.211 -0.6155 -0.0700 -0.2042
  974MOL0     C31400  10.779   3.818   4.900 -0.3859  0.8708 -0.3494
  974MOL0     C31401  10.639   3.794   4.918  0.9558  0.0970  0.1570
  974MOL0     O31402  10.425   3.546   4.786 -0.1152  0.9505 -0.5004
  974MOL0     C31403  10.202   3.538   5.068  0.9030 -0.6167  0.0710
  974MOL0     C31404  10.070   3.502   5.101  0.0759  0.6410  0.3502
  974MOL0     N31405   9.385   3.368   5.334 -0.4171 -0.0674 -0.3410
  974MOL0     N31406   9.299   3.403   5.429  0.7157 -0.1519 -0.7182
  974MOL0     C31407   8.267   3.409   5.873 -0.0263 -0.0028 -0.7636
  974MOL0     C31408   8.128   3.432   5.914 -0.7283  0.0504 -0.0096
  974MOL0     C31409   7.676   3.477   5.966  0.0092 -0.0139 -0.4475
  974MOL0     C31410   7.625   3.565   6.059 -0.5033  0.2126  0.1858
  974MOL0     C31411   7.488   3.590   6.074  0.5663  0.0177  0.3311
  974MOL0     C31412   7.398   3.523   5.991  0.3644  0.6044 -0.9693
  974MOL0     O31413   7.259   3.539   5.996  0.2954  0.2810 -0.3000
  974MOL0     C31414   7.200   3.580   6.118  0.3378 -0.6723  0.2553
  974MOL0     C31415   7.052   3.611   6.105 -0.3319 -0.1484 -0.5715
  974MOL0     C31416   6.976   3.477   6.130  0.9894 -0.8161  0.0041
  974MOL0     C31417   6.830   3.509   6.135 -0.7877 -0.1555 -0.2992
  974MOL0     C31418   6.753   3.394   6.184  0.2973 -0.3032  0.5265
  974MOL0     C31419   6.665   3.313   6.224  0.7981  0.5612  0.5401
  974MOL0     C31420   7.446   3.420   5.908  0.3561  1.3996  0.7504
  974MOL0     C31421   7.584   3.400   5.885  0.3308  0.2793  0.6489
  974MOL0     C31422   7.626   3.314   5.771 -0.9210  0.1558  0.8262
  974MOL0     H31423   7.993   3.341   5.616 -1.1993  2.1586  0.9680
  974MOL0     H31424   8.227   3.293   5.563  0.0772 -1.5741  0.5547
  974MOL0     H31425   8.598   3.279   5.607  0.6786  2.4204 -0.1212
  974MOL0     H31426   8.434   3.222   5.583 -0.6448  1.6283 -3.1892
  974MOL0     H31427   8.375   3.432   5.484  0.0508 -0.7182 -0.8741
  974MOL0     H31428   8.529   3.379   5.413 -1.1826  0.4839 -1.0616
  974MOL0     H31429   8.496   3.601   5.614 -2.5700 -1.8666 -0.3966
  974MOL0     H31430   8.543   3.619   5.444  4.7533  1.4339  0.6225
  974MOL0     H31431   8.712   3.514   5.661 -0.5191  1.0958  0.0048
  974MOL0     H31432   8.737   3.457   5.490 -3.1184 -2.0228  0.1408
  974MOL0     H31433   8.745   3.717   5.430 -0.5381  0.1172 -0.1696
  974MOL0     H31434   8.726   3.746   5.605  0.0905  0.1347  0.6584
  974MOL0     H31435   8.959   3.780   5.552 -0.9263 -0.6133  0.0418
  974MOL0     H31436   8.951   3.635   5.655  1.8452 -1.1597 -0.6311
  974MOL0     H31437   8.981   3.635   5.347  2.6808  0.8769 -0.5202
  974MOL0     H31438   8.981   3.491   5.458  1.8786 -0.2650  0.2075
  974MOL0     H31439   9.189   3.703   5.423 -0.4439  0.4168  0.2895
  974MOL0     H31440   9.191   3.579   5.562  2.8053  0.1916 -0.4443
  974MOL0     H31441   9.189   3.581   5.176 -0.2967  0.8383  1.5763
  974MOL0     H31442   9.419   3.295   5.059  3.3840  1.0632 -0.3115
  974MOL0     H31443   9.348   3.453   5.011  1.9770  0.7702 -0.8122
  974MOL0     H31444   9.561   3.474   4.959  0.2530  0.3412 -0.0252
  974MOL0     H31445   9.542   3.573   5.107  0.9107  0.3163  2.8455
  974MOL0     H31446   9.644   3.284   5.097 -0.2770 -0.1192  1.4967
  974MOL0     H31447   9.619   3.373   5.240 -0.0166 -2.1245 -0.5378
  974MOL0     H31448   9.853   3.366   5.190  0.5915  0.1356 -0.1951
  974MOL0     H31449   9.790   3.532   5.181 -0.0779  0.0017  0.4105
  974MOL0     H31450   9.952   3.480   4.779  1.4727  0.8420 -1.2554
  974MOL0     H31451  10.179   3.549   4.729 -1.9142 -0.8292 -0.4008
  974MOL0     H31452  10.629   3.473   5.010 -1.8112  0.5447 -1.6826
  974MOL0     H31453  10.892   3.507   4.980  0.8686 -0.5695 -2.9969
  974MOL0     H31454  11.015   3.883   4.780  1.2953 -1.9119 -0.9017
  974MOL0     H31455  11.091   3.902   4.951  2.4076 -0.0985  0.4555
  974MOL0     H31456  11.263   3.879   4.763 -0.1762 -0.5105 -1.5097
  974MOL0     H31457  11.272   3.750   4.881 -0.5493  0.8301  1.2556
  974MOL0     H31458  11.302   3.700   4.643  0.1652 -0.2910 -0.5587
  974MOL0     H31459  11.186   3.599   4.738 -0.1065  0.4740  0.6408
  974MOL0     H31460  11.101   3.830   4.555 -0.2097  0.9402  0.4417
  974MOL0     H31461  11.000   3.696   4.621 -0.2733 -1.9580 -1.8870
  974MOL0     H31462  11.140   3.530   4.513 -0.3802 -0.6140 -1.7106
  974MOL0     H31463  11.230   3.645   4.422  0.6272 -2.6716 -0.4570
  974MOL0     H31464  11.033   3.569   4.287  2.4790  0.1207 -0.0919
  974MOL0     H31465  10.929   3.607   4.423 -1.2493  2.8447  0.1232
  974MOL0     H31466  11.100   3.822   4.273 -0.0722  0.6789 -0.9926
  974MOL0     H31467  10.954   3.853   4.374 -1.6989 -0.2712 -1.1310
  974MOL0     H31468  10.930   3.861   4.122 -0.9182 -0.7549 -1.4545
  974MOL0     H31469  10.981   3.686   4.122 -0.3352 -2.1358  2.3185
  974MOL0     H31470  10.825   3.911   4.873  1.3079  0.3717  0.6648
  974MOL0     H31471  10.575   3.882   4.910  1.6829  0.8859  2.3421
  974MOL0     H31472  10.276   3.563   5.143  1.1247  1.0233 -0.6486
  974MOL0     H31473  10.029   3.495   5.202  1.6552  0.8876  1.0236
  974MOL0     H31474   8.339   3.424   5.953 -1.5687  1.5235  0.4298
  974MOL0     H31475   8.108   3.462   6.016  0.1172 -0.3191  0.2803
  974MOL0     H31476   7.694   3.616   6.126  0.2147 -0.4339 -0.0493
  974MOL0     H31477   7.466   3.667   6.147 -0.0049  2.3321 -2.1308
  974MOL0     H31478   7.248   3.677   6.130  1.1771 -1.0614  0.1598
  974MOL0     H31479   7.225   3.512   6.200 -2.2632 -0.6728  1.1241
  974MOL0     H31480   7.025   3.652   6.007 -0.0905 -0.3910 -0.7416
  974MOL0     H31481   7.019   3.690   6.173  0.3295 -0.4167  0.0622
  974MOL0     H31482   7.016   3.440   6.225  1.8861 -0.9593 -0.4182
  974MOL0     H31483   6.993   3.407   6.048 -0.3754 -1.9441  0.6502
  974MOL0     H31484   6.806   3.584   6.211 -1.6232 -0.9393  0.2387
  974MOL0     H31485   6.812   3.537   6.030  2.8841  2.5584 -0.3750
  974MOL0     H31486   6.598   3.239   6.264  0.4074  1.0307  0.7756
  974MOL0     H31487   7.368   3.378   5.846  0.7599  2.0683 -0.2364
  974MOL0     H31488   7.684   3.380   5.705 -0.7145 -0.2559  0.5900
  974MOL0     H31489   7.691   3.233   5.807  0.6962  1.7763  1.6925
  974MOL0     H31490   7.546   3.259   5.720 -0.4608 -0.1621  0.4322
  975MOL0     O31491   5.806   5.040   1.942  0.0262 -0.0396 -0.0236
  975MOL0     C31492   5.822   4.935   1.893 -0.2148 -0.7474 -0.1485
  975MOL0     O31493   5.942   4.885   1.836 -0.2417  0.3836 -0.3040
  975MOL0     C31494   6.058   4.952   1.818  0.3435 -0.4502 -0.3754
  975MOL0     C31495   6.161   4.880   1.770  0.6206  0.1308 -0.2656
  975MOL0     C31496   6.289   4.931   1.742 -0.8989  0.2480  0.4483
  975MOL0     C31497   6.316   5.071   1.731  0.0998  1.1515 -0.4931
  975MOL0     O31498   6.434   5.125   1.683  0.2622 -0.2809  0.1245
  975MOL0     C31499   6.544   5.038   1.681 -0.3821  0.1927  0.2848
  975MOL0     C31500   6.671   5.120   1.649 -0.3361 -1.1712 -0.3741
  975MOL0     C31501   6.712   5.242   1.741  0.1392 -0.2183 -0.5028
  975MOL0     C31502   6.844   5.297   1.684  0.1859 -0.3081  0.2315
  975MOL0     C31503   6.884   5.425   1.771 -0.2036  0.8986  0.0666
  975MOL0     C31504   6.978   5.528   1.703  0.4414  0.0206  0.1965
  975MOL0     C31505   7.004   5.649   1.801  0.1134  0.2142 -1.0148
  975MOL0     C31506   7.137   5.639   1.876  0.2072  0.5660 -0.0620
  975MOL0     N31507   7.166   5.765   1.941  1.0230 -0.2828  0.2239
  975MOL0     C31508   7.259   5.860   1.902  0.2766 -0.3249 -0.0564
  975MOL0     C31509   7.234   5.971   1.973 -1.2437  0.6856  0.4010
  975MOL0     C31510   7.311   6.099   1.964 -0.1560 -0.0502  0.6367
  975MOL0     C31511   7.401   6.132   2.079 -0.4477 -0.9190  0.0459
  975MOL0     C31512   7.500   6.249   2.045  0.3456 -0.1767  0.1511
  975MOL0     C31513   7.579   6.303   2.168  0.1561 -0.8863 -0.6503
  975MOL0     O31514   7.688   6.212   2.206 -0.1444 -0.3105  0.0130
  975MOL0     C31515   7.811   6.226   2.150 -0.3611  0.2295 -0.5534
  975MOL0     C31516   7.925   6.173   2.206 -0.4249 -0.1186  0.3656
  975MOL0     C31517   8.058   6.217   2.177  0.2362  0.0838 -0.2265
  975MOL0     C31518   8.081   6.296   2.057 -0.2343 -0.3178 -0.9334
  975MOL0     C31519   8.211   6.330   2.004 -0.0628  0.3504  0.9634
  975MOL0     O31520   8.316   6.316   2.084 -0.3533 -0.0126  0.2964
  975MOL0     C31521   8.441   6.363   2.048  0.3537  0.2137  0.0661
  975MOL0     C31522   8.522   6.304   1.953  0.5922 -0.6354  0.1652
  975MOL0     C31523   8.654   6.358   1.931  1.3200  0.3572  0.1178
  975MOL0     C31524   8.697   6.476   1.988 -1.5914 -0.2121  0.0546
  975MOL0     O31525   8.822   6.537   1.972 -0.7857  0.3593  0.2812
  975MOL0     C31526   8.867   6.539   1.831  0.1608 -0.3441 -0.3247
  975MOL0     C31527   8.989   6.622   1.812  0.2323 -0.2996 -0.1549
  975MOL0     C31528   9.110   6.569   1.895 -0.9191 -0.1504  0.5583
  975MOL0     C31529   9.238   6.649   1.852  0.4597  0.3353 -0.2221
  975MOL0     C31530   9.353   6.569   1.915 -0.6977 -0.3480 -0.4091
  975MOL0     C31531   9.485   6.641   1.898 -0.5826 -0.4228 -1.0255
  975MOL0     C31532   9.598   6.569   1.966 -0.0258 -0.1937 -0.2438
  975MOL0     C31533   9.734   6.648   1.961  0.1737  0.8069 -0.4470
  975MOL0    Cl31534   9.807   6.628   1.799  0.0868  0.0265 -0.1726
  975MOL0     C31535   8.613   6.523   2.084  0.0294 -0.1889 -0.0503
  975MOL0     C31536   8.487   6.478   2.114 -0.3119 -0.0929  0.1436
  975MOL0     O31537   8.215   6.355   1.885  0.0642  0.2969  0.2654
  975MOL0     C31538   7.962   6.333   1.990 -1.0306  0.2145 -0.2106
  975MOL0     C31539   7.837   6.298   2.029  0.3415 -0.9376 -0.8276
  975MOL0     N31540   7.130   5.943   2.060  0.3668  0.9681  0.6752
  975MOL0     N31541   7.085   5.822   2.036 -0.5069 -0.6007  1.0980
  975MOL0     C31542   6.200   5.148   1.761  0.5557  0.0571 -0.2880
  975MOL0     C31543   6.075   5.088   1.813 -0.3900 -0.5354 -0.4763
  975MOL0     C31544   5.708   4.840   1.909 -0.5467  0.5217  0.4965
  975MOL0     C31545   5.731   4.704   1.934 -0.3336 -0.9136 -0.0013
  975MOL0     C31546   5.625   4.613   1.951  0.1697 -0.0452  0.2318
  975MOL0     C31547   5.499   4.646   1.967  0.0549 -0.1099  0.3323
  975MOL0     O31548   5.407   4.545   1.974  0.1350  0.4508 -0.2503
  975MOL0     C31549   5.292   4.584   2.040  0.2992  1.0194 -0.3929
  975MOL0     C31550   5.191   4.469   2.056  0.6949 -0.3046 -0.1470
  975MOL0     C31551   5.253   4.340   2.104 -0.3863  0.9482 -0.1429
  975MOL0     C31552   5.160   4.216   2.121 -0.2922  0.3929 -0.4759
  975MOL0     C31553   5.029   4.255   2.178 -0.3308  0.5136 -0.8201
  975MOL0     C31554   4.918   4.289   2.215 -0.4545  0.1315 -0.5139
  975MOL0     C31555   5.476   4.786   1.959 -0.1840 -0.8591  0.5721
  975MOL0     C31556   5.574   4.884   1.926  0.3746 -0.2469 -0.0757
  975MOL0     C31557   5.527   5.027   1.924  0.6782 -0.4781  0.1347
  975MOL0     H31558   6.149   4.772   1.768  0.0690  0.1827 -2.7695
  975MOL0     H31559   6.366   4.858   1.719 -1.2291 -0.0966  0.4341
  975MOL0     H31560   6.555   5.005   1.785  0.2273 -0.0948  0.1267
  975MOL0     H31561   6.519   4.960   1.609  1.0958  1.2246 -1.4259
  975MOL0     H31562   6.651   5.169   1.553 -0.4241  0.3510  0.3865
  975MOL0     H31563   6.753   5.048   1.647  0.9660  0.2481  0.3263
  975MOL0     H31564   6.735   5.210   1.843 -2.3643  0.3685  0.3321
  975MOL0     H31565   6.634   5.318   1.745 -1.1890 -1.5560  3.2879
  975MOL0     H31566   6.928   5.227   1.678  1.6632  1.5237 -3.7600
  975MOL0     H31567   6.825   5.327   1.581  1.8527  0.1490  0.0316
  975MOL0     H31568   6.793   5.481   1.796 -1.5338 -0.7822 -0.8329
  975MOL0     H31569   6.935   5.389   1.861 -1.4078  0.6476  0.6625
  975MOL0     H31570   7.072   5.483   1.673  1.8383  2.8555 -0.0098
  975MOL0     H31571   6.924   5.554   1.612 -1.9534 -2.4360  0.7857
  975MOL0     H31572   6.921   5.676   1.866  0.1824  2.7587 -1.9011
  975MOL0     H31573   7.014   5.734   1.733  0.4994  0.6531 -0.4240
  975MOL0     H31574   7.132   5.568   1.959  3.9261 -0.1788 -0.2934
  975MOL0     H31575   7.219   5.613   1.809 -0.3495 -2.3239  0.2419
  975MOL0     H31576   7.323   5.840   1.816  1.3494 -0.7835  0.8220
  975MOL0     H31577   7.358   6.097   1.865  1.6579 -1.3080  1.4449
  975MOL0     H31578   7.242   6.183   1.960 -0.8953 -0.6612  0.3447
  975MOL0     H31579   7.345   6.152   2.171  1.3770  1.8804  0.6658
  975MOL0     H31580   7.462   6.044   2.102 -0.3453 -0.4002  1.9374
  975MOL0     H31581   7.449   6.339   2.011  0.9779 -0.1403 -0.7508
  975MOL0     H31582   7.563   6.225   1.959  0.4585  3.8165 -1.0651
  975MOL0     H31583   7.511   6.324   2.251 -0.2725  0.4530 -1.3112
  975MOL0     H31584   7.622   6.401   2.143 -1.1485 -0.0918  0.1263
  975MOL0     H31585   7.918   6.100   2.285 -0.5135 -0.1866  0.2948
  975MOL0     H31586   8.144   6.166   2.219  0.8677  0.1171 -1.4307
  975MOL0     H31587   8.498   6.222   1.887 -0.0630  2.3600 -3.7129
  975MOL0     H31588   8.719   6.318   1.853  0.8174 -1.2928  0.5108
  975MOL0     H31589   8.888   6.435   1.805 -1.1611 -0.6146 -0.3871
  975MOL0     H31590   8.784   6.577   1.770  2.0654 -0.7200 -3.3611
  975MOL0     H31591   9.021   6.620   1.707  1.0361  0.9685  0.0522
  975MOL0     H31592   8.961   6.723   1.840 -0.7715 -0.0434 -1.9549
  975MOL0     H31593   9.085   6.581   2.001 -2.9665  4.0113 -0.1825
  975MOL0     H31594   9.130   6.465   1.867  4.8021  0.7286  0.0367
  975MOL0     H31595   9.231   6.752   1.890  0.2027  0.5466 -0.8252
  975MOL0     H31596   9.242   6.663   1.744 -0.8811 -0.2088 -0.3603
  975MOL0     H31597   9.353   6.480   1.852  0.4623  0.0725 -1.0377
  975MOL0     H31598   9.341   6.560   2.024 -0.1406  2.9400  0.0236
  975MOL0     H31599   9.515   6.671   1.797  2.2499  0.4987 -0.0170
  975MOL0     H31600   9.481   6.735   1.953  0.2963 -0.9579 -0.0073
  975MOL0     H31601   9.604   6.476   1.908 -2.3907 -0.5464  0.0142
  975MOL0     H31602   9.577   6.550   2.071  2.5753 -1.3335  0.1607
  975MOL0     H31603   9.725   6.755   1.982 -2.1874  1.1199 -2.6155
  975MOL0     H31604   9.799   6.603   2.037  0.0914  2.6017  0.7436
  975MOL0     H31605   8.650   6.607   2.141  1.2294 -0.7679  0.0574
  975MOL0     H31606   8.432   6.537   2.187 -0.5171  1.4581 -1.2108
  975MOL0     H31607   7.971   6.397   1.902 -3.5350  0.1067 -0.6041
  975MOL0     H31608   7.748   6.335   1.979 -1.0922 -0.1516  2.0629
  975MOL0     H31609   6.216   5.255   1.766 -0.0688  0.2844 -2.3659
  975MOL0     H31610   5.997   5.152   1.852  1.4492 -0.6185  4.0326
  975MOL0     H31611   5.834   4.669   1.943 -0.8395 -2.1502  1.6446
  975MOL0     H31612   5.651   4.510   1.974  2.4017  0.2722 -0.6259
  975MOL0     H31613   5.242   4.667   1.989 -0.5148  1.4724  1.0843
  975MOL0     H31614   5.323   4.612   2.140 -0.1797 -3.0861  1.1019
  975MOL0     H31615   5.152   4.441   1.958  0.5551  0.4179 -0.3052
  975MOL0     H31616   5.113   4.501   2.125  1.8979 -0.4622  1.3581
  975MOL0     H31617   5.287   4.368   2.205  2.0523 -0.1037 -0.5971
  975MOL0     H31618   5.340   4.313   2.045 -0.5774  0.1156 -0.0635
  975MOL0     H31619   5.139   4.155   2.032 -4.1287 -1.3858  1.4008
  975MOL0     H31620   5.193   4.144   2.197 -1.4389  0.0987 -0.2366
  975MOL0     H31621   4.821   4.307   2.257 -0.3636 -1.4837  0.4988
  975MOL0     H31622   5.381   4.829   1.992  1.2729  1.2199  2.4092
  975MOL0     H31623   5.538   5.051   2.031  1.3963 -1.7226  0.3607
  975MOL0     H31624   5.592   5.095   1.869 -0.1748 -0.4915 -0.9181
  975MOL0     H31625   5.423   5.033   1.892  0.6212  1.1641  0.5638
  976MOL0     O31626   8.939   7.217   2.255 -0.4935  0.5023 -0.0584
  976MOL0     C31627   8.872   7.124   2.210 -0.6207 -0.9820  0.2129
  976MOL0     O31628   8.914   6.990   2.229 -0.0863 -0.2321  0.1688
  976MOL0     C31629   9.035   6.975   2.280  0.3041  0.0772 -0.5202
  976MOL0     C31630   9.141   6.933   2.195 -0.0733 -0.5752  0.1170
  976MOL0     C31631   9.259   6.893   2.255  0.1031 -0.0669 -0.3433
  976MOL0     C31632   9.276   6.901   2.391  0.0762 -0.5007  0.1627
  976MOL0     O31633   9.390   6.882   2.458 -0.5726 -1.3623 -0.5087
  976MOL0     C31634   9.501   6.846   2.384  0.1238 -1.0064  0.8913
  976MOL0     C31635   9.505   6.692   2.344 -0.3817 -0.7244  0.1179
  976MOL0     C31636   9.459   6.602   2.457  0.6537  0.0950 -0.0526
  976MOL0     C31637   9.534   6.613   2.589 -0.2890  0.1036  0.9164
  976MOL0     C31638   9.501   6.497   2.672  0.2945 -0.0781  0.6943
  976MOL0     C31639   9.359   6.490   2.740  0.1387  0.4708 -0.3485
  976MOL0     C31640   9.301   6.619   2.789  0.4115 -0.0440  0.1122
  976MOL0     C31641   9.162   6.591   2.849 -0.0616  0.1213  0.2874
  976MOL0     N31642   9.055   6.562   2.748 -0.8606  0.7446 -0.5652
  976MOL0     C31643   9.042   6.631   2.630 -0.2503  0.0536  0.9834
  976MOL0     C31644   8.945   6.561   2.570 -0.0483  0.8416 -0.9382
  976MOL0     C31645   8.882   6.588   2.438  0.1521  0.5410 -0.7348
  976MOL0     C31646   8.962   6.534   2.320  0.0070 -0.2942  0.3119
  976MOL0     C31647   8.932   6.384   2.295 -0.5736 -0.6499 -0.3731
  976MOL0     C31648   9.020   6.322   2.188  0.2670 -0.0627 -0.0368
  976MOL0     O31649   9.160   6.356   2.208  0.6741  0.0721 -0.0637
  976MOL0     C31650   9.256   6.289   2.133  0.1544 -0.1877  0.1674
  976MOL0     C31651   9.388   6.296   2.177 -0.4419 -0.2597 -0.0732
  976MOL0     C31652   9.489   6.234   2.104 -0.2543  0.1057  0.7354
  976MOL0     C31653   9.468   6.154   1.993 -0.1205  0.4292  0.8263
  976MOL0     C31654   9.571   6.078   1.926  0.3050  0.1861  0.0596
  976MOL0     O31655   9.531   6.005   1.820  0.5690  0.1326 -0.5731
  976MOL0     C31656   9.605   5.899   1.783  0.1081 -0.6401  0.5389
  976MOL0     C31657   9.726   5.918   1.715 -0.3513  0.0586 -0.6380
  976MOL0     C31658   9.814   5.814   1.696  1.3535  0.3795  0.3692
  976MOL0     C31659   9.778   5.689   1.738 -0.1517  0.1886  0.6491
  976MOL0     O31660   9.860   5.584   1.713  0.0035 -0.1339  0.1482
  976MOL0     C31661   9.860   5.533   1.574 -0.0042 -0.2682 -0.7613
  976MOL0     C31662   9.923   5.395   1.598  0.2414  0.7415  0.7284
  976MOL0     C31663   9.807   5.297   1.638  0.1276  0.3796  0.5152
  976MOL0     C31664   9.865   5.162   1.674  0.6486 -0.2541  0.0495
  976MOL0     C31665   9.760   5.058   1.727  0.3100 -0.6195  0.1048
  976MOL0     C31666   9.829   4.928   1.747  1.0278 -0.9753  0.2791
  976MOL0     C31667   9.725   4.829   1.795 -0.8330  1.6552 -0.6201
  976MOL0     C31668   9.792   4.699   1.830 -0.4299  0.3587 -0.0971
  976MOL0    Cl31669   9.682   4.604   1.934 -0.0378  0.1843 -0.0359
  976MOL0     C31670   9.650   5.667   1.797  0.1880 -0.1886  0.8717
  976MOL0     C31671   9.554   5.770   1.806  0.1003 -0.4827  0.0736
  976MOL0     O31672   9.680   6.085   1.978 -0.9592 -0.1227  0.4542
  976MOL0     C31673   9.332   6.141   1.950  0.3862  0.4427 -0.8235
  976MOL0     C31674   9.229   6.200   2.026 -0.1049 -0.8693  0.1817
  976MOL0     N31675   8.908   6.448   2.648  0.1878  0.1721 -1.3329
  976MOL0     N31676   8.967   6.460   2.761 -0.1668  0.2023 -0.0420
  976MOL0     C31677   9.169   6.943   2.474 -0.0955 -0.3942 -0.3251
  976MOL0     C31678   9.047   6.982   2.417  0.0254  1.0128  0.2401
  976MOL0     C31679   8.759   7.158   2.122 -0.0862 -0.1058  0.2445
  976MOL0     C31680   8.752   7.291   2.077 -0.2592 -0.7198 -0.2226
  976MOL0     C31681   8.664   7.327   1.982  0.8736  0.0127  0.0148
  976MOL0     C31682   8.567   7.242   1.923 -0.2068 -0.0322 -0.5121
  976MOL0     O31683   8.473   7.275   1.825 -0.0231  0.5173  0.0546
  976MOL0     C31684   8.461   7.403   1.766  0.7777 -0.8032 -0.1262
  976MOL0     C31685   8.352   7.392   1.654 -0.6104  0.4098  0.9964
  976MOL0     C31686   8.215   7.379   1.717 -0.5850 -0.1156  0.3215
  976MOL0     C31687   8.098   7.368   1.621  0.1886  0.9707 -0.1285
  976MOL0     C31688   8.098   7.257   1.528 -0.7792  0.2086  0.0823
  976MOL0     C31689   8.094   7.176   1.435  0.4039  0.6608  0.3583
  976MOL0     C31690   8.568   7.105   1.962  0.3167  0.1867  0.4690
  976MOL0     C31691   8.664   7.065   2.058 -0.1105  0.0217 -0.8153
  976MOL0     C31692   8.651   6.918   2.093  0.3069  0.1281 -0.4831
  976MOL0     H31693   9.125   6.939   2.088 -0.6028 -0.0943  0.2227
  976MOL0     H31694   9.339   6.865   2.187  0.1108  0.3771 -0.5181
  976MOL0     H31695   9.514   6.914   2.300  3.8585  0.1507  2.2192
  976MOL0     H31696   9.592   6.860   2.444 -0.4115  2.7736  1.0594
  976MOL0     H31697   9.611   6.667   2.329  0.1984  0.8930  1.2419
  976MOL0     H31698   9.455   6.667   2.250 -0.5321  0.0377 -0.0117
  976MOL0     H31699   9.478   6.499   2.424 -0.6374 -0.5199  1.0223
  976MOL0     H31700   9.351   6.619   2.468  0.7436  1.1101 -0.6722
  976MOL0     H31701   9.642   6.612   2.573 -0.5254  0.4234 -0.9941
  976MOL0     H31702   9.527   6.708   2.643  0.2671 -1.1620  3.3444
  976MOL0     H31703   9.511   6.407   2.610 -3.3771 -0.7019  0.7459
  976MOL0     H31704   9.578   6.493   2.749  0.1897  1.6990  0.9217
  976MOL0     H31705   9.289   6.448   2.667 -1.9571 -1.6889  2.6498
  976MOL0     H31706   9.360   6.421   2.825 -2.2774  1.8584  0.8995
  976MOL0     H31707   9.288   6.688   2.705 -3.5085  2.0376  2.1436
  976MOL0     H31708   9.376   6.662   2.856  0.9826  0.5527 -0.8892
  976MOL0     H31709   9.165   6.514   2.926 -0.2586  0.9026  1.0903
  976MOL0     H31710   9.126   6.685   2.894 -1.4939 -0.4727  0.4297
  976MOL0     H31711   9.091   6.718   2.589  0.3269 -0.0671  1.4119
  976MOL0     H31712   8.778   6.555   2.441 -0.4928  2.4996  0.0075
  976MOL0     H31713   8.885   6.697   2.431 -0.5059  0.5541 -0.8503
  976MOL0     H31714   8.937   6.588   2.228  0.1124  0.4744  0.7342
  976MOL0     H31715   9.067   6.539   2.350 -0.6256 -0.6324  2.7793
  976MOL0     H31716   8.827   6.379   2.265 -0.8778 -1.5771  0.7555
  976MOL0     H31717   8.939   6.333   2.392  1.1174 -0.1295 -0.1872
  976MOL0     H31718   8.995   6.358   2.088 -1.1742  0.0062  0.3258
  976MOL0     H31719   9.009   6.213   2.198 -1.5678  0.1942  1.3038
  976MOL0     H31720   9.403   6.367   2.258 -2.7269 -0.6920  0.8139
  976MOL0     H31721   9.591   6.243   2.141  0.9770 -0.3899 -2.2271
  976MOL0     H31722   9.744   6.021   1.688  3.2213 -0.5477 -1.1017
  976MOL0     H31723   9.915   5.818   1.657  2.6263 -0.0072  3.3096
  976MOL0     H31724   9.756   5.537   1.539 -0.2467  0.8493  0.0211
  976MOL0     H31725   9.925   5.596   1.513 -0.6801  3.1032  1.7070
  976MOL0     H31726   9.955   5.358   1.500 -0.2636  1.5640  0.2514
  976MOL0     H31727  10.011   5.401   1.663  0.5317  1.9727  0.2516
  976MOL0     H31728   9.753   5.339   1.723 -0.5299  0.9292 -0.1604
  976MOL0     H31729   9.741   5.300   1.551 -0.1777 -1.1517  0.6662
  976MOL0     H31730   9.944   5.177   1.748  2.3147  0.3143 -1.7292
  976MOL0     H31731   9.919   5.115   1.590 -2.1366 -2.4070 -0.6966
  976MOL0     H31732   9.675   5.049   1.658 -1.7721 -2.7663  2.6988
  976MOL0     H31733   9.723   5.086   1.826  2.0412  0.7714  0.3999
  976MOL0     H31734   9.860   4.896   1.647 -4.0961 -2.1208 -1.2734
  976MOL0     H31735   9.912   4.927   1.819  1.1594 -0.2240  0.1540
  976MOL0     H31736   9.645   4.806   1.723  0.0509 -2.2778 -0.5774
  976MOL0     H31737   9.679   4.872   1.885  0.4066  4.7182 -1.3359
  976MOL0     H31738   9.817   4.640   1.741 -6.2423 -2.2183 -0.5090
  976MOL0     H31739   9.881   4.727   1.888 -0.1008 -1.2280  0.2098
  976MOL0     H31740   9.625   5.564   1.824  2.4631 -0.5532  1.7757
  976MOL0     H31741   9.455   5.760   1.848 -0.3012  1.8507 -0.1626
  976MOL0     H31742   9.305   6.083   1.863 -1.3147  0.4999 -0.3676
  976MOL0     H31743   9.125   6.195   1.993  0.1123  1.0655 -0.9719
  976MOL0     H31744   9.197   6.943   2.579 -1.0943 -1.8546 -0.0381
  976MOL0     H31745   8.959   7.000   2.478 -1.0445 -2.1813 -0.1890
  976MOL0     H31746   8.823   7.364   2.114  0.0396 -1.8551  1.5720
  976MOL0     H31747   8.661   7.430   1.949 -0.2253 -0.2501 -0.7527
  976MOL0     H31748   8.558   7.428   1.723 -1.1795  2.5558 -3.1875
  976MOL0     H31749   8.430   7.473   1.844  1.2355 -0.7339 -0.0032
  976MOL0     H31750   8.380   7.302   1.598 -1.0932  0.1374  1.1861
  976MOL0     H31751   8.356   7.479   1.588  1.4967  0.7381  1.4796
  976MOL0     H31752   8.194   7.459   1.788  0.2130 -0.6519  1.1961
  976MOL0     H31753   8.201   7.289   1.779 -1.4473 -0.3149 -0.1584
  976MOL0     H31754   8.003   7.349   1.671 -0.7419 -1.6938 -2.6657
  976MOL0     H31755   8.091   7.460   1.563 -1.9702  0.1623 -1.2363
  976MOL0     H31756   8.081   7.107   1.355 -1.5253  2.5713 -1.0814
  976MOL0     H31757   8.496   7.035   1.923  0.4125  0.8319 -0.8902
  976MOL0     H31758   8.606   6.907   2.191 -0.0306  1.4812 -0.4686
  976MOL0     H31759   8.579   6.872   2.025 -0.9879  0.0754  0.9007
  976MOL0     H31760   8.745   6.862   2.105 -1.3697 -2.1133  4.7051
  977MOL0     O31761  10.814   0.654   1.648  0.5072  0.0772 -0.9248
  977MOL0     C31762  10.763   0.627   1.543 -0.6357  0.7954 -0.3056
  977MOL0     O31763  10.753   0.711   1.440 -0.5422 -0.2851  0.4873
  977MOL0     C31764  10.800   0.839   1.451 -0.2044 -0.9454  0.6193
  977MOL0     C31765  10.870   0.899   1.345  0.6275 -0.2533  1.2668
  977MOL0     C31766  10.899   1.039   1.345  0.7511  0.3414 -0.5095
  977MOL0     C31767  10.840   1.120   1.445  0.3675  0.5443 -0.2092
  977MOL0     O31768  10.857   1.256   1.426 -0.2067  0.0846 -0.2775
  977MOL0     C31769  10.787   1.351   1.509 -0.1059  0.2718  0.2870
  977MOL0     C31770  10.831   1.495   1.472  0.8589 -0.1929 -0.0662
  977MOL0     C31771  10.977   1.515   1.506  0.1491 -0.5223 -0.2642
  977MOL0     C31772  11.017   1.487   1.654 -0.8761 -0.2921  0.2571
  977MOL0     C31773  11.163   1.534   1.688 -0.1992 -0.2621 -0.2582
  977MOL0     C31774  11.275   1.449   1.618  0.5841 -0.1877  0.7900
  977MOL0     C31775  11.412   1.475   1.681 -0.0472  0.5126  0.4012
  977MOL0     C31776  11.461   1.621   1.662 -0.1828  0.7744  0.6357
  977MOL0     N31777  11.600   1.631   1.713 -0.0593  0.3948 -1.0433
  977MOL0     C31778  11.644   1.635   1.844  0.9352  0.4077  0.6839
  977MOL0     C31779  11.777   1.651   1.838  0.0717 -0.4672  0.9767
  977MOL0     C31780  11.858   1.660   1.968  0.2490  1.0313 -0.0267
  977MOL0     C31781  11.995   1.720   1.937  0.3001  0.1758 -0.2453
  977MOL0     C31782  12.073   1.748   2.066  0.9109 -0.8741 -0.5128
  977MOL0     C31783  12.110   1.625   2.146 -0.0267  0.0151  0.1244
  977MOL0     O31784  12.201   1.662   2.245 -0.4157 -0.6602 -0.0386
  977MOL0     C31785  12.329   1.669   2.208  0.5769  1.0730  0.3841
  977MOL0     C31786  12.390   1.659   2.083 -0.0108 -0.3679 -0.3454
  977MOL0     C31787  12.529   1.680   2.070 -0.0717  0.3956  0.2355
  977MOL0     C31788  12.613   1.710   2.181 -0.0163 -0.8552  0.0016
  977MOL0     C31789  12.754   1.749   2.157 -0.5236 -0.8138  0.5514
  977MOL0     O31790  12.815   1.821   2.253 -0.2360 -0.1250 -0.4221
  977MOL0     C31791  12.933   1.880   2.233  0.0856 -0.2597 -0.1963
  977MOL0     C31792  13.035   1.852   2.326 -0.1914  0.7189 -0.0016
  977MOL0     C31793  13.151   1.915   2.314  0.2307 -0.2938  0.0518
  977MOL0     C31794  13.177   2.013   2.215  0.4168 -0.9600 -0.6775
  977MOL0     O31795  13.289   2.084   2.214 -0.1411  0.5167 -0.5350
  977MOL0     C31796  13.390   2.061   2.302  0.3796 -0.1013 -0.5894
  977MOL0     C31797  13.512   2.148   2.273  0.0261 -0.2483 -0.0819
  977MOL0     C31798  13.615   2.140   2.389  0.0389 -0.7529  0.8451
  977MOL0     C31799  13.746   2.216   2.367  0.1795  0.0525 -0.2266
  977MOL0     C31800  13.853   2.208   2.475  0.9088 -0.4273  0.5424
  977MOL0     C31801  13.972   2.294   2.448 -0.3806 -1.3647 -0.1536
  977MOL0     C31802  14.052   2.315   2.585 -0.0736  1.1536 -0.2067
  977MOL0     C31803  14.145   2.444   2.586 -0.4354 -0.0752  0.0452
  977MOL0    Cl31804  14.274   2.445   2.456 -0.1456 -0.1545  0.2322
  977MOL0     C31805  13.076   2.039   2.121  0.4756 -0.2054  0.0482
  977MOL0     C31806  12.954   1.971   2.131 -0.1352  0.2377  0.2925
  977MOL0     O31807  12.802   1.733   2.043  0.2036  0.2907  0.3378
  977MOL0     C31808  12.553   1.711   2.304 -0.3504 -0.2033 -0.1021
  977MOL0     C31809  12.412   1.693   2.317 -0.5506  0.3206 -0.0039
  977MOL0     N31810  11.823   1.648   1.708  0.8434 -0.2210 -0.5603
  977MOL0     N31811  11.713   1.634   1.634 -0.5748  0.0906 -0.2363
  977MOL0     C31812  10.763   1.062   1.544 -0.1369  0.2674  0.1025
  977MOL0     C31813  10.747   0.924   1.549  0.8706  0.1508 -0.3578
  977MOL0     C31814  10.706   0.496   1.528  0.1250 -0.3881 -0.3429
  977MOL0     C31815  10.599   0.490   1.441  0.5461 -0.1096 -1.0298
  977MOL0     C31816  10.536   0.371   1.402 -0.0529 -1.0073 -0.8543
  977MOL0     C31817  10.579   0.248   1.462 -0.1018  0.3812  0.7408
  977MOL0     O31818  10.521   0.136   1.415 -0.2617 -0.3322 -0.3294
  977MOL0     C31819  10.565   0.002   1.446  0.3324 -0.1548  0.2123
  977MOL0     C31820  10.491  -0.101   1.367  0.0655  0.0788  0.4026
  977MOL0     C31821  10.361  -0.142   1.437 -0.0674  0.1011  0.1519
  977MOL0     C31822  10.298  -0.262   1.379  0.0914 -0.0470  1.1007
  977MOL0     C31823  10.231  -0.225   1.245 -0.6072  0.9571  0.3072
  977MOL0     C31824  10.190  -0.187   1.133  0.4260  0.4799 -0.3526
  977MOL0     C31825  10.677   0.250   1.558  0.1413 -0.0727  0.5027
  977MOL0     C31826  10.735   0.372   1.595  0.0205 -0.4292  0.5969
  977MOL0     C31827  10.833   0.368   1.707 -1.8281  0.1760  0.5205
  977MOL0     H31828  10.896   0.834   1.262 -1.0996  0.0895  0.4170
  977MOL0     H31829  10.934   1.087   1.254 -1.6452 -0.6172 -2.0462
  977MOL0     H31830  10.679   1.342   1.492 -0.2197  0.0039  1.1209
  977MOL0     H31831  10.794   1.322   1.614 -2.5262 -2.6786 -0.2343
  977MOL0     H31832  10.783   1.567   1.539  1.8175  0.8616 -0.4871
  977MOL0     H31833  10.809   1.525   1.369  0.5243  0.4004  0.1711
  977MOL0     H31834  11.006   1.618   1.483 -0.0931 -0.3438  0.2203
  977MOL0     H31835  11.028   1.436   1.450  2.7402 -0.5677  1.9383
  977MOL0     H31836  10.943   1.542   1.713 -0.2012 -0.0450  0.8729
  977MOL0     H31837  11.002   1.381   1.680 -1.5210 -0.2698  0.0184
  977MOL0     H31838  11.179   1.641   1.676 -2.7888  0.5357  2.1402
  977MOL0     H31839  11.170   1.514   1.796 -0.8870 -1.8145 -0.4769
  977MOL0     H31840  11.242   1.345   1.620 -1.0835  0.2826 -0.3258
  977MOL0     H31841  11.283   1.473   1.511 -1.0902 -3.1186 -0.1110
  977MOL0     H31842  11.491   1.410   1.642  1.2861  1.9226  0.6463
  977MOL0     H31843  11.407   1.444   1.786  4.9039 -2.8960 -0.0122
  977MOL0     H31844  11.464   1.649   1.557  0.6795 -0.6183  0.2701
  977MOL0     H31845  11.397   1.695   1.710 -0.8963  0.4864  0.1446
  977MOL0     H31846  11.594   1.618   1.938  2.2811 -1.9434  1.0673
  977MOL0     H31847  11.815   1.727   2.043  2.8267  2.6832  0.1192
  977MOL0     H31848  11.864   1.560   2.013  1.0012  1.7331  1.4851
  977MOL0     H31849  12.057   1.650   1.880  0.1236  0.1609 -0.4211
  977MOL0     H31850  11.983   1.811   1.878 -2.0338  0.2492  0.2597
  977MOL0     H31851  12.009   1.808   2.133  3.2711 -1.0715  2.0851
  977MOL0     H31852  12.164   1.805   2.048  0.0731  1.2959  1.5802
  977MOL0     H31853  12.155   1.554   2.076  1.6404  0.3306  0.8348
  977MOL0     H31854  12.022   1.578   2.191 -1.2000  2.4818  0.6083
  977MOL0     H31855  12.337   1.650   1.988  1.9315  0.1000 -1.5434
  977MOL0     H31856  12.575   1.672   1.972  1.7853 -3.4713  1.2256
  977MOL0     H31857  13.011   1.783   2.407 -0.3982  0.8869  0.0810
  977MOL0     H31858  13.230   1.879   2.379  0.4512 -0.4007 -0.2722
  977MOL0     H31859  13.339   2.077   2.397  0.7752  1.1138 -0.5708
  977MOL0     H31860  13.418   1.955   2.300 -3.5213 -1.3638  1.0253
  977MOL0     H31861  13.561   2.113   2.182 -0.7553 -0.4908 -0.4195
  977MOL0     H31862  13.475   2.251   2.266 -2.5139 -0.9818  1.4667
  977MOL0     H31863  13.569   2.164   2.484 -1.0877 -1.8810  0.6155
  977MOL0     H31864  13.644   2.034   2.396 -0.4065 -0.8333  1.4676
  977MOL0     H31865  13.715   2.321   2.361 -0.7017 -0.1922 -0.1542
  977MOL0     H31866  13.785   2.192   2.268  0.1501 -0.1664 -0.1848
  977MOL0     H31867  13.891   2.105   2.482  1.6656 -0.6557 -3.8584
  977MOL0     H31868  13.803   2.239   2.567 -0.2197 -0.0529 -0.1817
  977MOL0     H31869  14.031   2.261   2.362  0.1709  0.0472 -0.3480
  977MOL0     H31870  13.936   2.396   2.429  1.3471 -0.4534  1.1760
  977MOL0     H31871  14.111   2.225   2.605 -3.9905 -1.0404  2.8887
  977MOL0     H31872  13.980   2.316   2.667  0.0189  0.7771 -0.1171
  977MOL0     H31873  14.077   2.527   2.569 -1.7128 -0.9997  0.4544
  977MOL0     H31874  14.192   2.464   2.683  0.2325 -0.3018 -0.2216
  977MOL0     H31875  13.101   2.109   2.041  0.8961 -1.0732 -0.6011
  977MOL0     H31876  12.879   1.984   2.054  1.8225  2.3216 -1.3894
  977MOL0     H31877  12.613   1.737   2.390 -0.1359 -2.2860  0.4133
  977MOL0     H31878  12.374   1.699   2.419  1.0049 -0.3102  0.6346
  977MOL0     H31879  10.713   1.127   1.615 -2.4622 -0.9558 -0.3224
  977MOL0     H31880  10.694   0.889   1.637  1.6660  1.0770  0.5272
  977MOL0     H31881  10.548   0.580   1.407 -0.4000  0.0491  0.6710
  977MOL0     H31882  10.454   0.374   1.331  0.4842  2.7304 -1.5469
  977MOL0     H31883  10.552  -0.016   1.553 -0.5063  0.3392  0.2036
  977MOL0     H31884  10.671  -0.011   1.420  0.2031  0.6967 -0.8211
  977MOL0     H31885  10.556  -0.188   1.362 -2.8317 -2.3464  2.0140
  977MOL0     H31886  10.474  -0.059   1.267 -3.5437 -1.6340  0.1443
  977MOL0     H31887  10.286  -0.062   1.433 -1.5756 -1.3163 -2.0027
  977MOL0     H31888  10.374  -0.157   1.544 -1.6642 -1.5522  0.1567
  977MOL0     H31889  10.370  -0.345   1.376 -1.4653 -1.5258 -3.1175
  977MOL0     H31890  10.217  -0.301   1.441 -1.2336 -0.1244 -0.6127
  977MOL0     H31891  10.150  -0.142   1.044  0.0883 -1.0880 -1.0340
  977MOL0     H31892  10.722   0.156   1.588 -0.5488 -0.7970 -0.6370
  977MOL0     H31893  10.858   0.269   1.748  1.0480  1.0422  1.0849
  977MOL0     H31894  10.926   0.413   1.672 -1.4735 -0.9408 -0.0309
  977MOL0     H31895  10.798   0.419   1.797 -1.1828 -0.1182  0.9475
  978MOL0     O31896   9.453   8.762   8.538  0.1068 -0.3498  0.1831
  978MOL0     C31897   9.448   8.882   8.562 -0.2670  0.4856 -0.4046
  978MOL0     O31898   9.556   8.968   8.548  0.4707  0.8187  0.2464
  978MOL0     C31899   9.673   8.917   8.500  0.1563  0.7640  0.1008
  978MOL0     C31900   9.705   8.948   8.369  0.0988  0.4308 -0.5064
  978MOL0     C31901   9.820   8.912   8.315 -0.1237 -0.4779  0.0573
  978MOL0     C31902   9.919   8.837   8.381  0.3700  0.6292  0.9086
  978MOL0     O31903  10.043   8.794   8.339 -0.7137 -0.6383 -0.1029
  978MOL0     C31904  10.059   8.773   8.194  0.5345 -0.6997 -0.3657
  978MOL0     C31905  10.166   8.678   8.162  0.0160  0.1439  0.2043
  978MOL0     C31906  10.298   8.734   8.203  0.5909 -0.1964  0.1918
  978MOL0     C31907  10.406   8.645   8.142  0.1767 -0.4677  0.4429
  978MOL0     C31908  10.547   8.676   8.188 -0.0699  0.0561 -0.1979
  978MOL0     C31909  10.609   8.783   8.101  0.6638  0.2454 -0.4028
  978MOL0     C31910  10.749   8.808   8.148 -1.3091  0.0368  0.2966
  978MOL0     C31911  10.819   8.891   8.035  0.4917  0.5492 -0.4331
  978MOL0     N31912  10.931   8.965   8.088 -0.9821  0.2634 -0.5394
  978MOL0     C31913  11.032   8.928   8.175  0.4689 -0.4879  0.3841
  978MOL0     C31914  11.123   9.020   8.157 -0.4093  0.2525  0.9286
  978MOL0     C31915  11.253   9.020   8.223 -0.3419  0.0562  0.0976
  978MOL0     C31916  11.251   9.007   8.375  0.3305  0.2112 -0.3702
  978MOL0     C31917  11.389   8.964   8.417  0.3901 -0.4717 -0.8380
  978MOL0     C31918  11.494   9.074   8.395  0.1399  0.1554 -0.0340
  978MOL0     O31919  11.553   9.039   8.275 -0.7816  0.1189  0.2388
  978MOL0     C31920  11.642   9.136   8.226  0.0836 -0.2178  0.2848
  978MOL0     C31921  11.695   9.111   8.104  0.4444  0.3174  0.7507
  978MOL0     C31922  11.801   9.190   8.043 -0.0131  1.1285  0.3074
  978MOL0     C31923  11.852   9.297   8.117 -0.3407  0.2761 -0.1388
  978MOL0     C31924  11.967   9.379   8.072 -0.6191 -0.1849 -0.2250
  978MOL0     O31925  12.010   9.353   7.947  0.1874 -0.1508 -0.1487
  978MOL0     C31926  12.116   9.417   7.885 -0.1251  0.5763  0.3082
  978MOL0     C31927  12.115   9.462   7.757 -0.0733  0.4836 -0.0047
  978MOL0     C31928  12.231   9.515   7.692 -0.4793  0.7987  0.2365
  978MOL0     C31929  12.358   9.508   7.753  0.4368 -0.1683  0.7488
  978MOL0     O31930  12.463   9.548   7.678 -0.1687  0.0156  0.2966
  978MOL0     C31931  12.587   9.545   7.743  0.3600 -0.5915 -0.5159
  978MOL0     C31932  12.694   9.588   7.660  0.3722  0.3259  0.3746
  978MOL0     C31933  12.835   9.563   7.708 -1.1212 -0.4216 -0.1013
  978MOL0     C31934  12.938   9.644   7.620 -0.3927 -0.0596 -0.3818
  978MOL0     C31935  13.084   9.629   7.654 -0.3332 -0.1948  0.0664
  978MOL0     C31936  13.137   9.484   7.659 -0.1968 -0.4635 -0.4017
  978MOL0     C31937  13.287   9.468   7.687  0.6389  0.2297  1.1311
  978MOL0     C31938  13.388   9.549   7.595  0.0748 -0.1395 -0.2275
  978MOL0    Cl31939  13.364   9.516   7.416  0.2248  0.5546  0.4954
  978MOL0     C31940  12.353   9.452   7.883 -0.4532 -0.0073  0.5308
  978MOL0     C31941  12.238   9.410   7.940 -0.1570  0.0944 -0.7548
  978MOL0     O31942  12.029   9.444   8.158 -0.5834 -0.5949 -0.1649
  978MOL0     C31943  11.790   9.329   8.241  0.2965  0.6386 -0.3267
  978MOL0     C31944  11.694   9.240   8.297  0.0872 -0.1008  0.1018
  978MOL0     N31945  11.083   9.116   8.068 -0.0370 -0.1516 -0.3376
  978MOL0     N31946  10.963   9.076   8.028  0.1161 -0.5551  0.2998
  978MOL0     C31947   9.894   8.810   8.515 -0.0386  0.3060  0.1141
  978MOL0     C31948   9.769   8.843   8.573 -0.2093  0.1470 -0.8778
  978MOL0     C31949   9.317   8.944   8.605 -0.6232  0.2944  0.2931
  978MOL0     C31950   9.311   9.086   8.621  0.2799  0.1023  0.3125
  978MOL0     C31951   9.202   9.154   8.659  0.0840  0.6293  0.7539
  978MOL0     C31952   9.081   9.087   8.685  0.4288  0.1457 -0.0659
  978MOL0     O31953   8.957   9.146   8.715  0.2674 -0.2867 -0.1696
  978MOL0     C31954   8.918   9.286   8.717  0.0897 -0.1065 -0.3715
  978MOL0     C31955   8.807   9.295   8.823 -0.0182 -0.1192 -0.2560
  978MOL0     C31956   8.677   9.228   8.770 -1.0392 -0.4786 -0.4496
  978MOL0     C31957   8.568   9.239   8.879  0.2451  0.1303  0.0154
  978MOL0     C31958   8.438   9.245   8.821  0.4687  0.5836  0.1913
  978MOL0     C31959   8.324   9.259   8.783  0.8910  0.0439 -0.2209
  978MOL0     C31960   9.076   8.950   8.665 -0.4352  0.3503  0.0969
  978MOL0     C31961   9.192   8.878   8.624  0.6674 -1.1766  0.3508
  978MOL0     C31962   9.176   8.727   8.602  0.0458  0.6570 -0.3725
  978MOL0     H31963   9.636   9.012   8.315 -2.6513 -0.7237  1.3990
  978MOL0     H31964   9.838   8.942   8.213  1.1656  0.0549  0.4252
  978MOL0     H31965   9.960   8.742   8.161  0.2998 -1.9148  1.3488
  978MOL0     H31966  10.080   8.870   8.147 -3.0499 -0.3968 -1.6625
  978MOL0     H31967  10.169   8.666   8.053  1.3214 -1.1110  0.3467
  978MOL0     H31968  10.135   8.590   8.219 -1.5060  0.3523 -0.2477
  978MOL0     H31969  10.309   8.735   8.312  0.9982  0.1371  0.1501
  978MOL0     H31970  10.314   8.839   8.175  2.8835 -0.9006 -1.3813
  978MOL0     H31971  10.390   8.537   8.157  0.0998 -0.5715 -0.3704
  978MOL0     H31972  10.395   8.653   8.034 -0.5065  0.6320  0.5705
  978MOL0     H31973  10.547   8.709   8.293 -1.4501 -0.6200  0.0508
  978MOL0     H31974  10.598   8.579   8.185 -1.2443 -0.6607  1.4121
  978MOL0     H31975  10.606   8.744   7.998 -1.6154 -0.0546 -0.2674
  978MOL0     H31976  10.549   8.874   8.109  0.4508  0.2446 -1.7599
  978MOL0     H31977  10.793   8.710   8.168 -3.5200 -1.3460 -1.2307
  978MOL0     H31978  10.755   8.873   8.236 -0.6968  3.1678 -1.9016
  978MOL0     H31979  10.859   8.831   7.953  1.1483 -0.9251  0.9012
  978MOL0     H31980  10.743   8.963   8.004 -0.8872  0.0336  1.5111
  978MOL0     H31981  11.041   8.837   8.234  0.0800 -2.3460 -2.2315
  978MOL0     H31982  11.309   8.945   8.166  2.0937  1.7587  0.0959
  978MOL0     H31983  11.310   9.111   8.201  1.4203 -0.1295  3.3121
  978MOL0     H31984  11.227   9.100   8.427  0.8499 -0.0699  0.3915
  978MOL0     H31985  11.171   8.933   8.385  0.7316 -0.4660 -1.8840
  978MOL0     H31986  11.401   8.865   8.371 -1.5832 -1.4191  0.5476
  978MOL0     H31987  11.392   8.952   8.525  1.8190  2.7841 -0.4101
  978MOL0     H31988  11.568   9.071   8.476  1.1634 -1.7598 -0.9853
  978MOL0     H31989  11.441   9.170   8.388 -1.7211 -0.9221 -2.0560
  978MOL0     H31990  11.663   9.016   8.061 -0.7745  0.6593  0.8417
  978MOL0     H31991  11.839   9.164   7.945  0.1573  0.7712  0.4683
  978MOL0     H31992  12.018   9.468   7.709  0.1200  1.9329 -0.2630
  978MOL0     H31993  12.221   9.551   7.590 -0.6263 -0.7355 -0.3218
  978MOL0     H31994  12.583   9.608   7.833  1.0227  0.4480 -1.1827
  978MOL0     H31995  12.604   9.441   7.772 -2.2794 -2.1731 -3.9094
  978MOL0     H31996  12.693   9.549   7.557 -3.0948  0.5392  0.2207
  978MOL0     H31997  12.686   9.697   7.658  0.8833  0.3614 -1.3862
  978MOL0     H31998  12.855   9.589   7.813  1.3695  2.5523 -1.1340
  978MOL0     H31999  12.860   9.457   7.699 -2.1145 -0.7472  0.7813
  978MOL0     H32000  12.915   9.750   7.638 -1.8465 -0.0706 -1.9025
  978MOL0     H32001  12.919   9.618   7.516  3.2744 -1.0515 -0.9144
  978MOL0     H32002  13.097   9.679   7.751  0.5783  0.1933 -0.2506
  978MOL0     H32003  13.144   9.682   7.580  2.0242 -1.3913  1.0139
  978MOL0     H32004  13.079   9.433   7.737  2.5439 -2.0325  0.7581
  978MOL0     H32005  13.119   9.436   7.563 -0.0568 -2.1685  0.3916
  978MOL0     H32006  13.299   9.360   7.681 -1.7101  0.0041 -1.5869
  978MOL0     H32007  13.295   9.500   7.792 -4.0803  2.8606  0.9729
  978MOL0     H32008  13.368   9.650   7.632 -1.2559  0.0800 -1.4639
  978MOL0     H32009  13.490   9.524   7.627  0.5360  2.6297  0.7389
  978MOL0     H32010  12.440   9.431   7.944 -0.1972  0.1217  0.2134
  978MOL0     H32011  12.260   9.366   8.036  0.7167  2.1113  0.0324
  978MOL0     H32012  11.824   9.413   8.300  0.3559  0.1168  0.3904
  978MOL0     H32013  11.668   9.244   8.402 -3.1528 -1.8579 -0.5004
  978MOL0     H32014   9.959   8.746   8.575  0.2842  0.7580  0.2536
  978MOL0     H32015   9.767   8.823   8.680  0.4638  0.7383 -0.7485
  978MOL0     H32016   9.397   9.151   8.607 -0.3356  1.0806  0.9325
  978MOL0     H32017   9.207   9.261   8.678 -1.8135  0.4804  2.4201
  978MOL0     H32018   8.884   9.313   8.617  0.1065  0.2231 -0.2874
  978MOL0     H32019   8.999   9.351   8.751 -0.5602  0.6173 -0.2075
  978MOL0     H32020   8.792   9.402   8.843 -1.6095 -0.2738 -0.5187
  978MOL0     H32021   8.850   9.260   8.918  0.8011  1.3436 -0.0622
  978MOL0     H32022   8.693   9.124   8.741 -1.5313 -0.0166 -2.6227
  978MOL0     H32023   8.639   9.285   8.684  0.3321 -1.0119 -1.4441
  978MOL0     H32024   8.571   9.149   8.942 -1.6375 -0.9638 -1.3666
  978MOL0     H32025   8.589   9.334   8.929  3.8840 -0.8225  0.5878
  978MOL0     H32026   8.219   9.271   8.762  1.3792  0.8782 -2.5528
  978MOL0     H32027   8.981   8.898   8.661 -2.6463  4.0820 -2.2556
  978MOL0     H32028   9.179   8.702   8.495  1.0728  2.0185 -0.6918
  978MOL0     H32029   9.255   8.679   8.660  0.3888  1.6375 -0.0118
  978MOL0     H32030   9.089   8.682   8.651  0.9716 -1.6482 -0.7408
  979MOL0     O32031  10.302   7.930   2.783 -0.4321 -0.4190  0.1705
  979MOL0     C32032  10.270   7.953   2.899  0.7930 -0.1963  0.3014
  979MOL0     O32033  10.359   7.956   3.001  0.6338 -0.4811 -0.2956
  979MOL0     C32034  10.491   7.947   2.976  1.2771  0.1312  0.4766
  979MOL0     C32035  10.543   7.842   2.901 -0.5280 -0.3358  0.2664
  979MOL0     C32036  10.682   7.833   2.876 -0.0278 -0.1623 -0.4145
  979MOL0     C32037  10.774   7.926   2.915 -0.5381  0.2873 -0.4259
  979MOL0     O32038  10.908   7.910   2.875  0.4047 -0.0668  0.1460
  979MOL0     C32039  11.004   7.963   2.963  0.6437 -0.4687  0.5559
  979MOL0     C32040  11.144   7.918   2.914 -0.0313 -0.5917 -0.3789
  979MOL0     C32041  11.253   7.975   3.022 -0.8778  0.3534 -0.2529
  979MOL0     C32042  11.393   7.915   2.993  0.0225 -0.0070 -0.4308
  979MOL0     C32043  11.508   8.003   3.058  0.2791 -0.2765 -0.3483
  979MOL0     C32044  11.502   8.022   3.209  0.4430 -0.1349  0.3066
  979MOL0     C32045  11.492   7.897   3.285  0.2145  0.7103  0.1827
  979MOL0     C32046  11.488   7.928   3.433  0.1654 -0.0747 -0.1762
  979MOL0     N32047  11.491   7.796   3.502 -0.7846  0.2118  0.0458
  979MOL0     C32048  11.603   7.757   3.577 -1.1748 -0.6941  0.3350
  979MOL0     C32049  11.554   7.644   3.640  0.2611  0.1484  0.1435
  979MOL0     C32050  11.625   7.562   3.743  0.1954 -0.4907 -0.1297
  979MOL0     C32051  11.772   7.577   3.729  0.2726 -0.5435 -0.2039
  979MOL0     C32052  11.854   7.520   3.840  0.5653  0.1330 -0.6192
  979MOL0     C32053  12.000   7.520   3.800 -0.5493 -0.1408 -0.5276
  979MOL0     O32054  12.042   7.405   3.728 -0.5204  0.3432  0.2106
  979MOL0     C32055  12.179   7.393   3.723  1.0144  0.0061  0.0560
  979MOL0     C32056  12.281   7.494   3.736 -0.1705 -0.1336 -0.0139
  979MOL0     C32057  12.415   7.464   3.713  0.5496 -0.2591 -0.2515
  979MOL0     C32058  12.450   7.336   3.682 -0.5757  0.5272 -0.8100
  979MOL0     C32059  12.596   7.303   3.667 -0.5498 -0.3537 -0.1213
  979MOL0     O32060  12.684   7.399   3.706  0.1978 -0.9175 -0.3391
  979MOL0     C32061  12.813   7.370   3.725  0.2106 -0.4897 -0.0119
  979MOL0     C32062  12.871   7.390   3.850  0.2600  0.4765 -0.4002
  979MOL0     C32063  13.001   7.367   3.871 -0.1083  0.2369 -0.5386
  979MOL0     C32064  13.085   7.323   3.769  0.1041  0.1888 -0.3988
  979MOL0     O32065  13.218   7.314   3.798  0.1622  0.3087 -0.3383
  979MOL0     C32066  13.288   7.200   3.747 -0.2991 -0.9881 -0.1325
  979MOL0     C32067  13.391   7.255   3.637  0.2353  0.7628  0.6574
  979MOL0     C32068  13.501   7.343   3.706  0.4257  0.4227  0.9889
  979MOL0     C32069  13.593   7.408   3.603  0.5361 -1.3255 -0.3310
  979MOL0     C32070  13.713   7.317   3.570  0.0543  0.1979  0.2998
  979MOL0     C32071  13.803   7.382   3.474  0.1150  0.8936  0.2682
  979MOL0     C32072  13.916   7.467   3.542  0.1352  0.1725  0.2984
  979MOL0     C32073  14.032   7.505   3.440 -0.0251  0.4558  0.3288
  979MOL0    Cl32074  14.164   7.591   3.513  0.0924 -0.1415  0.2068
  979MOL0     C32075  13.030   7.288   3.645 -0.2845  0.3906  0.3121
  979MOL0     C32076  12.893   7.310   3.629  0.7745 -1.0173 -0.1261
  979MOL0     O32077  12.633   7.194   3.626  1.4972  0.9147  0.4266
  979MOL0     C32078  12.356   7.235   3.680 -0.7324 -0.1831 -0.3898
  979MOL0     C32079  12.219   7.269   3.702 -0.0724  0.4046 -0.2408
  979MOL0     N32080  11.421   7.630   3.594 -0.7301 -0.7791 -0.2885
  979MOL0     N32081  11.386   7.713   3.509  0.1852 -0.9410  0.5673
  979MOL0     C32082  10.727   8.028   2.996 -0.1177  0.1119  1.1527
  979MOL0     C32083  10.589   8.035   3.027 -0.0194 -0.1532  0.9624
  979MOL0     C32084  10.131   7.981   2.936  1.1262  0.2235 -0.3018
  979MOL0     C32085  10.092   7.994   3.070  0.0330 -0.7479 -0.1944
  979MOL0     C32086   9.963   8.039   3.113  0.0111 -0.8317 -0.7535
  979MOL0     C32087   9.860   8.051   3.019 -0.3253  0.0497  0.6228
  979MOL0     O32088   9.738   8.081   3.076  0.9314 -0.6943 -0.1650
  979MOL0     C32089   9.636   8.113   2.979  0.1353  0.7482  0.3310
  979MOL0     C32090   9.500   8.122   3.039  0.0738 -0.4358  0.4896
  979MOL0     C32091   9.461   8.267   3.060 -0.1208  0.7874  0.4603
  979MOL0     C32092   9.329   8.286   3.138 -0.0897 -0.2072  0.7696
  979MOL0     C32093   9.220   8.252   3.059 -0.9586 -0.1439  0.5647
  979MOL0     C32094   9.120   8.242   2.991  0.2680  0.4867 -0.2855
  979MOL0     C32095   9.896   8.035   2.884  0.9102  0.7869 -0.3848
  979MOL0     C32096  10.025   8.003   2.841  0.6780  0.0324  0.3304
  979MOL0     C32097  10.041   7.999   2.695 -0.3942 -0.0992  0.1199
  979MOL0     H32098  10.482   7.767   2.852 -2.8198 -0.5243  3.1106
  979MOL0     H32099  10.723   7.744   2.828  1.8334  1.2343 -1.5060
  979MOL0     H32100  10.993   8.072   2.965  2.4540 -0.2669  1.0380
  979MOL0     H32101  10.980   7.927   3.063 -1.8770  0.3347  0.3179
  979MOL0     H32102  11.167   7.967   2.820 -2.2664  2.4149  0.4879
  979MOL0     H32103  11.148   7.811   2.891  2.2305 -0.5844 -0.2828
  979MOL0     H32104  11.228   7.950   3.125  0.7006 -1.0054 -0.1629
  979MOL0     H32105  11.255   8.085   3.018 -1.9084  0.3716 -0.5364
  979MOL0     H32106  11.409   7.809   3.019  0.7851 -0.2161 -1.6684
  979MOL0     H32107  11.407   7.924   2.885  0.1285  2.8524 -0.2316
  979MOL0     H32108  11.604   7.958   3.030  0.4661 -0.1857  0.1349
  979MOL0     H32109  11.499   8.101   3.012 -0.3061 -0.3874 -0.4814
  979MOL0     H32110  11.589   8.080   3.241  0.3769  1.8384 -2.7113
  979MOL0     H32111  11.409   8.072   3.235  1.6568  1.9219  0.8975
  979MOL0     H32112  11.574   7.831   3.256 -0.2790  0.9132 -1.7621
  979MOL0     H32113  11.401   7.842   3.260  0.4654  0.1642  0.4499
  979MOL0     H32114  11.578   7.982   3.464 -0.0029 -0.4457  0.9966
  979MOL0     H32115  11.402   7.989   3.463  0.3941  0.1590  0.0110
  979MOL0     H32116  11.704   7.795   3.584 -1.0781 -0.7188 -0.7754
  979MOL0     H32117  11.601   7.594   3.845 -0.4010 -0.7700 -0.1759
  979MOL0     H32118  11.582   7.461   3.734 -1.8827  0.2755  0.5839
  979MOL0     H32119  11.798   7.538   3.629 -1.2860  1.3095 -1.3959
  979MOL0     H32120  11.798   7.683   3.732  0.2842 -0.5432 -0.2971
  979MOL0     H32121  11.810   7.422   3.858 -2.0907  1.4787  0.8299
  979MOL0     H32122  11.832   7.594   3.918 -2.4541  1.6053 -2.6920
  979MOL0     H32123  12.065   7.524   3.889 -1.4833 -0.1172  0.1628
  979MOL0     H32124  12.036   7.608   3.748  1.0837  0.4538  1.4403
  979MOL0     H32125  12.257   7.598   3.758  0.4725  0.0300 -0.0663
  979MOL0     H32126  12.489   7.541   3.731 -0.5375  1.0025 -1.0168
  979MOL0     H32127  12.807   7.432   3.927 -0.6821  3.0960 -2.4654
  979MOL0     H32128  13.039   7.393   3.969 -2.1977 -1.7063  0.8853
  979MOL0     H32129  13.337   7.138   3.822  1.5748 -3.9302 -3.4906
  979MOL0     H32130  13.223   7.127   3.698  1.4980 -2.3704 -0.5760
  979MOL0     H32131  13.446   7.181   3.579  1.5808  1.6771  0.7220
  979MOL0     H32132  13.339   7.316   3.562 -0.9710  0.0202  0.8734
  979MOL0     H32133  13.448   7.411   3.773  0.0430 -0.2428  1.3655
  979MOL0     H32134  13.564   7.276   3.765  0.9959 -0.1757 -0.2384
  979MOL0     H32135  13.622   7.510   3.632 -1.8789  0.2673 -2.9220
  979MOL0     H32136  13.535   7.430   3.512  0.3229  0.5141  0.1949
  979MOL0     H32137  13.676   7.229   3.517  0.7599 -0.9725  1.6865
  979MOL0     H32138  13.777   7.293   3.656  0.4115 -1.6417 -0.4349
  979MOL0     H32139  13.864   7.307   3.421  0.2392  2.4219 -1.9145
  979MOL0     H32140  13.746   7.432   3.395  1.1873  2.6146  0.5265
  979MOL0     H32141  13.957   7.416   3.629  0.0280  0.0542  0.2799
  979MOL0     H32142  13.875   7.564   3.571 -1.1597  0.9432 -3.5426
  979MOL0     H32143  14.068   7.406   3.410 -0.0795 -0.0262  1.8086
  979MOL0     H32144  13.998   7.560   3.351 -0.9195 -1.8838 -0.8703
  979MOL0     H32145  13.095   7.255   3.564 -0.9046 -1.9134  0.6739
  979MOL0     H32146  12.858   7.282   3.530  1.1228  0.1226 -0.5825
  979MOL0     H32147  12.378   7.130   3.665 -0.0029 -0.4097  1.8279
  979MOL0     H32148  12.148   7.187   3.695  1.4532 -0.8749 -1.9357
  979MOL0     H32149  10.795   8.104   3.034  1.3403 -1.1561  1.1490
  979MOL0     H32150  10.565   8.121   3.089  1.8785  2.0189 -1.1034
  979MOL0     H32151  10.165   7.984   3.150 -2.6593 -2.1013  2.2616
  979MOL0     H32152   9.942   8.050   3.219 -1.7319 -0.7514 -1.0871
  979MOL0     H32153   9.629   8.033   2.905  0.6404  0.9132  0.1027
  979MOL0     H32154   9.653   8.201   2.917 -0.6490 -0.2500 -1.3526
  979MOL0     H32155   9.502   8.072   3.137  2.0813 -1.4715 -0.0228
  979MOL0     H32156   9.424   8.067   2.983  1.6818 -0.8732 -1.3630
  979MOL0     H32157   9.454   8.316   2.962  4.2506  0.3379 -0.3055
  979MOL0     H32158   9.546   8.316   3.108  1.5267 -3.2557  2.2180
  979MOL0     H32159   9.332   8.215   3.222  0.8539 -2.5230 -1.0912
  979MOL0     H32160   9.326   8.386   3.181  0.8433  0.7096 -1.1685
  979MOL0     H32161   9.037   8.233   2.925 -2.1582 -1.9950  2.7945
  979MOL0     H32162   9.827   8.027   2.800  1.5314 -1.6224 -0.7337
  979MOL0     H32163   9.945   8.002   2.642  0.3900  1.3640 -1.3184
  979MOL0     H32164  10.109   8.080   2.667 -4.3927  2.9516 -2.0290
  979MOL0     H32165  10.082   7.902   2.667 -2.2487 -1.5369  2.0431
  980MOL0     O32166   5.660   7.138   6.240  0.0851  0.1430 -0.2186
  980MOL0     C32167   5.703   7.211   6.145  0.4273 -0.2892  0.4508
  980MOL0     O32168   5.826   7.264   6.134  0.6023 -0.2426  0.0830
  980MOL0     C32169   5.936   7.191   6.187 -0.5271  0.1492 -0.9849
  980MOL0     C32170   6.003   7.241   6.299 -0.7007 -0.4962  0.2791
  980MOL0     C32171   6.117   7.184   6.358 -0.2541 -0.4807  0.2003
  980MOL0     C32172   6.162   7.069   6.300 -0.6169  0.0136 -0.0953
  980MOL0     O32173   6.277   7.034   6.361 -0.0533 -0.2949 -0.6228
  980MOL0     C32174   6.348   6.918   6.316  0.4972 -0.2690 -0.4834
  980MOL0     C32175   6.443   6.942   6.202  0.1565 -0.0647 -0.4690
  980MOL0     C32176   6.543   7.053   6.220  0.0275  0.5433 -0.4855
  980MOL0     C32177   6.644   7.013   6.326 -0.7903  0.4538 -0.1982
  980MOL0     C32178   6.765   7.116   6.355 -0.7759 -0.7248 -0.1734
  980MOL0     C32179   6.839   7.154   6.223 -0.2684  0.0562  0.4519
  980MOL0     C32180   6.965   7.233   6.259 -0.1894 -0.5809 -0.2516
  980MOL0     C32181   7.033   7.316   6.145 -0.1913 -0.5757 -0.0799
  980MOL0     N32182   7.089   7.217   6.055 -0.3834  0.0943  0.1813
  980MOL0     C32183   7.200   7.138   6.074  0.4337 -0.5316  0.1532
  980MOL0     C32184   7.178   7.034   5.989  0.0836 -0.6907 -0.1238
  980MOL0     C32185   7.279   6.920   5.966  0.3570  0.0081 -0.4547
  980MOL0     C32186   7.418   6.960   5.905  0.4195 -0.2430  0.0624
  980MOL0     C32187   7.507   6.839   5.881 -0.3949 -0.0435  0.3333
  980MOL0     C32188   7.659   6.872   5.872 -0.1928 -0.2748  0.8885
  980MOL0     O32189   7.734   6.787   5.777  0.1029 -0.0134 -0.0384
  980MOL0     C32190   7.870   6.793   5.779 -0.0702 -0.9607 -0.1239
  980MOL0     C32191   7.930   6.735   5.671 -0.3452  0.7815  0.5575
  980MOL0     C32192   8.071   6.731   5.656  0.0878 -0.0130  0.2038
  980MOL0     C32193   8.150   6.787   5.755  0.0460 -0.2550  0.0666
  980MOL0     C32194   8.300   6.793   5.743  0.3938 -0.0867 -0.6443
  980MOL0     O32195   8.348   6.802   5.614 -0.3783  0.2981 -0.3802
  980MOL0     C32196   8.478   6.825   5.602 -0.0225  0.1978  0.5845
  980MOL0     C32197   8.524   6.953   5.596 -0.6983 -0.7335  0.6651
  980MOL0     C32198   8.664   6.979   5.574 -0.4662  0.2528  0.8921
  980MOL0     C32199   8.758   6.873   5.551 -0.8038  0.0723 -0.7653
  980MOL0     O32200   8.889   6.902   5.533  0.2791 -0.1483  0.4530
  980MOL0     C32201   8.988   6.802   5.572  1.4996 -0.0273 -0.6898
  980MOL0     C32202   9.125   6.869   5.566 -0.6061  0.1189 -0.3745
  980MOL0     C32203   9.153   6.898   5.424  0.2802 -0.2282 -0.7994
  980MOL0     C32204   9.298   6.964   5.404  0.0217  0.6181  0.8423
  980MOL0     C32205   9.344   6.926   5.264  0.1938  0.0494 -0.2840
  980MOL0     C32206   9.249   6.970   5.147 -0.0581 -0.3434 -0.8370
  980MOL0     C32207   9.294   6.948   5.006  0.1774 -0.2891 -0.0163
  980MOL0     C32208   9.367   6.819   4.994 -0.7674  0.4592 -0.7825
  980MOL0    Cl32209   9.396   6.775   4.829  0.5246  0.0120  0.2182
  980MOL0     C32210   8.707   6.742   5.558 -0.3268 -0.1099 -0.0512
  980MOL0     C32211   8.569   6.716   5.593 -0.2027  1.1366  0.2489
  980MOL0     O32212   8.369   6.790   5.847 -0.6308 -0.7199  0.4074
  980MOL0     C32213   8.087   6.846   5.864  0.0764  0.3687 -0.6252
  980MOL0     C32214   7.952   6.850   5.880  1.4455 -0.0408  0.7154
  980MOL0     N32215   7.068   7.064   5.903  0.4014 -0.2047 -0.5016
  980MOL0     N32216   7.010   7.173   5.947  0.3377  0.3508 -0.3866
  980MOL0     C32217   6.101   7.008   6.191  0.2178  0.1887  0.4420
  980MOL0     C32218   5.984   7.073   6.141  0.3731 -0.2183  0.3095
  980MOL0     C32219   5.598   7.236   6.029 -0.1633  1.2504  0.2373
  980MOL0     C32220   5.638   7.339   5.934 -0.1985 -0.0087 -0.7926
  980MOL0     C32221   5.549   7.380   5.840 -0.3107 -0.6652  0.1727
  980MOL0     C32222   5.434   7.309   5.819 -0.7265  0.2468  0.7453
  980MOL0     O32223   5.373   7.347   5.699  0.7711  0.0632 -1.2740
  980MOL0     C32224   5.238   7.309   5.665 -0.5103 -0.1862  0.4054
  980MOL0     C32225   5.212   7.349   5.519  0.4891 -0.0175  0.0255
  980MOL0     C32226   5.065   7.386   5.495 -0.7150  0.2170 -0.4306
  980MOL0     C32227   5.053   7.476   5.366  0.3960  0.0935 -0.3353
  980MOL0     C32228   4.913   7.527   5.362  0.1487 -0.9781 -0.6719
  980MOL0     C32229   4.800   7.584   5.362  0.6001 -0.3881  0.8116
  980MOL0     C32230   5.397   7.214   5.907  0.2176  0.3803  0.2901
  980MOL0     C32231   5.477   7.175   6.015  0.4490 -1.0264 -0.1988
  980MOL0     C32232   5.412   7.074   6.111  0.4391 -0.5009  0.9020
  980MOL0     H32233   5.962   7.333   6.340 -1.7514 -0.5475 -0.6250
  980MOL0     H32234   6.173   7.243   6.429 -1.2855 -1.1357  1.6174
  980MOL0     H32235   6.401   6.871   6.398  2.1924  0.5560 -1.0464
  980MOL0     H32236   6.281   6.838   6.283  3.1997 -3.0861  0.3944
  980MOL0     H32237   6.386   6.973   6.114  0.5857  2.2017 -0.0139
  980MOL0     H32238   6.490   6.850   6.166 -3.4669 -2.1745 -0.2933
  980MOL0     H32239   6.496   7.145   6.256 -2.3063 -1.2687  1.4058
  980MOL0     H32240   6.594   7.080   6.127  0.8480  1.0535  0.0906
  980MOL0     H32241   6.596   7.014   6.424  1.9938  1.5443  1.2803
  980MOL0     H32242   6.680   6.911   6.307 -0.6960  0.7997 -2.0960
  980MOL0     H32243   6.719   7.204   6.401 -0.1953 -0.6447  0.2546
  980MOL0     H32244   6.845   7.084   6.422  0.0951  1.9517  0.1590
  980MOL0     H32245   6.876   7.068   6.166  1.7426  2.2505 -1.7633
  980MOL0     H32246   6.766   7.208   6.161 -1.2480 -0.2954  1.2684
  980MOL0     H32247   7.040   7.170   6.307  1.2235  0.2965 -1.2331
  980MOL0     H32248   6.942   7.304   6.339  2.3897  0.0337  0.0456
  980MOL0     H32249   6.958   7.379   6.095  2.7444  3.8893  0.5391
  980MOL0     H32250   7.114   7.381   6.179  0.6945  0.3864 -3.6329
  980MOL0     H32251   7.280   7.147   6.148 -0.1716  0.3480  0.7218
  980MOL0     H32252   7.295   6.861   6.056 -2.2063 -1.0610 -0.6199
  980MOL0     H32253   7.223   6.851   5.903 -2.3695  0.1599  1.6479
  980MOL0     H32254   7.407   7.025   5.818 -1.1660  2.0003  1.8137
  980MOL0     H32255   7.475   7.012   5.982  0.1520 -1.6933  1.2835
  980MOL0     H32256   7.482   6.793   5.785  0.1411  1.4396 -0.5407
  980MOL0     H32257   7.492   6.774   5.968 -2.9069  0.9242  0.7085
  980MOL0     H32258   7.706   6.845   5.966  3.1523 -0.4483 -0.6911
  980MOL0     H32259   7.679   6.978   5.851  0.9904  0.1935  3.9217
  980MOL0     H32260   7.865   6.703   5.591  0.0557  1.9190 -0.2528
  980MOL0     H32261   8.120   6.681   5.573  0.8743 -0.1320  0.7362
  980MOL0     H32262   8.464   7.036   5.634 -1.8952 -1.9847  1.6017
  980MOL0     H32263   8.690   7.085   5.578 -1.4772  0.5271  0.4517
  980MOL0     H32264   8.975   6.763   5.673  2.0934  1.8052  0.1348
  980MOL0     H32265   8.984   6.723   5.497 -0.0755 -1.2927  0.6635
  980MOL0     H32266   9.115   6.955   5.633 -1.8135 -1.0486  1.0279
  980MOL0     H32267   9.198   6.797   5.604  1.7156  1.8371 -1.3755
  980MOL0     H32268   9.144   6.806   5.367 -0.0634 -0.1930 -0.8081
  980MOL0     H32269   9.083   6.968   5.378  0.9722  1.4471  0.5731
  980MOL0     H32270   9.365   6.928   5.483 -0.0996 -2.1075 -0.1662
  980MOL0     H32271   9.286   7.072   5.409 -0.6010  0.6148 -0.2485
  980MOL0     H32272   9.363   6.819   5.262  2.5743  0.3436  1.7209
  980MOL0     H32273   9.442   6.972   5.244  0.9070  1.2019  4.5044
  980MOL0     H32274   9.149   6.927   5.142 -0.2040  0.1006 -1.8976
  980MOL0     H32275   9.228   7.076   5.164 -0.7106 -0.8420  1.8746
  980MOL0     H32276   9.364   7.024   4.969  1.0841 -1.7619 -1.4834
  980MOL0     H32277   9.205   6.948   4.943  0.4685 -0.9020 -0.4451
  980MOL0     H32278   9.464   6.830   5.043 -0.7792 -0.2216 -0.5864
  980MOL0     H32279   9.318   6.735   5.045 -4.1092  1.5088 -1.9643
  980MOL0     H32280   8.773   6.656   5.559  1.9402  1.5562  0.7528
  980MOL0     H32281   8.535   6.614   5.607 -1.6443  1.4434 -0.7639
  980MOL0     H32282   8.149   6.884   5.944 -2.7383 -1.0802  2.4895
  980MOL0     H32283   7.911   6.893   5.971 -0.7721 -2.2229  0.8676
  980MOL0     H32284   6.145   6.927   6.135 -0.6110 -1.2765  1.8238
  980MOL0     H32285   5.935   7.028   6.055 -0.6641  0.4754  0.5269
  980MOL0     H32286   5.729   7.397   5.934 -0.5606  0.5970  0.6753
  980MOL0     H32287   5.584   7.457   5.772 -0.7904  0.5635  1.2881
  980MOL0     H32288   5.165   7.355   5.733 -1.0889 -0.0382 -0.3045
  980MOL0     H32289   5.230   7.200   5.669 -2.3458 -0.0462  2.1562
  980MOL0     H32290   5.241   7.272   5.448  1.9220 -0.2466  0.8280
  980MOL0     H32291   5.279   7.432   5.496  1.5615 -0.8863 -0.0323
  980MOL0     H32292   5.025   7.454   5.570 -0.7312 -1.6892  1.3534
  980MOL0     H32293   5.005   7.295   5.496 -0.6086  0.0875  2.7532
  980MOL0     H32294   5.113   7.567   5.368  0.1692  0.2558 -0.7682
  980MOL0     H32295   5.070   7.421   5.272  1.7754 -2.0462  1.0710
  980MOL0     H32296   4.710   7.642   5.352  0.9435  0.3477  1.8125
  980MOL0     H32297   5.304   7.158   5.894  1.2847 -1.8584  1.6339
  980MOL0     H32298   5.408   7.111   6.214  0.0738 -0.7195  0.9665
  980MOL0     H32299   5.311   7.050   6.076  1.3417 -3.0097 -0.2217
  980MOL0     H32300   5.466   6.979   6.105  4.0471  1.4073  0.4897
  981MOL0     O32301   5.580  10.418   9.918 -0.0602 -0.3859  0.3673
  981MOL0     C32302   5.556  10.536   9.950 -0.2290  0.9587  0.9660
  981MOL0     O32303   5.596  10.642   9.883 -0.3962 -0.0379  0.7566
  981MOL0     C32304   5.704  10.639   9.797  0.1092 -0.3652  0.0076
  981MOL0     C32305   5.826  10.581   9.824 -0.7263 -0.5809 -0.4302
  981MOL0     C32306   5.929  10.563   9.730 -0.5577 -0.1825 -0.4815
  981MOL0     C32307   5.912  10.613   9.601  0.2845 -0.7526  0.3342
  981MOL0     O32308   5.997  10.567   9.510  0.4452  0.5181 -0.6310
  981MOL0     C32309   5.984  10.597   9.373  0.5257  0.5294 -1.1263
  981MOL0     C32310   6.074  10.529   9.273 -0.0501 -0.3073 -0.1176
  981MOL0     C32311   6.224  10.567   9.287  0.5854  0.2674  0.1342
  981MOL0     C32312   6.318  10.461   9.228 -0.8614  0.1801  0.2708
  981MOL0     C32313   6.465  10.477   9.283  0.0703  0.0157 -0.6928
  981MOL0     C32314   6.565  10.390   9.203  0.0990 -0.4025 -0.0206
  981MOL0     C32315   6.705  10.438   9.248  0.4233  0.0053  0.7028
  981MOL0     C32316   6.822  10.378   9.172 -0.7072  0.3182 -0.3691
  981MOL0     N32317   6.832  10.441   9.042 -0.1044  0.1477 -0.5107
  981MOL0     C32318   6.916  10.538   9.026 -0.5617 -0.6353  0.1893
  981MOL0     C32319   6.876  10.594   8.913 -0.0878 -0.5844  0.5188
  981MOL0     C32320   6.926  10.724   8.857  0.3327 -0.1800  1.3488
  981MOL0     C32321   7.077  10.730   8.851  0.1084  0.2360  0.9284
  981MOL0     C32322   7.134  10.854   8.794 -0.6016 -0.3427  0.3259
  981MOL0     C32323   7.125  10.976   8.888 -0.1579  0.3534  0.1976
  981MOL0     O32324   7.187  10.971   9.016  0.4462 -0.1288 -0.5618
  981MOL0     C32325   7.318  11.003   9.020 -0.7002  0.1634 -1.0608
  981MOL0     C32326   7.400  11.053   8.917  0.8589 -0.0729 -0.1902
  981MOL0     C32327   7.534  11.092   8.938 -0.0437  0.0844 -0.2076
  981MOL0     C32328   7.601  11.072   9.055  0.2301  0.2662 -0.3881
  981MOL0     C32329   7.738  11.114   9.072 -0.0807 -0.4120 -0.9115
  981MOL0     O32330   7.787  11.115   9.202  0.5909 -0.4375  1.0033
  981MOL0     C32331   7.921  11.115   9.234 -0.2717 -0.0963 -0.1163
  981MOL0     C32332   8.001  11.221   9.191 -0.2739  0.8148  0.5794
  981MOL0     C32333   8.137  11.222   9.234  0.2759 -0.2669  0.3052
  981MOL0     C32334   8.186  11.133   9.333 -0.4717 -0.8518  0.0716
  981MOL0     O32335   8.321  11.138   9.379  0.1005  0.8961  0.7018
  981MOL0     C32336   8.431  11.198   9.308  0.6510  0.4867 -0.3275
  981MOL0     C32337   8.561  11.146   9.350  0.0583  0.3449 -0.1267
  981MOL0     C32338   8.676  11.208   9.267 -0.6828 -0.1168 -0.0512
  981MOL0     C32339   8.817  11.157   9.309 -0.1173 -0.1311 -0.6368
  981MOL0     C32340   8.929  11.196   9.204 -0.6110 -0.0407 -0.2731
  981MOL0     C32341   9.073  11.180   9.260  0.1722 -0.3161 -0.5533
  981MOL0     C32342   9.087  11.046   9.334  1.1573  0.4150 -0.3183
  981MOL0     C32343   9.234  11.009   9.358 -0.8982  0.2751  0.0171
  981MOL0    Cl32344   9.313  11.146   9.459 -0.3124 -0.2481 -0.3220
  981MOL0     C32345   8.103  11.028   9.377 -0.9064 -0.2956 -0.0594
  981MOL0     C32346   7.974  11.013   9.313 -0.5428  0.0804 -0.0543
  981MOL0     O32347   7.805  11.133   8.977 -0.0153  0.0351 -0.1286
  981MOL0     C32348   7.530  11.012   9.161  0.1803  0.0548  0.5395
  981MOL0     C32349   7.391  10.984   9.146 -0.1101  0.8473  0.3918
  981MOL0     N32350   6.772  10.519   8.857  0.0787 -0.4451  0.8892
  981MOL0     N32351   6.740  10.431   8.947  0.1419 -1.0049 -0.1860
  981MOL0     C32352   5.794  10.691   9.574  0.5729  0.1384 -0.5127
  981MOL0     C32353   5.689  10.695   9.668 -0.2423 -0.3685 -0.6375
  981MOL0     C32354   5.472  10.576  10.060 -0.2902  0.3962  0.1081
  981MOL0     C32355   5.374  10.681  10.035 -0.4461  0.3954 -0.6378
  981MOL0     C32356   5.283  10.716  10.131  0.5143 -0.5325 -0.3830
  981MOL0     C32357   5.288  10.654  10.259 -0.2200  0.4795  0.4163
  981MOL0     O32358   5.209  10.686  10.368  0.1318 -0.0527 -1.0693
  981MOL0     C32359   5.080  10.735  10.346  0.1305 -0.4899 -0.2948
  981MOL0     C32360   4.988  10.631  10.294  0.1814  0.3299 -0.5780
  981MOL0     C32361   4.853  10.684  10.248 -0.3900  0.4708 -0.3915
  981MOL0     C32362   4.771  10.571  10.192  0.8758 -0.2856 -0.5879
  981MOL0     C32363   4.637  10.621  10.159 -0.6730 -0.1874 -0.0062
  981MOL0     C32364   4.534  10.674  10.127  0.2711  0.3051  0.2399
  981MOL0     C32365   5.383  10.554  10.282  0.2537  0.5587  0.1575
  981MOL0     C32366   5.477  10.513  10.185 -0.1813  0.4323 -0.3077
  981MOL0     C32367   5.561  10.397  10.222  1.0327 -0.5200  0.2483
  981MOL0     H32368   5.842  10.527   9.916 -0.0450  0.0476 -0.1669
  981MOL0     H32369   6.017  10.503   9.752 -1.2383 -1.0663 -0.1260
  981MOL0     H32370   5.880  10.578   9.344  0.0934 -1.2008  1.1999
  981MOL0     H32371   5.995  10.705   9.358  3.5676  0.3274 -0.9906
  981MOL0     H32372   6.040  10.565   9.176  1.3412 -0.2054 -0.5895
  981MOL0     H32373   6.064  10.420   9.284  2.9977 -1.1496 -3.5198
  981MOL0     H32374   6.241  10.572   9.395 -2.2189  0.1798  0.6442
  981MOL0     H32375   6.244  10.665   9.244 -0.4185  0.0527 -0.8718
  981MOL0     H32376   6.279  10.363   9.258  0.2302 -0.3855 -0.1207
  981MOL0     H32377   6.306  10.455   9.119 -3.7931 -1.9933  0.5872
  981MOL0     H32378   6.489  10.583   9.270 -0.0529 -0.1786 -2.8567
  981MOL0     H32379   6.466  10.448   9.389  0.3668 -0.9700 -0.9613
  981MOL0     H32380   6.552  10.287   9.239  0.2822  0.2723  2.0980
  981MOL0     H32381   6.547  10.387   9.095 -1.4425 -1.0009  0.2360
  981MOL0     H32382   6.712  10.420   9.355 -2.4940  1.1863  1.1843
  981MOL0     H32383   6.710  10.547   9.238  1.0419  0.0857  1.7035
  981MOL0     H32384   6.914  10.382   9.231  0.6315 -0.0151 -2.3225
  981MOL0     H32385   6.812  10.270   9.152  1.0369  0.2566 -1.1204
  981MOL0     H32386   6.990  10.581   9.093 -0.0526 -0.2125 -0.6338
  981MOL0     H32387   6.899  10.734   8.752  5.2037 -1.5412 -0.3046
  981MOL0     H32388   6.880  10.802   8.919 -0.6219 -0.6555  1.2422
  981MOL0     H32389   7.121  10.722   8.951 -0.0588  2.2049  1.2160
  981MOL0     H32390   7.112  10.650   8.786 -0.5595  1.3599 -0.8894
  981MOL0     H32391   7.085  10.879   8.700  0.0232  1.1160  0.3603
  981MOL0     H32392   7.243  10.845   8.784 -0.4112  0.9553  0.9306
  981MOL0     H32393   7.018  10.986   8.911 -0.2334 -0.3406  0.1813
  981MOL0     H32394   7.156  11.065   8.833 -0.7160  0.8067  0.6081
  981MOL0     H32395   7.352  11.060   8.820 -4.1093  0.8935  2.0496
  981MOL0     H32396   7.583  11.125   8.847 -1.6565 -1.8441 -1.8753
  981MOL0     H32397   7.952  11.290   9.122  0.2181  2.0157  1.4081
  981MOL0     H32398   8.202  11.289   9.179 -1.2719 -1.0521 -2.6431
  981MOL0     H32399   8.415  11.178   9.202  0.1701  0.3707 -0.2338
  981MOL0     H32400   8.421  11.306   9.324  0.0847  0.2785  0.8287
  981MOL0     H32401   8.571  11.167   9.457 -0.0340  1.5211 -0.3301
  981MOL0     H32402   8.565  11.038   9.339  1.9833  0.2613  0.9773
  981MOL0     H32403   8.660  11.188   9.160  1.4579  0.8394 -0.6104
  981MOL0     H32404   8.662  11.315   9.284  2.9983  0.2233  1.7367
  981MOL0     H32405   8.807  11.048   9.304 -1.3486 -0.0702 -0.0200
  981MOL0     H32406   8.848  11.198   9.405  1.9487 -0.6977 -1.0086
  981MOL0     H32407   8.921  11.298   9.164 -0.9709 -0.1400 -0.4604
  981MOL0     H32408   8.911  11.126   9.122 -2.2703 -0.5043  0.4534
  981MOL0     H32409   9.149  11.202   9.184 -1.6070  0.2401 -2.2510
  981MOL0     H32410   9.081  11.262   9.332 -1.0511 -1.1245  0.5346
  981MOL0     H32411   9.052  10.959   9.277  0.1795  1.3365 -1.1451
  981MOL0     H32412   9.034  11.053   9.429  1.4956  0.9366 -0.1607
  981MOL0     H32413   9.240  10.921   9.423 -0.3696 -0.3128 -0.8158
  981MOL0     H32414   9.280  10.992   9.260 -1.1648 -0.4939  0.0134
  981MOL0     H32415   8.156  10.966   9.448  2.7424  2.5400  0.0040
  981MOL0     H32416   7.907  10.930   9.338  0.0777 -0.1815  0.7788
  981MOL0     H32417   7.584  10.988   9.253 -0.3821  0.4499  0.9819
  981MOL0     H32418   7.345  10.948   9.238 -1.3615  2.0787  0.2787
  981MOL0     H32419   5.777  10.729   9.474  0.7085  0.5957 -0.3638
  981MOL0     H32420   5.595  10.745   9.647 -1.5900 -2.6007 -0.2485
  981MOL0     H32421   5.377  10.742   9.946  1.5726  1.2493 -0.0542
  981MOL0     H32422   5.218  10.800  10.110 -0.7163 -1.3265  0.1394
  981MOL0     H32423   5.091  10.810  10.267  0.3221 -0.8828 -0.6422
  981MOL0     H32424   5.041  10.785  10.435 -1.8336  1.2228 -2.0172
  981MOL0     H32425   4.964  10.552  10.366 -0.9839  0.0572 -1.2371
  981MOL0     H32426   5.032  10.578  10.209 -1.5194 -0.1916 -1.1813
  981MOL0     H32427   4.887  10.765  10.183  2.9726  3.0521  3.9882
  981MOL0     H32428   4.805  10.719  10.340  0.3666  0.0430  0.1818
  981MOL0     H32429   4.816  10.519  10.107 -3.8513  0.5044 -3.9706
  981MOL0     H32430   4.761  10.494  10.269  0.1570 -0.2073 -0.5936
  981MOL0     H32431   4.455  10.724  10.075 -0.4609  2.7189  3.3791
  981MOL0     H32432   5.389  10.503  10.378  2.6279 -0.8914 -0.6692
  981MOL0     H32433   5.495  10.314  10.195 -1.8689  1.9418 -0.8171
  981MOL0     H32434   5.648  10.396  10.156  0.9111  1.9860 -0.0722
  981MOL0     H32435   5.586  10.396  10.329 -0.0810  1.0662  0.5631
  982MOL0     O32436   3.813   6.993   3.049  0.1525  0.8942 -0.2159
  982MOL0     C32437   3.814   6.934   3.154 -0.0185  0.3092 -0.0973
  982MOL0     O32438   3.919   6.854   3.194  0.0962  0.3283  0.1857
  982MOL0     C32439   4.043   6.845   3.143  0.2359  0.7709 -0.2352
  982MOL0     C32440   4.109   6.721   3.176  0.1985 -0.1398 -0.2548
  982MOL0     C32441   4.240   6.695   3.128  0.3575 -0.3874  0.3372
  982MOL0     C32442   4.305   6.785   3.041 -0.1091  0.0044  0.3077
  982MOL0     O32443   4.425   6.743   2.993 -0.6084  0.4080  0.0480
  982MOL0     C32444   4.459   6.804   2.863 -0.2597  0.6103 -0.2598
  982MOL0     C32445   4.565   6.721   2.790  0.2860 -0.2047 -0.5776
  982MOL0     C32446   4.695   6.700   2.876  0.0069 -0.3568 -0.4787
  982MOL0     C32447   4.813   6.657   2.776 -0.2537 -0.8082 -0.5992
  982MOL0     C32448   4.952   6.649   2.847 -0.1732  0.5535 -0.0361
  982MOL0     C32449   4.951   6.528   2.957  0.0881 -0.4249  0.2022
  982MOL0     C32450   5.089   6.513   3.025  0.0125  0.4755  0.1564
  982MOL0     C32451   5.188   6.440   2.942 -0.4809 -0.3649  1.3871
  982MOL0     N32452   5.306   6.393   3.011 -0.2147 -0.2954  0.0203
  982MOL0     C32453   5.314   6.265   3.060  0.0956 -0.5561  0.1157
  982MOL0     C32454   5.448   6.235   3.079 -0.3034 -0.4429 -0.0653
  982MOL0     C32455   5.497   6.102   3.126 -0.8533 -0.4747 -0.2762
  982MOL0     C32456   5.572   6.029   3.020 -0.6633  0.3274 -0.9973
  982MOL0     C32457   5.634   5.901   3.087 -0.2313  0.8420  0.3622
  982MOL0     C32458   5.739   5.845   2.980  0.6411  0.1705  0.7906
  982MOL0     O32459   5.850   5.940   2.983 -0.1358 -0.2719  0.1364
  982MOL0     C32460   5.977   5.888   2.988 -0.3738 -0.0071 -0.2041
  982MOL0     C32461   6.030   5.813   2.878 -0.0972 -0.1821 -0.0453
  982MOL0     C32462   6.161   5.768   2.888 -1.0159 -0.2593 -0.1475
  982MOL0     C32463   6.241   5.774   3.003  1.4933 -0.5198 -0.3921
  982MOL0     C32464   6.374   5.733   3.007 -0.8214  0.4999 -0.6951
  982MOL0     O32465   6.437   5.714   2.888  0.2253 -1.0975  0.8219
  982MOL0     C32466   6.570   5.694   2.879  0.8342  0.6841 -0.0842
  982MOL0     C32467   6.663   5.785   2.819  0.0686 -1.4767 -0.2700
  982MOL0     C32468   6.798   5.755   2.815 -0.6729 -0.3798  0.9081
  982MOL0     C32469   6.847   5.634   2.859  0.1315 -0.2184  0.3089
  982MOL0     O32470   6.981   5.597   2.863  0.3729  0.7925 -0.1689
  982MOL0     C32471   7.079   5.694   2.848 -0.3954  0.2209 -0.0416
  982MOL0     C32472   7.220   5.654   2.873  0.8582  0.2589 -0.0621
  982MOL0     C32473   7.326   5.770   2.862  0.8580 -0.2344  0.0980
  982MOL0     C32474   7.466   5.728   2.902 -0.2278 -0.4221 -0.4448
  982MOL0     C32475   7.540   5.645   2.807  0.5878  0.1842  0.0841
  982MOL0     C32476   7.681   5.606   2.853  0.2142  0.2128 -0.2435
  982MOL0     C32477   7.690   5.525   2.976 -0.9316  0.5501  0.1877
  982MOL0     C32478   7.578   5.415   2.989  0.1020 -0.0643  0.1522
  982MOL0    Cl32479   7.611   5.311   2.854  0.1515 -0.2714  0.0478
  982MOL0     C32480   6.766   5.548   2.917 -0.5011 -0.5986  1.2356
  982MOL0     C32481   6.628   5.584   2.937 -0.6042  0.6808 -0.8753
  982MOL0     O32482   6.418   5.704   3.118  0.2713 -0.2954  0.2194
  982MOL0     C32483   6.184   5.851   3.109  0.0201  1.0347 -0.6952
  982MOL0     C32484   6.052   5.904   3.102 -0.3225  0.5386 -0.4015
  982MOL0     N32485   5.525   6.346   3.040 -0.5890 -0.9748 -0.1936
  982MOL0     N32486   5.438   6.433   3.002  0.7238  0.4200 -0.3322
  982MOL0     C32487   4.245   6.909   3.007 -0.5367 -0.1356  0.4203
  982MOL0     C32488   4.121   6.942   3.065  0.2720  0.0805 -0.1272
  982MOL0     C32489   3.686   6.939   3.240 -0.2769 -0.3134  0.1859
  982MOL0     C32490   3.627   7.058   3.253 -0.1822  0.0797 -0.4199
  982MOL0     C32491   3.514   7.076   3.324 -0.3429 -0.1385  0.5666
  982MOL0     C32492   3.444   6.965   3.377  0.6351 -0.5461 -0.4549
  982MOL0     O32493   3.328   6.978   3.441  0.2252 -0.6933 -0.1737
  982MOL0     C32494   3.334   7.081   3.548  1.0548  0.0500 -0.3429
  982MOL0     C32495   3.232   7.191   3.529  0.2709 -0.2313 -0.9632
  982MOL0     C32496   3.088   7.131   3.521  0.1887  0.2767  0.0507
  982MOL0     C32497   2.991   7.239   3.543  0.3539  0.1188  0.0110
  982MOL0     C32498   2.855   7.182   3.569  0.1547  0.9593  0.6588
  982MOL0     C32499   2.740   7.134   3.601 -0.6778  0.8629  0.3695
  982MOL0     C32500   3.502   6.841   3.358 -0.4618 -0.1838 -0.2394
  982MOL0     C32501   3.622   6.828   3.294  0.3380 -0.1074  0.3326
  982MOL0     C32502   3.690   6.694   3.291  0.0837 -0.0370  0.0027
  982MOL0     H32503   4.057   6.645   3.234  1.1928 -0.0583  0.7823
  982MOL0     H32504   4.296   6.607   3.159 -0.1694 -1.8487 -2.5748
  982MOL0     H32505   4.371   6.817   2.799 -0.2162  4.3770  0.1796
  982MOL0     H32506   4.499   6.901   2.894 -0.2911  0.2552  0.9330
  982MOL0     H32507   4.597   6.777   2.701  0.8080  3.6246  1.7932
  982MOL0     H32508   4.528   6.620   2.771  0.2014 -0.6621  1.7931
  982MOL0     H32509   4.680   6.624   2.953  2.1116  0.4154  0.7916
  982MOL0     H32510   4.732   6.795   2.917  3.2452 -1.1974 -1.1457
  982MOL0     H32511   4.789   6.557   2.738  0.0153 -1.5064  0.9781
  982MOL0     H32512   4.827   6.742   2.709  1.7779  1.9623  2.9672
  982MOL0     H32513   5.026   6.627   2.770 -0.1351  3.0939 -0.8293
  982MOL0     H32514   4.983   6.745   2.890 -1.2943  0.8831  0.0837
  982MOL0     H32515   4.869   6.550   3.025  1.3165  4.0035  0.5473
  982MOL0     H32516   4.939   6.442   2.890  6.0545 -0.1973 -1.7563
  982MOL0     H32517   5.078   6.466   3.123 -1.9637  2.0021  0.7468
  982MOL0     H32518   5.121   6.616   3.043 -1.1271  1.3035 -2.1751
  982MOL0     H32519   5.135   6.356   2.896 -1.0458  1.3148 -1.2735
  982MOL0     H32520   5.214   6.500   2.854 -1.0171 -4.0386 -1.5358
  982MOL0     H32521   5.233   6.195   3.080  2.0207 -2.9072  0.1522
  982MOL0     H32522   5.557   6.119   3.216 -0.1671  2.8276 -1.2440
  982MOL0     H32523   5.404   6.055   3.160 -1.3204  1.1301  0.7849
  982MOL0     H32524   5.510   6.010   2.931 -2.1025  2.0366 -0.4408
  982MOL0     H32525   5.660   6.086   2.991  1.1887 -0.7344  2.0574
  982MOL0     H32526   5.556   5.827   3.099 -0.3332 -0.1435 -4.3854
  982MOL0     H32527   5.690   5.916   3.180 -0.6151 -3.3006  1.4248
  982MOL0     H32528   5.694   5.838   2.881 -2.0226 -1.7117  1.9983
  982MOL0     H32529   5.771   5.745   3.012 -3.0269 -0.6738  2.3608
  982MOL0     H32530   5.954   5.808   2.800 -0.2440  1.7567 -0.0928
  982MOL0     H32531   6.207   5.726   2.799 -0.1104 -1.1687  0.7129
  982MOL0     H32532   6.633   5.878   2.772 -1.1969 -2.0003 -0.5457
  982MOL0     H32533   6.866   5.823   2.766  1.5485 -1.8516  1.7780
  982MOL0     H32534   7.075   5.728   2.744  3.7939 -0.5000 -0.6551
  982MOL0     H32535   7.062   5.772   2.923  0.3603 -1.4600  1.9646
  982MOL0     H32536   7.216   5.603   2.970  1.6385 -2.0633 -1.1713
  982MOL0     H32537   7.252   5.569   2.812 -1.3906 -0.8810  0.2454
  982MOL0     H32538   7.330   5.804   2.758 -0.7039  2.2593  0.7764
  982MOL0     H32539   7.299   5.860   2.918  0.5850 -0.6429  0.6293
  982MOL0     H32540   7.448   5.683   3.000  0.9207  0.3652  0.1467
  982MOL0     H32541   7.528   5.816   2.920 -0.5810  0.5667 -3.5169
  982MOL0     H32542   7.553   5.692   2.709  2.6681 -2.6667 -1.1578
  982MOL0     H32543   7.489   5.550   2.786  2.8371 -1.6506  2.2411
  982MOL0     H32544   7.723   5.544   2.773 -1.4544  0.8621 -1.6761
  982MOL0     H32545   7.742   5.696   2.857  1.9778 -0.7956 -2.2793
  982MOL0     H32546   7.682   5.595   3.060  0.8403  0.2217  0.6752
  982MOL0     H32547   7.790   5.482   2.983 -0.2050  1.8738 -1.4078
  982MOL0     H32548   7.593   5.368   3.087  3.0598  3.1075  1.4506
  982MOL0     H32549   7.478   5.459   2.984 -0.0228 -0.2411  0.9153
  982MOL0     H32550   6.796   5.455   2.963 -1.1044 -0.1096  2.6814
  982MOL0     H32551   6.577   5.502   2.988 -1.0401 -0.3869 -2.8909
  982MOL0     H32552   6.231   5.867   3.205 -2.9502  1.0005  0.8664
  982MOL0     H32553   6.012   5.952   3.191 -2.6333 -0.8632 -0.5944
  982MOL0     H32554   4.291   6.989   2.950 -0.7250 -0.5019 -0.2520
  982MOL0     H32555   4.067   7.030   3.031  1.4987  0.4992 -1.0739
  982MOL0     H32556   3.669   7.141   3.197 -2.7855 -0.3219 -3.2455
  982MOL0     H32557   3.481   7.180   3.321 -2.6217 -0.7133  2.1885
  982MOL0     H32558   3.427   7.137   3.531  1.5647 -1.9058 -7.5248
  982MOL0     H32559   3.338   7.040   3.649  2.5507 -0.4173 -0.5694
  982MOL0     H32560   3.247   7.245   3.435  0.2126  2.3024  0.4198
  982MOL0     H32561   3.232   7.265   3.608 -1.9849  0.9686 -1.9914
  982MOL0     H32562   3.079   7.057   3.601 -2.3526  1.1382  0.6568
  982MOL0     H32563   3.063   7.068   3.435 -0.2236  0.4031  0.0793
  982MOL0     H32564   3.023   7.297   3.629 -0.1599 -2.8964  2.4088
  982MOL0     H32565   2.984   7.306   3.457 -1.7362 -0.8570 -0.6558
  982MOL0     H32566   2.643   7.092   3.616  0.1584 -0.5385  2.2997
  982MOL0     H32567   3.467   6.747   3.400  2.0976 -1.2884 -0.3478
  982MOL0     H32568   3.715   6.651   3.194 -0.6401 -0.4848  0.0005
  982MOL0     H32569   3.778   6.690   3.356  1.3476 -2.7445 -1.7052
  982MOL0     H32570   3.628   6.611   3.328  0.8763 -0.2336  0.9365
  983MOL0     O32571   2.021  10.217  10.258  0.7428 -0.0588 -0.0686
  983MOL0     C32572   2.006  10.339  10.278  0.5175  0.3656 -0.4005
  983MOL0     O32573   2.105  10.428  10.312  0.0189 -0.3385  0.5940
  983MOL0     C32574   2.230  10.376  10.320  0.6107  1.1769 -0.0936
  983MOL0     C32575   2.273  10.329  10.445  1.0186  0.6385 -0.8507
  983MOL0     C32576   2.397  10.270  10.456 -0.3213 -0.8604 -0.1548
  983MOL0     C32577   2.495  10.286  10.356  0.5264  0.7888 -1.4165
  983MOL0     O32578   2.633  10.253  10.375 -0.1287  0.1585 -0.0256
  983MOL0     C32579   2.673  10.226  10.509  0.1226 -0.7636 -0.4454
  983MOL0     C32580   2.827  10.204  10.497  0.7883 -0.0091 -0.8889
  983MOL0     C32581   2.891  10.199  10.635  0.3092  0.3183 -0.5234
  983MOL0     C32582   3.046  10.197  10.632  0.0381  0.7143  0.9937
  983MOL0     C32583   3.102  10.168  10.769 -0.3325  0.3596 -0.3829
  983MOL0     C32584   3.052  10.030  10.823 -0.9874 -0.5623 -0.2597
  983MOL0     C32585   3.161   9.954  10.913  0.0498 -0.2156  0.0026
  983MOL0     C32586   3.200  10.018  11.053  0.3607 -0.4608  0.7141
  983MOL0     N32587   3.328   9.977  11.115  0.3921 -0.1526  0.5288
  983MOL0     C32588   3.371   9.863  11.175 -0.0143  0.1207 -1.3771
  983MOL0     C32589   3.496   9.884  11.219  0.0299  0.3142  1.0050
  983MOL0     C32590   3.573   9.786  11.313  0.6259 -0.4495  0.2054
  983MOL0     C32591   3.731   9.810  11.304 -0.0812  0.0406  0.2986
  983MOL0     C32592   3.807   9.725  11.401  0.3441  0.3582  0.0559
  983MOL0     C32593   3.953   9.754  11.436  0.1563 -0.3839  1.1355
  983MOL0     O32594   3.970   9.893  11.468  0.3055 -0.3864 -0.3913
  983MOL0     C32595   4.084   9.923  11.538  0.5492 -0.5058 -0.3215
  983MOL0     C32596   4.106  10.061  11.567 -0.2309  0.2108  0.2819
  983MOL0     C32597   4.220  10.110  11.630  0.3943  0.0279  0.1388
  983MOL0     C32598   4.325  10.019  11.658  0.4983 -0.0678  0.1918
  983MOL0     C32599   4.454  10.067  11.714 -1.0420  0.3819 -0.4109
  983MOL0     O32600   4.474  10.201  11.725  0.7739  0.7291 -0.0960
  983MOL0     C32601   4.590  10.247  11.778 -0.5264 -0.1742  0.5702
  983MOL0     C32602   4.716  10.245  11.700 -0.7284 -0.1733 -0.7215
  983MOL0     C32603   4.834  10.281  11.770 -0.0047 -0.1636 -0.2342
  983MOL0     C32604   4.837  10.340  11.898 -0.1989  0.8961  0.5900
  983MOL0     O32605   4.957  10.371  11.964  0.5403 -1.2965 -0.2609
  983MOL0     C32606   4.986  10.510  12.000 -0.2066  0.2885 -0.2271
  983MOL0     C32607   5.097  10.532  12.105 -0.6686  0.3126  0.4936
  983MOL0     C32608   5.241  10.528  12.051 -0.7626 -0.0403  0.3544
  983MOL0     C32609   5.332  10.530  12.176 -0.3922  0.2482  1.0163
  983MOL0     C32610   5.483  10.550  12.155  0.7822 -0.7069  0.0327
  983MOL0     C32611   5.534  10.684  12.115 -0.5804 -0.5516  0.2050
  983MOL0     C32612   5.679  10.678  12.077  0.5944 -0.9617 -0.3885
  983MOL0     C32613   5.750  10.815  12.086  0.4677  0.5654  0.2363
  983MOL0    Cl32614   5.922  10.804  12.071 -0.2624  0.0622  0.4178
  983MOL0     C32615   4.708  10.362  11.960  0.2034  0.2164  0.6074
  983MOL0     C32616   4.588  10.316  11.898 -0.0584 -1.2229 -0.4600
  983MOL0     O32617   4.545   9.981  11.728  0.3763  0.8539  0.1790
  983MOL0     C32618   4.311   9.890  11.627 -0.2063  0.3638  0.1298
  983MOL0     C32619   4.192   9.836  11.583  0.0202 -0.8375  0.5547
  983MOL0     N32620   3.537  10.008  11.175 -0.2073  0.1182  0.0233
  983MOL0     N32621   3.436  10.063  11.118  0.1128  0.1877  0.3995
  983MOL0     C32622   2.453  10.333  10.230  0.1376 -0.0045 -0.5128
  983MOL0     C32623   2.319  10.377  10.214 -0.0604 -0.1391 -0.0929
  983MOL0     C32624   1.871  10.388  10.274  0.6726 -0.1774  0.1398
  983MOL0     C32625   1.783  10.320  10.362 -1.2569 -0.2991  1.2530
  983MOL0     C32626   1.657  10.375  10.380 -0.3690  0.3184 -0.0999
  983MOL0     C32627   1.611  10.486  10.314 -0.6436  0.1367 -0.3983
  983MOL0     O32628   1.491  10.549  10.329  0.3573 -0.1285  0.1521
  983MOL0     C32629   1.386  10.474  10.388 -0.0324  0.3198 -0.2566
  983MOL0     C32630   1.242  10.525  10.350 -1.1007  0.7132  0.1674
  983MOL0     C32631   1.210  10.659  10.418 -0.1046 -0.0659  0.1931
  983MOL0     C32632   1.071  10.698  10.379  1.6733 -0.2324  0.3596
  983MOL0     C32633   1.045  10.822  10.450 -0.4788 -0.2385 -1.1833
  983MOL0     C32634   1.043  10.932  10.505 -0.3115 -0.2469  0.1799
  983MOL0     C32635   1.691  10.549  10.223 -0.6405 -0.5462 -0.3152
  983MOL0     C32636   1.827  10.504  10.209  0.6777 -0.1858 -0.2212
  983MOL0     C32637   1.920  10.569  10.103 -0.0255 -0.3430 -0.0651
  983MOL0     H32638   2.194  10.321  10.519  1.0964 -0.7932 -0.8882
  983MOL0     H32639   2.415  10.226  10.554  2.7513 -1.2515 -0.8118
  983MOL0     H32640   2.650  10.311  10.574 -1.8639 -0.2865 -1.6773
  983MOL0     H32641   2.624  10.136  10.546 -0.7871 -0.8829 -1.8547
  983MOL0     H32642   2.869  10.289  10.442 -0.8920  1.0886 -0.5412
  983MOL0     H32643   2.850  10.120  10.432 -1.8126 -0.1752 -1.7014
  983MOL0     H32644   2.839  10.125  10.697 -0.9495 -0.3883 -2.3536
  983MOL0     H32645   2.867  10.291  10.689  2.6348 -0.2898  1.7354
  983MOL0     H32646   3.073  10.113  10.567  2.3373  0.3234  2.3435
  983MOL0     H32647   3.091  10.290  10.596  1.1483 -0.4498 -0.8030
  983MOL0     H32648   3.210  10.152  10.775 -0.6746 -1.6251  1.9431
  983MOL0     H32649   3.079  10.249  10.839  0.9573 -1.5845  2.4600
  983MOL0     H32650   2.965  10.035  10.890 -1.0255 -3.3954  0.0090
  983MOL0     H32651   3.029   9.963  10.740  2.3101 -0.8627 -1.0708
  983MOL0     H32652   3.252   9.937  10.855 -0.3325 -0.3763 -0.5598
  983MOL0     H32653   3.115   9.856  10.932  1.4959 -1.8342 -3.8849
  983MOL0     H32654   3.209  10.124  11.026  0.8458 -0.8066 -0.5605
  983MOL0     H32655   3.114  10.025  11.121  0.8362  1.9170  1.1835
  983MOL0     H32656   3.310   9.780  11.210  2.1743 -1.0185 -0.0486
  983MOL0     H32657   3.544   9.814  11.414  1.4108  1.5340 -0.0667
  983MOL0     H32658   3.555   9.681  11.289  2.1900 -1.4152  2.8902
  983MOL0     H32659   3.764   9.776  11.205 -0.6106  0.3417  0.0147
  983MOL0     H32660   3.760   9.915  11.315  1.0846  0.1782 -3.0010
  983MOL0     H32661   3.810   9.617  11.379 -1.4956 -0.2231  2.2115
  983MOL0     H32662   3.749   9.739  11.493  2.1732  4.1937  0.8121
  983MOL0     H32663   4.020   9.730  11.353  2.1896  2.2424  1.8921
  983MOL0     H32664   3.982   9.692  11.522  0.2843 -0.5313  0.9877
  983MOL0     H32665   4.040  10.142  11.539 -0.5851 -1.0342 -2.9166
  983MOL0     H32666   4.236  10.211  11.668  1.3532 -0.3552  0.7890
  983MOL0     H32667   4.717  10.197  11.603 -0.5392  0.7215 -1.1660
  983MOL0     H32668   4.928  10.256  11.722  0.8711 -0.6615  1.6422
  983MOL0     H32669   5.029  10.561  11.913 -0.1425  1.8427  0.6552
  983MOL0     H32670   4.901  10.573  12.028  0.3645  1.0815 -0.2349
  983MOL0     H32671   5.089  10.626  12.162  0.9298  2.2231 -2.2310
  983MOL0     H32672   5.089  10.454  12.181 -2.8896 -0.5175 -0.5063
  983MOL0     H32673   5.257  10.433  11.999  0.9856  0.3237  0.1644
  983MOL0     H32674   5.267  10.611  11.985 -0.8903 -2.3175 -2.7503
  983MOL0     H32675   5.318  10.437  12.231 -0.1782 -1.0914 -1.0651
  983MOL0     H32676   5.308  10.615  12.240  2.0461  1.1090  0.9020
  983MOL0     H32677   5.499  10.472  12.080 -0.3727  0.5298 -1.5673
  983MOL0     H32678   5.516  10.528  12.257  1.5187  2.9456  0.7537
  983MOL0     H32679   5.477  10.719  12.028  1.7061  0.7607 -0.8531
  983MOL0     H32680   5.516  10.764  12.187  1.8635  0.4792 -0.2385
  983MOL0     H32681   5.673  10.643  11.974 -1.3321  2.9330 -1.8351
  983MOL0     H32682   5.720  10.608  12.150 -1.3435  0.2719  2.0300
  983MOL0     H32683   5.712  10.868  11.997 -0.2466  0.3201  0.3839
  983MOL0     H32684   5.725  10.867  12.178 -3.7539 -1.1438  0.3233
  983MOL0     H32685   4.706  10.408  12.058 -1.9820  2.2606 -0.3105
  983MOL0     H32686   4.496  10.327  11.954  0.8224 -2.2096  1.2809
  983MOL0     H32687   4.389   9.816  11.637 -2.3175 -2.4333 -2.2612
  983MOL0     H32688   4.180   9.731  11.556 -1.2249  0.0406 -2.7503
  983MOL0     H32689   2.515  10.348  10.142 -0.3094 -2.0373 -1.2234
  983MOL0     H32690   2.277  10.404  10.118  0.3061 -3.4945 -1.3296
  983MOL0     H32691   1.801  10.229  10.418 -0.8926  0.1037  1.8047
  983MOL0     H32692   1.594  10.322  10.451  0.3977 -0.1491  0.2517
  983MOL0     H32693   1.400  10.463  10.496  2.0336 -2.0959 -0.6915
  983MOL0     H32694   1.387  10.372  10.351 -2.7379 -1.2696  3.3425
  983MOL0     H32695   1.164  10.451  10.373 -2.1760  1.9577  0.6848
  983MOL0     H32696   1.255  10.542  10.243  2.3870 -0.0249  0.3829
  983MOL0     H32697   1.285  10.725  10.373  3.2811 -0.5965  4.3802
  983MOL0     H32698   1.211  10.648  10.527 -1.6275 -1.2273  0.1161
  983MOL0     H32699   1.062  10.713  10.271  0.9041  0.6018  0.5241
  983MOL0     H32700   1.002  10.621  10.413  1.8103 -0.4908  0.0571
  983MOL0     H32701   1.036  11.029  10.551 -1.2798 -0.7888  1.2388
  983MOL0     H32702   1.659  10.632  10.160 -0.6144  0.1434  0.5593
  983MOL0     H32703   1.861  10.620  10.026  0.5885  1.1123  0.4024
  983MOL0     H32704   1.990  10.640  10.147  3.1244 -1.9369 -2.1385
  983MOL0     H32705   1.979  10.488  10.060 -2.0468 -2.4740  0.9353
  984MOL0     O32706   2.651   2.449   4.974 -0.4249 -0.2222  0.4249
  984MOL0     C32707   2.604   2.335   4.973 -0.0638  0.4269  0.3247
  984MOL0     O32708   2.673   2.224   5.011 -0.2280  0.2202  0.2787
  984MOL0     C32709   2.796   2.233   5.076 -0.7184 -0.2648  0.7180
  984MOL0     C32710   2.831   2.330   5.177 -0.2416 -0.2521  0.5246
  984MOL0     C32711   2.959   2.342   5.234  0.0111  0.3093  0.5396
  984MOL0     C32712   3.062   2.248   5.199  1.2256 -0.4279 -0.1752
  984MOL0     O32713   3.191   2.254   5.248 -0.6706  0.4916 -0.8221
  984MOL0     C32714   3.241   2.378   5.301 -0.1987  0.2842  0.3378
  984MOL0     C32715   3.389   2.364   5.329 -0.8353 -0.2779  0.0770
  984MOL0     C32716   3.429   2.258   5.436 -0.1587  0.0319  0.1415
  984MOL0     C32717   3.581   2.232   5.429  0.2641 -0.1764  0.2133
  984MOL0     C32718   3.632   2.122   5.512  0.7089  0.7086  0.2513
  984MOL0     C32719   3.781   2.133   5.529 -0.5059  0.9969  0.1445
  984MOL0     C32720   3.853   2.123   5.395 -0.3364  0.0135  0.2215
  984MOL0     C32721   3.996   2.174   5.416  0.2262  0.5437  0.1550
  984MOL0     N32722   4.082   2.078   5.494 -0.2851  0.1240 -0.3113
  984MOL0     C32723   4.140   1.963   5.457  0.4239  0.0303 -0.1785
  984MOL0     C32724   4.216   1.923   5.561 -0.2701 -0.2767  1.0064
  984MOL0     C32725   4.292   1.801   5.569  0.2006  0.5272 -0.3036
  984MOL0     C32726   4.440   1.833   5.536  0.5959 -0.0683 -0.0953
  984MOL0     C32727   4.524   1.699   5.536  0.4716 -0.0139 -0.2297
  984MOL0     C32728   4.612   1.688   5.651  0.1076  0.9677 -0.1491
  984MOL0     O32729   4.682   1.559   5.648 -0.2283 -0.5372  0.1641
  984MOL0     C32730   4.822   1.568   5.639  0.4714  0.2233 -0.4962
  984MOL0     C32731   4.890   1.663   5.562 -0.9263 -0.0636 -0.8556
  984MOL0     C32732   5.031   1.654   5.547  0.7359 -0.0562  0.6148
  984MOL0     C32733   5.100   1.561   5.619 -0.1227 -0.5295  0.7571
  984MOL0     C32734   5.249   1.549   5.611 -0.5415 -0.2023 -0.7783
  984MOL0     O32735   5.322   1.624   5.519 -0.0850 -0.0171 -0.5469
  984MOL0     C32736   5.461   1.613   5.522  0.9316  0.2610 -0.2752
  984MOL0     C32737   5.544   1.624   5.641 -0.7892  0.7857 -0.1512
  984MOL0     C32738   5.684   1.616   5.625  0.9933  0.3747 -0.1184
  984MOL0     C32739   5.747   1.591   5.503 -0.4269  0.5148 -0.1179
  984MOL0     O32740   5.878   1.595   5.474 -0.1278 -0.1738 -0.3931
  984MOL0     C32741   5.940   1.703   5.546 -0.9298 -0.4552 -0.1693
  984MOL0     C32742   6.068   1.748   5.481 -0.1715 -0.4116  0.4996
  984MOL0     C32743   6.132   1.860   5.555  0.3990 -0.3504 -0.1028
  984MOL0     C32744   6.263   1.889   5.485 -0.2421 -0.4237  0.5663
  984MOL0     C32745   6.346   1.988   5.575 -0.1808  0.4002  0.5047
  984MOL0     C32746   6.478   2.032   5.509  0.5563  0.4221  0.0113
  984MOL0     C32747   6.547   2.153   5.589  0.1706  0.1309 -0.9659
  984MOL0     C32748   6.695   2.171   5.559  0.1182  0.5939  0.6764
  984MOL0    Cl32749   6.772   2.310   5.630 -0.0538  0.1173  0.6198
  984MOL0     C32750   5.662   1.576   5.392  0.1458 -0.0821 -0.1672
  984MOL0     C32751   5.524   1.587   5.406  0.1226  0.1422 -0.1697
  984MOL0     O32752   5.299   1.486   5.706 -0.0279  0.0787 -0.7782
  984MOL0     C32753   5.034   1.482   5.715  0.0033  0.2144 -0.2543
  984MOL0     C32754   4.898   1.480   5.719  0.3484  0.4243  0.6860
  984MOL0     N32755   4.202   2.014   5.652 -0.4883 -0.1044 -0.0249
  984MOL0     N32756   4.133   2.112   5.616 -0.7254 -0.0640 -0.5274
  984MOL0     C32757   3.022   2.152   5.104 -0.5507 -0.9912 -1.0887
  984MOL0     C32758   2.897   2.141   5.045 -0.0607 -0.0863  1.0401
  984MOL0     C32759   2.468   2.309   4.919  0.5041 -0.1351  0.2230
  984MOL0     C32760   2.397   2.186   4.931 -0.4694  0.3757 -0.1378
  984MOL0     C32761   2.271   2.152   4.898 -0.0278 -0.1382  0.9019
  984MOL0     C32762   2.187   2.251   4.853 -0.8309  0.5450 -0.0325
  984MOL0     O32763   2.061   2.218   4.809 -0.8127  0.3640  0.1572
  984MOL0     C32764   1.987   2.319   4.730  0.0638 -0.0026 -0.2128
  984MOL0     C32765   1.860   2.254   4.668  0.0043 -0.0235  0.6075
  984MOL0     C32766   1.746   2.204   4.757 -0.1957 -0.1354  0.0747
  984MOL0     C32767   1.609   2.232   4.695 -0.2410 -1.0141 -0.7817
  984MOL0     C32768   1.499   2.151   4.747 -0.1376 -1.2052  0.4353
  984MOL0     C32769   1.398   2.102   4.792  0.7817 -0.0690  0.5309
  984MOL0     C32770   2.239   2.383   4.840 -0.1181 -0.1871 -0.2593
  984MOL0     C32771   2.377   2.410   4.879  0.1731  0.0710 -0.1391
  984MOL0     C32772   2.415   2.558   4.866 -0.0711 -0.2473 -0.7018
  984MOL0     H32773   2.762   2.409   5.204  1.6971  1.0533  1.9636
  984MOL0     H32774   2.985   2.418   5.308  0.6506 -2.6028  3.5765
  984MOL0     H32775   3.226   2.465   5.236 -0.0717  0.2158  0.2167
  984MOL0     H32776   3.188   2.398   5.394  0.8231  1.0407  0.7697
  984MOL0     H32777   3.436   2.458   5.361 -2.5472  1.2858 -1.7300
  984MOL0     H32778   3.425   2.349   5.227 -3.4439  1.9653 -1.3132
  984MOL0     H32779   3.375   2.165   5.416 -2.9266  1.5328  0.1005
  984MOL0     H32780   3.390   2.286   5.535  0.9200  0.6506  0.4049
  984MOL0     H32781   3.602   2.218   5.323  0.2425  1.4590 -0.0388
  984MOL0     H32782   3.620   2.332   5.452  1.1359 -0.5529  0.3960
  984MOL0     H32783   3.599   2.127   5.616  2.3281 -3.5067  1.1861
  984MOL0     H32784   3.600   2.028   5.465  2.6628  0.9393 -1.7267
  984MOL0     H32785   3.806   2.222   5.587  1.1634 -0.4065  1.7046
  984MOL0     H32786   3.815   2.051   5.594 -1.6927  0.2036 -0.1984
  984MOL0     H32787   3.807   2.185   5.318  2.0463  1.6539 -0.0239
  984MOL0     H32788   3.858   2.020   5.359  0.6854  0.7366 -1.8723
  984MOL0     H32789   4.043   2.193   5.319 -0.6609  0.5291 -0.2871
  984MOL0     H32790   3.993   2.271   5.466  3.2468  0.8141  0.0083
  984MOL0     H32791   4.132   1.918   5.359 -2.9021  0.2192 -0.0937
  984MOL0     H32792   4.285   1.745   5.663  0.9920 -1.0356 -1.1231
  984MOL0     H32793   4.254   1.728   5.496 -2.4738  1.0799  0.4281
  984MOL0     H32794   4.445   1.881   5.438  1.1568  2.9552  1.2824
  984MOL0     H32795   4.469   1.907   5.612 -2.1375  0.2825  0.7105
  984MOL0     H32796   4.583   1.700   5.445  0.7474  1.4012 -0.0675
  984MOL0     H32797   4.448   1.620   5.535 -0.1779  0.5952 -0.5387
  984MOL0     H32798   4.542   1.686   5.735 -1.1509 -0.8475 -1.1718
  984MOL0     H32799   4.682   1.772   5.658  1.0031  0.2190  0.0142
  984MOL0     H32800   4.831   1.734   5.505 -0.0632  0.4511 -1.1217
  984MOL0     H32801   5.065   1.728   5.475 -0.1759 -0.3647 -0.1523
  984MOL0     H32802   5.499   1.650   5.737  2.5865  2.4788  1.1280
  984MOL0     H32803   5.740   1.643   5.713 -0.7823  1.4097  0.7491
  984MOL0     H32804   5.880   1.794   5.547 -3.0148 -1.7718 -0.0590
  984MOL0     H32805   5.961   1.672   5.648  0.6586 -3.6994 -1.3152
  984MOL0     H32806   6.133   1.661   5.466 -1.2043 -0.8793 -1.6167
  984MOL0     H32807   6.041   1.779   5.380  0.8634 -0.1970  0.2745
  984MOL0     H32808   6.079   1.956   5.556  1.0671  0.1340 -2.7920
  984MOL0     H32809   6.146   1.842   5.662 -0.4690  1.0105  0.2582
  984MOL0     H32810   6.240   1.949   5.397 -1.0491 -1.3908  0.1027
  984MOL0     H32811   6.319   1.797   5.464 -0.6184 -0.9619  1.7967
  984MOL0     H32812   6.364   1.940   5.671  2.4231 -0.1426 -0.1685
  984MOL0     H32813   6.287   2.079   5.587  0.2645  0.4110  3.2927
  984MOL0     H32814   6.551   1.953   5.488  0.0294  0.3937 -1.9642
  984MOL0     H32815   6.448   2.058   5.407 -1.8461  1.6804  0.9493
  984MOL0     H32816   6.537   2.138   5.697  1.6943  0.9242 -0.6985
  984MOL0     H32817   6.489   2.242   5.563  1.4664  0.9003 -1.2876
  984MOL0     H32818   6.749   2.078   5.576  0.9628  0.3549 -2.6633
  984MOL0     H32819   6.702   2.178   5.450 -2.0928 -2.5681  0.1896
  984MOL0     H32820   5.700   1.568   5.291  0.8339 -0.5527  0.1236
  984MOL0     H32821   5.460   1.582   5.318 -0.6244  0.9874  0.3035
  984MOL0     H32822   5.085   1.415   5.784 -0.4278  0.9642  0.8065
  984MOL0     H32823   4.851   1.405   5.782  0.3250 -1.0779 -1.0303
  984MOL0     H32824   3.095   2.079   5.070  0.2797 -0.2626 -0.9120
  984MOL0     H32825   2.877   2.063   4.972  3.7817  0.9214 -1.3766
  984MOL0     H32826   2.444   2.104   4.985 -0.8120 -0.6375 -1.3372
  984MOL0     H32827   2.239   2.049   4.905 -0.6615  0.1456  2.6219
  984MOL0     H32828   2.042   2.341   4.638 -1.4035 -0.7752 -1.3257
  984MOL0     H32829   1.970   2.418   4.775  0.6235 -1.1937  2.8459
  984MOL0     H32830   1.901   2.172   4.609  2.7295  1.9673 -0.4843
  984MOL0     H32831   1.806   2.320   4.599 -4.9809 -1.4032  2.7722
  984MOL0     H32832   1.753   2.241   4.860  3.5617 -1.1946  0.3337
  984MOL0     H32833   1.748   2.095   4.762 -4.2650 -0.4290 -0.7800
  984MOL0     H32834   1.591   2.337   4.719  2.2129 -1.1703  2.3671
  984MOL0     H32835   1.613   2.214   4.587 -0.1712 -2.1818 -0.5975
  984MOL0     H32836   1.310   2.077   4.847  1.5465 -2.5462  0.7961
  984MOL0     H32837   2.176   2.465   4.807  0.3184  1.2616  2.2664
  984MOL0     H32838   2.490   2.577   4.788 -1.8600  1.0002 -2.1973
  984MOL0     H32839   2.322   2.607   4.837 -0.5967 -1.4225 -1.0922
  984MOL0     H32840   2.463   2.604   4.952  2.9616  1.0787 -2.9118
  985MOL0     O32841   6.715  10.844   4.833 -0.2679  0.3345  0.0165
  985MOL0     C32842   6.644  10.943   4.861 -0.0781  0.6520  0.5580
  985MOL0     O32843   6.682  11.045   4.934  0.0064  0.3725 -0.0620
  985MOL0     C32844   6.807  11.029   4.986 -0.3490  0.3958 -0.4054
  985MOL0     C32845   6.912  11.087   4.913 -0.6969 -0.2375  0.4167
  985MOL0     C32846   7.041  11.066   4.962  0.1878  0.9341 -0.0340
  985MOL0     C32847   7.062  10.990   5.082  0.2519 -0.3925  0.1642
  985MOL0     O32848   7.189  10.961   5.132  0.0231 -0.4254 -0.4760
  985MOL0     C32849   7.294  11.062   5.107 -0.6766  0.5859  0.1384
  985MOL0     C32850   7.422  10.991   5.134 -0.8682  1.0314 -0.8299
  985MOL0     C32851   7.546  11.086   5.127  0.4010  0.9193 -0.1026
  985MOL0     C32852   7.660  11.043   5.211  0.2863 -0.1121  0.1257
  985MOL0     C32853   7.777  11.143   5.207  0.0735 -0.2833  0.3419
  985MOL0     C32854   7.892  11.066   5.288  0.0968  0.3944  0.3793
  985MOL0     C32855   8.012  11.157   5.279 -1.1713 -0.6106 -0.3049
  985MOL0     C32856   8.131  11.098   5.344  0.1636 -1.2561  0.2145
  985MOL0     N32857   8.258  11.172   5.344  0.8359 -0.0402  0.6878
  985MOL0     C32858   8.333  11.184   5.229 -0.5375  0.2947  1.3865
  985MOL0     C32859   8.458  11.217   5.269 -0.4058 -0.4390  0.1044
  985MOL0     C32860   8.583  11.235   5.181  0.3916  0.5646 -0.3117
  985MOL0     C32861   8.624  11.382   5.180  0.0387  0.3860  0.0760
  985MOL0     C32862   8.714  11.413   5.054 -0.5453 -0.2271  0.2193
  985MOL0     C32863   8.808  11.527   5.079  0.4307 -0.7805  0.4434
  985MOL0     O32864   8.864  11.530   5.208 -0.1303  0.0234  0.4193
  985MOL0     C32865   8.990  11.582   5.237  0.2778  0.1260 -0.4715
  985MOL0     C32866   9.081  11.642   5.147 -0.0949  0.2949  0.4082
  985MOL0     C32867   9.205  11.687   5.178 -0.1855  0.5326 -1.3374
  985MOL0     C32868   9.248  11.669   5.312  0.3485 -0.3535 -0.8434
  985MOL0     C32869   9.381  11.707   5.361  0.4564 -0.5243 -0.2506
  985MOL0     O32870   9.425  11.660   5.478 -0.7439  0.1893 -0.2812
  985MOL0     C32871   9.554  11.703   5.514  0.6607  0.4935  0.3335
  985MOL0     C32872   9.666  11.640   5.457  0.2888 -0.7235  0.6167
  985MOL0     C32873   9.790  11.681   5.511  0.3119 -0.0186  0.2252
  985MOL0     C32874   9.805  11.779   5.612  0.0581  0.0303 -0.0033
  985MOL0     O32875   9.932  11.791   5.661 -0.1510 -0.3005 -0.5325
  985MOL0     C32876   9.939  11.790   5.804 -0.2161 -0.0529  0.7382
  985MOL0     C32877  10.086  11.799   5.859  0.2459  0.1932  1.3144
  985MOL0     C32878  10.079  11.834   6.010 -0.1935  0.0294  0.6742
  985MOL0     C32879  10.223  11.819   6.055  0.1106 -0.4567 -0.6730
  985MOL0     C32880  10.247  11.833   6.205  0.0161  0.0023 -0.2179
  985MOL0     C32881  10.378  11.759   6.241 -0.0777 -0.3752 -0.6875
  985MOL0     C32882  10.423  11.787   6.381 -0.4584 -0.2866 -0.4329
  985MOL0     C32883  10.539  11.700   6.425 -0.6033  0.3855  0.5161
  985MOL0    Cl32884  10.689  11.729   6.328  0.3012  0.0345 -0.0584
  985MOL0     C32885   9.683  11.843   5.662 -0.3249 -0.3557  0.6146
  985MOL0     C32886   9.561  11.795   5.616  0.3830  0.1486 -0.2158
  985MOL0     O32887   9.447  11.782   5.290  0.4074 -0.3496 -0.1272
  985MOL0     C32888   9.157  11.624   5.408 -0.5999  0.7023 -0.1091
  985MOL0     C32889   9.034  11.575   5.370  0.5118 -0.4662  0.0536
  985MOL0     N32890   8.455  11.229   5.410  0.1383 -0.3288  0.9840
  985MOL0     N32891   8.332  11.206   5.450 -0.8126  0.2916 -0.7127
  985MOL0     C32892   6.948  10.943   5.148 -0.4426  0.4942  0.2852
  985MOL0     C32893   6.820  10.966   5.105 -0.2076  0.1148  0.4469
  985MOL0     C32894   6.511  10.959   4.809  1.3389  0.4884 -0.7242
  985MOL0     C32895   6.465  11.086   4.777 -0.6220  0.2987 -0.3370
  985MOL0     C32896   6.347  11.117   4.710  0.1723  0.0557 -0.3190
  985MOL0     C32897   6.259  11.017   4.687 -0.2252  0.1151 -0.0918
  985MOL0     O32898   6.137  11.046   4.629 -0.1973 -0.3103  0.0150
  985MOL0     C32899   6.085  11.174   4.632 -0.5824 -0.0545 -0.2794
  985MOL0     C32900   5.934  11.173   4.616 -0.9690  0.9869  0.1528
  985MOL0     C32901   5.882  11.311   4.614  0.2947  0.2594 -0.3076
  985MOL0     C32902   5.733  11.312   4.588  0.0586  0.2298  0.3606
  985MOL0     C32903   5.686  11.450   4.597 -0.1904  0.1913  0.2460
  985MOL0     C32904   5.655  11.566   4.596 -0.5738 -0.5907  0.6008
  985MOL0     C32905   6.297  10.878   4.707 -0.6350 -0.0134 -0.2771
  985MOL0     C32906   6.425  10.851   4.758 -0.1197  0.2490  0.5736
  985MOL0     C32907   6.465  10.705   4.770  0.1272 -1.1524  0.4154
  985MOL0     H32908   6.887  11.148   4.827 -0.0678 -0.1102  0.3168
  985MOL0     H32909   7.124  11.107   4.905  0.0868  0.2830 -0.6805
  985MOL0     H32910   7.296  11.099   5.004 -0.5635 -0.5215 -0.2614
  985MOL0     H32911   7.283  11.149   5.173  2.1500  1.2942 -0.1936
  985MOL0     H32912   7.435  10.918   5.054 -0.6819  2.3873 -2.0786
  985MOL0     H32913   7.421  10.944   5.233  0.7602  1.7349 -0.4397
  985MOL0     H32914   7.506  11.174   5.178 -0.0034 -0.8540  2.8753
  985MOL0     H32915   7.558  11.101   5.019 -2.1678  0.6677 -0.4974
  985MOL0     H32916   7.621  11.037   5.313 -1.0935  0.4164 -0.3438
  985MOL0     H32917   7.697  10.944   5.186  1.6957 -0.0479  1.8240
  985MOL0     H32918   7.808  11.173   5.106  2.8566 -1.8263  0.6201
  985MOL0     H32919   7.750  11.237   5.257 -0.6535 -0.0998 -0.3733
  985MOL0     H32920   7.862  11.036   5.389 -0.5910 -1.0435 -0.2301
  985MOL0     H32921   7.914  10.970   5.240 -0.6619  1.4487 -2.2577
  985MOL0     H32922   7.986  11.250   5.331 -0.6294 -0.3064 -0.5760
  985MOL0     H32923   8.034  11.180   5.175  0.3192  0.9472  0.3150
  985MOL0     H32924   8.103  11.097   5.450  0.3975 -0.6148  0.2893
  985MOL0     H32925   8.140  10.992   5.316 -1.4940 -1.2449 -0.4578
  985MOL0     H32926   8.299  11.171   5.127  1.6780  3.1468  0.1483
  985MOL0     H32927   8.666  11.172   5.216 -0.3999 -0.3122  0.0487
  985MOL0     H32928   8.566  11.214   5.075 -0.5004  2.3772 -0.5511
  985MOL0     H32929   8.539  11.450   5.171  0.4576  0.7720 -1.3677
  985MOL0     H32930   8.684  11.403   5.269 -0.3909  1.2473  0.1729
  985MOL0     H32931   8.652  11.435   4.966  1.2069  0.9463 -0.7905
  985MOL0     H32932   8.767  11.322   5.026  2.0557  1.0411  0.6452
  985MOL0     H32933   8.752  11.619   5.059  1.5374 -0.7176 -2.8785
  985MOL0     H32934   8.893  11.512   5.012  1.3167 -4.1431  2.0968
  985MOL0     H32935   9.057  11.673   5.046  1.6293  3.4208  0.8133
  985MOL0     H32936   9.278  11.714   5.102  3.0359 -1.2724  0.8653
  985MOL0     H32937   9.663  11.563   5.381 -0.5288  2.7579 -3.2200
  985MOL0     H32938   9.880  11.628   5.480  2.3790  1.6936  2.8079
  985MOL0     H32939   9.884  11.870   5.855 -0.0175 -0.3204  1.3788
  985MOL0     H32940   9.907  11.692   5.841  4.1864 -1.6901  0.8736
  985MOL0     H32941  10.121  11.696   5.844 -0.5029  0.0417  0.4952
  985MOL0     H32942  10.153  11.868   5.808  0.8041  0.1726  2.0042
  985MOL0     H32943  10.036  11.933   6.027 -1.8072 -0.2697 -1.2341
  985MOL0     H32944  10.011  11.768   6.065  1.9975 -2.1740  0.9058
  985MOL0     H32945  10.273  11.895   5.995  0.7932  0.0211  0.4761
  985MOL0     H32946  10.255  11.720   6.022  1.3845  0.0348 -0.9429
  985MOL0     H32947  10.165  11.793   6.265  0.8361 -2.1489 -0.4280
  985MOL0     H32948  10.249  11.941   6.222  0.4838  0.8283 -4.4490
  985MOL0     H32949  10.371  11.651   6.225  0.7589 -1.1214  2.9871
  985MOL0     H32950  10.453  11.795   6.170  0.6116 -4.2702 -2.1459
  985MOL0     H32951  10.337  11.761   6.444 -0.1606  0.1418  0.1659
  985MOL0     H32952  10.454  11.892   6.381  0.3507 -0.4915 -2.3922
  985MOL0     H32953  10.561  11.714   6.532 -0.9574 -1.1142  0.8005
  985MOL0     H32954  10.514  11.596   6.404 -0.9136  0.3119  1.2053
  985MOL0     H32955   9.697  11.918   5.739  3.3130  1.6852 -1.7150
  985MOL0     H32956   9.481  11.848   5.666  0.3167  0.1975 -0.3737
  985MOL0     H32957   9.168  11.619   5.516  0.4312  1.2292 -0.1759
  985MOL0     H32958   8.974  11.543   5.454  1.0431  0.7155  0.9190
  985MOL0     H32959   6.964  10.880   5.235  0.8466 -1.8470 -1.5226
  985MOL0     H32960   6.737  10.919   5.156 -1.3038 -1.8922 -2.8441
  985MOL0     H32961   6.530  11.165   4.813  2.0268 -2.7999  2.5026
  985MOL0     H32962   6.314  11.219   4.689 -1.7926 -1.0869 -3.3303
  985MOL0     H32963   6.131  11.240   4.558  0.2464  0.8836  1.0330
  985MOL0     H32964   6.108  11.222   4.728  1.9243  1.3226 -1.4540
  985MOL0     H32965   5.903  11.115   4.703 -0.2079 -0.2624 -0.3794
  985MOL0     H32966   5.905  11.119   4.526  0.5486  0.0749  0.1804
  985MOL0     H32967   5.925  11.365   4.529  0.1869 -1.1664 -1.2978
  985MOL0     H32968   5.908  11.359   4.709 -2.2802 -1.3970  1.3974
  985MOL0     H32969   5.706  11.269   4.491 -1.9397 -0.2912  1.0985
  985MOL0     H32970   5.684  11.247   4.662  1.8076  2.2266  3.4772
  985MOL0     H32971   5.625  11.668   4.610  0.3871 -0.0677 -0.8856
  985MOL0     H32972   6.229  10.798   4.681  1.8011 -2.1350 -0.4942
  985MOL0     H32973   6.384  10.638   4.741 -2.7259  1.6481  1.3094
  985MOL0     H32974   6.557  10.678   4.718  0.7851  0.2577  0.8018
  985MOL0     H32975   6.484  10.691   4.877  3.5234 -1.7781 -0.1507
  986MOL0     O32976   0.221   2.437   5.973 -0.3696  0.1624  0.4236
  986MOL0     C32977   0.159   2.344   6.019  0.0681 -0.1575  0.1805
  986MOL0     O32978   0.218   2.227   6.081  0.1463  0.4625 -0.1073
  986MOL0     C32979   0.357   2.228   6.076 -0.4995  0.3088  0.2367
  986MOL0     C32980   0.431   2.216   6.199  0.0078 -0.4126  1.1233
  986MOL0     C32981   0.568   2.237   6.190  0.6794  0.7336 -0.9951
  986MOL0     C32982   0.640   2.267   6.074 -0.4420  0.1647  0.4703
  986MOL0     O32983   0.777   2.276   6.062 -0.1498 -0.5134 -0.2928
  986MOL0     C32984   0.861   2.216   6.166  0.0536 -0.4562  0.9203
  986MOL0     C32985   0.993   2.168   6.112 -0.3241 -0.2789  0.2503
  986MOL0     C32986   1.082   2.291   6.070  0.3730  0.0289 -0.6673
  986MOL0     C32987   1.215   2.266   5.997 -0.6965 -0.1096  0.4856
  986MOL0     C32988   1.314   2.189   6.079 -0.3107 -0.0128 -0.9266
  986MOL0     C32989   1.447   2.186   6.009 -0.2864 -0.2302  0.1967
  986MOL0     C32990   1.531   2.077   6.068  0.2480 -0.2010  0.6931
  986MOL0     C32991   1.661   2.052   5.985 -0.1390 -0.1660 -0.2513
  986MOL0     N32992   1.732   2.169   5.954 -0.6153 -0.6068 -0.4173
  986MOL0     C32993   1.776   2.258   6.048  0.4134 -0.3541 -0.5322
  986MOL0     C32994   1.842   2.357   5.984  0.2283 -0.2453  0.0678
  986MOL0     C32995   1.909   2.486   6.022  0.2584 -0.4338 -0.2885
  986MOL0     C32996   2.058   2.457   6.037  0.0419  0.1067  0.0470
  986MOL0     C32997   2.123   2.442   5.890 -0.2860 -0.7300 -0.4186
  986MOL0     C32998   2.277   2.436   5.899  1.0673 -0.6449 -0.5454
  986MOL0     O32999   2.341   2.557   5.921  0.4935 -0.1856  0.2262
  986MOL0     C33000   2.475   2.564   5.935 -0.5250 -0.5612  0.5721
  986MOL0     C33001   2.531   2.697   5.967 -0.9341  0.3585 -0.0940
  986MOL0     C33002   2.673   2.705   5.986 -0.1318 -0.7378  0.2292
  986MOL0     C33003   2.753   2.593   5.985 -0.2410 -0.1285  0.4358
  986MOL0     C33004   2.890   2.594   6.034 -0.4439  0.0895 -1.2885
  986MOL0     O33005   2.960   2.720   6.045  0.2244 -0.2328 -0.1405
  986MOL0     C33006   3.095   2.720   6.076  0.0075  0.2474  0.6702
  986MOL0     C33007   3.146   2.682   6.199 -0.2338 -0.8516  1.0618
  986MOL0     C33008   3.283   2.669   6.218 -0.3421 -0.2227 -0.8301
  986MOL0     C33009   3.374   2.685   6.113  0.0199 -0.2107 -0.4028
  986MOL0     O33010   3.510   2.642   6.138 -0.0130 -0.1221  0.1050
  986MOL0     C33011   3.608   2.741   6.134  0.8950  0.2955 -0.0335
  986MOL0     C33012   3.740   2.665   6.135  0.3720 -0.6783  0.6358
  986MOL0     C33013   3.783   2.613   6.268 -0.7092 -0.0014  0.0384
  986MOL0     C33014   3.919   2.559   6.267 -0.5826  0.2303 -0.2618
  986MOL0     C33015   3.964   2.526   6.412 -0.6298  0.4161  1.1844
  986MOL0     C33016   4.087   2.435   6.402 -1.1414  0.3139 -1.2021
  986MOL0     C33017   4.145   2.416   6.542 -0.3642  0.3987  0.7256
  986MOL0     C33018   4.252   2.301   6.553 -0.1818  0.1497 -0.3919
  986MOL0    Cl33019   4.207   2.138   6.500 -0.3624 -0.0095 -0.0858
  986MOL0     C33020   3.324   2.729   5.992 -0.1857 -0.2033 -0.4437
  986MOL0     C33021   3.186   2.742   5.971 -0.7712  0.0995  0.5908
  986MOL0     O33022   2.943   2.488   6.066 -0.1070  0.1235 -0.2324
  986MOL0     C33023   2.699   2.467   5.962  0.0046 -0.2097  1.0181
  986MOL0     C33024   2.565   2.456   5.932  0.6980 -0.4118  0.0213
  986MOL0     N33025   1.827   2.333   5.849  0.4831 -0.1057 -0.1163
  986MOL0     N33026   1.765   2.222   5.835  0.2973 -0.9716 -0.0815
  986MOL0     C33027   0.570   2.271   5.949  0.0352  0.3953  0.4131
  986MOL0     C33028   0.432   2.255   5.956  0.5505  0.2874 -0.1973
  986MOL0     C33029   0.014   2.346   6.005 -0.4194 -0.1133  0.0326
  986MOL0     C33030  -0.054   2.231   6.053  0.0519 -0.6188  0.5576
  986MOL0     C33031  -0.194   2.227   6.045 -0.6842 -0.2870  0.9647
  986MOL0     C33032  -0.269   2.335   5.998 -0.8818  0.5537 -0.1126
  986MOL0     O33033  -0.405   2.326   6.011 -0.1672 -0.3204  0.0143
  986MOL0     C33034  -0.473   2.445   5.989 -0.1992  0.3210  0.3146
  986MOL0     C33035  -0.619   2.423   6.040  0.5043 -0.1971 -0.3338
  986MOL0     C33036  -0.707   2.546   6.001  0.3049 -0.1388  0.3091
  986MOL0     C33037  -0.841   2.528   6.063  0.0147 -0.4341 -0.3189
  986MOL0     C33038  -0.842   2.535   6.214 -0.2845  0.0303 -0.5370
  986MOL0     C33039  -0.835   2.548   6.339 -0.1468  0.8335 -0.9601
  986MOL0     C33040  -0.198   2.441   5.942  0.3284 -0.0666  1.6024
  986MOL0     C33041  -0.057   2.457   5.945 -1.0848  0.1292 -0.4498
  986MOL0     C33042  -0.013   2.585   5.883 -0.2080 -0.1413 -0.0140
  986MOL0     H33043   0.369   2.198   6.286 -0.6607 -1.3697  0.4719
  986MOL0     H33044   0.604   2.211   6.289 -2.8185 -2.9623 -0.4327
  986MOL0     H33045   0.873   2.295   6.241 -1.1013 -1.4723  2.2078
  986MOL0     H33046   0.810   2.133   6.216 -1.7090 -0.1655 -0.2833
  986MOL0     H33047   0.985   2.102   6.025 -0.1403 -0.1246  0.1140
  986MOL0     H33048   1.047   2.112   6.189 -0.2151 -1.9673 -0.9886
  986MOL0     H33049   1.097   2.350   6.161 -2.1686  2.1197 -1.4991
  986MOL0     H33050   1.024   2.353   6.002  0.0167 -0.7039 -1.0289
  986MOL0     H33051   1.197   2.222   5.898 -4.1106 -0.2049  1.0372
  986MOL0     H33052   1.263   2.362   5.976  0.3798 -0.8789 -0.7206
  986MOL0     H33053   1.329   2.220   6.183 -0.1657  0.5247 -1.1053
  986MOL0     H33054   1.280   2.087   6.098  2.2640 -0.7904 -0.2303
  986MOL0     H33055   1.426   2.157   5.906  1.6513 -1.2677  0.0581
  986MOL0     H33056   1.499   2.282   6.016  2.8799 -1.9496  2.4498
  986MOL0     H33057   1.472   1.985   6.069 -1.5866  0.8824 -1.1028
  986MOL0     H33058   1.552   2.109   6.170  0.1478  3.4790 -0.3115
  986MOL0     H33059   1.729   1.985   6.039 -2.1891 -0.8514  1.6305
  986MOL0     H33060   1.624   1.991   5.903  0.2755 -1.4013  0.4495
  986MOL0     H33061   1.765   2.248   6.156  0.1587  0.4644 -0.4751
  986MOL0     H33062   1.887   2.563   5.948  1.4452  0.8828  0.6593
  986MOL0     H33063   1.884   2.525   6.121 -0.5514 -0.4659 -0.4759
  986MOL0     H33064   2.111   2.534   6.094  0.4036 -0.8556  1.0462
  986MOL0     H33065   2.076   2.362   6.087  1.5534  0.7193  0.7137
  986MOL0     H33066   2.094   2.534   5.839 -0.6914 -1.3751 -1.3798
  986MOL0     H33067   2.091   2.352   5.838 -2.2454 -0.1388 -0.3093
  986MOL0     H33068   2.310   2.385   5.808 -3.7286  0.1152 -3.0425
  986MOL0     H33069   2.300   2.370   5.983  0.7910  1.9208  1.7138
  986MOL0     H33070   2.461   2.779   5.956 -1.3552 -0.2419 -2.6953
  986MOL0     H33071   2.725   2.798   6.006  1.3281 -1.4861 -0.0085
  986MOL0     H33072   3.074   2.653   6.274 -0.7366 -0.9300  0.5583
  986MOL0     H33073   3.320   2.625   6.310  0.7823 -0.0076 -1.1568
  986MOL0     H33074   3.601   2.793   6.037  0.9689 -0.7058 -0.5829
  986MOL0     H33075   3.586   2.816   6.211 -2.1655  0.9361 -1.3693
  986MOL0     H33076   3.737   2.592   6.054 -0.9463  2.8894 -2.8663
  986MOL0     H33077   3.820   2.738   6.115  1.6254 -1.6358  1.9165
  986MOL0     H33078   3.786   2.699   6.335 -1.3829 -0.3161  0.4778
  986MOL0     H33079   3.701   2.545   6.294 -2.6481  0.9984 -2.8683
  986MOL0     H33080   3.991   2.630   6.225 -0.2491  0.1239  0.1191
  986MOL0     H33081   3.924   2.472   6.200 -0.2012 -0.4270  0.5952
  986MOL0     H33082   3.878   2.476   6.456 -1.2346 -0.7344 -1.1495
  986MOL0     H33083   3.985   2.621   6.463 -0.3095  0.7319  0.4895
  986MOL0     H33084   4.052   2.341   6.359  2.4558 -2.6355  1.6260
  986MOL0     H33085   4.164   2.487   6.344  1.7588 -0.1179  1.9529
  986MOL0     H33086   4.051   2.395   6.594 -1.5398  4.0525  0.3624
  986MOL0     H33087   4.192   2.506   6.582 -0.8286  1.2036 -0.4819
  986MOL0     H33088   4.339   2.325   6.491 -0.2536 -0.3691 -0.6957
  986MOL0     H33089   4.277   2.300   6.660 -1.1661 -1.4656 -0.1444
  986MOL0     H33090   3.391   2.744   5.908  0.6103  0.9883  0.3594
  986MOL0     H33091   3.148   2.778   5.876 -1.7238 -1.7262  0.2337
  986MOL0     H33092   2.754   2.373   5.959 -0.4035 -0.4358 -0.5188
  986MOL0     H33093   2.527   2.358   5.907 -0.7820  0.1221  0.0679
  986MOL0     H33094   0.624   2.276   5.855  1.2987 -1.8569  0.9308
  986MOL0     H33095   0.380   2.252   5.861  3.4348  1.0235 -1.9106
  986MOL0     H33096   0.001   2.144   6.087  1.6737 -0.1522 -0.7156
  986MOL0     H33097  -0.253   2.144   6.084 -1.2963 -1.6861 -2.5578
  986MOL0     H33098  -0.484   2.460   5.881 -3.3132 -0.9650  0.3384
  986MOL0     H33099  -0.437   2.536   6.037 -4.1617  2.6119 -0.5393
  986MOL0     H33100  -0.599   2.418   6.148  2.1068  3.3205 -0.3439
  986MOL0     H33101  -0.667   2.332   6.003  0.9758 -0.0954 -1.2212
  986MOL0     H33102  -0.718   2.543   5.893 -0.3292 -3.2765  0.3789
  986MOL0     H33103  -0.668   2.643   6.034 -2.5449  0.5791  1.8976
  986MOL0     H33104  -0.903   2.609   6.023  3.7317  1.3933 -3.0238
  986MOL0     H33105  -0.895   2.437   6.033 -2.5298  1.0579 -0.5738
  986MOL0     H33106  -0.822   2.549   6.445  0.8480 -1.2771 -1.0136
  986MOL0     H33107  -0.258   2.512   5.885  1.9394  0.3269  0.3175
  986MOL0     H33108  -0.041   2.673   5.943  1.3844 -2.2068  4.1900
  986MOL0     H33109   0.096   2.593   5.874 -0.0314  0.5171  1.9852
  986MOL0     H33110  -0.060   2.579   5.785  1.5680 -3.0231 -0.8121
  987MOL0     O33111   0.034  10.753   0.846 -0.0109 -0.2785  0.2106
  987MOL0     C33112  -0.018  10.851   0.801 -0.1722 -0.5617 -0.6193
  987MOL0     O33113   0.041  10.975   0.793  0.3844  0.6759 -0.3126
  987MOL0     C33114   0.176  10.979   0.811  0.6962  0.0991  0.0174
  987MOL0     C33115   0.223  11.005   0.937 -0.2562 -0.8226 -0.6161
  987MOL0     C33116   0.364  11.015   0.960 -1.2839  0.8427  0.3234
  987MOL0     C33117   0.462  10.995   0.854  0.2276 -0.3940  0.4674
  987MOL0     O33118   0.599  11.000   0.887  0.3606  0.4286 -0.4196
  987MOL0     C33119   0.695  11.032   0.788 -0.6758 -0.3648 -0.5121
  987MOL0     C33120   0.834  11.053   0.855 -0.6289  0.2650 -0.3222
  987MOL0     C33121   0.946  11.098   0.758 -0.2113  0.7456 -0.7289
  987MOL0     C33122   1.085  11.056   0.801 -0.1217  0.8927  1.2000
  987MOL0     C33123   1.184  11.109   0.700 -0.8767 -0.3631  0.0200
  987MOL0     C33124   1.325  11.084   0.735 -0.1339  0.6005  0.4104
  987MOL0     C33125   1.368  11.142   0.876 -0.6817 -0.4182  0.2830
  987MOL0     C33126   1.515  11.149   0.908  0.0676 -0.0912  0.3757
  987MOL0     N33127   1.578  11.239   0.815 -0.7521  0.6607 -0.6317
  987MOL0     C33128   1.631  11.207   0.694 -0.7185  0.0373 -0.1988
  987MOL0     C33129   1.721  11.307   0.660  0.7024 -0.2776  0.6439
  987MOL0     C33130   1.799  11.314   0.531  0.1694 -0.6394 -0.2008
  987MOL0     C33131   1.938  11.234   0.525  0.0324 -0.2802 -0.1128
  987MOL0     C33132   2.065  11.315   0.537 -0.5273 -0.7139  0.6566
  987MOL0     C33133   2.076  11.388   0.672  0.6923  1.4317 -0.1588
  987MOL0     O33134   2.085  11.300   0.784 -0.2637 -0.5862 -0.3179
  987MOL0     C33135   2.203  11.254   0.827 -0.1487 -0.4290 -0.9328
  987MOL0     C33136   2.319  11.257   0.749 -0.1481  0.7428  0.1321
  987MOL0     C33137   2.436  11.213   0.803 -0.0369  0.2404 -0.6332
  987MOL0     C33138   2.442  11.174   0.933 -0.5928 -0.5591  0.5833
  987MOL0     C33139   2.569  11.117   0.981  0.2088 -0.2541 -0.3809
  987MOL0     O33140   2.550  11.040   1.095  0.0822  0.3662 -1.0131
  987MOL0     C33141   2.658  10.982   1.152  0.4955  0.0805 -0.3493
  987MOL0     C33142   2.745  10.903   1.081  0.5443  0.3953 -0.0030
  987MOL0     C33143   2.839  10.817   1.150  0.2896 -0.1956  0.7403
  987MOL0     C33144   2.859  10.831   1.289  0.1712  0.8343  0.7188
  987MOL0     O33145   2.945  10.743   1.350  0.3771 -0.0024  0.2936
  987MOL0     C33146   3.059  10.815   1.398 -0.2020  0.5809  1.0028
  987MOL0     C33147   3.141  10.716   1.483 -0.0539 -0.4312 -0.1088
  987MOL0     C33148   3.133  10.771   1.638  0.7621 -0.0380  0.0286
  987MOL0     C33149   3.005  10.726   1.711 -0.1585  0.8931 -0.4205
  987MOL0     C33150   3.034  10.588   1.770  0.0920 -0.2904 -0.5465
  987MOL0     C33151   2.908  10.543   1.849 -0.0046  0.6667  0.2311
  987MOL0     C33152   2.849  10.617   1.963 -0.1229 -0.4779  0.5666
  987MOL0     C33153   2.932  10.662   2.079  0.4093 -0.7304  0.0919
  987MOL0    Cl33154   3.006  10.523   2.164  0.2072 -0.5783  0.3389
  987MOL0     C33155   2.774  10.912   1.360 -0.2258  0.4861  0.2428
  987MOL0     C33156   2.669  10.984   1.296 -0.5198 -0.0985  0.7770
  987MOL0     O33157   2.675  11.127   0.916 -0.0965  0.4606 -0.4159
  987MOL0     C33158   2.324  11.161   1.010 -0.6746  0.3683 -0.4032
  987MOL0     C33159   2.209  11.207   0.962  0.2826  0.0618  0.2438
  987MOL0     N33160   1.725  11.390   0.766 -0.0421  0.1579  0.0480
  987MOL0     N33161   1.643  11.351   0.860  0.3804 -0.1558  0.2446
  987MOL0     C33162   0.408  10.967   0.728 -0.1738 -0.0748  0.9395
  987MOL0     C33163   0.268  10.949   0.705  0.1606  0.3687  0.8183
  987MOL0     C33164  -0.154  10.844   0.742  0.1757  0.5873 -0.1176
  987MOL0     C33165  -0.199  10.710   0.712 -0.2665 -0.6029 -0.5240
  987MOL0     C33166  -0.323  10.688   0.664  0.3139  0.8612  0.2879
  987MOL0     C33167  -0.414  10.790   0.636  0.1407  0.8153 -0.1360
  987MOL0     O33168  -0.542  10.783   0.581  0.5835 -0.3192 -1.1270
  987MOL0     C33169  -0.570  10.679   0.482  0.1947  0.1109  0.8259
  987MOL0     C33170  -0.614  10.735   0.348 -0.2948  0.3832 -0.2057
  987MOL0     C33171  -0.755  10.782   0.344  0.1326 -0.3235 -0.3348
  987MOL0     C33172  -0.789  10.845   0.205 -0.7064  0.2830  0.5129
  987MOL0     C33173  -0.725  10.975   0.207  0.7716  0.4902  0.0035
  987MOL0     C33174  -0.691  11.088   0.220 -0.3605  0.4171  0.8918
  987MOL0     C33175  -0.375  10.918   0.673  0.9832  0.1346  0.5714
  987MOL0     C33176  -0.249  10.948   0.723 -0.6816  0.5350  0.2564
  987MOL0     C33177  -0.213  11.087   0.748 -0.8999  0.5132 -0.5154
  987MOL0     H33178   0.148  11.020   1.014 -0.6847 -2.9712 -0.5528
  987MOL0     H33179   0.402  11.057   1.052  1.2777 -1.7589  0.5764
  987MOL0     H33180   0.704  10.946   0.721  0.4533  0.2590 -1.1997
  987MOL0     H33181   0.680  11.124   0.730  3.3732 -0.2252 -1.6407
  987MOL0     H33182   0.872  10.958   0.892  1.6111  1.7304  1.3775
  987MOL0     H33183   0.834  11.119   0.942 -0.3814 -2.3749  1.7916
  987MOL0     H33184   0.943  11.203   0.728  2.1004  0.3178 -2.8305
  987MOL0     H33185   0.933  11.044   0.663  0.4642  1.8481 -1.4793
  987MOL0     H33186   1.107  11.116   0.890 -0.6258  0.9029  1.3250
  987MOL0     H33187   1.096  10.952   0.831  1.2901  0.7510  0.2443
  987MOL0     H33188   1.165  11.064   0.602  0.3706 -0.8103 -0.0464
  987MOL0     H33189   1.172  11.217   0.683 -1.8721  0.2798  3.8885
  987MOL0     H33190   1.345  10.977   0.734  2.6444  1.0378 -0.2255
  987MOL0     H33191   1.386  11.121   0.652 -1.9588 -0.5305 -1.5111
  987MOL0     H33192   1.319  11.074   0.947  0.1887  1.0905  2.4102
  987MOL0     H33193   1.333  11.245   0.888  2.4416  0.6426  1.1165
  987MOL0     H33194   1.524  11.189   1.009 -0.6275  2.8020 -0.6101
  987MOL0     H33195   1.558  11.049   0.904 -0.2731 -0.3201  1.9920
  987MOL0     H33196   1.618  11.120   0.631 -1.9632  1.5476 -2.1753
  987MOL0     H33197   1.739  11.281   0.446  0.4704  1.2209 -1.1705
  987MOL0     H33198   1.824  11.419   0.520  3.1034 -1.2929 -0.6693
  987MOL0     H33199   1.924  11.162   0.606 -0.9372  0.8373  0.7385
  987MOL0     H33200   1.936  11.179   0.430 -3.2876 -0.2891 -0.1666
  987MOL0     H33201   2.065  11.403   0.473  0.0038  0.9627  2.8628
  987MOL0     H33202   2.152  11.258   0.504 -0.6433  0.1780 -1.3044
  987MOL0     H33203   1.981  11.441   0.665 -0.7412 -1.1462 -2.0758
  987MOL0     H33204   2.155  11.464   0.675  0.5914  1.5521 -0.4543
  987MOL0     H33205   2.318  11.274   0.642 -1.5065  1.2157  0.1999
  987MOL0     H33206   2.521  11.203   0.737  0.3298 -1.1960  0.0115
  987MOL0     H33207   2.749  10.907   0.972 -0.2855  2.0934  0.0018
  987MOL0     H33208   2.911  10.763   1.090  1.3112  3.3786 -1.5558
  987MOL0     H33209   3.114  10.852   1.312 -0.4306 -0.5762  0.3275
  987MOL0     H33210   3.032  10.896   1.466  0.8222 -0.6335  2.9760
  987MOL0     H33211   3.106  10.613   1.474 -0.3256 -0.5641  1.9446
  987MOL0     H33212   3.242  10.734   1.446  1.0072 -1.0495  2.2811
  987MOL0     H33213   3.215  10.716   1.686 -0.2228 -1.6185 -0.0169
  987MOL0     H33214   3.152  10.878   1.642 -1.3384  0.3837 -0.3741
  987MOL0     H33215   2.928  10.709   1.635  2.7807  0.0233 -3.4577
  987MOL0     H33216   2.979  10.793   1.794 -1.0533 -0.1237  0.1587
  987MOL0     H33217   3.116  10.597   1.841 -0.1812 -2.0162  0.0317
  987MOL0     H33218   3.066  10.518   1.693 -0.7839  0.4654 -1.6404
  987MOL0     H33219   2.828  10.532   1.775  1.2222 -3.8135 -0.7804
  987MOL0     H33220   2.924  10.440   1.884 -0.4598  0.6484  0.3981
  987MOL0     H33221   2.760  10.561   1.995 -3.3162  3.1650 -1.1250
  987MOL0     H33222   2.808  10.710   1.923 -1.1077 -0.1067  2.3194
  987MOL0     H33223   2.999  10.742   2.047  0.4504 -1.4978 -1.9046
  987MOL0     H33224   2.860  10.712   2.144 -0.7484 -2.4626  0.2341
  987MOL0     H33225   2.794  10.907   1.467 -0.9086 -2.8891  0.3247
  987MOL0     H33226   2.603  11.045   1.358 -1.6904  0.0410 -0.5458
  987MOL0     H33227   2.333  11.107   1.103  0.0992  0.2196 -0.5588
  987MOL0     H33228   2.115  11.214   1.016  0.3131  2.1393  0.0913
  987MOL0     H33229   0.478  10.943   0.649  2.0046  2.7105  1.8833
  987MOL0     H33230   0.229  10.921   0.607 -0.8426  3.5040  0.1944
  987MOL0     H33231  -0.125  10.631   0.722  0.4227 -0.3740 -3.2094
  987MOL0     H33232  -0.356  10.590   0.634  0.5875  0.1368  2.2005
  987MOL0     H33233  -0.653  10.615   0.512 -0.9478  0.2844 -1.6488
  987MOL0     H33234  -0.492  10.602   0.472 -1.7236 -1.8805  0.4708
  987MOL0     H33235  -0.608  10.662   0.267  3.2266  0.7154 -0.3777
  987MOL0     H33236  -0.551  10.818   0.317 -0.1144  0.1358 -0.5069
  987MOL0     H33237  -0.767  10.858   0.421 -0.1207 -1.0036  0.3156
  987MOL0     H33238  -0.819  10.697   0.371 -0.1854  0.3944  1.2704
  987MOL0     H33239  -0.736  10.790   0.127  2.3515  0.6134  2.1942
  987MOL0     H33240  -0.896  10.856   0.185 -0.6832 -0.3421  0.0104
  987MOL0     H33241  -0.658  11.187   0.247 -3.0329  1.8283 -0.6130
  987MOL0     H33242  -0.446  11.000   0.668  2.1126  1.0826 -0.4495
  987MOL0     H33243  -0.155  11.132   0.668 -1.4946  0.4939 -0.9680
  987MOL0     H33244  -0.306  11.144   0.756 -0.8234  0.4839  1.0931
  987MOL0     H33245  -0.167  11.103   0.846 -1.7941 -2.3787  0.4851
  988MOL0     O33246   8.061   6.506   0.051 -0.1323  0.2362  0.5187
  988MOL0     C33247   7.985   6.487   0.142 -0.1956  0.3858 -0.8173
  988MOL0     O33248   8.026   6.487   0.275 -0.4438  0.3002  0.7054
  988MOL0     C33249   8.149   6.546   0.292  0.2838  0.3233 -0.1955
  988MOL0     C33250   8.254   6.472   0.340  0.6791 -0.0206 -0.8678
  988MOL0     C33251   8.379   6.534   0.351  1.1100  0.6921 -0.6807
  988MOL0     C33252   8.396   6.670   0.320  0.9056  0.0882 -0.3458
  988MOL0     O33253   8.530   6.712   0.318 -0.5681  0.1438  0.2014
  988MOL0     C33254   8.552   6.857   0.341  0.6338  0.2787  0.6479
  988MOL0     C33255   8.685   6.871   0.398  0.6393  0.2995 -0.9391
  988MOL0     C33256   8.721   7.021   0.414 -0.0820  0.2849  0.1275
  988MOL0     C33257   8.640   7.108   0.515 -0.2217  0.3592 -0.1090
  988MOL0     C33258   8.668   7.258   0.514 -0.1872 -0.6846  0.0291
  988MOL0     C33259   8.814   7.294   0.525  0.0924 -0.5592  0.1449
  988MOL0     C33260   8.835   7.430   0.587 -0.5237 -0.0419  0.1767
  988MOL0     C33261   8.969   7.494   0.595 -0.2038  0.5656 -0.8287
  988MOL0     N33262   9.017   7.561   0.472  0.0340  0.3451 -0.0941
  988MOL0     C33263   9.096   7.675   0.460 -0.7425 -0.1750 -0.0526
  988MOL0     C33264   9.113   7.694   0.323 -0.6535 -0.5397 -0.6458
  988MOL0     C33265   9.194   7.799   0.250 -0.0296 -0.2382  0.1435
  988MOL0     C33266   9.109   7.933   0.218 -0.9648 -0.0089  0.3574
  988MOL0     C33267   9.083   8.012   0.353  0.2728 -0.0930  0.1208
  988MOL0     C33268   8.994   8.135   0.357  0.7860 -0.2552  0.7847
  988MOL0     O33269   9.026   8.213   0.473 -0.3454  0.2113  0.1003
  988MOL0     C33270   9.134   8.298   0.467 -0.1421  0.1483 -0.1474
  988MOL0     C33271   9.201   8.322   0.350 -0.3612  0.5834  1.1327
  988MOL0     C33272   9.313   8.396   0.349 -0.4763 -0.3680  0.0468
  988MOL0     C33273   9.366   8.452   0.465  0.4570 -0.8419  0.3122
  988MOL0     C33274   9.505   8.510   0.469 -1.6978 -1.0492  0.2867
  988MOL0     O33275   9.593   8.470   0.373  0.3568 -0.5467  0.4207
  988MOL0     C33276   9.715   8.523   0.339 -0.2186 -0.3290 -0.3879
  988MOL0     C33277   9.782   8.449   0.236  0.2389  0.4104  0.1130
  988MOL0     C33278   9.914   8.485   0.200  0.2533 -0.1338  0.6305
  988MOL0     C33279   9.972   8.608   0.248 -0.2883  0.8745  0.2738
  988MOL0     O33280  10.091   8.657   0.214 -0.4653 -0.2533 -0.2999
  988MOL0     C33281  10.196   8.557   0.189  1.0471  0.1814 -0.0796
  988MOL0     C33282  10.331   8.613   0.183  0.2856 -0.6552 -0.5185
  988MOL0     C33283  10.431   8.506   0.137 -0.2597  0.0799  1.1107
  988MOL0     C33284  10.566   8.570   0.117 -0.3027 -0.3606  0.2484
  988MOL0     C33285  10.655   8.517   0.003  0.3621 -0.0828  1.0301
  988MOL0     C33286  10.801   8.557   0.016  0.1397  1.0976 -0.2687
  988MOL0     C33287  10.892   8.465  -0.068  0.0011  0.1257  0.0642
  988MOL0     C33288  10.846   8.465  -0.210  0.0050 -0.8058 -0.1819
  988MOL0    Cl33289  10.985   8.411  -0.318  0.2247 -0.0938  0.5438
  988MOL0     C33290   9.898   8.683   0.339  0.0324  0.3918 -0.2026
  988MOL0     C33291   9.775   8.641   0.387  0.3415  0.9876 -0.2694
  988MOL0     O33292   9.533   8.587   0.562  0.7608  1.1106  0.4573
  988MOL0     C33293   9.297   8.424   0.583 -0.0908 -0.4600 -0.9229
  988MOL0     C33294   9.179   8.350   0.591 -0.1389  0.3061  0.2355
  988MOL0     N33295   9.031   7.610   0.264  0.9451  0.2028 -0.3452
  988MOL0     N33296   8.984   7.521   0.351 -0.4004 -0.7027  0.6492
  988MOL0     C33297   8.286   6.744   0.266 -0.0476 -0.0580 -0.1933
  988MOL0     C33298   8.172   6.679   0.265  1.0376 -0.0653  0.2768
  988MOL0     C33299   7.851   6.454   0.116  0.7264  1.1283 -0.6351
  988MOL0     C33300   7.820   6.336   0.045  0.7780  0.1727  0.1629
  988MOL0     C33301   7.684   6.293   0.023  0.6480  0.4214  0.5872
  988MOL0     C33302   7.580   6.364   0.071 -0.1383  0.4072  0.7637
  988MOL0     O33303   7.448   6.324   0.066  0.2466  0.4553 -0.3531
  988MOL0     C33304   7.417   6.222  -0.038  0.2603  0.7819  0.2614
  988MOL0     C33305   7.277   6.238  -0.084 -0.6476  0.1764  0.7195
  988MOL0     C33306   7.173   6.223   0.024 -0.4841 -0.2422 -0.1480
  988MOL0     C33307   7.031   6.260  -0.018  0.1402 -0.0086  0.4499
  988MOL0     C33308   6.989   6.197  -0.144  0.6355  0.1868 -0.4555
  988MOL0     C33309   6.962   6.151  -0.252 -0.4644 -0.4243  0.7813
  988MOL0     C33310   7.613   6.483   0.144 -0.4959 -0.1911 -0.5563
  988MOL0     C33311   7.747   6.531   0.170  1.2787  0.8689  0.8869
  988MOL0     C33312   7.774   6.652   0.252 -0.2967 -0.6260 -0.2009
  988MOL0     H33313   8.249   6.365   0.359 -0.1884  0.7254  4.6781
  988MOL0     H33314   8.468   6.492   0.398 -1.2071  0.0693  3.7693
  988MOL0     H33315   8.539   6.916   0.250  1.6067  0.6094  0.7128
  988MOL0     H33316   8.485   6.894   0.420  0.8676  0.0741  0.9448
  988MOL0     H33317   8.762   6.809   0.351  0.4066 -0.3426 -0.4908
  988MOL0     H33318   8.690   6.828   0.499  0.3476 -1.3475 -1.5918
  988MOL0     H33319   8.713   7.063   0.313  0.5502  2.5381  0.9653
  988MOL0     H33320   8.825   7.016   0.448  0.5557 -1.1959 -1.7963
  988MOL0     H33321   8.533   7.096   0.494 -0.0539 -0.4858 -0.5209
  988MOL0     H33322   8.658   7.072   0.617 -1.6968  1.2059  0.4879
  988MOL0     H33323   8.637   7.303   0.419 -0.9591 -2.4345 -0.5826
  988MOL0     H33324   8.621   7.307   0.600 -1.0696  0.5015 -1.0998
  988MOL0     H33325   8.862   7.219   0.588  1.4846  0.6802  0.6432
  988MOL0     H33326   8.863   7.282   0.428  0.2097 -0.8826  0.2424
  988MOL0     H33327   8.795   7.425   0.689 -0.0897 -0.2440  0.3370
  988MOL0     H33328   8.781   7.510   0.536  0.4878  2.3349  2.6158
  988MOL0     H33329   8.968   7.571   0.673  2.8882  1.8748 -1.9155
  988MOL0     H33330   9.047   7.421   0.619 -0.7733 -0.2163 -1.3092
  988MOL0     H33331   9.146   7.734   0.536 -1.4440  0.3584  0.0090
  988MOL0     H33332   9.290   7.818   0.299 -0.9771 -1.0442  2.4267
  988MOL0     H33333   9.207   7.744   0.156  1.4000 -0.7253  0.5921
  988MOL0     H33334   9.161   8.000   0.149 -1.3104  0.2496  0.3427
  988MOL0     H33335   9.025   7.895   0.160  1.7493 -0.8371 -3.4563
  988MOL0     H33336   9.183   8.043   0.385  1.1009  0.0074 -2.3325
  988MOL0     H33337   9.027   7.948   0.422 -1.7108  2.0797  0.6511
  988MOL0     H33338   8.891   8.101   0.360  1.7883 -3.7761 -0.0607
  988MOL0     H33339   9.003   8.204   0.272  0.6572  4.1113  3.9250
  988MOL0     H33340   9.179   8.275   0.255 -0.2575  1.4384  0.6780
  988MOL0     H33341   9.366   8.391   0.254 -1.0569  0.2047 -0.3130
  988MOL0     H33342   9.735   8.354   0.212 -0.6619  0.8608  0.0472
  988MOL0     H33343   9.973   8.415   0.143  0.4718  0.3863  0.2078
  988MOL0     H33344  10.190   8.479   0.265 -0.5398  0.9908  0.6635
  988MOL0     H33345  10.179   8.510   0.091 -0.4311  0.8673 -0.1715
  988MOL0     H33346  10.330   8.700   0.117 -2.2359  0.2200  0.5292
  988MOL0     H33347  10.357   8.653   0.282 -3.7129 -2.0016  1.3063
  988MOL0     H33348  10.423   8.424   0.209 -0.9051 -2.4121 -1.6102
  988MOL0     H33349  10.396   8.452   0.048 -2.0192  0.7741  1.3373
  988MOL0     H33350  10.623   8.571   0.210  0.5456  0.0162 -0.2662
  988MOL0     H33351  10.565   8.678   0.101  1.1255 -0.4481 -0.5865
  988MOL0     H33352  10.608   8.551  -0.090 -1.8537  2.7739  3.0187
  988MOL0     H33353  10.647   8.408   0.016  1.1129 -0.6759 -2.5130
  988MOL0     H33354  10.808   8.662  -0.013 -0.8217  1.3702  0.4127
  988MOL0     H33355  10.835   8.561   0.120 -1.0327 -1.6788  0.3308
  988MOL0     H33356  10.897   8.364  -0.027 -0.4683 -0.0851 -0.3743
  988MOL0     H33357  10.992   8.506  -0.087 -0.1939  0.1975 -0.8706
  988MOL0     H33358  10.760   8.399  -0.222 -0.7297  0.3585 -1.5124
  988MOL0     H33359  10.812   8.561  -0.250 -3.9005 -1.5381  0.9845
  988MOL0     H33360   9.951   8.761   0.392  0.0280 -1.3426  2.5360
  988MOL0     H33361   9.724   8.702   0.462 -0.6840 -0.6754  0.4306
  988MOL0     H33362   9.336   8.477   0.669 -0.9701  0.3510 -0.9999
  988MOL0     H33363   9.139   8.320   0.688  1.1454 -0.6380  0.5102
  988MOL0     H33364   8.292   6.846   0.230 -0.8915  0.0927  0.0737
  988MOL0     H33365   8.081   6.732   0.238  0.5466 -0.4461  1.1361
  988MOL0     H33366   7.888   6.272  -0.012 -0.6349 -0.1373 -1.2493
  988MOL0     H33367   7.679   6.196  -0.027 -0.4599  1.3755 -1.2315
  988MOL0     H33368   7.440   6.121  -0.003 -0.0087  0.3005 -0.9098
  988MOL0     H33369   7.472   6.238  -0.131 -1.0554 -0.1916 -0.7224
  988MOL0     H33370   7.258   6.164  -0.163  2.3992 -0.7986  0.7632
  988MOL0     H33371   7.263   6.336  -0.131 -2.0885 -1.0062 -1.5001
  988MOL0     H33372   7.196   6.287   0.109 -1.5858 -0.8136  0.5962
  988MOL0     H33373   7.189   6.118   0.052 -3.5885 -0.4855  1.0537
  988MOL0     H33374   6.954   6.231   0.055 -0.0818 -2.7751 -0.7843
  988MOL0     H33375   7.035   6.368  -0.036  0.0361  0.1056  1.0843
  988MOL0     H33376   6.953   6.115  -0.353 -0.8416 -1.2170  1.0851
  988MOL0     H33377   7.532   6.545   0.182  0.8664  2.3331 -1.5149
  988MOL0     H33378   7.804   6.735   0.188 -2.2977  1.1370  0.9890
  988MOL0     H33379   7.682   6.685   0.302  0.5176 -0.7265  1.4407
  988MOL0     H33380   7.843   6.620   0.330 -1.0415 -4.3344 -0.8746
  989MOL0     O33381   2.856   0.196   1.509 -0.4574 -0.1119 -0.1606
  989MOL0     C33382   2.837   0.211   1.393 -0.7747 -0.2911 -0.3015
  989MOL0     O33383   2.937   0.203   1.294 -0.1000  0.2302  1.1870
  989MOL0     C33384   3.070   0.208   1.328 -0.7684 -0.1033  0.5227
  989MOL0     C33385   3.156   0.104   1.296  0.0786 -0.2431  0.4877
  989MOL0     C33386   3.298   0.113   1.331  0.6693  0.1889  0.4313
  989MOL0     C33387   3.346   0.222   1.399 -0.0062 -0.3323 -0.0671
  989MOL0     O33388   3.476   0.227   1.427  0.1756 -0.8070 -0.3604
  989MOL0     C33389   3.532   0.350   1.476 -0.2060  0.1156 -0.0018
  989MOL0     C33390   3.679   0.318   1.486  0.0585  0.0743  0.2578
  989MOL0     C33391   3.768   0.440   1.530 -0.5535  0.5648 -0.0103
  989MOL0     C33392   3.902   0.380   1.567  0.2301 -0.3599  0.4537
  989MOL0     C33393   4.011   0.490   1.604  0.2122  0.4039  0.5224
  989MOL0     C33394   4.154   0.429   1.597 -0.7429  0.1787 -0.1545
  989MOL0     C33395   4.261   0.529   1.645 -0.5128  0.2296 -0.3356
  989MOL0     C33396   4.352   0.448   1.748  0.5027 -0.9154 -0.2793
  989MOL0     N33397   4.454   0.544   1.793 -0.0043 -0.8815 -0.6031
  989MOL0     C33398   4.437   0.660   1.882  0.2487  0.8357  0.1663
  989MOL0     C33399   4.567   0.710   1.885  0.0395 -0.0209  0.0747
  989MOL0     C33400   4.613   0.816   1.982  0.4195  0.3073  0.0114
  989MOL0     C33401   4.622   0.950   1.924 -0.0135  0.1152  0.3153
  989MOL0     C33402   4.734   0.975   1.823  0.3115 -0.0951  0.1472
  989MOL0     C33403   4.869   0.934   1.871 -0.3063  0.3370  1.0324
  989MOL0     O33404   4.896   0.993   1.996 -0.3806 -0.6666  0.5915
  989MOL0     C33405   5.024   1.012   2.030  0.5459 -0.3271 -0.7116
  989MOL0     C33406   5.130   0.925   1.995  0.3314  0.6805 -0.4772
  989MOL0     C33407   5.259   0.944   2.039  0.0792  0.6153  0.0500
  989MOL0     C33408   5.288   1.063   2.110 -0.1783 -0.2692  0.7722
  989MOL0     C33409   5.415   1.099   2.170  0.6296 -0.1000 -0.6583
  989MOL0     O33410   5.425   1.230   2.214 -0.6041  0.4935  0.3856
  989MOL0     C33411   5.545   1.276   2.255  0.5948 -0.4006 -0.3790
  989MOL0     C33412   5.616   1.220   2.371  1.3048  0.1326 -0.3755
  989MOL0     C33413   5.739   1.279   2.405  0.2279 -0.5851  0.4037
  989MOL0     C33414   5.793   1.383   2.330 -0.3330 -0.5160  0.0450
  989MOL0     O33415   5.914   1.432   2.374 -0.2195  0.2857 -0.2933
  989MOL0     C33416   5.971   1.540   2.298 -0.2193  0.5611  0.0825
  989MOL0     C33417   6.110   1.557   2.365 -0.2509 -0.2522  0.1779
  989MOL0     C33418   6.192   1.655   2.277  0.2713 -0.1108  0.4451
  989MOL0     C33419   6.328   1.687   2.330  0.3882 -0.3150 -0.4115
  989MOL0     C33420   6.414   1.788   2.257 -0.4121  0.7787  0.2103
  989MOL0     C33421   6.538   1.804   2.336  0.0344  0.1479  0.7266
  989MOL0     C33422   6.612   1.920   2.280  0.2250  0.0122 -0.0287
  989MOL0     C33423   6.715   1.976   2.378  0.5425 -0.0596  0.0160
  989MOL0    Cl33424   6.844   1.859   2.430  0.0733  0.1888  0.2397
  989MOL0     C33425   5.714   1.437   2.222 -0.3708  1.0048  0.1939
  989MOL0     C33426   5.603   1.374   2.178 -0.7717  0.1975  0.1820
  989MOL0     O33427   5.502   1.010   2.184 -0.9212 -0.2450  0.3925
  989MOL0     C33428   5.181   1.152   2.128  0.4479 -0.6924  0.2311
  989MOL0     C33429   5.049   1.129   2.090  0.1970  0.0976 -0.0941
  989MOL0     N33430   4.646   0.638   1.799  0.3008 -0.2479 -0.7795
  989MOL0     N33431   4.582   0.540   1.752  0.1350 -0.2998  0.6265
  989MOL0     C33432   3.255   0.325   1.438  0.8337 -0.4178 -0.8198
  989MOL0     C33433   3.118   0.325   1.393 -0.8989  0.5067  0.1681
  989MOL0     C33434   2.701   0.207   1.365  0.5166 -0.2415  0.4485
  989MOL0     C33435   2.612   0.251   1.459 -0.8309  0.5305  0.4228
  989MOL0     C33436   2.482   0.237   1.444  0.4650  0.3565 -0.6139
  989MOL0     C33437   2.427   0.212   1.312  0.4952 -0.3127  1.1935
  989MOL0     O33438   2.288   0.208   1.285 -0.3217 -0.0836  0.0735
  989MOL0     C33439   2.217   0.099   1.347 -0.4722  0.4096 -0.3909
  989MOL0     C33440   2.068   0.096   1.335 -0.5973  0.0672  0.5217
  989MOL0     C33441   1.992   0.040   1.457  0.4780 -0.4516  0.0377
  989MOL0     C33442   1.837   0.042   1.443 -0.0007  0.1358  0.8804
  989MOL0     C33443   1.772   0.182   1.451 -0.0840 -0.2379 -0.2912
  989MOL0     C33444   1.730   0.293   1.450 -0.1203 -0.6427 -0.3388
  989MOL0     C33445   2.520   0.186   1.204 -0.5900  0.9774 -0.6625
  989MOL0     C33446   2.657   0.165   1.234 -0.7801 -0.9982 -0.3555
  989MOL0     C33447   2.739   0.105   1.116  0.1885  0.2587  0.4971
  989MOL0     H33448   3.132   0.016   1.237 -1.2300  0.7187 -0.4404
  989MOL0     H33449   3.369   0.043   1.290 -1.2139 -2.0047  0.6824
  989MOL0     H33450   3.529   0.428   1.400 -1.2436  1.4766  1.3781
  989MOL0     H33451   3.489   0.384   1.571  2.4752 -0.2589  1.4635
  989MOL0     H33452   3.721   0.285   1.390 -2.3571  1.3317 -1.3183
  989MOL0     H33453   3.685   0.229   1.550 -0.0181  0.2712  0.5399
  989MOL0     H33454   3.723   0.481   1.621 -1.9846 -1.4354  0.2568
  989MOL0     H33455   3.769   0.516   1.452  1.2863 -0.7406 -1.3253
  989MOL0     H33456   3.886   0.307   1.648  0.2807  0.9592  1.6994
  989MOL0     H33457   3.939   0.320   1.483  1.7503 -0.4854  1.1843
  989MOL0     H33458   4.016   0.574   1.534  1.8333 -0.5182 -0.5366
  989MOL0     H33459   3.983   0.537   1.699 -0.7252  1.4942 -0.2599
  989MOL0     H33460   4.157   0.341   1.663 -0.4594 -0.2967 -0.7960
  989MOL0     H33461   4.178   0.391   1.498 -0.7495  3.2042 -1.4246
  989MOL0     H33462   4.212   0.610   1.701  2.0140  0.1034  2.3136
  989MOL0     H33463   4.318   0.554   1.555  1.4903 -1.6887  0.3267
  989MOL0     H33464   4.302   0.411   1.838  1.8971 -0.3699  0.7586
  989MOL0     H33465   4.399   0.364   1.696  0.5735  0.1744 -2.0684
  989MOL0     H33466   4.348   0.691   1.937 -1.2087 -0.6418 -1.2267
  989MOL0     H33467   4.530   0.828   2.052  1.1054  1.6799  0.6171
  989MOL0     H33468   4.703   0.794   2.040 -0.8830 -2.4343  1.1816
  989MOL0     H33469   4.531   0.982   1.872 -0.5362 -3.0819 -0.9996
  989MOL0     H33470   4.634   1.025   2.003  0.7830 -0.0504  0.3583
  989MOL0     H33471   4.736   1.078   1.785 -1.9369 -0.3857 -0.9376
  989MOL0     H33472   4.701   0.919   1.735 -0.8612  0.0666  0.4573
  989MOL0     H33473   4.944   0.969   1.800  0.0116 -3.9775 -1.0944
  989MOL0     H33474   4.881   0.826   1.885  1.6323  0.4832  0.7524
  989MOL0     H33475   5.108   0.827   1.953  0.3206  1.3180 -2.0006
  989MOL0     H33476   5.334   0.867   2.024  0.6783  0.6231  2.5599
  989MOL0     H33477   5.578   1.138   2.431 -0.4930  2.7327  2.2931
  989MOL0     H33478   5.795   1.253   2.494 -1.8290 -1.2172  1.5549
  989MOL0     H33479   5.993   1.521   2.192 -0.4819 -1.1785  0.3025
  989MOL0     H33480   5.922   1.637   2.298 -0.3264  0.5063  0.7428
  989MOL0     H33481   6.097   1.609   2.460 -2.7611  3.8634 -2.0715
  989MOL0     H33482   6.164   1.463   2.377  0.7142  0.4088  1.0880
  989MOL0     H33483   6.206   1.609   2.179 -2.2776 -2.0616  0.8617
  989MOL0     H33484   6.133   1.744   2.253  2.4409  1.1188 -0.6412
  989MOL0     H33485   6.378   1.591   2.319  3.7095  1.5055 -3.1923
  989MOL0     H33486   6.333   1.712   2.436  1.0830  2.4430 -1.0043
  989MOL0     H33487   6.365   1.886   2.256 -2.1340  0.0576  2.9441
  989MOL0     H33488   6.436   1.737   2.163  2.4842 -1.5987  1.9952
  989MOL0     H33489   6.515   1.814   2.443 -1.2564 -3.7143  0.9621
  989MOL0     H33490   6.590   1.708   2.338 -0.9777 -0.4467 -0.2656
  989MOL0     H33491   6.540   1.996   2.249 -1.3824 -0.3087  2.6645
  989MOL0     H33492   6.656   1.882   2.187 -1.9935 -2.1383 -0.3020
  989MOL0     H33493   6.761   2.064   2.333  1.3690  0.6792  2.1885
  989MOL0     H33494   6.653   2.008   2.463 -0.3846 -1.6737 -0.0052
  989MOL0     H33495   5.745   1.525   2.168  1.9359  1.4869  2.1357
  989MOL0     H33496   5.556   1.411   2.087  0.2454  1.0437 -0.0221
  989MOL0     H33497   5.191   1.248   2.179  0.2930 -2.0153  2.9242
  989MOL0     H33498   4.975   1.205   2.113  0.1681 -0.2459  1.0239
  989MOL0     H33499   3.291   0.412   1.493  1.4639  0.0280 -1.9069
  989MOL0     H33500   3.060   0.414   1.415 -1.2513  0.1649  0.6681
  989MOL0     H33501   2.645   0.286   1.557 -0.9131  0.3564  0.5119
  989MOL0     H33502   2.412   0.262   1.522  0.1731  0.0997 -0.7912
  989MOL0     H33503   2.239   0.113   1.453  1.1006  2.6400 -0.9456
  989MOL0     H33504   2.263   0.007   1.311 -1.5949 -0.1659 -0.3915
  989MOL0     H33505   2.047   0.027   1.253  0.4106 -1.2423  1.3320
  989MOL0     H33506   2.029   0.192   1.299 -1.8322 -1.2627 -1.9359
  989MOL0     H33507   2.019   0.103   1.543 -0.6816 -1.4954  1.2155
  989MOL0     H33508   2.023  -0.063   1.479  1.5480 -0.0261  0.5956
  989MOL0     H33509   1.807  -0.008   1.351  0.4273  0.8304  0.3588
  989MOL0     H33510   1.781  -0.009   1.522  0.7021 -1.4220  0.4099
  989MOL0     H33511   1.714   0.399   1.451  0.5215 -0.4881  2.4410
  989MOL0     H33512   2.487   0.154   1.106 -0.3266 -1.2061 -0.1039
  989MOL0     H33513   2.822   0.172   1.089  1.6503 -1.5874  0.2078
  989MOL0     H33514   2.785   0.010   1.147  0.9269 -0.4522 -2.4808
  989MOL0     H33515   2.683   0.084   1.025 -1.6907 -1.6166  1.9925
  990MOL0     O33516   9.827   8.852   1.256  0.2480 -0.7131 -0.4288
  990MOL0     C33517   9.796   8.767   1.174  0.5783 -0.2533  1.2768
  990MOL0     O33518   9.852   8.640   1.172 -0.0623  0.0606  0.0315
  990MOL0     C33519   9.979   8.626   1.224 -0.5846  0.1069  0.0993
  990MOL0     C33520  10.094   8.682   1.158 -0.1698 -0.7606  0.4089
  990MOL0     C33521  10.219   8.676   1.219 -0.2751  0.4718 -0.2473
  990MOL0     C33522  10.236   8.593   1.333 -0.7560  0.2190  0.7780
  990MOL0     O33523  10.362   8.587   1.380  0.6310 -0.0973 -0.3444
  990MOL0     C33524  10.436   8.466   1.346 -0.7096  0.0075 -0.1608
  990MOL0     C33525  10.586   8.486   1.361 -0.0337 -0.6967  0.1043
  990MOL0     C33526  10.653   8.352   1.344  1.1605 -0.7176  0.5209
  990MOL0     C33527  10.680   8.298   1.484  0.9288 -0.8709  0.2275
  990MOL0     C33528  10.577   8.191   1.530  0.0836 -0.8068  0.4642
  990MOL0     C33529  10.616   8.128   1.661  0.0944  0.2305  0.7595
  990MOL0     C33530  10.570   8.220   1.776 -0.1167 -0.0260 -0.4335
  990MOL0     C33531  10.627   8.171   1.913  0.1202 -0.4965  0.0309
  990MOL0     N33532  10.775   8.175   1.931  0.1970  0.5340  0.1951
  990MOL0     C33533  10.857   8.274   1.886  0.8193  0.2713  0.2687
  990MOL0     C33534  10.974   8.229   1.901 -0.4668  0.0746  0.3753
  990MOL0     C33535  11.097   8.313   1.886  0.1393 -0.2747 -0.3394
  990MOL0     C33536  11.108   8.382   1.749  0.3409 -0.5424 -0.0011
  990MOL0     C33537  11.207   8.307   1.650 -0.3299  0.5451  0.8474
  990MOL0     C33538  11.153   8.177   1.587  0.4441  0.0021 -0.3374
  990MOL0     O33539  11.258   8.095   1.532  0.5909 -0.1099  0.0714
  990MOL0     C33540  11.358   8.050   1.615 -0.0194 -0.4691 -0.1365
  990MOL0     C33541  11.488   8.053   1.561 -0.0043 -0.3905  0.7705
  990MOL0     C33542  11.599   8.002   1.628 -0.5388 -0.5537 -0.1868
  990MOL0     C33543  11.579   7.942   1.761 -0.2755  0.0089 -0.0934
  990MOL0     C33544  11.704   7.899   1.841 -0.3709  0.4418  0.1861
  990MOL0     O33545  11.830   7.895   1.787 -0.4561 -0.1394  0.0950
  990MOL0     C33546  11.927   7.891   1.881 -1.2218 -0.5243 -0.1100
  990MOL0     C33547  12.007   8.006   1.888 -0.3655 -0.4702 -0.9141
  990MOL0     C33548  12.122   8.009   1.966 -0.7074 -0.1980  0.1914
  990MOL0     C33549  12.171   7.888   2.019  0.4434 -0.3195 -0.5396
  990MOL0     O33550  12.288   7.874   2.083  0.0254  0.7103 -0.4505
  990MOL0     C33551  12.313   7.976   2.174 -0.5791  0.3027 -0.5026
  990MOL0     C33552  12.429   8.066   2.125  0.1611 -0.2984 -0.1351
  990MOL0     C33553  12.556   7.984   2.090  0.3793  0.6523 -0.0768
  990MOL0     C33554  12.665   8.066   2.017  0.2400  0.3041 -0.7589
  990MOL0     C33555  12.769   7.971   1.959  0.4105  0.0333  0.2564
  990MOL0     C33556  12.891   8.060   1.906  0.0752 -0.5097 -0.2888
  990MOL0     C33557  12.971   7.978   1.804  0.4616 -0.2606 -0.3224
  990MOL0     C33558  13.077   8.071   1.738  0.2591 -0.1629  0.3129
  990MOL0    Cl33559  13.173   7.983   1.616  0.1557 -0.6175  0.1835
  990MOL0     C33560  12.092   7.773   2.006 -0.2401  0.9691 -0.4249
  990MOL0     C33561  11.964   7.776   1.953  0.5263  0.6313  1.0624
  990MOL0     O33562  11.680   7.881   1.956  0.2136  0.9152 -0.3515
  990MOL0     C33563  11.451   7.949   1.816 -0.3177  0.8684  0.1573
  990MOL0     C33564  11.342   7.992   1.740  0.3279  0.0347  0.1165
  990MOL0     N33565  10.975   8.098   1.943 -0.2505 -0.4211 -0.2203
  990MOL0     N33566  10.855   8.070   1.959 -0.0246 -0.0603  0.3243
  990MOL0     C33567  10.121   8.542   1.394 -0.0667 -0.2036  0.0658
  990MOL0     C33568   9.993   8.557   1.348  0.0943 -0.4740 -0.1508
  990MOL0     C33569   9.686   8.796   1.073 -0.8070 -0.5464  0.0765
  990MOL0     C33570   9.644   8.680   0.983 -0.1330 -0.3081 -0.7175
  990MOL0     C33571   9.556   8.706   0.883  0.5110 -0.6760 -0.0977
  990MOL0     C33572   9.504   8.833   0.864 -0.3127 -0.1998 -0.1472
  990MOL0     O33573   9.417   8.853   0.763 -0.2722 -0.1453 -0.3326
  990MOL0     C33574   9.279   8.869   0.802  1.0595  0.3017  0.4484
  990MOL0     C33575   9.212   8.736   0.847  0.0616  0.4510  0.1847
  990MOL0     C33576   9.058   8.730   0.864  0.6775 -0.2369  0.5034
  990MOL0     C33577   9.010   8.597   0.897  0.0368  0.0349  0.3574
  990MOL0     C33578   8.881   8.602   0.952  0.5610 -0.1374  0.3400
  990MOL0     C33579   8.770   8.578   0.998  0.4746  0.3131  0.2378
  990MOL0     C33580   9.545   8.943   0.936  0.4716  0.9349 -0.0986
  990MOL0     C33581   9.626   8.926   1.048 -0.3196  0.4715 -0.1818
  990MOL0     C33582   9.657   9.044   1.134 -0.3553 -0.4600  0.2478
  990MOL0     H33583  10.088   8.744   1.069 -1.0403 -0.6623  0.5262
  990MOL0     H33584  10.301   8.737   1.181 -1.8420  2.2790 -0.9131
  990MOL0     H33585  10.403   8.389   1.416 -0.6206 -0.3007 -0.4600
  990MOL0     H33586  10.412   8.422   1.249 -2.7274  0.1677  0.2175
  990MOL0     H33587  10.610   8.523   1.461  0.6027 -0.6924 -0.0476
  990MOL0     H33588  10.616   8.559   1.285 -1.3472  0.9937  1.1241
  990MOL0     H33589  10.746   8.372   1.291  0.0547  3.0955 -0.3170
  990MOL0     H33590  10.593   8.287   1.280 -2.9310  1.3052  1.9339
  990MOL0     H33591  10.773   8.240   1.493  0.6171 -1.1120  2.6490
  990MOL0     H33592  10.678   8.376   1.560 -1.2017 -0.0233 -0.6408
  990MOL0     H33593  10.470   8.216   1.532  0.0799 -0.2304 -2.3373
  990MOL0     H33594  10.592   8.109   1.459  2.8741 -0.4026  0.4687
  990MOL0     H33595  10.561   8.033   1.665 -0.8152  0.7919  3.3303
  990MOL0     H33596  10.722   8.104   1.670  0.0551  0.3770  1.6719
  990MOL0     H33597  10.461   8.211   1.774 -0.0787 -0.8676  0.3378
  990MOL0     H33598  10.585   8.327   1.755  0.5596 -0.2359 -1.0580
  990MOL0     H33599  10.573   8.239   1.980  0.6997  2.3731 -2.2449
  990MOL0     H33600  10.587   8.070   1.927  0.4304 -0.3450  2.4209
  990MOL0     H33601  10.838   8.373   1.845 -1.3442 -0.7610 -1.4170
  990MOL0     H33602  11.093   8.391   1.962  0.7621  0.1131 -0.6888
  990MOL0     H33603  11.183   8.249   1.908 -1.1998 -1.7842  0.7393
  990MOL0     H33604  11.011   8.389   1.700  0.0019 -0.9543  0.6014
  990MOL0     H33605  11.134   8.489   1.756  0.5918 -0.4161 -2.2596
  990MOL0     H33606  11.304   8.299   1.700  0.1449  1.4574  0.1247
  990MOL0     H33607  11.234   8.377   1.570 -0.3822 -0.4203 -0.0433
  990MOL0     H33608  11.073   8.201   1.516  1.0596 -0.7244 -1.2984
  990MOL0     H33609  11.109   8.118   1.668 -1.5296  0.9646 -0.6634
  990MOL0     H33610  11.505   8.082   1.458 -0.9447 -1.0671  0.4165
  990MOL0     H33611  11.698   8.014   1.586  0.6911 -2.8481  1.8167
  990MOL0     H33612  11.991   8.088   1.819 -0.9474 -1.0569 -1.4969
  990MOL0     H33613  12.182   8.098   1.978 -1.4142  0.0452  2.3527
  990MOL0     H33614  12.231   8.044   2.198 -1.6364  0.0815 -3.1634
  990MOL0     H33615  12.352   7.933   2.267  0.9644 -0.9330 -1.6666
  990MOL0     H33616  12.394   8.123   2.038 -0.1903 -1.2067 -0.5973
  990MOL0     H33617  12.465   8.140   2.198  1.0617 -0.0880 -0.7789
  990MOL0     H33618  12.600   7.950   2.185 -0.6580  0.9530  0.5331
  990MOL0     H33619  12.526   7.893   2.036  0.0459  0.2484  0.7629
  990MOL0     H33620  12.702   8.140   2.088 -1.0081  0.4633 -0.2506
  990MOL0     H33621  12.615   8.119   1.935 -3.0326  2.3961  2.3146
  990MOL0     H33622  12.729   7.909   1.878  0.6716 -0.0379  0.1800
  990MOL0     H33623  12.806   7.911   2.042  0.4811 -0.2565  0.0185
  990MOL0     H33624  12.849   8.154   1.869  1.9577  1.3565  2.0319
  990MOL0     H33625  12.949   8.088   1.993 -0.0150  0.6204 -0.5774
  990MOL0     H33626  12.900   7.946   1.727  0.6214 -0.4133 -0.4079
  990MOL0     H33627  13.015   7.890   1.852 -1.9530 -2.7206 -2.2690
  990MOL0     H33628  13.033   8.164   1.701  0.1674 -0.0750  0.6475
  990MOL0     H33629  13.150   8.104   1.812  0.3643 -0.3505  0.2945
  990MOL0     H33630  12.128   7.674   2.033  1.2626  1.1373 -1.6412
  990MOL0     H33631  11.908   7.683   1.948 -0.9317  1.3846  2.4829
  990MOL0     H33632  11.429   7.909   1.914  2.7945 -4.9067 -1.0164
  990MOL0     H33633  11.249   7.976   1.794  1.0363  2.0334  2.0754
  990MOL0     H33634  10.138   8.483   1.483  1.2816  0.9626  0.6337
  990MOL0     H33635   9.901   8.525   1.397 -0.8831  1.3023 -0.7323
  990MOL0     H33636   9.680   8.581   1.009 -0.4998 -0.4187 -0.6249
  990MOL0     H33637   9.522   8.627   0.817 -1.4041 -1.2693  1.4744
  990MOL0     H33638   9.222   8.911   0.718 -0.1532 -1.6963  0.2001
  990MOL0     H33639   9.273   8.943   0.882  2.4041  1.7179 -0.6918
  990MOL0     H33640   9.256   8.704   0.942 -1.8961 -0.1238  0.9502
  990MOL0     H33641   9.240   8.656   0.779  1.2881 -0.1539  1.3600
  990MOL0     H33642   9.022   8.761   0.765  0.9443  2.2627  1.1045
  990MOL0     H33643   9.028   8.805   0.938  4.1286  0.2253  1.6237
  990MOL0     H33644   9.003   8.538   0.805  3.7431  0.0226 -0.0446
  990MOL0     H33645   9.088   8.562   0.965  0.0842  3.5932  2.3685
  990MOL0     H33646   8.674   8.553   1.038  1.0367 -3.2604 -0.3094
  990MOL0     H33647   9.504   9.040   0.910 -2.2489 -0.3709 -1.1235
  990MOL0     H33648   9.761   9.077   1.119  0.5858 -2.7259  1.3073
  990MOL0     H33649   9.595   9.132   1.116 -0.3047 -0.6094 -0.7230
  990MOL0     H33650   9.663   9.022   1.240  1.3672  2.2664  0.8230
  991MOL0     O33651   5.081   3.800   7.659 -0.0636  0.9176 -0.3762
  991MOL0     C33652   5.057   3.817   7.778  0.8087  0.4057 -0.5821
  991MOL0     O33653   4.948   3.786   7.839  0.8449 -0.1548 -0.0430
  991MOL0     C33654   4.863   3.697   7.777 -0.0827 -0.6439  0.3690
  991MOL0     C33655   4.784   3.753   7.673  0.0824  0.3958  0.2666
  991MOL0     C33656   4.698   3.666   7.601 -0.5936 -0.2944 -0.6941
  991MOL0     C33657   4.683   3.532   7.640 -0.4276  0.2449  1.0905
  991MOL0     O33658   4.595   3.436   7.590  0.0816  0.1975  0.4177
  991MOL0     C33659   4.461   3.470   7.615 -0.8189  0.0294 -0.5027
  991MOL0     C33660   4.380   3.348   7.652  0.2302  0.0014  0.0585
  991MOL0     C33661   4.235   3.380   7.709 -0.0859  0.0039 -0.1880
  991MOL0     C33662   4.245   3.453   7.845 -0.3647 -0.8213  0.3997
  991MOL0     C33663   4.122   3.430   7.929  0.4909 -0.5234 -0.6256
  991MOL0     C33664   4.084   3.289   7.981 -0.0495 -0.1124  0.6170
  991MOL0     C33665   4.189   3.231   8.072 -0.4055  0.8693  0.6798
  991MOL0     C33666   4.214   3.304   8.202  0.2622 -0.9912  0.3516
  991MOL0     N33667   4.279   3.218   8.303  0.9882 -0.2156 -0.1858
  991MOL0     C33668   4.243   3.222   8.441  0.0309 -0.0410  0.4331
  991MOL0     C33669   4.333   3.137   8.493 -0.4918 -0.0938  0.2883
  991MOL0     C33670   4.345   3.109   8.640 -0.9884  0.3863  0.0712
  991MOL0     C33671   4.343   2.960   8.657  0.1520 -0.2060 -0.4502
  991MOL0     C33672   4.355   2.930   8.806  1.3552 -0.1317 -0.3050
  991MOL0     C33673   4.500   2.879   8.837  0.2542 -0.7867 -0.6759
  991MOL0     O33674   4.495   2.863   8.980  0.6151  0.0874  0.1042
  991MOL0     C33675   4.584   2.952   9.044 -0.0268 -0.4787 -0.0617
  991MOL0     C33676   4.553   3.093   9.068  0.6200  0.3504  0.4496
  991MOL0     C33677   4.635   3.170   9.151  0.7007 -0.1903  0.7061
  991MOL0     C33678   4.765   3.110   9.186 -0.8383  0.9562 -0.2280
  991MOL0     C33679   4.855   3.197   9.260 -0.1991 -0.4533  0.1782
  991MOL0     O33680   4.978   3.136   9.288 -0.0436 -0.1475  0.7304
  991MOL0     C33681   5.083   3.196   9.352 -0.1078 -0.2611  0.3162
  991MOL0     C33682   5.210   3.146   9.338 -0.2086  0.3929  0.5352
  991MOL0     C33683   5.319   3.187   9.413 -0.4139  0.1000  0.6616
  991MOL0     C33684   5.305   3.280   9.518  0.1125  0.6136  0.2564
  991MOL0     O33685   5.404   3.329   9.602 -0.7595 -0.2719  0.4740
  991MOL0     C33686   5.520   3.254   9.623 -0.3181 -0.0508  0.6882
  991MOL0     C33687   5.621   3.304   9.730 -1.0528  0.5210  1.4696
  991MOL0     C33688   5.744   3.220   9.722 -0.2837  0.4222 -0.1310
  991MOL0     C33689   5.847   3.264   9.822  0.2881  0.4768 -0.5601
  991MOL0     C33690   5.969   3.182   9.839 -0.0224 -0.1501  0.4252
  991MOL0     C33691   6.059   3.240   9.954  0.8565  0.0148  0.2079
  991MOL0     C33692   6.164   3.146   9.998  0.1564 -0.3771  0.6722
  991MOL0     C33693   6.253   3.106   9.878  0.4173 -0.3982 -0.3882
  991MOL0    Cl33694   6.360   3.239   9.820  0.1655 -0.0993  0.1487
  991MOL0     C33695   5.175   3.323   9.545  0.1236  0.6359 -0.6869
  991MOL0     C33696   5.065   3.284   9.459 -0.3433 -0.3927 -0.1993
  991MOL0     O33697   4.828   3.316   9.264  0.3207  0.2446  0.3506
  991MOL0     C33698   4.801   2.977   9.150  0.0072  0.7373  0.2364
  991MOL0     C33699   4.699   2.903   9.086 -0.2180  0.0899 -0.2603
  991MOL0     N33700   4.408   3.084   8.390  0.3495  1.5526  0.1337
  991MOL0     N33701   4.385   3.142   8.278  0.4217  0.4093  0.0157
  991MOL0     C33702   4.762   3.479   7.737  0.5959 -0.5681 -0.8875
  991MOL0     C33703   4.853   3.565   7.805 -0.9133  0.2525  0.5535
  991MOL0     C33704   5.155   3.885   7.873  1.0552 -0.6725  0.0578
  991MOL0     C33705   5.118   3.911   8.005  1.0375  0.3154 -0.1318
  991MOL0     C33706   5.193   3.978   8.097 -0.4238  1.2492 -0.0047
  991MOL0     C33707   5.318   4.026   8.064  0.4156  0.7019  0.3150
  991MOL0     O33708   5.391   4.089   8.157 -0.7522  0.4155  0.1724
  991MOL0     C33709   5.518   4.145   8.118  0.0234  0.3840  0.9625
  991MOL0     C33710   5.554   4.237   8.228  0.0293 -0.2881 -0.2274
  991MOL0     C33711   5.624   4.161   8.352 -0.1485 -0.1681 -0.0937
  991MOL0     C33712   5.553   4.044   8.438 -0.2337  0.1816  0.1710
  991MOL0     C33713   5.652   3.958   8.513  0.0789 -0.1998  0.3132
  991MOL0     C33714   5.743   3.883   8.554 -0.5422 -0.5562  0.6117
  991MOL0     C33715   5.359   3.999   7.934  0.3504  0.1689  1.1967
  991MOL0     C33716   5.287   3.926   7.839 -0.7665 -0.3576 -0.5218
  991MOL0     C33717   5.358   3.896   7.703 -0.1711 -0.2902 -0.9919
  991MOL0     H33718   4.784   3.859   7.648  0.1828  0.7684  1.7199
  991MOL0     H33719   4.630   3.686   7.519 -2.2904 -1.8348  0.2651
  991MOL0     H33720   4.450   3.549   7.690  0.9039  3.5201 -3.5704
  991MOL0     H33721   4.427   3.522   7.525  0.5533 -0.2682 -1.2306
  991MOL0     H33722   4.436   3.302   7.733  1.7467  1.9165  0.1514
  991MOL0     H33723   4.371   3.278   7.568  0.1091 -2.9295  2.3601
  991MOL0     H33724   4.176   3.288   7.710 -3.6724  2.0887 -1.1899
  991MOL0     H33725   4.165   3.442   7.653  0.9444  1.3393 -0.0557
  991MOL0     H33726   4.332   3.410   7.896  1.0412 -2.7138 -3.2156
  991MOL0     H33727   4.260   3.557   7.815 -2.9176 -1.0082 -1.8776
  991MOL0     H33728   4.121   3.494   8.018 -1.3367 -0.3732 -0.6990
  991MOL0     H33729   4.043   3.464   7.861  1.0746 -2.1865 -2.1961
  991MOL0     H33730   3.982   3.299   8.021  0.7019 -1.5839  3.0870
  991MOL0     H33731   4.079   3.220   7.897  0.6207 -0.8554  1.1737
  991MOL0     H33732   4.281   3.209   8.017 -2.9130 -0.2677 -3.5387
  991MOL0     H33733   4.156   3.131   8.103  0.7536 -0.4825 -2.1360
  991MOL0     H33734   4.266   3.397   8.178  0.8590 -0.9988  1.5624
  991MOL0     H33735   4.116   3.338   8.238  0.1863  1.6853 -2.0231
  991MOL0     H33736   4.171   3.282   8.496 -0.8138 -0.2747 -0.3988
  991MOL0     H33737   4.441   3.146   8.676 -1.0233 -0.6221  1.2597
  991MOL0     H33738   4.260   3.158   8.689  0.1383  0.0607  2.5252
  991MOL0     H33739   4.250   2.919   8.616  0.0675 -1.3259  0.8120
  991MOL0     H33740   4.429   2.917   8.604  1.6320  2.9233 -0.8331
  991MOL0     H33741   4.295   2.841   8.822  2.0515 -0.7068 -0.8345
  991MOL0     H33742   4.327   3.013   8.871  0.1948 -0.2512 -0.6435
  991MOL0     H33743   4.575   2.947   8.796  0.2335 -0.7592 -0.6700
  991MOL0     H33744   4.514   2.781   8.791  1.3628 -0.3851 -1.2086
  991MOL0     H33745   4.460   3.132   9.026  1.5587  1.4576 -0.6629
  991MOL0     H33746   4.597   3.267   9.181 -0.7306 -0.6879  0.5786
  991MOL0     H33747   5.221   3.069   9.263  1.7695  0.3962  0.7577
  991MOL0     H33748   5.417   3.143   9.402 -0.6449 -0.5197  1.0375
  991MOL0     H33749   5.482   3.155   9.651 -2.5911  0.9641  1.4961
  991MOL0     H33750   5.577   3.248   9.530 -2.8854 -1.1588 -0.9288
  991MOL0     H33751   5.643   3.410   9.711 -0.2383 -0.1537 -1.9574
  991MOL0     H33752   5.571   3.296   9.827  0.4043  0.6264  2.2537
  991MOL0     H33753   5.722   3.117   9.749 -0.6610  0.2435 -1.0807
  991MOL0     H33754   5.793   3.229   9.624  1.0275 -1.3105  0.3196
  991MOL0     H33755   5.803   3.270   9.922 -0.3781 -0.3880 -0.7825
  991MOL0     H33756   5.872   3.368   9.801  1.1632  0.1138 -1.3573
  991MOL0     H33757   6.037   3.195   9.754 -0.0103  0.8824  0.5813
  991MOL0     H33758   5.937   3.079   9.856 -0.3812 -0.6856 -2.9016
  991MOL0     H33759   6.116   3.322   9.909  0.2680  0.0066 -0.5865
  991MOL0     H33760   6.001   3.274  10.040  1.4285 -1.7321  1.3277
  991MOL0     H33761   6.117   3.062  10.049  0.4677 -1.6031 -0.9742
  991MOL0     H33762   6.228   3.192  10.074 -1.5713  0.5540  1.6286
  991MOL0     H33763   6.322   3.031   9.916 -1.5761 -2.3876 -0.5074
  991MOL0     H33764   6.202   3.052   9.798 -2.0197  0.6158  0.3799
  991MOL0     H33765   5.152   3.405   9.612 -0.9980  0.0609 -0.3590
  991MOL0     H33766   4.965   3.317   9.486 -0.5585 -0.5108 -0.8350
  991MOL0     H33767   4.898   2.939   9.179 -0.2612  0.0562  0.2568
  991MOL0     H33768   4.716   2.798   9.066  0.3662  0.5348 -2.3853
  991MOL0     H33769   4.758   3.371   7.744 -0.0637 -0.6682 -2.4518
  991MOL0     H33770   4.934   3.527   7.866 -0.0182 -3.1312 -2.3735
  991MOL0     H33771   5.018   3.882   8.038  0.0964  0.4856 -2.5889
  991MOL0     H33772   5.162   3.985   8.201  1.0211 -0.4722  0.6101
  991MOL0     H33773   5.492   4.212   8.035 -0.1278  0.8000  1.3415
  991MOL0     H33774   5.598   4.076   8.091 -0.4178  0.2288 -0.0215
  991MOL0     H33775   5.471   4.301   8.258 -0.1285 -0.4024 -0.4173
  991MOL0     H33776   5.628   4.308   8.190 -1.2997  0.3617 -1.7011
  991MOL0     H33777   5.644   4.243   8.421 -1.8852  0.3053 -0.1029
  991MOL0     H33778   5.716   4.117   8.312 -0.2857  0.6303 -1.3725
  991MOL0     H33779   5.493   4.086   8.519  0.1073 -1.4509  1.3251
  991MOL0     H33780   5.488   3.994   8.365 -1.9651 -0.7003  2.1999
  991MOL0     H33781   5.827   3.827   8.589  1.9240  2.4509 -0.0144
  991MOL0     H33782   5.456   4.035   7.900 -0.6310 -0.1631 -2.3662
  991MOL0     H33783   5.467   3.911   7.702  1.2920 -6.6156  3.3953
  991MOL0     H33784   5.355   3.791   7.672 -2.9916 -1.4730  2.5582
  991MOL0     H33785   5.303   3.951   7.626 -0.6899 -1.7583 -1.6996
  992MOL0     O33786  10.150   3.169   4.253 -0.4456  0.8599  0.4183
  992MOL0     C33787  10.166   3.268   4.311  0.3156  0.5392  0.7642
  992MOL0     O33788  10.063   3.344   4.360  0.4464  0.3830  0.4290
  992MOL0     C33789   9.932   3.297   4.370 -0.6202 -0.2485 -0.6596
  992MOL0     C33790   9.848   3.360   4.463 -1.1576 -0.2013 -0.2127
  992MOL0     C33791   9.711   3.322   4.485 -0.9902 -0.8487  0.6840
  992MOL0     C33792   9.655   3.226   4.403  0.2602 -1.1630 -0.4526
  992MOL0     O33793   9.517   3.207   4.418 -0.3771 -0.1230 -0.6338
  992MOL0     C33794   9.456   3.157   4.303 -0.5039  0.6266  1.1222
  992MOL0     C33795   9.309   3.147   4.304  0.5514 -0.2273  0.1511
  992MOL0     C33796   9.264   3.060   4.424  0.8204 -0.3167  0.8357
  992MOL0     C33797   9.118   3.043   4.446  0.8137 -0.5945 -0.3625
  992MOL0     C33798   9.095   2.955   4.569 -0.1756  0.3758 -0.0984
  992MOL0     C33799   8.944   2.956   4.608  0.0879 -0.6311  0.2209
  992MOL0     C33800   8.846   2.920   4.492 -0.2006 -0.2814  0.3035
  992MOL0     C33801   8.700   2.940   4.529  0.1292 -0.6746 -0.2164
  992MOL0     N33802   8.605   2.902   4.418  0.7228 -0.5522 -0.3573
  992MOL0     C33803   8.544   2.780   4.414  0.5519  0.6888  0.0483
  992MOL0     C33804   8.441   2.790   4.325  0.6022 -0.6581  0.5683
  992MOL0     C33805   8.335   2.693   4.260 -0.0688  0.1766  0.3331
  992MOL0     C33806   8.409   2.601   4.155  0.2250  0.2050 -0.2746
  992MOL0     C33807   8.443   2.668   4.024  0.4489  0.1507 -0.8937
  992MOL0     C33808   8.581   2.736   4.030  0.4325  0.9320  0.6337
  992MOL0     O33809   8.680   2.633   4.044 -0.0186 -0.3664 -0.4686
  992MOL0     C33810   8.806   2.675   4.044 -0.9294 -0.6526 -0.2401
  992MOL0     C33811   8.906   2.575   4.053  0.6789 -0.2201  0.8120
  992MOL0     C33812   9.035   2.616   4.081  0.1901 -0.2964  0.2076
  992MOL0     C33813   9.078   2.745   4.084 -0.3353  0.1649  0.1631
  992MOL0     C33814   9.221   2.774   4.077 -0.1394  0.6197  0.0496
  992MOL0     O33815   9.311   2.668   4.062  0.3650  0.4525  0.0664
  992MOL0     C33816   9.453   2.681   4.073 -0.1085 -0.0819 -0.5571
  992MOL0     C33817   9.518   2.567   4.117 -0.2652 -0.0026 -0.7745
  992MOL0     C33818   9.659   2.569   4.132 -0.2739 -0.1169  0.2451
  992MOL0     C33819   9.739   2.686   4.118 -0.3245 -0.6457  0.1403
  992MOL0     O33820   9.878   2.671   4.110 -0.1336 -0.0596 -0.2753
  992MOL0     C33821   9.949   2.786   4.159  0.1497 -0.6046  0.2486
  992MOL0     C33822  10.002   2.876   4.046 -0.7425 -0.4630 -0.1513
  992MOL0     C33823  10.137   2.837   3.976  0.6765 -0.0607  0.3622
  992MOL0     C33824  10.235   2.776   4.073  0.3464 -0.3597  0.0668
  992MOL0     C33825  10.380   2.768   4.007 -0.3727  1.2147 -0.3672
  992MOL0     C33826  10.463   2.696   4.107 -0.4795  0.1955 -0.2851
  992MOL0     C33827  10.610   2.692   4.054  0.1825  0.2183 -0.0064
  992MOL0     C33828  10.688   2.820   4.097 -0.0676 -0.9579 -0.1478
  992MOL0    Cl33829  10.865   2.802   4.067 -0.0555  0.2679 -0.0895
  992MOL0     C33830   9.668   2.805   4.087  0.1935  0.3102 -0.1815
  992MOL0     C33831   9.527   2.800   4.057  0.2269 -0.3838  0.7156
  992MOL0     O33832   9.249   2.888   4.087 -0.5866 -0.6512 -0.7029
  992MOL0     C33833   8.985   2.843   4.088  0.1913 -0.1828  0.1095
  992MOL0     C33834   8.850   2.806   4.067 -0.0902 -0.6172 -0.1129
  992MOL0     N33835   8.437   2.921   4.279  0.1079  0.2639 -0.6593
  992MOL0     N33836   8.539   2.985   4.337  0.3044  0.5478 -0.2340
  992MOL0     C33837   9.739   3.159   4.310  0.1420 -0.2497 -0.4440
  992MOL0     C33838   9.876   3.190   4.301  0.4283 -0.7957 -0.3286
  992MOL0     C33839  10.302   3.334   4.328  0.1372 -0.5201 -0.5751
  992MOL0     C33840  10.305   3.458   4.394 -1.0538 -0.4700  0.0054
  992MOL0     C33841  10.424   3.523   4.427 -0.0968  0.4611  0.0938
  992MOL0     C33842  10.545   3.459   4.404 -0.1924  0.3562 -0.0508
  992MOL0     O33843  10.663   3.516   4.441  0.0559  0.2428  0.1572
  992MOL0     C33844  10.680   3.508   4.580 -0.0459  0.1335 -0.1033
  992MOL0     C33845  10.692   3.365   4.642  0.9591 -0.0703  0.1838
  992MOL0     C33846  10.821   3.294   4.608 -0.4740 -1.1396 -0.5163
  992MOL0     C33847  10.821   3.151   4.674 -0.0736 -0.7960 -0.0490
  992MOL0     C33848  10.766   3.057   4.579  0.3447  0.9397  0.1016
  992MOL0     C33849  10.714   2.979   4.504  0.5649  0.4334 -0.4199
  992MOL0     C33850  10.538   3.332   4.343 -0.0950 -0.3182  0.0016
  992MOL0     C33851  10.424   3.268   4.304 -0.4305  0.4557 -0.8474
  992MOL0     C33852  10.440   3.119   4.264 -0.0349  0.7965 -0.2490
  992MOL0     H33853   9.894   3.439   4.521 -3.2805  0.1895  1.0156
  992MOL0     H33854   9.656   3.373   4.563  0.1302  3.3250 -0.9549
  992MOL0     H33855   9.468   3.228   4.220 -3.7706  1.3083  1.1062
  992MOL0     H33856   9.498   3.056   4.290  0.5118  1.3698 -2.5413
  992MOL0     H33857   9.268   3.099   4.215  0.7708  0.5366 -0.3788
  992MOL0     H33858   9.261   3.245   4.297 -0.1472 -0.6869 -2.7046
  992MOL0     H33859   9.309   3.103   4.514  2.6403 -2.5489  1.0932
  992MOL0     H33860   9.305   2.961   4.401  0.8308  0.4031 -2.8729
  992MOL0     H33861   9.085   3.143   4.474  0.5936 -1.0078  0.8898
  992MOL0     H33862   9.060   3.008   4.359  0.7539 -1.2073 -0.0788
  992MOL0     H33863   9.132   2.854   4.554 -1.4678 -0.7080  3.1178
  992MOL0     H33864   9.150   2.987   4.658  0.4618 -0.4407 -0.1934
  992MOL0     H33865   8.922   2.894   4.695  0.7317 -0.3093  0.6174
  992MOL0     H33866   8.920   3.059   4.633 -0.8306 -1.4769  3.1888
  992MOL0     H33867   8.868   2.828   4.436  0.4011  1.8764 -3.2892
  992MOL0     H33868   8.868   2.989   4.410 -0.2345 -2.8204 -2.0196
  992MOL0     H33869   8.676   2.874   4.614 -1.9817 -0.5528 -0.6478
  992MOL0     H33870   8.672   3.041   4.562  1.2606 -0.3000 -0.3854
  992MOL0     H33871   8.563   2.699   4.483 -2.6216  0.2572  0.5336
  992MOL0     H33872   8.286   2.634   4.337 -3.3409 -0.4278 -2.0158
  992MOL0     H33873   8.252   2.749   4.215  1.2164  1.0518 -1.0486
  992MOL0     H33874   8.490   2.542   4.198 -1.4900 -2.3060 -0.2209
  992MOL0     H33875   8.336   2.525   4.125  0.4196 -0.0903 -0.0073
  992MOL0     H33876   8.374   2.749   3.999  0.4802  0.9587  1.4631
  992MOL0     H33877   8.437   2.604   3.935  0.7918 -1.6726  0.3499
  992MOL0     H33878   8.575   2.818   4.102 -1.6183 -0.2707  1.9384
  992MOL0     H33879   8.597   2.785   3.934  1.3262 -1.1877 -0.3581
  992MOL0     H33880   8.870   2.472   4.049 -0.9803  0.3167  1.1305
  992MOL0     H33881   9.107   2.536   4.099  0.4056  0.4448  3.0731
  992MOL0     H33882   9.466   2.473   4.133 -0.0076 -0.4226 -2.2385
  992MOL0     H33883   9.704   2.471   4.144 -0.6752 -0.6238 -2.0486
  992MOL0     H33884   9.880   2.850   4.214 -1.0827 -1.0213 -0.7530
  992MOL0     H33885  10.031   2.755   4.224 -0.9262 -0.4400  1.7319
  992MOL0     H33886   9.924   2.903   3.974 -1.8526 -0.5834  0.9593
  992MOL0     H33887  10.033   2.968   4.097 -0.5045  0.1584 -1.3867
  992MOL0     H33888  10.121   2.766   3.894 -1.5097 -1.4721  1.8960
  992MOL0     H33889  10.179   2.921   3.919  0.8484 -0.6215 -0.3509
  992MOL0     H33890  10.205   2.672   4.094 -0.6187 -0.2153 -0.5491
  992MOL0     H33891  10.244   2.837   4.163  2.5523 -0.1557 -0.2176
  992MOL0     H33892  10.416   2.871   3.995 -0.6952  1.2648 -0.9254
  992MOL0     H33893  10.373   2.714   3.912 -1.7669  0.0880  0.3429
  992MOL0     H33894  10.460   2.758   4.197 -1.8958  1.4991 -1.1976
  992MOL0     H33895  10.424   2.594   4.118  2.8359 -1.4218 -1.7799
  992MOL0     H33896  10.616   2.679   3.946 -0.4261 -1.7015  0.1422
  992MOL0     H33897  10.648   2.596   4.094 -0.1273 -0.3783 -1.1153
  992MOL0     H33898  10.662   2.898   4.025  2.4968  0.4867  0.3503
  992MOL0     H33899  10.664   2.847   4.200  1.8497 -0.1392  0.1355
  992MOL0     H33900   9.729   2.894   4.078  2.7714 -1.5462 -3.9257
  992MOL0     H33901   9.475   2.887   4.018  1.8704 -0.3909 -1.7586
  992MOL0     H33902   9.011   2.948   4.086  0.6103 -0.2920 -1.6470
  992MOL0     H33903   8.775   2.884   4.072 -1.9827 -2.3416 -0.2116
  992MOL0     H33904   9.716   3.067   4.258 -0.3833 -1.0178  1.1066
  992MOL0     H33905   9.927   3.134   4.223  1.1809  0.0427 -0.4548
  992MOL0     H33906  10.212   3.508   4.416 -2.5007 -2.9326 -0.1171
  992MOL0     H33907  10.428   3.628   4.455  1.1621  0.6210 -0.6269
  992MOL0     H33908  10.605   3.566   4.635  1.7021  1.5017  0.9444
  992MOL0     H33909  10.781   3.546   4.596  0.3210 -0.6974 -0.3982
  992MOL0     H33910  10.605   3.306   4.615 -0.6380  1.2295  2.1982
  992MOL0     H33911  10.692   3.374   4.751  0.5995  0.0299  0.1756
  992MOL0     H33912  10.900   3.356   4.652 -1.0094 -1.6461  1.2802
  992MOL0     H33913  10.843   3.298   4.501  0.6377  0.2262 -0.2768
  992MOL0     H33914  10.921   3.119   4.708  1.0655  2.7230  0.3575
  992MOL0     H33915  10.764   3.156   4.767  2.9945 -0.3959  1.9886
  992MOL0     H33916  10.685   2.902   4.434  0.5096  0.9311 -0.9533
  992MOL0     H33917  10.632   3.284   4.320  0.4569  0.8394 -0.2532
  992MOL0     H33918  10.362   3.091   4.193  0.0066  1.9925 -0.7925
  992MOL0     H33919  10.544   3.104   4.235  0.5519  2.8349  0.6434
  992MOL0     H33920  10.429   3.068   4.361 -2.7443 -0.8834 -1.3319
  993MOL0     O33921   6.259   2.213  11.175  0.6772  0.2173  0.5509
  993MOL0     C33922   6.258   2.094  11.197 -0.7808 -0.1359 -0.9875
  993MOL0     O33923   6.355   2.035  11.278 -0.0422  1.0952 -0.1919
  993MOL0     C33924   6.473   2.103  11.299 -0.0369 -0.4485 -0.4733
  993MOL0     C33925   6.490   2.186  11.412  0.1102 -0.0208 -0.1513
  993MOL0     C33926   6.601   2.270  11.422  1.0069  0.0089 -0.0360
  993MOL0     C33927   6.709   2.263  11.329 -0.3593  0.4078  0.5586
  993MOL0     O33928   6.820   2.342  11.364  0.4241 -0.2359  0.2270
  993MOL0     C33929   6.948   2.298  11.313  0.3236 -1.4451  0.0384
  993MOL0     C33930   7.037   2.416  11.344  0.3313  0.3081 -0.5061
  993MOL0     C33931   7.176   2.359  11.330 -0.6940  0.1435 -0.2143
  993MOL0     C33932   7.273   2.456  11.239  1.2575  1.2124  0.0310
  993MOL0     C33933   7.417   2.424  11.260 -0.0192 -0.1173 -0.7091
  993MOL0     C33934   7.499   2.511  11.164  0.3112  0.2430  0.2352
  993MOL0     C33935   7.644   2.516  11.172  0.0934 -0.4420  0.1496
  993MOL0     C33936   7.696   2.527  11.314 -0.2857  0.3630  0.1551
  993MOL0     N33937   7.842   2.523  11.322 -0.1456  0.3288 -0.2274
  993MOL0     C33938   7.920   2.564  11.424 -0.1066  0.3744  0.0734
  993MOL0     C33939   8.047   2.549  11.379  0.7908 -0.2175 -0.0497
  993MOL0     C33940   8.166   2.607  11.446 -0.1210 -0.0431 -0.6142
  993MOL0     C33941   8.295   2.547  11.401 -0.1415  0.0852 -0.1908
  993MOL0     C33942   8.412   2.592  11.489 -0.1736  0.8188 -0.0178
  993MOL0     C33943   8.429   2.734  11.535 -0.4254 -1.2139 -0.0770
  993MOL0     O33944   8.552   2.745  11.615 -0.1325  0.0259 -0.1532
  993MOL0     C33945   8.679   2.758  11.560  0.1979 -0.0745 -0.1894
  993MOL0     C33946   8.716   2.751  11.428 -0.6014  0.6257 -0.3077
  993MOL0     C33947   8.852   2.742  11.394  0.4274 -0.2842  0.2137
  993MOL0     C33948   8.953   2.736  11.497  0.8542 -0.9720  0.7911
  993MOL0     C33949   9.100   2.742  11.465  0.5880  0.2187  0.1545
  993MOL0     O33950   9.190   2.747  11.566 -0.3457  0.1492 -0.1447
  993MOL0     C33951   9.328   2.763  11.563  0.2505 -0.1370 -0.3760
  993MOL0     C33952   9.400   2.761  11.685 -0.2897  0.0524  0.0707
  993MOL0     C33953   9.543   2.770  11.695  0.4532  0.1560  0.2280
  993MOL0     C33954   9.613   2.786  11.579 -0.8908 -0.1535  0.4623
  993MOL0     O33955   9.749   2.806  11.572  0.2341  0.0102  0.2890
  993MOL0     C33956   9.826   2.721  11.663 -0.1212  0.5996  0.0050
  993MOL0     C33957   9.970   2.731  11.614  0.0749  0.2931 -0.7387
  993MOL0     C33958   9.982   2.665  11.481  0.0641 -0.3094  0.0675
  993MOL0     C33959  10.129   2.633  11.433  0.2371  0.2312  1.0137
  993MOL0     C33960  10.135   2.584  11.286 -0.6683  0.5065 -0.2904
  993MOL0     C33961  10.089   2.692  11.192 -0.0721 -0.1019  0.4517
  993MOL0     C33962  10.111   2.643  11.048  0.0493  0.3741  0.3694
  993MOL0     C33963  10.060   2.730  10.941 -0.1434  0.0832  0.2041
  993MOL0    Cl33964  10.052   2.646  10.789  0.2080  0.2987 -0.0826
  993MOL0     C33965   9.549   2.807  11.459 -0.0189 -0.1152  0.8006
  993MOL0     C33966   9.408   2.784  11.453 -0.8291 -0.7730  0.8141
  993MOL0     O33967   9.126   2.755  11.344 -0.1754 -0.3889  0.3295
  993MOL0     C33968   8.905   2.757  11.627 -0.2240  0.5213 -0.3899
  993MOL0     C33969   8.770   2.767  11.666 -0.4968 -0.3685  0.2520
  993MOL0     N33970   8.047   2.494  11.252 -0.6827 -0.2302  0.0613
  993MOL0     N33971   7.923   2.479  11.222 -0.4302 -0.6948  1.0925
  993MOL0     C33972   6.693   2.175  11.225 -0.0318 -0.2591  0.2283
  993MOL0     C33973   6.574   2.104  11.202 -0.2568  0.9480 -0.1503
  993MOL0     C33974   6.143   2.009  11.166 -0.3309  0.5566 -0.3995
  993MOL0     C33975   6.176   1.873  11.168 -0.4811  0.3531 -0.1691
  993MOL0     C33976   6.081   1.780  11.133 -0.3366 -0.0687 -0.0938
  993MOL0     C33977   5.953   1.815  11.100 -0.1805  0.4113  0.3708
  993MOL0     O33978   5.872   1.706  11.076 -0.2339  0.0756 -0.3523
  993MOL0     C33979   5.771   1.709  10.977 -0.5053 -0.2791 -0.2774
  993MOL0     C33980   5.785   1.600  10.886  1.1133  0.0901 -0.8940
  993MOL0     C33981   5.904   1.603  10.788 -0.1804  0.7904  0.5469
  993MOL0     C33982   5.910   1.473  10.710 -0.1871 -0.2082  0.7813
  993MOL0     C33983   5.799   1.478  10.614 -0.1853  0.1506  0.2867
  993MOL0     C33984   5.709   1.487  10.531 -0.3051 -0.6863 -1.0459
  993MOL0     C33985   5.912   1.947  11.111 -0.7712  0.2395  0.6329
  993MOL0     C33986   6.012   2.047  11.134  0.0610  0.1365 -0.5603
  993MOL0     C33987   5.975   2.190  11.098  0.0988 -0.4121 -0.4184
  993MOL0     H33988   6.416   2.179  11.491 -0.4454  0.3817 -0.6270
  993MOL0     H33989   6.606   2.336  11.508 -0.8996  0.2788 -0.0959
  993MOL0     H33990   6.981   2.209  11.367  1.1846 -1.8260 -1.0913
  993MOL0     H33991   6.944   2.282  11.205  0.5137 -3.9790  0.3517
  993MOL0     H33992   7.027   2.455  11.446  0.1095 -1.6593  0.2792
  993MOL0     H33993   7.024   2.497  11.273  1.0363  0.1438 -0.8270
  993MOL0     H33994   7.179   2.257  11.291  0.8986  0.7082 -1.6660
  993MOL0     H33995   7.220   2.355  11.430 -2.9369 -0.5952  0.8046
  993MOL0     H33996   7.256   2.442  11.132  3.4391  0.1330 -0.2252
  993MOL0     H33997   7.263   2.560  11.271  1.0059  1.2323 -0.1029
  993MOL0     H33998   7.445   2.444  11.364  1.0145 -0.5711 -0.8861
  993MOL0     H33999   7.442   2.317  11.252 -1.0837 -0.5002  0.6614
  993MOL0     H34000   7.485   2.471  11.064 -0.9323 -0.4942  0.6850
  993MOL0     H34001   7.460   2.612  11.152 -0.5954 -0.3486 -2.3304
  993MOL0     H34002   7.676   2.612  11.130 -1.3441  1.5439  3.2517
  993MOL0     H34003   7.691   2.438  11.111  0.7327 -0.8798  1.1902
  993MOL0     H34004   7.667   2.623  11.358  3.4917  2.3472 -1.2255
  993MOL0     H34005   7.657   2.445  11.375 -3.0072  1.0946 -0.4676
  993MOL0     H34006   7.897   2.610  11.520 -1.1679  0.2732 -0.1177
  993MOL0     H34007   8.170   2.716  11.442 -0.1232  0.2347  3.2071
  993MOL0     H34008   8.148   2.576  11.550  0.8156  2.2369  0.2841
  993MOL0     H34009   8.287   2.438  11.408 -0.8473 -0.0012 -1.8204
  993MOL0     H34010   8.320   2.579  11.299  4.1969 -0.6967  0.4645
  993MOL0     H34011   8.494   2.556  11.426  0.0182 -1.4367  1.3921
  993MOL0     H34012   8.405   2.530  11.579  0.6751 -1.0465 -1.1620
  993MOL0     H34013   8.339   2.762  11.590  0.2615 -0.9582  0.9419
  993MOL0     H34014   8.437   2.800  11.448  0.1943 -1.2537 -0.0519
  993MOL0     H34015   8.638   2.752  11.352 -3.3253 -0.7166  2.2526
  993MOL0     H34016   8.863   2.737  11.286 -0.7488 -2.6307  0.1490
  993MOL0     H34017   9.343   2.751  11.777  0.8438  1.4990  0.9859
  993MOL0     H34018   9.591   2.789  11.790  0.7607  1.3285 -0.1363
  993MOL0     H34019   9.821   2.768  11.761 -1.7785 -0.0924  0.2818
  993MOL0     H34020   9.801   2.615  11.665  1.4211  0.2157  0.6191
  993MOL0     H34021  10.023   2.826  11.603  1.5315 -0.0480  2.1627
  993MOL0     H34022  10.032   2.680  11.689 -0.9659  0.6925  0.4414
  993MOL0     H34023   9.942   2.564  11.492  1.1472 -0.7250  0.3770
  993MOL0     H34024   9.922   2.718  11.407 -0.9292  1.0132  1.7433
  993MOL0     H34025  10.169   2.551  11.492 -1.1495 -2.4808 -1.5358
  993MOL0     H34026  10.197   2.719  11.442  0.0671  0.7723 -1.8862
  993MOL0     H34027  10.082   2.489  11.276  1.1124 -0.6012  0.3904
  993MOL0     H34028  10.240   2.558  11.272 -1.0918 -0.7105 -1.5132
  993MOL0     H34029   9.983   2.716  11.200  0.4284  2.2174  0.8746
  993MOL0     H34030  10.138   2.786  11.221  1.0666 -0.1813 -1.0948
  993MOL0     H34031  10.067   2.545  11.027 -1.6388  1.5873 -2.2697
  993MOL0     H34032  10.216   2.639  11.019  0.7211  0.0607  2.6566
  993MOL0     H34033   9.960   2.763  10.970  0.4106 -0.3850  2.9009
  993MOL0     H34034  10.123   2.819  10.932 -0.6465  0.2299 -2.9880
  993MOL0     H34035   9.599   2.824  11.364 -1.2568 -0.9475 -0.0334
  993MOL0     H34036   9.359   2.810  11.360 -2.0601  0.8828  1.8787
  993MOL0     H34037   8.960   2.752  11.720 -0.4914  2.6014 -0.0826
  993MOL0     H34038   8.732   2.771  11.768  0.5727  3.0528  0.6538
  993MOL0     H34039   6.773   2.153  11.156  0.1091  0.4264  0.1641
  993MOL0     H34040   6.557   2.041  11.115  0.2458 -0.6286  0.8605
  993MOL0     H34041   6.276   1.831  11.180 -1.5564 -2.6822 -0.8083
  993MOL0     H34042   6.119   1.679  11.117 -1.1417  0.0080 -2.9797
  993MOL0     H34043   5.776   1.801  10.918 -0.7402 -0.1104 -0.0370
  993MOL0     H34044   5.673   1.707  11.024 -0.1010  1.0975  0.7089
  993MOL0     H34045   5.695   1.611  10.826 -0.6158  3.2199  1.9435
  993MOL0     H34046   5.773   1.509  10.946 -0.1036  1.1871  0.6125
  993MOL0     H34047   5.991   1.622  10.851  0.1287  1.3261 -0.0292
  993MOL0     H34048   5.899   1.692  10.723  0.6282 -0.6094 -1.5362
  993MOL0     H34049   6.009   1.468  10.665  0.2838 -1.1005  1.8594
  993MOL0     H34050   5.916   1.385  10.775  1.2116  1.6115  3.2952
  993MOL0     H34051   5.629   1.498  10.460 -1.0688  2.8210  0.1271
  993MOL0     H34052   5.810   1.974  11.088 -0.1790  2.4227  0.3906
  993MOL0     H34053   6.022   2.263  11.165  1.2711 -0.6630 -0.9419
  993MOL0     H34054   5.991   2.203  10.991  0.1528 -0.3019 -0.3975
  993MOL0     H34055   5.868   2.203  11.118  0.2997  1.4476 -0.3443
  994MOL0     O34056   2.635  10.727   8.961  0.0316 -0.2864 -0.0969
  994MOL0     C34057   2.619  10.697   8.837  0.7195 -0.3942  0.0812
  994MOL0     O34058   2.507  10.716   8.764  0.3282  0.1190 -0.5042
  994MOL0     C34059   2.399  10.785   8.828 -0.2227 -0.1535 -0.4987
  994MOL0     C34060   2.335  10.873   8.741 -1.2998  0.4822  0.6302
  994MOL0     C34061   2.220  10.934   8.777 -0.2919  0.0470  1.3968
  994MOL0     C34062   2.155  10.898   8.898  0.1337 -0.2727 -0.7899
  994MOL0     O34063   2.023  10.943   8.912  0.5526 -0.8316 -0.1211
  994MOL0     C34064   1.962  10.926   9.041  0.4775  0.7498  0.2583
  994MOL0     C34065   1.843  11.022   9.064 -0.1384  0.1819 -0.7576
  994MOL0     C34066   1.714  10.968   9.000 -0.2658 -0.4105 -0.9939
  994MOL0     C34067   1.619  11.086   8.961  0.1682  0.1068  0.6805
  994MOL0     C34068   1.520  11.044   8.848  0.0040  0.2421  0.4576
  994MOL0     C34069   1.442  11.180   8.823  0.6862 -1.1719  0.7523
  994MOL0     C34070   1.339  11.150   8.708 -0.0938  0.3506 -0.3995
  994MOL0     C34071   1.408  11.122   8.569  0.4960 -0.6965 -0.3487
  994MOL0     N34072   1.524  11.204   8.536 -0.0190 -0.5207  1.5583
  994MOL0     C34073   1.649  11.160   8.517  0.1334 -0.5225 -0.0324
  994MOL0     C34074   1.728  11.270   8.478 -0.7220  0.4917  0.2702
  994MOL0     C34075   1.881  11.269   8.446  0.6734  0.5214  0.7439
  994MOL0     C34076   1.977  11.178   8.537  1.0627  0.2361 -0.2322
  994MOL0     C34077   1.946  11.204   8.689 -0.3669 -0.2257  0.2281
  994MOL0     C34078   1.949  11.349   8.726  0.5579  0.0974  0.4444
  994MOL0     O34079   2.042  11.439   8.657 -0.1551 -0.0653  0.5157
  994MOL0     C34080   2.177  11.410   8.673 -0.5788 -0.5324  0.4336
  994MOL0     C34081   2.230  11.320   8.771  0.1744 -0.1888 -0.3555
  994MOL0     C34082   2.365  11.294   8.776 -0.3762 -0.1802  0.3295
  994MOL0     C34083   2.454  11.365   8.693  0.2647  0.5293  0.9026
  994MOL0     C34084   2.595  11.337   8.693  0.0175  0.5922  0.2842
  994MOL0     O34085   2.673  11.432   8.646  0.0154 -0.8831  0.5226
  994MOL0     C34086   2.814  11.434   8.665  0.4401  0.6203  0.3863
  994MOL0     C34087   2.877  11.405   8.782 -0.5737  0.5824  0.3862
  994MOL0     C34088   3.015  11.406   8.791 -0.5477  0.0199 -0.8356
  994MOL0     C34089   3.102  11.424   8.678 -0.3079  1.0342 -1.0170
  994MOL0     O34090   3.238  11.423   8.686 -0.0628  1.1729 -0.3516
  994MOL0     C34091   3.317  11.374   8.579  0.2558  0.0428  0.1571
  994MOL0     C34092   3.442  11.352   8.641 -0.7229 -0.1035 -0.6058
  994MOL0     C34093   3.543  11.304   8.537  0.4847  0.2493 -0.4248
  994MOL0     C34094   3.677  11.268   8.599  0.3308  0.0040 -0.1682
  994MOL0     C34095   3.776  11.226   8.482 -0.8846  0.0263 -0.5223
  994MOL0     C34096   3.921  11.187   8.542  1.1777 -0.5770  0.4722
  994MOL0     C34097   4.020  11.181   8.428  0.1830 -0.6940  0.5627
  994MOL0     C34098   4.063  11.321   8.371 -0.1556  0.3590 -0.4413
  994MOL0    Cl34099   4.115  11.441   8.498  0.2667 -0.3199  0.4113
  994MOL0     C34100   3.038  11.453   8.554 -0.0883  0.6458 -0.0984
  994MOL0     C34101   2.894  11.461   8.548 -0.3642 -0.5517 -0.9515
  994MOL0     O34102   2.634  11.243   8.757  0.0945  0.4140 -0.3662
  994MOL0     C34103   2.402  11.462   8.603  0.4404 -0.4116 -0.0175
  994MOL0     C34104   2.259  11.481   8.596  0.7565  0.8116 -0.3095
  994MOL0     N34105   1.638  11.375   8.481  0.0501 -0.0219 -0.3762
  994MOL0     N34106   1.521  11.337   8.520 -0.0036  0.5326 -0.5107
  994MOL0     C34107   2.214  10.802   8.985  1.0887 -0.6918 -0.1472
  994MOL0     C34108   2.344  10.747   8.951  0.7320 -0.0753 -0.5860
  994MOL0     C34109   2.742  10.653   8.773 -1.1244  1.4738  0.3188
  994MOL0     C34110   2.849  10.601   8.846  0.3559  0.3770  0.0420
  994MOL0     C34111   2.974  10.569   8.790  0.1803  0.5099 -1.1631
  994MOL0     C34112   2.994  10.579   8.655  0.0907 -0.0665  0.2990
  994MOL0     O34113   3.111  10.549   8.592 -0.0517 -0.2582  0.2904
  994MOL0     C34114   3.215  10.484   8.663  0.6274 -0.1457 -0.0878
  994MOL0     C34115   3.337  10.466   8.580 -0.5050 -0.4605  0.9601
  994MOL0     C34116   3.459  10.411   8.657  0.0863  0.4923 -0.5413
  994MOL0     C34117   3.581  10.393   8.564 -0.0051 -0.1823 -0.0252
  994MOL0     C34118   3.699  10.363   8.646 -0.4691 -0.4453  0.0450
  994MOL0     C34119   3.800  10.351   8.711 -0.1529  0.0685  0.6424
  994MOL0     C34120   2.893  10.624   8.571 -0.0733 -0.2890 -0.1872
  994MOL0     C34121   2.771  10.668   8.630  0.4124 -0.3642  0.3216
  994MOL0     C34122   2.675  10.726   8.525  0.0986 -0.1949  0.0210
  994MOL0     H34123   2.379  10.882   8.642 -2.6336 -0.0495 -0.0317
  994MOL0     H34124   2.168  11.004   8.712  0.2888  2.2052  3.1253
  994MOL0     H34125   1.928  10.825   9.066 -0.7271  1.9264  4.1395
  994MOL0     H34126   2.040  10.954   9.112  0.0524  1.5855  0.4032
  994MOL0     H34127   1.873  11.113   9.012  0.5549  0.4822  0.1368
  994MOL0     H34128   1.838  11.044   9.171 -0.6677  0.2444 -0.7969
  994MOL0     H34129   1.678  10.895   9.072 -1.6765 -0.2795 -1.5387
  994MOL0     H34130   1.746  10.916   8.909  0.7408 -0.2688 -0.7281
  994MOL0     H34131   1.554  11.121   9.041  1.6698  2.7370  0.8538
  994MOL0     H34132   1.680  11.165   8.917  3.4558 -3.2892 -1.4613
  994MOL0     H34133   1.575  11.017   8.757 -0.6919  2.9257 -0.8390
  994MOL0     H34134   1.447  10.967   8.876 -0.5652  0.1884 -1.0817
  994MOL0     H34135   1.394  11.196   8.920  2.9393  1.1095  1.5825
  994MOL0     H34136   1.509  11.266   8.811  1.1869 -1.7506 -1.0218
  994MOL0     H34137   1.284  11.243   8.693  0.6811  0.5937 -1.8870
  994MOL0     H34138   1.265  11.073   8.733  0.1194  1.0478  2.8486
  994MOL0     H34139   1.441  11.017   8.577  1.6389 -0.2969  0.3804
  994MOL0     H34140   1.339  11.119   8.484 -0.5378 -1.7579  0.5032
  994MOL0     H34141   1.687  11.062   8.545  0.6337 -0.2117  0.3998
  994MOL0     H34142   1.903  11.246   8.341 -0.9861 -0.6616  0.6044
  994MOL0     H34143   1.918  11.371   8.454  0.8524  0.4618  0.6808
  994MOL0     H34144   1.963  11.073   8.511 -2.5000  0.3284  0.7294
  994MOL0     H34145   2.083  11.194   8.516  0.8485  0.1625 -1.4562
  994MOL0     H34146   2.021  11.146   8.744  1.2292  2.0521  0.5597
  994MOL0     H34147   1.846  11.165   8.710  0.1509 -1.0898  1.2289
  994MOL0     H34148   1.967  11.359   8.833 -0.3429  2.4409  0.4322
  994MOL0     H34149   1.847  11.380   8.701  0.5035 -2.9222 -4.4154
  994MOL0     H34150   2.172  11.269   8.847  0.8865  0.6005  0.7572
  994MOL0     H34151   2.407  11.212   8.833  1.6154  0.6576  0.1663
  994MOL0     H34152   2.819  11.384   8.871 -2.4810  2.8071 -0.2445
  994MOL0     H34153   3.050  11.393   8.893  0.2151 -2.5801 -1.3542
  994MOL0     H34154   3.269  11.287   8.534 -0.6064 -0.2438  1.5823
  994MOL0     H34155   3.327  11.448   8.499  1.7252  0.4826  0.7244
  994MOL0     H34156   3.471  11.448   8.685 -2.3087  0.5716 -0.9632
  994MOL0     H34157   3.432  11.277   8.720 -1.2161 -0.4544 -0.9871
  994MOL0     H34158   3.491  11.217   8.495 -2.1931  2.4892 -2.1364
  994MOL0     H34159   3.561  11.383   8.463  0.8728  0.7949  0.2455
  994MOL0     H34160   3.663  11.185   8.668 -2.4859  0.3567 -0.1671
  994MOL0     H34161   3.716  11.349   8.662 -2.8507  0.8344  0.9249
  994MOL0     H34162   3.788  11.308   8.410  0.9675 -0.5103 -0.8745
  994MOL0     H34163   3.729  11.148   8.421 -3.6712  1.8767 -0.9235
  994MOL0     H34164   3.945  11.256   8.623  1.5171  0.3728 -0.4311
  994MOL0     H34165   3.911  11.085   8.582 -0.1181 -0.7076 -0.1265
  994MOL0     H34166   3.976  11.126   8.344 -1.2496 -0.4614  1.1313
  994MOL0     H34167   4.113  11.137   8.464  1.1852 -0.9998 -2.1326
  994MOL0     H34168   4.153  11.313   8.310  0.9339 -0.9030  1.2290
  994MOL0     H34169   3.988  11.359   8.302 -0.7089 -1.0226 -0.6493
  994MOL0     H34170   3.087  11.481   8.462 -1.7019 -0.2494 -1.2888
  994MOL0     H34171   2.850  11.476   8.450 -0.0512 -1.3722 -1.2262
  994MOL0     H34172   2.463  11.516   8.531  2.6901  1.2337  2.9250
  994MOL0     H34173   2.221  11.547   8.519  0.8327  0.5936 -0.5358
  994MOL0     H34174   2.159  10.752   9.065 -0.7096  2.0020  0.4470
  994MOL0     H34175   2.386  10.669   9.014 -0.9715  0.7278  1.6503
  994MOL0     H34176   2.829  10.590   8.952 -0.5220  0.5643 -0.0910
  994MOL0     H34177   3.053  10.530   8.854 -0.2709 -1.5883 -1.7965
  994MOL0     H34178   3.171  10.388   8.690 -0.4283  0.5210  0.6804
  994MOL0     H34179   3.238  10.536   8.757  2.6176 -1.5938  0.2951
  994MOL0     H34180   3.371  10.564   8.543 -0.1805 -1.1398 -0.6155
  994MOL0     H34181   3.317  10.400   8.495 -0.9146  0.5747  0.2349
  994MOL0     H34182   3.446  10.315   8.709  3.2078  0.4913  0.4600
  994MOL0     H34183   3.489  10.486   8.731 -0.2556  1.2964 -1.2057
  994MOL0     H34184   3.578  10.308   8.496  1.9409  0.9330 -1.6336
  994MOL0     H34185   3.602  10.484   8.507  2.5139 -0.5292  0.2480
  994MOL0     H34186   3.895  10.360   8.760 -0.1770  0.5667  0.6007
  994MOL0     H34187   2.896  10.635   8.463 -2.2779  0.2339 -0.2511
  994MOL0     H34188   2.606  10.648   8.492  0.3894 -0.3010 -0.3332
  994MOL0     H34189   2.617  10.816   8.547 -1.8625 -0.5625 -3.0730
  994MOL0     H34190   2.738  10.747   8.438  1.3165  3.2960  1.5890
  995MOL0     O34191   0.814   6.929   9.785  0.4250 -0.0275 -0.2825
  995MOL0     C34192   0.809   7.053   9.813 -0.9659  0.0147  0.6319
  995MOL0     O34193   0.907   7.114   9.892 -0.1834  0.4374 -0.7734
  995MOL0     C34194   1.007   7.037   9.926 -0.4048 -0.2761 -0.5231
  995MOL0     C34195   1.095   6.971   9.835  0.1716 -0.0515 -0.2128
  995MOL0     C34196   1.203   6.891   9.889  0.4028 -0.8302  0.2610
  995MOL0     C34197   1.219   6.864  10.023 -0.2836 -0.7336 -0.7042
  995MOL0     O34198   1.328   6.785  10.057 -0.0494 -0.4586 -0.7596
  995MOL0     C34199   1.319   6.741  10.193 -0.5226  0.8004  0.3743
  995MOL0     C34200   1.418   6.629  10.213  0.2509 -0.9016 -0.4855
  995MOL0     C34201   1.556   6.657  10.158 -0.0768 -0.1514 -0.3310
  995MOL0     C34202   1.660   6.567  10.232  0.0781 -0.6125  0.2651
  995MOL0     C34203   1.796   6.616  10.176  0.3184  0.7120 -0.3689
  995MOL0     C34204   1.902   6.509  10.187 -0.3712 -0.0948 -0.3133
  995MOL0     C34205   2.039   6.567  10.129 -0.0666  0.0298 -0.4292
  995MOL0     C34206   2.150   6.472  10.156  0.3193  1.0989 -0.0296
  995MOL0     N34207   2.283   6.522  10.132 -1.0541 -0.5674  0.6212
  995MOL0     C34208   2.347   6.534  10.010 -0.6972  0.5852  0.5433
  995MOL0     C34209   2.475   6.557  10.037  0.3137  0.1554  0.3212
  995MOL0     C34210   2.595   6.564   9.945 -0.1185  0.7325  0.4828
  995MOL0     C34211   2.689   6.680   9.987 -0.4458 -0.4093  0.3424
  995MOL0     C34212   2.782   6.724   9.873 -0.1020 -0.0679 -0.3000
  995MOL0     C34213   2.900   6.629   9.856  0.5010  0.3099  0.4104
  995MOL0     O34214   2.979   6.632   9.969  0.2051  0.3344 -0.1091
  995MOL0     C34215   3.067   6.532   9.981  1.0340  0.5133  0.4306
  995MOL0     C34216   3.169   6.489   9.885 -0.1893 -0.0748  0.8047
  995MOL0     C34217   3.245   6.378   9.918 -0.1544 -0.5708  0.7717
  995MOL0     C34218   3.235   6.314  10.042  0.6035  1.0790  0.4828
  995MOL0     C34219   3.317   6.193  10.078  0.4897  0.4590  0.2662
  995MOL0     O34220   3.350   6.178  10.209 -0.1792  0.2759  0.1173
  995MOL0     C34221   3.446   6.094  10.249 -0.1464 -0.0330 -0.5764
  995MOL0     C34222   3.455   5.959  10.206 -0.0207  0.0680 -0.6969
  995MOL0     C34223   3.551   5.874  10.260 -0.5454 -0.5769 -0.0369
  995MOL0     C34224   3.643   5.929  10.348 -0.6171 -0.3443 -0.1819
  995MOL0     O34225   3.741   5.839  10.395  0.0940 -0.4466  0.3384
  995MOL0     C34226   3.835   5.874  10.496 -0.0851  0.3457  0.5306
  995MOL0     C34227   3.951   5.771  10.471  0.0133 -0.6202  0.0783
  995MOL0     C34228   4.052   5.782  10.576 -0.0602 -0.1944 -0.6257
  995MOL0     C34229   4.201   5.757  10.524 -0.4161 -0.0449 -0.1166
  995MOL0     C34230   4.314   5.787  10.621 -0.0637 -0.7419 -0.7024
  995MOL0     C34231   4.443   5.720  10.577  0.2063  0.5357 -0.5229
  995MOL0     C34232   4.569   5.766  10.648  0.5716 -1.0103  0.4198
  995MOL0     C34233   4.686   5.664  10.620 -0.0973 -0.3807  0.4787
  995MOL0    Cl34234   4.849   5.746  10.662  0.4246  0.1413  0.1900
  995MOL0     C34235   3.631   6.059  10.389 -0.5913 -0.3084 -0.0790
  995MOL0     C34236   3.534   6.141  10.342  0.2457 -0.4271  0.4159
  995MOL0     O34237   3.371   6.131   9.985 -0.4419  0.0022 -0.8281
  995MOL0     C34238   3.138   6.359  10.132 -0.0130 -0.0427  0.4180
  995MOL0     C34239   3.056   6.463  10.100  0.2814 -0.1494  0.6743
  995MOL0     N34240   2.480   6.591  10.171  0.4645 -0.4330  0.1454
  995MOL0     N34241   2.363   6.568  10.227 -0.3813 -0.1544 -0.2102
  995MOL0     C34242   1.140   6.939  10.113 -0.2985 -0.0246 -0.3395
  995MOL0     C34243   1.038   7.024  10.067  0.1548 -1.2313 -0.5743
  995MOL0     C34244   0.689   7.134   9.764  1.0839  0.0583 -0.1025
  995MOL0     C34245   0.686   7.272   9.791 -0.1900  0.4946 -0.2388
  995MOL0     C34246   0.595   7.361   9.725  1.1660  0.0271 -1.0453
  995MOL0     C34247   0.481   7.317   9.658  1.0795 -0.1592 -0.0100
  995MOL0     O34248   0.383   7.398   9.605  0.3273  0.2918 -0.4781
  995MOL0     C34249   0.256   7.337   9.570  0.0391 -0.2477 -0.6887
  995MOL0     C34250   0.153   7.450   9.571 -1.0052 -0.3067  0.0393
  995MOL0     C34251   0.176   7.566   9.477  0.0263 -0.4932 -0.5118
  995MOL0     C34252   0.075   7.677   9.518  0.4885 -0.0004 -0.2991
  995MOL0     C34253  -0.060   7.649   9.467  0.7873 -0.3784  1.0823
  995MOL0     C34254  -0.171   7.625   9.420 -0.4577 -0.3167  0.1709
  995MOL0     C34255   0.484   7.176   9.634 -0.5887  0.3230  0.3014
  995MOL0     C34256   0.577   7.080   9.683  0.2730  0.2196  0.0867
  995MOL0     C34257   0.564   6.932   9.648  0.4056 -0.0319 -0.5182
  995MOL0     H34258   1.071   6.984   9.730 -1.1860  4.4659  0.4470
  995MOL0     H34259   1.286   6.856   9.828  4.2737  1.4514  3.7425
  995MOL0     H34260   1.351   6.821  10.260  2.0805  0.7950 -0.7239
  995MOL0     H34261   1.218   6.712  10.222 -0.0555 -2.3577 -0.7379
  995MOL0     H34262   1.381   6.541  10.159 -1.7912  0.5012 -1.4820
  995MOL0     H34263   1.419   6.611  10.321 -3.5196 -0.6709 -0.2707
  995MOL0     H34264   1.582   6.761  10.184 -1.7179  0.1692  0.1649
  995MOL0     H34265   1.559   6.641  10.050  0.1214 -1.5363 -0.1299
  995MOL0     H34266   1.653   6.587  10.340  0.4987 -3.1154  0.8218
  995MOL0     H34267   1.635   6.463  10.209 -2.9059 -0.0455  0.5034
  995MOL0     H34268   1.793   6.664  10.077 -1.0907  4.4883  1.2901
  995MOL0     H34269   1.822   6.703  10.238  2.3481  0.8315 -1.3091
  995MOL0     H34270   1.906   6.487  10.294 -0.1964  0.2537 -0.2463
  995MOL0     H34271   1.868   6.423  10.128 -0.0624 -0.8811  0.6291
  995MOL0     H34272   2.059   6.666  10.171 -0.6307 -0.0038 -0.0813
  995MOL0     H34273   2.023   6.580  10.021  0.5836  0.0994 -0.5210
  995MOL0     H34274   2.155   6.430  10.257 -1.1705 -2.6538 -1.3662
  995MOL0     H34275   2.134   6.389  10.087  0.2454  0.1495  1.0986
  995MOL0     H34276   2.300   6.516   9.913  0.4026  2.0904 -0.3075
  995MOL0     H34277   2.650   6.470   9.956 -0.2494  0.7083  0.9602
  995MOL0     H34278   2.558   6.574   9.842  1.4110  0.5703 -0.1133
  995MOL0     H34279   2.625   6.765  10.010 -1.1032 -1.0782  1.0049
  995MOL0     H34280   2.747   6.669  10.080  1.3367 -2.7309 -0.9241
  995MOL0     H34281   2.826   6.819   9.905 -0.5685  0.4289 -1.1002
  995MOL0     H34282   2.719   6.747   9.787 -2.0802  0.9268  1.3075
  995MOL0     H34283   2.963   6.659   9.771  2.6579 -2.3902  0.9019
  995MOL0     H34284   2.865   6.527   9.837  0.7537  0.4553 -0.9350
  995MOL0     H34285   3.194   6.537   9.791 -2.0929  1.7010  1.1550
  995MOL0     H34286   3.323   6.346   9.849  0.2987  1.5587  0.1972
  995MOL0     H34287   3.372   5.924  10.146  0.7409 -0.2270 -1.5975
  995MOL0     H34288   3.553   5.766  10.249  3.3987 -0.8163  1.5081
  995MOL0     H34289   3.871   5.976  10.478  1.0990 -0.2835 -0.9028
  995MOL0     H34290   3.790   5.861  10.595  3.6357 -0.9362  2.2233
  995MOL0     H34291   3.911   5.670  10.455  0.9551 -0.6471 -2.5843
  995MOL0     H34292   4.007   5.800  10.382  1.6854  0.7644  1.4934
  995MOL0     H34293   4.036   5.883  10.615  2.5779  0.4649 -1.0932
  995MOL0     H34294   4.042   5.709  10.657  1.6740 -0.6976 -0.8242
  995MOL0     H34295   4.204   5.826  10.439 -0.7406  0.4002  0.2278
  995MOL0     H34296   4.208   5.656  10.482  0.5956  0.4679 -1.2318
  995MOL0     H34297   4.275   5.745  10.715  0.7780  1.3589  0.6770
  995MOL0     H34298   4.323   5.894  10.645 -1.2361 -0.3603 -1.8419
  995MOL0     H34299   4.425   5.614  10.597 -1.3177  1.2045  2.0677
  995MOL0     H34300   4.458   5.738  10.470  1.5364 -2.7291 -1.0267
  995MOL0     H34301   4.556   5.779  10.756 -2.3744 -0.2600  0.0450
  995MOL0     H34302   4.596   5.865  10.610  2.3207 -0.3706  3.0251
  995MOL0     H34303   4.676   5.575  10.682 -0.7004 -1.7779 -1.5268
  995MOL0     H34304   4.679   5.627  10.517 -0.4907  0.0790  0.3381
  995MOL0     H34305   3.699   6.099  10.464 -0.6997 -1.4040  0.6313
  995MOL0     H34306   3.515   6.243  10.372 -2.7755  0.3025 -3.1836
  995MOL0     H34307   3.135   6.318  10.232 -0.1113 -1.0755 -0.0016
  995MOL0     H34308   2.981   6.504  10.167  0.0438  3.4337 -1.5287
  995MOL0     H34309   1.144   6.923  10.220 -2.9114 -0.5453 -0.2524
  995MOL0     H34310   0.968   7.073  10.134  0.5341  1.8168 -2.1955
  995MOL0     H34311   0.779   7.312   9.829  3.7470 -1.9161 -5.8846
  995MOL0     H34312   0.618   7.465   9.747  1.8006 -0.2813 -0.2040
  995MOL0     H34313   0.227   7.263   9.645  0.1607 -0.6445 -1.0346
  995MOL0     H34314   0.265   7.294   9.470  1.7372  0.8498 -1.0409
  995MOL0     H34315   0.154   7.484   9.675 -0.0208 -0.8927  0.2275
  995MOL0     H34316   0.055   7.405   9.549 -1.5765  1.0068 -0.2302
  995MOL0     H34317   0.167   7.531   9.374 -3.3626  2.8489 -1.5718
  995MOL0     H34318   0.274   7.610   9.499 -0.6480 -0.2355  2.4159
  995MOL0     H34319   0.068   7.697   9.625 -0.8765  1.6601 -0.6437
  995MOL0     H34320   0.108   7.768   9.466 -2.4526  1.8029  0.7157
  995MOL0     H34321  -0.268   7.605   9.378 -1.8833 -0.3572  3.2170
  995MOL0     H34322   0.407   7.126   9.576 -3.1006  2.3069  1.7594
  995MOL0     H34323   0.524   6.873   9.730 -3.3963 -1.8030 -3.3587
  995MOL0     H34324   0.482   6.918   9.577  0.2664  1.8753 -0.7991
  995MOL0     H34325   0.646   6.893   9.587 -0.4391 -2.0344 -0.4335
  996MOL0     O34326  11.143   9.695   9.826 -0.3044 -0.3667  0.6607
  996MOL0     C34327  11.129   9.577   9.841  0.5252  0.1166 -0.6737
  996MOL0     O34328  11.223   9.493   9.890  0.2638  1.0516  0.0995
  996MOL0     C34329  11.349   9.548   9.907 -0.1508 -0.7443  0.4807
  996MOL0     C34330  11.403   9.542  10.034 -0.5217 -1.1579  0.0237
  996MOL0     C34331  11.535   9.586  10.062 -0.3392 -0.2610  0.5684
  996MOL0     C34332  11.609   9.631   9.951  0.1237 -0.6546 -0.5914
  996MOL0     O34333  11.735   9.685   9.972  0.0302 -0.6722 -0.9201
  996MOL0     C34334  11.765   9.816   9.926 -0.6395  0.8776 -0.1717
  996MOL0     C34335  11.903   9.819   9.866 -0.3725  0.4690  0.0395
  996MOL0     C34336  12.007   9.793   9.978 -0.3675 -0.7130 -0.1855
  996MOL0     C34337  12.150   9.791   9.926 -0.0147  0.2371  0.2060
  996MOL0     C34338  12.253   9.804  10.039  0.0276 -0.1518 -0.1391
  996MOL0     C34339  12.397   9.771   9.992  0.4806  0.4017 -0.0254
  996MOL0     C34340  12.504   9.799  10.094 -0.5511  0.1430  0.0716
  996MOL0     C34341  12.639   9.825  10.020  0.6854  0.0983 -0.4001
  996MOL0     N34342  12.708   9.705   9.974  0.2772 -0.3242 -0.1467
  996MOL0     C34343  12.664   9.576   9.995 -0.9000  0.0603 -0.2238
  996MOL0     C34344  12.739   9.500   9.915 -0.1688 -0.7455 -1.2415
  996MOL0     C34345  12.750   9.350   9.913  0.5602  0.1056 -0.7978
  996MOL0     C34346  12.648   9.286   9.809 -0.3782 -0.5249  0.4092
  996MOL0     C34347  12.620   9.138   9.852 -0.6345 -0.3082 -0.3654
  996MOL0     C34348  12.724   9.028   9.807  0.7642  0.2321 -0.2016
  996MOL0     O34349  12.750   8.931   9.906 -0.9060 -0.8397  0.3993
  996MOL0     C34350  12.862   8.936   9.989  0.5632 -0.5254  0.2738
  996MOL0     C34351  12.868   8.832  10.072  0.2325  0.0071  0.5376
  996MOL0     C34352  12.981   8.804  10.148 -0.2488 -0.6451  0.3104
  996MOL0     C34353  13.075   8.904  10.151  0.1910 -1.1111 -0.8100
  996MOL0     C34354  13.194   8.884  10.246 -0.1940 -0.5220 -0.2945
  996MOL0     O34355  13.291   8.975  10.232  0.1548  0.6219 -0.1627
  996MOL0     C34356  13.407   8.952  10.301 -0.6428 -0.2774  0.6228
  996MOL0     C34357  13.459   9.045  10.395  0.4383  0.1960  0.4442
  996MOL0     C34358  13.571   9.018  10.475 -0.4793  0.2247 -0.9095
  996MOL0     C34359  13.644   8.902  10.451  0.0370  0.2482 -1.1185
  996MOL0     O34360  13.756   8.875  10.525 -0.2548  0.0822 -0.5783
  996MOL0     C34361  13.800   8.974  10.619  0.4186 -0.5333  0.1672
  996MOL0     C34362  13.929   8.926  10.688 -0.5084  1.1120  0.4606
  996MOL0     C34363  14.043   8.930  10.584  0.6283 -0.1735 -0.7035
  996MOL0     C34364  14.178   8.880  10.638 -1.0554 -0.1711 -0.0117
  996MOL0     C34365  14.286   8.915  10.531  0.4603 -0.5270  0.5683
  996MOL0     C34366  14.426   8.883  10.582  0.5186 -0.3943 -0.3150
  996MOL0     C34367  14.540   8.913  10.482 -0.3980 -0.5343  0.3491
  996MOL0     C34368  14.677   8.934  10.535  0.0786  0.6625 -0.4467
  996MOL0    Cl34369  14.678   9.099  10.619 -0.1956 -0.0714  0.1756
  996MOL0     C34370  13.602   8.808  10.359  0.8187  0.5099 -0.0479
  996MOL0     C34371  13.493   8.841  10.275  1.1578  0.2977  0.2082
  996MOL0     O34372  13.182   8.802  10.341 -0.2417  0.5795 -0.5050
  996MOL0     C34373  13.063   9.020  10.080 -0.6099  0.0369 -0.5949
  996MOL0     C34374  12.957   9.036   9.990 -0.5617 -0.0725 -0.8754
  996MOL0     N34375  12.831   9.581   9.848 -0.5271 -0.2495  1.5924
  996MOL0     N34376  12.802   9.703   9.879 -1.3472  0.6081  0.0216
  996MOL0     C34377  11.560   9.624   9.825 -0.4529 -0.7469  0.0855
  996MOL0     C34378  11.432   9.578   9.800  0.3131 -0.5123  0.1448
  996MOL0     C34379  10.990   9.522   9.817 -0.2661  0.5368 -0.1274
  996MOL0     C34380  10.892   9.603   9.749 -0.5746 -0.4671  0.1207
  996MOL0     C34381  10.770   9.546   9.713 -0.3270 -0.1575  0.8723
  996MOL0     C34382  10.729   9.428   9.757  0.3484  0.1817  0.7127
  996MOL0     O34383  10.609   9.383   9.696  0.2506  0.1173  0.0641
  996MOL0     C34384  10.537   9.267   9.752 -0.0939 -0.9210  0.0741
  996MOL0     C34385  10.401   9.264   9.687 -0.5964  0.3735  0.2117
  996MOL0     C34386  10.422   9.189   9.553  0.3114  0.8814  0.5095
  996MOL0     C34387  10.289   9.151   9.500 -0.1379  0.2928 -0.5660
  996MOL0     C34388  10.303   9.017   9.432  0.0647 -0.1102 -0.2104
  996MOL0     C34389  10.311   8.916   9.367 -0.9884  1.0547 -1.1209
  996MOL0     C34390  10.813   9.355   9.841 -0.8192  0.2013 -0.1655
  996MOL0     C34391  10.949   9.392   9.862 -0.2559 -0.2569  1.1430
  996MOL0     C34392  11.030   9.296   9.947 -0.2007 -0.1865  0.2733
  996MOL0     H34393  11.323   9.510  10.100 -2.2912  3.6917  0.6568
  996MOL0     H34394  11.581   9.582  10.159  2.4923  0.9268 -0.6217
  996MOL0     H34395  11.696   9.854   9.850 -1.3979  0.5600  0.3435
  996MOL0     H34396  11.760   9.883  10.012 -2.6076 -0.9747  1.2925
  996MOL0     H34397  11.925   9.917   9.821 -0.0415 -0.5138 -2.0682
  996MOL0     H34398  11.917   9.751   9.781  4.1285  2.3273 -1.0484
  996MOL0     H34399  11.969   9.704  10.028 -2.5167 -0.5112 -1.3445
  996MOL0     H34400  11.998   9.873  10.052 -1.8451 -0.7665 -0.2818
  996MOL0     H34401  12.157   9.692   9.879 -1.1692  1.1815 -2.1424
  996MOL0     H34402  12.166   9.869   9.852  1.1310  0.6922  0.9144
  996MOL0     H34403  12.241   9.906  10.077 -1.2121  0.9247 -3.0806
  996MOL0     H34404  12.227   9.728  10.113 -0.5080 -2.6390 -2.7080
  996MOL0     H34405  12.405   9.666   9.961 -2.6797  0.0526  0.0403
  996MOL0     H34406  12.422   9.840   9.910  1.0402 -0.0711 -0.2593
  996MOL0     H34407  12.522   9.729  10.176 -0.5593 -2.3142 -1.8839
  996MOL0     H34408  12.479   9.881  10.161  1.3495 -2.6349  4.6813
  996MOL0     H34409  12.628   9.886   9.929  0.2665  0.5247 -0.0733
  996MOL0     H34410  12.710   9.873  10.088  1.3490  0.2087 -1.1546
  996MOL0     H34411  12.597   9.542  10.073  1.5105 -0.4322  1.7587
  996MOL0     H34412  12.852   9.313   9.903  0.4017 -0.3873 -0.6263
  996MOL0     H34413  12.726   9.309  10.012 -1.4017 -0.2550 -1.3699
  996MOL0     H34414  12.552   9.338   9.817  0.7037  1.7898 -0.7240
  996MOL0     H34415  12.689   9.298   9.709  3.3540 -1.0750  1.7426
  996MOL0     H34416  12.523   9.110   9.809  0.1931 -1.3161 -1.6473
  996MOL0     H34417  12.601   9.132   9.959 -0.4089  1.9655 -0.1476
  996MOL0     H34418  12.813   9.081   9.772 -0.3625  2.1423 -0.3272
  996MOL0     H34419  12.686   8.970   9.723 -1.4820  0.1173  0.8105
  996MOL0     H34420  12.789   8.759  10.060  0.6033 -0.1493 -1.1580
  996MOL0     H34421  12.994   8.709  10.199  5.5857  0.4981  1.5718
  996MOL0     H34422  13.402   9.132  10.426 -2.2586 -1.0093 -0.8321
  996MOL0     H34423  13.598   9.100  10.541 -2.5824 -0.2396  0.6204
  996MOL0     H34424  13.801   9.069  10.564 -3.6750  0.5755  1.6471
  996MOL0     H34425  13.723   8.996  10.695  0.1893  1.6073 -0.6036
  996MOL0     H34426  13.954   8.995  10.769  3.6331  0.7485 -0.3235
  996MOL0     H34427  13.907   8.829  10.733  0.3793  1.4329  1.6357
  996MOL0     H34428  14.013   8.865  10.501  0.1750 -1.0636  0.1408
  996MOL0     H34429  14.057   9.035  10.556  0.2012  0.5814  1.7237
  996MOL0     H34430  14.174   8.773  10.660  1.1126 -0.1853  0.6227
  996MOL0     H34431  14.209   8.929  10.731 -2.2549 -0.0770  0.3448
  996MOL0     H34432  14.275   9.021  10.506 -2.2161 -0.6072  1.0578
  996MOL0     H34433  14.265   8.867  10.435 -2.8297 -0.8715  1.3175
  996MOL0     H34434  14.444   8.933  10.678  0.1477  1.4188 -1.1535
  996MOL0     H34435  14.423   8.778  10.613 -1.5299 -0.2283  0.2199
  996MOL0     H34436  14.511   9.004  10.428 -0.6231  0.3795  1.9678
  996MOL0     H34437  14.540   8.829  10.411 -1.5537 -0.3759  0.1319
  996MOL0     H34438  14.705   8.861  10.611  0.5621 -0.7707 -1.9337
  996MOL0     H34439  14.755   8.936  10.459  1.0453 -1.8994  0.3800
  996MOL0     H34440  13.649   8.712  10.346 -0.5667 -0.1555 -0.4212
  996MOL0     H34441  13.457   8.771  10.200 -0.6129 -1.5489  2.5976
  996MOL0     H34442  13.130   9.106  10.082  0.2897 -0.6621  0.2982
  996MOL0     H34443  12.955   9.128   9.932  2.4624  1.8259  1.6658
  996MOL0     H34444  11.621   9.650   9.739 -0.5911 -0.9676 -0.0806
  996MOL0     H34445  11.405   9.571   9.696  2.0824 -0.1101 -0.3803
  996MOL0     H34446  10.921   9.702   9.714 -1.0393 -0.0703  0.8249
  996MOL0     H34447  10.709   9.602   9.642  2.7750 -0.6268 -2.4365
  996MOL0     H34448  10.511   9.281   9.857 -2.2346  0.4828 -0.5717
  996MOL0     H34449  10.595   9.176   9.733 -0.1048 -0.5993 -1.6497
  996MOL0     H34450  10.368   9.367   9.668 -0.0310  0.4629 -0.3143
  996MOL0     H34451  10.334   9.206   9.750 -1.8366  0.0634 -1.3403
  996MOL0     H34452  10.484   9.100   9.570  0.7228  1.4105  1.9410
  996MOL0     H34453  10.477   9.243   9.476 -0.1101 -1.2916 -1.4472
  996MOL0     H34454  10.215   9.154   9.581 -0.4100  1.8171 -0.8337
  996MOL0     H34455  10.257   9.233   9.435 -0.3668 -0.5846 -1.5875
  996MOL0     H34456  10.327   8.835   9.299 -1.7234 -0.4516  0.4179
  996MOL0     H34457  10.785   9.253   9.866  5.0272 -1.3416  1.5284
  996MOL0     H34458  11.038   9.346  10.044  0.0839  1.2497 -0.4508
  996MOL0     H34459  10.972   9.206   9.966 -0.6128 -0.4124 -1.7924
  996MOL0     H34460  11.129   9.267   9.910 -0.7986 -1.8271 -0.1050
  997MOL0     O34461  10.802   4.817   8.689 -0.3668  0.2473 -0.1525
  997MOL0     C34462  10.731   4.761   8.606 -0.4406 -0.4200  0.1540
  997MOL0     O34463  10.749   4.630   8.572  0.2791 -0.1496  0.0125
  997MOL0     C34464  10.843   4.566   8.637 -0.4549 -0.3643 -0.3112
  997MOL0     C34465  10.955   4.516   8.572 -0.5286 -0.5622 -0.0381
  997MOL0     C34466  11.056   4.449   8.642 -0.5013 -0.4589  0.4651
  997MOL0     C34467  11.047   4.422   8.774 -0.1471  0.9868 -0.0997
  997MOL0     O34468  11.137   4.357   8.853  0.7379  0.1331 -0.4165
  997MOL0     C34469  11.272   4.355   8.803 -0.0467  0.1534  0.0354
  997MOL0     C34470  11.354   4.326   8.922 -0.7906 -0.7243  0.1043
  997MOL0     C34471  11.494   4.265   8.875  0.7015 -0.0459 -0.5830
  997MOL0     C34472  11.594   4.257   8.994  0.2206  0.8032 -0.6512
  997MOL0     C34473  11.734   4.197   8.955  0.2853 -0.2960  0.2146
  997MOL0     C34474  11.718   4.048   8.923  0.5274 -0.0267 -0.3449
  997MOL0     C34475  11.842   3.968   8.897 -0.8664  0.7546  0.3956
  997MOL0     C34476  11.944   4.007   8.997 -1.1040  0.3858 -0.9863
  997MOL0     N34477  12.064   3.930   8.992  0.2090 -0.5192 -0.1751
  997MOL0     C34478  12.100   3.814   9.056 -0.0806  0.1489 -1.0802
  997MOL0     C34479  12.212   3.771   8.996 -0.0136  0.0327  0.3553
  997MOL0     C34480  12.297   3.644   9.009 -0.5235  0.4075 -0.4948
  997MOL0     C34481  12.314   3.608   9.152  0.3558 -0.1132  0.1450
  997MOL0     C34482  12.422   3.505   9.192  0.4815  0.8616  0.6151
  997MOL0     C34483  12.400   3.363   9.139  0.6964 -0.2622  0.1541
  997MOL0     O34484  12.409   3.347   9.004 -0.2471  0.2200 -0.1157
  997MOL0     C34485  12.537   3.349   8.950  0.4202  0.1188  0.0928
  997MOL0     C34486  12.656   3.362   9.012  0.3747  0.0453  0.3384
  997MOL0     C34487  12.773   3.358   8.941  0.6754 -0.5579 -0.2168
  997MOL0     C34488  12.772   3.338   8.804  0.5601 -0.7915 -0.9132
  997MOL0     C34489  12.901   3.343   8.737  0.4756  0.1328 -0.5034
  997MOL0     O34490  13.016   3.379   8.811  0.0015  0.3492 -0.4437
  997MOL0     C34491  13.144   3.364   8.768 -0.1441 -0.2070 -0.2699
  997MOL0     C34492  13.195   3.282   8.673 -0.5201  0.7726  0.6606
  997MOL0     C34493  13.327   3.285   8.639 -0.5226  0.1622 -0.1229
  997MOL0     C34494  13.410   3.375   8.692  0.2193 -0.2408 -0.1317
  997MOL0     O34495  13.538   3.400   8.647 -0.6870 -0.2867  0.3011
  997MOL0     C34496  13.544   3.400   8.504  0.0124  0.8293  0.1451
  997MOL0     C34497  13.678   3.464   8.454 -0.3630 -0.4097 -0.3177
  997MOL0     C34498  13.705   3.435   8.308  0.8695 -0.3412  0.4410
  997MOL0     C34499  13.854   3.445   8.272 -1.2367  0.1913 -0.2268
  997MOL0     C34500  13.861   3.424   8.124 -0.6062 -0.5550  0.8648
  997MOL0     C34501  14.006   3.451   8.083  0.7284  0.4825  0.4038
  997MOL0     C34502  14.073   3.314   8.086  0.1299 -0.5892  1.0169
  997MOL0     C34503  14.222   3.320   8.053 -1.4509  0.3631  0.2339
  997MOL0    Cl34504  14.313   3.472   8.089  0.0910  0.0546 -0.1998
  997MOL0     C34505  13.365   3.462   8.790 -0.5249 -0.0733 -0.9414
  997MOL0     C34506  13.230   3.457   8.826 -0.6107  0.4068  0.2553
  997MOL0     O34507  12.899   3.311   8.624 -0.5622  1.0471 -0.4808
  997MOL0     C34508  12.650   3.333   8.739  0.0704  0.1251  0.4040
  997MOL0     C34509  12.533   3.341   8.814 -0.0544 -0.0049 -1.4598
  997MOL0     N34510  12.243   3.857   8.892 -0.0444 -0.3160  0.4764
  997MOL0     N34511  12.161   3.948   8.895  0.1109 -0.2778 -0.4787
  997MOL0     C34512  10.929   4.461   8.838 -0.9216 -0.2329 -0.4654
  997MOL0     C34513  10.832   4.540   8.775 -0.3995  0.1066 -0.1306
  997MOL0     C34514  10.617   4.838   8.547  0.3785 -0.1048 -0.8292
  997MOL0     C34515  10.512   4.762   8.486  0.0677 -0.8447 -0.1865
  997MOL0     C34516  10.397   4.818   8.426  0.0391 -0.9540  0.3424
  997MOL0     C34517  10.379   4.961   8.428 -0.1513  0.6330  0.8373
  997MOL0     O34518  10.272   5.023   8.362  0.2014  0.3113 -0.3380
  997MOL0     C34519  10.174   4.949   8.293 -0.2825  0.5659  0.0573
  997MOL0     C34520  10.063   5.050   8.268 -1.3134  0.1437 -0.0968
  997MOL0     C34521  10.000   5.116   8.386  0.2355 -0.8287  0.5698
  997MOL0     C34522   9.894   5.214   8.337  0.6398  0.0126  0.1238
  997MOL0     C34523   9.788   5.262   8.437  0.0972 -0.8814  0.7195
  997MOL0     C34524   9.710   5.284   8.532  0.8437 -0.3060  0.3748
  997MOL0     C34525  10.480   5.037   8.489 -0.1570  0.3246  0.1546
  997MOL0     C34526  10.600   4.978   8.537 -0.2208 -0.7699  0.0503
  997MOL0     C34527  10.703   5.068   8.602  0.1555 -0.5108 -0.1642
  997MOL0     H34528  10.977   4.534   8.467  1.3177 -0.9203  0.2454
  997MOL0     H34529  11.144   4.428   8.581  1.0041  0.5648  2.1860
  997MOL0     H34530  11.274   4.274   8.730 -1.0511  0.0376  0.1204
  997MOL0     H34531  11.306   4.447   8.755 -4.3184  2.9710  1.7844
  997MOL0     H34532  11.300   4.256   8.987 -1.0683  0.2306  0.9283
  997MOL0     H34533  11.369   4.419   8.978  0.3923 -0.2279 -1.0050
  997MOL0     H34534  11.536   4.322   8.791  0.5711  1.3077  0.2308
  997MOL0     H34535  11.470   4.168   8.831 -0.0078 -0.3152  0.3609
  997MOL0     H34536  11.616   4.362   9.015 -1.4306  0.8226  1.1875
  997MOL0     H34537  11.549   4.213   9.083 -2.0453 -1.9742 -2.9917
  997MOL0     H34538  11.777   4.253   8.872 -0.3504  0.9548  0.7114
  997MOL0     H34539  11.799   4.207   9.042  0.1647  0.6480  0.2026
  997MOL0     H34540  11.659   4.010   9.007 -2.1828  3.1397 -0.5965
  997MOL0     H34541  11.650   4.039   8.837 -1.6455  3.4682  0.7926
  997MOL0     H34542  11.878   3.982   8.795 -2.6933 -0.8594 -0.5345
  997MOL0     H34543  11.826   3.860   8.897  2.0707  0.2105 -1.2001
  997MOL0     H34544  11.967   4.113   8.988 -0.7578  0.2459 -1.7744
  997MOL0     H34545  11.904   3.986   9.097  0.7875 -0.5917 -0.3922
  997MOL0     H34546  12.040   3.769   9.136  2.9447 -0.4869  0.9990
  997MOL0     H34547  12.248   3.566   8.950  0.2501  0.5630 -1.3645
  997MOL0     H34548  12.394   3.656   8.959  0.2514  0.0456  0.8760
  997MOL0     H34549  12.340   3.704   9.199  0.2344 -0.6572  1.3308
  997MOL0     H34550  12.221   3.572   9.195  1.0440  0.9702  2.7488
  997MOL0     H34551  12.415   3.491   9.301  0.0020  2.6999  0.8505
  997MOL0     H34552  12.517   3.551   9.164 -0.3899  1.1599 -2.1658
  997MOL0     H34553  12.296   3.347   9.170 -0.2768  1.6730 -1.8229
  997MOL0     H34554  12.460   3.295   9.200 -0.9078 -0.4877  1.5707
  997MOL0     H34555  12.660   3.367   9.120  1.2820 -0.0872  0.3159
  997MOL0     H34556  12.865   3.374   8.996 -0.5325  0.1630  1.6995
  997MOL0     H34557  13.129   3.210   8.625 -1.5074  2.2204 -0.2699
  997MOL0     H34558  13.356   3.225   8.553  0.8036 -0.4142  0.6935
  997MOL0     H34559  13.538   3.301   8.457 -0.1316  1.8493 -2.1045
  997MOL0     H34560  13.464   3.465   8.470 -1.5476 -1.1642 -0.1910
  997MOL0     H34561  13.676   3.571   8.474  0.9194 -0.8886  2.8631
  997MOL0     H34562  13.766   3.425   8.504  0.8093  0.6092 -1.5012
  997MOL0     H34563  13.676   3.331   8.289 -0.5889 -0.0096  0.6716
  997MOL0     H34564  13.648   3.500   8.241 -2.0783 -1.6554  1.4966
  997MOL0     H34565  13.908   3.368   8.326 -1.4131  1.3913  1.7463
  997MOL0     H34566  13.901   3.540   8.300  2.4759 -1.3396 -0.7548
  997MOL0     H34567  13.803   3.504   8.076  1.6367  2.4468  2.7530
  997MOL0     H34568  13.827   3.325   8.093  0.7644 -0.6896 -0.3378
  997MOL0     H34569  14.019   3.500   7.986 -0.3979  0.1593  0.0832
  997MOL0     H34570  14.049   3.520   8.156 -0.7772  0.8719  0.9548
  997MOL0     H34571  14.021   3.238   8.027 -0.0413 -0.3930  0.9114
  997MOL0     H34572  14.051   3.270   8.184 -2.6039 -1.8878 -0.0643
  997MOL0     H34573  14.285   3.245   8.102  0.0155  1.8351  0.6629
  997MOL0     H34574  14.233   3.307   7.945  1.9899  0.0585  0.5158
  997MOL0     H34575  13.431   3.541   8.827  0.8831 -2.2181  1.4817
  997MOL0     H34576  13.177   3.521   8.896 -2.4014 -2.3189  1.5434
  997MOL0     H34577  12.636   3.312   8.633 -3.8201  0.1993  0.7571
  997MOL0     H34578  12.434   3.350   8.771 -0.5315  0.0389 -0.3717
  997MOL0     H34579  10.921   4.444   8.945  0.1060  1.7758 -0.0180
  997MOL0     H34580  10.742   4.564   8.829 -0.1639  2.6407 -0.7298
  997MOL0     H34581  10.528   4.654   8.487  0.5762 -0.8419 -2.5221
  997MOL0     H34582  10.330   4.751   8.372  0.5869 -0.7936 -0.5580
  997MOL0     H34583  10.137   4.863   8.349 -1.4017 -0.6535 -2.3920
  997MOL0     H34584  10.218   4.915   8.198 -1.5947  0.3370 -0.4865
  997MOL0     H34585   9.988   5.010   8.199 -0.8195 -0.3393 -0.3602
  997MOL0     H34586  10.101   5.131   8.206 -0.9400 -0.0544 -0.1315
  997MOL0     H34587  10.078   5.169   8.442 -1.1330  0.0790  1.6929
  997MOL0     H34588   9.956   5.042   8.454  0.8612 -0.0136  1.9141
  997MOL0     H34589   9.941   5.305   8.300  0.8283 -0.9587 -2.2141
  997MOL0     H34590   9.840   5.171   8.252  0.7485 -1.6320  0.8395
  997MOL0     H34591   9.646   5.317   8.611  1.0877 -1.1550  0.9411
  997MOL0     H34592  10.475   5.145   8.497  1.0144  0.5072 -1.1896
  997MOL0     H34593  10.677   5.087   8.707  0.3753  0.0136 -0.2016
  997MOL0     H34594  10.803   5.026   8.594 -0.1302 -1.0941 -0.6860
  997MOL0     H34595  10.694   5.166   8.553  1.4419 -0.4058 -0.2185
  998MOL0     O34596   6.281   8.145   7.609 -0.0166 -0.1177  0.1690
  998MOL0     C34597   6.220   8.220   7.536  0.0062  0.1090  0.3435
  998MOL0     O34598   6.280   8.303   7.445 -0.5155  0.9932  0.5202
  998MOL0     C34599   6.407   8.264   7.401  1.2610 -0.0779  0.2110
  998MOL0     C34600   6.445   8.135   7.373 -0.0846  0.7784  0.3755
  998MOL0     C34601   6.580   8.123   7.320 -0.4259  0.1319 -0.4629
  998MOL0     C34602   6.670   8.231   7.314 -0.0051  0.4493  1.0047
  998MOL0     O34603   6.796   8.209   7.269  0.4200  0.0659  0.3067
  998MOL0     C34604   6.859   8.312   7.199  0.1648  0.5093 -0.5273
  998MOL0     C34605   6.975   8.260   7.110 -0.2611  0.5659 -0.2237
  998MOL0     C34606   7.079   8.372   7.067 -1.4620  0.4857  0.2817
  998MOL0     C34607   7.194   8.397   7.165  0.8774 -0.0442 -0.4694
  998MOL0     C34608   7.283   8.513   7.120 -0.4740  0.1367  0.6693
  998MOL0     C34609   7.390   8.551   7.224 -0.1483  0.1414  0.1765
  998MOL0     C34610   7.341   8.612   7.358  0.6592  0.5924 -0.4044
  998MOL0     C34611   7.244   8.735   7.337 -0.2720  0.0443 -0.1528
  998MOL0     N34612   7.283   8.846   7.249 -0.2874  0.5042  0.2478
  998MOL0     C34613   7.409   8.877   7.222  0.0336  0.1715  0.3110
  998MOL0     C34614   7.412   8.997   7.166  0.0724  0.6049  0.0158
  998MOL0     C34615   7.528   9.088   7.146 -0.8977  0.5626  0.7080
  998MOL0     C34616   7.588   9.109   7.285  0.1448 -0.1140 -0.5802
  998MOL0     C34617   7.679   9.237   7.286  0.6917  0.2359 -0.6033
  998MOL0     C34618   7.765   9.254   7.406  0.3888 -0.5362 -0.5182
  998MOL0     O34619   7.855   9.150   7.422  0.8617  0.2853  0.4234
  998MOL0     C34620   7.941   9.148   7.534  0.2345  0.9473  0.0953
  998MOL0     C34621   7.953   9.248   7.621  0.5358 -0.3050 -0.4224
  998MOL0     C34622   8.046   9.268   7.720  0.1096  0.1924 -0.3054
  998MOL0     C34623   8.147   9.169   7.731  0.3949  0.1693  0.1210
  998MOL0     C34624   8.261   9.178   7.823 -0.0414 -0.3217 -0.3275
  998MOL0     O34625   8.254   9.289   7.904 -0.1499 -0.4041 -0.2015
  998MOL0     C34626   8.353   9.284   8.003  0.5354  0.2275  0.0775
  998MOL0     C34627   8.489   9.300   7.982 -0.1842  0.4877  0.9950
  998MOL0     C34628   8.584   9.294   8.084 -0.2547  0.0897 -0.8929
  998MOL0     C34629   8.543   9.252   8.214  0.5632  0.5131 -0.6049
  998MOL0     O34630   8.633   9.247   8.313 -0.4232 -0.0306 -1.1262
  998MOL0     C34631   8.734   9.148   8.300  0.1758  0.0519  0.0685
  998MOL0     C34632   8.738   9.054   8.420 -0.8890  0.0027 -0.5444
  998MOL0     C34633   8.596   8.999   8.447  0.0433 -0.4046  0.3223
  998MOL0     C34634   8.614   8.893   8.553 -0.2334 -0.4321 -1.1374
  998MOL0     C34635   8.479   8.844   8.609 -0.4267  0.3848  0.2543
  998MOL0     C34636   8.503   8.813   8.759 -1.0809 -0.1908 -0.4611
  998MOL0     C34637   8.408   8.724   8.834  0.4108  0.2088  0.5263
  998MOL0     C34638   8.406   8.751   8.982  0.3023  0.4050  0.4839
  998MOL0    Cl34639   8.551   8.710   9.062  0.1345  0.2361 -0.1904
  998MOL0     C34640   8.407   9.234   8.235 -0.4920 -0.3107  0.0009
  998MOL0     C34641   8.309   9.248   8.128  0.5612  0.8567 -0.3310
  998MOL0     O34642   8.335   9.079   7.831 -0.3037  0.1561  0.5768
  998MOL0     C34643   8.133   9.055   7.646 -0.2762 -0.9951 -0.2194
  998MOL0     C34644   8.037   9.051   7.541  0.8315  0.6202 -0.4682
  998MOL0     N34645   7.281   9.031   7.139  0.8167 -0.1044 -0.2421
  998MOL0     N34646   7.202   8.935   7.179 -0.1378 -0.0656 -0.2715
  998MOL0     C34647   6.633   8.349   7.364  0.4277 -0.8273 -0.5333
  998MOL0     C34648   6.499   8.364   7.402 -0.4368 -0.5333 -0.2559
  998MOL0     C34649   6.076   8.225   7.557 -0.3218 -0.3674 -0.1776
  998MOL0     C34650   6.016   8.253   7.679  0.3059  0.4894 -0.6452
  998MOL0     C34651   5.877   8.263   7.695 -0.0884  0.0167 -0.7146
  998MOL0     C34652   5.793   8.249   7.583 -0.1237  0.4910  0.3486
  998MOL0     O34653   5.658   8.253   7.608 -0.6541 -0.1975  0.9841
  998MOL0     C34654   5.607   8.341   7.702 -0.2144 -0.1225 -0.2941
  998MOL0     C34655   5.639   8.494   7.700  0.8509  0.7641  0.5036
  998MOL0     C34656   5.649   8.557   7.562 -0.3624  0.2264 -0.3891
  998MOL0     C34657   5.522   8.551   7.480  0.5855  1.0609  0.4878
  998MOL0     C34658   5.422   8.633   7.547  0.2267  0.3621  1.0653
  998MOL0     C34659   5.336   8.703   7.592  0.1739 -0.1325 -0.4242
  998MOL0     C34660   5.848   8.228   7.458  0.3187  0.5188 -0.2124
  998MOL0     C34661   5.986   8.203   7.443  0.2295 -0.0019 -0.0752
  998MOL0     C34662   6.035   8.164   7.308 -0.9578  0.3907  0.0198
  998MOL0     H34663   6.367   8.059   7.380 -0.8430  1.3882 -0.9631
  998MOL0     H34664   6.610   8.027   7.280 -2.6519 -1.3365  1.2022
  998MOL0     H34665   6.779   8.365   7.147 -0.9173 -0.0800  0.4882
  998MOL0     H34666   6.897   8.388   7.268  0.3375 -2.7481  3.3314
  998MOL0     H34667   6.945   8.200   7.025  2.0655 -3.1002  1.3174
  998MOL0     H34668   7.031   8.203   7.185  1.0487  1.6107 -0.3807
  998MOL0     H34669   7.034   8.469   7.043  0.4462  1.3765  0.1523
  998MOL0     H34670   7.121   8.339   6.972 -0.6897  0.9141  0.4673
  998MOL0     H34671   7.148   8.429   7.259 -2.3628 -1.1386 -1.5761
  998MOL0     H34672   7.251   8.306   7.189  1.5768  0.0039 -1.8327
  998MOL0     H34673   7.345   8.477   7.038  2.3457 -0.3425  2.8379
  998MOL0     H34674   7.224   8.600   7.089 -2.6323 -1.2913  0.5989
  998MOL0     H34675   7.441   8.456   7.242 -3.8275 -1.6173  2.9228
  998MOL0     H34676   7.470   8.617   7.192  0.3625  2.0792  4.6891
  998MOL0     H34677   7.431   8.625   7.419  1.0696  1.6240 -1.1890
  998MOL0     H34678   7.272   8.558   7.423 -0.0698  2.6983  0.6494
  998MOL0     H34679   7.149   8.696   7.298 -0.3361 -0.4727  0.5138
  998MOL0     H34680   7.223   8.765   7.440  1.2460 -0.1071  0.2159
  998MOL0     H34681   7.503   8.841   7.263  0.4327  0.4618 -0.3275
  998MOL0     H34682   7.597   9.053   7.069 -0.7139  1.1359  0.6005
  998MOL0     H34683   7.499   9.189   7.115 -0.2707  0.1665 -1.3577
  998MOL0     H34684   7.513   9.136   7.359  3.6408  0.7344  3.0007
  998MOL0     H34685   7.635   9.018   7.324  0.2515  0.0725 -0.2707
  998MOL0     H34686   7.621   9.329   7.273 -0.7882 -0.4526  0.7293
  998MOL0     H34687   7.739   9.230   7.195  1.2296 -0.6825 -0.1914
  998MOL0     H34688   7.700   9.266   7.492 -0.6190  2.0496 -1.5450
  998MOL0     H34689   7.822   9.347   7.396  0.4989 -0.4644  0.6505
  998MOL0     H34690   7.876   9.324   7.607 -2.5075 -3.1673 -0.6450
  998MOL0     H34691   8.059   9.353   7.786 -0.4965 -2.1037  3.0099
  998MOL0     H34692   8.522   9.326   7.882 -0.7912 -0.1728  0.6122
  998MOL0     H34693   8.688   9.315   8.062 -0.3779  0.4992 -1.0831
  998MOL0     H34694   8.720   9.099   8.203 -0.7107 -0.5350  0.4741
  998MOL0     H34695   8.822   9.213   8.295  0.4707 -0.3499  0.0053
  998MOL0     H34696   8.803   8.969   8.396 -0.6418  0.2961 -0.9292
  998MOL0     H34697   8.774   9.113   8.504  0.4634 -1.8106  0.2373
  998MOL0     H34698   8.526   9.080   8.473  0.5482  0.3463 -0.5662
  998MOL0     H34699   8.549   8.953   8.359 -2.6094  1.6954  0.5077
  998MOL0     H34700   8.683   8.924   8.632  0.4727 -1.3380 -1.3851
  998MOL0     H34701   8.666   8.808   8.508  0.5527 -1.4239  1.4984
  998MOL0     H34702   8.456   8.752   8.554  3.5849 -0.4402 -0.3795
  998MOL0     H34703   8.408   8.925   8.591  0.8843  1.4512 -0.2589
  998MOL0     H34704   8.598   8.761   8.772 -0.2043  0.7783 -2.5750
  998MOL0     H34705   8.511   8.908   8.813 -1.8205 -0.6123  0.4288
  998MOL0     H34706   8.439   8.619   8.831  1.8868  0.6382 -1.3937
  998MOL0     H34707   8.313   8.736   8.781  1.5284  1.4819 -1.3204
  998MOL0     H34708   8.387   8.858   8.996 -2.1838  0.2663 -1.2285
  998MOL0     H34709   8.322   8.697   9.026  0.5427 -0.2484  0.1504
  998MOL0     H34710   8.360   9.199   8.327  1.6603 -1.8012  0.6032
  998MOL0     H34711   8.206   9.236   8.160  0.5853 -1.8211 -0.9905
  998MOL0     H34712   8.208   8.977   7.654  1.4986  0.6263 -0.0923
  998MOL0     H34713   8.038   8.962   7.478 -0.7753  0.3781 -0.1857
  998MOL0     H34714   6.700   8.433   7.383  0.3807 -0.6269 -1.2129
  998MOL0     H34715   6.472   8.467   7.427 -0.7333 -0.5146 -0.6488
  998MOL0     H34716   6.080   8.257   7.766 -0.7725 -1.7665  0.3309
  998MOL0     H34717   5.826   8.276   7.790 -0.2966  0.6445 -0.9086
  998MOL0     H34718   5.630   8.302   7.802 -0.1683  1.5994  0.3984
  998MOL0     H34719   5.497   8.343   7.700 -0.2496  1.5476  1.0322
  998MOL0     H34720   5.736   8.508   7.749  1.2889 -0.3639 -0.0030
  998MOL0     H34721   5.558   8.534   7.762 -1.9465 -3.6993  0.1472
  998MOL0     H34722   5.712   8.491   7.502  1.5070  0.7690  0.8831
  998MOL0     H34723   5.686   8.659   7.578 -1.7200  0.7019 -0.1247
  998MOL0     H34724   5.534   8.590   7.379  2.2951  2.9381  1.3301
  998MOL0     H34725   5.477   8.452   7.475 -0.7672  1.6767 -0.1784
  998MOL0     H34726   5.258   8.776   7.608 -2.1414 -2.0538 -2.1516
  998MOL0     H34727   5.783   8.222   7.371 -1.3092  0.6862  0.9381
  998MOL0     H34728   5.956   8.150   7.234  0.2592  0.0676 -1.2492
  998MOL0     H34729   6.094   8.251   7.277 -1.5801  0.1654 -1.9140
  998MOL0     H34730   6.099   8.076   7.320  0.1820  1.3191  1.0804
  999MOL0     O34731   7.233   1.357   6.903  0.1873  0.0439 -0.0613
  999MOL0     C34732   7.310   1.264   6.916 -0.5829 -0.3223  0.4472
  999MOL0     O34733   7.439   1.279   6.959  0.3226  0.3376  0.2172
  999MOL0     C34734   7.498   1.402   6.947 -1.0091  0.1796 -0.5083
  999MOL0     C34735   7.584   1.437   7.060 -0.0374  0.9721  0.1222
  999MOL0     C34736   7.658   1.559   7.056  0.1474 -0.5408 -0.5144
  999MOL0     C34737   7.631   1.653   6.954 -0.3031  0.5443 -0.4706
  999MOL0     O34738   7.706   1.766   6.950 -0.1538 -0.0750 -0.0535
  999MOL0     C34739   7.847   1.760   6.956  0.2895 -0.3205  0.4839
  999MOL0     C34740   7.890   1.711   6.819 -0.0084 -0.2496 -0.3242
  999MOL0     C34741   8.040   1.736   6.795  0.1868  0.5556 -0.1586
  999MOL0     C34742   8.139   1.628   6.841  0.7920  0.0384  0.0089
  999MOL0     C34743   8.275   1.676   6.798  0.2846  0.1581 -0.5366
  999MOL0     C34744   8.383   1.586   6.846  0.8139  0.3597 -0.1836
  999MOL0     C34745   8.513   1.646   6.790 -0.2930 -0.2306 -0.4007
  999MOL0     C34746   8.566   1.750   6.887  0.2521  0.0765 -0.4744
  999MOL0     N34747   8.710   1.774   6.868  0.4763  0.1948  0.5495
  999MOL0     C34748   8.776   1.880   6.921 -0.6255  0.1953  0.3197
  999MOL0     C34749   8.905   1.852   6.881 -0.1158 -0.3380  0.6680
  999MOL0     C34750   9.027   1.947   6.880 -0.6865 -0.8699 -0.5242
  999MOL0     C34751   9.150   1.888   6.946  0.1325 -0.3282  0.6273
  999MOL0     C34752   9.257   1.844   6.839  1.0184  0.0239 -0.2764
  999MOL0     C34753   9.331   1.967   6.781  0.0628  0.7268  0.1266
  999MOL0     O34754   9.414   1.919   6.675  0.3121 -0.3232 -0.1043
  999MOL0     C34755   9.544   1.912   6.698 -0.4847 -0.6642  0.1137
  999MOL0     C34756   9.621   1.906   6.581 -0.0451  0.0358 -0.3671
  999MOL0     C34757   9.751   1.923   6.586 -0.2883  0.5743  0.6197
  999MOL0     C34758   9.827   1.943   6.706  0.4673 -0.6837 -0.0538
  999MOL0     C34759   9.964   1.974   6.696 -0.1221 -0.5411  0.3745
  999MOL0     O34760  10.034   1.987   6.815  0.4310  0.0289  0.8007
  999MOL0     C34761  10.168   2.030   6.820  0.6948 -0.4652 -0.2691
  999MOL0     C34762  10.270   1.956   6.756  0.2928 -0.2336  0.0019
  999MOL0     C34763  10.400   2.002   6.751  0.3090 -0.8527 -0.2983
  999MOL0     C34764  10.440   2.109   6.837  0.7262 -0.5108  0.0519
  999MOL0     O34765  10.562   2.173   6.847 -0.2007 -0.1097  0.4476
  999MOL0     C34766  10.669   2.084   6.857  0.0753 -1.0734  0.3030
  999MOL0     C34767  10.806   2.154   6.829  0.7599  0.1316  0.0527
  999MOL0     C34768  10.925   2.068   6.852  0.1770  0.4482 -0.3767
  999MOL0     C34769  11.060   2.136   6.805 -0.5184 -0.0587  0.2818
  999MOL0     C34770  11.182   2.068   6.866  0.6593 -0.1645  0.5085
  999MOL0     C34771  11.301   2.165   6.839 -0.9236  0.3880  0.3209
  999MOL0     C34772  11.436   2.098   6.896  0.5077 -0.9676  0.5377
  999MOL0     C34773  11.548   2.192   6.863  0.0583  0.5492 -1.0005
  999MOL0    Cl34774  11.696   2.166   6.967 -0.8723  0.1153  0.5189
  999MOL0     C34775  10.343   2.169   6.922  0.4295 -0.0200  0.3111
  999MOL0     C34776  10.205   2.139   6.903 -1.2191 -0.5313  1.0910
  999MOL0     O34777  10.016   1.977   6.582  0.2081  0.4673 -0.6363
  999MOL0     C34778   9.751   1.929   6.822  0.4670 -0.4511 -0.1419
  999MOL0     C34779   9.617   1.907   6.817 -0.7547 -0.7439  0.6086
  999MOL0     N34780   8.912   1.734   6.806  0.7711 -0.0074 -0.0246
  999MOL0     N34781   8.794   1.690   6.797 -0.0985 -0.5850  0.5266
  999MOL0     C34782   7.554   1.618   6.840 -0.1156  0.2822 -0.3564
  999MOL0     C34783   7.490   1.492   6.835  0.6232 -0.3847  0.2178
  999MOL0     C34784   7.255   1.126   6.913  1.1696 -0.7055 -0.0979
  999MOL0     C34785   7.307   1.042   7.018  0.4712 -1.1424 -0.0327
  999MOL0     C34786   7.261   0.915   7.036  0.1220  0.8460  0.3873
  999MOL0     C34787   7.138   0.883   6.978 -0.2672 -0.0134 -0.1967
  999MOL0     O34788   7.072   0.762   6.985 -0.5561 -0.1012  0.0153
  999MOL0     C34789   7.090   0.670   7.092 -0.3085 -0.8091 -0.3479
  999MOL0     C34790   7.063   0.529   7.037  0.1259  0.5685  0.2489
  999MOL0     C34791   7.189   0.453   6.987 -0.1301  0.5764  0.4777
  999MOL0     C34792   7.264   0.538   6.890  0.3620  0.3118  0.4315
  999MOL0     C34793   7.378   0.465   6.838  0.3210 -0.5338  0.3832
  999MOL0     C34794   7.481   0.424   6.778 -0.3729 -0.2954  0.3474
  999MOL0     C34795   7.082   0.958   6.874 -0.3431 -0.1399  0.6173
  999MOL0     C34796   7.146   1.078   6.838 -0.2022 -0.5272 -0.2612
  999MOL0     C34797   7.091   1.163   6.721  0.8169  0.1002 -0.6547
  999MOL0     H34798   7.602   1.367   7.140  0.5487  1.0399  0.0544
  999MOL0     H34799   7.719   1.579   7.144 -2.0339 -1.8777  1.4205
  999MOL0     H34800   7.892   1.857   6.974  0.1100 -0.2246  0.4238
  999MOL0     H34801   7.879   1.695   7.038 -1.0681  1.9006  2.9022
  999MOL0     H34802   7.832   1.754   6.737 -0.3143 -2.7972 -1.5425
  999MOL0     H34803   7.870   1.604   6.807 -1.0176 -0.1393  0.2658
  999MOL0     H34804   8.070   1.831   6.840 -1.2423  0.6015  0.7629
  999MOL0     H34805   8.052   1.748   6.687 -2.3156 -0.8524 -0.6880
  999MOL0     H34806   8.138   1.612   6.950 -0.5638 -0.3164 -0.0405
  999MOL0     H34807   8.111   1.532   6.796  0.1375  0.3982 -0.3531
  999MOL0     H34808   8.277   1.670   6.688  0.7141 -2.2367 -0.4456
  999MOL0     H34809   8.298   1.776   6.835  2.0978 -1.2646  2.5545
  999MOL0     H34810   8.386   1.579   6.955 -1.9622  0.9088  0.0134
  999MOL0     H34811   8.356   1.494   6.794  0.4405 -0.2835  1.1222
  999MOL0     H34812   8.505   1.678   6.686  1.4393 -1.1084 -0.8445
  999MOL0     H34813   8.586   1.565   6.785  0.3091  0.2677  0.1299
  999MOL0     H34814   8.509   1.843   6.877 -0.5617 -0.6383 -3.6393
  999MOL0     H34815   8.538   1.720   6.988 -0.8713 -0.8795 -1.0342
  999MOL0     H34816   8.739   1.965   6.978 -1.9512 -0.7030  0.8423
  999MOL0     H34817   9.046   1.972   6.775  1.6308  0.3865  0.1383
  999MOL0     H34818   9.027   2.047   6.924  3.4420 -0.7958 -0.2862
  999MOL0     H34819   9.196   1.964   7.010  0.3114  2.0678 -2.1367
  999MOL0     H34820   9.109   1.811   7.012  0.5054 -1.1349 -0.0590
  999MOL0     H34821   9.212   1.774   6.769  0.6500 -0.4841  0.4559
  999MOL0     H34822   9.327   1.774   6.886 -0.1807 -1.0951 -0.0923
  999MOL0     H34823   9.387   2.034   6.847  2.0408  0.4113 -1.1360
  999MOL0     H34824   9.254   2.032   6.739 -0.7135  0.7731  1.5484
  999MOL0     H34825   9.588   1.906   6.477 -0.3306  3.3754 -0.3784
  999MOL0     H34826   9.794   1.929   6.486 -1.1277  0.7807  0.2636
  999MOL0     H34827  10.250   1.864   6.703 -0.5480 -0.0893  0.0588
  999MOL0     H34828  10.477   1.951   6.695 -1.1457 -1.2941 -1.9852
  999MOL0     H34829  10.669   2.026   6.950 -1.0069 -0.3250  0.7863
  999MOL0     H34830  10.667   2.011   6.775 -1.3375 -0.4267 -0.2910
  999MOL0     H34831  10.801   2.180   6.723 -1.0580 -2.3573 -0.5519
  999MOL0     H34832  10.799   2.241   6.895  1.5841 -1.0422  1.7579
  999MOL0     H34833  10.929   2.038   6.958 -0.4118 -2.1427 -1.0123
  999MOL0     H34834  10.914   1.978   6.791 -0.8717 -0.1782  0.6951
  999MOL0     H34835  11.049   2.240   6.835  0.0564  0.8752 -2.4221
  999MOL0     H34836  11.063   2.122   6.696 -0.7280  0.0926  0.2552
  999MOL0     H34837  11.195   1.968   6.824 -0.9743 -0.0958 -0.2565
  999MOL0     H34838  11.168   2.061   6.975 -1.9470  0.2814  0.2710
  999MOL0     H34839  11.304   2.192   6.733 -0.1516  0.0216  0.2386
  999MOL0     H34840  11.292   2.257   6.896  2.2634 -0.4553  2.4715
  999MOL0     H34841  11.452   1.997   6.857 -1.1754 -0.8785 -0.5408
  999MOL0     H34842  11.431   2.091   7.005 -2.0823  1.8870  0.7811
  999MOL0     H34843  11.570   2.175   6.757 -1.3027 -1.0081 -1.0672
  999MOL0     H34844  11.514   2.293   6.888 -1.2405  0.0071 -0.5076
  999MOL0     H34845  10.367   2.251   6.988 -2.1406  0.8862  0.2616
  999MOL0     H34846  10.131   2.198   6.956  0.6371  1.1635  1.9572
  999MOL0     H34847   9.801   1.940   6.918 -1.1807  3.4855  0.4464
  999MOL0     H34848   9.569   1.899   6.915  0.0090  0.0475  1.0616
  999MOL0     H34849   7.555   1.685   6.755 -0.8525  0.3122 -0.3474
  999MOL0     H34850   7.428   1.466   6.750  0.3701  0.1882  0.2255
  999MOL0     H34851   7.385   1.077   7.085  0.9731  1.2595 -1.7193
  999MOL0     H34852   7.314   0.852   7.108  2.0177  0.4292 -1.2708
  999MOL0     H34853   7.027   0.688   7.180 -0.7724  2.1634 -1.1815
  999MOL0     H34854   7.188   0.670   7.142 -1.0723 -2.3639  1.2908
  999MOL0     H34855   6.988   0.541   6.958 -2.4910 -0.3216  2.4417
  999MOL0     H34856   7.013   0.474   7.117  0.2106  0.2183  0.0642
  999MOL0     H34857   7.145   0.359   6.953 -0.4569  1.2963 -1.2093
  999MOL0     H34858   7.265   0.440   7.064  0.0092 -0.7125  0.1426
  999MOL0     H34859   7.205   0.564   6.801 -0.4782  0.0502  0.8958
  999MOL0     H34860   7.298   0.627   6.943  0.8597  1.0973 -1.1386
  999MOL0     H34861   7.561   0.383   6.720 -2.1953  1.2508 -3.6484
  999MOL0     H34862   6.993   0.927   6.821  0.8609 -0.7505 -1.1126
  999MOL0     H34863   6.982   1.176   6.730  0.6963 -0.5344 -1.1481
  999MOL0     H34864   7.140   1.260   6.706  1.2776  0.1367  0.9169
  999MOL0     H34865   7.113   1.097   6.636  3.4170 -0.3528  0.2837
 1000MOL0     O34866   0.705   8.799   6.344 -0.0618  0.2720  0.1548
 1000MOL0     C34867   0.595   8.790   6.406  0.1032  0.2742 -0.0435
 1000MOL0     O34868   0.576   8.744   6.530  0.1140  0.2294 -0.1132
 1000MOL0     C34869   0.665   8.651   6.582  0.6577  0.8792 -0.3084
 1000MOL0     C34870   0.682   8.645   6.722  0.2439 -0.4612 -0.2180
 1000MOL0     C34871   0.785   8.566   6.788  1.0469  0.0001 -0.0167
 1000MOL0     C34872   0.860   8.478   6.713  0.6819  0.2089 -0.4008
 1000MOL0     O34873   0.951   8.390   6.765 -0.5860  0.4624  0.0719
 1000MOL0     C34874   1.000   8.410   6.896 -0.0521  0.4584 -0.5353
 1000MOL0     C34875   1.117   8.317   6.921  0.0783 -0.2499  0.2177
 1000MOL0     C34876   1.246   8.373   6.865 -0.2926  0.0276 -0.0414
 1000MOL0     C34877   1.301   8.487   6.952 -0.0631  0.6330 -0.5637
 1000MOL0     C34878   1.451   8.469   6.953 -0.0749 -0.0163  0.2763
 1000MOL0     C34879   1.522   8.467   6.811 -0.0581  0.5454 -0.1275
 1000MOL0     C34880   1.668   8.514   6.827  0.5785 -0.0995  0.6271
 1000MOL0     C34881   1.768   8.409   6.865  0.1134 -0.1016  0.8219
 1000MOL0     N34882   1.801   8.320   6.753  0.1601 -0.2008  0.4495
 1000MOL0     C34883   1.782   8.187   6.755  0.8276 -0.1942  0.0669
 1000MOL0     C34884   1.844   8.138   6.649 -0.9463  0.2596  0.0371
 1000MOL0     C34885   1.845   7.988   6.607 -0.6411  0.0140  0.4595
 1000MOL0     C34886   1.985   7.924   6.622 -0.3629 -0.4258 -0.2670
 1000MOL0     C34887   2.016   7.880   6.769  0.3505  0.4970  0.1514
 1000MOL0     C34888   2.136   7.793   6.796  0.1906 -0.1537  0.4764
 1000MOL0     O34889   2.244   7.877   6.778 -1.3490  0.3251 -0.9356
 1000MOL0     C34890   2.376   7.827   6.790 -0.1512 -0.0405 -0.6717
 1000MOL0     C34891   2.412   7.699   6.804 -0.1236  0.1853 -0.0865
 1000MOL0     C34892   2.550   7.667   6.814  0.9488  0.4645 -0.6263
 1000MOL0     C34893   2.648   7.775   6.824  1.2542 -0.1903 -0.2445
 1000MOL0     C34894   2.786   7.734   6.839 -0.7388 -0.2706 -0.3205
 1000MOL0     O34895   2.825   7.623   6.923 -0.1399 -0.0208  0.0311
 1000MOL0     C34896   2.958   7.593   6.937  0.2638 -0.3641  0.1387
 1000MOL0     C34897   3.063   7.682   6.942 -0.5087  1.2049  0.9626
 1000MOL0     C34898   3.196   7.639   6.957  0.1253 -0.2824 -0.4060
 1000MOL0     C34899   3.224   7.501   6.970  0.0967  0.9969 -0.4393
 1000MOL0     O34900   3.358   7.460   6.981 -0.3581 -0.0458  0.2822
 1000MOL0     C34901   3.380   7.334   7.048 -0.3027  0.0195  0.2353
 1000MOL0     C34902   3.536   7.318   7.087  0.0622  0.4290 -0.2280
 1000MOL0     C34903   3.625   7.304   6.968  0.2436 -0.9602 -0.1362
 1000MOL0     C34904   3.612   7.184   6.868 -0.4730  0.1930 -0.5962
 1000MOL0     C34905   3.735   7.181   6.771 -0.2775 -0.4257 -0.9671
 1000MOL0     C34906   3.858   7.116   6.829 -0.1146 -0.8229  0.0557
 1000MOL0     C34907   3.971   7.093   6.731 -0.1008  0.5392  0.1723
 1000MOL0     C34908   4.079   6.992   6.781 -0.6096 -0.4416 -0.0688
 1000MOL0    Cl34909   4.237   7.030   6.717  0.1813 -0.0607 -0.1057
 1000MOL0     C34910   3.118   7.406   6.965  0.1790 -1.2292 -0.0275
 1000MOL0     C34911   2.989   7.458   6.946  0.9251 -0.0434 -0.2561
 1000MOL0     O34912   2.868   7.810   6.788  0.4941  0.9113  0.0198
 1000MOL0     C34913   2.610   7.909   6.799 -0.2350  0.2517  0.4546
 1000MOL0     C34914   2.473   7.933   6.780  0.4380  0.2511  0.5120
 1000MOL0     N34915   1.894   8.250   6.571 -0.4093 -0.1206  0.1147
 1000MOL0     N34916   1.867   8.351   6.643  0.6168 -0.2050  0.4208
 1000MOL0     C34917   0.836   8.458   6.578 -0.1387 -0.2683  0.6896
 1000MOL0     C34918   0.741   8.546   6.514 -0.4964 -0.0555  0.1568
 1000MOL0     C34919   0.472   8.831   6.336  0.0430 -0.8523  0.9067
 1000MOL0     C34920   0.438   8.966   6.318 -0.2467 -0.3475 -0.1974
 1000MOL0     C34921   0.325   9.007   6.251 -0.7632 -1.4889  0.0991
 1000MOL0     C34922   0.248   8.912   6.196 -0.0250 -0.1615 -0.0753
 1000MOL0     O34923   0.127   8.967   6.146  0.4859  0.0163  0.7743
 1000MOL0     C34924   0.025   8.885   6.079 -0.7757 -0.3931  0.4208
 1000MOL0     C34925  -0.065   8.796   6.163 -0.9980 -0.6172 -0.2273
 1000MOL0     C34926  -0.202   8.774   6.090 -0.1090  0.8232 -0.6326
 1000MOL0     C34927  -0.295   8.694   6.185 -0.1644 -0.0020 -0.1387
 1000MOL0     C34928  -0.363   8.778   6.279 -0.0810  0.1330 -1.0892
 1000MOL0     C34929  -0.426   8.860   6.342 -0.3712 -1.1332  1.0529
 1000MOL0     C34930   0.274   8.778   6.216 -0.1833 -0.0380 -0.1995
 1000MOL0     C34931   0.390   8.737   6.280  0.2127 -0.5114  0.2298
 1000MOL0     C34932   0.407   8.585   6.301  0.1489  0.4971 -0.5950
 1000MOL0     H34933   0.622   8.708   6.787 -0.5888 -2.4198  0.9929
 1000MOL0     H34934   0.809   8.583   6.892  1.0374 -0.8242  0.1264
 1000MOL0     H34935   1.025   8.516   6.901 -0.6997  0.5644  1.1331
 1000MOL0     H34936   0.932   8.381   6.976  1.1799 -3.8024 -0.7781
 1000MOL0     H34937   1.097   8.220   6.875 -2.8980  1.9443 -3.7210
 1000MOL0     H34938   1.135   8.301   7.028  2.4647  2.5941  0.3994
 1000MOL0     H34939   1.228   8.406   6.763  1.0893  0.3946 -0.1840
 1000MOL0     H34940   1.331   8.304   6.866  1.1239  1.7072 -0.6718
 1000MOL0     H34941   1.278   8.583   6.906 -0.2965  1.2770  0.8619
 1000MOL0     H34942   1.260   8.473   7.052  1.5534  1.6852  0.2871
 1000MOL0     H34943   1.484   8.559   7.006  1.2265 -0.1764 -0.2046
 1000MOL0     H34944   1.474   8.375   7.004  2.0747 -0.6090 -1.6048
 1000MOL0     H34945   1.515   8.371   6.760  0.3936  0.0943  0.6485
 1000MOL0     H34946   1.479   8.552   6.757  0.6475 -0.2567 -2.0398
 1000MOL0     H34947   1.680   8.588   6.907 -0.3867 -1.5614  2.2164
 1000MOL0     H34948   1.698   8.562   6.734 -2.0006 -0.6878 -0.5877
 1000MOL0     H34949   1.861   8.462   6.887 -0.2015  1.4158 -1.1726
 1000MOL0     H34950   1.734   8.360   6.957  1.0449 -0.2372  1.1004
 1000MOL0     H34951   1.743   8.122   6.833  0.6405 -1.4934 -1.0540
 1000MOL0     H34952   1.771   7.931   6.664 -0.4528 -0.1118  0.5842
 1000MOL0     H34953   1.817   7.983   6.502 -3.1889  1.3282  1.0109
 1000MOL0     H34954   1.983   7.831   6.564 -2.5599 -0.9612  0.5566
 1000MOL0     H34955   2.058   8.000   6.593  2.2498 -1.5339  2.7296
 1000MOL0     H34956   1.930   7.828   6.813  0.9808  0.6657  1.6647
 1000MOL0     H34957   2.019   7.971   6.829 -1.0658  0.4874  0.2754
 1000MOL0     H34958   2.130   7.713   6.721 -2.5026  0.7950 -0.4169
 1000MOL0     H34959   2.126   7.739   6.891 -0.7679 -1.3549 -0.2736
 1000MOL0     H34960   2.334   7.624   6.815 -0.0209  0.3377  2.2933
 1000MOL0     H34961   2.595   7.569   6.823  2.1483  1.0802  0.2460
 1000MOL0     H34962   3.056   7.790   6.947  0.1437  1.3239 -0.1790
 1000MOL0     H34963   3.275   7.713   6.954 -1.0434  0.9703 -1.7192
 1000MOL0     H34964   3.322   7.327   7.140 -0.5794 -0.9857 -0.0020
 1000MOL0     H34965   3.363   7.249   6.982  1.7427 -1.9386  2.0863
 1000MOL0     H34966   3.566   7.407   7.143 -0.9555  1.0166 -0.5801
 1000MOL0     H34967   3.562   7.235   7.153  2.5469 -0.8094 -2.5878
 1000MOL0     H34968   3.613   7.388   6.899  1.7826 -1.1847 -0.7224
 1000MOL0     H34969   3.730   7.312   6.999  0.5192 -0.5123 -1.1584
 1000MOL0     H34970   3.527   7.207   6.804 -0.6411  0.2667 -0.3447
 1000MOL0     H34971   3.604   7.089   6.922  3.1146  0.5350  0.8688
 1000MOL0     H34972   3.754   7.285   6.741 -0.2520  0.5146  1.9638
 1000MOL0     H34973   3.699   7.129   6.682  0.2454 -0.0839 -1.3887
 1000MOL0     H34974   3.903   7.182   6.904  3.0145  0.6183 -2.8280
 1000MOL0     H34975   3.827   7.019   6.870  0.8878 -0.2826  2.2292
 1000MOL0     H34976   4.020   7.183   6.693  1.5963 -1.1826 -1.9993
 1000MOL0     H34977   3.938   7.043   6.640 -1.0117  2.1769 -0.4468
 1000MOL0     H34978   4.088   6.998   6.889 -1.8009  1.3429 -0.0300
 1000MOL0     H34979   4.053   6.887   6.762  2.6050 -1.1331 -1.2650
 1000MOL0     H34980   3.136   7.300   6.974 -0.2888 -1.4992 -1.9181
 1000MOL0     H34981   2.908   7.385   6.947  1.7637 -1.0340  2.2699
 1000MOL0     H34982   2.684   7.988   6.793  3.5221 -2.9839 -0.5679
 1000MOL0     H34983   2.437   8.036   6.776 -0.1044  0.1891  2.4697
 1000MOL0     H34984   0.890   8.380   6.526 -0.7240 -0.0169 -0.3414
 1000MOL0     H34985   0.724   8.542   6.407 -2.6255 -2.0788  0.4817
 1000MOL0     H34986   0.491   9.049   6.364 -3.3476  2.2105 -0.8714
 1000MOL0     H34987   0.285   9.108   6.246  1.7440 -0.3910  0.3149
 1000MOL0     H34988   0.074   8.823   6.004  0.8513  2.2426 -0.8583
 1000MOL0     H34989  -0.038   8.959   6.028 -2.1431 -0.9520  1.2438
 1000MOL0     H34990  -0.089   8.843   6.259 -1.1619 -0.5070 -0.3203
 1000MOL0     H34991  -0.016   8.702   6.188  1.6619  0.5924 -0.5161
 1000MOL0     H34992  -0.190   8.713   5.999  3.0311  0.2500  0.0283
 1000MOL0     H34993  -0.260   8.861   6.058 -0.5113  0.9582  0.4198
 1000MOL0     H34994  -0.370   8.637   6.129 -1.1006 -0.6806  1.7199
 1000MOL0     H34995  -0.230   8.625   6.239 -1.0463  0.9044  2.2369
 1000MOL0     H34996  -0.476   8.933   6.404  0.0995  0.0188  0.1149
 1000MOL0     H34997   0.208   8.697   6.187 -1.9745  1.4778 -0.4639
 1000MOL0     H34998   0.325   8.538   6.247 -0.6864  1.2934 -0.0438
 1000MOL0     H34999   0.503   8.546   6.266  0.2252  0.9269 -0.8707
 1000MOL0     H35000   0.402   8.557   6.407  0.3430  1.6789 -0.2620
 1001MOL0     O35001   8.102  10.515   3.235 -0.6666  0.7190  0.1851
 1001MOL0     C35002   8.077  10.442   3.145  1.2954  0.7343 -0.1887
 1001MOL0     O35003   8.154  10.417   3.037  0.0392 -0.0105  0.2638
 1001MOL0     C35004   8.284  10.457   3.038  0.0731  0.7984  0.0225
 1001MOL0     C35005   8.384  10.365   3.077 -0.7393 -0.3758  0.1124
 1001MOL0     C35006   8.518  10.394   3.088 -0.8467 -0.6421  0.5519
 1001MOL0     C35007   8.556  10.530   3.075  0.8100  0.1252  0.7455
 1001MOL0     O35008   8.682  10.581   3.083  0.3154 -0.3708 -0.2762
 1001MOL0     C35009   8.784  10.490   3.118  0.4692  0.0183  0.2181
 1001MOL0     C35010   8.922  10.545   3.149  0.4779  0.9224  0.2361
 1001MOL0     C35011   9.011  10.455   3.232  0.6793  0.1108  0.1533
 1001MOL0     C35012   9.068  10.346   3.145 -0.5354 -0.0614  0.7028
 1001MOL0     C35013   9.151  10.253   3.230  0.4770  0.2279 -0.1538
 1001MOL0     C35014   9.242  10.154   3.157  1.2279 -0.2009 -0.0765
 1001MOL0     C35015   9.367  10.111   3.246  0.3629  0.6769 -0.4227
 1001MOL0     C35016   9.426   9.981   3.185 -0.1151 -0.4118 -0.7830
 1001MOL0     N35017   9.545   9.921   3.239  0.4113  0.3081  0.0143
 1001MOL0     C35018   9.630   9.845   3.168 -1.0007 -0.5754  0.2521
 1001MOL0     C35019   9.698   9.783   3.271  0.3525 -0.2050 -0.4663
 1001MOL0     C35020   9.814   9.693   3.251 -1.0054 -0.2900  0.2772
 1001MOL0     C35021   9.937   9.781   3.211  0.5910  0.1378  0.3459
 1001MOL0     C35022   9.992   9.864   3.324 -0.4280 -0.0593 -0.9178
 1001MOL0     C35023  10.091   9.977   3.295  0.6821  0.1512  0.3079
 1001MOL0     O35024  10.195   9.925   3.211 -0.0803 -0.5682 -0.5434
 1001MOL0     C35025  10.291   9.847   3.270  0.7627 -0.7286 -0.1294
 1001MOL0     C35026  10.359   9.758   3.183  0.7764 -0.1341 -0.7539
 1001MOL0     C35027  10.455   9.666   3.232 -0.2574  0.1577  0.0120
 1001MOL0     C35028  10.483   9.658   3.375 -0.0657 -0.2177  0.1414
 1001MOL0     C35029  10.577   9.553   3.425 -0.3838 -0.6387  0.4919
 1001MOL0     O35030  10.660   9.495   3.335  0.2901  0.1345 -0.3245
 1001MOL0     C35031  10.755   9.403   3.371 -0.4269  0.1984  0.1636
 1001MOL0     C35032  10.731   9.268   3.367  0.1704  0.2877  0.3026
 1001MOL0     C35033  10.820   9.173   3.408  0.1334 -0.4789  0.3182
 1001MOL0     C35034  10.947   9.213   3.460  0.8308  0.3374 -0.0604
 1001MOL0     O35035  11.032   9.119   3.501 -1.0428 -0.2991 -0.4661
 1001MOL0     C35036  11.111   9.158   3.609 -0.2751 -0.2605 -0.4915
 1001MOL0     C35037  11.164   9.036   3.681 -0.2605  0.0499  1.3173
 1001MOL0     C35038  11.073   8.992   3.801  0.6896 -0.5549 -0.4156
 1001MOL0     C35039  11.136   8.870   3.864  0.3007 -0.3255 -0.1257
 1001MOL0     C35040  11.239   8.890   3.980 -0.0103  0.2242  0.4060
 1001MOL0     C35041  11.183   8.960   4.107  0.2296  0.2993 -0.0177
 1001MOL0     C35042  11.073   8.891   4.188 -0.4940 -0.1586 -0.0463
 1001MOL0     C35043  11.086   8.744   4.225 -0.5030  0.0776  0.5628
 1001MOL0    Cl35044  11.147   8.726   4.398 -0.0068  0.0015  0.0612
 1001MOL0     C35045  10.974   9.354   3.455 -0.7369 -0.4183 -0.3309
 1001MOL0     C35046  10.880   9.447   3.415  0.4559 -0.6497  0.4475
 1001MOL0     O35047  10.585   9.531   3.546 -0.3378  0.0157 -0.9234
 1001MOL0     C35048  10.407   9.738   3.458 -0.4097  0.5555 -0.1728
 1001MOL0     C35049  10.313   9.828   3.408 -0.7440 -0.0512 -0.1859
 1001MOL0     N35050   9.649   9.820   3.401  0.5178  0.1818 -0.2023
 1001MOL0     N35051   9.549   9.896   3.377  0.1215  0.1998  0.5544
 1001MOL0     C35052   8.456  10.625   3.049  0.5903  0.1224  0.5969
 1001MOL0     C35053   8.325  10.588   3.017  0.2986  0.2630 -1.0894
 1001MOL0     C35054   7.941  10.379   3.147  0.4945 -0.6005  0.6197
 1001MOL0     C35055   7.885  10.344   3.269  0.6880 -0.2115  0.6527
 1001MOL0     C35056   7.766  10.272   3.276 -0.2719 -0.2197 -0.4295
 1001MOL0     C35057   7.708  10.232   3.156 -0.4318  0.4722  0.7203
 1001MOL0     O35058   7.590  10.166   3.149  0.5721  0.7669  0.7974
 1001MOL0     C35059   7.526  10.117   3.261  0.4013 -0.1944  0.3042
 1001MOL0     C35060   7.408  10.032   3.218 -0.7222  0.1353 -0.0222
 1001MOL0     C35061   7.338   9.994   3.358  0.6942 -0.3804 -0.9078
 1001MOL0     C35062   7.221   9.900   3.345 -0.3532  0.4985  0.9601
 1001MOL0     C35063   7.147   9.861   3.465  0.8043  0.5499 -1.0458
 1001MOL0     C35064   7.081   9.824   3.559  0.8254 -0.2716  0.1930
 1001MOL0     C35065   7.763  10.268   3.035 -0.0472  0.3346  0.8355
 1001MOL0     C35066   7.878  10.348   3.025 -0.0112 -0.3209 -0.1815
 1001MOL0     C35067   7.915  10.389   2.887 -0.0391 -0.8222 -0.0394
 1001MOL0     H35068   8.346  10.265   3.093  0.0263 -0.4313  1.9064
 1001MOL0     H35069   8.591  10.319   3.116  0.3967  0.6149  0.8516
 1001MOL0     H35070   8.752  10.448   3.214 -3.5540 -0.5114 -1.1874
 1001MOL0     H35071   8.789  10.408   3.047  1.6767  1.3646 -1.3512
 1001MOL0     H35072   8.904  10.639   3.202  0.8858  1.8785 -1.2494
 1001MOL0     H35073   8.963  10.571   3.051 -2.7305  1.2000 -1.1595
 1001MOL0     H35074   8.952  10.417   3.316 -0.7199 -0.1418 -0.9045
 1001MOL0     H35075   9.096  10.513   3.267  0.9560 -0.5897  0.6693
 1001MOL0     H35076   8.985  10.283   3.110 -1.4986  0.4901  1.9208
 1001MOL0     H35077   9.124  10.387   3.061  0.6407 -2.9247 -0.0326
 1001MOL0     H35078   9.224  10.315   3.285 -0.7710  2.3822 -0.7983
 1001MOL0     H35079   9.085  10.204   3.303  1.1069  1.5926  1.4145
 1001MOL0     H35080   9.184  10.067   3.127 -0.7728  0.3627  1.9556
 1001MOL0     H35081   9.276  10.197   3.062 -0.6258  1.4656 -0.0295
 1001MOL0     H35082   9.341  10.084   3.349  4.2844  0.2694  0.6413
 1001MOL0     H35083   9.444  10.189   3.250 -0.1673  1.2886 -1.6893
 1001MOL0     H35084   9.350   9.905   3.207 -2.5917  2.0940 -0.1794
 1001MOL0     H35085   9.461  10.007   3.084  1.5145 -2.6608 -0.8736
 1001MOL0     H35086   9.632   9.832   3.060 -4.2564 -1.2170  0.1586
 1001MOL0     H35087   9.827   9.623   3.334  0.3878  0.3681  0.6433
 1001MOL0     H35088   9.792   9.628   3.166 -3.3613  2.0766 -1.0480
 1001MOL0     H35089  10.018   9.712   3.187 -0.4511 -1.2845  0.7548
 1001MOL0     H35090   9.918   9.838   3.120  2.0527  1.1235  0.6192
 1001MOL0     H35091  10.045   9.791   3.386 -1.1661  0.5913  0.5453
 1001MOL0     H35092   9.911   9.913   3.379  0.3940  0.1399  0.1689
 1001MOL0     H35093  10.127  10.022   3.388 -0.5877 -1.8201  1.8371
 1001MOL0     H35094  10.055  10.054   3.226 -1.9734 -0.8762  0.4351
 1001MOL0     H35095  10.344   9.757   3.076  0.7405 -1.6198 -0.7605
 1001MOL0     H35096  10.514   9.602   3.167  1.9747 -2.4238  4.1451
 1001MOL0     H35097  10.639   9.228   3.327  0.9885 -1.2895 -0.1154
 1001MOL0     H35098  10.796   9.067   3.411 -2.2050  0.0090  1.3061
 1001MOL0     H35099  11.196   9.218   3.576  0.3446 -0.0464  1.3530
 1001MOL0     H35100  11.052   9.216   3.681  0.3102  0.8175 -0.8546
 1001MOL0     H35101  11.168   8.953   3.609  0.8407 -1.7206  3.2794
 1001MOL0     H35102  11.267   9.055   3.712  0.7478  0.3423 -1.8539
 1001MOL0     H35103  11.074   9.073   3.875  1.5035 -1.5366  0.6960
 1001MOL0     H35104  10.974   8.960   3.767  0.4809 -1.6044  1.0415
 1001MOL0     H35105  11.191   8.817   3.786  1.5564  1.5773 -0.6007
 1001MOL0     H35106  11.066   8.796   3.906  0.5137 -0.6493 -0.3320
 1001MOL0     H35107  11.321   8.955   3.947  1.2684 -1.7005 -0.4033
 1001MOL0     H35108  11.280   8.798   4.022  0.2181 -0.5914 -1.4933
 1001MOL0     H35109  11.269   8.973   4.173 -0.5284 -2.9504  1.8146
 1001MOL0     H35110  11.134   9.052   4.073 -1.3126  0.0649  1.4398
 1001MOL0     H35111  10.974   8.893   4.143 -0.0755  2.0905 -0.9737
 1001MOL0     H35112  11.065   8.946   4.282  0.1918 -1.5235  0.8654
 1001MOL0     H35113  10.985   8.701   4.218 -0.2348 -0.4288 -0.3575
 1001MOL0     H35114  11.151   8.697   4.151 -0.8024 -0.8462  0.8700
 1001MOL0     H35115  11.075   9.392   3.470 -1.5496  1.8029  0.0015
 1001MOL0     H35116  10.916   9.550   3.410 -0.7302 -0.2459  0.0142
 1001MOL0     H35117  10.405   9.722   3.565 -1.3787 -1.0977 -0.3966
 1001MOL0     H35118  10.263   9.892   3.480  1.4754  2.8892 -1.0605
 1001MOL0     H35119   8.480  10.726   3.020 -0.7539 -0.0709 -1.4224
 1001MOL0     H35120   8.254  10.667   2.994 -1.2183 -1.4230 -2.5168
 1001MOL0     H35121   7.934  10.373   3.361  2.5217  4.2136 -1.3759
 1001MOL0     H35122   7.734  10.245   3.376  0.5774 -0.4503 -0.2125
 1001MOL0     H35123   7.499  10.198   3.329 -1.2737  0.4492 -1.0835
 1001MOL0     H35124   7.599  10.052   3.311  1.8280  0.3588 -0.9762
 1001MOL0     H35125   7.451   9.947   3.164 -1.1160 -0.2383  0.2499
 1001MOL0     H35126   7.348  10.090   3.148  0.0853 -0.1945 -1.0243
 1001MOL0     H35127   7.303  10.082   3.413  1.1002 -0.3591 -0.6866
 1001MOL0     H35128   7.413   9.957   3.428 -1.0385  1.8743  2.4035
 1001MOL0     H35129   7.154   9.942   3.270  0.3119 -0.6086 -0.3006
 1001MOL0     H35130   7.272   9.815   3.298 -1.2879  0.4127  0.0647
 1001MOL0     H35131   7.005   9.807   3.632 -1.2960  0.8124 -1.6341
 1001MOL0     H35132   7.712  10.247   2.942 -0.8297  0.5465  1.2057
 1001MOL0     H35133   7.829  10.411   2.822  0.0252  2.5656  0.8567
 1001MOL0     H35134   7.960  10.489   2.887 -0.9305 -0.4156 -0.3210
 1001MOL0     H35135   7.986  10.324   2.835 -0.1457 -1.3352  0.4504
 1002MOL0     O35136   4.306  10.008   6.997 -0.0100  0.4571 -0.0334
 1002MOL0     C35137   4.268  10.104   7.068  0.1849  0.1624  0.6202
 1002MOL0     O35138   4.355  10.194   7.134  0.1966  0.1441  1.2068
 1002MOL0     C35139   4.484  10.168   7.148 -0.5670 -0.0940 -0.4901
 1002MOL0     C35140   4.578  10.209   7.056 -0.1309 -0.6835  0.1633
 1002MOL0     C35141   4.707  10.151   7.059 -0.1158 -0.4953  0.0171
 1002MOL0     C35142   4.759  10.081   7.167 -0.9246 -0.2828 -0.5661
 1002MOL0     O35143   4.890  10.040   7.165  0.8138 -0.4586 -0.3347
 1002MOL0     C35144   4.918   9.945   7.276 -0.4207 -0.2723 -0.7722
 1002MOL0     C35145   5.054   9.873   7.256  0.2042  0.4694  0.0282
 1002MOL0     C35146   5.172   9.970   7.275  0.1869 -0.2049  0.1478
 1002MOL0     C35147   5.189  10.083   7.173  0.1366 -0.3000 -0.1513
 1002MOL0     C35148   5.297  10.182   7.222  0.5860  1.0455 -0.1251
 1002MOL0     C35149   5.340  10.285   7.118  0.5737 -0.0821 -0.0189
 1002MOL0     C35150   5.464  10.360   7.177 -0.1717 -0.7632 -1.0240
 1002MOL0     C35151   5.530  10.463   7.078 -0.3487 -0.2060  0.1872
 1002MOL0     N35152   5.658  10.511   7.137  0.9412 -0.0365 -0.1841
 1002MOL0     C35153   5.672  10.630   7.199  0.6655  0.1529 -0.0018
 1002MOL0     C35154   5.807  10.646   7.226  1.0916  0.7716  1.1354
 1002MOL0     C35155   5.850  10.762   7.308  0.0930 -0.8644 -0.9901
 1002MOL0     C35156   5.993  10.788   7.281 -0.3016  0.1779  0.1059
 1002MOL0     C35157   6.043  10.900   7.372  0.0275 -0.1706  0.5065
 1002MOL0     C35158   6.174  10.865   7.452 -0.8106  0.5678 -0.7804
 1002MOL0     O35159   6.276  10.855   7.356 -0.4503 -0.7953  0.0521
 1002MOL0     C35160   6.403  10.865   7.408 -0.3725 -0.6935 -0.5220
 1002MOL0     C35161   6.441  10.836   7.539  1.3634 -0.0189 -0.5225
 1002MOL0     C35162   6.575  10.843   7.582 -0.4636 -0.2632  0.1801
 1002MOL0     C35163   6.673  10.889   7.500 -0.4064  0.1616  0.0612
 1002MOL0     C35164   6.816  10.888   7.539  0.1718  0.6779 -0.2182
 1002MOL0     O35165   6.839  10.839   7.667  1.0188  0.4256 -0.1377
 1002MOL0     C35166   6.973  10.836   7.704  0.1247 -0.6919 -0.6094
 1002MOL0     C35167   7.058  10.734   7.675 -0.0582  0.0508  0.4440
 1002MOL0     C35168   7.185  10.718   7.722 -0.1824  0.2557  0.6907
 1002MOL0     C35169   7.240  10.814   7.812 -0.0457 -0.3362  0.1697
 1002MOL0     O35170   7.362  10.789   7.858  0.0148  0.0634 -0.3116
 1002MOL0     C35171   7.410  10.864   7.968  0.0049  0.0101 -0.2652
 1002MOL0     C35172   7.556  10.815   7.994 -0.0420 -0.4256 -0.2603
 1002MOL0     C35173   7.611  10.896   8.115 -0.3471 -0.3176  0.0348
 1002MOL0     C35174   7.765  10.907   8.106 -0.6136 -0.5445 -0.6655
 1002MOL0     C35175   7.803  10.984   8.234  0.2003 -0.0007  0.0235
 1002MOL0     C35176   7.953  11.016   8.227 -0.2024 -1.0207 -0.2610
 1002MOL0     C35177   8.009  11.064   8.362 -0.1437 -0.0513 -0.9534
 1002MOL0     C35178   8.147  11.003   8.393 -0.2521 -0.2033  0.4499
 1002MOL0    Cl35179   8.262  11.096   8.288  0.1922 -0.2182 -0.0070
 1002MOL0     C35180   7.148  10.911   7.853 -1.0351 -0.5617 -0.0978
 1002MOL0     C35181   7.026  10.926   7.799 -0.1528  0.0253 -0.3687
 1002MOL0     O35182   6.902  10.941   7.465  0.1628  0.0189 -0.5317
 1002MOL0     C35183   6.636  10.923   7.365  0.0862  0.2747  0.0678
 1002MOL0     C35184   6.504  10.913   7.317  0.4300 -0.3583 -0.0747
 1002MOL0     N35185   5.875  10.540   7.174  0.1413  0.0758 -0.2472
 1002MOL0     N35186   5.780  10.464   7.117  0.1734  0.1023 -0.2991
 1002MOL0     C35187   4.670  10.069   7.276  0.3144  0.7323  0.1970
 1002MOL0     C35188   4.535  10.105   7.270  0.6911  0.0339  0.1498
 1002MOL0     C35189   4.126  10.130   7.073  0.6546 -0.1470 -0.6223
 1002MOL0     C35190   4.091  10.253   7.141 -0.8165  0.5203  0.7952
 1002MOL0     C35191   3.961  10.293   7.152  0.2009  0.3119 -0.3223
 1002MOL0     C35192   3.847  10.208   7.112 -0.3427  0.2818 -0.0415
 1002MOL0     O35193   3.724  10.252   7.145  0.0583 -0.2911 -0.4842
 1002MOL0     C35194   3.612  10.164   7.151 -0.3898 -0.1192  0.4016
 1002MOL0     C35195   3.507  10.217   7.054 -0.1604 -0.3892 -0.1835
 1002MOL0     C35196   3.528  10.166   6.913  0.1537  0.2679  0.1292
 1002MOL0     C35197   3.426  10.220   6.813 -0.6441 -0.1737  0.0160
 1002MOL0     C35198   3.295  10.157   6.832  1.0650 -0.1738  0.3538
 1002MOL0     C35199   3.185  10.109   6.833  0.1612  0.2042 -0.8384
 1002MOL0     C35200   3.886  10.086   7.063  0.0512  0.7691  1.2445
 1002MOL0     C35201   4.019  10.049   7.040  0.2826  0.2602  0.3371
 1002MOL0     C35202   4.036   9.926   6.972 -0.1144  0.0560  0.5103
 1002MOL0     H35203   4.553  10.259   6.963 -0.0300  1.2073  1.1062
 1002MOL0     H35204   4.775  10.175   6.978 -0.4928 -2.6365 -0.9920
 1002MOL0     H35205   4.933  10.012   7.362 -3.0468  2.3490 -2.1870
 1002MOL0     H35206   4.835   9.875   7.288 -0.6779  0.2899  1.0854
 1002MOL0     H35207   5.049   9.819   7.161  1.0890  0.9596 -0.3007
 1002MOL0     H35208   5.063   9.799   7.336 -1.2932  0.3842  0.1420
 1002MOL0     H35209   5.263   9.910   7.272 -0.1836 -0.7529 -0.4716
 1002MOL0     H35210   5.151  10.016   7.372  3.6277  1.7128  0.1314
 1002MOL0     H35211   5.206  10.047   7.071  0.7300 -2.2279  0.5952
 1002MOL0     H35212   5.095  10.139   7.175  0.9191  1.1688  3.5101
 1002MOL0     H35213   5.260  10.227   7.315 -3.8220 -1.9953 -0.1123
 1002MOL0     H35214   5.389  10.128   7.246 -0.2193 -0.3598 -0.1199
 1002MOL0     H35215   5.369  10.233   7.026  0.5234 -0.4714  0.1851
 1002MOL0     H35216   5.254  10.350   7.102  0.0781 -1.1210 -1.9523
 1002MOL0     H35217   5.542  10.293   7.214  0.7241  0.9790  0.3780
 1002MOL0     H35218   5.441  10.417   7.267  2.0001 -1.4969  0.0665
 1002MOL0     H35219   5.553  10.409   6.986  0.3254 -1.2237  0.9299
 1002MOL0     H35220   5.463  10.542   7.044 -2.3149 -1.6206  0.5761
 1002MOL0     H35221   5.594  10.698   7.231  1.3957  0.5252  1.0561
 1002MOL0     H35222   5.785  10.845   7.278 -1.1324 -0.4893  2.2206
 1002MOL0     H35223   5.824  10.731   7.410  1.3201 -0.2793 -0.4822
 1002MOL0     H35224   6.048  10.698   7.308  0.3198  1.1905  2.4851
 1002MOL0     H35225   6.004  10.824   7.178  0.7115 -1.1634 -0.2641
 1002MOL0     H35226   5.965  10.918   7.446  2.5817  2.8500  2.7441
 1002MOL0     H35227   6.059  10.995   7.320  2.3348  1.1926  3.4355
 1002MOL0     H35228   6.165  10.766   7.498  0.2573  0.5315 -0.6158
 1002MOL0     H35229   6.193  10.932   7.536 -1.6449  1.9173 -1.6427
 1002MOL0     H35230   6.374  10.800   7.617 -0.2690  0.1564 -1.7894
 1002MOL0     H35231   6.596  10.804   7.681  1.8205  2.4945  0.8942
 1002MOL0     H35232   7.021  10.647   7.622 -1.7999 -0.2159  1.9749
 1002MOL0     H35233   7.247  10.633   7.692 -2.7801 -1.5070  0.0123
 1002MOL0     H35234   7.413  10.972   7.948  4.4005  0.4423  1.5534
 1002MOL0     H35235   7.349  10.847   8.057  1.4703 -2.3699  0.3759
 1002MOL0     H35236   7.547  10.708   8.016  3.0513 -1.2119 -2.0966
 1002MOL0     H35237   7.628  10.821   7.912 -0.3792 -2.5520 -0.7676
 1002MOL0     H35238   7.568  10.997   8.116 -2.6885 -1.2275 -0.5492
 1002MOL0     H35239   7.587  10.851   8.212 -1.6451  0.6019  0.1801
 1002MOL0     H35240   7.800  10.963   8.019  2.7127 -2.3765 -0.6652
 1002MOL0     H35241   7.811  10.808   8.105 -0.8835 -0.7344  1.2109
 1002MOL0     H35242   7.777  10.924   8.321  0.1292 -0.0890 -0.0576
 1002MOL0     H35243   7.734  11.069   8.231  0.6289  0.4175  1.4517
 1002MOL0     H35244   7.992  10.918   8.200  2.5347 -0.0097 -0.2618
 1002MOL0     H35245   7.980  11.089   8.151 -1.0499  0.6745  0.9865
 1002MOL0     H35246   7.935  11.051   8.441 -3.9913 -0.0630 -4.2742
 1002MOL0     H35247   8.029  11.171   8.373  1.8425 -0.3851 -0.8748
 1002MOL0     H35248   8.176  11.024   8.497  1.5112  0.3794 -0.1118
 1002MOL0     H35249   8.143  10.894   8.385  0.0916 -0.6004  3.8628
 1002MOL0     H35250   7.191  10.979   7.926  0.6778 -0.8426 -0.7878
 1002MOL0     H35251   6.957  11.005   7.827  0.1872  1.6302 -3.5707
 1002MOL0     H35252   6.707  10.946   7.286 -0.9721  1.0609 -0.7061
 1002MOL0     H35253   6.473  10.944   7.218 -2.0756 -1.5297  0.2770
 1002MOL0     H35254   4.719  10.026   7.363 -1.3224 -4.6145 -1.1514
 1002MOL0     H35255   4.474  10.088   7.358  1.7900  0.2555  0.9666
 1002MOL0     H35256   4.169  10.320   7.176  0.0171 -0.4469  0.8609
 1002MOL0     H35257   3.950  10.394   7.192  1.3385  0.1440  0.4624
 1002MOL0     H35258   3.568  10.154   7.251 -2.9015 -3.0325 -0.8315
 1002MOL0     H35259   3.650  10.064   7.130  4.5640  0.9844  2.6779
 1002MOL0     H35260   3.500  10.326   7.052 -3.4800 -0.4681  0.4635
 1002MOL0     H35261   3.411  10.171   7.082 -0.1140 -1.9412 -2.3487
 1002MOL0     H35262   3.524  10.057   6.911 -0.0026  0.2804 -0.2363
 1002MOL0     H35263   3.620  10.216   6.881  0.2068  1.8118  2.4407
 1002MOL0     H35264   3.415  10.328   6.810  0.9633  0.0091 -0.1667
 1002MOL0     H35265   3.473  10.212   6.714  1.5136  1.3987  0.8584
 1002MOL0     H35266   3.096  10.050   6.842 -0.3959  0.8030 -2.2258
 1002MOL0     H35267   3.816  10.017   7.017  1.8413  0.9117 -2.0307
 1002MOL0     H35268   4.112   9.871   7.030  0.1313  1.0659  1.1784
 1002MOL0     H35269   3.947   9.863   6.972 -0.2022  0.1807  0.0357
 1002MOL0     H35270   4.079   9.936   6.872  1.4879  1.8780  1.3031
 1003MOL0     O35271   8.518   4.159   0.054 -0.3706 -0.1601 -0.8768
 1003MOL0     C35272   8.487   4.046   0.071 -1.3917  0.4036  0.9496
 1003MOL0     O35273   8.573   3.942   0.115  0.9401  0.4194  0.8409
 1003MOL0     C35274   8.701   3.967   0.157 -0.2082 -0.1846  0.1359
 1003MOL0     C35275   8.732   3.923   0.276 -0.1101 -0.0792  0.3629
 1003MOL0     C35276   8.854   3.951   0.337 -0.1672  0.4023  0.2750
 1003MOL0     C35277   8.941   4.037   0.267  0.1190  0.0534 -0.4323
 1003MOL0     O35278   9.053   4.091   0.335 -0.2237  0.4212  0.2746
 1003MOL0     C35279   9.124   4.007   0.431 -0.0215  0.6044  0.0060
 1003MOL0     C35280   9.242   4.086   0.492  0.0830 -0.0561 -0.1778
 1003MOL0     C35281   9.346   4.104   0.380 -0.1570 -0.3920 -1.0315
 1003MOL0     C35282   9.434   4.215   0.409 -0.0029 -0.3891  1.1856
 1003MOL0     C35283   9.515   4.255   0.290  0.1703  0.2012 -0.0840
 1003MOL0     C35284   9.574   4.395   0.296 -1.4264  0.3564 -0.3807
 1003MOL0     C35285   9.684   4.418   0.408  0.0805 -0.2636 -0.3407
 1003MOL0     C35286   9.765   4.542   0.360  0.3230 -0.2593  0.0854
 1003MOL0     N35287   9.861   4.515   0.261 -0.5372 -0.0376  0.3329
 1003MOL0     C35288   9.924   4.619   0.187 -0.6253  0.0562  0.3921
 1003MOL0     C35289  10.005   4.550   0.107 -0.1957  0.3661 -0.2473
 1003MOL0     C35290  10.113   4.603   0.021 -0.6940 -0.1844 -0.0850
 1003MOL0     C35291  10.256   4.624   0.084  0.0358 -0.0790 -0.6375
 1003MOL0     C35292  10.313   4.489   0.142 -0.3858  0.1623 -0.2242
 1003MOL0     C35293  10.438   4.520   0.221  0.2609 -0.8159 -0.0564
 1003MOL0     O35294  10.484   4.399   0.280  0.1329 -0.1428  0.5638
 1003MOL0     C35295  10.610   4.358   0.243  0.2603  0.1943 -0.9889
 1003MOL0     C35296  10.662   4.361   0.116 -0.7185  0.4749  0.6907
 1003MOL0     C35297  10.798   4.325   0.094  0.1617  0.1188  0.5249
 1003MOL0     C35298  10.883   4.273   0.201 -0.1320 -0.2833  0.1256
 1003MOL0     C35299  11.011   4.221   0.164 -0.1936  0.2273  0.4300
 1003MOL0     O35300  11.079   4.276   0.053 -0.6829  0.0443 -0.5102
 1003MOL0     C35301  11.212   4.232   0.019  0.3374  0.4780  0.3227
 1003MOL0     C35302  11.246   4.261  -0.113  0.2229 -0.2836  0.8553
 1003MOL0     C35303  11.377   4.240  -0.162  0.3887  0.2291  0.5724
 1003MOL0     C35304  11.482   4.195  -0.076  0.9563 -0.1792 -0.0655
 1003MOL0     O35305  11.611   4.177  -0.118 -0.0751 -0.6951  0.1031
 1003MOL0     C35306  11.637   4.168  -0.260 -0.4870  0.6639 -0.0508
 1003MOL0     C35307  11.778   4.110  -0.274 -0.2069 -0.5387  0.5841
 1003MOL0     C35308  11.849   4.137  -0.402 -0.5237  0.0522  0.6190
 1003MOL0     C35309  11.966   4.244  -0.399 -1.0609 -0.7075  0.2360
 1003MOL0     C35310  12.003   4.264  -0.547 -0.4698 -0.0376  0.5719
 1003MOL0     C35311  12.098   4.374  -0.567 -0.6908 -0.0322  0.1996
 1003MOL0     C35312  12.131   4.392  -0.715  0.2148  0.3028 -0.1805
 1003MOL0     C35313  12.254   4.480  -0.743 -0.0999  0.1756  0.5412
 1003MOL0    Cl35314  12.241   4.630  -0.646 -0.2821 -0.3317  0.0459
 1003MOL0     C35315  11.451   4.169   0.058 -0.4183  0.1300  0.6054
 1003MOL0     C35316  11.317   4.184   0.101 -0.8363 -0.5459 -0.2586
 1003MOL0     O35317  11.063   4.148   0.249  0.4324  0.1706  0.3712
 1003MOL0     C35318  10.829   4.269   0.334  0.2124  0.9128  0.9015
 1003MOL0     C35319  10.690   4.306   0.346  0.0334  0.6670 -0.3647
 1003MOL0     N35320   9.985   4.416   0.115  0.2699 -0.8903 -0.2065
 1003MOL0     N35321   9.894   4.392   0.210 -0.8501 -0.1908  0.0885
 1003MOL0     C35322   8.911   4.086   0.146  0.1844  0.1710  0.4600
 1003MOL0     C35323   8.788   4.053   0.082 -0.2735 -0.4822  0.1923
 1003MOL0     C35324   8.346   4.003   0.044 -0.9307 -0.4239  0.3786
 1003MOL0     C35325   8.318   3.865   0.066 -1.3321 -0.1939 -0.7277
 1003MOL0     C35326   8.192   3.814   0.037 -0.2958 -0.5242  0.5755
 1003MOL0     C35327   8.084   3.888  -0.012 -0.0351  0.2150  0.4831
 1003MOL0     O35328   7.963   3.828  -0.044  0.5530  0.7879  0.0805
 1003MOL0     C35329   7.867   3.897  -0.131  0.0591  0.2002 -0.0650
 1003MOL0     C35330   7.779   3.813  -0.222  0.4839 -0.6630 -0.2003
 1003MOL0     C35331   7.668   3.898  -0.276  0.4398  0.0911 -0.3675
 1003MOL0     C35332   7.564   3.822  -0.350  0.7534 -0.1591  0.4001
 1003MOL0     C35333   7.516   3.701  -0.270  0.3037  0.8969 -0.6960
 1003MOL0     C35334   7.471   3.599  -0.217  0.3462  0.0788  0.2986
 1003MOL0     C35335   8.119   4.027  -0.037  0.2356  0.5995 -0.6835
 1003MOL0     C35336   8.240   4.087  -0.001  0.2697 -0.5723  0.5263
 1003MOL0     C35337   8.252   4.229  -0.038 -0.4012 -0.6909 -0.2263
 1003MOL0     H35338   8.652   3.878   0.333 -0.6434  0.0265 -0.3022
 1003MOL0     H35339   8.860   3.901   0.434 -2.9247 -0.2796  0.1937
 1003MOL0     H35340   9.068   3.980   0.521  1.6139 -0.9140  0.6405
 1003MOL0     H35341   9.155   3.914   0.382  0.2392 -0.5951  2.3209
 1003MOL0     H35342   9.298   4.024   0.563 -0.8502 -1.0638 -0.2960
 1003MOL0     H35343   9.203   4.176   0.541 -0.1027 -0.2065 -0.0470
 1003MOL0     H35344   9.306   4.100   0.278  0.1586  0.8130 -1.2146
 1003MOL0     H35345   9.410   4.015   0.381 -1.4925 -1.3779 -0.8189
 1003MOL0     H35346   9.376   4.305   0.432  1.1359  0.8068 -0.4143
 1003MOL0     H35347   9.508   4.184   0.483 -0.1381 -1.0848  1.0376
 1003MOL0     H35348   9.592   4.177   0.286  0.6849  0.6721  0.4511
 1003MOL0     H35349   9.453   4.252   0.200 -0.2044 -0.1933  0.1852
 1003MOL0     H35350   9.613   4.412   0.196 -1.8254  1.1675 -0.4040
 1003MOL0     H35351   9.510   4.483   0.302 -2.7600 -0.5388 -1.0759
 1003MOL0     H35352   9.742   4.327   0.426  0.3516  0.2034  1.2660
 1003MOL0     H35353   9.640   4.445   0.505  0.5919 -0.5174 -0.0361
 1003MOL0     H35354   9.689   4.612   0.324 -1.3626 -2.8522 -1.7563
 1003MOL0     H35355   9.811   4.592   0.445  0.9129 -1.0075  0.2139
 1003MOL0     H35356   9.936   4.726   0.203 -1.5776  0.5035 -1.5737
 1003MOL0     H35357  10.122   4.550  -0.074  1.0344  2.0836 -1.2933
 1003MOL0     H35358  10.090   4.702  -0.020  2.4944  0.8633  0.4306
 1003MOL0     H35359  10.328   4.675   0.019  0.5728  0.3713  0.2951
 1003MOL0     H35360  10.239   4.690   0.169 -0.3283 -0.0873 -0.7003
 1003MOL0     H35361  10.347   4.416   0.068  0.4995  0.2722  0.0551
 1003MOL0     H35362  10.235   4.444   0.204 -0.0809  0.3851  0.3287
 1003MOL0     H35363  10.401   4.583   0.302  0.2660 -3.4555  2.1350
 1003MOL0     H35364  10.515   4.571   0.162 -0.7093 -0.7292 -1.2977
 1003MOL0     H35365  10.598   4.389   0.033 -0.7838 -1.0162  0.2072
 1003MOL0     H35366  10.836   4.321  -0.007  0.9487 -1.1206  0.8441
 1003MOL0     H35367  11.171   4.306  -0.176 -0.1097 -0.6143  1.0124
 1003MOL0     H35368  11.407   4.266  -0.263 -1.2678  2.9652  0.6557
 1003MOL0     H35369  11.566   4.100  -0.309  0.4731  0.6123 -1.4027
 1003MOL0     H35370  11.634   4.266  -0.308 -2.5557  1.0936  0.8521
 1003MOL0     H35371  11.831   4.147  -0.186 -2.1730  2.8746  0.5172
 1003MOL0     H35372  11.766   4.003  -0.255 -0.2791 -0.7971 -0.8333
 1003MOL0     H35373  11.900   4.050  -0.444  0.1286  0.4601  0.5513
 1003MOL0     H35374  11.778   4.176  -0.474  0.9764  0.4833 -0.6777
 1003MOL0     H35375  12.050   4.206  -0.340  0.3348  1.6951 -0.0371
 1003MOL0     H35376  11.938   4.338  -0.350 -0.4974 -0.7777  0.6980
 1003MOL0     H35377  11.922   4.307  -0.607  1.7446 -0.9442 -3.4079
 1003MOL0     H35378  12.046   4.170  -0.582  0.3602  0.1211  1.1435
 1003MOL0     H35379  12.063   4.469  -0.526 -1.7882 -0.1481 -0.4561
 1003MOL0     H35380  12.185   4.361  -0.502 -2.5474  1.0903  3.1120
 1003MOL0     H35381  12.046   4.432  -0.772  1.9808  0.1435 -3.1338
 1003MOL0     H35382  12.155   4.301  -0.770  1.6698  0.5985 -0.0793
 1003MOL0     H35383  12.337   4.416  -0.710 -1.9948 -2.7379  0.0329
 1003MOL0     H35384  12.259   4.495  -0.851 -1.8330 -2.3639  0.0105
 1003MOL0     H35385  11.528   4.130   0.123 -0.6890  1.1691  1.5737
 1003MOL0     H35386  11.304   4.183   0.209 -0.9267 -2.1299 -0.2646
 1003MOL0     H35387  10.891   4.236   0.416  1.3139 -0.4678 -0.4114
 1003MOL0     H35388  10.653   4.311   0.448  2.4467  0.6567  0.5761
 1003MOL0     H35389   8.978   4.153   0.094 -2.5484  0.5601 -2.9129
 1003MOL0     H35390   8.755   4.095  -0.012 -1.2348  0.7515  1.0329
 1003MOL0     H35391   8.381   3.787   0.107 -1.8607  0.1920  0.9005
 1003MOL0     H35392   8.169   3.710   0.060 -1.5693 -0.4230 -0.1488
 1003MOL0     H35393   7.925   3.960  -0.198 -0.1694  1.0254  0.5011
 1003MOL0     H35394   7.802   3.955  -0.065  0.9124 -2.4399  3.4045
 1003MOL0     H35395   7.745   3.726  -0.164  0.2623 -0.0717  0.5594
 1003MOL0     H35396   7.839   3.778  -0.307 -1.2273  0.0915 -1.8085
 1003MOL0     H35397   7.706   3.980  -0.338 -0.9516  0.5336 -0.6775
 1003MOL0     H35398   7.606   3.937  -0.195 -1.4559  0.7313 -2.0324
 1003MOL0     H35399   7.475   3.883  -0.364  0.7835 -0.2399 -0.1550
 1003MOL0     H35400   7.605   3.799  -0.448 -1.7506  1.4439 -1.1307
 1003MOL0     H35401   7.444   3.512  -0.162  0.6277  0.2385  0.6919
 1003MOL0     H35402   8.038   4.087  -0.079  0.9468  0.9216 -1.6084
 1003MOL0     H35403   8.300   4.247  -0.135  0.8123  0.6713  0.5928
 1003MOL0     H35404   8.155   4.279  -0.051 -0.2714 -0.7386 -1.4981
 1003MOL0     H35405   8.317   4.274   0.038 -0.2276  0.3130 -0.9391
 1004MOL0     O35406   6.486   6.051   9.017 -1.0111  0.0199  0.4264
 1004MOL0     C35407   6.493   5.940   8.975  0.5273 -0.6415  0.0281
 1004MOL0     O35408   6.603   5.884   8.916 -0.3848 -0.0049  0.1559
 1004MOL0     C35409   6.727   5.944   8.917  0.1858  0.1751 -1.3649
 1004MOL0     C35410   6.773   6.022   9.021  0.3962 -0.0268 -1.0184
 1004MOL0     C35411   6.898   6.086   9.019  0.4290  0.1225  0.7282
 1004MOL0     C35412   6.974   6.081   8.896  0.2127 -0.0030 -0.1636
 1004MOL0     O35413   7.098   6.137   8.881 -0.2022 -0.4219  0.5099
 1004MOL0     C35414   7.186   6.139   8.996 -0.5371  0.1689  0.4160
 1004MOL0     C35415   7.270   6.272   8.995 -0.1548 -0.2583  0.5126
 1004MOL0     C35416   7.379   6.275   8.878  0.1718 -0.0693 -0.9381
 1004MOL0     C35417   7.495   6.365   8.919 -0.1599 -0.1198 -0.1710
 1004MOL0     C35418   7.590   6.364   8.795 -0.5775  0.4353 -0.2461
 1004MOL0     C35419   7.718   6.443   8.828 -0.0044 -0.0431  0.5085
 1004MOL0     C35420   7.814   6.468   8.706 -0.0307  0.0761  0.1613
 1004MOL0     C35421   7.909   6.593   8.726 -0.7215  0.0652  0.2831
 1004MOL0     N35422   7.855   6.717   8.672  0.2252 -0.2087 -0.6001
 1004MOL0     C35423   7.894   6.840   8.721 -0.7078  0.8966 -0.5446
 1004MOL0     C35424   7.823   6.924   8.645  0.3531 -0.2070  0.7582
 1004MOL0     C35425   7.813   7.071   8.664  0.1743 -0.3187 -0.1122
 1004MOL0     C35426   7.939   7.146   8.632 -0.8270 -0.2625 -0.6130
 1004MOL0     C35427   7.929   7.298   8.664  0.3997  0.2177 -0.0243
 1004MOL0     C35428   8.066   7.359   8.641 -0.1603 -0.3804  0.5182
 1004MOL0     O35429   8.142   7.314   8.751  0.0426  0.0848 -0.2870
 1004MOL0     C35430   8.281   7.345   8.756  0.4462  0.3247 -0.7577
 1004MOL0     C35431   8.347   7.301   8.869  0.7905  0.1471  0.2371
 1004MOL0     C35432   8.484   7.310   8.889 -0.8487  0.1420 -0.1293
 1004MOL0     C35433   8.564   7.377   8.797 -0.2612 -0.9096 -0.6828
 1004MOL0     C35434   8.707   7.415   8.824 -0.0822  0.1816 -0.3506
 1004MOL0     O35435   8.767   7.505   8.730 -0.0793  0.3433  0.0628
 1004MOL0     C35436   8.901   7.537   8.736 -0.1530 -0.2363 -0.1533
 1004MOL0     C35437   8.998   7.441   8.742 -0.0530 -0.1621 -0.0836
 1004MOL0     C35438   9.133   7.486   8.751  0.6639  0.7129  0.9207
 1004MOL0     C35439   9.161   7.627   8.758 -0.0653 -0.3290  0.1128
 1004MOL0     O35440   9.293   7.667   8.777 -0.3941 -0.1109  0.5938
 1004MOL0     C35441   9.405   7.597   8.720 -0.5241  0.1019  0.0243
 1004MOL0     C35442   9.538   7.682   8.748 -0.3605  0.0285 -0.4157
 1004MOL0     C35443   9.655   7.620   8.677  0.0382 -0.0004  0.4491
 1004MOL0     C35444   9.783   7.708   8.686  0.0831 -0.4504  0.2176
 1004MOL0     C35445   9.893   7.642   8.593 -0.0991 -0.0266 -1.0899
 1004MOL0     C35446   9.947   7.509   8.650  0.3752 -1.2983 -0.0882
 1004MOL0     C35447  10.095   7.473   8.631  0.0489 -0.1417 -0.7780
 1004MOL0     C35448  10.133   7.330   8.664 -0.0983  0.7840 -0.5426
 1004MOL0    Cl35449  10.311   7.297   8.622 -0.1435  0.2732 -0.3184
 1004MOL0     C35450   9.054   7.720   8.760 -0.6783 -0.4396  0.1219
 1004MOL0     C35451   8.929   7.672   8.749 -0.4171  0.1872 -0.1020
 1004MOL0     O35452   8.767   7.367   8.920 -0.1590 -0.3897 -0.7076
 1004MOL0     C35453   8.497   7.432   8.684 -0.3568  0.5065  0.1738
 1004MOL0     C35454   8.362   7.412   8.668  0.5627 -0.6214 -0.3460
 1004MOL0     N35455   7.775   6.856   8.536  0.6322 -0.4733 -0.0544
 1004MOL0     N35456   7.782   6.730   8.560  0.2406 -0.0707  0.9192
 1004MOL0     C35457   6.920   6.011   8.790 -0.0170 -0.1892  0.4324
 1004MOL0     C35458   6.805   5.943   8.800  0.8927  0.8933  0.0704
 1004MOL0     C35459   6.379   5.856   8.999  0.1451 -0.0083  1.2919
 1004MOL0     C35460   6.406   5.731   9.057  0.1230  0.7044 -0.1497
 1004MOL0     C35461   6.303   5.647   9.093 -0.1883 -0.1823 -0.5774
 1004MOL0     C35462   6.167   5.682   9.081 -0.5085 -0.4002  0.3784
 1004MOL0     O35463   6.063   5.596   9.121 -0.3732 -0.5110 -1.0230
 1004MOL0     C35464   5.971   5.559   9.023 -0.6381 -0.4398 -0.7588
 1004MOL0     C35465   6.029   5.477   8.911  0.0017  0.3660  0.1377
 1004MOL0     C35466   6.130   5.371   8.956 -0.1466  0.6963  0.5575
 1004MOL0     C35467   6.082   5.267   9.055 -0.1261  1.0501 -0.8639
 1004MOL0     C35468   5.979   5.187   8.991  0.7008  0.7984  0.1633
 1004MOL0     C35469   5.889   5.125   8.933 -0.2883  0.2242 -0.0202
 1004MOL0     C35470   6.136   5.811   9.022 -0.1082 -0.3830  0.3343
 1004MOL0     C35471   6.245   5.898   8.980  0.7809 -0.8046 -1.2690
 1004MOL0     C35472   6.210   6.039   8.951  0.9300 -1.3649 -0.5015
 1004MOL0     H35473   6.712   6.020   9.111  1.4414  1.0043 -0.2462
 1004MOL0     H35474   6.931   6.138   9.109  2.1977  1.1682 -0.4554
 1004MOL0     H35475   7.139   6.136   9.094  3.0534 -3.3581  2.2958
 1004MOL0     H35476   7.260   6.059   8.991 -0.6367  0.0075  1.4512
 1004MOL0     H35477   7.318   6.292   9.091  0.3166 -2.4852  0.8067
 1004MOL0     H35478   7.195   6.351   8.985  0.8141  1.5250  5.0019
 1004MOL0     H35479   7.340   6.323   8.788  1.0119 -1.8588 -2.3190
 1004MOL0     H35480   7.419   6.176   8.856  1.8801  0.3633  0.0259
 1004MOL0     H35481   7.468   6.468   8.943  0.8428  0.4843 -1.5236
 1004MOL0     H35482   7.552   6.307   8.992  1.1760 -2.2022 -2.6933
 1004MOL0     H35483   7.619   6.263   8.767 -2.7933  0.2748 -2.2858
 1004MOL0     H35484   7.528   6.408   8.717 -4.1103 -0.4636  1.8168
 1004MOL0     H35485   7.691   6.542   8.866  1.2522  0.5493 -0.1032
 1004MOL0     H35486   7.770   6.389   8.907  0.6632 -1.3452 -0.7744
 1004MOL0     H35487   7.758   6.470   8.612 -1.2849  1.1103  0.8945
 1004MOL0     H35488   7.877   6.380   8.690  0.5569  0.4619  0.3197
 1004MOL0     H35489   7.940   6.607   8.830 -1.3091  0.5264  0.3971
 1004MOL0     H35490   8.006   6.576   8.677  0.6981 -0.6630  3.1191
 1004MOL0     H35491   7.953   6.865   8.809  1.9638  0.0977 -2.0149
 1004MOL0     H35492   7.730   7.118   8.610  1.2212  1.3374 -0.3640
 1004MOL0     H35493   7.784   7.083   8.768  0.7783  4.1541 -0.2452
 1004MOL0     H35494   8.026   7.107   8.685 -1.5515 -3.4554 -1.5564
 1004MOL0     H35495   7.952   7.139   8.524 -3.5340 -1.2991 -0.9565
 1004MOL0     H35496   7.896   7.308   8.768 -2.5776 -0.9792 -0.7502
 1004MOL0     H35497   7.854   7.338   8.595 -2.7189 -1.3821  2.1515
 1004MOL0     H35498   8.052   7.468   8.643 -0.7574 -0.4354 -0.1984
 1004MOL0     H35499   8.110   7.337   8.544  1.2920  2.5374  0.3898
 1004MOL0     H35500   8.279   7.258   8.942 -0.8020  2.1791  0.0191
 1004MOL0     H35501   8.541   7.274   8.974 -1.5984 -0.4269  0.1459
 1004MOL0     H35502   8.969   7.336   8.746 -1.0608  0.1548  2.1079
 1004MOL0     H35503   9.210   7.410   8.753 -1.3153 -1.4113  0.5992
 1004MOL0     H35504   9.425   7.500   8.766  0.4754  0.8044  1.1181
 1004MOL0     H35505   9.393   7.577   8.613 -0.6809 -0.3943  0.1296
 1004MOL0     H35506   9.524   7.784   8.712 -0.8025  0.0813 -0.1018
 1004MOL0     H35507   9.553   7.697   8.856 -0.3668  2.7221 -0.7180
 1004MOL0     H35508   9.679   7.526   8.727  1.0098  1.1270  2.2006
 1004MOL0     H35509   9.626   7.600   8.573  0.8099  0.1461  0.1953
 1004MOL0     H35510   9.822   7.708   8.788 -0.2294  2.7549  0.4443
 1004MOL0     H35511   9.770   7.812   8.657  1.1913 -0.0172  1.1803
 1004MOL0     H35512   9.983   7.702   8.580 -0.1822  0.3510 -0.0287
 1004MOL0     H35513   9.847   7.632   8.494 -1.8230  0.8540 -0.4368
 1004MOL0     H35514   9.924   7.508   8.757 -0.0463 -0.2351 -0.1592
 1004MOL0     H35515   9.897   7.427   8.597  2.9559 -2.6069 -0.6289
 1004MOL0     H35516  10.157   7.551   8.677 -2.0791  1.0172  0.2748
 1004MOL0     H35517  10.130   7.486   8.528  0.7079  0.3255 -0.5065
 1004MOL0     H35518  10.125   7.303   8.770  1.1421  0.5358 -0.4949
 1004MOL0     H35519  10.069   7.267   8.602  1.3832 -2.2411  0.7972
 1004MOL0     H35520   9.080   7.825   8.760 -0.1194 -0.5746 -0.5386
 1004MOL0     H35521   8.846   7.741   8.735 -2.0063 -1.4379  0.8813
 1004MOL0     H35522   8.545   7.491   8.606 -1.8070  1.8672  0.2742
 1004MOL0     H35523   8.324   7.458   8.577  0.5580  0.0210 -0.0288
 1004MOL0     H35524   6.974   5.990   8.698  0.5907 -0.7364  0.9073
 1004MOL0     H35525   6.763   5.888   8.716  0.2019  0.7827  0.4835
 1004MOL0     H35526   6.507   5.692   9.061 -0.8946 -2.3808 -1.4372
 1004MOL0     H35527   6.331   5.553   9.142  2.1952  0.4559 -0.5817
 1004MOL0     H35528   5.921   5.646   8.978 -0.4576  0.5720  0.9136
 1004MOL0     H35529   5.894   5.502   9.076  1.9512 -1.6098  2.0172
 1004MOL0     H35530   6.086   5.541   8.842 -0.7429  0.7222 -0.1503
 1004MOL0     H35531   5.945   5.428   8.861  0.7199  1.2663 -2.1175
 1004MOL0     H35532   6.222   5.419   8.992  0.1479  0.7157 -0.2129
 1004MOL0     H35533   6.157   5.325   8.861  1.1949  1.9062  0.3076
 1004MOL0     H35534   6.165   5.203   9.083 -0.3797  0.5227 -1.2997
 1004MOL0     H35535   6.050   5.314   9.148 -0.3821 -0.8630  0.0515
 1004MOL0     H35536   5.820   5.061   8.882 -0.1526 -0.7537  0.9772
 1004MOL0     H35537   6.033   5.825   8.992  0.0896 -1.5028 -1.0017
 1004MOL0     H35538   6.250   6.086   8.860  1.4334 -1.4958 -0.3505
 1004MOL0     H35539   6.101   6.049   8.946  0.9135 -1.6752 -0.7624
 1004MOL0     H35540   6.243   6.093   9.040 -1.7832  0.3601 -0.4082
 1005MOL0     O35541  11.185   9.995   1.449  0.5642 -0.0894 -0.0262
 1005MOL0     C35542  11.158   9.916   1.356 -0.0782 -0.8787 -0.3543
 1005MOL0     O35543  11.251   9.842   1.283  0.1444  0.0897  0.7533
 1005MOL0     C35544  11.384   9.853   1.308 -0.0817 -0.0609  0.5379
 1005MOL0     C35545  11.450   9.966   1.264  0.2573  0.2375 -0.8835
 1005MOL0     C35546  11.589   9.978   1.270  0.6964  0.2748 -1.0062
 1005MOL0     C35547  11.665   9.875   1.336  0.0856 -0.6198  0.2796
 1005MOL0     O35548  11.796   9.878   1.357 -0.5723  0.6053 -0.2037
 1005MOL0     C35549  11.876   9.981   1.292 -0.4655 -0.2787  0.0174
 1005MOL0     C35550  12.028   9.968   1.315 -0.5775  0.0249  0.4262
 1005MOL0     C35551  12.074   9.830   1.273 -0.6821 -0.4661 -0.4391
 1005MOL0     C35552  12.227   9.817   1.277 -0.2888  0.3010 -1.4667
 1005MOL0     C35553  12.279   9.694   1.192  0.3266 -0.1366 -0.6060
 1005MOL0     C35554  12.435   9.698   1.187  0.1334 -0.9481 -0.7434
 1005MOL0     C35555  12.502   9.640   1.302  0.4957  1.0778  0.0110
 1005MOL0     C35556  12.651   9.654   1.279 -1.0537  0.1116  0.1549
 1005MOL0     N35557  12.733   9.589   1.374  0.2722 -0.6190 -0.6246
 1005MOL0     C35558  12.721   9.458   1.415 -0.2138 -0.0210 -0.0099
 1005MOL0     C35559  12.820   9.440   1.506 -0.2215 -0.0671  0.0846
 1005MOL0     C35560  12.852   9.316   1.571 -0.0173 -0.2290  0.4088
 1005MOL0     C35561  12.965   9.246   1.497 -0.3901 -0.5312  0.1465
 1005MOL0     C35562  13.107   9.309   1.512 -0.0336  0.3033 -0.2219
 1005MOL0     C35563  13.161   9.297   1.656 -0.7913  0.3526  0.6127
 1005MOL0     O35564  13.305   9.327   1.664  0.1845 -0.3444  0.2705
 1005MOL0     C35565  13.391   9.220   1.634  0.2101 -1.4816  0.2805
 1005MOL0     C35566  13.365   9.089   1.596 -0.7793  0.2755  0.2223
 1005MOL0     C35567  13.472   8.996   1.578  0.3295 -0.8002 -0.1579
 1005MOL0     C35568  13.613   9.037   1.572  0.3007 -0.2068 -0.3570
 1005MOL0     C35569  13.721   8.939   1.540  0.4152 -0.6856 -0.1778
 1005MOL0     O35570  13.848   8.994   1.535  0.4135  0.0844 -0.1388
 1005MOL0     C35571  13.954   8.916   1.487  0.1142 -0.2162  0.5008
 1005MOL0     C35572  14.081   8.952   1.530 -0.2857  0.1992  0.4650
 1005MOL0     C35573  14.191   8.891   1.467  0.1163 -0.3373 -0.7658
 1005MOL0     C35574  14.176   8.793   1.370 -0.3559 -0.4283  0.1272
 1005MOL0     O35575  14.302   8.753   1.334  0.8816  0.2858 -0.0679
 1005MOL0     C35576  14.316   8.694   1.210  0.5407 -0.8677 -0.1894
 1005MOL0     C35577  14.468   8.677   1.174 -0.0160 -0.2225  0.2893
 1005MOL0     C35578  14.531   8.553   1.237  0.3488 -0.6117  0.1195
 1005MOL0     C35579  14.688   8.559   1.231  0.4096  0.8573  0.2526
 1005MOL0     C35580  14.729   8.550   1.080 -0.3989 -0.0456  0.4853
 1005MOL0     C35581  14.882   8.561   1.061  0.0106  0.0060 -0.5751
 1005MOL0     C35582  14.926   8.500   0.918 -0.5377  0.2585 -0.1858
 1005MOL0     C35583  15.069   8.487   0.919 -0.6868 -0.4334 -0.1359
 1005MOL0    Cl35584  15.146   8.652   0.908  0.1669 -0.4098 -0.1032
 1005MOL0     C35585  14.045   8.748   1.336 -0.2304  0.0654  0.7710
 1005MOL0     C35586  13.935   8.814   1.395 -0.0765  0.2457  0.0548
 1005MOL0     O35587  13.694   8.821   1.545 -0.4255  0.1111  0.2164
 1005MOL0     C35588  13.629   9.178   1.588  0.5075 -0.0676  0.8197
 1005MOL0     C35589  13.525   9.264   1.624  0.7336 -0.2017  0.1563
 1005MOL0     N35590  12.875   9.563   1.533  0.0798  0.1040 -0.0133
 1005MOL0     N35591  12.821   9.653   1.456 -0.6868 -0.0968 -0.7231
 1005MOL0     C35592  11.597   9.771   1.392  0.5430  0.6337  0.5340
 1005MOL0     C35593  11.454   9.757   1.376  0.8173 -0.0899 -0.0258
 1005MOL0     C35594  11.014   9.915   1.303  0.2395  0.6880  0.3998
 1005MOL0     C35595  10.989   9.847   1.184  0.1379  0.5899  0.7200
 1005MOL0     C35596  10.860   9.836   1.126  0.1495  0.5990  0.5011
 1005MOL0     C35597  10.752   9.905   1.190 -0.4315  0.3258  0.6473
 1005MOL0     O35598  10.624   9.883   1.131  0.5964  0.5193 -0.6331
 1005MOL0     C35599  10.551   9.760   1.172 -0.1389  0.1713  0.0427
 1005MOL0     C35600  10.556   9.739   1.315  0.3459  0.8171 -0.1205
 1005MOL0     C35601  10.483   9.606   1.335 -0.2033 -0.5811 -0.0832
 1005MOL0     C35602  10.448   9.575   1.484  0.1261 -0.3432  0.8534
 1005MOL0     C35603  10.331   9.486   1.497 -0.1022 -0.3594 -0.4076
 1005MOL0     C35604  10.242   9.404   1.524  0.4524 -0.0033  0.3196
 1005MOL0     C35605  10.772   9.977   1.306 -0.5298  0.6807  0.0381
 1005MOL0     C35606  10.898   9.975   1.365 -0.3879 -0.3735  0.1944
 1005MOL0     C35607  10.910  10.054   1.492 -0.4940 -0.5978  0.5225
 1005MOL0     H35608  11.391  10.039   1.210  0.1798  0.6780 -0.2114
 1005MOL0     H35609  11.628  10.066   1.221 -3.3537  1.3369 -2.7195
 1005MOL0     H35610  11.853  10.004   1.188 -0.1101  0.9666  0.2060
 1005MOL0     H35611  11.854  10.073   1.346 -0.6697 -0.4194  0.1818
 1005MOL0     H35612  12.059   9.985   1.418  2.4210 -0.7062 -0.2664
 1005MOL0     H35613  12.079  10.040   1.249  0.7949 -1.6897 -0.4863
 1005MOL0     H35614  12.041   9.806   1.172  1.0640  0.8877 -1.3877
 1005MOL0     H35615  12.022   9.756   1.335  1.2158 -2.1095 -0.7113
 1005MOL0     H35616  12.282   9.906   1.246  0.6609  0.6145  0.9254
 1005MOL0     H35617  12.252   9.798   1.382  0.6549 -0.3244 -1.7960
 1005MOL0     H35618  12.244   9.605   1.245  0.4608 -0.5153 -1.1432
 1005MOL0     H35619  12.243   9.698   1.089  0.9797 -0.3553 -0.8491
 1005MOL0     H35620  12.462   9.639   1.099 -3.0593  0.0595 -2.5837
 1005MOL0     H35621  12.471   9.800   1.174  0.6355 -0.8291  1.1699
 1005MOL0     H35622  12.480   9.535   1.325  1.4218  1.3312  2.3687
 1005MOL0     H35623  12.482   9.696   1.394 -0.8947 -2.2731  1.9199
 1005MOL0     H35624  12.678   9.618   1.179  0.4241 -1.6283  1.1164
 1005MOL0     H35625  12.671   9.761   1.276  0.1893 -0.1186 -1.7353
 1005MOL0     H35626  12.664   9.378   1.369  2.5007 -0.7230 -2.4401
 1005MOL0     H35627  12.879   9.333   1.675  0.6798  0.4290  0.1298
 1005MOL0     H35628  12.761   9.255   1.581  0.1013 -0.2179  1.7874
 1005MOL0     H35629  12.973   9.141   1.530 -1.1238  0.0763  2.4689
 1005MOL0     H35630  12.925   9.245   1.395  0.7045  0.3800 -0.3028
 1005MOL0     H35631  13.092   9.414   1.486  0.8519  1.0614  2.1115
 1005MOL0     H35632  13.177   9.263   1.443  0.1222 -1.9508  1.3256
 1005MOL0     H35633  13.144   9.198   1.700 -1.3737  0.5711  0.8861
 1005MOL0     H35634  13.104   9.374   1.708 -0.2632 -0.1607  2.0007
 1005MOL0     H35635  13.268   9.040   1.604  0.1927 -1.6727  0.7177
 1005MOL0     H35636  13.448   8.892   1.563 -1.7494 -0.4379  0.4760
 1005MOL0     H35637  14.101   9.023   1.609 -0.7292  0.7627  0.0814
 1005MOL0     H35638  14.287   8.919   1.509 -1.8275  0.4843  3.6322
 1005MOL0     H35639  14.277   8.592   1.199 -1.4738  0.0070 -1.7300
 1005MOL0     H35640  14.276   8.759   1.132  2.6435  0.0987 -0.5448
 1005MOL0     H35641  14.466   8.658   1.067 -1.8393 -1.9915  0.5634
 1005MOL0     H35642  14.523   8.768   1.200  1.2713 -0.2453 -2.0684
 1005MOL0     H35643  14.501   8.551   1.342 -2.0224  1.1640 -0.4281
 1005MOL0     H35644  14.494   8.468   1.180  0.3754  0.5043 -1.6615
 1005MOL0     H35645  14.732   8.472   1.280 -0.6920 -0.6893 -1.3491
 1005MOL0     H35646  14.729   8.649   1.277 -1.4006  1.9336 -0.1188
 1005MOL0     H35647  14.687   8.635   1.026  0.0702  0.2118  0.5175
 1005MOL0     H35648  14.685   8.465   1.029 -0.1209  1.5302 -2.5837
 1005MOL0     H35649  14.916   8.665   1.069 -0.4110  0.0299  1.1115
 1005MOL0     H35650  14.930   8.508   1.143 -0.5373 -0.2212 -0.3940
 1005MOL0     H35651  14.891   8.551   0.828 -0.8711 -0.6127 -0.5542
 1005MOL0     H35652  14.889   8.398   0.909  0.5745 -0.1126 -0.6805
 1005MOL0     H35653  15.098   8.429   1.007 -1.4238  0.6374  0.8440
 1005MOL0     H35654  15.108   8.426   0.837  2.3784 -0.7002  1.3856
 1005MOL0     H35655  14.028   8.661   1.273  1.1769  0.3521 -0.0609
 1005MOL0     H35656  13.838   8.768   1.379  0.1101  0.3676 -1.5073
 1005MOL0     H35657  13.729   9.220   1.589  1.3087 -1.8127 -0.3563
 1005MOL0     H35658  13.538   9.372   1.627  0.0876 -0.1361  1.9597
 1005MOL0     H35659  11.654   9.696   1.446 -0.3936 -2.2210 -2.1000
 1005MOL0     H35660  11.407   9.673   1.426  0.3200  0.0671 -0.2275
 1005MOL0     H35661  11.061   9.781   1.137 -0.7418  1.2983 -1.8395
 1005MOL0     H35662  10.834   9.778   1.038  0.3156  1.6342 -0.2466
 1005MOL0     H35663  10.600   9.676   1.121 -4.0943 -1.4035 -1.5562
 1005MOL0     H35664  10.452   9.761   1.125  0.3053  0.7733 -0.9122
 1005MOL0     H35665  10.515   9.824   1.370 -2.2367  0.2761 -1.0803
 1005MOL0     H35666  10.659   9.730   1.350 -0.5804  1.0681  2.9397
 1005MOL0     H35667  10.542   9.524   1.293  0.5001  0.0666 -0.3913
 1005MOL0     H35668  10.388   9.616   1.282 -0.6166  0.4241  0.8001
 1005MOL0     H35669  10.529   9.515   1.526  1.5607  1.2605  0.4652
 1005MOL0     H35670  10.439   9.661   1.551  1.4397  0.4706  0.0143
 1005MOL0     H35671  10.151   9.353   1.547  1.0999 -1.6031 -0.4642
 1005MOL0     H35672  10.694  10.030   1.360  0.7614  1.2767  1.3977
 1005MOL0     H35673  10.813  10.073   1.539  0.1422  3.1938  0.5425
 1005MOL0     H35674  10.971  10.010   1.571 -0.3428  1.9158  1.8895
 1005MOL0     H35675  10.945  10.156   1.475 -3.3479  0.1191 -1.9310
 1006MOL0     O35676  10.361   7.394   5.137  0.2133 -0.3096  0.2841
 1006MOL0     C35677  10.305   7.315   5.205 -0.3717  0.3046 -0.1734
 1006MOL0     O35678  10.374   7.211   5.266  0.8905 -0.4323 -0.3919
 1006MOL0     C35679  10.505   7.234   5.289 -0.0993 -0.3017 -0.5216
 1006MOL0     C35680  10.594   7.133   5.268 -0.6151  0.2481 -0.2578
 1006MOL0     C35681  10.727   7.147   5.305 -0.0422  0.2827 -0.5283
 1006MOL0     C35682  10.769   7.270   5.366  0.3581 -0.1355  0.5624
 1006MOL0     O35683  10.896   7.299   5.408  0.4666  0.4440  0.4450
 1006MOL0     C35684  10.993   7.196   5.386  0.1351 -0.0204 -0.3226
 1006MOL0     C35685  11.140   7.231   5.415  0.3207  0.3057 -0.0009
 1006MOL0     C35686  11.222   7.104   5.442  0.9226  0.2486  0.0133
 1006MOL0     C35687  11.373   7.130   5.449 -0.2010 -0.1786 -0.1414
 1006MOL0     C35688  11.452   7.006   5.485 -0.0817 -0.5798  0.2414
 1006MOL0     C35689  11.598   7.056   5.508  0.9779  0.4146 -1.8583
 1006MOL0     C35690  11.687   6.932   5.500 -1.2980  0.1239 -0.1691
 1006MOL0     C35691  11.840   6.949   5.541  0.3354 -0.0427  0.5540
 1006MOL0     N35692  11.920   6.834   5.511  0.1555  0.7161 -0.4787
 1006MOL0     C35693  11.990   6.815   5.392  1.2267 -0.4075 -0.1071
 1006MOL0     C35694  12.086   6.721   5.422 -0.0838 -0.7141  0.7943
 1006MOL0     C35695  12.177   6.664   5.310 -0.2030  0.8057 -0.3241
 1006MOL0     C35696  12.324   6.679   5.334  0.1668 -1.2465  0.0850
 1006MOL0     C35697  12.367   6.650   5.477 -0.0664  0.5225  0.2881
 1006MOL0     C35698  12.520   6.621   5.486 -0.2609 -0.2566 -1.1092
 1006MOL0     O35699  12.602   6.739   5.487  0.2212  1.1158  0.1929
 1006MOL0     C35700  12.740   6.735   5.491  0.2904  0.1405 -0.6583
 1006MOL0     C35701  12.811   6.856   5.502 -0.0709 -0.3077  0.0728
 1006MOL0     C35702  12.950   6.860   5.502  0.1223 -0.5895  0.0238
 1006MOL0     C35703  13.019   6.738   5.480 -0.9140 -0.7058 -0.8455
 1006MOL0     C35704  13.166   6.744   5.494 -1.4917 -0.0158  0.1588
 1006MOL0     O35705  13.236   6.627   5.486  0.3373 -0.0359  0.6784
 1006MOL0     C35706  13.376   6.636   5.510 -0.1450  0.0460 -0.0931
 1006MOL0     C35707  13.463   6.584   5.410  0.4589 -1.1338 -0.2699
 1006MOL0     C35708  13.599   6.578   5.417  0.2214 -0.1112  0.4074
 1006MOL0     C35709  13.652   6.620   5.538 -0.1357 -0.9238 -0.2659
 1006MOL0     O35710  13.783   6.602   5.556 -0.1479 -0.5155 -0.6778
 1006MOL0     C35711  13.824   6.585   5.692 -0.5016 -0.6029 -0.3005
 1006MOL0     C35712  13.973   6.546   5.689 -0.1695  0.0532  0.6504
 1006MOL0     C35713  14.050   6.522   5.812  0.4318  0.8556 -1.4086
 1006MOL0     C35714  14.196   6.493   5.778  0.9626  0.7131  0.3417
 1006MOL0     C35715  14.288   6.470   5.895  0.0598  0.2213  0.1780
 1006MOL0     C35716  14.430   6.513   5.847 -0.7310 -0.0030 -0.2323
 1006MOL0     C35717  14.527   6.504   5.968  0.0907 -0.7380  0.0927
 1006MOL0     C35718  14.673   6.491   5.920 -0.3025 -0.2663  0.0097
 1006MOL0    Cl35719  14.701   6.320   5.869 -0.2279 -0.1686 -0.0064
 1006MOL0     C35720  13.571   6.672   5.643 -1.0792 -0.3392  0.6789
 1006MOL0     C35721  13.429   6.683   5.632  0.3433 -0.0069  0.8122
 1006MOL0     O35722  13.221   6.850   5.520  0.0012 -0.0316 -0.3036
 1006MOL0     C35723  12.951   6.620   5.456  0.1977 -0.2887 -0.4442
 1006MOL0     C35724  12.808   6.622   5.464 -0.1815 -0.4751  0.9403
 1006MOL0     N35725  12.063   6.676   5.554 -0.5028  0.9486  0.2809
 1006MOL0     N35726  11.964   6.743   5.600  0.6872 -0.3877 -0.1402
 1006MOL0     C35727  10.672   7.372   5.392 -1.0236  0.2209  0.0937
 1006MOL0     C35728  10.548   7.348   5.350  0.1689 -0.0504 -0.2370
 1006MOL0     C35729  10.167   7.289   5.176 -1.2366 -0.0477 -0.2058
 1006MOL0     C35730  10.126   7.157   5.183 -0.5097 -0.0625 -0.2862
 1006MOL0     C35731   9.988   7.126   5.169 -0.1919  0.3013  0.4052
 1006MOL0     C35732   9.894   7.231   5.138 -1.1394  0.2104  0.5532
 1006MOL0     O35733   9.765   7.209   5.120  0.0929  0.0569 -0.1987
 1006MOL0     C35734   9.709   7.193   5.257  0.8747  0.5576 -0.3147
 1006MOL0     C35735   9.567   7.234   5.265 -0.6034  0.8654 -0.6220
 1006MOL0     C35736   9.553   7.381   5.242  0.1914 -0.7979  0.2456
 1006MOL0     C35737   9.405   7.415   5.207 -0.2041  0.5346  0.3283
 1006MOL0     C35738   9.366   7.366   5.074  0.2751  0.1750 -0.1661
 1006MOL0     C35739   9.346   7.312   4.962  0.4779 -0.5435 -1.3238
 1006MOL0     C35740   9.940   7.366   5.145  0.1315 -0.0010 -0.0555
 1006MOL0     C35741  10.075   7.393   5.168 -0.3518  0.1821 -0.9747
 1006MOL0     C35742  10.111   7.541   5.155 -0.2120  0.3317  0.3074
 1006MOL0     H35743  10.560   7.051   5.205  0.4660  0.4060 -1.0864
 1006MOL0     H35744  10.788   7.064   5.271 -0.7195  0.4899 -2.4146
 1006MOL0     H35745  10.964   7.121   5.462  0.0871  0.8982  0.5854
 1006MOL0     H35746  10.985   7.155   5.285 -1.0479  1.5316 -0.8932
 1006MOL0     H35747  11.154   7.292   5.505 -4.0170  2.3183 -0.4264
 1006MOL0     H35748  11.180   7.278   5.325 -1.1939  0.8089 -0.4437
 1006MOL0     H35749  11.199   7.028   5.366  1.7487  0.5188 -0.5191
 1006MOL0     H35750  11.177   7.068   5.535 -1.3915 -1.0801 -1.5032
 1006MOL0     H35751  11.403   7.169   5.351  1.7088 -0.8913  0.1243
 1006MOL0     H35752  11.377   7.200   5.533 -2.6045  0.3155 -0.3644
 1006MOL0     H35753  11.416   6.947   5.569  0.5912 -0.1911  0.8158
 1006MOL0     H35754  11.437   6.941   5.399 -0.3412 -1.9461  1.2940
 1006MOL0     H35755  11.628   7.133   5.436 -0.3361  0.7123 -2.1094
 1006MOL0     H35756  11.587   7.102   5.607  1.6119 -3.8709  0.4840
 1006MOL0     H35757  11.690   6.901   5.395 -1.4359 -1.1365  0.1811
 1006MOL0     H35758  11.654   6.844   5.557 -1.2866  0.3618  0.2058
 1006MOL0     H35759  11.894   7.035   5.501 -0.7897  0.1960 -0.4940
 1006MOL0     H35760  11.851   6.967   5.649 -1.4849 -1.4379  1.0225
 1006MOL0     H35761  11.987   6.867   5.297  1.4276 -0.7667 -0.3112
 1006MOL0     H35762  12.145   6.563   5.286  1.6940 -0.5153  2.2616
 1006MOL0     H35763  12.151   6.724   5.222 -1.9848 -0.0636 -0.4424
 1006MOL0     H35764  12.378   6.608   5.271  0.3183 -0.3124 -0.8674
 1006MOL0     H35765  12.358   6.780   5.310 -1.4666 -1.2777 -2.8549
 1006MOL0     H35766  12.313   6.560   5.505  0.5051  0.0500 -0.1003
 1006MOL0     H35767  12.341   6.735   5.541 -0.3902  0.1505  0.6507
 1006MOL0     H35768  12.550   6.562   5.399 -0.2990 -0.8202 -0.7492
 1006MOL0     H35769  12.556   6.559   5.569  1.6168  0.7372 -1.1288
 1006MOL0     H35770  12.753   6.947   5.517 -2.4620 -1.9977  1.6599
 1006MOL0     H35771  12.999   6.954   5.523 -0.9463  0.1330 -0.6124
 1006MOL0     H35772  13.410   6.547   5.323 -1.5629  2.6813 -0.8727
 1006MOL0     H35773  13.666   6.543   5.339 -0.9487  1.4637 -1.3948
 1006MOL0     H35774  13.812   6.673   5.755 -2.0629 -0.1909 -1.1152
 1006MOL0     H35775  13.765   6.501   5.731  2.7832 -2.7259  0.4778
 1006MOL0     H35776  13.979   6.450   5.637 -1.0124 -0.1389  0.8916
 1006MOL0     H35777  14.028   6.618   5.627  0.6066 -0.8127  0.3133
 1006MOL0     H35778  14.049   6.611   5.876  2.9041  1.9372 -2.7028
 1006MOL0     H35779  14.005   6.441   5.870 -0.7040 -1.4569 -5.1529
 1006MOL0     H35780  14.221   6.586   5.727 -0.0481  1.1631  0.6294
 1006MOL0     H35781  14.205   6.412   5.706  0.2781  1.8812 -1.1200
 1006MOL0     H35782  14.289   6.368   5.934 -3.6021 -0.1014 -0.2109
 1006MOL0     H35783  14.266   6.539   5.978  2.7168  0.9892  0.3265
 1006MOL0     H35784  14.458   6.443   5.768 -2.9994 -1.0890 -0.1683
 1006MOL0     H35785  14.431   6.616   5.813  1.1533  0.7170  1.7784
 1006MOL0     H35786  14.506   6.415   6.028  0.9487 -2.0035 -1.4056
 1006MOL0     H35787  14.533   6.595   6.028  0.4026  0.0730 -1.1129
 1006MOL0     H35788  14.701   6.565   5.844 -1.7640  0.8269  0.5079
 1006MOL0     H35789  14.741   6.503   6.005 -3.0214  1.9891  2.0480
 1006MOL0     H35790  13.614   6.690   5.741  0.1560  0.9008 -0.0579
 1006MOL0     H35791  13.369   6.717   5.715  3.5667 -2.0894  4.3416
 1006MOL0     H35792  13.004   6.528   5.431  0.9271 -0.5561  1.8589
 1006MOL0     H35793  12.758   6.529   5.438 -0.4630  0.0100 -0.3205
 1006MOL0     H35794  10.705   7.465   5.438  0.3173  0.2147 -0.7968
 1006MOL0     H35795  10.478   7.428   5.371 -0.9660 -1.1754  0.4073
 1006MOL0     H35796  10.192   7.074   5.206 -0.6512 -0.2381 -0.4944
 1006MOL0     H35797   9.949   7.026   5.177  1.0083 -0.1078  1.4894
 1006MOL0     H35798   9.763   7.255   5.329  0.0406  1.8474 -0.7687
 1006MOL0     H35799   9.719   7.090   5.292  0.3307  1.5619  3.0640
 1006MOL0     H35800   9.530   7.204   5.363  1.0797 -2.0822 -0.7740
 1006MOL0     H35801   9.526   7.168   5.188  0.5518 -2.9844  1.7508
 1006MOL0     H35802   9.624   7.412   5.164  0.0245 -1.2410 -0.0892
 1006MOL0     H35803   9.571   7.437   5.334  1.3991  0.6905 -0.8403
 1006MOL0     H35804   9.339   7.365   5.279  0.6722  1.9081  2.1856
 1006MOL0     H35805   9.385   7.521   5.221 -0.6157  0.2645  2.1518
 1006MOL0     H35806   9.332   7.263   4.868  1.0295 -0.4358 -1.4589
 1006MOL0     H35807   9.878   7.454   5.129  0.4278  0.1438 -0.4340
 1006MOL0     H35808  10.017   7.594   5.173 -1.5477 -0.9537 -2.3078
 1006MOL0     H35809  10.189   7.579   5.220  2.5355 -1.9752 -1.4102
 1006MOL0     H35810  10.136   7.573   5.053  0.2042 -1.1347 -0.0767
 1007MOL0     O35811   7.820   5.825   0.830 -0.4099  0.0621  0.1045
 1007MOL0     C35812   7.754   5.766   0.918  0.5746  0.2770  0.2829
 1007MOL0     O35813   7.793   5.757   1.043  0.2333  0.2549  0.7677
 1007MOL0     C35814   7.911   5.806   1.082 -0.1326  0.0025 -0.7529
 1007MOL0     C35815   8.028   5.754   1.032 -0.8310  0.3567 -0.2803
 1007MOL0     C35816   8.153   5.791   1.090  0.1519  0.6885  0.1963
 1007MOL0     C35817   8.155   5.881   1.208  0.0404  0.0462  1.0705
 1007MOL0     O35818   8.272   5.910   1.277  0.7995  0.6973 -0.6598
 1007MOL0     C35819   8.399   5.863   1.218  0.0882  0.0874 -0.7942
 1007MOL0     C35820   8.514   5.924   1.292 -1.3064 -0.3469 -0.0821
 1007MOL0     C35821   8.652   5.868   1.249  0.3833  0.8966  0.5577
 1007MOL0     C35822   8.758   5.946   1.320 -0.3247 -0.4158  0.2267
 1007MOL0     C35823   8.894   5.873   1.312 -0.0283  0.2304 -0.2767
 1007MOL0     C35824   8.943   5.839   1.171 -0.8247  0.2044  0.1324
 1007MOL0     C35825   9.042   5.720   1.192  0.4482  1.4383 -0.2948
 1007MOL0     C35826   9.092   5.649   1.066 -0.0379  0.7685 -0.5594
 1007MOL0     N35827   9.132   5.748   0.967  0.1572  0.0270  0.7486
 1007MOL0     C35828   9.048   5.791   0.869 -0.3140 -0.3591  0.4142
 1007MOL0     C35829   9.115   5.887   0.810 -0.0458 -0.5977  0.5214
 1007MOL0     C35830   9.094   5.970   0.680  0.0264  0.0669 -0.4765
 1007MOL0     C35831   9.061   6.122   0.721  0.1894  0.2317  0.6199
 1007MOL0     C35832   9.129   6.231   0.639  0.4783  0.3764 -0.6269
 1007MOL0     C35833   9.144   6.362   0.721 -0.3006  0.1745 -0.3883
 1007MOL0     O35834   9.185   6.478   0.648 -0.2422  0.0662 -0.2949
 1007MOL0     C35835   9.322   6.503   0.625  0.2371  0.1858 -0.4810
 1007MOL0     C35836   9.362   6.636   0.582 -0.5723 -0.2313  0.6302
 1007MOL0     C35837   9.497   6.667   0.551 -0.7527 -0.1662  0.6244
 1007MOL0     C35838   9.596   6.563   0.563 -0.1757  0.5551  0.2966
 1007MOL0     C35839   9.739   6.582   0.532 -0.1377  0.2023  0.8517
 1007MOL0     O35840   9.826   6.504   0.596 -0.5766 -0.2399 -0.1334
 1007MOL0     C35841   9.963   6.520   0.586 -0.6044  0.0499 -0.2914
 1007MOL0     C35842  10.033   6.505   0.708  0.4151  0.5711  0.6046
 1007MOL0     C35843  10.169   6.501   0.717 -0.5343  0.2571  0.3990
 1007MOL0     C35844  10.245   6.513   0.596  0.3663  0.0879  0.8466
 1007MOL0     O35845  10.378   6.530   0.595  0.5003  0.0993  0.1281
 1007MOL0     C35846  10.452   6.408   0.625 -0.0423 -0.1417  0.4961
 1007MOL0     C35847  10.598   6.439   0.642 -0.5597  0.1335 -0.0921
 1007MOL0     C35848  10.666   6.495   0.512  0.5686  0.1076  0.2490
 1007MOL0     C35849  10.815   6.529   0.540 -0.0669 -0.0555  0.0477
 1007MOL0     C35850  10.905   6.511   0.427 -0.1783  0.7001  0.0995
 1007MOL0     C35851  11.054   6.538   0.468  0.5406 -0.2458  0.3924
 1007MOL0     C35852  11.149   6.548   0.349 -0.1354  0.6939 -0.9379
 1007MOL0     C35853  11.289   6.601   0.397  0.1895 -1.3134  0.7855
 1007MOL0    Cl35854  11.370   6.483   0.487 -0.1115 -0.2572  0.1859
 1007MOL0     C35855  10.175   6.544   0.482  0.7018 -0.0883  1.1213
 1007MOL0     C35856  10.035   6.550   0.472  0.5205  0.7034  0.4841
 1007MOL0     O35857   9.767   6.680   0.462  0.1640 -0.1508  0.6702
 1007MOL0     C35858   9.554   6.442   0.619 -0.6981  0.4937 -1.1263
 1007MOL0     C35859   9.418   6.409   0.648 -0.3157 -0.2716  0.0720
 1007MOL0     N35860   9.246   5.886   0.864  0.0451 -0.6670 -0.5806
 1007MOL0     N35861   9.254   5.806   0.958 -0.6130 -0.3044  0.0985
 1007MOL0     C35862   8.033   5.921   1.258  0.4379 -0.2444  0.0722
 1007MOL0     C35863   7.914   5.882   1.202 -0.1372  0.1297 -0.0068
 1007MOL0     C35864   7.633   5.696   0.875 -1.1123  0.7266  0.8724
 1007MOL0     C35865   7.631   5.554   0.879 -0.9003  0.4467  0.9555
 1007MOL0     C35866   7.518   5.483   0.853  0.2600 -0.6382  0.3211
 1007MOL0     C35867   7.399   5.553   0.840 -0.1175 -0.0319  0.1980
 1007MOL0     O35868   7.270   5.489   0.833  0.7505  0.1889  0.0793
 1007MOL0     C35869   7.261   5.345   0.853  0.0721 -0.5810  0.0550
 1007MOL0     C35870   7.116   5.311   0.846  0.2109  0.4832 -0.2383
 1007MOL0     C35871   7.069   5.295   0.698  0.3308 -0.4415  0.3174
 1007MOL0     C35872   6.920   5.325   0.689  0.0009 -0.5796  0.5429
 1007MOL0     C35873   6.831   5.238   0.763  0.2759 -0.2992 -0.1838
 1007MOL0     C35874   6.748   5.167   0.824 -0.7644  0.3193  0.1052
 1007MOL0     C35875   7.403   5.689   0.819 -0.3621  0.3134  0.1424
 1007MOL0     C35876   7.518   5.767   0.844  0.1902  0.2428  0.0433
 1007MOL0     C35877   7.509   5.922   0.822 -0.3136  0.4269 -0.5243
 1007MOL0     H35878   8.022   5.690   0.944  3.2389  2.7730 -2.6630
 1007MOL0     H35879   8.250   5.764   1.049  1.0931  3.4322  0.3915
 1007MOL0     H35880   8.408   5.755   1.229  1.5279  0.3470  1.1320
 1007MOL0     H35881   8.413   5.890   1.112  2.3137 -0.6576 -0.7343
 1007MOL0     H35882   8.488   5.921   1.398  0.0103  0.2634  0.2811
 1007MOL0     H35883   8.522   6.031   1.269  1.5222 -0.3785  0.4341
 1007MOL0     H35884   8.664   5.876   1.141  0.1986 -2.6280  0.1638
 1007MOL0     H35885   8.653   5.762   1.275 -2.1563  0.5567 -0.4766
 1007MOL0     H35886   8.766   6.044   1.272  0.6869 -1.6752 -2.3615
 1007MOL0     H35887   8.736   5.970   1.424  2.0393  1.0320  0.4821
 1007MOL0     H35888   8.972   5.937   1.354  1.6414 -0.5828 -2.0173
 1007MOL0     H35889   8.873   5.793   1.384 -2.2423  0.9224 -0.0642
 1007MOL0     H35890   8.865   5.826   1.096 -0.2228 -0.4797 -0.3895
 1007MOL0     H35891   9.013   5.918   1.139  1.2550 -0.0859  3.4287
 1007MOL0     H35892   8.992   5.636   1.241  0.3472  1.5535 -0.2001
 1007MOL0     H35893   9.119   5.751   1.263  0.6469 -2.8775  1.7041
 1007MOL0     H35894   9.181   5.593   1.096 -1.5784 -1.0083  0.8685
 1007MOL0     H35895   9.026   5.571   1.029  1.7219 -1.3693  0.5549
 1007MOL0     H35896   8.947   5.757   0.848 -0.5771 -0.9306  2.4033
 1007MOL0     H35897   9.184   5.971   0.618 -0.3932 -0.8656 -1.1092
 1007MOL0     H35898   9.015   5.932   0.615 -1.2495  5.0140 -2.2736
 1007MOL0     H35899   8.952   6.130   0.718  0.1717 -0.1044  0.3344
 1007MOL0     H35900   9.089   6.144   0.825  0.3899  1.8566  0.2491
 1007MOL0     H35901   9.061   6.251   0.556  0.9559  2.7494 -0.5197
 1007MOL0     H35902   9.231   6.203   0.608  0.7105  0.7681 -0.2242
 1007MOL0     H35903   9.219   6.347   0.799 -0.9068  0.3227  0.2330
 1007MOL0     H35904   9.059   6.390   0.784 -0.5219  1.6755 -1.3085
 1007MOL0     H35905   9.297   6.722   0.572  0.8187  0.7081 -0.7378
 1007MOL0     H35906   9.522   6.767   0.517  0.6470 -0.5423  0.5005
 1007MOL0     H35907   9.985   6.483   0.802 -0.1393 -1.3835 -0.0959
 1007MOL0     H35908  10.220   6.492   0.812  0.6234 -4.7305 -0.4360
 1007MOL0     H35909  10.421   6.367   0.721 -1.4339  0.1733  0.1993
 1007MOL0     H35910  10.444   6.325   0.553  2.4064 -0.6248  0.6886
 1007MOL0     H35911  10.610   6.512   0.723 -2.5387  0.0362  0.3388
 1007MOL0     H35912  10.654   6.350   0.671  0.2350  0.8910  0.8068
 1007MOL0     H35913  10.667   6.420   0.432  1.8798 -1.5009  1.6819
 1007MOL0     H35914  10.606   6.576   0.469  1.8978  0.8285 -0.2953
 1007MOL0     H35915  10.845   6.463   0.622 -0.0032  0.1906  0.2241
 1007MOL0     H35916  10.825   6.635   0.565 -0.1196 -0.3417  1.3119
 1007MOL0     H35917  10.874   6.585   0.352 -1.2247  0.9512  0.7632
 1007MOL0     H35918  10.914   6.406   0.395  2.3879  0.9625 -0.2550
 1007MOL0     H35919  11.070   6.639   0.508 -0.0435  0.0643 -0.1270
 1007MOL0     H35920  11.088   6.461   0.538 -2.7742 -0.2827  2.1447
 1007MOL0     H35921  11.115   6.617   0.272 -0.1268  1.1722 -0.5155
 1007MOL0     H35922  11.153   6.449   0.302  0.5322  0.1852  0.1630
 1007MOL0     H35923  11.343   6.618   0.304  0.7675 -1.0230  1.1633
 1007MOL0     H35924  11.278   6.699   0.445  0.0893  0.3996 -2.4962
 1007MOL0     H35925  10.234   6.555   0.392 -1.9177 -0.8281 -0.8050
 1007MOL0     H35926   9.978   6.559   0.380  1.1303  0.0619  0.0335
 1007MOL0     H35927   9.618   6.356   0.636 -4.6754 -2.3098  1.8029
 1007MOL0     H35928   9.390   6.309   0.678 -0.6707  0.0426  0.8125
 1007MOL0     H35929   8.026   5.984   1.346  0.1804 -0.3512  0.1288
 1007MOL0     H35930   7.827   5.934   1.241  0.6846  1.1621  0.5136
 1007MOL0     H35931   7.718   5.492   0.897 -0.7682  0.3298 -0.0542
 1007MOL0     H35932   7.509   5.377   0.874 -1.9463 -1.1640 -2.5310
 1007MOL0     H35933   7.303   5.339   0.954  1.0774  2.3354 -0.0892
 1007MOL0     H35934   7.320   5.283   0.786  1.0021  0.0556  0.2684
 1007MOL0     H35935   7.058   5.394   0.887 -1.0224 -0.0565 -0.8020
 1007MOL0     H35936   7.084   5.223   0.904  2.0086 -0.1366 -0.1383
 1007MOL0     H35937   7.097   5.195   0.664  2.9310  0.5180 -0.5520
 1007MOL0     H35938   7.125   5.368   0.638 -2.2951  1.5572  0.0627
 1007MOL0     H35939   6.892   5.426   0.719  1.8744 -0.1959  1.0782
 1007MOL0     H35940   6.892   5.318   0.583  1.3650 -2.5482  0.2778
 1007MOL0     H35941   6.670   5.115   0.877 -0.5723  0.4188  0.4893
 1007MOL0     H35942   7.310   5.742   0.799  0.1972  0.7897 -1.3270
 1007MOL0     H35943   7.561   5.950   0.730 -0.8103  1.5202 -0.4934
 1007MOL0     H35944   7.406   5.958   0.818 -0.1608  0.7572 -2.2698
 1007MOL0     H35945   7.559   5.960   0.911 -0.9680 -1.1507  0.5553
 1008MOL0     O35946   7.187   0.416   9.772 -0.3462 -0.1472 -0.1546
 1008MOL0     C35947   7.075   0.386   9.813  0.0782 -0.4667  0.2211
 1008MOL0     O35948   7.039   0.270   9.871 -0.7622  0.2402  0.3429
 1008MOL0     C35949   7.129   0.177   9.927 -0.3317 -1.2801 -0.6492
 1008MOL0     C35950   7.092   0.046   9.944  0.5838 -0.1586 -0.0029
 1008MOL0     C35951   7.173  -0.041  10.013 -0.0081  1.2497 -0.4498
 1008MOL0     C35952   7.301  -0.006  10.062 -0.6797 -0.8058 -0.7590
 1008MOL0     O35953   7.391  -0.096  10.115  0.4974 -0.0159 -0.0502
 1008MOL0     C35954   7.352  -0.236  10.116  0.0349 -0.1139 -0.0606
 1008MOL0     C35955   7.473  -0.317  10.161  0.5803 -0.4410 -0.5469
 1008MOL0     C35956   7.427  -0.462  10.162 -0.5342  0.1347  0.2447
 1008MOL0     C35957   7.505  -0.545  10.272 -0.5787  0.3473  0.5518
 1008MOL0     C35958   7.653  -0.550  10.263 -0.7636 -0.3395 -0.5827
 1008MOL0     C35959   7.716  -0.628  10.143 -0.1966  0.2487  0.2749
 1008MOL0     C35960   7.869  -0.630  10.148  0.5320 -0.4425  0.4494
 1008MOL0     C35961   7.938  -0.490  10.140  0.2603 -0.9978 -0.9642
 1008MOL0     N35962   8.072  -0.505  10.084 -0.5342 -0.3547  0.3053
 1008MOL0     C35963   8.127  -0.430   9.983  0.2304 -0.4616 -0.0118
 1008MOL0     C35964   8.258  -0.467   9.976 -0.6201 -0.1122  0.5939
 1008MOL0     C35965   8.356  -0.413   9.873 -0.4926  0.4775  0.3047
 1008MOL0     C35966   8.452  -0.314   9.934  0.2083  1.2832  0.0258
 1008MOL0     C35967   8.545  -0.281   9.814 -0.2115  0.1345  0.0207
 1008MOL0     C35968   8.654  -0.175   9.831 -0.4587  0.2830  0.3931
 1008MOL0     O35969   8.728  -0.204   9.948  0.0097 -0.7867 -0.0110
 1008MOL0     C35970   8.863  -0.220   9.930 -0.0507 -0.9650 -0.2689
 1008MOL0     C35971   8.937  -0.131   9.859  0.4067 -0.0047  0.2442
 1008MOL0     C35972   9.077  -0.131   9.847 -0.4785 -0.5098 -0.1006
 1008MOL0     C35973   9.143  -0.240   9.904 -0.2720 -0.6629  0.0963
 1008MOL0     C35974   9.290  -0.265   9.874 -0.4469  0.0466 -0.7063
 1008MOL0     O35975   9.361  -0.344   9.960  0.5997 -0.3737  0.4911
 1008MOL0     C35976   9.496  -0.358   9.957  0.5748 -0.3200  0.1628
 1008MOL0     C35977   9.543  -0.476   9.996 -1.0592  0.3357  0.8643
 1008MOL0     C35978   9.682  -0.501   9.993  0.1786 -0.4529  0.2844
 1008MOL0     C35979   9.771  -0.402   9.954  0.1329 -0.2446 -0.1565
 1008MOL0     O35980   9.899  -0.434   9.969 -0.2957  0.0749 -0.2671
 1008MOL0     C35981   9.997  -0.355   9.914 -0.2144  0.5535  0.2040
 1008MOL0     C35982  10.129  -0.402   9.959 -0.2568  0.1973  0.1622
 1008MOL0     C35983  10.248  -0.328   9.899  0.4202  0.0410  0.2447
 1008MOL0     C35984  10.369  -0.399   9.964 -0.3691 -0.6742  0.2166
 1008MOL0     C35985  10.495  -0.332   9.918  0.0839 -0.3128  0.3779
 1008MOL0     C35986  10.631  -0.364   9.984 -0.1880  0.4577 -0.5763
 1008MOL0     C35987  10.636  -0.345  10.136  0.5456  0.1004 -0.3399
 1008MOL0     C35988  10.768  -0.393  10.201  0.1881 -0.4582 -1.0529
 1008MOL0    Cl35989  10.819  -0.566  10.137  0.2151  0.2407  0.0925
 1008MOL0     C35990   9.723  -0.272   9.931  0.3414 -0.6539  0.3641
 1008MOL0     C35991   9.587  -0.258   9.918 -1.0229  0.5829  0.8133
 1008MOL0     O35992   9.333  -0.208   9.783  1.3255  0.3397 -0.2257
 1008MOL0     C35993   9.074  -0.330   9.988 -0.8127  0.6272 -0.3087
 1008MOL0     C35994   8.936  -0.311  10.003  0.5528 -0.3351 -0.5714
 1008MOL0     N35995   8.276  -0.565  10.074  1.0780  0.6097  0.4080
 1008MOL0     N35996   8.167  -0.583  10.143  0.1994  0.6506 -0.5610
 1008MOL0     C35997   7.329   0.133  10.064  0.2244 -0.4619 -0.5183
 1008MOL0     C35998   7.249   0.223   9.989 -0.0782  0.7714 -0.8604
 1008MOL0     C35999   6.978   0.502   9.800 -0.9761  0.2652 -0.0204
 1008MOL0     C36000   7.025   0.634   9.774  0.0310  0.0591  0.3386
 1008MOL0     C36001   6.937   0.736   9.735  0.6824 -0.1864  0.4363
 1008MOL0     C36002   6.797   0.714   9.740 -0.0343 -0.3886  0.2717
 1008MOL0     O36003   6.723   0.825   9.706  0.2433 -0.0973 -0.1813
 1008MOL0     C36004   6.663   0.902   9.803  0.4488 -0.3495 -1.2527
 1008MOL0     C36005   6.752   0.985   9.895 -0.5682 -0.4185  0.5652
 1008MOL0     C36006   6.833   1.088   9.810 -0.4112  0.1004 -0.4409
 1008MOL0     C36007   6.811   1.230   9.868  0.1971 -0.1243 -0.4565
 1008MOL0     C36008   6.873   1.332   9.790 -0.0072 -0.2205  1.2570
 1008MOL0     C36009   6.926   1.424   9.728  0.8513 -0.1378 -0.2832
 1008MOL0     C36010   6.748   0.590   9.779  0.4013 -0.8906 -0.2659
 1008MOL0     C36011   6.836   0.483   9.797 -0.1802  0.7529 -0.2648
 1008MOL0     C36012   6.765   0.342   9.822 -0.3733  0.0493  0.0942
 1008MOL0     H36013   7.000   0.007   9.902  1.0601 -1.7338  0.3615
 1008MOL0     H36014   7.133  -0.142  10.008 -2.8152  2.1497  1.5163
 1008MOL0     H36015   7.273  -0.244  10.191 -0.7325 -0.0218 -0.8382
 1008MOL0     H36016   7.308  -0.261  10.019  0.3232  0.8820 -0.4546
 1008MOL0     H36017   7.491  -0.289  10.266 -0.9055 -1.6666  0.0678
 1008MOL0     H36018   7.563  -0.321  10.098 -0.3579 -0.4125 -1.9210
 1008MOL0     H36019   7.440  -0.497  10.059  0.4032  1.5148 -0.1255
 1008MOL0     H36020   7.319  -0.469  10.182 -1.0351  0.8545 -1.9535
 1008MOL0     H36021   7.477  -0.511  10.372  0.9526  0.3800  0.9984
 1008MOL0     H36022   7.476  -0.650  10.259  0.2482  0.0818  0.7881
 1008MOL0     H36023   7.698  -0.450  10.258  1.3977 -1.2481 -0.3226
 1008MOL0     H36024   7.698  -0.592  10.354 -0.7065  1.6825  0.3873
 1008MOL0     H36025   7.686  -0.733  10.139 -0.0005  0.2083 -2.1287
 1008MOL0     H36026   7.683  -0.590  10.046  2.5771 -2.5364 -2.0062
 1008MOL0     H36027   7.900  -0.668  10.051  0.4890 -1.9796  1.0109
 1008MOL0     H36028   7.912  -0.693  10.226 -0.7619 -1.3076  0.5017
 1008MOL0     H36029   7.877  -0.424  10.077 -1.2501 -2.8040 -1.4770
 1008MOL0     H36030   7.942  -0.448  10.241 -3.6582 -1.1746 -0.5598
 1008MOL0     H36031   8.077  -0.358   9.920  2.2478  1.1150  0.1049
 1008MOL0     H36032   8.408  -0.497   9.826 -2.1011  0.1364 -0.9477
 1008MOL0     H36033   8.301  -0.356   9.798 -0.1716  3.5009  2.1829
 1008MOL0     H36034   8.405  -0.221   9.967  0.5714  1.2874  0.5356
 1008MOL0     H36035   8.500  -0.355  10.023 -0.8044  1.3567  0.6087
 1008MOL0     H36036   8.477  -0.250   9.734 -1.1574  2.1440  1.5164
 1008MOL0     H36037   8.596  -0.374   9.785 -2.1592 -0.4093 -1.8775
 1008MOL0     H36038   8.598  -0.083   9.848 -1.6030 -0.4651  0.7488
 1008MOL0     H36039   8.710  -0.172   9.737  0.0258  1.2938  0.6960
 1008MOL0     H36040   8.882  -0.050   9.812 -0.6702  0.9858  3.0443
 1008MOL0     H36041   9.129  -0.054   9.791 -0.1290 -0.5373  0.1868
 1008MOL0     H36042   9.488  -0.561  10.035  0.3473 -0.5331  1.0614
 1008MOL0     H36043   9.732  -0.589  10.032  2.2260  0.3058 -0.4749
 1008MOL0     H36044   9.986  -0.367   9.806 -1.5444 -2.1340  0.5622
 1008MOL0     H36045   9.992  -0.252   9.951  1.1338 -0.1261  2.5009
 1008MOL0     H36046  10.136  -0.401  10.068  0.2279 -1.4672  0.1822
 1008MOL0     H36047  10.137  -0.504   9.921 -1.3859  0.1568  0.0244
 1008MOL0     H36048  10.241  -0.327   9.790 -2.4890 -0.2507  0.3450
 1008MOL0     H36049  10.255  -0.221   9.923  1.4427  0.4209 -1.5982
 1008MOL0     H36050  10.372  -0.507   9.943 -0.3053 -0.4810 -0.7806
 1008MOL0     H36051  10.375  -0.391  10.073  3.3506  4.0124 -0.0426
 1008MOL0     H36052  10.473  -0.226   9.936  1.3898 -0.4544  3.5298
 1008MOL0     H36053  10.501  -0.333   9.809 -1.6552  2.2231  0.1616
 1008MOL0     H36054  10.651  -0.467   9.956 -0.1225 -0.0147  1.0794
 1008MOL0     H36055  10.715  -0.305   9.948  1.9212 -0.3275  2.5910
 1008MOL0     H36056  10.551  -0.388  10.190 -0.8826  2.0909 -0.9058
 1008MOL0     H36057  10.631  -0.238  10.158 -3.2842 -0.1095  0.5375
 1008MOL0     H36058  10.841  -0.321  10.162  0.1252 -0.0142 -0.3733
 1008MOL0     H36059  10.770  -0.394  10.311 -1.0878 -1.1530 -1.0176
 1008MOL0     H36060   9.790  -0.197   9.890  0.3246 -1.2161 -0.7294
 1008MOL0     H36061   9.552  -0.159   9.889  0.3309  0.4422 -1.4968
 1008MOL0     H36062   9.122  -0.412  10.039 -1.6809  1.7666  2.5140
 1008MOL0     H36063   8.878  -0.370  10.074  0.4571  0.4461  0.0081
 1008MOL0     H36064   7.414   0.175  10.115  0.2192 -2.5521  1.3815
 1008MOL0     H36065   7.275   0.328   9.989 -0.7138  0.9359 -0.4098
 1008MOL0     H36066   7.129   0.663   9.788 -0.4470  2.1310 -0.0116
 1008MOL0     H36067   6.977   0.832   9.704  2.7333 -1.5087 -1.3328
 1008MOL0     H36068   6.602   0.834   9.865  0.3425  1.0821  0.2785
 1008MOL0     H36069   6.597   0.965   9.744 -0.6470  1.1252  1.3658
 1008MOL0     H36070   6.816   0.924   9.959 -0.1595 -1.5862 -0.8974
 1008MOL0     H36071   6.680   1.034   9.962 -2.2061 -0.5160 -1.0492
 1008MOL0     H36072   6.811   1.093   9.703  1.2421  1.8550 -0.7641
 1008MOL0     H36073   6.938   1.060   9.818 -0.7645 -0.9012  1.2828
 1008MOL0     H36074   6.703   1.247   9.870  0.2810  0.6890  2.3660
 1008MOL0     H36075   6.852   1.234   9.970 -0.2901  0.6184 -0.2815
 1008MOL0     H36076   6.972   1.502   9.670 -0.2957  1.6164  1.0676
 1008MOL0     H36077   6.644   0.561   9.785  0.1128  0.2606  0.9569
 1008MOL0     H36078   6.796   0.277   9.740 -1.1710 -0.8793  0.5103
 1008MOL0     H36079   6.798   0.297   9.916 -1.4868  0.7060  0.8275
 1008MOL0     H36080   6.656   0.349   9.824 -0.5793 -1.6308 -2.0115
 1009MOL0     O36081   1.045   4.487   9.676 -0.5774 -0.3903 -0.4821
 1009MOL0     C36082   0.937   4.427   9.667 -0.1508 -0.9430  0.5182
 1009MOL0     O36083   0.925   4.289   9.684 -0.4569  0.2870  0.0084
 1009MOL0     C36084   1.039   4.230   9.721  0.2878 -0.0427 -0.9405
 1009MOL0     C36085   1.121   4.167   9.630 -0.9181  0.5867  0.0894
 1009MOL0     C36086   1.246   4.120   9.665  0.3419  0.5635  0.0523
 1009MOL0     C36087   1.280   4.122   9.803 -0.3628 -0.7223  0.7506
 1009MOL0     O36088   1.398   4.062   9.827  0.3323  0.7095 -0.0435
 1009MOL0     C36089   1.425   4.007   9.957  0.0345 -0.9077  0.0620
 1009MOL0     C36090   1.580   3.985   9.964 -0.2945 -0.1217  0.0279
 1009MOL0     C36091   1.652   4.115   9.976  0.1131  0.8147  0.2738
 1009MOL0     C36092   1.805   4.098   9.974  0.8241  0.4223  0.6099
 1009MOL0     C36093   1.871   4.244   9.981 -0.2532 -0.4949 -0.0801
 1009MOL0     C36094   2.028   4.228   9.990  0.6360  0.0500 -0.8131
 1009MOL0     C36095   2.109   4.356   9.942  0.0911  0.5442  0.4837
 1009MOL0     C36096   2.263   4.341   9.935  0.3429 -0.0977  0.6306
 1009MOL0     N36097   2.304   4.255   9.825  0.0706 -0.3663  0.5261
 1009MOL0     C36098   2.343   4.123   9.829  0.8195 -0.4999 -0.2638
 1009MOL0     C36099   2.386   4.088   9.704 -0.1231  0.1371 -0.1603
 1009MOL0     C36100   2.447   3.949   9.672 -0.1816 -1.0456 -0.1422
 1009MOL0     C36101   2.585   3.932   9.743  0.1288  0.7672  0.2943
 1009MOL0     C36102   2.699   3.990   9.658  0.1485  0.3215 -0.3460
 1009MOL0     C36103   2.834   3.924   9.682 -0.0491 -0.7599  0.0525
 1009MOL0     O36104   2.926   4.002   9.597 -0.4503 -0.0053  0.8835
 1009MOL0     C36105   3.061   3.974   9.610 -0.5724 -0.0035 -0.0265
 1009MOL0     C36106   3.126   3.905   9.720 -0.1208  0.6052  0.1711
 1009MOL0     C36107   3.265   3.891   9.717  0.7125 -0.8844  0.2324
 1009MOL0     C36108   3.339   3.921   9.601  0.2432 -0.2306  0.4833
 1009MOL0     C36109   3.490   3.912   9.599 -1.3282  0.4233 -0.1738
 1009MOL0     O36110   3.555   3.913   9.720 -0.1443  0.0894  0.2560
 1009MOL0     C36111   3.689   3.906   9.741 -0.5975 -1.1263  0.6406
 1009MOL0     C36112   3.786   3.929   9.639 -0.3795  0.5208 -0.6800
 1009MOL0     C36113   3.921   3.919   9.665 -0.6683  0.1628  0.6815
 1009MOL0     C36114   3.961   3.898   9.799 -0.1532  0.6136 -0.0181
 1009MOL0     O36115   4.097   3.886   9.816 -0.1638 -0.2951  0.4438
 1009MOL0     C36116   4.154   3.827   9.934  0.4205  0.2193 -0.2941
 1009MOL0     C36117   4.300   3.859   9.931 -0.3775 -0.3618  0.0444
 1009MOL0     C36118   4.306   4.011   9.930 -0.2846 -0.5718 -0.4958
 1009MOL0     C36119   4.454   4.045   9.983  0.5417 -0.1394  0.0069
 1009MOL0     C36120   4.524   4.134   9.880  0.4083  0.2100  0.1360
 1009MOL0     C36121   4.653   4.203   9.939 -0.7842 -0.3070  0.2596
 1009MOL0     C36122   4.725   4.292   9.843  0.8688 -0.1219  0.8512
 1009MOL0     C36123   4.850   4.358   9.900 -0.2578  0.4695  0.0419
 1009MOL0    Cl36124   4.974   4.242   9.947 -0.1171  0.0908  0.1807
 1009MOL0     C36125   3.866   3.878   9.900  0.3171  0.0279  0.1206
 1009MOL0     C36126   3.730   3.885   9.868 -0.1247  0.0372 -0.2475
 1009MOL0     O36127   3.538   3.915   9.488 -0.5871  0.7310 -0.1683
 1009MOL0     C36128   3.273   3.987   9.496  0.3603  0.4996 -0.0342
 1009MOL0     C36129   3.134   4.015   9.501  0.0197  0.0274 -0.9199
 1009MOL0     N36130   2.385   4.196   9.628 -0.0584 -0.5225 -0.2093
 1009MOL0     N36131   2.327   4.294   9.693  1.0071 -0.2971  0.0010
 1009MOL0     C36132   1.197   4.175   9.899 -0.0777  0.0549 -0.3986
 1009MOL0     C36133   1.074   4.232   9.859 -0.0249 -0.3535  0.6308
 1009MOL0     C36134   0.806   4.501   9.641  0.8628  0.3151  0.0517
 1009MOL0     C36135   0.805   4.634   9.604  0.7867 -0.5575 -0.6384
 1009MOL0     C36136   0.690   4.716   9.598 -1.3409 -1.3755 -0.2976
 1009MOL0     C36137   0.565   4.654   9.629 -0.0206  0.2059  0.0152
 1009MOL0     O36138   0.443   4.715   9.643 -0.3282 -1.0431  0.0915
 1009MOL0     C36139   0.425   4.851   9.588 -0.0972  0.2946 -0.7078
 1009MOL0     C36140   0.279   4.853   9.556 -0.2340 -0.0866  0.8090
 1009MOL0     C36141   0.239   4.751   9.445 -1.1350 -0.1918 -0.7344
 1009MOL0     C36142   0.107   4.775   9.377  0.2856 -0.5153  0.7912
 1009MOL0     C36143  -0.001   4.751   9.468 -0.5717 -0.2871 -0.6737
 1009MOL0     C36144  -0.102   4.730   9.532 -0.4243 -0.8283  0.4489
 1009MOL0     C36145   0.567   4.519   9.653  0.2759  0.3195  0.1574
 1009MOL0     C36146   0.675   4.434   9.652  0.7043  0.0571 -0.0869
 1009MOL0     C36147   0.643   4.289   9.683 -0.7145 -0.0403  0.2192
 1009MOL0     H36148   1.100   4.165   9.524  0.4936  2.6569 -0.3077
 1009MOL0     H36149   1.312   4.068   9.595  1.5184 -0.1508  1.6407
 1009MOL0     H36150   1.408   4.081  10.037  2.4108  0.9799 -1.0680
 1009MOL0     H36151   1.378   3.911   9.981  0.4654 -1.0167  0.4707
 1009MOL0     H36152   1.613   3.946   9.868 -0.4068  1.5035 -0.6950
 1009MOL0     H36153   1.608   3.926  10.053 -1.7153 -0.4241  0.2960
 1009MOL0     H36154   1.622   4.163  10.070 -0.2570  0.4358  0.3515
 1009MOL0     H36155   1.612   4.189   9.905 -3.1585  0.4234  1.5417
 1009MOL0     H36156   1.835   4.034  10.058 -0.2098 -4.5508 -2.4224
 1009MOL0     H36157   1.831   4.045   9.882 -1.3775  1.6692 -0.8301
 1009MOL0     H36158   1.858   4.293   9.884 -0.6442 -0.1310  0.1533
 1009MOL0     H36159   1.831   4.312  10.057  0.8553  2.8071 -2.2284
 1009MOL0     H36160   2.069   4.218  10.091  0.4076 -1.1072 -0.8281
 1009MOL0     H36161   2.063   4.141   9.935  2.4640 -1.1984  2.0668
 1009MOL0     H36162   2.080   4.438  10.008 -2.4910  0.7709 -0.7964
 1009MOL0     H36163   2.079   4.379   9.839  0.1348 -0.7868  0.1551
 1009MOL0     H36164   2.307   4.441   9.925  0.9452 -0.4479 -0.4812
 1009MOL0     H36165   2.301   4.288  10.023 -1.8790  0.6501  2.1331
 1009MOL0     H36166   2.344   4.066   9.921 -1.3431  0.1764  0.2510
 1009MOL0     H36167   2.382   3.867   9.704 -0.0786 -1.1419 -0.1787
 1009MOL0     H36168   2.447   3.942   9.563 -2.2543  0.4416 -0.3110
 1009MOL0     H36169   2.577   3.969   9.846 -0.3793 -0.8126  0.8476
 1009MOL0     H36170   2.603   3.824   9.752  2.3444  1.1887  2.0408
 1009MOL0     H36171   2.704   4.093   9.695 -1.8496 -0.3798  2.1628
 1009MOL0     H36172   2.674   3.970   9.553 -2.7536  1.6673 -0.0230
 1009MOL0     H36173   2.835   3.817   9.657  0.8525 -0.1930 -2.6111
 1009MOL0     H36174   2.850   3.933   9.790 -1.4411  0.4866  0.1839
 1009MOL0     H36175   3.067   3.877   9.807 -0.9544  1.4958 -0.0858
 1009MOL0     H36176   3.307   3.861   9.813 -0.5983 -2.0661  0.4761
 1009MOL0     H36177   3.754   3.947   9.537  0.8628  0.1474 -1.1411
 1009MOL0     H36178   3.998   3.917   9.587 -1.5537  2.3803 -0.3251
 1009MOL0     H36179   4.114   3.879  10.021 -0.5998  1.9465 -1.7308
 1009MOL0     H36180   4.135   3.720   9.929 -2.0981  0.4973  1.6794
 1009MOL0     H36181   4.342   3.817  10.022 -1.6537  0.7378  1.1955
 1009MOL0     H36182   4.345   3.812   9.843  1.7485 -2.9118  2.3440
 1009MOL0     H36183   4.295   4.058   9.832 -1.0000  1.3821  0.4681
 1009MOL0     H36184   4.237   4.060   9.999  1.1052 -1.2884  1.5032
 1009MOL0     H36185   4.514   3.956  10.004 -0.2000 -0.7272 -0.3350
 1009MOL0     H36186   4.436   4.108  10.071 -0.4384  1.1663 -1.0747
 1009MOL0     H36187   4.456   4.209   9.839  0.6224 -0.0336 -0.6841
 1009MOL0     H36188   4.556   4.082   9.790  1.8182  1.1612  0.0541
 1009MOL0     H36189   4.621   4.269  10.020 -2.3677  0.8514 -1.2379
 1009MOL0     H36190   4.724   4.131   9.981 -0.5711  0.4715  1.2589
 1009MOL0     H36191   4.649   4.363   9.809 -0.4259 -2.0438 -0.4130
 1009MOL0     H36192   4.744   4.220   9.764 -1.3534 -1.0764  1.1351
 1009MOL0     H36193   4.891   4.419   9.819 -1.5721 -0.8101 -1.6475
 1009MOL0     H36194   4.834   4.420   9.989 -0.9185  0.2051  0.1144
 1009MOL0     H36195   3.894   3.838   9.997  0.5894  0.2110  0.1212
 1009MOL0     H36196   3.655   3.873   9.946  0.8357  1.2870  0.9136
 1009MOL0     H36197   3.320   4.019   9.404 -1.2816  2.2762 -0.3254
 1009MOL0     H36198   3.072   4.062   9.426  0.3615 -0.4663 -1.5185
 1009MOL0     H36199   1.219   4.177  10.005  0.3211  4.2250 -0.3905
 1009MOL0     H36200   1.005   4.267   9.935  1.6245  1.3571  1.4129
 1009MOL0     H36201   0.896   4.690   9.583 -0.1918  1.5934  0.5596
 1009MOL0     H36202   0.707   4.819   9.569  0.6719 -1.0303  1.7960
 1009MOL0     H36203   0.486   4.868   9.499 -0.2516  2.2913 -0.4888
 1009MOL0     H36204   0.451   4.928   9.661  0.0436 -0.0369 -0.4047
 1009MOL0     H36205   0.266   4.958   9.526 -1.5388 -0.3355  0.4067
 1009MOL0     H36206   0.207   4.831   9.635 -0.3963 -2.1716  0.1420
 1009MOL0     H36207   0.250   4.647   9.477  1.1739 -1.4956 -4.9664
 1009MOL0     H36208   0.315   4.757   9.367 -0.0522  0.2327  0.3264
 1009MOL0     H36209   0.106   4.882   9.352 -1.3647 -0.6800  0.0761
 1009MOL0     H36210   0.098   4.717   9.285  0.8608 -0.1658  0.5095
 1009MOL0     H36211  -0.184   4.715   9.598  1.9107  0.8173  4.0661
 1009MOL0     H36212   0.467   4.478   9.666  0.1390  0.8412  0.8551
 1009MOL0     H36213   0.668   4.288   9.790  2.7530  1.2015 -0.4301
 1009MOL0     H36214   0.538   4.263   9.667 -0.3757 -2.0204  0.9870
 1009MOL0     H36215   0.701   4.209   9.635 -3.0780 -2.7369  1.5708
 1010MOL0     O36216   4.576   8.917   1.061 -0.1348  0.1818 -0.1951
 1010MOL0     C36217   4.536   9.033   1.075 -0.2127  0.7522  0.1581
 1010MOL0     O36218   4.591   9.142   1.013  0.3289  0.1107 -0.4763
 1010MOL0     C36219   4.715   9.128   0.954 -0.5725  0.0174 -1.1814
 1010MOL0     C36220   4.736   9.044   0.844 -0.6504 -0.4147  0.3825
 1010MOL0     C36221   4.865   9.026   0.794  0.6068 -0.3273  0.3484
 1010MOL0     C36222   4.969   9.099   0.852 -0.0947  0.9859 -0.0538
 1010MOL0     O36223   5.092   9.102   0.803 -0.1662 -0.3476 -0.8148
 1010MOL0     C36224   5.122   9.076   0.664  0.2104 -0.4755 -0.5533
 1010MOL0     C36225   5.255   9.139   0.636  0.2014 -0.2932 -0.6695
 1010MOL0     C36226   5.296   9.121   0.486  0.0154 -0.0152  0.3065
 1010MOL0     C36227   5.410   9.223   0.448  0.6954 -1.0731  0.2209
 1010MOL0     C36228   5.520   9.184   0.352  0.1389  0.7955  0.1467
 1010MOL0     C36229   5.616   9.299   0.347 -0.0502  0.2958  0.4003
 1010MOL0     C36230   5.726   9.282   0.234 -0.2960  0.3272 -0.2012
 1010MOL0     C36231   5.783   9.413   0.196 -0.3286  0.4208  0.4141
 1010MOL0     N36232   5.889   9.402   0.092  0.4193 -0.3020 -0.1296
 1010MOL0     C36233   5.869   9.369  -0.036 -0.1650  0.3282 -0.7911
 1010MOL0     C36234   5.990   9.362  -0.094 -0.2306  0.5400  0.0457
 1010MOL0     C36235   6.019   9.318  -0.233  0.6378 -0.3544 -0.0195
 1010MOL0     C36236   6.141   9.378  -0.307 -0.4399 -0.6912 -0.1181
 1010MOL0     C36237   6.145   9.329  -0.447  0.2496 -0.4169 -0.3660
 1010MOL0     C36238   6.276   9.373  -0.515  0.1653 -0.6225 -0.3465
 1010MOL0     O36239   6.380   9.277  -0.490 -0.3039 -0.0496 -0.0543
 1010MOL0     C36240   6.515   9.303  -0.525  0.0744  0.9313  1.1333
 1010MOL0     C36241   6.604   9.203  -0.493 -0.6713 -1.3160 -0.6852
 1010MOL0     C36242   6.739   9.223  -0.520 -0.3082 -0.1037  0.1278
 1010MOL0     C36243   6.794   9.335  -0.589  0.1792  1.0113  0.8460
 1010MOL0     C36244   6.931   9.337  -0.630 -0.2784 -0.6482 -0.4236
 1010MOL0     O36245   7.016   9.323  -0.524  0.5407 -0.2411 -0.1341
 1010MOL0     C36246   7.149   9.334  -0.546 -0.1065 -0.8169 -0.5268
 1010MOL0     C36247   7.225   9.217  -0.573  0.3250 -0.3837  0.0804
 1010MOL0     C36248   7.352   9.234  -0.618 -0.4587 -0.2903 -0.5332
 1010MOL0     C36249   7.418   9.357  -0.634 -0.1376 -1.1232 -0.7729
 1010MOL0     O36250   7.550   9.362  -0.671  0.1934  0.9265 -0.4278
 1010MOL0     C36251   7.596   9.478  -0.735  0.5684  0.0320  0.4817
 1010MOL0     C36252   7.735   9.438  -0.782  0.5989 -0.2731 -0.6218
 1010MOL0     C36253   7.742   9.341  -0.893 -0.4910 -0.7694  0.0818
 1010MOL0     C36254   7.892   9.306  -0.922 -0.0176 -0.0559  0.1303
 1010MOL0     C36255   7.920   9.258  -1.072  0.2715 -0.3322 -0.0623
 1010MOL0     C36256   7.902   9.376  -1.163 -0.5557 -0.8537  0.1735
 1010MOL0     C36257   7.941   9.349  -1.313  0.4741 -0.8275 -0.3257
 1010MOL0     C36258   7.861   9.231  -1.366  0.0809  0.0646  0.3538
 1010MOL0    Cl36259   7.686   9.253  -1.343 -0.0211 -0.2302 -0.2532
 1010MOL0     C36260   7.347   9.468  -0.583  0.2508  0.0673  0.1423
 1010MOL0     C36261   7.211   9.455  -0.552  0.0571  0.3844  0.1750
 1010MOL0     O36262   6.960   9.398  -0.734 -0.4352 -0.1722  0.4455
 1010MOL0     C36263   6.696   9.434  -0.625 -0.3178 -0.0874 -0.0193
 1010MOL0     C36264   6.559   9.425  -0.589 -0.5539  0.0857 -0.2868
 1010MOL0     N36265   6.082   9.397   0.008  0.1460 -0.5935  0.3911
 1010MOL0     N36266   6.021   9.427   0.116  0.1741  0.0402 -0.1572
 1010MOL0     C36267   4.949   9.177   0.968 -0.0323 -0.1194 -0.7870
 1010MOL0     C36268   4.822   9.187   1.025 -0.7386  0.5915  0.3852
 1010MOL0     C36269   4.405   9.061   1.148  0.1564 -0.0471  0.1662
 1010MOL0     C36270   4.363   9.199   1.160 -0.0027  0.1121  0.0733
 1010MOL0     C36271   4.252   9.237   1.230 -0.1345  0.6741 -0.4301
 1010MOL0     C36272   4.183   9.153   1.314 -0.4281  0.5458 -0.1081
 1010MOL0     O36273   4.097   9.205   1.402 -0.4954 -0.5303 -0.0054
 1010MOL0     C36274   4.032   9.119   1.492 -0.2589  1.0803 -0.4113
 1010MOL0     C36275   3.924   9.198   1.550  0.5182  0.2846 -0.5876
 1010MOL0     C36276   3.803   9.232   1.451  0.3598  0.2512 -0.3607
 1010MOL0     C36277   3.684   9.314   1.511  0.1557 -0.4252 -0.4202
 1010MOL0     C36278   3.566   9.356   1.431 -0.2612 -0.0257  0.3030
 1010MOL0     C36279   3.472   9.391   1.367  0.3858 -0.5855  0.3326
 1010MOL0     C36280   4.220   9.012   1.300  1.3651  0.4929  0.3126
 1010MOL0     C36281   4.327   8.967   1.216  0.4289  0.6786 -0.3665
 1010MOL0     C36282   4.341   8.815   1.204  0.3123 -0.4554 -0.4924
 1010MOL0     H36283   4.651   8.986   0.811 -0.0878 -1.1921  0.2499
 1010MOL0     H36284   4.886   8.965   0.707  1.3126  0.6858 -0.2141
 1010MOL0     H36285   5.121   8.970   0.640 -1.2408 -0.2146 -1.8220
 1010MOL0     H36286   5.038   9.124   0.611 -0.6625 -1.3311  0.0306
 1010MOL0     H36287   5.334   9.099   0.700 -1.1552 -1.4158  0.3660
 1010MOL0     H36288   5.247   9.242   0.673  2.6202 -0.6119  1.0079
 1010MOL0     H36289   5.212   9.139   0.419  1.1915  1.3264 -0.8867
 1010MOL0     H36290   5.322   9.016   0.469 -0.0279 -0.5070  2.9082
 1010MOL0     H36291   5.361   9.314   0.414 -0.3012 -2.1735 -1.4860
 1010MOL0     H36292   5.447   9.254   0.546  0.2345 -0.3494  0.1713
 1010MOL0     H36293   5.562   9.085   0.374  0.5342  0.5517 -1.5249
 1010MOL0     H36294   5.474   9.168   0.254  0.1599  0.0740  0.2530
 1010MOL0     H36295   5.562   9.389   0.315  0.0662  0.5240  0.8329
 1010MOL0     H36296   5.659   9.311   0.447  0.8278 -0.6684  0.1625
 1010MOL0     H36297   5.678   9.234   0.148 -0.4226 -3.3737  1.7530
 1010MOL0     H36298   5.803   9.211   0.265 -0.3258  0.2814 -0.2314
 1010MOL0     H36299   5.712   9.488   0.159 -0.3177  0.2486  0.0384
 1010MOL0     H36300   5.834   9.450   0.286  1.1667 -1.2334  0.2972
 1010MOL0     H36301   5.773   9.366  -0.086 -0.4589 -0.0090 -0.2163
 1010MOL0     H36302   6.035   9.210  -0.240  0.8973 -0.2640 -1.0686
 1010MOL0     H36303   5.926   9.328  -0.289 -0.2508 -0.5101  1.3701
 1010MOL0     H36304   6.136   9.487  -0.294  1.5034 -0.7392  1.5942
 1010MOL0     H36305   6.231   9.339  -0.259  0.7489  1.2173 -0.6792
 1010MOL0     H36306   6.061   9.376  -0.499  1.6307  0.1718 -2.1807
 1010MOL0     H36307   6.146   9.220  -0.446 -0.0666 -0.4239 -0.6487
 1010MOL0     H36308   6.305   9.474  -0.482  0.8158 -0.7290 -0.5672
 1010MOL0     H36309   6.275   9.385  -0.624  1.5047  3.2280 -0.0975
 1010MOL0     H36310   6.561   9.117  -0.442 -0.5083 -0.7140  0.4970
 1010MOL0     H36311   6.805   9.138  -0.508 -1.3380 -1.3977 -2.5475
 1010MOL0     H36312   7.167   9.126  -0.587  0.1877 -0.5946  1.7425
 1010MOL0     H36313   7.414   9.150  -0.645  1.6734  0.9409  0.2561
 1010MOL0     H36314   7.526   9.506  -0.815 -1.5910 -2.3028  1.3917
 1010MOL0     H36315   7.605   9.566  -0.671  0.6058  0.3857 -0.0060
 1010MOL0     H36316   7.796   9.521  -0.819  2.3185 -0.4511  1.5432
 1010MOL0     H36317   7.784   9.395  -0.694  0.6358  1.1694  0.0790
 1010MOL0     H36318   7.706   9.241  -0.865 -1.3517 -0.6372 -0.5171
 1010MOL0     H36319   7.678   9.372  -0.977 -1.0385  0.2394  0.8407
 1010MOL0     H36320   7.916   9.224  -0.855 -2.7035  0.1665  1.5201
 1010MOL0     H36321   7.951   9.393  -0.893  2.5874 -2.1191  1.4281
 1010MOL0     H36322   7.845   9.182  -1.094 -2.5189  2.4294 -0.7102
 1010MOL0     H36323   8.017   9.214  -1.096 -0.3978 -3.1458  1.8314
 1010MOL0     H36324   7.802   9.420  -1.162 -0.3192  0.0011 -2.7439
 1010MOL0     H36325   7.976   9.453  -1.139  1.4770 -1.2642 -3.7942
 1010MOL0     H36326   8.048   9.332  -1.330  0.7843  0.1111  0.5168
 1010MOL0     H36327   7.921   9.438  -1.374 -0.8945 -0.3254  0.7923
 1010MOL0     H36328   7.892   9.225  -1.471  1.0935  1.6825  0.5298
 1010MOL0     H36329   7.880   9.138  -1.311  0.8066  1.1822  2.0533
 1010MOL0     H36330   7.391   9.565  -0.562 -0.4713  0.6513 -0.9202
 1010MOL0     H36331   7.165   9.545  -0.513  2.3896  0.6152  2.6955
 1010MOL0     H36332   6.742   9.514  -0.684  3.3388 -1.1075  1.1708
 1010MOL0     H36333   6.475   9.486  -0.620 -0.6252  0.1932  0.1202
 1010MOL0     H36334   5.025   9.227   1.027 -0.2533 -0.1167 -0.5039
 1010MOL0     H36335   4.811   9.246   1.115  0.3880 -0.7901  1.4688
 1010MOL0     H36336   4.422   9.278   1.115  2.2794  0.4449  3.2770
 1010MOL0     H36337   4.238   9.345   1.231 -0.6582  0.7406 -3.5565
 1010MOL0     H36338   4.108   9.087   1.564  0.3263 -0.8434 -1.8215
 1010MOL0     H36339   3.990   9.029   1.448 -1.6732  1.3327  0.3488
 1010MOL0     H36340   3.975   9.290   1.583  0.6007 -0.2950  0.9932
 1010MOL0     H36341   3.883   9.154   1.641 -0.3431 -1.9229 -1.9786
 1010MOL0     H36342   3.767   9.131   1.428 -1.8507  0.8391  0.3767
 1010MOL0     H36343   3.835   9.280   1.358  0.0312 -0.0022 -0.6111
 1010MOL0     H36344   3.643   9.263   1.599  0.4628  1.3093  0.7792
 1010MOL0     H36345   3.728   9.410   1.541 -0.2777  0.1401 -1.5592
 1010MOL0     H36346   3.386   9.401   1.304 -0.2843  0.7745  1.4192
 1010MOL0     H36347   4.167   8.935   1.355  1.5447  1.7461  2.3667
 1010MOL0     H36348   4.254   8.774   1.255 -0.3132  1.9331  0.5059
 1010MOL0     H36349   4.351   8.778   1.102  1.7334 -0.1283 -0.4958
 1010MOL0     H36350   4.432   8.796   1.261  1.0966  1.3944 -1.0227
 1011MOL0     O36351   1.420   4.784   3.600  0.2759 -0.2112 -0.1284
 1011MOL0     C36352   1.382   4.790   3.720 -0.1047  0.3585  0.6631
 1011MOL0     O36353   1.255   4.801   3.755 -0.2443  0.4559  0.1617
 1011MOL0     C36354   1.158   4.841   3.661  1.2951  0.4286  0.0169
 1011MOL0     C36355   1.031   4.835   3.719  0.2963  1.2908  0.6143
 1011MOL0     C36356   0.918   4.878   3.648  0.6196 -0.3602  0.3527
 1011MOL0     C36357   0.934   4.937   3.518  0.4047 -0.3252 -0.5103
 1011MOL0     O36358   0.831   4.986   3.444  0.2186 -0.2124 -0.5123
 1011MOL0     C36359   0.699   4.938   3.476 -0.5186 -0.9779 -0.0367
 1011MOL0     C36360   0.605   4.942   3.359  0.0634  0.1104 -0.0084
 1011MOL0     C36361   0.566   5.083   3.321  0.0796 -0.1091  0.6469
 1011MOL0     C36362   0.494   5.107   3.184 -0.1997  0.5403 -0.5517
 1011MOL0     C36363   0.444   5.244   3.168  0.2169 -0.3628  0.8505
 1011MOL0     C36364   0.544   5.355   3.114 -0.5691 -0.2792  0.1499
 1011MOL0     C36365   0.484   5.490   3.079  0.2765 -0.0031  0.1056
 1011MOL0     C36366   0.588   5.569   3.003  0.3545 -0.2604  0.5501
 1011MOL0     N36367   0.713   5.580   3.079  0.6847 -0.5186  0.6876
 1011MOL0     C36368   0.724   5.623   3.207  0.3297  0.2142 -0.1746
 1011MOL0     C36369   0.861   5.645   3.230  0.3447 -0.4270  0.2300
 1011MOL0     C36370   0.920   5.694   3.367  0.0982  0.9878  0.1709
 1011MOL0     C36371   1.053   5.758   3.338  0.5853  0.3788  0.0805
 1011MOL0     C36372   1.119   5.811   3.458  0.2933 -0.0753 -0.5837
 1011MOL0     C36373   1.241   5.895   3.420 -0.2055  0.7192 -1.4344
 1011MOL0     O36374   1.338   5.885   3.531 -0.0489 -0.4122 -0.2518
 1011MOL0     C36375   1.470   5.904   3.493  0.3337  0.2156  1.1774
 1011MOL0     C36376   1.511   5.966   3.371  0.4592 -0.4545 -0.1701
 1011MOL0     C36377   1.652   6.001   3.349  0.5437 -0.3055  0.0763
 1011MOL0     C36378   1.748   5.946   3.438 -0.3452  0.0318  0.0769
 1011MOL0     C36379   1.894   5.960   3.415  0.4098  0.2731 -0.0276
 1011MOL0     O36380   1.965   5.857   3.481 -0.1269 -0.6279 -0.2076
 1011MOL0     C36381   2.096   5.829   3.459 -0.4225  0.0372  0.7041
 1011MOL0     C36382   2.128   5.710   3.527 -0.1258 -0.1307 -0.2854
 1011MOL0     C36383   2.255   5.659   3.522  0.9704  1.1163 -0.0089
 1011MOL0     C36384   2.353   5.728   3.457 -0.4989  0.3429  0.0825
 1011MOL0     O36385   2.488   5.689   3.447 -0.3448 -0.1253  0.4130
 1011MOL0     C36386   2.531   5.568   3.519 -0.0756 -0.4303  0.2177
 1011MOL0     C36387   2.687   5.558   3.505 -0.4661  0.0043 -0.3818
 1011MOL0     C36388   2.760   5.690   3.504  0.0287 -0.5935 -0.1240
 1011MOL0     C36389   2.733   5.766   3.633  0.3874 -0.4179 -0.1635
 1011MOL0     C36390   2.758   5.926   3.632  0.5220  0.4097 -0.3561
 1011MOL0     C36391   2.732   5.999   3.770  0.2775  0.6341  0.3376
 1011MOL0     C36392   2.593   5.995   3.824  0.6746 -0.0015  0.4497
 1011MOL0     C36393   2.471   6.038   3.730  1.4784  0.2337 -1.1641
 1011MOL0    Cl36394   2.308   6.062   3.826 -0.3244 -0.0829  0.3232
 1011MOL0     C36395   2.328   5.852   3.402 -0.0614 -0.1341  0.0724
 1011MOL0     C36396   2.199   5.903   3.401  1.0873 -1.0805  0.3836
 1011MOL0     O36397   1.938   6.052   3.351  0.0969 -0.5238 -0.1894
 1011MOL0     C36398   1.705   5.869   3.554 -0.1907 -0.1674  0.6716
 1011MOL0     C36399   1.569   5.864   3.577  0.1832  0.1068 -0.4106
 1011MOL0     N36400   0.926   5.624   3.108  0.7495 -0.4181 -0.4386
 1011MOL0     N36401   0.839   5.574   3.024 -0.1331  0.1215  0.1355
 1011MOL0     C36402   1.063   4.943   3.465  0.7713 -0.3061 -1.0729
 1011MOL0     C36403   1.177   4.906   3.535 -0.0774  0.8311 -0.5308
 1011MOL0     C36404   1.478   4.751   3.834 -0.0392 -1.0008 -0.2550
 1011MOL0     C36405   1.427   4.757   3.960  0.2156  0.3340  0.0324
 1011MOL0     C36406   1.503   4.734   4.070  0.3747  0.2282  0.2637
 1011MOL0     C36407   1.640   4.707   4.058  0.4767 -0.4040 -0.2330
 1011MOL0     O36408   1.730   4.673   4.160  0.6959  0.1002  1.1746
 1011MOL0     C36409   1.674   4.629   4.286 -0.3150  0.0715 -0.6233
 1011MOL0     C36410   1.765   4.615   4.407 -0.3452 -0.2429  0.0090
 1011MOL0     C36411   1.880   4.518   4.376 -0.8527  0.6332 -0.6286
 1011MOL0     C36412   1.975   4.512   4.490 -0.3644  0.3830 -0.9561
 1011MOL0     C36413   1.920   4.466   4.620  0.0389  0.5157  0.5562
 1011MOL0     C36414   1.869   4.423   4.723 -0.4794  0.5063 -0.0277
 1011MOL0     C36415   1.699   4.719   3.930 -1.2955 -0.2066 -0.1443
 1011MOL0     C36416   1.621   4.741   3.818  0.5423 -0.1569 -0.1594
 1011MOL0     C36417   1.696   4.753   3.688  0.3279  0.1874 -0.1774
 1011MOL0     H36418   1.008   4.788   3.815 -2.3115 -3.6304 -2.0100
 1011MOL0     H36419   0.823   4.868   3.700  1.0810 -4.7765  0.6729
 1011MOL0     H36420   0.706   4.834   3.509 -2.7877 -0.7791  1.2962
 1011MOL0     H36421   0.657   4.998   3.558 -0.0058  0.7076 -0.9630
 1011MOL0     H36422   0.512   4.890   3.383 -2.3970  1.8268 -4.5627
 1011MOL0     H36423   0.635   4.883   3.272 -0.7892  1.5400 -1.3205
 1011MOL0     H36424   0.656   5.145   3.324 -0.1265  0.3448 -1.1647
 1011MOL0     H36425   0.492   5.107   3.398 -1.3636  2.0459 -1.2732
 1011MOL0     H36426   0.567   5.078   3.108  0.1969 -1.9433  0.6841
 1011MOL0     H36427   0.407   5.041   3.180 -2.1406  2.8744  0.7733
 1011MOL0     H36428   0.350   5.242   3.113 -0.2427 -2.5641  1.5822
 1011MOL0     H36429   0.410   5.268   3.270  0.5904  0.0773  0.8733
 1011MOL0     H36430   0.638   5.348   3.168 -0.3124 -1.7318 -0.4247
 1011MOL0     H36431   0.568   5.307   3.019 -2.4080 -2.1455  0.5402
 1011MOL0     H36432   0.455   5.545   3.169  2.0417  0.2161  0.5824
 1011MOL0     H36433   0.409   5.479   3.001 -2.1539 -1.0467  2.4494
 1011MOL0     H36434   0.598   5.521   2.905 -1.1575  0.7016 -0.1021
 1011MOL0     H36435   0.556   5.671   2.981 -1.9835 -1.0670 -0.1545
 1011MOL0     H36436   0.646   5.630   3.282  1.0335  1.0228  0.5059
 1011MOL0     H36437   0.849   5.762   3.415  0.1155  1.4718 -0.4894
 1011MOL0     H36438   0.937   5.602   3.425  0.7945 -0.0168 -1.5446
 1011MOL0     H36439   1.111   5.689   3.277 -0.2562 -1.4859  1.3182
 1011MOL0     H36440   1.036   5.844   3.272  0.6307  0.2726 -0.0702
 1011MOL0     H36441   1.153   5.720   3.509  4.4824 -0.8968 -4.2511
 1011MOL0     H36442   1.048   5.864   3.522 -2.6549 -3.1755 -1.0227
 1011MOL0     H36443   1.218   6.002   3.416  2.2342  1.5414  2.0327
 1011MOL0     H36444   1.283   5.853   3.329 -2.9668 -2.3425 -1.4796
 1011MOL0     H36445   1.435   5.996   3.300 -0.0773  0.7026  0.8469
 1011MOL0     H36446   1.679   6.071   3.270 -2.6558  0.9831 -0.0404
 1011MOL0     H36447   2.062   5.650   3.588 -1.8636  1.0073 -0.9714
 1011MOL0     H36448   2.274   5.560   3.562  1.4474  0.3916 -1.9271
 1011MOL0     H36449   2.499   5.578   3.623 -2.5509  0.0667 -0.5210
 1011MOL0     H36450   2.480   5.479   3.479 -0.5631 -0.7006  1.3975
 1011MOL0     H36451   2.727   5.493   3.584 -0.7784  0.1048 -0.1403
 1011MOL0     H36452   2.714   5.505   3.414  0.0226  0.1816 -0.3422
 1011MOL0     H36453   2.869   5.678   3.494  0.5198  3.6651 -1.6923
 1011MOL0     H36454   2.735   5.759   3.423  0.9645  2.7515  2.2385
 1011MOL0     H36455   2.794   5.717   3.709  0.3698 -1.6303 -0.9132
 1011MOL0     H36456   2.630   5.749   3.666  1.1477  0.9103  3.4444
 1011MOL0     H36457   2.716   5.965   3.539  0.7462 -0.7914 -0.9822
 1011MOL0     H36458   2.866   5.936   3.615  0.8565  1.0478  1.7454
 1011MOL0     H36459   2.802   5.956   3.844  0.4556  0.7235  0.2215
 1011MOL0     H36460   2.759   6.104   3.755 -0.8321  0.8170 -0.4549
 1011MOL0     H36461   2.589   6.057   3.914  1.6802  0.5310  0.1446
 1011MOL0     H36462   2.575   5.889   3.844  0.0262 -0.9337 -3.9455
 1011MOL0     H36463   2.501   6.129   3.677  0.1290 -1.2165 -4.6972
 1011MOL0     H36464   2.450   5.956   3.661 -2.1347 -0.5976  0.6694
 1011MOL0     H36465   2.399   5.918   3.355 -1.6334  2.2807  0.8991
 1011MOL0     H36466   2.186   5.995   3.347  1.1073 -0.7117  0.9947
 1011MOL0     H36467   1.779   5.822   3.618  1.0421 -1.1535 -1.3493
 1011MOL0     H36468   1.544   5.810   3.668  2.7450 -2.7392 -1.2180
 1011MOL0     H36469   1.079   4.981   3.365  1.9780  0.1307 -0.7395
 1011MOL0     H36470   1.270   4.917   3.481  0.9723 -1.4915  0.6436
 1011MOL0     H36471   1.324   4.785   3.978  0.2024  1.0974 -1.1833
 1011MOL0     H36472   1.451   4.727   4.165 -0.2546  2.3355  0.1309
 1011MOL0     H36473   1.618   4.535   4.272  0.9691 -0.6931 -0.7988
 1011MOL0     H36474   1.605   4.708   4.316  0.8628  1.0091 -0.3418
 1011MOL0     H36475   1.699   4.576   4.485 -1.8081  1.0086 -0.5484
 1011MOL0     H36476   1.795   4.716   4.436 -1.8873 -0.0694  1.0950
 1011MOL0     H36477   1.930   4.546   4.283  0.2420 -0.2038 -0.3176
 1011MOL0     H36478   1.839   4.417   4.368  2.5521 -1.0901  1.4253
 1011MOL0     H36479   2.051   4.434   4.477 -0.1345 -0.0369  2.0501
 1011MOL0     H36480   2.013   4.613   4.504 -0.6835  0.5729 -1.4622
 1011MOL0     H36481   1.816   4.393   4.811  0.2325  0.9446  0.5737
 1011MOL0     H36482   1.807   4.711   3.923 -1.1604 -0.1307  1.4047
 1011MOL0     H36483   1.802   4.773   3.699  0.3346  0.1140 -0.1101
 1011MOL0     H36484   1.684   4.659   3.633 -0.5331  0.3502 -0.2870
 1011MOL0     H36485   1.647   4.834   3.633 -2.7575 -0.9177  0.7019
 1012MOL0     O36486  10.952   0.135   0.668  0.0620 -0.3142 -1.2372
 1012MOL0     C36487  10.953   0.135   0.793 -0.7560 -0.0207  0.6534
 1012MOL0     O36488  11.060   0.096   0.864  0.1370 -0.4385  0.0275
 1012MOL0     C36489  11.187   0.113   0.825 -0.1240  0.4096  0.0021
 1012MOL0     C36490  11.228   0.216   0.734 -0.2435 -0.7362 -0.1583
 1012MOL0     C36491  11.357   0.240   0.692 -0.5531 -0.2623 -0.0708
 1012MOL0     C36492  11.455   0.165   0.759 -0.2752 -0.5243  0.0738
 1012MOL0     O36493  11.592   0.176   0.740 -0.8618  0.6256 -0.2533
 1012MOL0     C36494  11.630   0.233   0.611 -0.0894  0.6521  0.2994
 1012MOL0     C36495  11.771   0.184   0.600  0.2696 -0.0496 -0.0768
 1012MOL0     C36496  11.876   0.234   0.699  0.0795 -0.1338 -0.1628
 1012MOL0     C36497  12.007   0.206   0.630  0.8219 -0.4219 -0.1121
 1012MOL0     C36498  12.131   0.241   0.716 -0.0453 -0.0908  0.1821
 1012MOL0     C36499  12.142   0.184   0.858  0.0622  0.1071 -0.6693
 1012MOL0     C36500  12.279   0.205   0.912  0.8631  0.4290 -0.4511
 1012MOL0     C36501  12.263   0.147   1.048  0.0811  0.0708 -0.6936
 1012MOL0     N36502  12.392   0.149   1.117 -0.2098  0.4814 -0.4384
 1012MOL0     C36503  12.426   0.238   1.218  1.1172 -0.7159 -0.5286
 1012MOL0     C36504  12.540   0.193   1.270 -0.3327  0.5632 -0.7858
 1012MOL0     C36505  12.616   0.260   1.380  0.2138 -0.3889 -0.3770
 1012MOL0     C36506  12.523   0.261   1.508  0.2192  0.8112  0.6141
 1012MOL0     C36507  12.582   0.311   1.638 -0.1138  0.2479  0.5082
 1012MOL0     C36508  12.615   0.198   1.733 -0.9026  0.3861 -0.2171
 1012MOL0     O36509  12.647   0.255   1.861 -0.1463  0.2195  0.1782
 1012MOL0     C36510  12.773   0.278   1.898  0.0583  1.0387  0.0030
 1012MOL0     C36511  12.800   0.282   2.032 -0.5063 -1.5044 -0.2020
 1012MOL0     C36512  12.926   0.298   2.082  0.4254  1.0537  0.4598
 1012MOL0     C36513  13.039   0.336   1.997  0.8907 -0.3131 -0.0361
 1012MOL0     C36514  13.171   0.364   2.050 -0.6517  0.9588  0.0686
 1012MOL0     O36515  13.189   0.338   2.186  1.2694 -0.2073  0.3573
 1012MOL0     C36516  13.314   0.365   2.233 -0.3403 -0.7745  0.2363
 1012MOL0     C36517  13.437   0.281   2.199  0.2242  0.2821  0.5329
 1012MOL0     C36518  13.560   0.325   2.249 -0.0856 -0.5231 -0.0694
 1012MOL0     C36519  13.574   0.438   2.334 -0.4305 -0.0160 -0.2937
 1012MOL0     O36520  13.688   0.486   2.389 -0.0093  0.0989 -0.3414
 1012MOL0     C36521  13.809   0.404   2.385  0.6617 -0.0284  0.2691
 1012MOL0     C36522  13.918   0.498   2.429 -0.2677 -0.6173 -0.4508
 1012MOL0     C36523  14.044   0.415   2.448  0.3990 -0.4879  0.0147
 1012MOL0     C36524  14.181   0.488   2.461 -0.2289  0.5140  0.1679
 1012MOL0     C36525  14.295   0.378   2.478  0.0753  0.5966  0.1143
 1012MOL0     C36526  14.427   0.454   2.491  0.2217  0.3891 -0.4162
 1012MOL0     C36527  14.549   0.365   2.474  0.8416  0.0578  1.0948
 1012MOL0     C36528  14.565   0.273   2.597 -0.5520 -0.4690  0.9146
 1012MOL0    Cl36529  14.733   0.225   2.599 -0.3525 -0.0118  0.1599
 1012MOL0     C36530  13.460   0.495   2.375 -0.4245  0.0430 -0.2176
 1012MOL0     C36531  13.335   0.470   2.325 -0.2075 -0.3267 -1.0303
 1012MOL0     O36532  13.262   0.379   1.969  0.2178 -0.0812 -0.0455
 1012MOL0     C36533  13.016   0.324   1.864  0.6232  0.2061  0.2097
 1012MOL0     C36534  12.884   0.306   1.815  0.0340 -0.4692  0.5181
 1012MOL0     N36535  12.585   0.082   1.195  0.4036 -0.3664  0.0890
 1012MOL0     N36536  12.494   0.066   1.096 -0.1038 -0.0766 -0.2376
 1012MOL0     C36537  11.422   0.075   0.859  0.5315 -0.1490 -0.1567
 1012MOL0     C36538  11.290   0.044   0.890 -0.8986 -1.0020  0.6987
 1012MOL0     C36539  10.821   0.143   0.873 -0.1604 -0.1314 -0.3362
 1012MOL0     C36540  10.837   0.124   1.014  0.3861 -0.1292  0.6669
 1012MOL0     C36541  10.729   0.146   1.099  0.8591  0.2446  0.2771
 1012MOL0     C36542  10.602   0.189   1.051  0.3847 -0.4058 -0.4649
 1012MOL0     O36543  10.491   0.184   1.135 -0.8200 -0.2895 -0.0295
 1012MOL0     C36544  10.362   0.209   1.080 -0.3261  0.2856  0.7200
 1012MOL0     C36545  10.240   0.177   1.178  0.0523 -0.6636  0.0234
 1012MOL0     C36546  10.113   0.235   1.122  0.1891  0.5959 -0.0884
 1012MOL0     C36547   9.998   0.223   1.223  0.2399 -0.4196 -0.1591
 1012MOL0     C36548   9.932   0.090   1.212  0.0959  0.0050 -0.2004
 1012MOL0     C36549   9.897  -0.023   1.187 -0.0937  0.2880 -0.0187
 1012MOL0     C36550  10.591   0.206   0.912  0.1229  0.5187  0.2646
 1012MOL0     C36551  10.695   0.188   0.821  0.4532  0.2352 -0.6647
 1012MOL0     C36552  10.666   0.173   0.670 -0.0101  0.2288  0.5680
 1012MOL0     H36553  11.155   0.294   0.715 -1.1082 -1.2487  0.9250
 1012MOL0     H36554  11.371   0.328   0.629 -0.9716 -0.1096  0.0454
 1012MOL0     H36555  11.565   0.193   0.533 -0.2420  0.2778  0.6157
 1012MOL0     H36556  11.635   0.342   0.605 -0.2535  0.6620  0.3403
 1012MOL0     H36557  11.799   0.225   0.503  1.9455 -1.2478 -0.1338
 1012MOL0     H36558  11.774   0.075   0.591 -0.7327 -0.0440 -0.6080
 1012MOL0     H36559  11.868   0.181   0.794  0.0560 -1.8073 -1.0673
 1012MOL0     H36560  11.866   0.342   0.712 -1.7530  0.0494 -2.4363
 1012MOL0     H36561  12.004   0.100   0.604 -0.1091 -0.3565 -0.2974
 1012MOL0     H36562  11.998   0.266   0.539 -0.7998 -0.8935 -0.2903
 1012MOL0     H36563  12.222   0.214   0.662  1.7579  2.1220  1.9246
 1012MOL0     H36564  12.132   0.350   0.724  0.3600 -0.0971  0.2527
 1012MOL0     H36565  12.061   0.232   0.915 -0.0669  0.3241 -1.0291
 1012MOL0     H36566  12.120   0.077   0.852 -2.0708  0.5052 -0.6126
 1012MOL0     H36567  12.304   0.312   0.919 -0.9736  0.9282 -0.9233
 1012MOL0     H36568  12.359   0.162   0.851  0.4285  1.0690 -1.4953
 1012MOL0     H36569  12.194   0.201   1.113  1.6163  0.7045  0.4761
 1012MOL0     H36570  12.222   0.045   1.044  2.5060 -0.9733 -0.6112
 1012MOL0     H36571  12.367   0.328   1.238  2.0184 -0.3722  0.6482
 1012MOL0     H36572  12.709   0.208   1.404  0.1876 -0.4136 -0.3302
 1012MOL0     H36573  12.644   0.362   1.350  2.8164 -0.6170  0.8998
 1012MOL0     H36574  12.429   0.314   1.493 -1.6067 -2.2911  0.3970
 1012MOL0     H36575  12.490   0.157   1.509 -0.9279  1.0376 -2.3323
 1012MOL0     H36576  12.505   0.372   1.686  1.1298 -0.6705  3.9373
 1012MOL0     H36577  12.671   0.370   1.615 -1.4445  2.1540 -0.0636
 1012MOL0     H36578  12.703   0.153   1.686 -1.9960  0.3504 -2.3420
 1012MOL0     H36579  12.543   0.118   1.753  0.7699 -0.3063  4.1223
 1012MOL0     H36580  12.730   0.246   2.106  0.0951 -2.9928 -0.3153
 1012MOL0     H36581  12.944   0.282   2.188  0.4971  2.3667  0.6689
 1012MOL0     H36582  13.428   0.193   2.137  2.9090 -0.8502  1.5963
 1012MOL0     H36583  13.650   0.269   2.229  0.3325 -0.0033  0.3312
 1012MOL0     H36584  13.812   0.310   2.439 -2.4784 -1.1553 -1.2968
 1012MOL0     H36585  13.823   0.383   2.278 -0.3354  2.0527 -0.3251
 1012MOL0     H36586  13.934   0.580   2.359 -0.8456 -0.2190 -0.1279
 1012MOL0     H36587  13.891   0.538   2.527  1.2717  0.0186 -0.2540
 1012MOL0     H36588  14.022   0.350   2.534 -3.0545  2.8172  1.9532
 1012MOL0     H36589  14.053   0.345   2.365 -1.0711 -1.2794  0.4836
 1012MOL0     H36590  14.179   0.531   2.562 -1.7452 -3.3044  1.9418
 1012MOL0     H36591  14.201   0.562   2.382  0.1203  1.1984  0.8887
 1012MOL0     H36592  14.295   0.315   2.388 -1.6813 -1.1603  1.2705
 1012MOL0     H36593  14.276   0.308   2.559 -0.2807  0.8854  0.2822
 1012MOL0     H36594  14.432   0.535   2.417  0.3094 -2.3622 -3.7040
 1012MOL0     H36595  14.439   0.501   2.589  2.2930  1.0856 -0.9455
 1012MOL0     H36596  14.639   0.427   2.474  1.4292 -0.6560 -1.9250
 1012MOL0     H36597  14.546   0.300   2.387 -0.9207 -0.8798  1.8070
 1012MOL0     H36598  14.543   0.325   2.690  2.3558  0.4301  1.1823
 1012MOL0     H36599  14.503   0.185   2.581  3.3349 -2.9345 -2.4344
 1012MOL0     H36600  13.468   0.584   2.436 -1.7886  1.2864 -1.7946
 1012MOL0     H36601  13.246   0.527   2.349  0.3601  0.0613  0.2057
 1012MOL0     H36602  13.096   0.341   1.792  0.2204 -0.3127 -0.3719
 1012MOL0     H36603  12.869   0.320   1.708 -1.3730  0.5316  0.8217
 1012MOL0     H36604  11.487   0.028   0.932 -1.1929  0.6651  2.0129
 1012MOL0     H36605  11.269  -0.030   0.966  0.7805 -2.1469  0.1100
 1012MOL0     H36606  10.936   0.110   1.057  1.1604 -1.6505 -1.4497
 1012MOL0     H36607  10.732   0.128   1.206  1.0633  1.8898  0.5747
 1012MOL0     H36608  10.350   0.142   0.995  1.0058  1.8246 -0.7606
 1012MOL0     H36609  10.345   0.304   1.027 -2.7682 -0.8392 -0.6893
 1012MOL0     H36610  10.264   0.220   1.275  3.6630 -0.2116 -0.9300
 1012MOL0     H36611  10.234   0.068   1.188  1.5036 -0.8434 -0.7575
 1012MOL0     H36612  10.088   0.195   1.023 -0.6230  0.5402  0.1326
 1012MOL0     H36613  10.129   0.342   1.108 -3.4278  1.6426  2.4472
 1012MOL0     H36614  10.029   0.255   1.323  1.7417 -0.6321 -0.5250
 1012MOL0     H36615   9.921   0.297   1.202  2.2868  2.1662  0.8983
 1012MOL0     H36616   9.867  -0.120   1.152 -0.6165  1.0473 -1.7986
 1012MOL0     H36617  10.496   0.235   0.869 -0.0275 -1.0133 -0.4861
 1012MOL0     H36618  10.559   0.192   0.656 -0.2669 -2.1340 -1.2787
 1012MOL0     H36619  10.725   0.245   0.613  0.1863  0.6884  1.3278
 1012MOL0     H36620  10.684   0.071   0.636 -2.2132  0.2330 -0.8116
 1013MOL0     O36621   4.561   5.913   3.944  0.7815 -0.3609  0.5397
 1013MOL0     C36622   4.509   5.950   3.840 -0.2248  0.6245 -0.1921
 1013MOL0     O36623   4.576   5.954   3.720 -0.3158 -0.0966 -1.2149
 1013MOL0     C36624   4.713   5.923   3.704 -0.4081  0.6688  0.0545
 1013MOL0     C36625   4.738   5.839   3.599  0.2539  0.1887 -0.6939
 1013MOL0     C36626   4.866   5.794   3.572 -0.5667  0.2306  0.1254
 1013MOL0     C36627   4.968   5.820   3.664  0.3011  0.2048  0.3656
 1013MOL0     O36628   5.091   5.769   3.630  0.3467 -0.1305 -0.1681
 1013MOL0     C36629   5.195   5.785   3.730  0.3513 -0.9759  0.0024
 1013MOL0     C36630   5.304   5.683   3.704  0.1184 -0.0455 -0.1291
 1013MOL0     C36631   5.369   5.724   3.570 -0.4099 -0.0971 -0.0350
 1013MOL0     C36632   5.500   5.649   3.548  0.0765  0.0391 -0.1547
 1013MOL0     C36633   5.572   5.674   3.409  0.1263  1.0301  0.8451
 1013MOL0     C36634   5.710   5.606   3.405 -0.5519 -0.7451  0.0674
 1013MOL0     C36635   5.787   5.644   3.270  0.2879 -0.1677 -0.6631
 1013MOL0     C36636   5.916   5.577   3.242  0.3072 -0.0016  0.1630
 1013MOL0     N36637   6.013   5.602   3.349 -1.0700  0.5458  0.1451
 1013MOL0     C36638   6.098   5.512   3.411 -0.2417  0.0942  0.6578
 1013MOL0     C36639   6.183   5.587   3.484  0.6268  0.4206  0.7312
 1013MOL0     C36640   6.296   5.520   3.558 -0.0869 -0.5599  0.5034
 1013MOL0     C36641   6.420   5.500   3.469 -0.1330  0.0091 -0.1100
 1013MOL0     C36642   6.484   5.617   3.424  0.6200  0.4049 -0.0573
 1013MOL0     C36643   6.622   5.583   3.349  0.8191 -0.4842 -0.9055
 1013MOL0     O36644   6.711   5.515   3.439 -0.3122  0.1501  0.0989
 1013MOL0     C36645   6.845   5.512   3.413  0.6236  0.5382  0.2759
 1013MOL0     C36646   6.930   5.502   3.519 -1.0005  0.2434 -0.6911
 1013MOL0     C36647   7.067   5.470   3.492  0.3849  0.2736 -0.8612
 1013MOL0     C36648   7.123   5.468   3.359  0.5630 -0.2539  0.5718
 1013MOL0     C36649   7.264   5.437   3.328  0.4313  0.1762  0.0002
 1013MOL0     O36650   7.340   5.413   3.437 -0.0308  0.8373 -0.1496
 1013MOL0     C36651   7.471   5.401   3.405 -0.4742  0.2203 -0.1450
 1013MOL0     C36652   7.538   5.287   3.448  0.2295 -0.2061  0.9437
 1013MOL0     C36653   7.675   5.278   3.438 -0.1217 -0.5235  0.8118
 1013MOL0     C36654   7.745   5.386   3.384  0.5208 -0.0143  0.2590
 1013MOL0     O36655   7.879   5.359   3.397  0.3095  0.6940  0.0274
 1013MOL0     C36656   7.980   5.448   3.330 -0.3964  0.6173 -0.8209
 1013MOL0     C36657   8.125   5.405   3.372 -0.0071 -0.1850 -0.7196
 1013MOL0     C36658   8.187   5.276   3.329  0.5243  0.0968  0.2768
 1013MOL0     C36659   8.256   5.297   3.205  0.0833  0.2672 -0.4252
 1013MOL0     C36660   8.327   5.176   3.152  0.5477 -0.2629  0.3456
 1013MOL0     C36661   8.371   5.213   3.009 -0.9040  0.4439 -0.0560
 1013MOL0     C36662   8.454   5.344   2.990  0.5561  0.4274 -0.0567
 1013MOL0     C36663   8.585   5.335   3.076 -0.6380  0.5141 -0.2414
 1013MOL0    Cl36664   8.678   5.189   3.042  0.3126 -0.1223  0.7150
 1013MOL0     C36665   7.685   5.497   3.335  0.0991 -0.9331 -0.6277
 1013MOL0     C36666   7.544   5.505   3.346  0.3419  0.0816  0.0042
 1013MOL0     O36667   7.300   5.440   3.211  0.4435 -0.3899 -0.1317
 1013MOL0     C36668   7.032   5.502   3.258 -0.0050 -0.2886 -0.4159
 1013MOL0     C36669   6.894   5.520   3.282 -0.3849  0.3368  0.5536
 1013MOL0     N36670   6.154   5.717   3.471  0.1494  0.1951 -0.3690
 1013MOL0     N36671   6.049   5.730   3.391 -0.4815 -0.0498  0.3681
 1013MOL0     C36672   4.943   5.890   3.782  0.0165 -0.8741  0.3529
 1013MOL0     C36673   4.812   5.940   3.804  0.3110 -0.4332  0.4034
 1013MOL0     C36674   4.370   5.994   3.842 -0.6867 -0.4321  0.2675
 1013MOL0     C36675   4.303   6.007   3.720 -0.1244 -0.2791  0.0076
 1013MOL0     C36676   4.171   6.051   3.721  0.1270  0.4017  0.1838
 1013MOL0     C36677   4.109   6.097   3.837  0.2490  0.1339 -0.1172
 1013MOL0     O36678   3.983   6.157   3.831 -1.2605  0.0655 -0.1709
 1013MOL0     C36679   3.880   6.052   3.859  0.4587 -1.0305  0.2584
 1013MOL0     C36680   3.782   6.035   3.747 -0.4418 -0.0181 -0.3681
 1013MOL0     C36681   3.659   5.955   3.789  0.6052 -0.0352 -0.4232
 1013MOL0     C36682   3.567   5.911   3.673  0.3483 -0.4219 -0.0005
 1013MOL0     C36683   3.507   6.028   3.607 -0.3616  0.1916 -0.2470
 1013MOL0     C36684   3.482   6.133   3.546 -0.2112 -0.3806 -0.3186
 1013MOL0     C36685   4.168   6.073   3.961 -0.0223 -0.0120  0.1443
 1013MOL0     C36686   4.299   6.025   3.964  0.2051  0.0680  0.4907
 1013MOL0     C36687   4.362   6.018   4.104  0.7715 -0.1333  0.8878
 1013MOL0     H36688   4.665   5.824   3.520 -1.4594 -0.2416  0.9300
 1013MOL0     H36689   4.876   5.738   3.479 -0.2799  0.8437 -0.2148
 1013MOL0     H36690   5.232   5.887   3.740 -0.2196 -0.7741  0.0555
 1013MOL0     H36691   5.157   5.765   3.831  1.7427  1.4505  1.0914
 1013MOL0     H36692   5.246   5.591   3.689  0.0943  0.0354 -0.5349
 1013MOL0     H36693   5.379   5.677   3.783  1.0844  0.7553 -0.9524
 1013MOL0     H36694   5.379   5.833   3.570  0.8168 -0.1454  2.4149
 1013MOL0     H36695   5.305   5.705   3.483  0.8016  1.6396 -1.3788
 1013MOL0     H36696   5.568   5.670   3.631 -0.6723  0.2142  0.4319
 1013MOL0     H36697   5.484   5.541   3.549  0.7101 -0.1350 -2.5623
 1013MOL0     H36698   5.518   5.635   3.322  1.1601  1.2511  0.0768
 1013MOL0     H36699   5.590   5.781   3.395 -1.8396  1.1709 -1.1348
 1013MOL0     H36700   5.771   5.637   3.490 -1.8980 -0.2550  0.8691
 1013MOL0     H36701   5.688   5.499   3.412 -2.8024 -0.3297  0.0565
 1013MOL0     H36702   5.790   5.753   3.272 -0.2097 -0.0999 -2.3236
 1013MOL0     H36703   5.724   5.610   3.187  1.0165 -1.4935 -0.7089
 1013MOL0     H36704   5.900   5.471   3.222  2.0702 -0.1590 -0.6713
 1013MOL0     H36705   5.960   5.617   3.149 -0.0912 -0.0156 -0.0326
 1013MOL0     H36706   6.106   5.409   3.380  1.3402  0.4446 -0.2328
 1013MOL0     H36707   6.321   5.592   3.637 -1.5477  0.0721  0.4182
 1013MOL0     H36708   6.264   5.427   3.606  0.3416 -1.3560 -0.7089
 1013MOL0     H36709   6.486   5.437   3.530 -0.1807  0.7209  0.6842
 1013MOL0     H36710   6.387   5.453   3.376 -2.1273  1.8076 -0.3677
 1013MOL0     H36711   6.505   5.691   3.503  1.4859  1.3084 -1.1002
 1013MOL0     H36712   6.413   5.679   3.369  1.2822  0.9316 -0.3359
 1013MOL0     H36713   6.659   5.681   3.317 -1.4561  0.4413 -0.8762
 1013MOL0     H36714   6.593   5.521   3.264 -0.0615  0.2130 -1.1215
 1013MOL0     H36715   6.894   5.513   3.621  1.0689  0.8026  0.0139
 1013MOL0     H36716   7.141   5.466   3.571  1.5391  2.3505 -1.7689
 1013MOL0     H36717   7.493   5.203   3.501  2.6686 -1.6662  0.8751
 1013MOL0     H36718   7.730   5.194   3.478  0.6919  0.0931  1.0257
 1013MOL0     H36719   7.980   5.439   3.220  2.7541 -1.7167 -0.7719
 1013MOL0     H36720   7.966   5.552   3.360  1.1740  0.5599  0.2110
 1013MOL0     H36721   8.202   5.481   3.359  0.3550 -0.4467 -0.1394
 1013MOL0     H36722   8.098   5.405   3.478  0.2638 -1.4507 -0.6409
 1013MOL0     H36723   8.264   5.246   3.401 -0.5595 -0.5970  1.1855
 1013MOL0     H36724   8.108   5.200   3.315 -0.3196  0.3341  3.1584
 1013MOL0     H36725   8.330   5.374   3.226  0.2404  0.2506 -0.8953
 1013MOL0     H36726   8.184   5.333   3.131  0.9999  0.6244 -1.1718
 1013MOL0     H36727   8.259   5.090   3.149 -0.5109  0.5123  1.2738
 1013MOL0     H36728   8.417   5.167   3.213  1.7073  0.5771 -1.1571
 1013MOL0     H36729   8.432   5.134   2.964 -0.1854  0.3043  1.1362
 1013MOL0     H36730   8.282   5.217   2.945 -0.7818  1.8950 -0.1733
 1013MOL0     H36731   8.390   5.430   3.010 -2.3816 -1.2981 -1.3346
 1013MOL0     H36732   8.471   5.344   2.882  3.1392 -0.7224  0.2875
 1013MOL0     H36733   8.648   5.420   3.047  1.9691 -0.6083  1.7316
 1013MOL0     H36734   8.550   5.347   3.178 -1.9910 -0.7652 -0.5134
 1013MOL0     H36735   7.733   5.585   3.296  0.0574  1.1046  3.3491
 1013MOL0     H36736   7.490   5.585   3.297 -1.1425 -0.8993 -0.0321
 1013MOL0     H36737   7.075   5.495   3.159 -1.0143  1.2499 -0.9930
 1013MOL0     H36738   6.831   5.541   3.196  0.5090  1.0234  0.0496
 1013MOL0     H36739   5.010   5.913   3.864 -1.3133  2.4837  0.6551
 1013MOL0     H36740   4.793   5.989   3.900  2.5638  0.9857  0.2148
 1013MOL0     H36741   4.341   5.977   3.622  0.8397  1.8557 -0.3247
 1013MOL0     H36742   4.118   6.063   3.627  1.1550  0.1217 -0.4470
 1013MOL0     H36743   3.821   6.086   3.945 -1.7594 -0.3483 -1.4431
 1013MOL0     H36744   3.913   5.949   3.872 -1.8185 -1.8076  0.2840
 1013MOL0     H36745   3.827   5.977   3.665 -2.1383 -1.2975 -0.4560
 1013MOL0     H36746   3.764   6.133   3.702  1.3465 -0.4237 -2.1444
 1013MOL0     H36747   3.604   6.020   3.856 -1.1972 -1.5846 -0.2973
 1013MOL0     H36748   3.695   5.865   3.841  1.2976 -0.9004 -2.2969
 1013MOL0     H36749   3.617   5.847   3.599 -0.3885 -0.1765 -0.7239
 1013MOL0     H36750   3.484   5.850   3.712  1.1033  0.3415  3.0556
 1013MOL0     H36751   3.458   6.230   3.506  0.1110 -0.1797 -0.0273
 1013MOL0     H36752   4.114   6.103   4.050 -0.7437 -0.7273 -0.0373
 1013MOL0     H36753   4.393   5.914   4.117  1.5365  0.1535  1.4921
 1013MOL0     H36754   4.448   6.085   4.115  0.2700  0.2017  3.3758
 1013MOL0     H36755   4.285   6.043   4.177 -2.0550 -0.5192 -1.7552
 1014MOL0     O36756   6.880   8.279   9.050 -0.3723 -0.7181  0.1175
 1014MOL0     C36757   6.821   8.377   8.998 -0.1822 -0.0009 -0.0416
 1014MOL0     O36758   6.880   8.470   8.919 -0.3928 -0.5739  0.9027
 1014MOL0     C36759   7.011   8.462   8.880  0.7759  0.3540  0.6754
 1014MOL0     C36760   7.083   8.579   8.896  0.1606  0.2071 -0.2491
 1014MOL0     C36761   7.211   8.576   8.846 -0.1095 -0.7267 -0.2514
 1014MOL0     C36762   7.268   8.463   8.783 -0.0971  0.3709  0.6873
 1014MOL0     O36763   7.396   8.479   8.731 -0.4544 -0.5634 -0.4434
 1014MOL0     C36764   7.498   8.393   8.777  0.0652 -0.3600 -0.6660
 1014MOL0     C36765   7.627   8.459   8.734  0.4622  0.5891 -0.2844
 1014MOL0     C36766   7.684   8.558   8.836  0.2383 -0.8414  0.0993
 1014MOL0     C36767   7.829   8.605   8.816  0.3857 -0.8182  0.3807
 1014MOL0     C36768   7.855   8.726   8.905  0.4576 -0.0850 -0.2845
 1014MOL0     C36769   7.987   8.789   8.873 -0.9267  0.6212 -0.5377
 1014MOL0     C36770   8.015   8.899   8.971  0.0833 -0.5474 -0.4091
 1014MOL0     C36771   8.131   8.990   8.936  0.7013  0.1821 -0.1770
 1014MOL0     N36772   8.181   9.061   9.058 -0.0379 -0.6847  0.5796
 1014MOL0     C36773   8.163   9.195   9.086 -0.1305  0.8530 -0.0295
 1014MOL0     C36774   8.208   9.210   9.213 -0.5413  0.0134 -0.6123
 1014MOL0     C36775   8.228   9.349   9.283  0.4847  0.5518 -0.6872
 1014MOL0     C36776   8.090   9.412   9.313 -0.0172  0.3847 -0.2924
 1014MOL0     C36777   8.103   9.552   9.352  0.2477  0.1487  0.2922
 1014MOL0     C36778   7.971   9.621   9.359 -0.0581  0.6357 -0.1398
 1014MOL0     O36779   7.886   9.564   9.463 -0.1528  0.2560 -0.2423
 1014MOL0     C36780   7.757   9.606   9.481 -0.3180  0.6117 -0.1104
 1014MOL0     C36781   7.666   9.538   9.568 -0.7969 -0.5483 -1.2216
 1014MOL0     C36782   7.528   9.574   9.569 -0.8392 -0.5635  0.4574
 1014MOL0     C36783   7.479   9.683   9.496  0.1406  0.3616 -0.4620
 1014MOL0     C36784   7.335   9.727   9.498  0.8049 -0.0884  0.1699
 1014MOL0     O36785   7.252   9.666   9.589  0.2572 -0.1247 -0.3924
 1014MOL0     C36786   7.112   9.675   9.583  0.2310  0.2150 -0.2868
 1014MOL0     C36787   7.044   9.653   9.704  0.4711  0.2996 -0.1720
 1014MOL0     C36788   6.899   9.640   9.710  0.7425 -0.1538  0.8482
 1014MOL0     C36789   6.827   9.651   9.591 -0.3934  0.3202 -0.9167
 1014MOL0     O36790   6.686   9.653   9.605  0.1408 -0.1542  0.3252
 1014MOL0     C36791   6.603   9.671   9.487 -0.7192 -0.4445  0.5030
 1014MOL0     C36792   6.469   9.674   9.547  1.1387  0.0722  0.5019
 1014MOL0     C36793   6.347   9.648   9.457 -0.1736  0.6766  0.0670
 1014MOL0     C36794   6.202   9.657   9.508  0.2587 -0.7024  0.2938
 1014MOL0     C36795   6.112   9.590   9.396 -0.4073 -0.8696  0.5576
 1014MOL0     C36796   5.961   9.595   9.425 -0.9900 -0.3979 -0.0437
 1014MOL0     C36797   5.906   9.739   9.463  0.6583  0.7415  0.2484
 1014MOL0     C36798   5.759   9.736   9.479 -0.9747  0.4410  0.3066
 1014MOL0    Cl36799   5.731   9.683   9.645 -0.0817  0.2492 -0.4173
 1014MOL0     C36800   6.900   9.681   9.472  1.1333  0.1698 -0.0155
 1014MOL0     C36801   7.038   9.689   9.463 -0.3579 -0.7159 -1.5444
 1014MOL0     O36802   7.301   9.801   9.408  0.0691  0.6995 -0.7779
 1014MOL0     C36803   7.572   9.762   9.428 -0.0041 -0.2355  0.0423
 1014MOL0     C36804   7.711   9.717   9.418 -0.0649  0.0659  0.1735
 1014MOL0     N36805   8.251   9.083   9.259  0.3189 -0.4584  0.6204
 1014MOL0     N36806   8.230   8.995   9.164  0.3619 -0.1890  0.0212
 1014MOL0     C36807   7.199   8.346   8.777  0.3497  0.6358 -0.6133
 1014MOL0     C36808   7.062   8.344   8.810  0.1384 -0.1468 -0.0165
 1014MOL0     C36809   6.674   8.388   9.025 -0.8800 -0.2324 -1.1793
 1014MOL0     C36810   6.625   8.304   9.123 -0.2488 -0.5808  0.7487
 1014MOL0     C36811   6.492   8.310   9.163  0.1299  0.3794  1.2762
 1014MOL0     C36812   6.401   8.407   9.109 -0.5629 -0.5363  0.5344
 1014MOL0     O36813   6.270   8.420   9.141  0.5027  0.5145  0.1031
 1014MOL0     C36814   6.206   8.353   9.246 -0.4858 -0.3946 -1.1326
 1014MOL0     C36815   6.253   8.404   9.388  0.5028  0.2207 -0.0364
 1014MOL0     C36816   6.222   8.294   9.499 -0.3090 -0.3318  0.4393
 1014MOL0     C36817   6.090   8.310   9.573 -0.7399 -0.7956  0.4611
 1014MOL0     C36818   6.084   8.256   9.706  0.2573  0.7840 -0.3316
 1014MOL0     C36819   6.086   8.218   9.823  0.3330 -0.1649 -0.2199
 1014MOL0     C36820   6.450   8.491   9.010  0.4919  0.4712  0.6771
 1014MOL0     C36821   6.581   8.487   8.974  1.0366  0.1349  0.2102
 1014MOL0     C36822   6.624   8.588   8.871  0.2386 -0.0365  0.2955
 1014MOL0     H36823   7.045   8.665   8.952 -0.0621  0.0473 -0.1538
 1014MOL0     H36824   7.273   8.665   8.856 -2.3514  0.7966  1.1355
 1014MOL0     H36825   7.499   8.378   8.886 -1.2786  1.1042 -0.4069
 1014MOL0     H36826   7.494   8.296   8.726 -1.0724 -0.9774  0.5250
 1014MOL0     H36827   7.607   8.508   8.638 -0.3845 -0.6368 -0.7532
 1014MOL0     H36828   7.697   8.382   8.701 -0.9100 -0.7970 -0.0194
 1014MOL0     H36829   7.678   8.527   8.940 -1.7580 -2.2597 -0.3702
 1014MOL0     H36830   7.634   8.654   8.820 -0.9138 -1.7868 -2.6615
 1014MOL0     H36831   7.906   8.532   8.841  0.3266 -0.2189  2.4480
 1014MOL0     H36832   7.839   8.628   8.709 -0.5282 -2.6259 -0.1398
 1014MOL0     H36833   7.777   8.801   8.891  0.2625  0.0305  1.3048
 1014MOL0     H36834   7.852   8.694   9.010 -2.9371 -1.0757 -0.5333
 1014MOL0     H36835   8.068   8.716   8.878 -0.0450  1.5497 -0.9966
 1014MOL0     H36836   7.974   8.823   8.770  1.1306 -0.3550 -1.1602
 1014MOL0     H36837   8.036   8.851   9.067 -0.4013  0.2976  0.1268
 1014MOL0     H36838   7.927   8.963   8.980 -1.6235 -2.5923 -1.6810
 1014MOL0     H36839   8.210   8.939   8.882  0.1085 -0.2622 -0.6375
 1014MOL0     H36840   8.096   9.061   8.861 -3.4967 -0.2933  1.0550
 1014MOL0     H36841   8.125   9.273   9.021  1.1324 -0.3520 -2.3423
 1014MOL0     H36842   8.278   9.329   9.378  1.4005  0.7400 -1.1230
 1014MOL0     H36843   8.299   9.409   9.226  0.4836  1.0220 -0.2004
 1014MOL0     H36844   8.025   9.398   9.226  0.9832 -1.8791 -0.7367
 1014MOL0     H36845   8.036   9.355   9.390 -0.3008 -1.3601 -1.7173
 1014MOL0     H36846   8.169   9.610   9.286  1.2925 -0.3624  0.8646
 1014MOL0     H36847   8.149   9.551   9.451  2.3026  1.3750 -0.5804
 1014MOL0     H36848   7.919   9.615   9.263 -0.0777 -1.6663 -0.0575
 1014MOL0     H36849   7.981   9.727   9.383 -0.4906  1.3137 -2.6509
 1014MOL0     H36850   7.713   9.459   9.625  0.8896 -0.2289 -2.1049
 1014MOL0     H36851   7.451   9.523   9.626 -1.1620 -0.5601  0.0310
 1014MOL0     H36852   7.110   9.630   9.787 -1.2716 -0.1168  1.1406
 1014MOL0     H36853   6.848   9.625   9.804 -0.5781  0.7367  0.2981
 1014MOL0     H36854   6.619   9.767   9.438  1.9455 -1.3404 -0.5400
 1014MOL0     H36855   6.607   9.585   9.419 -1.3602 -1.0658  1.2234
 1014MOL0     H36856   6.466   9.600   9.627  0.5185  0.0271  0.4440
 1014MOL0     H36857   6.447   9.775   9.583  1.4113  0.7192 -1.0408
 1014MOL0     H36858   6.356   9.718   9.374  0.7799  2.6832  1.7712
 1014MOL0     H36859   6.363   9.546   9.421 -1.0474 -1.5296  5.0352
 1014MOL0     H36860   6.178   9.763   9.514  0.0450 -0.2424 -4.6781
 1014MOL0     H36861   6.190   9.610   9.606 -0.2523  2.9621  2.1614
 1014MOL0     H36862   6.140   9.487   9.376  2.0366  0.0952 -1.6529
 1014MOL0     H36863   6.128   9.650   9.305  0.0979 -0.5255  0.8635
 1014MOL0     H36864   5.918   9.548   9.337 -0.2970  0.8139 -1.0548
 1014MOL0     H36865   5.945   9.522   9.506  0.0839 -0.7262 -0.1024
 1014MOL0     H36866   5.920   9.808   9.379  1.7672 -1.0325 -1.1182
 1014MOL0     H36867   5.945   9.793   9.550  0.7602  0.5574  0.3182
 1014MOL0     H36868   5.717   9.837   9.466 -0.1780  0.9794  1.6712
 1014MOL0     H36869   5.715   9.656   9.419 -0.7340  1.0347 -0.6873
 1014MOL0     H36870   6.838   9.691   9.384  0.4481  2.5810  0.6733
 1014MOL0     H36871   7.101   9.700   9.375  2.4354  0.0740  0.4074
 1014MOL0     H36872   7.533   9.845   9.369  1.2145  1.1668  1.1275
 1014MOL0     H36873   7.779   9.774   9.355 -0.7083 -0.0490 -0.6515
 1014MOL0     H36874   7.242   8.272   8.711  0.0744  0.8811 -1.0697
 1014MOL0     H36875   6.998   8.257   8.798 -0.7183  0.6407 -1.4133
 1014MOL0     H36876   6.693   8.241   9.180  0.0566 -0.2914  0.7063
 1014MOL0     H36877   6.456   8.245   9.243 -3.9219  0.8717  0.0714
 1014MOL0     H36878   6.232   8.248   9.226  2.1165 -0.1412  0.4091
 1014MOL0     H36879   6.097   8.357   9.235 -1.0261 -3.5124  1.6085
 1014MOL0     H36880   6.211   8.500   9.418  0.8491  0.3807 -0.0625
 1014MOL0     H36881   6.362   8.414   9.391  0.9472 -3.0574 -0.8843
 1014MOL0     H36882   6.307   8.297   9.568  0.3267  0.8228 -0.3552
 1014MOL0     H36883   6.226   8.191   9.462  2.0664 -0.5606  1.1192
 1014MOL0     H36884   6.052   8.413   9.576 -2.1142 -1.3159  2.4549
 1014MOL0     H36885   6.018   8.248   9.518 -0.4212  0.1803 -1.1264
 1014MOL0     H36886   6.076   8.186   9.925  1.2593  0.5713  0.1175
 1014MOL0     H36887   6.380   8.560   8.966 -0.6065 -1.1808 -0.2959
 1014MOL0     H36888   6.545   8.662   8.858  1.2003  0.9179 -0.2603
 1014MOL0     H36889   6.707   8.646   8.913  0.3633  0.3388 -0.4571
 1014MOL0     H36890   6.636   8.541   8.773 -0.5799 -0.0494  0.1881
 1015MOL0     O36891   1.519   0.657   8.968 -0.0168  1.0085  0.1556
 1015MOL0     C36892   1.482   0.739   8.884  0.2666  0.0201 -0.1790
 1015MOL0     O36893   1.558   0.824   8.812  0.0716 -0.2665 -0.2560
 1015MOL0     C36894   1.688   0.836   8.851  0.1697  0.7425 -0.1536
 1015MOL0     C36895   1.723   0.875   8.976 -1.0222 -0.4877 -0.4088
 1015MOL0     C36896   1.854   0.903   9.002  0.2549 -0.1593  0.0585
 1015MOL0     C36897   1.954   0.901   8.906  0.1334  0.4968 -0.5914
 1015MOL0     O36898   2.086   0.940   8.928  0.1398 -0.0155 -0.6716
 1015MOL0     C36899   2.098   1.056   9.010 -0.0517  0.0218 -0.7546
 1015MOL0     C36900   2.201   1.151   8.946  0.5392  1.1539 -0.9826
 1015MOL0     C36901   2.350   1.086   8.942  0.0746 -0.4469  0.2072
 1015MOL0     C36902   2.461   1.191   8.890 -0.5993 -0.8407  0.1032
 1015MOL0     C36903   2.597   1.109   8.868 -0.1750  0.3270 -0.3360
 1015MOL0     C36904   2.729   1.188   8.868  0.5501  0.9177 -1.1445
 1015MOL0     C36905   2.857   1.105   8.841  0.1823 -0.7343 -0.2218
 1015MOL0     C36906   2.977   1.197   8.846 -0.3857  0.1424 -0.1069
 1015MOL0     N36907   3.102   1.132   8.890  0.7360 -0.3422 -0.2423
 1015MOL0     C36908   3.180   1.156   8.999  0.1632  0.2324 -0.0574
 1015MOL0     C36909   3.274   1.053   9.007  0.7972 -0.2240  0.2492
 1015MOL0     C36910   3.389   1.040   9.100 -0.1441  1.1725  0.4298
 1015MOL0     C36911   3.389   1.124   9.229 -0.1773  0.7794  0.5532
 1015MOL0     C36912   3.453   1.044   9.349 -0.5283 -0.2321  0.4248
 1015MOL0     C36913   3.590   1.003   9.319 -0.0147 -0.1599 -0.0636
 1015MOL0     O36914   3.665   1.112   9.267  0.1957  0.4540 -0.6225
 1015MOL0     C36915   3.795   1.090   9.225 -0.1403  1.3933 -0.0841
 1015MOL0     C36916   3.846   1.191   9.139  0.2845  0.0730 -0.5215
 1015MOL0     C36917   3.983   1.192   9.112  0.6554  0.3433 -0.2024
 1015MOL0     C36918   4.072   1.092   9.158 -0.6433 -0.3248 -0.3834
 1015MOL0     C36919   4.209   1.093   9.115  0.3965  0.5359  1.2581
 1015MOL0     O36920   4.297   1.032   9.198 -0.0909 -0.0202 -0.4798
 1015MOL0     C36921   4.433   1.031   9.180 -0.0939  0.1855 -0.4319
 1015MOL0     C36922   4.508   0.931   9.238 -0.1377  0.5417 -0.6091
 1015MOL0     C36923   4.652   0.917   9.226  0.3003 -0.3319  0.0080
 1015MOL0     C36924   4.715   1.028   9.177  0.7098  0.3947  0.4625
 1015MOL0     O36925   4.851   1.019   9.177 -0.3962 -0.4785  0.8303
 1015MOL0     C36926   4.922   1.087   9.070 -0.8339 -0.2389 -0.0750
 1015MOL0     C36927   5.072   1.077   9.082 -0.1143  0.0483 -0.5081
 1015MOL0     C36928   5.141   1.093   8.952  0.2614  0.1698  0.2135
 1015MOL0     C36929   5.290   1.094   8.965 -0.5469 -0.2798  0.5382
 1015MOL0     C36930   5.349   1.116   8.827  0.9131  1.3461  0.3508
 1015MOL0     C36931   5.506   1.124   8.831  0.3744  0.1577 -0.7962
 1015MOL0     C36932   5.559   1.260   8.805 -0.1480  0.1251 -0.8757
 1015MOL0     C36933   5.713   1.260   8.805  0.4288 -0.2273 -1.0701
 1015MOL0    Cl36934   5.765   1.182   8.960 -0.3441 -0.2129  0.0155
 1015MOL0     C36935   4.643   1.140   9.128  0.2208 -0.5478  0.7376
 1015MOL0     C36936   4.504   1.140   9.129  0.4555 -0.4001  0.8676
 1015MOL0     O36937   4.241   1.151   9.007  0.4657 -0.8321  0.1300
 1015MOL0     C36938   4.021   0.991   9.236 -0.1431 -0.0644 -0.1513
 1015MOL0     C36939   3.884   0.991   9.272  0.1403  0.1506 -0.3493
 1015MOL0     N36940   3.248   0.965   8.896 -0.0549 -0.2735  0.0067
 1015MOL0     N36941   3.138   1.014   8.833 -0.1657  0.3551  0.0953
 1015MOL0     C36942   1.922   0.862   8.778 -0.0134  0.2375 -0.7660
 1015MOL0     C36943   1.788   0.831   8.751  0.7599 -0.7739 -0.5801
 1015MOL0     C36944   1.332   0.740   8.856  0.5900  0.1218  0.1816
 1015MOL0     C36945   1.241   0.722   8.963 -0.3802 -0.2453 -0.3356
 1015MOL0     C36946   1.108   0.724   8.944 -0.0410  0.2530 -0.1224
 1015MOL0     C36947   1.054   0.748   8.817 -0.6250  0.1560  0.7246
 1015MOL0     O36948   0.921   0.737   8.781 -0.2084  0.1554 -0.2863
 1015MOL0     C36949   0.808   0.761   8.871  0.5560 -0.0132  0.6339
 1015MOL0     C36950   0.733   0.629   8.892  0.1838 -0.1475  0.0680
 1015MOL0     C36951   0.609   0.630   8.969 -0.1186  0.4952  0.2375
 1015MOL0     C36952   0.618   0.671   9.115  0.9167 -0.9573 -0.5810
 1015MOL0     C36953   0.486   0.665   9.184 -0.0843  0.1358  0.9997
 1015MOL0     C36954   0.379   0.672   9.231  0.2430  0.4344  0.6169
 1015MOL0     C36955   1.137   0.778   8.717 -0.4475 -0.0909 -0.0411
 1015MOL0     C36956   1.278   0.784   8.733  0.6291  0.6760  0.2956
 1015MOL0     C36957   1.360   0.806   8.611  0.3446  0.0598  0.1379
 1015MOL0     H36958   1.658   0.896   9.060 -0.6414 -1.6782  0.2044
 1015MOL0     H36959   1.890   0.946   9.095 -0.5108 -0.0762  0.3239
 1015MOL0     H36960   2.008   1.118   9.008 -2.6561 -2.7835  5.0781
 1015MOL0     H36961   2.121   1.036   9.115  1.0939 -1.5667 -1.2768
 1015MOL0     H36962   2.188   1.237   9.013  2.5368  1.0247 -0.3323
 1015MOL0     H36963   2.156   1.172   8.849  1.4488  0.2862 -1.6136
 1015MOL0     H36964   2.354   1.001   8.874 -0.5817  1.2424 -2.0543
 1015MOL0     H36965   2.378   1.041   9.038 -1.3746 -1.4138  0.2035
 1015MOL0     H36966   2.434   1.263   8.812  0.7585  1.2783  1.4673
 1015MOL0     H36967   2.457   1.257   8.978  1.0791  0.2666 -0.6032
 1015MOL0     H36968   2.594   1.036   8.949  2.4348  1.0040  0.4638
 1015MOL0     H36969   2.591   1.059   8.770  4.0222 -0.0004 -0.5739
 1015MOL0     H36970   2.718   1.267   8.792 -2.9995  2.2039  0.4863
 1015MOL0     H36971   2.740   1.237   8.965  0.0614 -0.2546 -0.4795
 1015MOL0     H36972   2.849   1.069   8.738  0.1056  2.0748 -1.2981
 1015MOL0     H36973   2.871   1.023   8.912 -0.4581 -1.1713 -0.5984
 1015MOL0     H36974   3.003   1.245   8.752  0.1406  2.1448  1.0024
 1015MOL0     H36975   2.968   1.284   8.912 -1.3275 -0.0232 -0.0039
 1015MOL0     H36976   3.182   1.241   9.066  0.3463 -1.2779  1.9215
 1015MOL0     H36977   3.395   0.932   9.120  1.5592  1.2742  0.6313
 1015MOL0     H36978   3.483   1.062   9.047 -1.3377 -0.2213 -2.5062
 1015MOL0     H36979   3.440   1.216   9.197 -0.3068  0.7439  0.2434
 1015MOL0     H36980   3.287   1.144   9.261 -0.3832  1.0207 -0.2343
 1015MOL0     H36981   3.388   0.960   9.376 -0.6976  0.1629  1.2764
 1015MOL0     H36982   3.448   1.101   9.442 -0.4635 -2.2898  1.7543
 1015MOL0     H36983   3.587   0.926   9.241 -1.4893  2.4024 -2.7526
 1015MOL0     H36984   3.628   0.960   9.412  2.8075 -2.0192 -1.9002
 1015MOL0     H36985   3.766   1.257   9.107 -2.1461 -0.0518  4.3478
 1015MOL0     H36986   4.026   1.273   9.054  0.4202  0.5959 -0.0288
 1015MOL0     H36987   4.452   0.855   9.291  3.9704 -0.1448  3.3700
 1015MOL0     H36988   4.702   0.829   9.265  1.4712  0.3625  0.0950
 1015MOL0     H36989   4.884   1.043   8.978 -2.0847 -0.6521  0.6217
 1015MOL0     H36990   4.911   1.196   9.070  0.2941 -0.1068  0.5706
 1015MOL0     H36991   5.101   1.149   9.160 -1.9433 -0.5667  0.8236
 1015MOL0     H36992   5.106   0.977   9.111  0.5059  0.1628 -0.8334
 1015MOL0     H36993   5.119   1.018   8.876  0.0967  1.7027 -1.3147
 1015MOL0     H36994   5.114   1.187   8.903  2.0317  1.2107  1.1077
 1015MOL0     H36995   5.323   0.999   9.006 -1.0340  0.0273  1.6737
 1015MOL0     H36996   5.320   1.167   9.040  1.6370 -1.1593  0.5992
 1015MOL0     H36997   5.318   1.207   8.775 -1.7272 -0.7057 -1.9545
 1015MOL0     H36998   5.320   1.033   8.762 -0.0919 -1.4875  4.0446
 1015MOL0     H36999   5.536   1.089   8.930 -0.1020  1.0944 -0.3069
 1015MOL0     H37000   5.551   1.061   8.753  1.9315  1.0133 -0.6238
 1015MOL0     H37001   5.529   1.328   8.885  0.6291 -0.4333 -0.0950
 1015MOL0     H37002   5.521   1.294   8.708 -4.3524 -0.5849  0.2957
 1015MOL0     H37003   5.751   1.195   8.725  1.6683 -1.5331  0.5137
 1015MOL0     H37004   5.750   1.362   8.791 -1.5573  0.6376 -0.4632
 1015MOL0     H37005   4.701   1.225   9.092 -1.4666  0.5015  0.4086
 1015MOL0     H37006   4.443   1.227   9.111  0.7591  0.4053  3.3428
 1015MOL0     H37007   4.087   0.915   9.277  2.3823  2.7417  1.3601
 1015MOL0     H37008   3.849   0.903   9.325  1.6501 -0.5480 -0.4685
 1015MOL0     H37009   2.000   0.852   8.704  1.3756 -0.8747  0.7674
 1015MOL0     H37010   1.745   0.795   8.658  1.0301 -2.8324  0.0434
 1015MOL0     H37011   1.288   0.700   9.058  1.6860  1.8646 -0.7706
 1015MOL0     H37012   1.040   0.691   9.021  1.1207 -2.2255 -0.0576
 1015MOL0     H37013   0.737   0.830   8.824 -1.8561 -0.6655  3.0412
 1015MOL0     H37014   0.839   0.807   8.966 -0.3261  2.5545 -0.2368
 1015MOL0     H37015   0.805   0.561   8.938 -1.7622 -1.1562  1.7227
 1015MOL0     H37016   0.709   0.592   8.791 -0.7644  1.0957 -0.1848
 1015MOL0     H37017   0.561   0.531   8.968 -0.0455  0.4508 -0.7673
 1015MOL0     H37018   0.544   0.703   8.921  1.1449  0.6355 -1.3435
 1015MOL0     H37019   0.685   0.605   9.170  0.3814 -0.7651  0.3327
 1015MOL0     H37020   0.659   0.772   9.119 -0.4189 -0.4196  0.4025
 1015MOL0     H37021   0.275   0.672   9.259  0.8697 -1.5992  3.2968
 1015MOL0     H37022   1.092   0.806   8.622  0.2206  4.8209  0.8018
 1015MOL0     H37023   1.429   0.725   8.587 -1.1543 -2.1085  2.5617
 1015MOL0     H37024   1.302   0.826   8.520  2.1015  0.7060 -0.8811
 1015MOL0     H37025   1.424   0.892   8.630 -0.5245  0.8370 -0.3654
 1016MOL0     O37026   5.117   3.837   6.678 -0.2301  0.4679  0.5130
 1016MOL0     C37027   5.051   3.742   6.707 -0.4151  0.2836 -0.2015
 1016MOL0     O37028   5.051   3.679   6.828 -0.2575 -0.1396  0.1388
 1016MOL0     C37029   5.141   3.720   6.923 -0.4424 -1.1985 -0.2683
 1016MOL0     C37030   5.188   3.620   7.007  0.3075 -0.4631 -0.6046
 1016MOL0     C37031   5.281   3.651   7.109  0.0053 -0.0254 -0.1203
 1016MOL0     C37032   5.326   3.782   7.128 -0.7099 -0.0093 -0.3949
 1016MOL0     O37033   5.426   3.808   7.218  0.2109  0.2490  0.5318
 1016MOL0     C37034   5.410   3.918   7.308  0.3953 -0.0896 -0.4844
 1016MOL0     C37035   5.551   3.949   7.351  0.0810  0.2016 -0.0351
 1016MOL0     C37036   5.551   4.073   7.448  0.5435 -1.1353 -0.2257
 1016MOL0     C37037   5.691   4.099   7.493  0.1757 -0.5165  0.5942
 1016MOL0     C37038   5.686   4.220   7.596 -0.7653 -0.3487  0.1443
 1016MOL0     C37039   5.824   4.236   7.652 -0.5509  0.7275 -1.7920
 1016MOL0     C37040   5.807   4.301   7.789  0.8204 -0.8818  0.8516
 1016MOL0     C37041   5.942   4.320   7.853 -0.0680  0.0872  1.2552
 1016MOL0     N37042   5.919   4.376   7.977  0.0694 -0.1002 -0.2593
 1016MOL0     C37043   5.977   4.336   8.096  0.5952 -0.8274 -0.3389
 1016MOL0     C37044   5.913   4.411   8.194 -0.3297  0.1419  0.9096
 1016MOL0     C37045   5.950   4.414   8.343 -0.3331  0.5640 -0.5650
 1016MOL0     C37046   6.084   4.482   8.395 -0.6418  0.2230  0.1738
 1016MOL0     C37047   6.207   4.472   8.305  0.3845  0.9602  0.9895
 1016MOL0     C37048   6.322   4.550   8.367  0.5812  0.4119 -0.2946
 1016MOL0     O37049   6.448   4.504   8.314  0.0879 -0.2591  1.2305
 1016MOL0     C37050   6.565   4.572   8.350  0.4950  0.3693 -0.5894
 1016MOL0     C37051   6.683   4.528   8.291 -0.7778 -0.6818  0.6390
 1016MOL0     C37052   6.804   4.585   8.313 -0.3479  0.1246 -0.0907
 1016MOL0     C37053   6.818   4.697   8.399  0.4043 -0.7618  0.8095
 1016MOL0     C37054   6.941   4.775   8.421  0.3002  0.8482  1.0502
 1016MOL0     O37055   6.943   4.859   8.514  0.6078  0.0526 -0.4206
 1016MOL0     C37056   7.046   4.945   8.534 -0.3607 -0.4987  0.4468
 1016MOL0     C37057   7.137   4.987   8.438 -0.4961  0.6095  0.4988
 1016MOL0     C37058   7.240   5.075   8.463 -0.3547  0.8542  0.6981
 1016MOL0     C37059   7.253   5.131   8.593  0.8710  0.1473 -0.1943
 1016MOL0     O37060   7.345   5.228   8.613 -0.2051 -0.1761 -0.1739
 1016MOL0     C37061   7.328   5.338   8.713 -0.5084 -0.0129 -0.1387
 1016MOL0     C37062   7.419   5.452   8.694  0.0278 -1.2267  0.1927
 1016MOL0     C37063   7.566   5.411   8.675  1.6205  0.8785  0.2330
 1016MOL0     C37064   7.665   5.532   8.665  0.5092 -0.0249  0.1667
 1016MOL0     C37065   7.699   5.599   8.796 -0.1844  0.1189  0.4343
 1016MOL0     C37066   7.808   5.708   8.775 -0.0660 -0.4608 -0.0599
 1016MOL0     C37067   7.748   5.836   8.725  0.1185 -0.4167 -0.0407
 1016MOL0     C37068   7.828   5.974   8.754  0.0289  0.0855  0.3795
 1016MOL0    Cl37069   7.985   5.951   8.709  0.2197  0.3388  0.3380
 1016MOL0     C37070   7.165   5.087   8.694  0.9212 -0.1324 -0.6534
 1016MOL0     C37071   7.065   4.996   8.658  0.4326 -0.3809  0.1575
 1016MOL0     O37072   7.035   4.743   8.348  0.1146  0.8164  0.0301
 1016MOL0     C37073   6.701   4.744   8.463 -0.0656  0.3647  0.1303
 1016MOL0     C37074   6.567   4.678   8.439 -0.4820 -0.7812 -0.2354
 1016MOL0     N37075   5.842   4.503   8.135 -0.0287  0.4732 -0.5255
 1016MOL0     N37076   5.836   4.481   8.003 -0.0466 -0.5846  0.6542
 1016MOL0     C37077   5.282   3.883   7.043 -0.0752 -0.1243 -0.3282
 1016MOL0     C37078   5.179   3.855   6.959  0.1621 -0.9638  0.3947
 1016MOL0     C37079   4.964   3.681   6.596  0.0709 -0.1140 -0.7411
 1016MOL0     C37080   4.974   3.736   6.468 -0.0661  0.0919  0.5631
 1016MOL0     C37081   4.891   3.690   6.368 -0.3347  0.0584 -0.7187
 1016MOL0     C37082   4.794   3.593   6.393  0.3602  0.7921 -0.7750
 1016MOL0     O37083   4.696   3.578   6.304 -0.3014 -0.0237  0.5336
 1016MOL0     C37084   4.561   3.620   6.341 -0.2280  0.5585 -0.6091
 1016MOL0     C37085   4.463   3.494   6.325  0.5458 -0.5013  0.2009
 1016MOL0     C37086   4.318   3.526   6.362 -0.2208  0.1988  0.6567
 1016MOL0     C37087   4.295   3.511   6.509 -0.9002 -0.1169  0.3619
 1016MOL0     C37088   4.159   3.543   6.545 -0.3775 -1.6837  0.1552
 1016MOL0     C37089   4.054   3.586   6.594 -0.0437 -0.0339  0.5784
 1016MOL0     C37090   4.783   3.524   6.516 -0.3952 -0.1659  0.0219
 1016MOL0     C37091   4.869   3.572   6.619 -0.1994  0.6238 -0.4356
 1016MOL0     C37092   4.851   3.513   6.753  0.5007  0.0945  0.3668
 1016MOL0     H37093   5.143   3.522   6.996 -0.8746  0.1170 -1.1161
 1016MOL0     H37094   5.322   3.585   7.184 -1.0430  0.4170  0.8660
 1016MOL0     H37095   5.352   4.000   7.264 -1.2500  0.0774  1.8295
 1016MOL0     H37096   5.346   3.881   7.389 -0.6312  1.4943 -0.5166
 1016MOL0     H37097   5.616   3.968   7.266  1.2567 -1.3746  0.4564
 1016MOL0     H37098   5.588   3.864   7.410 -0.7696 -1.0294 -1.2089
 1016MOL0     H37099   5.487   4.058   7.535 -0.8513  2.7426 -0.4006
 1016MOL0     H37100   5.512   4.163   7.401  0.0291 -0.5906  1.1958
 1016MOL0     H37101   5.726   4.007   7.539 -0.5556 -1.8733 -1.4133
 1016MOL0     H37102   5.759   4.124   7.410 -1.9937 -0.0846 -1.1510
 1016MOL0     H37103   5.646   4.316   7.562 -1.2595  0.3934  2.6001
 1016MOL0     H37104   5.619   4.194   7.679 -1.9150  1.4071 -0.1992
 1016MOL0     H37105   5.869   4.137   7.663  0.9644  1.6098  0.5967
 1016MOL0     H37106   5.892   4.292   7.587  0.5545  2.5035  0.7581
 1016MOL0     H37107   5.749   4.240   7.859  1.6550 -0.2918  2.0672
 1016MOL0     H37108   5.742   4.389   7.780  1.1525 -0.5617  1.5615
 1016MOL0     H37109   5.984   4.220   7.867 -1.4903 -0.4011  2.3685
 1016MOL0     H37110   6.001   4.392   7.796 -1.0833  1.3852  1.7892
 1016MOL0     H37111   6.058   4.266   8.113  1.9010 -0.0850 -2.9405
 1016MOL0     H37112   5.865   4.461   8.393 -1.9596 -1.0519 -1.6751
 1016MOL0     H37113   5.955   4.314   8.387 -1.7831  0.5462 -0.3852
 1016MOL0     H37114   6.059   4.587   8.413  2.5606  1.4701 -1.9061
 1016MOL0     H37115   6.109   4.439   8.493  2.9983 -1.7233 -1.4302
 1016MOL0     H37116   6.185   4.511   8.205 -3.1167 -2.2998  0.2625
 1016MOL0     H37117   6.235   4.367   8.290 -2.0890  0.3705 -0.0610
 1016MOL0     H37118   6.311   4.534   8.475 -1.9018  0.2207 -0.5123
 1016MOL0     H37119   6.305   4.655   8.341  0.5676 -0.3865 -4.1186
 1016MOL0     H37120   6.672   4.435   8.237  1.0316 -0.1898 -0.6702
 1016MOL0     H37121   6.901   4.551   8.277  1.0571  4.0922 -0.5611
 1016MOL0     H37122   7.128   4.958   8.334 -0.6005  1.4739  0.2555
 1016MOL0     H37123   7.305   5.100   8.380 -2.8550  1.9152 -1.0361
 1016MOL0     H37124   7.221   5.362   8.711 -1.7398 -4.2096  2.1115
 1016MOL0     H37125   7.358   5.299   8.810 -0.1358 -1.2175 -0.7119
 1016MOL0     H37126   7.380   5.519   8.617  1.3329 -1.2190 -0.5095
 1016MOL0     H37127   7.416   5.512   8.785  1.0872  0.3567 -0.7536
 1016MOL0     H37128   7.589   5.341   8.755 -1.1022  0.2284  0.5629
 1016MOL0     H37129   7.569   5.348   8.585  2.0694  0.6180  0.4277
 1016MOL0     H37130   7.618   5.606   8.600  2.6296  1.1546 -0.0996
 1016MOL0     H37131   7.755   5.491   8.617 -0.3183 -1.8322  0.0622
 1016MOL0     H37132   7.744   5.521   8.858 -1.3170 -2.5723 -1.8739
 1016MOL0     H37133   7.608   5.643   8.838 -0.8059 -1.2969  0.6346
 1016MOL0     H37134   7.847   5.723   8.876  1.1372  1.1432 -0.7244
 1016MOL0     H37135   7.886   5.667   8.711 -1.3116 -1.6389 -0.8826
 1016MOL0     H37136   7.645   5.848   8.758  0.0917 -0.2361 -0.1890
 1016MOL0     H37137   7.751   5.830   8.616  4.3491 -2.3375 -0.0182
 1016MOL0     H37138   7.775   6.049   8.694 -1.1851 -0.8080  0.2983
 1016MOL0     H37139   7.824   6.002   8.860  1.1249  1.9596 -0.0309
 1016MOL0     H37140   7.174   5.133   8.792 -1.7630  2.5792 -1.5284
 1016MOL0     H37141   6.986   4.973   8.728  0.1424 -1.7649 -0.5957
 1016MOL0     H37142   6.709   4.816   8.544  0.2335 -1.4586  1.7855
 1016MOL0     H37143   6.483   4.710   8.498 -1.4558  0.4066 -2.1730
 1016MOL0     H37144   5.316   3.986   7.049  2.5457 -0.8615 -1.1202
 1016MOL0     H37145   5.133   3.941   6.912 -0.2097 -0.8862  0.9011
 1016MOL0     H37146   5.049   3.812   6.446 -1.8260  1.7374 -0.0307
 1016MOL0     H37147   4.901   3.727   6.266  0.8267 -1.9712 -1.4031
 1016MOL0     H37148   4.524   3.709   6.290 -2.3080  0.5223  0.7341
 1016MOL0     H37149   4.553   3.653   6.445 -2.0581  1.0589 -0.8798
 1016MOL0     H37150   4.512   3.419   6.387 -0.1291 -0.9289  0.2210
 1016MOL0     H37151   4.470   3.460   6.221  0.5279 -1.1036  0.3911
 1016MOL0     H37152   4.257   3.468   6.292  3.5207 -1.7500 -1.3005
 1016MOL0     H37153   4.299   3.632   6.339 -1.5367 -0.3954 -1.2080
 1016MOL0     H37154   4.325   3.407   6.530 -1.1389 -0.9948 -3.0286
 1016MOL0     H37155   4.366   3.577   6.560 -1.4337  1.7322 -1.1968
 1016MOL0     H37156   3.958   3.615   6.631  0.6051 -0.0206  2.3387
 1016MOL0     H37157   4.709   3.447   6.536  0.4780 -1.2265 -0.6694
 1016MOL0     H37158   4.951   3.476   6.778  0.0958 -0.5748  1.0114
 1016MOL0     H37159   4.819   3.592   6.821  2.9642 -1.2466  3.3123
 1016MOL0     H37160   4.776   3.434   6.757 -0.1685  0.6523 -0.5753
 1017MOL0     O37161  10.477   1.343   1.658  0.1008 -0.0705 -1.0331
 1017MOL0     C37162  10.424   1.391   1.761 -0.9019 -0.0913 -0.5654
 1017MOL0     O37163  10.467   1.365   1.892  0.1016 -0.0179  0.0271
 1017MOL0     C37164  10.597   1.322   1.908 -0.6948 -0.1835 -0.2776
 1017MOL0     C37165  10.699   1.416   1.931  0.0220  0.4808 -0.1516
 1017MOL0     C37166  10.829   1.375   1.932 -0.3392 -0.5149  0.9920
 1017MOL0     C37167  10.865   1.240   1.911  0.0309  0.3214  0.6665
 1017MOL0     O37168  11.006   1.207   1.923 -0.1420 -0.3154  0.0309
 1017MOL0     C37169  11.048   1.073   1.892 -0.4552 -0.6050 -0.6370
 1017MOL0     C37170  11.194   1.044   1.941  0.2483  0.0339 -0.3476
 1017MOL0     C37171  11.294   1.153   1.907  0.2726 -0.0548  0.1252
 1017MOL0     C37172  11.434   1.118   1.952  0.4478  0.3127 -0.2874
 1017MOL0     C37173  11.528   1.228   1.905 -0.8651 -0.2771 -0.3126
 1017MOL0     C37174  11.666   1.169   1.900  0.3714 -0.5688 -0.1492
 1017MOL0     C37175  11.766   1.278   1.857  0.3207  0.0853  0.4565
 1017MOL0     C37176  11.885   1.196   1.805 -0.1265  0.9798  0.2998
 1017MOL0     N37177  11.996   1.287   1.774  0.4259 -0.5232  0.0643
 1017MOL0     C37178  12.004   1.368   1.655  0.1633 -0.5154  0.0614
 1017MOL0     C37179  12.118   1.438   1.659  0.1579  0.1755  0.0533
 1017MOL0     C37180  12.166   1.540   1.554  0.0966  0.0766 -0.5511
 1017MOL0     C37181  12.302   1.596   1.600  0.3706 -0.3263  0.0728
 1017MOL0     C37182  12.392   1.645   1.488 -0.6574 -0.3477 -0.5029
 1017MOL0     C37183  12.533   1.690   1.540  0.2296  0.0352 -0.3031
 1017MOL0     O37184  12.505   1.814   1.619 -0.4739  0.1171 -0.0395
 1017MOL0     C37185  12.620   1.883   1.662 -0.5465  0.0247  0.5953
 1017MOL0     C37186  12.611   2.003   1.731  0.0411  0.1828  0.9990
 1017MOL0     C37187  12.718   2.080   1.771  0.1471 -0.3588  0.3350
 1017MOL0     C37188  12.845   2.034   1.753  0.3713  0.1308  0.5733
 1017MOL0     C37189  12.963   2.107   1.777  0.5455  0.2687 -0.4145
 1017MOL0     O37190  13.078   2.059   1.728  0.4166 -0.6487 -1.1572
 1017MOL0     C37191  13.186   2.144   1.718 -0.2860 -0.4561 -1.2146
 1017MOL0     C37192  13.197   2.230   1.609 -0.5537 -0.0994 -0.0561
 1017MOL0     C37193  13.311   2.302   1.588  0.1808  0.1852  0.5655
 1017MOL0     C37194  13.419   2.300   1.685  0.7119  0.1026  0.1360
 1017MOL0     O37195  13.534   2.367   1.672 -0.0253 -0.2530 -0.3582
 1017MOL0     C37196  13.579   2.418   1.546 -0.3239 -0.3653  0.3500
 1017MOL0     C37197  13.726   2.441   1.544  0.3317  0.3252 -0.9449
 1017MOL0     C37198  13.796   2.323   1.610  0.2303 -0.3093  1.0224
 1017MOL0     C37199  13.948   2.332   1.585  0.0562  0.1770 -0.4103
 1017MOL0     C37200  14.009   2.204   1.641 -0.2328 -0.5216 -0.4002
 1017MOL0     C37201  14.158   2.231   1.665 -0.5089 -0.0424 -0.7988
 1017MOL0     C37202  14.251   2.271   1.554  0.2784 -0.4776  0.3823
 1017MOL0     C37203  14.397   2.241   1.593 -0.1496  0.4346 -0.3811
 1017MOL0    Cl37204  14.512   2.299   1.479  0.0411  0.0272  0.0718
 1017MOL0     C37205  13.401   2.215   1.801  0.3557 -0.5776 -0.1297
 1017MOL0     C37206  13.287   2.136   1.814 -0.2481 -0.1766  0.2464
 1017MOL0     O37207  12.946   2.217   1.828  0.4210  0.2385 -0.0528
 1017MOL0     C37208  12.861   1.907   1.693 -0.2256 -0.1321  0.1607
 1017MOL0     C37209  12.752   1.835   1.638 -0.2736  0.7607  0.0053
 1017MOL0     N37210  12.184   1.404   1.781  0.2283  0.3007  0.1006
 1017MOL0     N37211  12.109   1.319   1.850 -0.1219 -0.4650  0.1971
 1017MOL0     C37212  10.762   1.145   1.885 -0.1818 -0.0133 -0.1710
 1017MOL0     C37213  10.627   1.184   1.882 -0.1382 -0.6632  0.7104
 1017MOL0     C37214  10.321   1.492   1.736 -0.0362 -0.0312  0.4880
 1017MOL0     C37215  10.332   1.567   1.615 -0.3594 -0.7666  0.7417
 1017MOL0     C37216  10.226   1.645   1.579 -0.2075  0.2767  0.7925
 1017MOL0     C37217  10.122   1.657   1.663 -0.3546  0.0016  0.8817
 1017MOL0     O37218  10.016   1.738   1.625 -0.2615  0.1309  0.3032
 1017MOL0     C37219   9.943   1.678   1.517  0.4091 -0.6733  0.2371
 1017MOL0     C37220   9.813   1.750   1.501  0.2770 -0.5642 -1.0970
 1017MOL0     C37221   9.742   1.709   1.377  0.6612  0.7821  0.1410
 1017MOL0     C37222   9.768   1.776   1.240 -0.0970  0.1201  0.8085
 1017MOL0     C37223   9.856   1.713   1.135 -0.0373 -0.8480  0.4755
 1017MOL0     C37224   9.919   1.662   1.046 -0.1616 -0.1925 -0.5469
 1017MOL0     C37225  10.111   1.595   1.787  0.5954  0.0869 -0.2370
 1017MOL0     C37226  10.209   1.506   1.824 -0.0439  0.0574  0.1653
 1017MOL0     C37227  10.198   1.435   1.959  0.2098 -0.8455 -0.1886
 1017MOL0     H37228  10.694   1.524   1.941 -0.4613  0.2639  2.7350
 1017MOL0     H37229  10.904   1.448   1.962 -0.8705 -0.1490  1.4361
 1017MOL0     H37230  10.982   1.009   1.951 -0.1187 -0.3585  0.0190
 1017MOL0     H37231  11.039   1.066   1.783 -1.7084 -0.2008 -0.5691
 1017MOL0     H37232  11.217   0.942   1.910 -1.2164 -0.2622 -0.5474
 1017MOL0     H37233  11.193   1.039   2.050 -0.9457 -1.5404 -0.3998
 1017MOL0     H37234  11.263   1.248   1.951  0.7095 -0.8227  2.1680
 1017MOL0     H37235  11.300   1.155   1.797  2.3104  0.9135  0.2247
 1017MOL0     H37236  11.448   1.109   2.060 -0.8973 -0.8547 -0.1852
 1017MOL0     H37237  11.454   1.019   1.910  0.2096 -0.2617  0.9128
 1017MOL0     H37238  11.514   1.262   1.802  3.1596  1.9466 -0.3174
 1017MOL0     H37239  11.518   1.321   1.962 -2.0966 -0.1912 -0.6372
 1017MOL0     H37240  11.697   1.138   2.000 -0.2797  0.3495  0.3543
 1017MOL0     H37241  11.660   1.092   1.823  1.4873  0.6673 -1.5351
 1017MOL0     H37242  11.807   1.334   1.942  3.0660 -2.1826  0.7781
 1017MOL0     H37243  11.721   1.339   1.778 -0.7059 -3.9161 -2.3928
 1017MOL0     H37244  11.914   1.136   1.892  1.0666  2.7219  1.1889
 1017MOL0     H37245  11.876   1.133   1.717  1.2086  0.7402  0.3181
 1017MOL0     H37246  11.930   1.379   1.576  2.8895  0.3945 -2.5689
 1017MOL0     H37247  12.173   1.483   1.461 -0.8606  0.0569 -0.6209
 1017MOL0     H37248  12.084   1.612   1.545 -0.5406 -0.5523  0.0922
 1017MOL0     H37249  12.280   1.672   1.676  0.7007 -0.6442  0.4933
 1017MOL0     H37250  12.362   1.515   1.643  0.4598  0.3214  1.2021
 1017MOL0     H37251  12.344   1.733   1.443 -1.0384 -0.0900  0.3896
 1017MOL0     H37252  12.394   1.562   1.417 -1.6074 -2.8315  2.1783
 1017MOL0     H37253  12.603   1.699   1.456  0.1617 -0.9912 -0.4818
 1017MOL0     H37254  12.577   1.613   1.604 -1.7409 -0.9861 -0.1346
 1017MOL0     H37255  12.513   2.049   1.741  0.3341  1.1312 -0.1928
 1017MOL0     H37256  12.711   2.180   1.812  3.0702  0.1814 -0.2581
 1017MOL0     H37257  13.112   2.243   1.542  0.1966 -0.5092 -1.1156
 1017MOL0     H37258  13.309   2.372   1.506 -1.7777  0.0210  0.4270
 1017MOL0     H37259  13.553   2.352   1.463 -0.0883 -1.1978  0.9279
 1017MOL0     H37260  13.533   2.514   1.519  1.5044  0.1799 -1.0242
 1017MOL0     H37261  13.755   2.451   1.439  0.0297 -3.6080 -1.5494
 1017MOL0     H37262  13.748   2.530   1.603 -1.5518 -0.2957  0.8204
 1017MOL0     H37263  13.785   2.329   1.718  1.9191  1.0021  1.1665
 1017MOL0     H37264  13.751   2.231   1.569 -0.3363 -1.6043  4.2902
 1017MOL0     H37265  13.988   2.423   1.631  1.9545 -0.3529 -0.9367
 1017MOL0     H37266  13.966   2.329   1.477  2.1562  1.5085 -0.1468
 1017MOL0     H37267  13.995   2.118   1.576  1.7265 -2.6474  1.8117
 1017MOL0     H37268  13.964   2.183   1.739  0.8490  1.6594  0.6495
 1017MOL0     H37269  14.178   2.299   1.748  1.3416  1.4085 -2.3574
 1017MOL0     H37270  14.191   2.131   1.695 -1.1030  0.7808  3.1301
 1017MOL0     H37271  14.246   2.379   1.537  0.4278 -0.6452 -0.8204
 1017MOL0     H37272  14.213   2.230   1.460  0.4739  3.4428 -1.6348
 1017MOL0     H37273  14.426   2.288   1.687 -2.8928  1.2441  0.1396
 1017MOL0     H37274  14.408   2.132   1.593 -0.5072  0.3697 -2.2709
 1017MOL0     H37275  13.484   2.200   1.868  2.5910 -0.8342 -2.7958
 1017MOL0     H37276  13.279   2.058   1.890  1.2768  0.6944  1.3532
 1017MOL0     H37277  12.959   1.860   1.688  1.0795  2.3718  0.4445
 1017MOL0     H37278  12.771   1.731   1.613  1.5938  1.0258  0.2063
 1017MOL0     H37279  10.784   1.046   1.847 -1.0370  0.3628 -1.7399
 1017MOL0     H37280  10.551   1.115   1.848  0.3597 -0.6574 -0.4592
 1017MOL0     H37281  10.416   1.574   1.547 -0.0814  2.1965  1.2166
 1017MOL0     H37282  10.234   1.695   1.484  1.6224  0.0189  0.7848
 1017MOL0     H37283   9.926   1.571   1.533  0.0139 -0.5270  0.8284
 1017MOL0     H37284  10.004   1.702   1.429  1.0645  1.0991  1.1462
 1017MOL0     H37285   9.830   1.858   1.493  2.2241 -0.5735  1.4394
 1017MOL0     H37286   9.748   1.728   1.585 -1.1086 -0.0351 -1.9979
 1017MOL0     H37287   9.635   1.718   1.397  0.2277 -2.3846 -0.2071
 1017MOL0     H37288   9.743   1.600   1.365 -0.7008  0.7334  0.3089
 1017MOL0     H37289   9.676   1.788   1.182  0.1233 -0.6747  0.2817
 1017MOL0     H37290   9.805   1.877   1.259 -0.6001  0.1485  1.7063
 1017MOL0     H37291   9.982   1.618   0.972  3.7850 -1.1587  2.9530
 1017MOL0     H37292  10.027   1.615   1.853  1.2466  2.8504 -0.1314
 1017MOL0     H37293  10.275   1.484   2.020 -2.2253  1.8167  1.0267
 1017MOL0     H37294  10.096   1.440   1.997  0.6212 -1.6150  1.0894
 1017MOL0     H37295  10.214   1.327   1.959 -1.9888 -1.2442 -1.9468
 1018MOL0     O37296   7.516   1.755   3.113 -0.6390  0.3819  0.5795
 1018MOL0     C37297   7.500   1.660   3.185  0.4371 -0.0945  0.3832
 1018MOL0     O37298   7.606   1.588   3.245 -0.4741 -0.0672  0.3358
 1018MOL0     C37299   7.728   1.650   3.260  0.1829  0.2766 -0.0630
 1018MOL0     C37300   7.833   1.558   3.267 -0.1204 -0.8521  0.5334
 1018MOL0     C37301   7.959   1.610   3.300  1.1116  0.5111  0.4265
 1018MOL0     C37302   7.976   1.739   3.335 -0.8583 -0.0669  0.8461
 1018MOL0     O37303   8.095   1.793   3.373 -0.1920 -0.3802 -0.2400
 1018MOL0     C37304   8.209   1.710   3.409 -0.6190  0.1501 -0.3325
 1018MOL0     C37305   8.316   1.817   3.445 -0.3492  0.5519  0.1687
 1018MOL0     C37306   8.446   1.743   3.474  0.1835  0.4694 -0.7210
 1018MOL0     C37307   8.564   1.844   3.487 -0.8395 -0.0658  0.4279
 1018MOL0     C37308   8.706   1.775   3.473 -0.0641 -0.1994  0.7207
 1018MOL0     C37309   8.738   1.693   3.600 -0.6019 -0.0522 -0.4446
 1018MOL0     C37310   8.880   1.634   3.576 -0.5532 -0.1931 -0.4802
 1018MOL0     C37311   8.922   1.527   3.680 -0.1543  0.0923 -0.3532
 1018MOL0     N37312   8.825   1.415   3.684 -0.0224 -0.3532 -0.3554
 1018MOL0     C37313   8.851   1.300   3.628 -0.0227  0.4447  0.3177
 1018MOL0     C37314   8.744   1.223   3.660  0.1763  1.4367  0.2480
 1018MOL0     C37315   8.696   1.085   3.603  0.1804  0.4833  0.2608
 1018MOL0     C37316   8.757   0.967   3.682 -0.6578  0.5266  0.0917
 1018MOL0     C37317   8.655   0.930   3.793  0.8313 -0.1949  0.2891
 1018MOL0     C37318   8.709   0.819   3.881 -0.1141  0.8072 -0.8997
 1018MOL0     O37319   8.831   0.860   3.927 -0.3760 -0.1552  0.2882
 1018MOL0     C37320   8.925   0.772   3.967  0.4446  0.4544  0.2933
 1018MOL0     C37321   8.892   0.640   4.010 -0.1384  0.1034 -0.1757
 1018MOL0     C37322   8.991   0.550   4.046  0.3004 -0.3031 -1.0315
 1018MOL0     C37323   9.123   0.592   4.054 -0.2836 -0.0068  0.3664
 1018MOL0     C37324   9.221   0.505   4.121 -0.1332 -0.5088  0.2298
 1018MOL0     O37325   9.171   0.405   4.193 -0.0191  0.2723 -0.1115
 1018MOL0     C37326   9.252   0.310   4.255 -0.4720  0.3271 -0.5264
 1018MOL0     C37327   9.369   0.328   4.343  0.6756 -0.5603  0.2023
 1018MOL0     C37328   9.427   0.219   4.396 -0.0718  0.6085 -0.2947
 1018MOL0     C37329   9.384   0.091   4.371  0.4820  0.4349  0.4432
 1018MOL0     O37330   9.432  -0.020   4.443  0.2873  0.8471 -0.3519
 1018MOL0     C37331   9.572  -0.025   4.485  0.7850 -0.0407 -0.0880
 1018MOL0     C37332   9.616  -0.170   4.495 -0.4089 -0.4341 -0.5245
 1018MOL0     C37333   9.598  -0.245   4.366 -0.3254  0.3750  0.9605
 1018MOL0     C37334   9.615  -0.398   4.387 -0.4172  1.1319 -0.1185
 1018MOL0     C37335   9.760  -0.451   4.423 -0.0054 -0.5509 -0.5801
 1018MOL0     C37336   9.764  -0.605   4.442  0.3535 -0.0562 -0.1825
 1018MOL0     C37337   9.686  -0.649   4.562 -0.3451 -0.1729  0.2418
 1018MOL0     C37338   9.706  -0.789   4.595  0.0648  0.5530 -0.1092
 1018MOL0    Cl37339   9.607  -0.814   4.746 -0.1176  0.2382 -0.1140
 1018MOL0     C37340   9.284   0.075   4.279 -0.6534  0.9867  0.0652
 1018MOL0     C37341   9.217   0.179   4.229  0.7653 -0.2627  0.6173
 1018MOL0     O37342   9.339   0.521   4.081 -0.1739  0.0452 -0.8876
 1018MOL0     C37343   9.160   0.721   4.008 -0.0148  0.0101 -0.0130
 1018MOL0     C37344   9.059   0.810   3.973 -1.0327  0.1323  0.0453
 1018MOL0     N37345   8.669   1.291   3.753 -0.6137  0.4689 -0.2625
 1018MOL0     N37346   8.717   1.406   3.763 -0.0115 -0.7300 -0.0979
 1018MOL0     C37347   7.872   1.825   3.342 -0.1510  0.8151  0.2281
 1018MOL0     C37348   7.741   1.778   3.311 -0.5293 -0.2039 -1.4373
 1018MOL0     C37349   7.363   1.600   3.188 -0.4223  1.1382 -0.5332
 1018MOL0     C37350   7.260   1.653   3.108  0.7669 -0.0625 -0.9319
 1018MOL0     C37351   7.124   1.616   3.128  0.0790 -1.1893 -0.7445
 1018MOL0     C37352   7.081   1.525   3.225 -0.6939 -0.1411  0.1135
 1018MOL0     O37353   6.952   1.500   3.246  1.3828  0.4143  0.0922
 1018MOL0     C37354   6.912   1.434   3.370  1.0373  0.4045 -0.1440
 1018MOL0     C37355   6.955   1.506   3.494 -0.5158 -1.1780 -0.8467
 1018MOL0     C37356   6.940   1.663   3.483  0.5210  0.4597  0.5255
 1018MOL0     C37357   7.001   1.737   3.606  0.2583 -0.2673 -0.2821
 1018MOL0     C37358   6.926   1.713   3.732  0.3351  0.3948  0.0251
 1018MOL0     C37359   6.860   1.695   3.837 -0.4188  0.3085  0.4633
 1018MOL0     C37360   7.188   1.453   3.287 -0.7885  0.0253  0.5637
 1018MOL0     C37361   7.321   1.490   3.275  0.8331  0.5777 -0.6960
 1018MOL0     C37362   7.409   1.434   3.384 -0.4446  0.0304 -0.0689
 1018MOL0     H37363   7.810   1.458   3.233  1.5492 -1.3421  0.7608
 1018MOL0     H37364   8.038   1.536   3.296  0.3375 -0.3656  1.0174
 1018MOL0     H37365   8.180   1.654   3.498  0.3959  0.6278  0.3108
 1018MOL0     H37366   8.246   1.649   3.327 -0.9574  1.2362 -1.3177
 1018MOL0     H37367   8.279   1.870   3.533 -2.8217 -0.2183 -0.3195
 1018MOL0     H37368   8.336   1.890   3.365  2.4366  2.4677  2.4073
 1018MOL0     H37369   8.468   1.677   3.389  2.6132  0.7365 -0.3605
 1018MOL0     H37370   8.442   1.679   3.563  3.7486 -2.4318 -2.3655
 1018MOL0     H37371   8.552   1.916   3.407 -0.3671  1.5408  1.7507
 1018MOL0     H37372   8.561   1.900   3.581 -2.4386 -2.9988  2.3118
 1018MOL0     H37373   8.710   1.715   3.381 -0.0532 -0.5508  0.9498
 1018MOL0     H37374   8.775   1.860   3.466 -2.5245  1.8416 -0.2261
 1018MOL0     H37375   8.742   1.759   3.687  0.6095  1.6035 -1.6768
 1018MOL0     H37376   8.663   1.617   3.622  0.4336 -1.7940 -2.5096
 1018MOL0     H37377   8.955   1.713   3.581  1.1459 -1.7969  2.2907
 1018MOL0     H37378   8.889   1.595   3.475  0.3898 -0.4162 -0.3202
 1018MOL0     H37379   9.025   1.490   3.671 -0.7730 -1.8468  0.1131
 1018MOL0     H37380   8.918   1.576   3.778 -1.1329  2.8761 -1.6836
 1018MOL0     H37381   8.928   1.269   3.558  1.8047 -2.4104  3.3078
 1018MOL0     H37382   8.589   1.072   3.586 -0.4686  0.5854  3.6128
 1018MOL0     H37383   8.736   1.075   3.501 -1.2376 -2.7341 -0.1342
 1018MOL0     H37384   8.785   0.882   3.619  0.2055  2.2927 -2.0440
 1018MOL0     H37385   8.852   0.993   3.730 -1.3871 -0.6293  2.3036
 1018MOL0     H37386   8.566   0.885   3.748  0.5157 -1.0282  1.7049
 1018MOL0     H37387   8.613   1.010   3.855 -0.3877 -0.4881 -0.1169
 1018MOL0     H37388   8.724   0.732   3.816  1.0785  1.2033 -1.1751
 1018MOL0     H37389   8.644   0.786   3.962  1.1314  1.5597  0.4498
 1018MOL0     H37390   8.788   0.609   4.011 -0.4479  1.0894 -1.0441
 1018MOL0     H37391   8.957   0.452   4.079  1.2103 -0.0078  0.8939
 1018MOL0     H37392   9.409   0.425   4.371  0.5478 -1.6587  4.9282
 1018MOL0     H37393   9.501   0.242   4.472  2.7385 -1.5380 -2.1877
 1018MOL0     H37394   9.635   0.032   4.417 -0.4538  4.0896  1.8803
 1018MOL0     H37395   9.586   0.020   4.584  0.0491  0.8493 -0.3829
 1018MOL0     H37396   9.721  -0.172   4.527 -0.9489 -1.5493  1.3283
 1018MOL0     H37397   9.564  -0.226   4.573 -0.2614  1.1883  0.7932
 1018MOL0     H37398   9.499  -0.238   4.321 -0.7169  0.2826  1.7868
 1018MOL0     H37399   9.668  -0.202   4.294 -0.9760 -0.2054 -0.0265
 1018MOL0     H37400   9.589  -0.449   4.295  0.3472  1.7171 -0.6726
 1018MOL0     H37401   9.546  -0.428   4.466  0.2999 -0.6968 -0.1604
 1018MOL0     H37402   9.796  -0.401   4.513 -0.2240 -0.7270 -0.3959
 1018MOL0     H37403   9.817  -0.423   4.333 -3.0340  2.4140 -1.8102
 1018MOL0     H37404   9.727  -0.652   4.350 -3.8935  3.6450 -0.7306
 1018MOL0     H37405   9.869  -0.633   4.452  0.4356 -0.6083 -2.1763
 1018MOL0     H37406   9.579  -0.635   4.540 -0.6317 -1.7872  0.4655
 1018MOL0     H37407   9.705  -0.588   4.650 -2.2400 -0.4511  0.8877
 1018MOL0     H37408   9.687  -0.852   4.508 -1.6776 -0.5146  0.9930
 1018MOL0     H37409   9.807  -0.811   4.632  0.2839 -2.2615 -2.0695
 1018MOL0     H37410   9.251  -0.028   4.269 -0.5645  0.4060  4.0419
 1018MOL0     H37411   9.140   0.153   4.157 -0.0883 -0.0935  1.4485
 1018MOL0     H37412   9.262   0.756   4.018  0.8741 -2.1881 -0.8122
 1018MOL0     H37413   9.078   0.916   3.956 -0.1695  0.3284  1.9105
 1018MOL0     H37414   7.893   1.922   3.384  2.5765  0.7908 -0.9392
 1018MOL0     H37415   7.654   1.842   3.326  0.9991  2.3653 -2.6935
 1018MOL0     H37416   7.282   1.732   3.037  1.0951  0.0225 -0.7393
 1018MOL0     H37417   7.039   1.670   3.087  1.0906  1.8138  0.7951
 1018MOL0     H37418   6.950   1.331   3.369 -1.4555 -0.5857 -0.1371
 1018MOL0     H37419   6.803   1.431   3.374  1.0268  1.3609  0.4949
 1018MOL0     H37420   7.061   1.490   3.516 -0.2537  1.5928  0.2960
 1018MOL0     H37421   6.897   1.474   3.581  1.6547  1.5425  1.8303
 1018MOL0     H37422   6.836   1.694   3.472  0.2850  0.5601  2.5671
 1018MOL0     H37423   6.985   1.696   3.389  0.7584  3.1557  1.4831
 1018MOL0     H37424   7.106   1.708   3.619  0.0756 -0.2012  1.7797
 1018MOL0     H37425   6.992   1.842   3.577 -0.2953 -0.9793 -2.9408
 1018MOL0     H37426   6.791   1.672   3.915 -0.0541 -0.4745  0.5718
 1018MOL0     H37427   7.169   1.363   3.345 -1.2562 -1.9590 -2.4555
 1018MOL0     H37428   7.461   1.516   3.434 -0.8588  1.2016 -1.4848
 1018MOL0     H37429   7.357   1.381   3.464  1.6735  0.0633  1.4190
 1018MOL0     H37430   7.473   1.368   3.324  0.5355 -0.6386  1.6452
 1019MOL0     O37431   6.368   9.795   4.615 -0.3459 -0.6347  0.2384
 1019MOL0     C37432   6.413   9.761   4.502  0.4659  0.2449  0.2191
 1019MOL0     O37433   6.529   9.795   4.438  0.6571 -0.7556  0.0231
 1019MOL0     C37434   6.617   9.884   4.502  0.3806  0.3764 -0.3179
 1019MOL0     C37435   6.656   9.880   4.637  0.1716 -0.3982  0.0466
 1019MOL0     C37436   6.771   9.951   4.675  0.8563 -0.4628 -0.4467
 1019MOL0     C37437   6.844  10.043   4.589  0.1196  0.3820  0.2853
 1019MOL0     O37438   6.951  10.118   4.634 -0.1131  0.4053 -0.1659
 1019MOL0     C37439   6.997  10.225   4.559 -0.1049  0.5273  0.3213
 1019MOL0     C37440   7.114  10.281   4.634  1.0857  0.2930  0.2360
 1019MOL0     C37441   7.222  10.350   4.550 -0.8421 -0.1159 -0.3750
 1019MOL0     C37442   7.184  10.488   4.491 -0.0610 -0.4793 -0.1766
 1019MOL0     C37443   7.311  10.549   4.428  0.4835  0.5273  0.2198
 1019MOL0     C37444   7.313  10.707   4.426  0.3526 -0.3339 -0.0468
 1019MOL0     C37445   7.453  10.757   4.393  0.3222  0.2235  0.3531
 1019MOL0     C37446   7.454  10.908   4.352 -0.7249 -0.3243  0.7216
 1019MOL0     N37447   7.583  10.949   4.309 -0.0452  0.4791 -0.5310
 1019MOL0     C37448   7.635  10.923   4.180  0.2934  0.0632 -0.1009
 1019MOL0     C37449   7.751  10.993   4.168  0.5858  0.7989  0.0023
 1019MOL0     C37450   7.833  10.991   4.043  0.0241  0.7805  0.1752
 1019MOL0     C37451   7.802  11.117   3.971 -0.5385 -0.6166  0.6587
 1019MOL0     C37452   7.864  11.119   3.830 -0.2323 -0.6752 -0.1258
 1019MOL0     C37453   7.861  11.255   3.763  0.2073 -0.8276  0.8969
 1019MOL0     O37454   7.916  11.256   3.630  0.2649  0.2109 -0.3503
 1019MOL0     C37455   8.047  11.268   3.611 -0.7760 -0.0269  0.8391
 1019MOL0     C37456   8.151  11.276   3.710  0.2146  0.6642 -0.6406
 1019MOL0     C37457   8.289  11.291   3.678  0.3389  0.1283  0.0928
 1019MOL0     C37458   8.331  11.297   3.547 -0.3421 -0.4723 -0.0004
 1019MOL0     C37459   8.475  11.309   3.523 -0.3016  0.2960 -0.2164
 1019MOL0     O37460   8.501  11.355   3.398 -0.1277  0.6460 -0.3075
 1019MOL0     C37461   8.631  11.382   3.350  0.2167  0.2471  0.2888
 1019MOL0     C37462   8.648  11.393   3.206 -0.4463  0.3477 -0.6926
 1019MOL0     C37463   8.773  11.430   3.149 -0.0592  0.1714  0.2156
 1019MOL0     C37464   8.881  11.468   3.230  0.7810  0.7159  0.0917
 1019MOL0     O37465   9.004  11.510   3.190 -0.4018 -0.1080  0.3838
 1019MOL0     C37466   9.043  11.529   3.057  0.4137  0.1097  1.4923
 1019MOL0     C37467   9.176  11.598   3.047  0.5905 -0.0533  0.1200
 1019MOL0     C37468   9.179  11.747   3.098  0.3558  0.2523 -0.6343
 1019MOL0     C37469   9.224  11.764   3.248  0.7294 -0.4944  0.0393
 1019MOL0     C37470   9.369  11.725   3.275  0.0371  0.2268 -0.0444
 1019MOL0     C37471   9.485  11.805   3.210  0.6148 -0.3718  0.7415
 1019MOL0     C37472   9.622  11.752   3.251  0.4757  0.0771 -1.1026
 1019MOL0     C37473   9.733  11.848   3.200 -0.0241 -0.3298 -1.0516
 1019MOL0    Cl37474   9.729  11.873   3.019  0.2288 -0.1160  0.1760
 1019MOL0     C37475   8.870  11.452   3.369  0.1210  0.1391 -0.1992
 1019MOL0     C37476   8.743  11.419   3.426 -0.6701 -0.4435  0.0052
 1019MOL0     O37477   8.558  11.283   3.604  0.5038 -0.1281 -0.0951
 1019MOL0     C37478   8.230  11.286   3.444 -0.0507  0.1806 -0.5366
 1019MOL0     C37479   8.093  11.269   3.478  0.2077 -0.3963  0.9574
 1019MOL0     N37480   7.777  11.044   4.289 -0.3983 -0.4371 -0.0090
 1019MOL0     N37481   7.679  11.034   4.373 -0.0282 -0.4490  0.3391
 1019MOL0     C37482   6.788  10.062   4.461 -0.9854 -0.2018  0.5869
 1019MOL0     C37483   6.681   9.983   4.416  0.3223 -0.0749 -0.5770
 1019MOL0     C37484   6.327   9.662   4.432  0.4563 -0.5688  0.4954
 1019MOL0     C37485   6.188   9.683   4.447 -0.3865  0.5184  0.9710
 1019MOL0     C37486   6.095   9.590   4.395 -0.2257 -0.0243  0.0012
 1019MOL0     C37487   6.141   9.481   4.322 -0.3461 -0.1464  0.3679
 1019MOL0     O37488   6.034   9.402   4.272  0.7067 -0.8737  0.1990
 1019MOL0     C37489   6.072   9.309   4.171 -0.4451 -0.4179 -0.1004
 1019MOL0     C37490   6.103   9.365   4.034  0.1644  0.3875  0.2465
 1019MOL0     C37491   6.103   9.245   3.928  0.1434 -0.2184  0.3542
 1019MOL0     C37492   6.125   9.310   3.785  0.3312 -0.2175 -0.7714
 1019MOL0     C37493   6.168   9.206   3.700 -1.5245 -0.1613  0.9035
 1019MOL0     C37494   6.204   9.119   3.631 -0.1001  0.7106  0.3990
 1019MOL0     C37495   6.283   9.465   4.293  0.2540 -0.0523 -0.1686
 1019MOL0     C37496   6.377   9.552   4.352  0.4272 -0.0076  0.3141
 1019MOL0     C37497   6.522   9.542   4.317  0.4506 -0.6802  0.6065
 1019MOL0     H37498   6.599   9.810   4.697 -0.1883 -0.5996 -0.5197
 1019MOL0     H37499   6.805   9.947   4.778 -0.3161  0.8711  0.0314
 1019MOL0     H37500   7.028  10.179   4.464 -0.4423  0.0266  0.4512
 1019MOL0     H37501   6.918  10.299   4.545 -1.2146 -0.8718 -1.3830
 1019MOL0     H37502   7.164  10.199   4.686 -0.2067 -0.0729  0.9347
 1019MOL0     H37503   7.067  10.354   4.700  2.6306  0.7885  0.8315
 1019MOL0     H37504   7.257  10.292   4.464 -0.3060  0.4828 -0.5722
 1019MOL0     H37505   7.308  10.365   4.616  0.8134 -2.8717 -1.7338
 1019MOL0     H37506   7.105  10.469   4.418  0.5394  0.0736 -0.9927
 1019MOL0     H37507   7.138  10.563   4.556 -0.9258 -1.1198 -0.0325
 1019MOL0     H37508   7.402  10.530   4.485  1.8902  0.2114 -2.0468
 1019MOL0     H37509   7.327  10.500   4.332 -0.2648  4.2399 -2.0305
 1019MOL0     H37510   7.245  10.737   4.345 -1.2505  0.8939  1.6668
 1019MOL0     H37511   7.277  10.750   4.520 -1.7905  0.8602 -1.3390
 1019MOL0     H37512   7.497  10.700   4.311  1.9566  0.1331  1.2533
 1019MOL0     H37513   7.509  10.744   4.486  0.0282 -1.7682  0.2775
 1019MOL0     H37514   7.396  10.937   4.263  0.4777  3.4511  0.9899
 1019MOL0     H37515   7.416  10.963   4.439 -1.7080  1.1770 -0.5874
 1019MOL0     H37516   7.598  10.855   4.103  2.1483 -2.5289  1.1449
 1019MOL0     H37517   7.938  10.972   4.067 -0.5399 -0.2879  1.9848
 1019MOL0     H37518   7.794  10.910   3.981  0.5771  1.9477 -1.8215
 1019MOL0     H37519   7.697  11.140   3.949 -0.2410  0.1378 -0.0231
 1019MOL0     H37520   7.840  11.194   4.039 -1.3082 -1.9709  2.7241
 1019MOL0     H37521   7.806  11.046   3.773 -0.3768 -1.5351  1.1025
 1019MOL0     H37522   7.970  11.095   3.835 -0.0625  0.1657  0.6006
 1019MOL0     H37523   7.899  11.340   3.821 -0.1084  1.0230 -1.4935
 1019MOL0     H37524   7.755  11.276   3.750  0.2314 -1.1562  0.1002
 1019MOL0     H37525   8.110  11.262   3.809  0.0042 -3.9068 -1.1457
 1019MOL0     H37526   8.366  11.283   3.755  1.5558  1.9894 -0.8635
 1019MOL0     H37527   8.566  11.360   3.143 -1.2912 -0.7254  0.9025
 1019MOL0     H37528   8.777  11.440   3.041 -0.2782  1.5043  0.3203
 1019MOL0     H37529   9.046  11.430   3.011  1.3858  1.6107 -2.0607
 1019MOL0     H37530   8.972  11.581   2.992  0.8516 -3.5157 -2.3375
 1019MOL0     H37531   9.245  11.529   3.096 -0.7212 -0.5058  1.3969
 1019MOL0     H37532   9.193  11.602   2.939 -0.8920 -0.8031 -0.1578
 1019MOL0     H37533   9.233  11.811   3.028  0.2132  0.3699 -0.6386
 1019MOL0     H37534   9.075  11.782   3.103  0.3152 -0.0312  1.0332
 1019MOL0     H37535   9.156  11.708   3.313 -1.5722  0.7211 -1.1828
 1019MOL0     H37536   9.211  11.868   3.280  1.2411 -0.1865 -0.7095
 1019MOL0     H37537   9.388  11.621   3.245  1.7101  0.4298  0.2154
 1019MOL0     H37538   9.378  11.723   3.384 -0.5875 -1.6506  0.0100
 1019MOL0     H37539   9.479  11.794   3.102  2.1581  0.2389  0.5749
 1019MOL0     H37540   9.482  11.907   3.251 -1.8098  0.5052 -1.3154
 1019MOL0     H37541   9.629  11.649   3.217  0.0893 -0.7782  1.2182
 1019MOL0     H37542   9.629  11.752   3.361  1.5731  0.5865 -1.1568
 1019MOL0     H37543   9.712  11.946   3.243  3.3502  0.8961 -1.9283
 1019MOL0     H37544   9.834  11.818   3.230  0.2042  3.7248  3.5293
 1019MOL0     H37545   8.957  11.480   3.428  0.9911 -2.0115 -0.3473
 1019MOL0     H37546   8.747  11.420   3.535 -1.8146  5.3401  0.3221
 1019MOL0     H37547   8.268  11.303   3.344  2.0212  2.1930  0.4953
 1019MOL0     H37548   8.022  11.256   3.397  1.0722 -0.4051  0.1825
 1019MOL0     H37549   6.835  10.140   4.401  0.9516 -1.8387 -0.1276
 1019MOL0     H37550   6.643   9.994   4.315 -0.2459 -0.6890 -0.4293
 1019MOL0     H37551   6.166   9.776   4.500  1.6844  0.1277  2.6460
 1019MOL0     H37552   5.989   9.609   4.410 -0.2337  0.4454 -0.6020
 1019MOL0     H37553   5.986   9.243   4.157 -2.7332  2.3154  0.2439
 1019MOL0     H37554   6.151   9.241   4.204 -1.2876 -0.9244  0.8974
 1019MOL0     H37555   6.185   9.438   4.039  1.1339 -0.4451 -2.2238
 1019MOL0     H37556   6.015   9.426   4.011 -0.1849 -0.8153 -1.8835
 1019MOL0     H37557   6.010   9.189   3.939 -0.7342  1.3148  1.1306
 1019MOL0     H37558   6.180   9.175   3.959  2.9722  3.0007  1.2710
 1019MOL0     H37559   6.026   9.350   3.758 -1.3291 -0.0084  4.4092
 1019MOL0     H37560   6.190   9.397   3.791 -1.6347  1.2453  1.4209
 1019MOL0     H37561   6.224   9.028   3.579  1.0464  1.1082  0.1182
 1019MOL0     H37562   6.309   9.394   4.215 -4.0056 -1.1357 -0.8606
 1019MOL0     H37563   6.547   9.444   4.276  1.3117 -0.5028  0.6927
 1019MOL0     H37564   6.550   9.623   4.250  0.8435 -1.6502 -0.4342
 1019MOL0     H37565   6.581   9.548   4.409  0.2713  0.0654  0.6825
 1020MOL0     O37566   2.297   2.888   9.445 -0.4015 -0.2340 -0.0383
 1020MOL0     C37567   2.304   3.014   9.444 -0.2584  0.0712 -1.0204
 1020MOL0     O37568   2.419   3.081   9.435 -0.4646  0.1659  0.3762
 1020MOL0     C37569   2.534   3.006   9.424  0.1271 -0.3603  0.4178
 1020MOL0     C37570   2.600   2.971   9.538 -0.5192  1.0410 -0.0055
 1020MOL0     C37571   2.702   2.884   9.531  0.0816  0.2877 -0.9480
 1020MOL0     C37572   2.756   2.837   9.409 -0.2153  0.4628  0.5627
 1020MOL0     O37573   2.861   2.749   9.401 -0.4069 -0.2640 -0.0297
 1020MOL0     C37574   2.909   2.695   9.524  0.6819  0.2106  0.0927
 1020MOL0     C37575   3.018   2.596   9.496  0.7051 -0.5818 -0.1380
 1020MOL0     C37576   2.971   2.477   9.422 -0.4058 -0.4387  0.2159
 1020MOL0     C37577   2.892   2.374   9.501 -0.0917 -0.7714 -0.6594
 1020MOL0     C37578   2.849   2.263   9.398  0.6270  0.3575 -0.5750
 1020MOL0     C37579   2.970   2.166   9.365 -0.0504  0.0749 -0.4447
 1020MOL0     C37580   2.924   2.064   9.257 -0.3582 -0.6382 -0.5593
 1020MOL0     C37581   2.824   1.965   9.311  0.0679 -0.2457  0.6076
 1020MOL0     N37582   2.874   1.871   9.415  0.2436 -0.3646 -0.6534
 1020MOL0     C37583   2.864   1.893   9.547  1.0065 -0.2957  0.0751
 1020MOL0     C37584   2.909   1.771   9.599  0.5066 -0.4195 -0.0287
 1020MOL0     C37585   2.926   1.752   9.749 -0.4069  0.0226 -0.6212
 1020MOL0     C37586   3.051   1.669   9.779 -0.0689  0.0954 -0.0169
 1020MOL0     C37587   3.088   1.692   9.924 -0.3098 -0.1894  0.2566
 1020MOL0     C37588   3.213   1.615   9.962  0.6577  0.0907 -0.5315
 1020MOL0     O37589   3.322   1.696   9.924 -0.1378 -0.1665 -0.3789
 1020MOL0     C37590   3.453   1.666   9.963 -0.4411  0.2688  0.2026
 1020MOL0     C37591   3.499   1.544  10.036  0.0291 -0.0360 -0.4537
 1020MOL0     C37592   3.635   1.532  10.061 -0.1025  0.4404  0.1969
 1020MOL0     C37593   3.725   1.631  10.020 -0.1050 -0.3783 -0.2296
 1020MOL0     C37594   3.868   1.606  10.035 -0.0925 -0.4123 -0.0428
 1020MOL0     O37595   3.948   1.701   9.987 -0.0651 -1.0025 -0.0662
 1020MOL0     C37596   4.085   1.683   9.992 -0.3402 -0.6829 -0.5363
 1020MOL0     C37597   4.158   1.802  10.008  0.6034 -0.2989  0.2402
 1020MOL0     C37598   4.295   1.801  10.028 -0.9328  0.8288  0.8754
 1020MOL0     C37599   4.366   1.684  10.020 -0.8429 -0.3566 -0.0457
 1020MOL0     O37600   4.505   1.702  10.026  0.0606 -0.2914  0.0100
 1020MOL0     C37601   4.589   1.588  10.055 -0.5319  0.3871  0.6182
 1020MOL0     C37602   4.740   1.620  10.015  0.6814  0.3348 -0.0934
 1020MOL0     C37603   4.790   1.713  10.118  0.3352 -0.3882 -0.2340
 1020MOL0     C37604   4.941   1.738  10.130 -0.0580 -0.2984  0.3249
 1020MOL0     C37605   4.983   1.808   9.999 -0.3647  0.0028  0.8664
 1020MOL0     C37606   5.137   1.830   9.987  0.5319 -0.4049  0.1755
 1020MOL0     C37607   5.150   1.941   9.878  1.3306  0.5337 -0.1783
 1020MOL0     C37608   5.285   1.940   9.819 -0.3580  0.1722 -0.2683
 1020MOL0    Cl37609   5.399   2.023   9.918 -0.6894  0.1124  0.1836
 1020MOL0     C37610   4.294   1.564   9.991  0.1503 -0.7768  0.0126
 1020MOL0     C37611   4.156   1.561   9.981  0.0765  0.1182  0.6003
 1020MOL0     O37612   3.898   1.515  10.115 -0.6770 -0.0982 -0.5751
 1020MOL0     C37613   3.678   1.748   9.959 -0.2556 -0.0448  0.2356
 1020MOL0     C37614   3.541   1.766   9.939 -0.5084 -1.2603 -0.3453
 1020MOL0     N37615   2.930   1.683   9.499 -0.8211  0.6567 -0.2204
 1020MOL0     N37616   2.915   1.746   9.384 -0.1434 -0.5464 -0.3330
 1020MOL0     C37617   2.693   2.868   9.291  0.2574 -0.7959 -0.7939
 1020MOL0     C37618   2.581   2.959   9.296 -1.1975  0.6137 -0.0054
 1020MOL0     C37619   2.182   3.093   9.485  0.2102 -0.7256 -0.3897
 1020MOL0     C37620   2.207   3.230   9.510  0.3609 -0.0159  0.8433
 1020MOL0     C37621   2.110   3.315   9.565 -0.0431  0.3603 -0.5432
 1020MOL0     C37622   1.984   3.264   9.597  0.0513  0.3777  0.5840
 1020MOL0     O37623   1.883   3.335   9.659 -0.6366  0.3551 -0.3159
 1020MOL0     C37624   1.915   3.449   9.737  0.4273  0.6012 -0.0077
 1020MOL0     C37625   1.801   3.508   9.809 -0.2910 -0.0067  0.0396
 1020MOL0     C37626   1.854   3.580   9.938  0.2000  0.3561 -0.8696
 1020MOL0     C37627   1.756   3.652  10.023  0.2344 -0.9895 -0.1950
 1020MOL0     C37628   1.642   3.575  10.063  0.6540  0.0711 -0.2748
 1020MOL0     C37629   1.547   3.495  10.078 -0.5923  0.4730  0.3414
 1020MOL0     C37630   1.951   3.134   9.553  0.1120  0.0244 -1.1355
 1020MOL0     C37631   2.054   3.046   9.514 -0.3619  0.4445  0.8007
 1020MOL0     C37632   2.022   2.901   9.493  0.6321  0.4882 -0.6890
 1020MOL0     H37633   2.561   3.007   9.633 -0.6265 -0.2379  0.4580
 1020MOL0     H37634   2.736   2.848   9.628  1.8976  0.9523 -1.2817
 1020MOL0     H37635   2.945   2.768   9.597  0.8091  0.2274  0.0132
 1020MOL0     H37636   2.818   2.640   9.548  0.5609 -1.7434 -3.9212
 1020MOL0     H37637   3.065   2.563   9.589  3.0583  0.6541 -0.8100
 1020MOL0     H37638   3.094   2.654   9.442 -1.1151  2.2756  0.1802
 1020MOL0     H37639   3.057   2.429   9.374 -0.5437  0.7716 -1.3148
 1020MOL0     H37640   2.914   2.523   9.340 -0.8475 -0.3885  0.5484
 1020MOL0     H37641   2.949   2.320   9.577  0.4448  1.8511  0.9429
 1020MOL0     H37642   2.804   2.416   9.551 -1.1594 -0.7294 -2.4856
 1020MOL0     H37643   2.762   2.211   9.440  0.8977  2.7499  3.4421
 1020MOL0     H37644   2.810   2.304   9.305 -0.5561  0.6080  0.0163
 1020MOL0     H37645   3.051   2.224   9.320  1.4296  0.4667  2.5160
 1020MOL0     H37646   3.007   2.117   9.455  0.7802  3.7877  1.4192
 1020MOL0     H37647   3.005   2.003   9.218 -1.4518 -2.3941 -0.2141
 1020MOL0     H37648   2.884   2.117   9.171  0.8140  0.3669 -0.5046
 1020MOL0     H37649   2.735   2.014   9.352 -0.7730 -1.6524  0.5227
 1020MOL0     H37650   2.767   1.912   9.234 -1.0246  2.6965 -0.7583
 1020MOL0     H37651   2.834   1.977   9.608 -0.5606 -0.1752 -0.8143
 1020MOL0     H37652   2.923   1.844   9.807 -0.0887 -0.8446  0.8239
 1020MOL0     H37653   2.832   1.701   9.773 -2.0049  2.6572 -0.9149
 1020MOL0     H37654   3.023   1.564   9.765 -1.2662  0.5198 -1.0129
 1020MOL0     H37655   3.132   1.687   9.708  0.7929 -0.4556  0.8033
 1020MOL0     H37656   3.012   1.653   9.992  1.3069  0.5719  2.6553
 1020MOL0     H37657   3.097   1.799   9.947  1.8571  0.1296 -1.7178
 1020MOL0     H37658   3.199   1.514   9.922 -4.2359  0.7903 -1.2318
 1020MOL0     H37659   3.216   1.604  10.071 -0.3572  0.3301 -0.4743
 1020MOL0     H37660   3.421   1.476  10.068  0.7289 -0.7036 -0.1205
 1020MOL0     H37661   3.674   1.443  10.111 -0.3662 -0.1720 -0.6702
 1020MOL0     H37662   4.103   1.895  10.016  0.8735 -0.0891 -0.2617
 1020MOL0     H37663   4.358   1.889  10.043 -0.3001  0.8313 -1.4319
 1020MOL0     H37664   4.588   1.562  10.161 -0.1011 -1.4653  0.2111
 1020MOL0     H37665   4.568   1.495  10.000  2.5101  0.9757 -1.8209
 1020MOL0     H37666   4.801   1.529  10.023 -2.0502 -1.6433 -0.3448
 1020MOL0     H37667   4.747   1.666   9.917 -1.9168  0.9078 -0.0911
 1020MOL0     H37668   4.744   1.809  10.094 -0.2866 -0.2710  1.2653
 1020MOL0     H37669   4.751   1.686  10.217 -1.4601 -0.2968 -0.8799
 1020MOL0     H37670   4.992   1.642  10.136  0.3717 -0.0691  0.3893
 1020MOL0     H37671   4.972   1.805  10.212 -1.4431  1.0966 -0.2436
 1020MOL0     H37672   4.936   1.907  10.003 -2.8000 -1.0526  0.3212
 1020MOL0     H37673   4.947   1.756   9.911  0.3689  3.3567 -1.6233
 1020MOL0     H37674   5.203   1.861  10.068  1.2028 -3.6888  1.0376
 1020MOL0     H37675   5.175   1.742   9.934  1.1641 -0.7129  1.1095
 1020MOL0     H37676   5.126   2.042   9.911 -1.1121  0.4652 -1.4699
 1020MOL0     H37677   5.090   1.910   9.792 -1.3829  0.0444  1.7801
 1020MOL0     H37678   5.317   1.836   9.803 -2.5362 -0.3667 -1.5743
 1020MOL0     H37679   5.285   1.990   9.722 -1.3665 -1.8969 -1.4133
 1020MOL0     H37680   4.354   1.474   9.985  2.1251  0.4521  0.5463
 1020MOL0     H37681   4.096   1.471   9.970 -2.1413  1.6685 -1.0867
 1020MOL0     H37682   3.743   1.832   9.937 -1.0832  0.1630 -1.7243
 1020MOL0     H37683   3.508   1.861   9.899  1.3916 -1.0443 -1.5446
 1020MOL0     H37684   2.719   2.832   9.192  2.0239 -0.1386 -0.6118
 1020MOL0     H37685   2.513   2.977   9.213 -0.6381 -0.4534 -0.7292
 1020MOL0     H37686   2.303   3.281   9.512 -1.1981  3.1494 -0.0204
 1020MOL0     H37687   2.130   3.413   9.608  0.9215 -0.5091  1.1004
 1020MOL0     H37688   1.963   3.530   9.681 -0.1776 -0.1262 -1.6194
 1020MOL0     H37689   1.984   3.414   9.815 -0.6086 -0.2871  0.5327
 1020MOL0     H37690   1.723   3.435   9.829 -0.1762 -0.9082 -2.5400
 1020MOL0     H37691   1.745   3.582   9.750  0.0105 -1.3599 -2.0381
 1020MOL0     H37692   1.929   3.651   9.902  0.8422 -1.0442 -2.4172
 1020MOL0     H37693   1.896   3.505  10.006 -4.2766  0.1306  2.0860
 1020MOL0     H37694   1.802   3.689  10.115  2.5347  0.4428 -1.8178
 1020MOL0     H37695   1.726   3.738   9.961  1.6908 -0.4510 -0.1840
 1020MOL0     H37696   1.455   3.442  10.094  0.1485 -0.2564  2.4612
 1020MOL0     H37697   1.852   3.095   9.576  0.0046 -0.5557 -2.4824
 1020MOL0     H37698   1.916   2.884   9.510  0.5433  1.0429 -0.6645
 1020MOL0     H37699   2.042   2.876   9.389  1.2953 -1.9542 -0.0580
 1020MOL0     H37700   2.084   2.842   9.562 -2.8313 -0.6158  1.7304
 1021MOL0     O37701   6.694  10.905   2.764  0.1263 -0.7195  0.0864
 1021MOL0     C37702   6.716  10.781   2.746  0.8789  0.0475  0.6228
 1021MOL0     O37703   6.838  10.720   2.721  0.1990  0.3858 -0.8732
 1021MOL0     C37704   6.948  10.797   2.698  1.1204  0.0373  0.1522
 1021MOL0     C37705   6.974  10.925   2.760  1.0939  0.5666  0.3136
 1021MOL0     C37706   7.086  10.992   2.723 -0.4179 -0.4005 -0.6888
 1021MOL0     C37707   7.169  10.949   2.622  0.2870  0.2662 -0.5227
 1021MOL0     O37708   7.284  11.005   2.592 -0.1649 -0.2906  0.6160
 1021MOL0     C37709   7.369  11.046   2.703  0.3419  0.1047  0.3296
 1021MOL0     C37710   7.503  11.079   2.648 -0.4438 -0.5270 -0.2230
 1021MOL0     C37711   7.590  10.959   2.650 -0.7061 -0.3583  0.3778
 1021MOL0     C37712   7.728  10.999   2.587  0.4827  0.6107 -0.8216
 1021MOL0     C37713   7.827  10.888   2.613  0.1481  0.1827  0.4299
 1021MOL0     C37714   7.948  10.916   2.519 -0.1341 -0.0214 -0.1895
 1021MOL0     C37715   8.062  10.830   2.570  0.2630  0.3637  0.2336
 1021MOL0     C37716   8.015  10.678   2.564 -0.5224 -0.0323  0.0435
 1021MOL0     N37717   8.123  10.582   2.593  0.0354  0.4074 -0.2090
 1021MOL0     C37718   8.240  10.604   2.668  0.4456  0.1223 -0.3867
 1021MOL0     C37719   8.316  10.492   2.644 -0.1206 -0.3072 -0.4270
 1021MOL0     C37720   8.461  10.472   2.680 -0.9430 -0.3790  0.3869
 1021MOL0     C37721   8.553  10.598   2.671 -0.2650  0.2200 -0.6474
 1021MOL0     C37722   8.693  10.548   2.695  0.7108  0.4563 -0.0058
 1021MOL0     C37723   8.794  10.670   2.685 -0.3740 -0.1450 -0.5350
 1021MOL0     O37724   8.919  10.642   2.747  0.0006  0.0198  0.5024
 1021MOL0     C37725   9.029  10.704   2.720 -1.3429  0.0760  0.4514
 1021MOL0     C37726   9.143  10.652   2.783  0.5819 -0.7455  0.4714
 1021MOL0     C37727   9.266  10.712   2.763 -0.0428 -0.0196 -0.1240
 1021MOL0     C37728   9.274  10.833   2.687 -0.6894  0.7525  0.1801
 1021MOL0     C37729   9.415  10.893   2.658  1.4668  0.6811  0.0300
 1021MOL0     O37730   9.521  10.819   2.689 -0.1611 -0.1930 -0.1501
 1021MOL0     C37731   9.653  10.873   2.666  0.6158 -1.4173 -0.1234
 1021MOL0     C37732   9.743  10.809   2.579  0.4620 -0.1253 -0.2857
 1021MOL0     C37733   9.868  10.871   2.559  0.3423 -0.2034  0.9441
 1021MOL0     C37734   9.923  10.962   2.646 -0.5946  0.6827 -0.8826
 1021MOL0     O37735  10.056  11.007   2.628 -0.4286  0.5558 -0.3917
 1021MOL0     C37736  10.145  11.011   2.748 -0.2673 -0.2423  0.4733
 1021MOL0     C37737  10.283  11.063   2.696  0.1072  0.0758  0.5473
 1021MOL0     C37738  10.381  11.071   2.803 -0.0740  0.1275  0.3875
 1021MOL0     C37739  10.530  11.088   2.744  0.6115  0.5533  0.3957
 1021MOL0     C37740  10.555  11.213   2.659  0.3255 -0.2993 -1.6727
 1021MOL0     C37741  10.661  11.187   2.553 -0.2555 -0.4732  0.0846
 1021MOL0     C37742  10.722  11.305   2.485  0.2156 -0.0295  0.8079
 1021MOL0     C37743  10.623  11.354   2.372  0.1151  0.2352  0.2791
 1021MOL0    Cl37744  10.684  11.513   2.327  0.0850 -0.5519 -0.2546
 1021MOL0     C37745   9.841  11.018   2.744  0.3648  0.2539 -0.0509
 1021MOL0     C37746   9.697  10.976   2.750 -0.8703  0.1290 -0.2112
 1021MOL0     O37747   9.417  10.998   2.597  0.4939  0.1678 -0.8368
 1021MOL0     C37748   9.156  10.887   2.626 -0.7461 -0.2969 -0.4819
 1021MOL0     C37749   9.035  10.826   2.641  0.9758  0.0430  0.2161
 1021MOL0     N37750   8.245  10.399   2.568  0.0246 -0.4483  0.0211
 1021MOL0     N37751   8.138  10.462   2.530 -0.1326 -0.3089 -0.6945
 1021MOL0     C37752   7.141  10.829   2.558 -0.1912  0.9319  0.4572
 1021MOL0     C37753   7.028  10.751   2.598  0.1008  0.3186 -0.0247
 1021MOL0     C37754   6.593  10.705   2.766 -0.2407  0.6180 -0.0607
 1021MOL0     C37755   6.475  10.760   2.813 -0.0314  0.5971 -0.8768
 1021MOL0     C37756   6.353  10.687   2.813 -0.2297  0.2237 -0.3834
 1021MOL0     C37757   6.348  10.549   2.773  0.1998 -0.4762 -0.1634
 1021MOL0     O37758   6.231  10.475   2.772 -0.0943  0.6154 -0.0568
 1021MOL0     C37759   6.103  10.525   2.807  0.2297  0.4081 -1.1352
 1021MOL0     C37760   5.999  10.415   2.807  0.3450  0.0265 -0.7490
 1021MOL0     C37761   6.035  10.296   2.899  0.0493  0.6017  0.5661
 1021MOL0     C37762   5.926  10.186   2.924  0.5655 -1.1868 -0.5508
 1021MOL0     C37763   6.002  10.063   2.934  0.3734 -0.6128 -0.0512
 1021MOL0     C37764   6.075   9.967   2.957 -0.5064  0.1621 -1.2630
 1021MOL0     C37765   6.467  10.491   2.739 -0.7631 -0.5633  0.0424
 1021MOL0     C37766   6.587  10.568   2.730 -0.1992 -0.2964 -0.1549
 1021MOL0     C37767   6.701  10.482   2.690  0.5253  0.2100  0.4238
 1021MOL0     H37768   6.915  10.962   2.843 -2.4441 -0.0021 -1.7307
 1021MOL0     H37769   7.103  11.077   2.789 -0.2949  0.5672 -1.9176
 1021MOL0     H37770   7.325  11.139   2.739  0.6238  1.9951 -3.6338
 1021MOL0     H37771   7.368  10.960   2.771 -2.1218 -1.3986 -1.4136
 1021MOL0     H37772   7.544  11.163   2.703  1.0827 -1.4917  0.1913
 1021MOL0     H37773   7.497  11.113   2.544 -0.9801  2.0630  0.5940
 1021MOL0     H37774   7.552  10.879   2.585 -1.3841  1.6569 -1.8745
 1021MOL0     H37775   7.592  10.919   2.752 -0.1519 -0.3781  0.3605
 1021MOL0     H37776   7.708  11.027   2.483 -2.5878  2.1283  0.0611
 1021MOL0     H37777   7.759  11.090   2.638  0.8823 -0.5446  1.0976
 1021MOL0     H37778   7.844  10.875   2.720 -0.1998  0.0864  0.4766
 1021MOL0     H37779   7.789  10.791   2.580  1.1474  0.1122 -0.5997
 1021MOL0     H37780   7.933  10.885   2.415 -1.6563 -0.8191  0.2406
 1021MOL0     H37781   7.983  11.019   2.521  2.0203 -0.6909 -0.1770
 1021MOL0     H37782   8.101  10.863   2.666  0.3511  0.7243  0.0730
 1021MOL0     H37783   8.142  10.850   2.498 -0.5223  0.6111 -0.5961
 1021MOL0     H37784   7.934  10.646   2.630 -0.5755 -0.5082 -0.2502
 1021MOL0     H37785   7.984  10.652   2.462 -1.8945  0.3634  0.3311
 1021MOL0     H37786   8.270  10.695   2.720 -2.1544  0.9128 -0.1425
 1021MOL0     H37787   8.460  10.433   2.782  0.1428 -1.9491 -0.1777
 1021MOL0     H37788   8.498  10.402   2.605  0.9809  0.5726  0.3865
 1021MOL0     H37789   8.549  10.640   2.570 -4.4475  1.0351 -0.2908
 1021MOL0     H37790   8.513  10.672   2.740 -1.9346 -1.2738  0.0575
 1021MOL0     H37791   8.720  10.472   2.621  1.2346  0.1168  0.5274
 1021MOL0     H37792   8.699  10.505   2.795  1.1532  1.1112  0.2546
 1021MOL0     H37793   8.753  10.755   2.740  0.0616  0.2153 -0.7672
 1021MOL0     H37794   8.798  10.695   2.579 -0.0728  0.8876 -0.2922
 1021MOL0     H37795   9.143  10.557   2.835  0.4942  0.0218  1.9201
 1021MOL0     H37796   9.352  10.666   2.810  0.0780  0.1494 -0.1779
 1021MOL0     H37797   9.726  10.714   2.529  2.9215 -0.1353 -1.2446
 1021MOL0     H37798   9.938  10.833   2.485 -1.7430  0.5013 -1.5671
 1021MOL0     H37799  10.109  11.075   2.829 -0.0046  0.6034 -0.0589
 1021MOL0     H37800  10.154  10.910   2.788  0.8522 -0.1712  0.4308
 1021MOL0     H37801  10.310  11.000   2.610 -0.2806 -0.0857  0.5399
 1021MOL0     H37802  10.262  11.166   2.664 -2.0697 -0.1282  1.1544
 1021MOL0     H37803  10.361  11.155   2.869 -1.9558 -0.6179  0.8363
 1021MOL0     H37804  10.381  10.984   2.870  0.2224  2.1310  3.1234
 1021MOL0     H37805  10.539  11.002   2.677 -0.8462  0.6946  0.0067
 1021MOL0     H37806  10.596  11.069   2.830  0.4404 -1.0944  0.2104
 1021MOL0     H37807  10.586  11.287   2.732 -0.7597  1.1991 -2.6749
 1021MOL0     H37808  10.464  11.245   2.608 -3.2226 -4.5730  1.2338
 1021MOL0     H37809  10.737  11.131   2.609 -1.4484 -1.4311  0.8003
 1021MOL0     H37810  10.632  11.109   2.482  2.7260 -0.3274 -1.4673
 1021MOL0     H37811  10.818  11.272   2.445 -0.6248 -2.3177  0.5530
 1021MOL0     H37812  10.736  11.384   2.560  0.8122  0.5062  0.1403
 1021MOL0     H37813  10.623  11.285   2.287  1.2297  0.8360 -0.2300
 1021MOL0     H37814  10.519  11.361   2.406  0.2431  4.4691  0.2495
 1021MOL0     H37815   9.874  11.105   2.801 -0.9998  3.0877 -3.2615
 1021MOL0     H37816   9.629  11.024   2.819 -2.1704  0.4393 -1.6580
 1021MOL0     H37817   9.158  10.983   2.575 -2.4724  0.5136  0.8841
 1021MOL0     H37818   8.953  10.876   2.591 -0.3130 -1.3813  0.8176
 1021MOL0     H37819   7.202  10.796   2.474 -1.7664 -0.9536 -0.0385
 1021MOL0     H37820   7.001  10.655   2.556  1.7357 -0.5888  0.8972
 1021MOL0     H37821   6.456  10.861   2.846  0.0075 -0.1165  1.4738
 1021MOL0     H37822   6.263  10.733   2.851 -1.0420  1.4062 -3.3966
 1021MOL0     H37823   6.082  10.594   2.725 -0.8584  1.0350 -0.3651
 1021MOL0     H37824   6.102  10.576   2.904 -0.8182 -1.0562 -0.3161
 1021MOL0     H37825   5.985  10.389   2.701 -1.5983  2.8027 -1.2984
 1021MOL0     H37826   5.902  10.456   2.835 -0.7800 -2.6210 -0.4053
 1021MOL0     H37827   6.045  10.331   3.002 -2.8744 -1.0893  1.5590
 1021MOL0     H37828   6.127  10.248   2.865 -0.2112  0.6977 -0.3092
 1021MOL0     H37829   5.863  10.223   3.006  0.8479  1.8168 -1.5658
 1021MOL0     H37830   5.860  10.173   2.838 -0.3478 -0.8431  0.0790
 1021MOL0     H37831   6.130   9.877   2.975 -1.1593 -0.1845 -0.9873
 1021MOL0     H37832   6.479  10.384   2.726  2.9608 -0.6270  2.5426
 1021MOL0     H37833   6.757  10.459   2.781  1.8413  1.2938 -0.0767
 1021MOL0     H37834   6.672  10.390   2.638  2.6817  0.0713 -0.6050
 1021MOL0     H37835   6.777  10.525   2.625  0.8822 -0.2576  0.5324
 1022MOL0     O37836   3.946   1.552   4.821  1.0933 -0.2470  0.2284
 1022MOL0     C37837   3.876   1.448   4.818 -0.6519 -0.4627  0.4606
 1022MOL0     O37838   3.917   1.322   4.835  0.2946  0.1335 -1.0756
 1022MOL0     C37839   4.047   1.300   4.809  0.7859  0.2884  0.2677
 1022MOL0     C37840   4.141   1.328   4.903 -1.3320  0.1740 -0.3042
 1022MOL0     C37841   4.278   1.319   4.874  1.1736  0.4606  0.2871
 1022MOL0     C37842   4.312   1.281   4.739 -0.3297 -0.1672 -0.5274
 1022MOL0     O37843   4.444   1.270   4.690  0.0333 -0.0056 -0.5959
 1022MOL0     C37844   4.550   1.315   4.778 -0.1796 -0.1817  0.0338
 1022MOL0     C37845   4.688   1.287   4.720 -0.1458  0.5624  0.3152
 1022MOL0     C37846   4.793   1.347   4.816  0.3807  0.2339  0.3135
 1022MOL0     C37847   4.932   1.305   4.776  0.3542  0.2155  0.0468
 1022MOL0     C37848   5.034   1.403   4.838 -0.1270 -0.2930  0.2638
 1022MOL0     C37849   5.174   1.388   4.779  0.7237  0.6928  0.3821
 1022MOL0     C37850   5.283   1.446   4.871  0.3470 -0.9928  0.5299
 1022MOL0     C37851   5.418   1.465   4.810 -0.1633 -0.1136  0.4247
 1022MOL0     N37852   5.501   1.567   4.883  0.0369 -0.0284 -0.6489
 1022MOL0     C37853   5.484   1.705   4.889  0.1631  0.9875 -0.5099
 1022MOL0     C37854   5.589   1.749   4.954 -0.4774 -0.2131 -0.3970
 1022MOL0     C37855   5.631   1.890   4.968 -0.1488  0.8926  0.5107
 1022MOL0     C37856   5.672   1.915   5.108 -0.0490  0.5797  0.2506
 1022MOL0     C37857   5.781   2.023   5.116 -0.4907  0.0853 -0.7585
 1022MOL0     C37858   5.840   2.034   5.262  0.1944 -0.1741  0.5471
 1022MOL0     O37859   5.982   2.065   5.267  0.4967  0.5417  0.2492
 1022MOL0     C37860   6.035   2.158   5.352  0.6143  0.3138 -0.0708
 1022MOL0     C37861   6.162   2.201   5.320  0.5946 -0.4152 -0.5127
 1022MOL0     C37862   6.221   2.299   5.402 -0.5011 -0.0475  0.0090
 1022MOL0     C37863   6.159   2.356   5.513  0.2863  0.2570  0.4192
 1022MOL0     C37864   6.225   2.462   5.594  0.4185 -0.6615  0.4772
 1022MOL0     O37865   6.366   2.472   5.581  1.0153  0.1245  0.0938
 1022MOL0     C37866   6.431   2.563   5.654  0.1306 -0.5234  0.4721
 1022MOL0     C37867   6.527   2.524   5.737 -0.5870  0.3655 -0.1119
 1022MOL0     C37868   6.607   2.618   5.804 -0.1521 -0.2736  0.5813
 1022MOL0     C37869   6.574   2.762   5.804  0.5868 -0.0796  0.7135
 1022MOL0     O37870   6.637   2.867   5.868  0.1171  0.3973  0.5161
 1022MOL0     C37871   6.740   2.834   5.961 -0.4719 -0.2375  0.6007
 1022MOL0     C37872   6.800   2.968   6.018 -0.8019  0.2271 -0.7483
 1022MOL0     C37873   6.937   2.946   6.062  0.1481 -0.4310 -0.4998
 1022MOL0     C37874   6.995   3.079   6.116 -0.1073 -0.1989 -0.3165
 1022MOL0     C37875   7.134   3.057   6.173 -0.3194  0.4643 -0.0241
 1022MOL0     C37876   7.217   3.178   6.204 -0.5247 -0.3020 -0.2120
 1022MOL0     C37877   7.352   3.147   6.279  0.5280 -0.2763  0.0037
 1022MOL0     C37878   7.412   3.278   6.333 -0.5315  0.6714 -0.1267
 1022MOL0    Cl37879   7.300   3.374   6.426 -0.0897 -0.4419 -0.4098
 1022MOL0     C37880   6.462   2.795   5.728  0.8518 -0.3669 -0.2899
 1022MOL0     C37881   6.395   2.700   5.650  0.0518  0.0050  0.2095
 1022MOL0     O37882   6.159   2.511   5.688 -0.1285 -0.9937  0.1303
 1022MOL0     C37883   6.035   2.304   5.548 -0.1040 -0.5993 -0.0110
 1022MOL0     C37884   5.971   2.211   5.468 -0.5900  0.6904  0.3086
 1022MOL0     N37885   5.669   1.642   4.990  0.2748  0.2131 -0.6963
 1022MOL0     N37886   5.614   1.537   4.950  0.7705 -0.0063 -0.0523
 1022MOL0     C37887   4.221   1.246   4.651 -0.0711  0.5952  0.4308
 1022MOL0     C37888   4.089   1.257   4.682 -0.0388 -0.3436  0.2000
 1022MOL0     C37889   3.728   1.466   4.799  0.3574  0.0983 -0.7729
 1022MOL0     C37890   3.668   1.593   4.827 -1.5745 -0.3012 -0.0706
 1022MOL0     C37891   3.533   1.617   4.815  0.5357  0.2668 -0.1820
 1022MOL0     C37892   3.447   1.511   4.779  0.5930 -0.7050  0.7041
 1022MOL0     O37893   3.314   1.540   4.776  0.2452 -0.5005  0.0425
 1022MOL0     C37894   3.225   1.469   4.696  0.7641 -0.1361 -0.2955
 1022MOL0     C37895   3.085   1.500   4.757  0.9081  0.4789 -1.0937
 1022MOL0     C37896   2.974   1.474   4.654 -0.3812  0.3478  0.0616
 1022MOL0     C37897   2.838   1.508   4.723 -0.3442 -0.1781  0.7947
 1022MOL0     C37898   2.727   1.472   4.631  0.1327 -0.1835  0.2023
 1022MOL0     C37899   2.630   1.453   4.562 -0.9433 -0.0981 -0.2441
 1022MOL0     C37900   3.500   1.379   4.773 -0.2513  1.2191  0.1322
 1022MOL0     C37901   3.636   1.354   4.783 -0.3379 -0.2726 -0.6349
 1022MOL0     C37902   3.682   1.205   4.769  0.2932 -0.7483  0.4874
 1022MOL0     H37903   4.103   1.359   5.000  1.3816  1.5259  0.4007
 1022MOL0     H37904   4.356   1.341   4.947  3.5504 -0.5847 -1.8059
 1022MOL0     H37905   4.523   1.417   4.805 -0.9443  0.0196 -1.3844
 1022MOL0     H37906   4.551   1.254   4.869  2.4926 -1.2276 -0.6034
 1022MOL0     H37907   4.687   1.335   4.621  1.9735 -0.1207 -0.0979
 1022MOL0     H37908   4.706   1.180   4.711 -0.3959  0.6107 -0.9123
 1022MOL0     H37909   4.778   1.318   4.920  1.3647 -1.3287  0.0527
 1022MOL0     H37910   4.774   1.455   4.811 -1.0579  0.0722  1.7405
 1022MOL0     H37911   4.958   1.201   4.796  2.1757  1.0598  2.3958
 1022MOL0     H37912   4.943   1.317   4.667  0.8891 -3.3231 -0.4093
 1022MOL0     H37913   5.003   1.507   4.845 -0.6813 -0.5354  1.5936
 1022MOL0     H37914   5.044   1.372   4.942  1.1128  1.5426  0.7426
 1022MOL0     H37915   5.194   1.282   4.761 -3.5481 -0.0346 -1.5995
 1022MOL0     H37916   5.167   1.450   4.689 -0.6157  0.9620  0.6479
 1022MOL0     H37917   5.290   1.378   4.957  0.4197 -1.6488  0.0104
 1022MOL0     H37918   5.240   1.541   4.904 -0.1666  0.2444 -3.2753
 1022MOL0     H37919   5.467   1.368   4.796 -1.5193 -0.8635  0.6744
 1022MOL0     H37920   5.397   1.490   4.706 -1.5255 -0.9232  0.4834
 1022MOL0     H37921   5.403   1.768   4.852 -1.2801  0.2043  1.1451
 1022MOL0     H37922   5.713   1.893   4.895 -1.1670 -1.0104 -0.8001
 1022MOL0     H37923   5.554   1.963   4.942 -0.1770  0.7146  0.0706
 1022MOL0     H37924   5.575   1.937   5.154 -0.9064 -2.7509  0.2930
 1022MOL0     H37925   5.702   1.829   5.168 -2.0665  0.0904  0.6281
 1022MOL0     H37926   5.736   2.120   5.096 -2.3109 -0.1935  1.5575
 1022MOL0     H37927   5.859   1.994   5.045 -0.2578  1.1621 -0.9568
 1022MOL0     H37928   5.822   1.935   5.306 -0.7418  0.5070  1.7753
 1022MOL0     H37929   5.787   2.112   5.317  2.0309  2.3905 -1.0717
 1022MOL0     H37930   6.217   2.163   5.235 -1.5247 -1.8371 -1.3454
 1022MOL0     H37931   6.324   2.325   5.379  0.2061 -1.9406  0.8145
 1022MOL0     H37932   6.558   2.420   5.742  1.4643  0.9895  1.8401
 1022MOL0     H37933   6.692   2.572   5.854 -1.0846 -2.8744 -0.0507
 1022MOL0     H37934   6.702   2.769   6.040  0.3058 -2.2197 -0.5746
 1022MOL0     H37935   6.823   2.779   5.916 -2.1212 -0.9584 -1.7376
 1022MOL0     H37936   6.783   3.049   5.947 -0.8049  1.8607  1.0535
 1022MOL0     H37937   6.749   3.000   6.109  1.4982  0.1097  0.6604
 1022MOL0     H37938   6.938   2.876   6.146 -1.4589 -2.2444 -1.9319
 1022MOL0     H37939   7.002   2.904   5.985 -0.5310 -1.2808 -0.6129
 1022MOL0     H37940   6.935   3.125   6.194  2.1017  2.8961 -0.2367
 1022MOL0     H37941   7.003   3.148   6.031  0.3685 -0.0949 -0.1897
 1022MOL0     H37942   7.191   2.997   6.101 -0.4651  0.6960 -0.3343
 1022MOL0     H37943   7.122   2.997   6.264  0.0358 -1.1087 -0.9843
 1022MOL0     H37944   7.234   3.231   6.109  1.4637 -1.7540 -0.7366
 1022MOL0     H37945   7.162   3.244   6.272  1.1104  0.2069  0.6864
 1022MOL0     H37946   7.415   3.090   6.210 -0.7123  0.3729 -1.7440
 1022MOL0     H37947   7.326   3.087   6.367 -0.7439 -2.9951 -2.0786
 1022MOL0     H37948   7.494   3.247   6.400 -3.0855 -3.4864  1.4764
 1022MOL0     H37949   7.450   3.334   6.248  0.0066 -0.3209 -0.5629
 1022MOL0     H37950   6.425   2.896   5.713 -0.4317 -0.6440  0.8146
 1022MOL0     H37951   6.306   2.728   5.594  0.7638  1.1678 -0.3723
 1022MOL0     H37952   5.983   2.355   5.628  0.6121 -0.4742  0.3854
 1022MOL0     H37953   5.873   2.171   5.493  0.8598 -3.0028  0.7266
 1022MOL0     H37954   4.248   1.229   4.548  0.0429  4.1054 -0.2454
 1022MOL0     H37955   4.015   1.229   4.608 -0.7213  1.2043  0.2611
 1022MOL0     H37956   3.731   1.680   4.845 -0.7576 -0.2431 -2.7346
 1022MOL0     H37957   3.480   1.712   4.827  0.4376  0.4721 -1.9991
 1022MOL0     H37958   3.245   1.362   4.709 -2.3106 -0.7682  0.0069
 1022MOL0     H37959   3.220   1.492   4.590  2.9305  0.1619 -0.3808
 1022MOL0     H37960   3.088   1.607   4.779  1.4959 -0.0479  1.7501
 1022MOL0     H37961   3.074   1.438   4.846  0.0125 -0.1707 -1.6499
 1022MOL0     H37962   2.979   1.368   4.626 -1.8457 -0.7540  3.3358
 1022MOL0     H37963   2.972   1.548   4.574  0.7640 -0.2697 -0.5513
 1022MOL0     H37964   2.829   1.457   4.819 -1.2695 -0.6497  0.4695
 1022MOL0     H37965   2.825   1.615   4.742 -0.7357  0.0781 -0.7616
 1022MOL0     H37966   2.549   1.440   4.493 -0.1540 -0.4696 -1.1089
 1022MOL0     H37967   3.438   1.291   4.760  1.4184  0.1655 -1.2108
 1022MOL0     H37968   3.708   1.156   4.864  2.9241  0.6462  0.5602
 1022MOL0     H37969   3.595   1.154   4.726 -1.2728  1.7862  0.4988
 1022MOL0     H37970   3.768   1.196   4.703 -1.2644  0.7450 -1.9009
 1023MOL0     O37971   7.368   2.117   2.921 -0.1722  0.1296 -0.6190
 1023MOL0     C37972   7.353   2.107   3.043 -0.4711 -0.0031 -0.0899
 1023MOL0     O37973   7.436   2.154   3.139 -0.3086  0.2744  0.5584
 1023MOL0     C37974   7.576   2.168   3.128  1.5620  0.6352  0.7548
 1023MOL0     C37975   7.645   2.255   3.212  0.0393 -0.0948 -0.2509
 1023MOL0     C37976   7.795   2.258   3.207 -0.1136  0.2127 -0.3062
 1023MOL0     C37977   7.856   2.182   3.121 -1.1252  0.4433  0.0755
 1023MOL0     O37978   7.990   2.189   3.117 -0.9956  0.6950  0.0454
 1023MOL0     C37979   8.058   2.130   3.003 -0.1003  1.2506  0.0684
 1023MOL0     C37980   8.212   2.149   3.017 -0.6321 -0.0739 -0.3702
 1023MOL0     C37981   8.261   2.145   3.163 -0.1610  0.7625  0.1725
 1023MOL0     C37982   8.418   2.163   3.178  0.0190 -0.6070  0.7028
 1023MOL0     C37983   8.469   2.210   3.317  0.5266 -0.4674  0.4170
 1023MOL0     C37984   8.620   2.257   3.305 -0.3831  0.9806 -0.4061
 1023MOL0     C37985   8.670   2.344   3.422  0.3468 -0.3682  0.6116
 1023MOL0     C37986   8.691   2.277   3.558  0.2820  0.0742  0.1387
 1023MOL0     N37987   8.816   2.208   3.570 -0.4558  0.4434 -0.5555
 1023MOL0     C37988   8.886   2.213   3.689  0.2653  0.4783  0.4454
 1023MOL0     C37989   8.962   2.102   3.675 -0.6427 -0.6559  0.7111
 1023MOL0     C37990   9.066   2.047   3.777  0.5321 -0.1870  0.3619
 1023MOL0     C37991   9.019   1.907   3.837 -0.2743 -0.9944 -0.1459
 1023MOL0     C37992   9.094   1.860   3.959 -1.5935  0.5719 -0.8459
 1023MOL0     C37993   9.241   1.823   3.935  0.0522 -0.6077  1.0814
 1023MOL0     O37994   9.242   1.702   3.847 -0.4263 -0.3961 -0.2349
 1023MOL0     C37995   9.363   1.634   3.830  0.1224  0.4035  0.0138
 1023MOL0     C37996   9.372   1.544   3.720 -0.1001  0.4553  0.0511
 1023MOL0     C37997   9.489   1.479   3.688  0.2856  0.0873 -0.6469
 1023MOL0     C37998   9.601   1.485   3.766 -0.7025 -0.3623  0.1568
 1023MOL0     C37999   9.729   1.416   3.731  0.1428  0.1326 -0.5715
 1023MOL0     O38000   9.846   1.440   3.801 -0.1238  0.0373  0.1204
 1023MOL0     C38001   9.965   1.380   3.754  0.2306 -0.6393 -0.6829
 1023MOL0     C38002  10.019   1.399   3.626  0.6844 -0.2571  0.2663
 1023MOL0     C38003  10.144   1.359   3.607 -0.3781  0.3040  0.0979
 1023MOL0     C38004  10.222   1.293   3.714 -0.8829 -0.6076  0.3265
 1023MOL0     O38005  10.361   1.274   3.684 -0.0261 -0.1760 -0.5754
 1023MOL0     C38006  10.454   1.262   3.786 -0.5353  0.3691 -0.0070
 1023MOL0     C38007  10.582   1.232   3.712 -0.4659 -0.6919  0.2833
 1023MOL0     C38008  10.707   1.246   3.808  0.0650  0.7108  0.2324
 1023MOL0     C38009  10.854   1.206   3.765  0.1891 -0.1271  0.8004
 1023MOL0     C38010  10.879   1.064   3.768 -0.5779  1.6442  0.3897
 1023MOL0     C38011  11.020   1.020   3.722  0.7644 -0.2192  0.0578
 1023MOL0     C38012  11.030   0.865   3.733  0.7466 -0.3312 -0.2724
 1023MOL0     C38013  11.175   0.819   3.703  0.1364  0.1559  0.0602
 1023MOL0    Cl38014  11.292   0.883   3.830  0.1990 -0.4243  0.6011
 1023MOL0     C38015  10.158   1.267   3.836 -0.2054 -0.0295  0.1815
 1023MOL0     C38016  10.038   1.326   3.858 -0.3392  0.0259  1.1880
 1023MOL0     O38017   9.728   1.351   3.628 -0.6115 -0.2802  0.7017
 1023MOL0     C38018   9.597   1.575   3.877  0.0494  0.6704  0.0275
 1023MOL0     C38019   9.480   1.644   3.914  0.6161 -0.1984  1.0252
 1023MOL0     N38020   8.949   2.050   3.546  0.0362 -0.6971 -0.9784
 1023MOL0     N38021   8.856   2.112   3.485  0.0361 -0.4286  0.1683
 1023MOL0     C38022   7.783   2.094   3.034  0.0112  0.0658 -0.4198
 1023MOL0     C38023   7.644   2.088   3.032  0.6514 -0.1903  0.3302
 1023MOL0     C38024   7.219   2.044   3.096 -0.4228 -0.3892  0.5144
 1023MOL0     C38025   7.126   1.998   2.997  0.1865  0.2354 -0.1727
 1023MOL0     C38026   6.998   1.939   3.032 -0.4166 -0.0481  0.3201
 1023MOL0     C38027   6.967   1.927   3.167  0.6538  0.1121  0.7261
 1023MOL0     O38028   6.843   1.879   3.204  0.1288 -0.0023 -0.8112
 1023MOL0     C38029   6.770   1.801   3.108 -0.2993  0.4826  0.1695
 1023MOL0     C38030   6.648   1.732   3.180  0.1166  0.0091  0.0651
 1023MOL0     C38031   6.529   1.838   3.206 -0.3529  0.8526  0.1275
 1023MOL0     C38032   6.414   1.776   3.291 -0.3590  0.0482  0.6809
 1023MOL0     C38033   6.306   1.873   3.335  0.2382  0.1185 -0.3128
 1023MOL0     C38034   6.210   1.940   3.365 -0.2327  0.3051 -0.1115
 1023MOL0     C38035   7.053   1.981   3.260 -0.3794  0.3767 -1.1471
 1023MOL0     C38036   7.186   2.025   3.228  0.1228  0.6787  0.3957
 1023MOL0     C38037   7.282   2.047   3.341  0.5036  0.1470 -0.8937
 1023MOL0     H38038   7.591   2.320   3.280 -1.6674  0.9971 -2.5245
 1023MOL0     H38039   7.845   2.328   3.272  1.3159 -1.3120  0.3011
 1023MOL0     H38040   8.043   2.023   2.990  0.3086  1.5115 -3.6400
 1023MOL0     H38041   8.026   2.172   2.907 -3.1378 -3.5745 -1.3806
 1023MOL0     H38042   8.243   2.247   2.979  0.5654  0.5837  2.0745
 1023MOL0     H38043   8.274   2.085   2.953 -1.9854 -1.6162 -0.1866
 1023MOL0     H38044   8.231   2.054   3.215 -1.2187  0.5710 -0.7380
 1023MOL0     H38045   8.217   2.233   3.210  0.7759  1.6716 -0.5787
 1023MOL0     H38046   8.462   2.072   3.137 -0.5901 -0.5930 -0.0098
 1023MOL0     H38047   8.444   2.240   3.105 -0.0409 -0.4628  0.8328
 1023MOL0     H38048   8.406   2.287   3.363 -0.8208 -1.7386  0.7788
 1023MOL0     H38049   8.475   2.118   3.376 -0.8244 -0.4824  0.5762
 1023MOL0     H38050   8.689   2.173   3.296  1.0391  1.8921  1.3064
 1023MOL0     H38051   8.625   2.309   3.209 -0.5600 -0.5300 -1.2513
 1023MOL0     H38052   8.593   2.421   3.436 -0.1787 -0.3529 -1.9425
 1023MOL0     H38053   8.766   2.390   3.396 -0.0086  0.9218  1.4819
 1023MOL0     H38054   8.688   2.357   3.632  2.4862  2.4081 -2.0724
 1023MOL0     H38055   8.609   2.207   3.576 -0.7620  1.7410  2.2588
 1023MOL0     H38056   8.873   2.283   3.771  2.4494  3.3883 -1.4777
 1023MOL0     H38057   9.170   2.036   3.745  0.4329  0.5426 -0.2228
 1023MOL0     H38058   9.072   2.127   3.852  0.8358 -0.9775  1.2004
 1023MOL0     H38059   8.913   1.925   3.856 -0.3503  0.4145 -1.7557
 1023MOL0     H38060   9.024   1.828   3.761  1.8524  0.8307 -2.0545
 1023MOL0     H38061   9.054   1.767   4.000  0.5594 -0.6664 -1.3947
 1023MOL0     H38062   9.079   1.916   4.052  0.4498 -2.1902  1.3461
 1023MOL0     H38063   9.282   1.805   4.036  0.3864 -2.2189  0.6964
 1023MOL0     H38064   9.292   1.907   3.888 -0.1718 -1.0315  0.0675
 1023MOL0     H38065   9.287   1.526   3.654 -1.0180 -0.5900  1.4460
 1023MOL0     H38066   9.486   1.426   3.593  0.7459  0.8017 -1.0722
 1023MOL0     H38067   9.968   1.459   3.552 -1.2519  0.1361  1.8475
 1023MOL0     H38068  10.196   1.392   3.517 -3.0163 -1.3166 -2.2028
 1023MOL0     H38069  10.461   1.360   3.834 -1.0432 -0.3244  1.5348
 1023MOL0     H38070  10.419   1.191   3.861 -0.2396 -1.3204 -1.3911
 1023MOL0     H38071  10.581   1.126   3.685  0.0440 -1.8796  4.1918
 1023MOL0     H38072  10.583   1.297   3.624  0.5929 -0.9792  0.0646
 1023MOL0     H38073  10.715   1.352   3.837  0.4158 -0.0894  3.3774
 1023MOL0     H38074  10.680   1.181   3.891 -1.3895  0.5441 -0.3517
 1023MOL0     H38075  10.921   1.264   3.829  0.8430 -1.0232  0.9502
 1023MOL0     H38076  10.867   1.249   3.665  0.7936  1.6796  1.6134
 1023MOL0     H38077  10.812   1.022   3.693 -1.1976 -2.1960  2.7909
 1023MOL0     H38078  10.860   1.027   3.869 -0.4318 -0.2495 -0.2374
 1023MOL0     H38079  11.041   1.056   3.622 -1.8191 -1.5118 -1.0428
 1023MOL0     H38080  11.095   1.057   3.792  0.2813  1.5950 -0.3432
 1023MOL0     H38081  10.957   0.815   3.669 -2.1621  1.7667  1.1789
 1023MOL0     H38082  11.003   0.832   3.834 -1.6869  0.2837 -0.6557
 1023MOL0     H38083  11.178   0.710   3.707  1.2945 -0.0541 -3.1545
 1023MOL0     H38084  11.202   0.846   3.600 -1.5696  0.3878 -0.3580
 1023MOL0     H38085  10.205   1.214   3.918 -3.2613 -1.4434  1.1475
 1023MOL0     H38086  10.002   1.317   3.961 -0.8227  1.6452  1.1917
 1023MOL0     H38087   9.688   1.583   3.936  0.1009 -0.6835  0.1585
 1023MOL0     H38088   9.480   1.707   4.002 -2.6334  3.1172 -1.0081
 1023MOL0     H38089   7.833   2.038   2.956  1.7557  1.1016 -0.0885
 1023MOL0     H38090   7.589   2.014   2.975  1.3455 -0.2144 -0.3315
 1023MOL0     H38091   7.142   2.004   2.890 -3.7595  1.9392 -0.8257
 1023MOL0     H38092   6.929   1.920   2.950  2.5329  1.2637 -2.7354
 1023MOL0     H38093   6.836   1.724   3.068 -1.1932 -0.3100  0.1824
 1023MOL0     H38094   6.743   1.871   3.027 -2.5618  1.1110  1.3681
 1023MOL0     H38095   6.672   1.681   3.274 -1.6156 -0.5398  0.2411
 1023MOL0     H38096   6.612   1.655   3.111  1.5611  0.5819 -1.4082
 1023MOL0     H38097   6.491   1.875   3.110  1.5619 -1.2070 -1.5106
 1023MOL0     H38098   6.573   1.924   3.257 -0.0130  0.9649 -0.3530
 1023MOL0     H38099   6.368   1.697   3.231 -0.1212  0.5241 -0.1371
 1023MOL0     H38100   6.455   1.735   3.384 -0.8045  0.1195  0.9168
 1023MOL0     H38101   6.128   2.003   3.395  0.3876  1.7930 -1.4282
 1023MOL0     H38102   7.015   1.971   3.361 -0.1537 -0.0074 -1.0995
 1023MOL0     H38103   7.341   2.139   3.339  0.6390  0.0982 -3.6645
 1023MOL0     H38104   7.227   2.045   3.436 -0.3486 -5.2425 -1.1590
 1023MOL0     H38105   7.347   1.959   3.337 -0.1894 -0.3489 -1.8758
 1024MOL0     O38106   9.746   5.939   0.019  0.3834 -0.7495  0.2198
 1024MOL0     C38107   9.774   6.044   0.075 -0.5400  0.8041 -0.3243
 1024MOL0     O38108   9.823   6.153   0.012  0.5631 -0.6147  0.4045
 1024MOL0     C38109   9.862   6.156  -0.120  0.9309  0.1293  0.3618
 1024MOL0     C38110   9.921   6.055  -0.196  0.0362 -0.6130  0.3515
 1024MOL0     C38111   9.961   6.087  -0.324 -0.1504 -0.2483  0.1998
 1024MOL0     C38112   9.934   6.207  -0.389 -0.5290 -0.5508  0.2186
 1024MOL0     O38113   9.962   6.212  -0.523  0.5388 -0.0765  0.0483
 1024MOL0     C38114   9.918   6.322  -0.602  0.7882 -0.6630 -0.1959
 1024MOL0     C38115   9.946   6.301  -0.757  0.6839 -0.2207  0.0854
 1024MOL0     C38116  10.099   6.309  -0.791  0.7778  1.3647 -0.6411
 1024MOL0     C38117  10.203   6.375  -0.693  0.2422 -0.3314 -0.7095
 1024MOL0     C38118  10.341   6.377  -0.760 -0.9992 -0.1134  0.1222
 1024MOL0     C38119  10.455   6.402  -0.658 -0.4686  0.1486  0.2674
 1024MOL0     C38120  10.598   6.416  -0.711  0.6368  0.4635  0.9494
 1024MOL0     C38121  10.664   6.277  -0.738  0.3285  0.2912  0.3488
 1024MOL0     N38122  10.813   6.297  -0.723  1.1843 -0.4811  0.6468
 1024MOL0     C38123  10.880   6.280  -0.605 -0.3537 -0.4714  1.2206
 1024MOL0     C38124  11.012   6.267  -0.640 -0.3265 -0.1740  0.6904
 1024MOL0     C38125  11.130   6.271  -0.545  0.1603  0.2446  0.1022
 1024MOL0     C38126  11.221   6.393  -0.575  1.5219  0.9197  1.0802
 1024MOL0     C38127  11.346   6.389  -0.496  0.4923 -0.3010 -0.7734
 1024MOL0     C38128  11.445   6.294  -0.560 -0.7734  0.1799 -0.1861
 1024MOL0     O38129  11.523   6.358  -0.661  0.0208 -0.9310 -0.0090
 1024MOL0     C38130  11.617   6.445  -0.627 -0.7166 -0.0952  0.3022
 1024MOL0     C38131  11.670   6.502  -0.736 -0.1217 -0.2541  0.3179
 1024MOL0     C38132  11.772   6.597  -0.720  1.0139  0.0817  0.6868
 1024MOL0     C38133  11.818   6.642  -0.600 -0.3310  0.0261 -0.5804
 1024MOL0     C38134  11.933   6.736  -0.597  0.0183  0.2416  0.4365
 1024MOL0     O38135  12.002   6.753  -0.717 -0.0508  0.0336 -0.1657
 1024MOL0     C38136  12.126   6.821  -0.717  1.3728  0.2544 -0.3152
 1024MOL0     C38137  12.140   6.957  -0.748 -0.1164  0.0368  0.1770
 1024MOL0     C38138  12.265   7.009  -0.774 -0.2248 -0.4608 -0.1079
 1024MOL0     C38139  12.385   6.933  -0.755 -0.0118  0.0866  0.6824
 1024MOL0     O38140  12.501   7.002  -0.752 -0.8398 -0.3336  0.3380
 1024MOL0     C38141  12.617   6.942  -0.707  0.6638 -0.3039 -0.7168
 1024MOL0     C38142  12.726   7.048  -0.717  0.5786  0.8339  0.0073
 1024MOL0     C38143  12.868   6.989  -0.693  0.6526 -0.5378 -0.1340
 1024MOL0     C38144  12.985   7.061  -0.758  1.0186 -0.3099 -0.2600
 1024MOL0     C38145  13.124   7.016  -0.717 -0.3335 -0.7474  0.7985
 1024MOL0     C38146  13.164   6.878  -0.759  0.5984 -0.5351 -0.7515
 1024MOL0     C38147  13.312   6.858  -0.730  0.5056  0.4125  0.8886
 1024MOL0     C38148  13.380   6.740  -0.798 -0.4590 -0.9142 -0.2303
 1024MOL0    Cl38149  13.548   6.751  -0.739  0.3133 -0.1889 -0.5770
 1024MOL0     C38150  12.365   6.802  -0.725 -0.3723  0.1144  0.3117
 1024MOL0     C38151  12.236   6.739  -0.718  0.6340 -0.5349  0.7452
 1024MOL0     O38152  11.957   6.778  -0.487  0.3037  0.3559 -0.5068
 1024MOL0     C38153  11.768   6.575  -0.481 -0.0228 -0.2214 -0.2358
 1024MOL0     C38154  11.670   6.478  -0.504  0.2950  0.3809 -0.5480
 1024MOL0     N38155  11.017   6.280  -0.782 -0.7953  0.7789  0.2428
 1024MOL0     N38156  10.898   6.297  -0.827  0.3743 -0.1059  0.5460
 1024MOL0     C38157   9.876   6.302  -0.307 -0.2984 -0.6917 -0.2275
 1024MOL0     C38158   9.843   6.287  -0.175  0.1874  0.1369  0.0907
 1024MOL0     C38159   9.727   6.053   0.220  0.3863  0.3285  0.2627
 1024MOL0     C38160   9.622   5.980   0.266 -0.2887  0.0253 -0.1469
 1024MOL0     C38161   9.574   5.985   0.394  0.0957  0.0583 -0.3412
 1024MOL0     C38162   9.626   6.079   0.485 -0.3163  0.3535 -0.4372
 1024MOL0     O38163   9.583   6.102   0.615  0.5834 -1.1645 -0.4288
 1024MOL0     C38164   9.533   5.998   0.698 -0.3725  0.8544 -0.1538
 1024MOL0     C38165   9.574   6.028   0.844  0.2532  0.1956 -0.1025
 1024MOL0     C38166   9.728   6.011   0.870  0.4063  0.5667 -0.0764
 1024MOL0     C38167   9.797   6.141   0.870 -0.4131  0.4365  0.1273
 1024MOL0     C38168   9.941   6.140   0.842 -0.5547  0.2089 -0.6713
 1024MOL0     C38169  10.059   6.150   0.803  0.5357  0.7334 -0.7803
 1024MOL0     C38170   9.739   6.156   0.445 -0.1247 -0.4372  0.2616
 1024MOL0     C38171   9.796   6.135   0.312  0.2272 -0.3649  0.3739
 1024MOL0     C38172   9.916   6.223   0.281 -0.1400  0.7457 -0.1709
 1024MOL0     H38173   9.950   5.957  -0.160  0.8984 -0.1389  0.9838
 1024MOL0     H38174  10.011   6.014  -0.386  0.2477  0.3553 -0.2006
 1024MOL0     H38175   9.810   6.333  -0.594  0.4429 -2.4531 -1.7159
 1024MOL0     H38176   9.968   6.414  -0.572 -0.1413  0.3304 -1.5871
 1024MOL0     H38177   9.897   6.384  -0.808 -0.6398  1.0424  3.1812
 1024MOL0     H38178   9.898   6.210  -0.795 -1.8286  1.2556 -0.4423
 1024MOL0     H38179  10.111   6.361  -0.886 -2.1022  2.1084 -0.7086
 1024MOL0     H38180  10.129   6.204  -0.801 -0.2088  0.8576  1.1338
 1024MOL0     H38181  10.165   6.475  -0.669 -1.0823 -1.2159  1.1613
 1024MOL0     H38182  10.208   6.316  -0.601  3.0057  0.2722 -0.4043
 1024MOL0     H38183  10.363   6.283  -0.811 -0.8973  0.3459 -0.6864
 1024MOL0     H38184  10.350   6.458  -0.833  0.3938 -0.6021 -0.2810
 1024MOL0     H38185  10.418   6.496  -0.615 -1.5497 -0.2995  0.3273
 1024MOL0     H38186  10.457   6.327  -0.578  0.9966 -0.2061 -0.0741
 1024MOL0     H38187  10.653   6.466  -0.630  2.0877 -2.0489  1.6205
 1024MOL0     H38188  10.592   6.476  -0.802  0.8665  0.0113  0.6321
 1024MOL0     H38189  10.631   6.203  -0.664  1.1433  1.6863  2.1885
 1024MOL0     H38190  10.639   6.239  -0.837  4.9748  0.6956 -1.2023
 1024MOL0     H38191  10.839   6.286  -0.505  0.8009  2.7148  1.6428
 1024MOL0     H38192  11.089   6.274  -0.443 -1.8138  0.5357 -0.6747
 1024MOL0     H38193  11.183   6.175  -0.550 -1.7543 -0.8341 -0.4284
 1024MOL0     H38194  11.245   6.384  -0.682  0.5260 -0.2596  0.9357
 1024MOL0     H38195  11.167   6.486  -0.559 -3.5610 -1.7880  1.8192
 1024MOL0     H38196  11.327   6.344  -0.398 -1.8539 -0.4193 -1.2353
 1024MOL0     H38197  11.383   6.488  -0.467  1.8990 -1.1665  0.5531
 1024MOL0     H38198  11.403   6.200  -0.598 -0.3219  0.6612 -1.9745
 1024MOL0     H38199  11.509   6.263  -0.477 -0.7851  1.4900  0.3359
 1024MOL0     H38200  11.618   6.476  -0.828 -1.4232 -1.2414  1.2840
 1024MOL0     H38201  11.816   6.629  -0.814  3.2946  1.2566  2.0691
 1024MOL0     H38202  12.057   7.024  -0.767 -1.9170 -2.2724 -0.5884
 1024MOL0     H38203  12.285   7.110  -0.807  1.1783 -1.5553 -2.9015
 1024MOL0     H38204  12.613   6.905  -0.604  0.3921 -0.4316 -0.7727
 1024MOL0     H38205  12.648   6.857  -0.768  1.1858  0.2173 -1.1908
 1024MOL0     H38206  12.725   7.098  -0.814 -1.5862  1.0639  0.1152
 1024MOL0     H38207  12.707   7.126  -0.643 -5.1628 -0.8436  0.7333
 1024MOL0     H38208  12.895   6.986  -0.587  0.9617  0.2903 -0.1847
 1024MOL0     H38209  12.879   6.884  -0.721  2.1321 -1.2091  2.6391
 1024MOL0     H38210  12.975   7.169  -0.747 -2.1158 -0.3804 -1.3435
 1024MOL0     H38211  12.970   7.035  -0.864 -1.1952 -1.5214  0.3031
 1024MOL0     H38212  13.138   7.034  -0.610  5.4312  0.0285  0.2332
 1024MOL0     H38213  13.200   7.075  -0.771  1.0464 -2.3844  0.8662
 1024MOL0     H38214  13.110   6.806  -0.697  0.4208  0.4838  0.3155
 1024MOL0     H38215  13.131   6.866  -0.863 -0.5490 -2.3414 -0.2365
 1024MOL0     H38216  13.313   6.837  -0.622  0.6050 -0.3269  0.7506
 1024MOL0     H38217  13.370   6.950  -0.743  0.2231  0.1803 -2.8815
 1024MOL0     H38218  13.335   6.645  -0.768 -1.3016 -0.3315  0.3939
 1024MOL0     H38219  13.368   6.746  -0.907  1.2764  0.5100 -0.4026
 1024MOL0     H38220  12.454   6.743  -0.708 -1.6833 -2.4515 -1.1000
 1024MOL0     H38221  12.219   6.634  -0.698 -0.9979 -1.0069 -2.5113
 1024MOL0     H38222  11.816   6.594  -0.385  0.1661  1.7064 -0.6675
 1024MOL0     H38223  11.641   6.421  -0.417  0.5009 -1.7392 -1.7996
 1024MOL0     H38224   9.857   6.401  -0.347  0.9587  1.0025  3.0128
 1024MOL0     H38225   9.796   6.367  -0.118  0.4217 -1.5003  2.7911
 1024MOL0     H38226   9.559   5.917   0.204 -3.1292  3.9550 -1.6357
 1024MOL0     H38227   9.497   5.916   0.427 -0.0273  1.5815  3.0224
 1024MOL0     H38228   9.585   5.905   0.673 -0.2978  1.4395 -2.3365
 1024MOL0     H38229   9.425   5.980   0.698 -0.2462 -0.7758 -3.9220
 1024MOL0     H38230   9.520   5.964   0.914 -3.4150  3.4058  0.3767
 1024MOL0     H38231   9.531   6.126   0.866  0.0719 -0.0664  0.7166
 1024MOL0     H38232   9.776   5.933   0.809 -0.8656 -0.5437  0.2865
 1024MOL0     H38233   9.734   5.979   0.974 -2.7825  3.5030  1.2198
 1024MOL0     H38234   9.764   6.203   0.785  3.2813 -0.0060 -1.8115
 1024MOL0     H38235   9.764   6.196   0.959  0.2741 -1.1177  1.3928
 1024MOL0     H38236  10.154   6.161   0.755  0.1206  2.1806 -1.3368
 1024MOL0     H38237   9.780   6.222   0.521 -0.4610 -1.7650  1.6584
 1024MOL0     H38238   9.884   6.284   0.196  2.3236 -0.3963 -2.0236
 1024MOL0     H38239   9.947   6.289   0.363  0.5507  0.0120  0.1662
 1024MOL0     H38240  10.002   6.164   0.249 -0.3598 -1.0208  2.1992
  11.28151  11.28151  11.28151
